/*--------------------------------*- C++ -*----------------------------------*\
| =========                 |                                                 |
| \\      /  F ield         | OpenFOAM: The Open Source CFD Toolbox           |
|  \\    /   O peration     | Version:  v2012                                 |
|   \\  /    A nd           | Website:  www.openfoam.com                      |
|    \\/     M anipulation  |                                                 |
\*---------------------------------------------------------------------------*/
FoamFile
{
    version     2.0;
    format      ascii;
    class       volScalarField;
    location    "0.66";
    object      omega;
}
// * * * * * * * * * * * * * * * * * * * * * * * * * * * * * * * * * * * * * //

dimensions      [0 0 -1 0 0 0 0];


internalField   nonuniform List<scalar> 
3019
(
884.137007
157.8586117
75.56011778
48.13588832
37.96006388
33.9205962
31.98617475
31.23600089
30.78693903
30.61350683
30.5201448
30.47286613
536.9121966
146.3919029
73.55213167
47.59392833
37.86948006
33.95474544
31.98747532
31.20599455
30.72612118
30.53986987
30.43684129
30.38433226
380.6503424
135.037793
69.99730265
46.50981512
37.56079695
33.90243682
31.95523628
31.16327538
30.66401104
30.46785208
30.356324
30.29993664
320.0472453
121.6887692
65.37443245
45.02938297
37.13670944
33.77430242
31.89031396
31.10553906
30.59518597
30.39252071
30.27511961
30.21493871
242.7713279
104.9622201
60.03367958
43.45808247
36.73732373
33.61184735
31.79904695
31.03480219
30.52070249
30.31436642
30.19186305
30.12922408
183.7851039
89.5397222
55.51102439
42.27255257
36.37760857
33.42910299
31.68913105
30.94810274
30.43550117
30.22740579
30.10284168
30.03811993
151.6602357
80.19702115
53.06347098
41.52463429
36.02926907
33.23402638
31.56582813
30.84959115
30.34270894
30.13500894
30.00945391
29.94382225
138.7840265
76.64504687
51.62453662
40.88027808
35.70081311
33.03506099
31.43366054
30.74115984
30.24034484
30.03367538
29.90810735
29.84227178
130.1118499
73.93127922
50.49546708
40.32485176
35.39520931
32.83751425
31.29577117
30.62474144
30.13236726
29.92831854
29.80358973
29.73803333
123.2651076
71.74273455
49.6135648
39.85026937
35.11319546
32.64447623
31.15439303
30.50220191
30.0163946
29.81456101
29.69105585
29.62626173
117.7551247
69.94588892
48.90981759
39.44976689
34.85528066
32.4579791
31.01143865
30.37520171
29.8981463
29.69986448
29.57805059
29.51422576
113.2349046
68.44618557
48.32984156
39.11276246
34.62138057
32.27939582
30.86847004
30.24526025
29.77341889
29.57732315
29.45712598
29.39449834
109.4561544
67.17468457
47.83920692
38.82650121
34.41006221
32.10945079
30.7266441
30.11359668
29.65006221
29.45771342
29.33943343
29.27802441
106.239552
66.0806116
47.41646278
38.57963587
34.21880129
31.94816682
30.58672027
29.9812752
29.52042782
29.32952768
29.21279088
29.15268187
103.4558228
65.12646148
47.04735263
38.3636047
34.04480558
31.79510823
30.4491798
29.84901559
29.39615157
29.20896613
29.0940647
29.0351754
101.0111669
64.28435258
46.72167509
38.17217494
33.88547237
31.64959971
30.31426748
29.71749281
29.26369981
29.07685633
28.96322543
28.90556391
98.8387388
63.53357418
46.43166103
38.00074725
33.73861655
31.51095088
30.18210363
29.58697949
29.14188283
28.95876246
28.84673825
28.79015949
96.88672436
62.85740207
46.17093877
37.84581937
33.60246815
31.3785268
30.05273102
29.4579594
29.00684092
28.82279743
28.71173369
28.65623157
95.113591
62.24220546
45.93440302
37.70476775
33.4756536
31.25180671
29.9261806
29.33039799
28.89094746
28.71067454
28.60089074
28.54626563
93.48928186
61.67766184
45.71818462
37.57565361
33.35713027
31.13037072
29.80249371
29.20484664
28.75143243
28.5691292
28.46007724
28.40636294
91.98904783
61.15563378
45.51927987
37.45699939
33.24608955
31.01387505
29.6817829
29.08104142
28.64635002
28.46743754
28.35922802
28.30615481
90.59115698
60.66960608
45.33542604
37.34771051
33.14192213
30.90209415
29.56437745
28.9600709
28.49723094
28.31631443
28.20874622
28.15644967
89.2822199
60.21531075
45.16510166
37.24694981
33.04410381
30.79476239
29.45116929
28.84201291
28.41132331
28.23134081
28.12407514
28.07214984
88.0636113
59.79378703
45.00818497
37.15431513
32.95239183
30.69182765
29.34458268
28.73064043
28.22086369
28.03875538
27.93190552
27.88070227
1099.773733
923.9608707
192.1846516
661.5913086
1073.881178
561.3299671
186.1028276
189.9259489
494.8791306
651.3931804
372.6752222
764.6955512
787.2450248
690.5364837
328.3784472
359.427709
1620.545515
941.5936377
1808.318117
1315.817052
661.5862983
891.3061891
398.5666327
169.5354218
182.0181402
574.2107206
635.370822
1229.042588
299.3460615
318.2975226
671.2567592
605.2875349
6425.967712
2736.478434
1591.971341
703.670098
5070.189506
3848.517427
1334.493501
5207.118709
6292.219166
3812.595569
4979.035002
6653.977381
2689.016482
3478.04251
1955.194177
2435.348767
5981.59147
6631.38984
2448.930533
6364.691394
5580.96052
174.0679648
89.20196196
1258.169903
3548.315058
2724.208239
4857.446504
3340.753599
1758.325821
949.7300889
6429.418664
6762.561522
6900.35726
5776.765521
6592.257763
1437.645879
1762.338631
6154.918027
5666.12335
6230.630349
5773.797531
6546.676083
6490.947457
6362.762326
4197.825642
5657.790926
5226.483691
6303.030019
6505.961807
4586.55377
4851.598661
5268.534484
6551.984691
5441.986697
4142.360227
4430.706875
6187.551831
4866.275865
5095.519096
4062.525873
4468.68489
6362.075912
75.98111278
52.65056796
48.1398311
39.65982192
37.92415762
34.5874748
779.4512974
510.9575392
554.3423253
149.6404044
86.10577392
88.61793528
73.92989789
52.11007265
52.61464991
47.79219763
39.60621324
39.68644024
37.91929809
34.64608193
34.6157621
486.2847321
265.3391509
292.3373499
137.8639541
82.0298096
85.45552718
70.93980057
50.82007247
51.82040194
46.81952517
39.21912336
39.52859679
37.6577968
34.59868133
34.64259971
529.2093951
607.8653928
337.3941941
153.4900076
165.8569329
125.4201709
76.32161446
80.78284198
66.65101752
48.96556325
50.40910727
45.42469664
38.65621801
39.09302638
37.24663235
34.45007643
34.56474506
378.9989947
494.9259903
261.7360924
132.2973288
148.6623191
109.2587176
69.23400948
74.62820072
61.35510175
46.80547849
48.44081102
43.83741292
38.05662905
38.50066819
36.82563035
34.25978961
34.40400229
252.1750798
341.8857839
195.7737163
110.2569293
126.5411328
92.95788221
62.56478454
67.43819388
56.48466217
44.93192119
46.28117649
42.50304308
37.590052
37.92871974
36.46695478
34.05139553
34.20829419
188.4952596
230.8360224
157.4802774
94.82672511
105.5438578
81.85841643
58.28976562
61.21066641
53.48080232
43.85265579
44.58730051
41.70108434
37.16765654
37.48176695
36.11470021
33.8310159
33.99685934
166.8160876
180.3371648
141.3130277
88.50620759
92.41602877
77.42780179
56.3652714
57.74455261
51.95306253
43.03869632
43.63615695
41.03258649
36.77663193
37.06676607
35.78083465
33.60855719
33.77522717
155.3326356
163.6797452
132.0855093
84.64208028
87.44962355
74.55393448
54.90722652
55.96321449
50.75182725
42.35046646
42.85547209
40.45588232
36.41881726
36.68404191
35.46941064
33.38999469
33.55338877
146.1998261
152.8557358
124.8350563
81.56932607
83.80941782
72.24872478
53.78013588
54.59878393
49.81473873
41.77402375
42.19622591
39.96164906
36.09365221
36.33446458
35.18145323
33.17831974
33.33634143
138.8176762
144.2086678
119.0281416
79.07266729
80.89751554
70.36401619
52.88086438
53.53720368
49.07238825
41.2975905
41.64606543
39.54345035
35.80074301
36.01738741
34.91748048
32.97556049
33.1267265
132.7571649
137.1924332
114.2870266
77.00597693
78.52017418
68.79735624
52.13895015
52.68258857
48.46538547
40.90401824
41.19215689
39.19175466
35.53930823
35.73247712
34.67765416
32.78316592
32.92644556
127.6970406
131.4088067
110.3420772
75.26554333
76.54349541
67.47418456
51.51190212
51.97259083
47.95481036
40.57426326
40.81625595
38.89397216
35.30690645
35.47860202
34.46090006
32.60187199
32.73678935
123.3971128
126.5585152
106.9987297
73.77636837
74.87203498
66.3397139
50.97289241
51.3696709
47.51664072
40.29262233
40.49982127
38.63816788
35.09973783
35.25289243
34.26488639
32.43156671
32.55828167
119.6822059
122.4192082
104.1167985
72.48375598
73.43650896
65.35353953
50.50350236
50.84956785
47.13520583
40.04794262
40.22831169
38.41509214
34.91382065
35.05139998
34.08683228
32.27155928
32.3906312
116.4236437
118.8289827
101.5946049
71.34736989
72.18627508
64.48560965
50.0902927
50.3953366
46.79947838
39.83247727
39.99156065
38.21800018
34.74561141
34.87021871
33.92405945
32.12087212
32.23304914
113.5290634
115.6687818
99.35930802
70.33753446
71.08396614
63.71366614
49.72306586
49.99448291
46.50118689
39.64063697
39.78246161
38.04193448
34.59219688
34.70595397
33.77426317
31.97850578
32.08452958
110.9296954
112.8541184
97.35651461
69.43120184
70.10203724
63.02024931
49.39357249
49.63742185
46.23367125
39.46818756
39.59583126
37.88315858
34.45128064
34.55586243
33.63558084
31.8435798
31.94410413
108.5690229
110.3192144
95.54182947
68.60929402
69.21845465
62.39089493
49.09501035
49.31624297
45.99149469
39.3118844
39.42768928
37.73884196
34.32108293
34.417775
33.50654146
31.71535454
31.81091621
106.4071113
108.0115996
93.88258056
67.85706958
68.41519469
61.81451518
48.82217325
49.02454727
45.77050861
39.16932144
39.27502192
37.60689868
34.20027135
34.29003534
33.38603026
31.59324601
31.6842689
104.4120693
105.8949011
92.35308596
67.16305385
67.67853095
61.28252135
48.57105582
48.75748312
45.56751591
39.03866414
39.13559082
37.48574529
34.08782309
34.17140086
33.27318185
31.47678209
31.56361115
102.5525399
103.9380279
90.92965413
66.51766271
66.99755709
60.78792568
48.33856119
48.51128332
45.38006929
38.91853962
39.00768136
37.37420217
33.98297347
34.06091703
33.16734799
31.36563453
31.44850369
100.8028666
102.1125364
89.59270502
65.91327347
66.36333888
60.32524668
48.12243467
48.28308069
45.20639644
38.80791917
38.89002237
37.27136689
33.8850945
33.95786735
33.06798313
31.25948682
31.33863459
99.14098054
100.4016669
88.32443788
65.34238104
65.77011723
59.8890143
47.92048409
48.07098935
45.04478882
38.7057733
38.78167357
37.17631738
33.7935012
33.86165224
32.97447573
31.15794302
31.23368952
97.45700091
98.80630912
87.04031622
64.76636234
65.21924931
59.44968956
47.71897
47.87513184
44.88417905
38.6051212
38.68223955
37.08261921
33.70226092
33.77196981
32.88086411
31.05475591
31.13360687
1153.920361
1423.276146
1341.221764
778.1555527
808.143547
980.0197679
199.942358
335.2993173
303.6432903
694.1831844
1372.003812
2475.378615
1867.520842
1055.447818
439.6151592
457.2281198
614.4010593
181.3175922
265.6159114
253.6889064
294.0626915
272.5879298
182.8423229
581.6003418
658.357213
386.4764271
536.1536696
493.9767703
556.1482108
370.2222386
2164.087423
1470.576244
921.9620785
882.1667785
739.7031506
817.9555163
1029.713155
971.295496
456.2747706
500.2895205
751.2828458
336.7122606
410.3979318
398.4413567
474.2900319
428.4512758
348.4498777
2490.292438
2235.374553
1512.605173
3656.577549
3868.818768
5220.16272
982.2262417
1718.27703
1408.133347
1985.916713
3084.788105
2793.0676
927.2571463
980.8943552
1609.184088
685.6787754
809.8947288
778.2902313
847.4916932
714.9900566
1176.230494
1080.56852
852.2198791
3174.762469
3380.410971
1389.746634
1376.188282
278.5541033
289.0562902
463.2937267
173.3393928
216.2276123
210.4180344
246.3864539
222.7957634
177.5346569
591.7350361
693.4026525
670.3964837
747.0706639
720.137958
614.9212989
1042.723061
845.2273464
884.8890674
303.4212287
364.8441399
357.9513946
384.5419114
375.4677537
312.4228648
633.1813393
464.6370893
486.5097685
627.5321129
918.8093011
876.4600051
3036.606535
4484.845028
4061.195458
1189.539982
1253.40923
1055.096335
1094.37348
1693.15543
725.3639713
844.3957396
821.1846526
4642.10629
3313.641829
3653.408576
2725.337917
2992.362705
4189.680632
1397.380238
2000.59141
1805.725549
2900.224596
3943.281006
3655.367097
4725.77009
4342.055217
3192.932664
2066.346195
2909.43794
2727.338948
3357.111126
3137.654161
2286.342836
3681.747571
3391.560684
2219.279352
129.0682097
130.5567153
176.4829435
89.77333912
106.679371
105.7560309
1652.186805
1528.173547
1203.50129
3287.32425
2269.707595
2478.589398
1872.958078
2037.207986
2988.409
1294.775368
1362.710696
1951.627826
999.3118149
1110.698984
1103.329525
1176.1139
1017.900293
2761.138259
2928.374405
1526.254778
2149.830436
2007.785469
2514.657587
2343.320859
1662.889659
33.90089393
32.61058625
31.97068985
31.54105876
31.24998783
31.04957942
843.302678
723.7920894
748.4904178
155.1603771
125.2878064
126.8135618
75.09054085
65.50984901
65.7518274
48.02221996
44.56925289
44.62974137
37.96464613
36.59334817
36.58373242
33.95713154
32.65836251
32.64302064
31.9904041
31.53682375
31.54032457
31.22644325
31.00905234
31.03168847
519.6960187
409.7472945
424.1259238
143.4152256
117.8262266
119.8165265
72.60991839
63.74507395
64.34658002
47.40939
44.07326157
44.2628419
37.808782
36.50624633
36.54568971
33.92460172
32.64494611
32.65528194
31.97730084
31.51311398
31.52743321
31.19164128
30.96207622
30.98779816
366.5300127
262.2568597
269.6191045
132.0670092
109.4869778
111.757017
68.97446036
60.96925058
61.74637518
46.17083794
43.18798008
43.44119003
37.46145465
36.26649563
36.33643971
33.81088629
32.58287644
32.61916674
31.92870481
31.46534529
31.49040291
31.14097419
30.90629314
30.93582278
301.186364
225.1614733
235.81051
117.7080154
98.56071365
101.5647298
64.05096059
57.29582562
58.2846608
44.63210695
42.04375053
42.33932987
37.02701058
35.96320523
36.03981771
33.65429972
32.48034456
32.53554801
31.84720151
31.39717304
31.43114362
31.07692998
30.84104382
30.87502495
225.2809884
180.385275
191.2357841
100.7469726
85.94585477
89.05801377
58.76523112
53.39017558
54.32084551
43.10395614
40.95221955
41.20241749
36.64689687
35.67128518
35.74483633
33.47694245
32.35637962
32.41999713
31.74611901
31.30998349
31.35505929
30.99617429
30.76411574
30.80415169
173.4946314
144.3549568
152.0234912
86.52944269
75.49662706
77.71584508
54.68052872
50.44098182
51.03607371
42.07399181
40.2166374
40.37579751
36.28897241
35.37367402
35.4482144
33.28378652
32.21657285
32.2882578
31.62886086
31.20802365
31.26014489
30.90269221
30.67551963
30.7209694
147.020832
124.1410577
127.5525957
79.15177132
70.14702737
70.93417859
52.67158305
48.96566639
49.28151613
41.35451586
39.62691408
39.76749164
35.94508801
35.07991844
35.15243087
33.08501275
32.06589254
32.14220138
31.50063721
31.09454194
31.15216922
30.79839192
30.57683554
30.62721596
136.4103735
116.1508821
117.9443407
75.90743426
67.57307456
68.15203206
51.3153101
47.85572116
48.11137521
40.73344932
39.10729707
39.23103135
35.62220624
34.79839664
34.86739627
32.88667061
31.9096944
31.98823208
31.36529257
30.97248315
31.03415551
30.68525227
30.46915863
30.52395529
128.250451
109.9750611
111.3856576
73.34080301
65.58256349
66.03767019
50.25449127
46.96559106
47.16931356
40.19881463
38.65101821
38.75944022
35.32245308
34.53251958
34.59744272
32.69224189
31.75138325
31.83064257
31.22539318
30.84434965
30.90884779
30.56516591
30.3541821
30.4124767
121.7775615
105.053962
106.1868636
71.26087968
63.9855992
64.35492875
49.42336495
46.25935557
46.42107081
39.74351163
38.25377845
38.34772943
35.04642831
34.283728
34.34426787
32.50393904
31.59325998
31.67218163
31.08300854
30.71219978
30.77853534
30.43990969
30.23327723
30.29445412
116.5432019
101.0554471
101.9826651
69.5460875
62.67118963
62.9776421
48.75482394
45.69245272
45.82351276
39.36003769
37.91179479
37.99241466
34.79457494
34.05302815
34.10897184
32.323267
31.43706092
31.51482759
30.93987498
30.5776568
30.64504355
30.31104916
30.10830156
30.17134266
112.2285835
97.74610767
98.51890504
68.10909532
61.56852802
61.82728289
48.19977501
45.22484944
45.33414884
39.03690983
37.61853116
37.68773499
34.5665106
33.8407662
33.89212641
32.15112564
31.28407211
31.36010594
30.79735835
30.44204867
30.50984875
30.17995287
29.98022346
30.04477458
108.6050144
94.95831498
95.61367734
66.88614333
60.62880535
60.85058142
47.72777793
44.82904775
44.92235504
38.76145918
37.36548238
37.42544026
34.36046819
33.64617018
33.6932453
31.98769444
31.13505316
31.20903918
30.65640782
30.30639721
30.37412908
30.04773596
29.85072523
29.9158113
105.5071699
92.57041749
93.13518383
65.8301511
59.81657696
60.00923869
47.31958559
44.48749358
44.56849753
38.5230014
37.14457679
37.19716955
34.17378325
33.46757847
33.51083133
31.83263267
30.9903383
31.06214834
30.51763175
30.17147404
30.23877202
29.91528655
29.72003001
29.78573866
102.8158576
90.49407852
90.98784749
64.90631012
59.10566136
59.27505984
46.96217687
44.18866687
44.25985403
38.31363196
36.94937049
36.99605434
34.00368405
33.30303448
33.34296126
31.68530265
30.8499771
30.91961964
30.38138098
30.03781381
30.1044376
29.7832738
29.58978309
29.65506692
100.4447172
88.66463173
89.10162644
64.08877771
58.4764996
58.62699182
46.64608128
43.92442804
43.9876052
38.1275859
36.7749424
36.8168203
33.84765867
33.15063543
33.18768973
31.54499675
30.71385804
30.78140058
30.24782787
29.90578535
29.97156882
29.65217159
29.45927045
29.52481482
98.33188246
87.03489528
87.42580249
63.35810892
57.91418319
58.04920699
46.36394165
43.68857031
43.74516683
37.96057478
36.61756641
36.65548032
33.70362936
33.00875017
33.04331425
31.41106925
30.58181004
30.64734564
30.11704169
29.775609
29.84045783
29.52232693
29.330536
29.39492017
96.42795678
85.56686474
85.92053293
62.69831631
57.40640142
57.52882636
46.10968999
43.47607702
43.52724453
37.80932928
36.47439768
36.5089861
33.56992656
32.87603512
32.90841796
31.28296737
30.45363767
30.5172744
29.98903113
29.64744425
29.71130769
29.39394738
29.20161914
29.26638855
94.69446937
84.23073792
84.55373433
62.09665902
56.94335602
57.05536422
45.87856404
43.28306623
43.32966714
37.6714274
36.34333102
36.37505661
33.44527588
32.75145048
32.78188239
31.16024722
30.32919097
30.39102447
29.86378884
29.5213658
29.58425858
29.26722552
29.07573432
29.13860267
93.10319864
83.0043965
83.30182224
61.54344615
56.51761723
56.62089466
45.66692983
43.10658104
43.14928705
37.54505227
36.22278581
36.25200584
33.32869116
32.63417862
32.66284767
31.04253808
30.20833961
30.26851482
29.74123932
29.39740417
29.45946818
29.14216263
28.94888507
29.01293262
91.62950842
81.86921674
82.1457635
61.03093403
56.12331563
56.21922485
45.47197173
42.94434065
42.98366588
37.42883018
36.11157044
36.13855095
33.21942095
32.52359393
32.55063968
30.92960327
30.0908364
30.14975636
29.62119126
29.27537039
29.33709222
29.0187245
28.82658621
28.88808013
90.25145068
80.80897746
81.06928105
60.55289001
55.75585986
55.84548237
45.29159912
42.79466205
42.83098004
37.32174362
36.00879551
36.03373945
33.11688784
32.41921424
32.44475203
30.82117735
29.97607038
30.03488832
29.50308894
29.15480108
29.21754887
28.89631567
28.70080116
28.76649602
88.95148477
79.81050667
80.06202254
60.10438915
55.41174151
55.49652259
45.12426375
42.65627893
42.68996777
37.22295559
35.91370622
35.93681934
33.02055659
32.32057734
32.34473588
30.71690418
29.86224119
29.92470313
29.38536992
29.03411594
29.10171522
28.77353532
28.5804175
28.64642317
87.70630291
78.85446963
79.12556775
59.67588395
55.08357944
55.1731102
44.96661971
42.52651269
42.56035621
37.13075082
35.82473854
35.84740509
32.9291552
32.22648475
32.2504135
30.61043877
29.74135676
29.8223212
29.25935303
28.90424072
28.99214168
28.64055381
28.43992026
28.53429795
194.4477929
220.242697
217.0107345
679.5726475
786.1069768
769.0133993
1253.454662
1221.215237
1007.03373
213.2838648
210.6433854
187.2839965
439.6679007
391.7701935
608.2022371
622.4924004
706.6815259
1089.044054
1139.237265
1391.937894
2073.490085
2202.88072
1204.436835
1003.879358
1064.764494
658.7444266
581.5879326
594.8799694
1786.965001
1923.469677
66.01590736
66.07762829
76.20089352
52.62656045
58.46789344
58.46425454
44.61752341
44.58058997
48.10434789
39.62151279
41.80608597
41.85276925
36.54806411
36.51715522
37.89272593
34.55240614
35.4193384
35.4567688
678.9335092
699.1724649
808.6563703
524.9536594
606.610568
590.8343799
647.0236048
627.3331293
538.8668214
121.9682662
123.0790615
151.539542
87.16523084
102.5505832
101.5098451
104.6943077
103.6971788
87.81654009
64.73534219
65.1759976
74.65283402
52.33136262
57.91165688
57.65751968
58.34447047
58.17778844
52.45989259
44.39978236
44.50039317
47.95103745
39.63772457
41.7842196
41.72498319
41.86568946
41.84837278
39.68257478
36.57120551
36.58257877
37.93715449
34.64738176
35.50597916
35.49824197
35.48361745
35.50584995
34.63537133
385.8585363
398.2820784
496.9953396
345.4973298
339.3445274
284.9196712
113.8889537
115.8848825
140.6459704
83.1939716
97.36187157
95.87969612
100.2269988
98.79718419
84.28608137
62.46172295
63.11320322
71.81041243
51.19115435
56.4103506
55.92029385
57.24425651
56.95088309
51.63727491
43.67267363
43.92825367
47.12030989
39.37332115
41.39224241
41.18900797
41.61727287
41.4860915
39.43591925
36.41076665
36.45248674
37.74929424
34.61342112
35.4315999
35.40635935
35.48700238
35.46306441
34.63173292
558.3032143
581.9584662
245.6268575
254.4106869
352.8768586
157.9398401
195.3314021
189.5867519
205.4201115
200.5541978
162.0357521
104.3995459
107.0411271
128.8771848
77.92244497
90.61439876
88.56895177
94.27575774
92.51522033
79.42060888
59.24194557
60.13559236
67.86404571
49.47628839
54.14725549
53.47786059
55.37653755
54.78548835
49.95891809
42.63167677
42.91666234
45.80704982
38.80918138
40.62887878
40.41899328
41.01727161
40.82982027
38.95579307
36.11585821
36.1929109
37.35638232
34.4909064
35.2577299
35.20321618
35.35710645
35.30931826
34.53112108
417.8610016
457.2836616
202.5171121
213.9307681
281.5770888
137.9829184
168.9870618
161.355643
183.2476258
176.3454914
143.4727126
92.24181283
95.43351417
113.5414147
71.05408369
81.71807376
79.30840872
86.38731939
84.09237397
72.86372843
55.29463963
56.29296865
62.70314251
47.34924107
51.28860003
50.54935849
52.7729417
52.03512813
47.90140408
41.47360328
41.75613459
44.23411968
38.19658434
39.77799676
39.58076107
40.20370486
39.98930002
38.34618876
35.81672371
35.88998067
36.92447126
34.30861799
35.03178847
34.97200018
35.14760458
35.09067808
34.35822842
277.8148103
307.8184192
160.6601082
170.1336922
209.5846673
115.3864263
138.6773047
131.8028351
153.6288702
146.0188396
120.8638541
80.21617154
82.98283905
96.71753179
64.0697304
72.37646345
70.32241527
76.91450659
74.58675844
65.70651583
51.73111531
52.52215189
57.57403248
45.33446614
48.52088279
47.95328769
49.83214647
49.15171191
45.78761619
40.54120586
40.7303052
42.78317739
37.69974399
39.06766972
38.93136201
39.38962814
39.21861286
37.81110568
35.52282386
35.59725739
36.55680305
34.10478432
34.78886035
34.72626656
34.91155601
34.85066433
34.15757879
199.4485926
213.2538748
132.0701551
137.6695767
164.7976707
97.75753018
114.9850752
110.9769701
125.4771003
119.8790625
101.3873941
72.07912799
73.62486638
83.94211321
59.05628173
65.48339303
64.35760795
68.47353869
66.84057775
60.03976217
49.61437579
49.97377611
53.98453581
44.07830342
46.73453325
46.45344094
47.45827417
47.04887533
44.3150129
39.91258038
40.06225137
41.8841258
37.2704795
38.54270044
38.41923532
38.7987939
38.66923363
37.37522808
35.22563644
35.2994281
36.20130485
33.88655199
34.53583051
34.47214251
34.66306864
34.599527
33.94201579
170.1635681
173.9988822
119.8562422
121.8988761
144.0146695
89.63236278
103.8145964
102.3330353
107.7023991
105.4129475
90.8466759
68.77085376
69.43405479
78.2606778
56.79490556
62.40072663
61.86929549
63.5884585
62.97144402
57.25403185
48.38123123
48.6657862
52.30182858
43.22962856
45.68724383
45.45470266
46.18600619
45.93084866
43.42868966
39.35880219
39.49071722
41.19060288
36.87126653
38.06745742
37.95626733
38.2988822
38.18165124
36.96799188
34.93733808
35.00820154
35.86227378
33.66395531
34.28265423
34.22028975
34.40865342
34.34544824
33.71956934
157.9536751
160.7321893
112.8801187
114.4657596
134.1818445
85.52315044
98.38234359
97.20995563
100.9381134
99.62332566
86.45751434
66.51923085
67.02996758
75.21170219
55.23613093
60.48055769
60.07588171
61.37422856
60.91239385
55.58756759
47.38518902
47.61380693
51.02478045
42.51160963
44.81993909
44.62817126
45.23288419
45.02142423
42.67990428
38.87157897
38.98750221
40.59204965
36.50517231
37.64041428
37.54082489
37.84807235
37.74281683
36.5935838
34.66339883
34.73039311
35.54508031
33.44408518
34.03674332
33.97681373
34.15851265
34.09729724
33.49854878
148.2988483
150.5148707
107.3813481
108.6422586
126.494603
82.27650546
94.05929751
93.11699988
96.10168752
95.05288916
83.02224
64.74311297
65.15171385
72.78079837
54.03698615
59.00037651
58.68077428
59.69588656
59.33811607
54.30935927
46.59218737
46.77344429
50.02801644
41.90820783
44.10872679
43.95306431
44.44592446
44.27288964
42.04889153
38.44521535
38.54629156
40.07780003
36.17190333
37.25873103
37.17014093
37.44404298
37.35002271
36.25217631
34.40591931
34.46867755
35.2512104
33.23048033
33.80139511
33.74440867
33.91762079
33.85912117
33.28314779
140.5245496
142.319682
102.9557874
103.9782677
120.3673588
79.65160673
90.56507834
89.79552306
92.22275778
91.37322027
80.25924253
63.29814933
63.63373998
70.80189531
53.08873233
57.81617524
57.55501853
58.3778278
58.09008227
53.30719741
45.96126218
46.1063142
49.24330428
41.40816306
43.53316558
43.40727904
43.80556179
43.66576836
41.52423529
38.07621123
38.16329626
39.64130647
35.87096017
36.92051477
36.84255429
37.08426371
37.00107303
35.94317617
34.16606977
34.22432568
34.98119652
33.02533255
33.57838822
33.52471374
33.68825039
33.63289437
33.07571633
134.1673326
135.6444018
99.32634212
100.1708922
115.3885866
77.48853179
87.69399832
87.0547948
89.06215277
88.36248263
77.9928412
62.09681091
62.3778261
69.16364257
52.31232767
56.83940784
56.62079893
57.30576273
57.06752037
52.4933711
45.44823743
45.56751101
48.60687669
40.99570478
43.06545747
42.96194625
43.28768521
43.17391004
41.09166456
37.75958509
37.83421933
39.27410673
35.60181192
36.62383815
36.55572936
36.76717022
36.69429843
35.66619598
33.94461058
33.99823887
34.73537431
32.8302422
33.36902349
33.31889671
33.47193642
33.42003357
32.87799947
128.8826124
130.1187574
96.29553226
97.00566969
111.2653784
75.67453219
85.29460854
84.75468013
86.44302647
85.85689168
76.10018336
61.08076555
61.31988007
67.78540879
51.65952746
56.01632889
55.8301246
56.41113913
56.20984576
51.81297446
45.01924943
45.11998095
48.07489561
40.6516521
42.67757667
42.59040844
42.86303101
42.76835824
40.7322433
37.48751594
37.55183282
38.96404908
35.36247756
36.36468914
36.30509833
36.48990141
36.42625951
35.41969148
33.74134961
33.79051426
34.51303478
32.64615235
33.17392082
33.12734
33.26968508
33.22135969
32.69111613
124.4114115
125.4643363
93.72051061
94.32778063
107.7866677
74.12838872
83.25603958
82.7926893
84.23581926
83.73670218
74.49335294
60.20855638
60.4149453
66.60806291
51.10050087
55.31153775
55.15066789
55.65087218
55.47815388
51.23267487
44.65230595
44.73909615
47.6203491
40.35920116
42.34835192
42.27340296
42.50663993
42.426034
40.42821442
37.2514499
37.30752106
38.69873603
35.14938815
36.13737654
36.08482437
36.24741518
36.19154369
35.20041898
33.55499086
33.60009623
34.31209651
32.47315058
32.99272042
32.94946256
33.08163295
33.03676482
32.51537695
120.5637965
121.4754781
91.49783496
92.02500227
104.8001348
72.79088071
81.49748078
81.09425121
82.3458173
81.91439797
73.10828275
59.44981134
59.63020599
65.58796821
50.61511623
54.69989464
54.55923561
54.99532331
54.84517303
50.73041223
44.33330438
44.409137
47.22589833
40.10611185
42.06359809
41.99816305
42.2010734
42.13119354
40.16620001
37.04409925
37.0935781
38.46819186
34.95850934
35.93621278
35.88941586
36.03383871
35.98433113
35.00435246
33.38367321
33.42520145
34.12981035
32.31065028
32.82434231
32.78408507
32.90700453
32.86530496
32.35033019
117.2011456
118.0024283
89.55176778
90.01564985
102.195833
71.61857669
79.9596607
79.60426727
80.70401179
80.32604489
71.89807817
58.78187812
58.94134481
64.69282141
50.18891841
54.16290325
54.03859119
54.42300842
54.29097893
50.29055488
44.05264572
44.11962723
46.8796021
39.88393276
41.81385502
41.75604886
41.93480549
41.87341035
39.93693524
36.85981635
36.9039759
38.26512593
34.78617089
35.75641053
35.71432241
35.84389487
35.79958365
34.82769299
33.2254268
33.263864
33.96344944
32.15772807
32.66741268
32.6297971
32.74453156
32.70564829
32.19511041
114.2225914
114.9353976
87.82733185
88.2400722
99.89438298
70.5794485
78.59884772
78.2823012
79.25931855
78.92436519
70.82815156
58.18780593
58.33016669
63.89865045
49.81102843
53.68662562
53.57570149
53.9178872
53.80063579
49.90146376
43.80328936
43.8630129
46.57262617
39.686627
41.5924055
41.54082976
41.69992734
41.64541448
39.73388265
36.6943181
36.73412141
38.08419454
34.62929538
35.59415095
35.55595785
35.67328161
35.63324534
34.66720372
33.07846873
33.11423433
33.81060025
32.0133688
32.52054376
32.48524723
32.59279472
32.55638539
32.04870137
111.5553384
112.196362
86.28275844
86.65405571
97.83805012
69.64918861
77.38218043
77.09723781
77.97430188
77.67440412
69.87270761
57.65415593
57.7825515
63.1870838
49.47280175
53.26008984
53.16010532
53.46774185
53.36259262
49.5540544
43.57967227
43.6334237
46.29797835
39.50967158
41.39414528
41.34770092
41.49064304
41.44177447
39.552205
36.54435302
36.58053317
37.9213955
34.48544139
35.44647997
35.41155563
35.51864297
35.4821656
34.52029385
32.94131831
32.97475579
33.66929302
31.87665842
32.38252858
32.34928032
32.45049403
32.41626057
31.91015933
109.1394863
109.7223529
84.88383334
85.22145263
95.97988403
68.80772961
76.28260306
76.02340515
76.81922872
76.54776454
69.01070108
57.16979857
57.28676946
62.54288263
49.16705477
52.87416744
52.78314856
53.06254024
52.96726197
49.24077296
43.37733837
43.42612365
46.04990338
39.34958574
41.21505985
41.17290375
41.30241015
41.2582133
39.38817512
36.40745962
36.44056323
37.77368456
34.3527038
35.31112929
35.27900349
35.37737798
35.34391187
34.38492702
32.81278168
32.84416059
33.53795928
31.7468162
32.25236068
32.22094516
32.31651547
32.28421181
31.7786638
106.9312576
107.465238
83.60503426
83.91466202
94.28442558
68.03926375
75.27911012
75.04128867
75.76993304
75.5218966
68.22524068
56.72621459
56.83367
61.95414448
48.88820296
52.52174562
52.43820551
52.69413345
52.60703005