/*--------------------------------*- C++ -*----------------------------------*\
| =========                 |                                                 |
| \\      /  F ield         | OpenFOAM: The Open Source CFD Toolbox           |
|  \\    /   O peration     | Version:  v2012                                 |
|   \\  /    A nd           | Website:  www.openfoam.com                      |
|    \\/     M anipulation  |                                                 |
\*---------------------------------------------------------------------------*/
FoamFile
{
    version     2.0;
    format      ascii;
    class       surfaceVectorField;
    location    "1.05";
    object      Uf;
}
// * * * * * * * * * * * * * * * * * * * * * * * * * * * * * * * * * * * * * //

dimensions      [0 1 -1 0 0 0 0];


internalField   nonuniform List<vector> 
5999
(
(99.99805222 0.008293197353 -2.254801363e-21)
(99.99223325 0.007512383833 6.685077939e-21)
(99.99711891 0.01966396893 -2.222020841e-21)
(99.98935581 0.0252248183 2.269371692e-21)
(99.99528934 0.03800318779 -4.428155977e-21)
(99.98283609 0.05262115865 1.33977515e-20)
(99.99790301 0.04278598785 1.363904245e-21)
(99.9713264 0.09588274005 -8.77069792e-21)
(99.98785703 0.09451144844 -1.470650499e-21)
(99.99693387 0.07723376715 2.126075602e-21)
(99.99894107 0.04605718553 1.046019485e-21)
(99.98590003 0.1271021735 2.109029736e-21)
(99.99678275 0.0719285063 1.02721481e-21)
(99.99761531 0.05684912085 -1.067146121e-21)
(99.99605075 0.09068750173 1.027172855e-21)
(99.97854177 0.2032600877 2.040919878e-21)
(99.99572569 0.1136332038 0)
(99.99553389 0.1386138421 -3.686953414e-21)
(99.97257278 0.3052334494 -3.686934225e-21)
(99.99497833 0.1679490237 -9.54772262e-22)
(99.99438876 0.2011640704 3.211192293e-21)
(99.96565905 0.4379657106 3.472522984e-21)
(99.99388992 0.2379280695 4.272955779e-22)
(99.99356585 0.2773589892 -2.744885665e-21)
(99.96187556 0.5951252606 3.944211976e-22)
(99.99350186 0.3181487226 -2.728094934e-21)
(99.99379475 0.3584157834 4.179905793e-22)
(99.96499761 0.7553430693 -1.78756014e-21)
(99.99420043 0.3958537618 2.477339798e-21)
(99.99473798 0.4282965329 2.040057192e-21)
(99.97705577 0.8816315252 -8.835341667e-22)
(99.99606155 0.4529003522 0)
(99.98191355 0.02314913055 1.115584128e-20)
(99.97047523 0.01251439898 3.320657162e-22)
(99.97263961 0.05536780765 1.778532551e-20)
(99.95915143 0.04272962632 -1.561909402e-20)
(99.95526941 0.1069294014 9.28468857e-21)
(99.93457914 0.09078216071 -2.414926464e-20)
(99.94705925 0.1685324193 -1.580907835e-21)
(99.89294611 0.168083287 4.65025847e-20)
(99.91007657 0.2129755676 -1.022888447e-20)
(99.92180155 0.215967963 -2.197477993e-21)
(99.9404199 0.2128123899 4.310980411e-21)
(99.96324085 0.1514347718 2.142367305e-21)
(99.94285198 0.2490005848 2.081506704e-21)
(99.92385235 0.2734751795 2.124811028e-21)
(99.87233533 0.3607540317 -4.302321112e-21)
(99.90553209 0.3488548123 -2.702268748e-23)
(99.91350223 0.3969249056 2.041240175e-21)
(99.88436243 0.4409967672 -2.292431921e-23)
(99.81096008 0.5758005743 0)
(99.87367629 0.5129315 0)
(99.83996255 0.5883314413 -2.537299525e-21)
(99.88404733 0.5855037751 -4.974596891e-21)
(99.86819211 0.6189270043 -7.354985843e-23)
(99.83145502 0.7150345753 -1.118814645e-20)
(99.85856692 0.6750725779 -3.84596021e-21)
(99.82842211 0.8996957014 3.04400853e-23)
(99.85313412 0.8463004791 -2.502935968e-21)
(99.78305652 1.03973053 -1.364077751e-20)
(99.82144049 0.9745155489 -3.328338657e-21)
(99.80235885 1.246607006 -6.086741973e-21)
(99.83605319 1.161490512 -5.76263339e-21)
(99.75373835 1.435879192 7.158677042e-22)
(99.80152111 1.334468524 -7.291093596e-21)
(99.80836881 1.617589462 -1.61676085e-23)
(99.84917768 1.490060059 -4.629603972e-21)
(99.76670709 1.852413958 -2.392502381e-21)
(99.81890245 1.705573045 -3.460991085e-21)
(99.86196862 1.931276179 -3.817570092e-21)
(99.90398651 1.756463967 -5.940683351e-21)
(99.83745922 2.197087247 -6.061856761e-21)
(99.88404368 2.002126554 -2.946687864e-21)
(99.95114059 0.03063797919 -2.679681634e-20)
(99.9415466 0.01268869047 -1.339327711e-20)
(99.92553648 0.0750397207 -5.796712066e-20)
(99.91732024 0.04521733999 1.229852486e-20)
(99.87880585 0.1482381347 1.171621854e-20)
(99.86585269 0.1018179289 -4.906488414e-20)
(99.83099058 0.2548551911 2.960005814e-20)
(99.78181733 0.1961623425 5.330662172e-20)
(99.77331973 0.2792687235 -4.656953422e-20)
(99.85628162 0.2702099883 -8.798324267e-21)
(99.77842775 0.3081310752 -6.518269761e-20)
(99.79863253 0.3381258184 -4.40505339e-21)
(99.77633772 0.4569989393 -8.569169637e-21)
(99.74895413 0.4425445231 -4.26954307e-21)
(99.656987 0.5326424874 2.997420359e-20)
(99.69164041 0.5703553513 8.40283629e-21)
(99.67043941 0.7372551116 -7.405246261e-21)
(99.62606809 0.7261389984 5.481236718e-21)
(99.49408705 0.8729941434 -4.220724122e-20)
(99.58897902 0.8819726453 2.949458416e-21)
(99.52169586 0.9474740925 -1.835691502e-20)
(99.5750481 1.089140844 -7.5269496e-21)
(99.54024871 1.089312196 0)
(99.46270747 1.201085062 7.81308425e-21)
(99.5053261 1.209376971 -7.488370128e-21)
(99.45111849 1.614801029 3.635391284e-21)
(99.39991854 1.629774125 1.423714093e-20)
(99.30341645 1.794081839 7.048495208e-21)
(99.36801571 1.78765441 1.767311652e-20)
(99.36909543 2.268920866 2.549463667e-20)
(99.29758064 2.313039328 2.545836091e-20)
(99.19802578 2.535123193 1.277447502e-20)
(99.28816476 2.496115572 1.903059851e-21)
(99.39887969 2.968883377 3.170723749e-22)
(99.31194551 3.063062803 -2.386606167e-20)
(99.2297093 3.344480322 2.004390733e-20)
(99.33958773 3.24660457 2.939009099e-20)
(99.57766429 3.58327209 -6.639167094e-20)
(99.49105641 3.751109153 -6.649324731e-20)
(99.45665394 4.070591306 -2.385514018e-20)
(99.56595796 3.885809132 -2.850795831e-20)
(99.91413445 0.02614895133 2.690740077e-20)
(99.91690455 0.006184590844 -4.492148357e-21)
(99.86552089 0.06938584647 2.266589036e-20)
(99.87658322 0.0266827638 3.143383693e-20)
(99.77836158 0.1486532285 -9.002494898e-21)
(99.79119557 0.07569775467 -4.440490084e-21)
(99.66779884 0.287573054 0)
(99.65279697 0.1649542029 6.872832397e-21)
(99.59969526 0.2844729597 2.088315827e-20)
(99.6864489 0.3291910945 -6.091106521e-20)
(99.58675154 0.3298902628 1.570078172e-20)
(99.5951169 0.3936706703 0)
(99.51780912 0.582975841 2.405503347e-22)
(99.49774467 0.526667178 -3.455839063e-20)
(99.36275753 0.6042344014 -3.453514224e-20)
(99.3826567 0.6924089997 7.001647661e-20)
(99.28566444 0.9753291005 -1.039372921e-19)
(99.24856037 0.8967596379 3.875515156e-20)
(99.05313434 1.033095646 -6.956094215e-20)
(99.14364308 1.137188778 -3.463159803e-20)
(99.04957204 1.158539756 -5.686834574e-20)
(99.04860702 1.478665909 8.187910314e-21)
(99.01033227 1.433549746 1.625708671e-20)
(98.88658453 1.547233497 4.117121278e-20)
(98.92939983 1.606756718 8.119994872e-21)
(98.75004617 2.264789171 -2.892500927e-21)
(98.68413751 2.218582302 7.782834093e-21)
(98.53325888 2.38921516 3.042437056e-21)
(98.61078253 2.451288913 -6.545887122e-20)
(98.54147465 3.275978521 6.257779151e-21)
(98.43533848 3.245978771 7.163821471e-21)
(98.27075992 3.498410969 6.221230946e-21)
(98.39820818 3.54201427 -1.119737115e-19)
(98.54614356 4.477550111 2.257461444e-20)
(98.39180533 4.500599482 5.047742733e-20)
(98.24848117 4.853841168 0)
(98.43612618 4.831316018 -1.203373463e-20)
(98.94140254 5.642065197 9.263166111e-20)
(98.75356417 5.777096184 -7.237748793e-20)
(98.70257346 6.211346541 1.440887168e-19)
(98.92704881 6.048482094 -2.832436084e-20)
(99.88621614 0.006329181727 0)
(99.91095682 -0.007979388009 0)
(99.81089059 0.03122738955 4.549422679e-21)
(99.85317434 -0.01611904349 0)
(99.67569425 0.0944010586 1.157324662e-20)
(99.73174455 0.005592951827 -3.680336839e-21)
(99.48835337 0.2477863797 1.912053231e-20)
(99.52929544 0.06700098684 2.544535314e-20)
(99.42323626 0.2037480529 -7.665322464e-21)
(99.48714295 0.308596504 2.70350617e-20)
(99.38523863 0.2636240075 2.176077958e-21)
(99.36366039 0.3565376317 -1.102610493e-20)
(99.1979375 0.5922574288 0)
(99.20296312 0.497557208 -2.270565254e-20)
(99.02970889 0.543276485 -1.866602192e-20)
(99.01177931 0.6772178167 4.632736103e-21)
(98.7979091 1.039149621 0)
(98.78821492 0.9050952402 4.632240107e-21)
(98.53098998 0.9913756098 -4.792521005e-21)
(98.57576399 1.195097498 2.31103047e-20)
(98.46861474 1.184500594 5.987022348e-21)
(98.34372778 1.651188131 2.302544722e-19)
(98.32010889 1.555606682 -3.455773069e-20)
(98.15030972 1.647525328 7.407450393e-20)
(98.17694408 1.760986671 -1.710772051e-19)
(97.79172284 2.639434373 -6.953927022e-22)
(97.73187748 2.517068952 -5.514057229e-19)
(97.51760937 2.667814779 2.86720757e-19)
(97.58231203 2.821747824 -1.514625924e-19)
(97.28781596 4.048304315 2.072070133e-21)
(97.16456937 3.914391456 5.53093619e-19)
(96.90117129 4.177018062 2.743687975e-19)
(97.04774051 4.343413313 4.145826285e-19)
(97.07767876 5.938654818 1.188079961e-19)
(96.84765547 5.834728657 1.773760515e-19)
(96.57434742 6.266967324 4.309954909e-19)
(96.86094855 6.392862886 1.658133378e-19)
(97.66571252 8.091515294 1.462283062e-19)
(97.30244448 8.142115585 1.789439933e-19)
(97.16788935 8.78198618 -2.017011822e-19)
(97.62021435 8.694498211 -3.339795838e-20)
(99.8844806 -0.03017930431 0)
(99.93944927 -0.02983657109 2.228649496e-21)
(99.78234524 -0.04240358928 -9.109027682e-21)
(99.86479642 -0.08309508563 -2.246323321e-21)
(99.59765815 -0.01955609205 9.471871858e-21)
(99.71037937 -0.1096645772 -4.520009773e-21)
(99.32499887 0.09841609056 1.238872793e-20)
(99.45023234 -0.1001952754 3.753079764e-21)
(99.27066995 0.03120666683 -3.482179622e-23)
(99.29666378 0.1927470287 -9.187001908e-21)
(99.19756045 0.098026418 -9.305746454e-21)
(99.14180143 0.2037673028 0)
(98.86537339 0.4548409715 -1.866556112e-20)
(98.91175272 0.3301216452 0)
(98.71219199 0.3268863575 -1.275492778e-22)
(98.63568664 0.4937703955 -9.065570951e-23)
(98.26116467 0.8864470355 9.655621516e-21)
(98.30749825 0.7065752348 1.447594202e-20)
(98.0041862 0.7220620121 1.954613822e-20)
(97.97464363 1.015977345 -1.594364705e-20)
(97.87522686 0.945835389 -2.88418737e-20)
(97.56796775 1.506140974 -1.09867801e-19)
(97.58030075 1.368506289 7.730952929e-20)
(97.37759764 1.413504952 -2.800865772e-19)
(97.35790759 1.576267552 -2.817663839e-19)
(96.63435004 2.572555965 6.554942434e-19)
(96.61798062 2.376003949 6.695725773e-19)
(96.33558106 2.476947712 1.028586205e-18)
(96.34948622 2.711708216 3.245598717e-19)
(95.5759659 4.272422639 -2.867740904e-19)
(95.49044901 4.015057687 2.972752556e-19)
(95.0963537 4.196435104 6.873876305e-19)
(95.19483029 4.546734906 -1.002539406e-18)
(94.63794333 6.986638528 4.694166777e-20)
(94.3707064 6.634435117 6.540614903e-19)
(93.83774017 7.075900102 6.404275952e-19)
(94.17247825 7.518276718 1.559239592e-18)
(94.90377285 11.02678323 7.306799031e-19)
(94.24116249 10.79210618 4.704556756e-19)
(93.76562251 11.79110187 4.720635536e-19)
(94.66411688 12.032243 -1.877398e-19)
(99.92554776 -0.0819484029 -1.696346947e-23)
(100.0167675 -0.05840957946 8.937527814e-23)
(99.79995963 -0.1491968689 2.33925244e-21)
(99.92830221 -0.1707951214 -1.088122243e-22)
(99.57208133 -0.188213025 -1.224906261e-20)
(99.74735404 -0.2635670504 1.866015908e-21)
(99.21277145 -0.1261373538 -1.113024195e-20)
(99.43976176 -0.3289719298 -1.858572355e-20)
(99.18824636 -0.2273628954 -1.587474366e-20)
(99.14156922 -0.02326465559 -8.672563708e-21)
(99.07754551 -0.1653061054 -3.469295515e-21)
(98.97200833 -0.05810597164 3.723212243e-23)
(98.57916623 0.1607635866 1.411867193e-20)
(98.67945344 0.02255387058 1.439384214e-20)
(98.47370678 -0.04078728404 7.10511724e-21)
(98.32690937 0.1344148409 2.45384458e-20)
(97.78115153 0.4968476529 -1.963603348e-20)
(97.90696199 0.2849095767 -1.482731383e-20)
(97.59983283 0.2141068356 1.641329454e-20)
(97.45401512 0.5325534503 6.328250672e-20)
(97.37883502 0.4268238795 -1.642930298e-20)
(96.84933705 1.00016412 8.589549343e-20)
(96.91684899 0.8347173304 -5.629243332e-19)
(96.69670725 0.8195164765 5.148298086e-19)
(96.60955632 1.008771227 2.582011711e-19)
(95.47382435 1.956642832 7.627628945e-19)
(95.53878091 1.701782373 7.639528964e-19)
(95.21667284 1.707725673 1.38114946e-21)
(95.12585804 2.001450898 7.627144165e-19)
(93.61740493 3.579289252 -2.074381111e-21)
(93.66032702 3.178714641 6.035154514e-19)
(93.15913488 3.225373988 6.199984704e-19)
(93.07832813 3.695102827 1.994586354e-19)
(91.04650587 6.54615401 1.214590575e-18)
(90.96880164 5.865658595 4.341625184e-19)
(90.08189351 6.033571133 -8.816768467e-19)
(90.13567597 6.915263882 8.91247423e-19)
(88.30867057 13.3739333 8.310790531e-19)
(87.49466094 12.11117175 3.752495658e-19)
(85.56051342 13.63951063 5.572987773e-19)
(85.80607332 12.76124779 -7.106546413e-19)
(87.40705692 14.97775449 1.047206783e-18)
(86.34776726 15.03140401 5.511632539e-19)
(100.0238301 -0.1460014545 1.777090318e-23)
(100.1544967 -0.09177688846 -3.303219589e-21)
(99.88101477 -0.2822822596 -6.070090042e-22)
(100.0568841 -0.2731760533 1.438738933e-21)
(99.62192427 -0.4010975516 -4.755755335e-21)
(99.85951294 -0.44445178 -3.130398651e-21)
(99.19284378 -0.4260289086 9.817758712e-21)
(99.52268436 -0.6001060918 -1.082429057e-21)
(99.20738005 -0.551744382 1.030237187e-21)
(99.0721959 -0.3288238158 4.81351354e-21)
(99.06136411 -0.5047048932 9.957303896e-21)
(98.90575872 -0.4144125522 7.031349037e-21)
(98.40432151 -0.2713246658 -2.396529428e-21)
(98.56575355 -0.402036272 3.725518544e-21)
(98.37583222 -0.5252418688 2.460359758e-21)
(98.1593733 -0.3716381819 7.458507971e-21)
(97.47182473 -0.1162285161 -2.352723255e-21)
(97.68105764 -0.321835969 -4.140377654e-20)
(97.40478551 -0.4821168246 -4.390778554e-20)
(97.1310653 -0.1755383538 -2.511222083e-19)
(97.09965577 -0.321188112 -2.894471544e-20)
(96.34344519 0.162970089 8.918666321e-20)
(96.47682189 -0.00242151991 3.425211596e-19)
(96.26643563 -0.08549181215 1.836374888e-19)
(96.1045564 0.09583867799 1.9424494e-19)
(94.61203808 0.7630230095 1.621154351e-18)
(94.78454518 0.5031901633 1.234314543e-18)
(94.47670311 0.3982138531 4.031542131e-19)
(94.26127097 0.6793016624 1.236672336e-18)
(92.07648319 1.755119621 2.69458916e-19)
(92.3274555 1.343098265 3.799623551e-19)
(91.85133631 1.172964219 -1.60608789e-22)
(91.51761392 1.615759846 -5.726023476e-20)
(87.82089076 3.364389449 -9.880959158e-19)
(88.26883184 2.62270006 -4.885475786e-19)
(87.46130196 2.238125613 3.004234611e-20)
(86.7755258 3.0260004 -5.411876756e-19)
(79.18630288 6.182135252 1.879707226e-18)
(79.81304934 5.200512861 3.758760019e-21)
(78.86618093 4.530763382 5.691473692e-19)
(77.92548103 5.561959185 1.260774814e-18)
(100.1897696 -0.2175023131 -1.88220972e-21)
(100.3596689 -0.1273739024 1.043099022e-21)
(100.0380049 -0.4312979166 -1.098390153e-21)
(100.2585903 -0.3823196905 -7.71672365e-22)
(99.76344772 -0.6401373525 5.628638304e-22)
(100.0565614 -0.6373591883 -2.770193941e-22)
(99.28840343 -0.770114248 6.418702757e-22)
(99.71151876 -0.8904238553 9.349660073e-22)
(99.34825256 -0.9103734223 5.599791497e-22)
(99.11834001 -0.6948854102 1.633548297e-21)
(99.17356753 -0.8882949868 -1.631100543e-23)
(98.97263681 -0.8285379055 -1.631332536e-23)
(98.39283069 -0.7958688923 -2.453669484e-21)
(98.61045083 -0.8988842287 0)
(98.45721715 -1.075722022 -1.203817925e-21)
(98.18396762 -0.9669639474 -1.280614712e-21)
(97.40305383 -0.8711874342 4.296755201e-20)
(97.68659302 -1.035938835 4.173632374e-20)
(97.46899467 -1.269855771 9.790156654e-22)
(97.08282853 -1.020692282 4.326402777e-20)
(97.10437101 -1.186598843 4.718688267e-19)
(96.18212849 -0.8787580998 7.146257032e-19)
(96.37116144 -1.016036306 -7.432751838e-19)
(96.20130328 -1.152799666 -7.362314752e-19)
(95.97118063 -1.012576739 -6.329641627e-19)
(94.31689854 -0.7581215787 -6.230923869e-19)
(94.56877194 -0.9627384723 4.294522417e-19)
(94.34011222 -1.145766735 -6.274742914e-19)
(94.02092889 -0.9403387897 2.301634046e-19)
(91.64618379 -0.6281546439 -9.395933523e-19)
(92.04687867 -0.9103568448 -4.75357966e-19)
(91.71792776 -1.199056701 -5.073119017e-19)
(91.24602723 -0.9375072576 -1.320815863e-20)
(87.54236684 -0.9346995015 4.718148184e-19)
(88.24634349 -1.279450125 -5.026105715e-19)
(87.82440971 -1.807848251 -1.029341906e-18)
(87.0185286 -1.557965773 -1.44854381e-19)
(81.95903199 -3.254008363 5.674484512e-19)
(82.61684347 -3.269669808 -2.408458243e-21)
(82.54131003 -3.781820612 1.319242007e-20)
(81.93711221 -3.876047788 7.309505147e-19)
(100.428318 -0.2907552434 2.149719861e-21)
(100.6339446 -0.1624495274 1.05152095e-21)
(100.2766717 -0.5838479603 3.279944052e-23)
(100.535078 -0.489663329 1.115205011e-21)
(100.0036843 -0.8843813729 1.088680965e-22)
(100.3400857 -0.8262487298 1.025209727e-21)
(99.51140647 -1.12787206 -1.589800638e-21)
(100.0080269 -1.175005321 -9.031827259e-22)
(99.61619104 -1.269429065 7.328674433e-22)
(99.29791416 -1.086694056 -1.126569812e-21)
(99.42235997 -1.279083133 -5.691109216e-22)
(99.18731164 -1.259708298 -1.126498913e-21)
(98.56911054 -1.356621263 5.549990326e-24)
(98.82981543 -1.41465213 1.203761217e-21)
(98.72682875 -1.631296738 1.203771885e-21)
(98.41599137 -1.581757245 1.203749569e-21)
(97.59994041 -1.665361052 -8.499227595e-20)
(97.93737067 -1.765487669 -4.336449289e-20)
(97.79203449 -2.047444241 -3.440389008e-21)
(97.33037896 -1.884682471 -5.686449089e-20)
(97.40103051 -2.046732377 -4.336004509e-19)
(96.39835939 -1.951628985 -6.47999178e-19)
(96.62982592 -2.038652803 2.385409935e-20)
(96.50657947 -2.206708391 -1.745603984e-21)
(96.24643696 -2.122917995 8.173003394e-19)
(94.6122622 -2.2546771 6.479719837e-19)
(94.92336505 -2.382582347 2.53037099e-18)
(94.76200106 -2.597351656 4.266490332e-19)
(94.41778099 -2.482275585 1.931693825e-18)
(92.21752219 -2.744712545 2.462945139e-20)
(92.65896725 -2.889704054 4.615369471e-19)
(92.45524958 -3.195593972 9.244163293e-19)
(91.97800359 -3.084031176 -4.458630206e-19)
(88.96927773 -3.875168173 0)
(89.61363416 -3.966023891 -4.695181986e-19)
(89.3910428 -4.418243362 -1.202359236e-20)
(88.74079089 -4.395043321 0)
(85.66207475 -6.084208914 -2.449720529e-21)
(86.02879569 -6.023024724 -3.688630468e-19)
(86.01197856 -6.317396429 2.568806581e-21)
(85.60285427 -6.34438449 -4.79509798e-19)
(85.72199953 -6.427451248 6.415577984e-19)
(100.7383921 -0.3601718656 9.352584056e-24)
(100.9737245 -0.1944793247 2.77207748e-21)
(100.5951554 -0.727925338 2.07700104e-21)
(100.8820518 -0.5872248026 1.052305752e-21)
(100.3402136 -1.11282266 6.397008877e-23)
(100.7032902 -0.9954948901 -6.71277213e-23)
(99.85737845 -1.467977545 -2.121600894e-21)
(100.4060369 -1.434905008 -9.619702652e-22)
(100.0009178 -1.601207931 -5.104823565e-22)
(99.61004732 -1.467834353 -5.532363756e-22)
(99.79812982 -1.643199581 -1.102859878e-21)
(99.54323193 -1.667302524 9.617920487e-23)
(98.92720914 -1.893248152 0)
(99.21375852 -1.898185263 1.109783526e-21)
(99.16656184 -2.137126206 2.202564173e-21)
(98.83825294 -2.151866041 1.199874956e-21)
(98.03952185 -2.407554461 4.066115508e-20)
(98.40648312 -2.433488824 2.474878293e-21)
(98.33623131 -2.738391607 -7.137095875e-20)
(97.83576765 -2.670777368 8.327145834e-22)
(97.94606978 -2.815342414 -3.866721525e-19)
(96.94192694 -2.917890773 8.525508451e-20)
(97.19147051 -2.954339756 -7.285813146e-19)
(97.11909635 -3.133566683 -7.182349741e-19)
(96.84616577 -3.105023334 2.399999154e-19)
(95.3475889 -3.52630457 -6.126646908e-19)
(95.67295315 -3.58236065 -4.109040932e-19)
(95.5805124 -3.800827436 -6.108278212e-19)
(95.2329854 -3.760591836 -6.128426003e-19)
(93.30469177 -4.368378779 2.789916418e-20)
(93.73691125 -4.413166953 3.858412535e-20)
(93.62209128 -4.704420781 1.455063778e-20)
(93.17041325 -4.686757746 -1.956451e-19)
(90.67977585 -5.759344318 4.311667227e-19)
(91.24471577 -5.743889594 -1.248645766e-20)
(91.11018385 -6.135508328 -4.188102808e-19)
(90.5465978 -6.182894564 -5.278071658e-19)
(88.12977326 -7.625806766 0)
(88.40923497 -7.567623542 -4.273414536e-19)
(88.38911156 -7.785229165 4.158345163e-19)
(88.08303227 -7.80591225 -9.506684179e-19)
(88.16989464 -7.863082857 0)
(101.1134874 -0.4206618321 3.815894717e-21)
(100.9852066 -0.8529921921 -1.023200178e-21)
(100.7597813 -1.308224689 -1.023166815e-21)
(100.3045728 -1.76699923 0)
(100.0359027 -1.808018215 7.755848278e-24)
(100.0167728 -2.016669984 2.091568256e-21)
(99.43988461 -2.358407741 -1.112690343e-21)
(99.73507501 -2.309503698 -1.207602226e-21)
(99.41547345 -2.630690067 1.188977406e-21)
(98.67533603 -3.034758611 -2.59737691e-21)
(99.04937874 -2.98684818 7.406528537e-20)
(98.54158162 -3.318419026 -3.475155677e-19)
(98.68011055 -3.436747536 5.113225319e-20)
(97.72893208 -3.705242051 6.980220832e-19)
(97.9805383 -3.694508644 6.944867538e-19)
(97.95431823 -3.870345572 6.655867249e-19)
(97.68488994 -3.89020019 6.751748647e-19)
(96.36677104 -4.514292018 1.875868226e-19)
(96.68773201 -4.50931875 -3.880334087e-19)
(96.65348914 -4.714962108 -6.665360965e-21)
(96.31721667 -4.736492921 -1.526542619e-20)
(94.65197956 -5.565661282 -3.977018241e-19)
(95.06512196 -5.536858039 5.971002057e-19)
(95.018641 -5.806104851 -5.539205e-21)
(94.59094215 -5.858155977 -5.689757898e-19)
(92.42493097 -7.121576048 -3.932988655e-19)
(92.9526853 -7.041339438 -7.531519976e-19)
(92.88192935 -7.408843911 -3.815669328e-19)
(92.33969263 -7.509032563 -3.82207083e-19)
(90.1002287 -8.954258954 -7.577380996e-19)
(90.35895563 -8.91340231 -3.78544237e-19)
(90.35087673 -9.131884343 -3.759096303e-19)
(90.04694211 -9.137096178 -6.833057069e-19)
(90.13028712 -9.208101558 -2.502857079e-19)
(82.06856842 -2.686724989 -1.188727248e-18)
(81.27361346 -3.323808046 4.374805485e-19)
(81.34618677 -2.622681707 -6.389946338e-19)
(85.67985589 -5.775801058 3.675252152e-19)
(85.29686631 -5.834591123 -1.26524927e-19)
(85.23775004 -6.111112891 1.068804991e-18)
(85.36201986 -6.199336644 -6.569928238e-19)
(88.14816267 -7.401756899 -6.459061499e-21)
(87.86153905 -7.463021338 0)
(87.81609674 -7.650418195 -3.588516854e-21)
(87.90623462 -7.705742982 -4.818140182e-19)
(90.11233401 -8.738792751 3.757306427e-19)
(89.85403507 -8.778532395 -6.766686874e-19)
(89.79936693 -8.958281988 -1.565909981e-18)
(89.88108574 -9.028235429 6.139142678e-19)
(80.28699114 6.702958298 6.190804238e-19)
(78.47057318 7.421002577 6.190371786e-19)
(79.84868272 7.76528162 -1.278061597e-18)
(89.22674853 -3.402256675 -4.766344018e-19)
(88.28452883 -3.818655041 5.066397601e-19)
(88.55914296 -3.267343283 5.014311462e-19)
(86.04574913 -5.716753413 1.248918645e-21)
(85.69750225 -5.452532771 4.944180541e-19)
(86.09105724 -5.414970865 4.943570295e-19)
(82.73205503 -2.693227614 -1.750419743e-18)
(83.34365646 -2.766331874 -1.568352095e-20)
(83.21736478 -3.245349975 -2.291846946e-20)
(90.83085802 -5.356369334 8.628695641e-19)
(90.10155285 -5.79473021 -9.008536861e-21)
(90.24976294 -5.352323695 -2.396673933e-20)
(88.42719668 -7.349185455 -4.339675326e-19)
(88.16434799 -7.175932491 -1.304224744e-20)
(88.46032796 -7.131583532 -6.465449634e-21)
(86.42244992 -5.676349415 -1.360609547e-20)
(86.38072135 -5.963319588 -4.932275459e-19)
(86.98911127 -6.936125463 -5.651586648e-19)
(87.00280646 -6.677864553 9.209541687e-19)
(86.67482111 -6.742139539 5.793149427e-19)
(86.62379487 -6.969722508 -2.199381426e-19)
(86.73252959 -7.035243027 8.264171618e-19)
(86.01412448 -8.038699526 -2.138481222e-19)
(85.85998852 -8.10153271 -8.578937783e-19)
(85.83761372 -7.971226735 -6.331370036e-19)
(86.00981351 -7.912156262 -1.459223289e-18)
(85.80000473 -8.083710374 -8.599596704e-19)
(84.50845654 -7.328754148 -8.934834443e-19)
(84.45384955 -7.455972816 -5.217926966e-19)
(84.70231044 -7.283847762 -7.802349168e-19)
(84.69789407 -7.433857585 -2.256598234e-19)
(84.51664441 -7.499355503 -9.737462985e-19)
(92.51373385 -6.750286894 -1.229701216e-20)
(91.8809576 -7.205312657 3.901819147e-19)
(91.97978111 -6.814123501 3.83435114e-19)
(90.37085367 -8.700850946 7.590137725e-19)
(90.12758266 -8.52901477 3.753620733e-19)
(90.39807383 -8.487892346 3.808985697e-19)
(88.71612374 -7.30595126 -8.466685817e-19)
(88.68194045 -7.518860192 -1.193316296e-20)
(89.1299376 -8.267728005 2.972651325e-19)
(89.15159435 -8.059075051 -1.024407664e-19)
(88.88767605 -8.104352979 -6.217483003e-19)
(88.8352621 -8.276846896 8.494494752e-19)
(88.91512467 -8.340032175 -5.215128612e-19)
(88.02913373 -9.040176922 1.82735157e-21)
(87.93327732 -9.040500876 -2.979782742e-19)
(87.9826954 -9.001613033 -2.965542813e-19)
(88.06702967 -8.997248234 -2.954359416e-19)
(87.19866912 -8.504756068 4.070261187e-19)
(87.132547 -8.583466041 -6.694897949e-20)
(87.34931767 -8.468369278 2.918926223e-19)
(87.32617554 -8.565419039 -1.014147839e-19)
(87.17410106 -8.604502671 3.661748693e-19)
(90.64180228 -8.657635187 -1.13147058e-21)
(90.61865219 -8.87316949 3.636436828e-19)
(91.20454449 -9.605952657 -2.934194113e-19)
(91.17636513 -9.475552803 -3.914963246e-19)
(91.06673831 -9.633395896 -1.795019789e-21)
(91.05343475 -9.521183938 7.608873713e-21)
(89.65253851 -10.58284593 1.447098554e-21)
(89.4554549 -10.57405968 2.791264523e-19)
(89.60215819 -10.52445668 2.752037123e-19)
(89.74830009 -10.52615297 -1.352094983e-21)
(88.83150035 -9.781630247 2.863213515e-19)
(88.75143402 -9.830422873 8.675568395e-19)
(88.94418622 -9.777833825 -8.661232711e-19)
(88.88897507 -9.829185317 2.858490757e-19)
(73.44836059 -4.312325072 7.177056324e-19)
(74.38531337 -4.1662271 6.813853691e-19)
(74.52273301 -4.950008651 -6.661863189e-19)
(73.46585898 -5.200805493 0)
(73.85927428 -5.378574622 0)
(79.92726793 -6.576511409 0)
(79.73631368 -6.245168433 5.638003131e-19)
(79.36376153 -6.495688339 -1.013351267e-18)
(79.53245476 -6.829951447 1.140051575e-18)
(79.7138693 -6.848061516 5.526307131e-19)
(68.65555625 7.764814845 -7.66051042e-19)
(67.7487051 9.114260916 0)
(67.4574302 6.723554748 0)
(66.10170453 8.150903492 1.218716476e-20)
(73.37930367 -3.450030471 -7.196960557e-19)
(72.47462471 -4.602192435 1.464503908e-18)
(72.34003695 -3.515357442 7.194167975e-19)
(84.32878536 -7.391504744 8.341523931e-19)
(84.32152691 -7.224857547 -2.259769531e-19)
(84.51480312 -7.17900405 3.300501638e-19)
(84.2680322 -7.349238168 8.359048249e-19)
(82.91209437 -6.789691339 6.180823829e-19)
(82.88451959 -6.633422726 4.766389689e-19)
(83.09587968 -6.548448101 -9.492433927e-19)
(83.11985053 -6.701214931 -1.427033765e-18)
(84.0617084 -4.962608514 0)
(84.52250851 -4.913916412 5.233306437e-19)
(84.49771834 -5.274492327 -6.567955252e-22)
(84.08883981 -5.368377263 1.339790199e-19)
(82.69912716 -6.890275702 4.844441036e-19)
(82.92960658 -6.945059318 1.094135355e-18)
(82.67762205 -7.021003405 -3.045805925e-19)
(82.75361194 -7.026205177 1.76133712e-18)
(84.33454914 -7.471800369 6.841820673e-19)
(84.22082528 -7.491375993 3.443370805e-19)
(84.23776548 -7.417650701 1.369160008e-18)
(80.25562327 -6.34038314 -5.467839229e-19)
(80.42560578 -6.635359398 -1.325634188e-19)
(80.06075711 -6.861116058 0)
(80.21458187 -6.8690991 0)
(82.67220122 -6.730108838 3.427989294e-19)
(82.453426 -6.840389071 -7.374737884e-19)
(82.44029058 -6.979287622 -4.068350456e-19)
(82.52149582 -6.9805237 -4.060063126e-19)
(87.04800105 -8.545071074 3.373325577e-19)
(87.06843607 -8.444860349 -3.038209549e-19)
(87.21929298 -8.405884293 1.157173214e-19)
(87.00635557 -8.524229503 -5.272532635e-19)
(85.97599415 -8.14544088 1.14009498e-18)
(86.18196021 -7.979822219 -3.996837851e-19)
(86.18419381 -8.101236283 -2.021543045e-19)
(86.03335262 -8.161135515 -1.471180142e-19)
(87.30561315 -6.871730606 -1.477135218e-18)
(87.29197558 -7.119756473 -5.742667819e-19)
(86.9417149 -7.153988876 -6.799830144e-19)
(87.04586299 -7.21443493 -1.761320452e-19)
(85.87180714 -8.171285966 3.194526679e-19)
(85.95281496 -8.199810999 3.239781437e-19)
(85.85614441 -8.22787489 1.296085547e-18)
(87.03802633 -8.596152555 0)
(86.93881418 -8.609252517 3.364420761e-19)
(86.97177168 -8.566578343 -6.476265401e-19)
(84.4242112 -7.525905948 -3.402810999e-19)
(84.31349559 -7.54627427 -3.454606543e-19)
(85.76903826 -8.199371001 -1.137477017e-18)
(85.77772729 -8.140828754 -6.532285973e-19)
(88.69522273 -9.78242718 -1.148214618e-18)
(88.77505935 -9.733203257 0)
(88.88684761 -9.730117641 8.614107971e-19)
(87.97723885 -9.07996619 2.99013036e-19)
(88.11473966 -9.037126325 5.895645766e-19)
(88.07539142 -9.080947363 5.956555222e-19)
(89.3908964 -8.225435348 -3.94650677e-19)
(89.37021161 -8.43456847 6.925663854e-19)
(89.07557841 -8.440637962 7.201650597e-19)
(89.15477527 -8.505754825 7.147476696e-19)
(87.88055965 -9.080456123 0)
(87.92251199 -9.121134856 3.098063638e-19)
(87.80336245 -9.115519067 6.34998186e-19)
(88.61223382 -9.832240576 -5.761059346e-19)
(88.42466801 -9.827257114 1.471458532e-20)
(88.55741752 -9.783674584 -1.744396279e-18)
(87.09681369 -8.62540279 3.242781269e-19)
(87.00047537 -8.638306911 3.369684301e-19)
(87.76451086 -9.076791673 6.308730635e-19)
(87.83832468 -9.042743632 0)
(89.50209404 -10.63211512 1.809780912e-21)
(89.80329017 -10.58426581 2.704139802e-19)
(89.70798084 -10.64013048 7.795466731e-22)
(91.20519146 -9.720362596 5.827652365e-19)
(89.30205705 -10.62241785 2.827454422e-19)
(89.34891128 -10.6769048 2.826126628e-19)
(89.01773488 -10.65758834 8.627352511e-19)
(88.668561 -9.879635488 -9.710209195e-21)
(88.47897771 -9.875272277 5.888822482e-19)
(88.98654943 -10.60554486 -9.943318081e-19)
(89.26532399 -10.56439102 -1.368978614e-19)
(88.04520987 -0.4032440281 -2.724022155e-20)
(86.70782621 -0.5749449371 1.019658586e-18)
(87.36027229 0.04038775389 4.914207478e-19)
(82.23827289 -2.050527502 -5.824918909e-19)
(82.89372573 -2.175604919 -5.944727428e-19)
(80.9140313 5.716344813 -1.257706637e-18)
(81.41120128 4.851773517 -1.25666227e-18)
(80.60041458 4.3447393 -6.326248371e-19)
(79.56083231 0.1492414412 1.279838012e-18)
(80.01308389 0.938871166 1.926084367e-18)
(78.49257766 0.4945331744 1.999463377e-18)
(79.12324876 1.446308368 1.706167329e-20)
(74.32486447 -3.288937684 -7.497867458e-19)
(73.41309145 -2.471682742 -1.455547365e-18)
(74.32904449 -2.504780465 -1.433821016e-18)
(70.0603104 8.58783442 -2.99385857e-18)
(70.81794648 7.389236453 -7.737447817e-19)
(69.7424743 6.599172473 1.540415349e-18)
(84.09180298 -4.575543922 5.343757836e-19)
(83.61962556 -5.064417635 0)
(83.59258858 -4.618789482 1.121520768e-18)
(82.63404116 -6.569201014 9.590540811e-19)
(82.85098835 -6.473026135 2.377775083e-18)
(80.0639349 -6.012495072 1.655851324e-20)