/*--------------------------------*- C++ -*----------------------------------*\
| =========                 |                                                 |
| \\      /  F ield         | OpenFOAM: The Open Source CFD Toolbox           |
|  \\    /   O peration     | Version:  v2012                                 |
|   \\  /    A nd           | Website:  www.openfoam.com                      |
|    \\/     M anipulation  |                                                 |
\*---------------------------------------------------------------------------*/
FoamFile
{
    version     2.0;
    format      ascii;
    class       volVectorField;
    location    "1.5";
    object      U;
}
// * * * * * * * * * * * * * * * * * * * * * * * * * * * * * * * * * * * * * //

dimensions      [0 1 -1 0 0 0 0];


internalField   nonuniform List<vector> 
3259
(
(100.0000485 0.4702529569 0)
(100.0048432 0.4494003927 1.384160783e-21)
(100.0057261 0.3930385015 -1.891102563e-21)
(100.0063611 0.3190839337 1.013339847e-21)
(100.0058459 0.2442655484 0)
(100.0050665 0.1787329509 1.565558685e-21)
(100.0045809 0.1245341696 6.409958431e-21)
(100.0024379 0.08600647903 -1.771773972e-21)
(100.009325 0.09629378693 -1.530791196e-20)
(100.006256 0.05862962758 0)
(100.0044989 0.03087228286 -1.911248601e-21)
(100.0042545 0.009657768087 -1.344599808e-20)
(99.94410637 2.13547475 8.310668268e-23)
(100.0515273 2.059248305 5.345994866e-22)
(100.1294347 1.81158704 -6.215720999e-22)
(100.1624858 1.47498609 5.223323498e-21)
(100.1579272 1.127372317 -9.881636486e-21)
(100.1311366 0.826396612 0)
(100.1322675 0.6072086828 -2.701508375e-20)
(100.0920063 0.4067607634 5.183415147e-20)
(100.0876001 0.2731059638 1.482012425e-20)
(100.0597623 0.165715899 3.039581765e-20)
(100.0437599 0.08757354024 -3.048588599e-20)
(100.0376313 0.02744422657 1.535754244e-20)
(99.9296043 4.202312005 9.322862073e-21)
(100.3340515 4.050419541 4.034332604e-21)
(100.5919318 3.502086198 1.2605853e-20)
(100.6712592 2.792245274 2.02803882e-21)
(100.6293901 2.100283199 -1.059398275e-20)
(100.5188741 1.501997979 -2.436487605e-20)
(100.4355215 1.027427836 -1.622748441e-19)
(100.3111862 0.6789423174 -3.573457005e-20)
(100.2405172 0.4092159989 -1.514392861e-20)
(100.1671348 0.2459801948 3.438799499e-20)
(100.1230166 0.1299975237 -3.857158183e-21)
(100.1037415 0.0405364336 0)
(99.8096413 6.689415534 -6.307884455e-20)
(100.852569 6.428127219 4.681501539e-20)
(101.4701159 5.379405949 6.192465739e-20)
(101.5730725 4.090675716 -1.07508585e-21)
(101.4011633 2.94869886 -2.794089024e-19)
(101.1432473 2.056344386 0)
(100.895591 1.336585775 5.857624552e-20)
(100.6380328 0.8625114595 -4.499376617e-20)
(100.4522379 0.479451635 -3.869509562e-20)
(100.3159688 0.2848673051 1.955110903e-20)
(100.2314464 0.148247601 -3.919217216e-21)
(100.1928742 0.04576544798 0)
(99.44849003 10.07273872 -2.671426995e-19)
(101.8445379 9.5774071 0)
(103.0758416 7.543985888 -3.169006316e-19)
(103.0803818 5.311903459 -5.215863529e-21)
(102.5509794 3.588304797 1.080526544e-19)
(101.9808841 2.388421462 -4.031310807e-22)
(101.4808769 1.475721488 -9.583631597e-20)
(101.0412275 0.9242592215 7.951281522e-21)
(100.6943285 0.4639792212 0)
(100.4803837 0.269650486 3.984941971e-21)
(100.3471095 0.1354125357 -2.993009678e-21)
(100.285254 0.04102451302 -9.921631808e-22)
(98.43654634 15.4905593 0)
(104.0680822 14.11995405 0)
(106.025914 9.812480786 9.160628591e-19)
(105.4174528 6.221089141 -5.033758793e-19)
(104.1062514 3.857054112 5.078852181e-19)
(102.9787401 2.408377722 -1.63978067e-19)
(102.1335553 1.386080793 2.459759234e-20)
(101.4714077 0.8274353661 -1.639149541e-20)
(100.9328917 0.3507793803 0)
(100.6310227 0.1921700502 0)
(100.4457113 0.0874654993 -1.003630878e-21)
(100.3590454 0.02522774029 -3.006829081e-21)
(94.62239096 26.02256343 0)
(110.6537502 20.33691105 7.148708099e-21)
(111.1795907 11.26078459 0)
(108.5688031 6.166171035 3.512643565e-19)
(105.9516669 3.460032998 1.209547186e-18)
(104.0442668 1.997791032 0)
(102.7447611 1.016946469 0)
(101.8673135 0.546018615 8.858054496e-21)
(101.1239768 0.1407137407 2.626004396e-21)
(100.7359395 0.04871237419 -3.108333172e-21)
(100.5027316 0.004598296391 -3.535878012e-21)
(100.392248 -0.001452141369 8.528077131e-21)
(126.6446723 22.55792827 1.741297621e-18)
(118.1568752 9.042975354 0)
(111.9676487 4.340268994 1.312037512e-18)
(107.6911965 2.173267971 0)
(104.9778056 1.098894615 0)
(103.2015096 0.3694594944 -4.682881331e-21)
(102.1502255 0.09691639419 1.996748528e-20)
(101.2202676 -0.1588333375 -3.191793941e-21)
(100.7645232 -0.1507071939 2.613564585e-21)
(100.4944466 -0.1079346189 -4.892047629e-22)
(100.3642592 -0.03781723289 -7.997592301e-21)
(139.0737936 5.490980263 -4.977251779e-18)
(122.7272195 1.971185752 1.590442031e-18)
(114.1582374 0.6373558123 4.761728176e-19)
(108.778961 0.0580120953 1.451724462e-18)
(105.5193107 -0.2046458638 1.268152281e-18)
(103.4006395 -0.479367801 -4.761344091e-21)
(102.241941 -0.4811919528 1.118500124e-20)
(101.1873565 -0.5197432293 1.092330427e-21)
(100.6927622 -0.3879165351 0)
(100.4013154 -0.2407070203 4.028567487e-21)
(100.2587783 -0.08088864185 3.983669413e-21)
(135.4065106 -11.07280541 -2.214667277e-18)
(122.1125156 -6.069101946 1.549296264e-18)
(114.0960514 -3.702880852 0)
(108.7699845 -2.388344736 1.816359927e-18)
(105.4836877 -1.684321767 3.908136899e-20)
(103.2716869 -1.414515402 4.021095118e-20)
(102.104269 -1.118039183 0)
(101.0061081 -0.9031667498 -1.0668561e-21)
(100.5067607 -0.6392539085 -4.440062974e-21)
(100.2121334 -0.3813627586 4.960211166e-22)
(100.0661422 -0.1266070171 0)
(125.945742 -19.84910414 1.601550745e-18)
(117.9276865 -11.785046 -1.166962403e-18)
(112.0743055 -7.225828632 2.002921652e-20)
(107.7285031 -4.548644372 8.129582744e-20)
(104.8669969 -3.072453989 0)
(102.8124902 -2.299414551 0)
(101.7388844 -1.730265842 -2.636932459e-20)
(100.6749824 -1.268419762 -1.338548988e-20)
(100.2057497 -0.8796012191 1.014455959e-21)
(99.92572747 -0.5166931025 -3.210790873e-21)
(99.78499099 -0.1707406755 4.702042323e-22)
(116.2115414 -22.75305606 1.089102272e-18)
(112.5140246 -14.48446501 -5.568813796e-20)
(109.0455699 -9.299035189 -6.339240318e-19)
(106.0095551 -6.041348895 2.965413153e-19)
(103.8121825 -4.151754365 0)
(102.0831704 -3.024729362 2.109263185e-21)
(101.1800958 -2.251385748 -3.219638499e-20)
(100.2157402 -1.588235439 7.924387987e-21)
(99.80220686 -1.085991651 0)
(99.55041109 -0.6352438365 3.69699745e-21)
(99.42213921 -0.209591504 0)
(141.6579207 8.625262154 6.823919017e-19)
(128.0526646 25.49110001 -6.959217122e-18)
(138.4609855 -10.38793066 2.964395194e-18)
(142.0659341 5.827069044 2.530693987e-18)
(128.2452454 -20.53351548 -1.733544551e-18)
(137.361258 -12.15649049 0)
(117.7781713 -23.93876189 1.211661432e-18)
(126.8939374 -21.25853457 1.733379219e-18)
(116.5374998 -24.03446772 1.111978537e-18)
(92.48673838 24.77045765 -3.690888064e-19)
(124.8312781 26.4109123 3.370605007e-18)
(108.6325589 22.34183186 2.958485449e-19)
(152.2070521 28.0773388 4.788764987e-18)
(132.4018756 45.30001906 0)
(138.6119015 7.963863991 -4.78306211e-18)
(124.8301334 4.912169178 -1.676001705e-18)
(120.046086 10.93481744 -1.402394179e-18)
(152.4324778 -6.314181452 -4.34655754e-18)
(155.7092269 7.134415377 -2.450522764e-18)
(136.3499193 -9.418390816 -1.013670819e-19)
(125.3942953 -4.815273895 -1.16938254e-19)
(125.5993748 2.454713274 6.016895937e-20)
(137.8090463 -23.20995036 2.25967638e-20)
(145.249328 -17.19511889 4.237828665e-20)
(127.1975222 -19.13066985 1.74593049e-18)
(121.0623934 -12.08555355 1.376246284e-18)
(124.6370099 -6.962835173 -4.876902403e-18)
(124.3803237 -28.72127019 1.438327103e-18)
(130.0742889 -27.08891893 1.712104299e-18)
(106.9345659 -33.81490572 -6.387771047e-19)
(112.4482213 -28.94156958 1.513412308e-18)
(117.5181307 -29.43611134 -4.104323469e-18)
(155.8303623 8.193164904 2.45595816e-18)
(152.8764621 26.75218753 0)
(138.2702561 17.08551176 -4.270687243e-18)
(150.998549 25.11980963 -7.676083824e-19)
(154.76966 8.280642086 -2.395718758e-18)
(145.7145829 -16.6586225 -8.451718728e-18)
(152.1097303 -7.072884717 4.367500051e-18)
(140.5845172 -3.608043246 0)
(151.1113788 -6.663929414 0)
(145.1500244 -16.17988792 2.059116381e-18)
(154.6816077 7.233669585 0)
(151.4255738 -5.917644527 2.125858088e-18)
(140.8387607 -2.4519456 -4.58407678e-18)
(130.9173468 -26.76073387 0)
(137.3145245 -23.54224462 1.596816784e-21)
(132.2857315 -17.72376506 -1.977133487e-18)
(136.7730628 -22.88078224 2.066341791e-18)
(130.6931432 -25.90864083 0)
(144.7024167 -16.71375721 -3.984092416e-18)
(137.7139746 -22.29917213 -1.079671912e-18)
(133.6123799 -16.54813297 -1.510953279e-18)
(118.2601262 -29.42898764 -1.077902803e-18)
(123.5932805 -28.86970664 0)
(103.7495437 -33.35179085 1.337558317e-18)
(103.0713308 -33.13591674 2.448401042e-20)
(111.7355498 -28.86388444 -7.383031922e-19)
(107.0803156 -33.84378729 6.569015357e-19)
(159.813394 54.12613156 0)
(132.6174062 69.87468867 0)
(120.8694605 -29.98555515 6.067987037e-18)
(117.3776711 -22.62964131 -1.089506915e-18)
(114.936643 -15.72834064 0)
(119.6013057 -13.32666608 0)
(100.906014 -31.76886106 0)
(114.6361542 -32.51049159 1.695828896e-18)
(117.2717013 -32.48384518 -1.790300192e-18)
(131.5923952 41.40384737 0)
(149.6959443 27.67426917 0)
(136.2957839 19.69514786 6.099657542e-19)
(117.6758039 -32.43740573 7.096059345e-21)
(120.3626113 -32.30871747 2.038253202e-18)
(121.6110111 -23.24277768 0)
(123.5051378 -28.06789884 0)
(118.2606262 -28.63766491 2.120802843e-18)
(129.8701302 -26.23481074 1.671521345e-18)
(124.2780718 -27.90865892 2.773854146e-18)
(122.9147759 -22.86665147 -2.924790314e-18)
(84.57536023 36.74369594 1.011402866e-18)
(128.282493 45.73634326 0)
(108.4126205 38.41912211 0)
(87.71703778 39.32730907 -8.000391307e-19)
(161.3151097 50.52596223 0)
(146.4926849 37.75675824 0)
(159.2817105 49.70146088 0)
(132.2911123 64.98141301 0)
(157.0913157 52.65048737 0)
(143.5476364 40.25602779 0)
(154.0121589 -0.5018435748 0)
(154.2564112 0.3819789427 0)
(141.296605 -20.83859049 -1.900019728e-18)
(141.8030024 -20.42287155 0)
(122.9017258 -31.80664668 -1.2568116e-18)
(121.9364211 -30.2469155 0)
(126.7770877 -28.15877312 0)
(125.6414827 -30.65794251 -3.398625744e-20)
(123.99172 -31.5233775 2.389336708e-18)
(125.1292102 -28.93478114 0)
(125.5259978 -30.52932198 6.361619079e-19)
(127.5898272 -27.92868347 2.024475643e-18)
(111.5492248 -32.00783365 -3.922398243e-18)
(113.8650878 -32.42552384 -2.788826118e-18)
(102.3229824 -32.12227277 0)
(155.6216527 16.17843169 4.99928855e-18)
(155.4702929 17.45063093 -4.972070087e-18)
(148.742489 -12.47286691 0)
(149.1501453 -11.82888814 0)
(148.4655761 -11.44944229 0)
(144.489282 -8.857990744 0)
(146.0316614 -5.124372331 0)
(141.9400507 -13.19390659 -2.313901078e-18)
(143.9000247 -10.0157908 0)
(148.0766323 -12.09193148 -1.048707482e-20)
(153.439191 0.6258368145 3.062500582e-20)
(147.6688254 2.044253977 -2.739243018e-18)
(147.8865876 6.90443612 0)
(146.4590068 -3.78052156 -2.665965545e-18)
(147.4505506 0.5208741029 0)
(153.203637 -0.2551057015 2.45051186e-18)
(133.6382724 -25.38251305 0)
(125.4550555 -28.6894017 -1.801531751e-18)
(134.0836965 -25.12752419 2.092953018e-21)
(123.6083617 -31.59160673 -7.046012519e-18)
(120.9277638 -31.87716299 0)
(121.2729501 -29.21235328 -1.246690617e-18)
(120.7088412 -32.27283143 2.091926774e-18)
(122.6541914 -31.91797277 2.375672625e-18)
(97.93503006 -31.25094702 -3.055495278e-17)
(110.7821681 -31.82500452 -2.209825576e-18)
(129.4426511 93.93712479 6.920380314e-18)
(113.4188106 -33.63088989 8.53873556e-19)
(113.4394686 -33.27771584 -2.949034712e-18)
(30.51423028 16.51787164 0)
(113.0610493 -33.06953635 9.710092543e-19)
(111.8068966 -32.34820434 -1.116638578e-18)
(70.0158345 50.50168581 -9.713061268e-19)
(127.2373331 69.39819915 0)
(104.5059455 57.33730514 0)
(78.42647882 57.34983117 -1.517169828e-19)
(153.1982129 -3.908611052 -5.849811234e-20)
(159.6427339 6.818389343 -2.38723176e-20)
(158.6867181 3.564632797 3.196790977e-18)
(155.1835419 4.105040336 -1.288080913e-18)
(139.2792053 -22.30753732 1.75430636e-18)
(139.8313054 -23.99688622 0)
(138.5413682 -24.85812138 0)
(145.2858794 -18.77176855 2.714372655e-20)
(143.5171216 -20.33574192 0)
(143.8085644 -18.67785928 -1.94566886e-18)
(155.9046078 11.47295014 0)
(159.9797714 11.2607317 -1.383808373e-19)
(159.969557 7.936048785 1.425357342e-19)
(154.2685398 17.15310256 2.408304685e-18)
(146.3237691 15.84558225 0)
(143.7888432 21.45406312 2.475243824e-18)
(147.7888519 8.62284314 0)
(146.8705281 13.98582537 -2.585415454e-18)
(154.4194577 15.96414341 -4.888065728e-18)
(147.0634203 -14.95177381 -2.263896868e-18)
(147.5951068 -16.40515624 0)
(145.8769914 -18.22404416 -2.602446152e-18)
(150.9382031 -9.241810236 0)
(138.0293519 -25.15937968 -1.935664958e-18)
(136.4465371 -25.89272975 -3.358521699e-18)
(135.891569 -24.24880814 1.621775568e-18)
(134.0798775 -24.35726908 0)
(132.6119556 -21.71961334 1.7936403e-18)
(134.9914154 -20.16378802 -1.969739894e-18)
(141.4278978 -19.91728366 1.877904081e-18)
(138.973489 -16.75367141 0)
(141.2281953 -14.1589348 2.284983287e-18)
(135.7933832 -19.57022265 2.01348419e-18)
(138.1894067 -17.52622947 0)
(140.9471884 -20.33037965 4.884007738e-20)
(120.5147352 -29.2929813 -1.187871044e-18)
(120.5439335 -31.91506661 0)
(117.9957667 -31.84166512 -1.984836578e-18)
(99.66099682 -32.03764244 9.990159423e-18)
(151.099955 64.00863967 0)
(130.7039811 89.98624111 -1.422202719e-19)
(147.0216927 66.9671366 0)
(122.1914708 -29.53681676 -9.349384798e-18)
(122.4549667 -29.42085968 2.20283711e-18)
(113.0445743 -33.73478681 7.808463947e-19)
(113.4303221 -33.64666555 -2.469753978e-18)
(100.5425052 -31.35238644 3.332554104e-17)
(41.96483626 -3.657177333 1.740520022e-17)
(38.17682581 15.16722169 0)
(45.30921909 -6.306932331 1.069293626e-17)
(114.2302 -32.13601078 0)
(115.3883195 -32.81699066 5.071434606e-19)
(119.2303087 -32.39011849 1.966388822e-18)
(110.5989868 -31.90493977 -6.163100898e-18)
(109.7140228 -31.32735858 0)
(163.182782 41.30799879 0)
(156.0572048 38.5441865 0)
(151.4811442 44.12243267 0)
(159.5481851 31.04279844 5.087480773e-18)
(157.1722249 36.63638851 0)
(149.63596 45.93987686 0)
(143.0931438 50.76619089 -4.328586951e-18)
(148.7875198 60.29730761 0)
(156.793096 -1.227175873 -3.168309214e-18)
(155.035579 -3.98960693 0)
(153.3770797 -3.072768751 -1.596514999e-19)
(154.9698918 3.137257948 0)
(158.3161018 2.535035533 -4.024097808e-19)
(157.1806791 -0.3097359818 1.57615057e-18)
(142.0030887 -22.4235841 -6.735992234e-18)
(140.3511529 -23.64495559 0)
(139.7840763 -21.97197285 0)
(138.2165404 -24.04052948 -4.459987432e-18)
(140.3162448 -22.82168391 7.43179906e-18)
(137.4212843 -25.20519389 2.055927264e-18)
(137.6540333 -24.39231176 4.05802094e-18)
(140.9388245 -22.29395803 0)
(143.3128083 -19.12631159 0)
(142.8999837 -20.75237516 0)
(142.5294373 -21.96037068 2.266784016e-18)
(122.7628128 -31.35968584 1.891433891e-18)
(122.7435066 -31.12323184 1.392052216e-20)
(125.1745179 -31.2113761 -5.100783368e-18)
(125.930138 -29.9001812 0)
(127.1747703 -29.65533722 2.560345375e-18)
(126.0522581 -29.74651979 0)
(129.3309839 -29.0195519 0)
(130.6404587 -28.60900612 -6.705770549e-21)
(127.5911727 -29.49965006 0)
(128.8945033 -29.15688079 2.735477047e-18)
(126.0126357 -29.96769118 0)
(104.7639549 -33.18507144 -7.258890276e-19)
(111.9392791 -33.60765824 -7.291031956e-19)
(112.8062678 -33.70457347 2.255650643e-18)
(160.0210735 16.40513237 0)
(159.787899 12.52541005 0)
(155.876065 12.60072784 0)
(161.1789967 12.85045953 0)
(161.8721941 16.73419644 0)
(160.8917644 11.36485924 0)
(160.8916558 23.98908797 0)
(160.1999305 29.25336197 0)
(162.064737 18.0151837 0)
(161.0139529 22.47032952 -6.097817706e-18)
(154.7326197 21.27965661 -7.442415593e-18)
(159.3332868 22.18296466 0)
(160.0916804 17.81040855 0)
(149.6799289 -13.76080362 -5.775143395e-18)
(148.1556741 -15.7585099 2.767137106e-18)
(147.4966227 -14.35204091 2.36292942e-18)
(150.4795008 -9.90177452 5.534221743e-19)
(150.9408485 -11.22945875 1.618718347e-17)
(150.1136752 -13.07064636 2.941290198e-18)
(132.7597043 -27.811239 0)
(134.0436068 -27.30952475 0)
(131.0910814 -28.46245707 0)
(132.3809849 -27.94402839 0)
(125.6191904 -28.02383416 -3.408200869e-18)
(135.6319938 -26.23729902 -7.054949359e-18)
(137.0741087 -25.51981198 4.065182622e-18)
(134.4325386 -27.07785238 -8.274406121e-19)
(135.22517 -26.4774283 6.58349553e-18)
(108.9119165 -31.06389176 0)
(121.7400281 -32.16185779 -2.24207145e-18)
(112.5116914 -31.08966995 1.457684452e-18)
(113.0775653 -31.71795958 0)
(112.6869317 -30.99472534 7.035427126e-18)
(122.0280815 -32.07749466 -9.12009582e-21)
(98.17890096 -31.67253886 -5.044979181e-18)
(123.9507076 23.43182194 0)
(117.8832195 12.15060934 -4.624854541e-18)
(111.5711229 13.08881487 -7.422622573e-19)
(104.3223039 -31.6909263 6.028764903e-18)
(104.5891098 -31.63019739 8.704645017e-18)
(113.3754558 -16.12615064 2.764609051e-20)
(103.821081 -31.36386367 4.601029047e-17)
(117.5302804 -28.66250941 3.036083325e-18)
(112.9356239 -27.94051896 2.202332644e-18)
(112.9411805 -23.94059946 0)
(55.60080622 64.95704313 -1.824030218e-18)
(50.4086901 39.33640126 -4.790764677e-18)
(34.59022547 26.31052832 0)
(114.1429077 99.71853959 -4.043834659e-18)
(95.16316439 78.78785636 0)
(64.1664782 73.85305678 8.470929967e-19)
(116.1448316 25.98229732 -1.027043874e-18)
(111.8050512 35.15098695 -1.484794579e-18)
(128.0814031 41.85368655 0)
(149.8002045 32.41917165 0)
(154.9316317 35.53204058 0)
(157.4657691 30.33149327 -5.157909171e-18)
(110.5440014 -33.3135659 6.449678283e-19)
(111.5939996 -33.60117386 -6.889394228e-19)
(105.4882683 -33.354119 -1.73460378e-19)
(117.2155545 -31.84940472 1.669177911e-18)
(114.8901704 -31.68940208 0)
(115.3187494 -29.34867654 0)
(158.0976439 28.64119309 0)
(159.1275795 23.70585498 0)
(154.3672497 22.57926473 -2.535025287e-18)
(98.68424912 -32.18557049 2.51590244e-18)
(102.2650127 -32.95636576 7.366103745e-19)
(95.87085484 -31.44317966 -6.348593609e-18)
(97.26138725 -31.7369521 -1.237742956e-19)
(110.1638871 -33.27342309 0)
(157.9399992 57.14680873 0)
(121.3002794 -29.82065397 0)
(107.2893024 -33.20584961 -7.976634382e-19)
(106.8299553 -32.92875818 0)
(101.3139111 -31.67561793 0)
(115.7483825 -33.4123823 -9.331701534e-19)
(115.0273076 -33.50928159 1.722993436e-18)
(116.102965 -32.37905025 2.979961972e-21)
(142.5977284 23.2944357 0)
(137.9640459 28.31311868 0)
(143.886227 35.02961737 0)
(118.8495091 -32.46213724 -9.839735219e-19)
(115.760826 -33.02450883 1.0347849e-18)
(115.833288 -33.35051199 -1.904091352e-18)
(117.4782487 43.30619338 0)
(109.4784607 53.71314795 0)
(127.9501836 64.81766419 0)
(160.9528569 46.90273094 0)
(158.1555195 45.77255812 0)
(156.4562931 48.28667533 0)
(163.6836363 32.00496026 0)
(163.1797301 34.41007529 0)
(123.0327687 -31.63213308 2.514817147e-18)
(119.8084979 -31.29432783 -1.367414418e-18)
(119.9533746 -31.5272558 1.346123301e-18)
(118.1993163 -29.79257399 -2.645499233e-17)
(119.029271 -30.11920244 2.01687463e-18)
(122.7858694 -30.61952259 2.182186488e-18)
(124.2676133 -30.21990285 0)
(125.4999217 -30.03795747 0)
(124.883001 -31.29972234 0)
(124.598573 -29.19321799 -1.117304265e-17)
(128.7033248 -29.48960174 2.482726673e-18)
(128.8074923 -29.2145025 2.982654441e-18)
(103.7241476 -32.59996752 0)
(108.5140893 -33.58576929 7.712907374e-19)
(107.9421442 -33.36328234 7.713757535e-19)
(128.9397542 -27.5408148 -7.860774106e-18)
(129.5137278 -27.36664064 -8.538191469e-18)
(129.0600756 -28.9986816 8.012310851e-18)
(129.3656391 -28.79151765 -2.69016794e-20)
(125.9530017 -28.51278831 1.994071821e-18)
(129.8166064 -27.15424577 0)
(129.2388482 -26.83655535 0)
(135.4230964 -24.5331862 -3.227467001e-18)
(135.9653614 -26.10641791 3.770061241e-21)
(134.603067 -26.5982161 3.982739538e-18)
(98.67404474 -31.51864606 1.174098428e-18)
(103.5368422 -31.87620937 0)
(103.9754362 -31.76350303 -1.088212744e-18)
(109.2435676 -32.50099926 2.124461675e-18)
(109.5247447 -32.75503658 -4.099075358e-18)
(113.5235631 -33.46325103 9.819576206e-19)
(30.42767668 8.799576497 0)
(20.74080018 21.14656731 0)
(32.41243003 1.157542804 0)
(112.5881263 -32.91872584 0)
(106.807941 -31.74449809 4.014709606e-18)
(108.087395 -32.07806568 -6.568106407e-18)
(107.2209416 -31.48736464 -7.498072089e-18)
(107.2528143 -31.60380955 -8.364164191e-18)
(112.2438328 -32.63564622 -1.072313859e-18)
(114.6492682 65.36618585 0)
(102.0489107 75.17132442 0)
(120.8362616 90.00146477 7.013571573e-18)
(154.6242315 -5.455182222 -1.042312023e-17)
(154.9616412 -4.648256388 0)
(153.7783591 -7.028607317 2.790822295e-18)
(154.2012714 -6.242517142 -8.198138863e-18)
(159.3238914 5.723756098 -2.179180348e-20)
(158.0750594 5.727446435 5.475605536e-18)
(158.3169742 6.807048072 -5.347654696e-18)
(157.5587175 3.634010038 2.799834607e-18)
(157.8252481 4.671002432 -2.755331308e-18)
(159.0104689 4.647041919 -4.764438286e-18)
(144.6875956 -19.33694946 2.531926266e-18)
(145.8747767 -18.7849622 1.385501093e-20)
(146.3859064 -18.23865998 0)
(144.820558 -19.80056118 -3.948740592e-18)
(145.3493915 -19.31858671 -4.168032119e-18)
(144.0573582 -19.88143748 -9.788090491e-18)
(160.1872309 10.20936606 2.05475621e-17)
(158.6272655 10.29899208 -1.012421168e-17)
(158.4806208 11.45556964 -2.819174185e-18)
(158.5328213 7.92806238 -1.658949964e-19)
(158.6565399 9.104322405 0)
(160.1923358 9.098974435 0)
(147.0458181 -16.99988836 -2.664055145e-18)
(147.8444328 -16.48426976 4.796304569e-18)
(148.3133119 -15.87951791 2.443304003e-18)
(146.8878451 -17.67919205 0)
(147.3735261 -17.08581066 7.812932986e-20)
(146.4747543 -17.61925485 -7.924502515e-18)
(152.9947302 -8.699985994 -2.713781771e-18)
(153.4024634 -7.840965197 5.580371147e-18)
(152.0185234 -10.18022509 1.856074005e-17)
(152.5639439 -9.476657985 0)
(93.49088219 -31.00006077 1.929275115e-18)
(95.03006249 -31.1051597 -1.322642821e-17)
(96.03411889 -31.37975525 4.821818342e-18)
(101.2919391 -32.5466335 -1.471114926e-18)
(92.77473733 -30.77432592 1.130419164e-17)
(154.0679834 66.4059103 0)
(157.3558752 61.78116678 0)
(155.1059391 60.59692217 0)
(141.9477007 82.81855788 3.037091954e-17)
(140.0697193 80.36370445 -1.619217557e-17)
(131.547412 83.63046845 -4.248721932e-18)
(151.8087026 71.08060493 0)
(146.7304708 75.69202768 2.864324128e-17)
(121.6455133 -29.66118186 -5.117844975e-18)
(121.8299671 -29.15933928 2.236260094e-17)
(101.3220257 -31.59878244 -2.523264631e-18)
(106.3012026 -32.64957509 -9.196120472e-19)
(104.9400226 -32.20991634 7.169496483e-19)
(39.41433252 0.5171615348 -1.441117905e-17)
(109.3066783 -31.57600355 8.271859809e-18)
(106.4163092 -31.21140557 -3.539582492e-17)
(109.739344 -31.43955958 0)
(161.0988149 40.66208951 0)
(159.5548158 43.30890907 2.966381395e-18)
(162.1134735 44.41176214 -3.820031527e-18)
(158.7954838 32.78552458 -5.439926518e-18)
(160.8999688 33.5638345 5.754868244e-18)
(161.8681693 31.53003349 0)
(162.8668058 36.27362315 0)
(162.1946855 38.35862539 0)
(156.355837 -2.088966859 -1.673137128e-18)
(155.7811132 -1.900700726 0)
(156.0641232 -1.040612294 2.926347969e-18)
(155.1936658 -3.791249695 -1.680198072e-17)
(155.6878893 -2.712389725 -1.139784044e-17)
(155.9797218 -2.89199089 1.509924558e-17)
(157.9271717 1.57468775 -3.168554154e-18)
(156.9570658 1.677456796 1.792903505e-19)
(157.266025 2.632724337 0)
(156.3496106 -0.1568041464 -1.45239581e-18)
(156.651711 0.7501851304 0)
(157.5561816 0.6213927138 3.185621421e-18)
(141.4574786 -22.86869954 1.27804327e-17)
(141.660178 -22.40738823 -5.622367358e-20)
(142.2183214 -21.98382419 -4.208713263e-18)
(138.9063021 -23.68017585 0)
(139.6107551 -23.29982023 -7.188873965e-18)
(137.3434286 -24.86948674 3.595984246e-17)
(134.7027369 -24.99274037 -6.454683965e-17)
(135.0675599 -25.37439467 1.108224048e-17)
(136.9824597 -24.70121699 -3.00455106e-17)
(141.2882079 -21.84058599 0)
(141.0035351 -21.37855661 0)
(143.0967569 -21.02483937 3.430200975e-18)
(143.8416909 -20.65509679 -4.002607758e-18)
(144.3273497 -20.25720565 4.151904721e-18)
(142.7837087 -21.54803387 0)
(143.3369726 -21.09667627 2.101876369e-18)
(142.955776 -21.49410588 -2.259866425e-18)
(117.8396579 -30.70663957 -4.475224214e-18)
(118.9046494 -30.95312875 -9.02851061e-18)
(122.934595 -31.46261785 6.194926769e-19)
(114.9683097 -30.44267417 2.458819918e-17)
(115.5165944 -30.81438795 6.341323819e-18)
(115.7444943 -30.70880469 -1.891095612e-18)
(122.8863221 -30.90768485 -7.155898599e-18)
(118.803122 -30.32537345 5.07190767e-18)
(118.402402 -30.53179228 1.501559457e-18)
(128.5582608 -29.83397955 0)
(128.6669243 -29.64069596 -2.898607301e-18)
(125.4541595 -29.42326293 9.983242938e-18)
(159.8999627 15.05548431 0)
(158.3798495 15.07288015 -5.473377941e-18)
(158.402496 16.35721898 0)
(158.3701435 12.58922911 8.053914695e-18)
(158.3593043 13.82028426 2.81659665e-18)
(159.8137458 13.73644407 0)
(161.4182408 14.07879066 0)
(161.6186502 15.46522981 0)
(160.8001747 25.64595373 0)
(163.0298315 26.25264679 1.409823527e-17)
(162.9163042 24.63428456 0)
(162.6397488 29.71841006 0)
(163.0323529 27.97066874 0)
(160.6253792 27.41012257 0)
(161.9879944 19.30779851 0)
(162.8625827 23.1879907 0)
(163.0549272 21.04770015 0)
(161.5710868 20.74110139 4.584353828e-18)
(149.1971539 -14.45375763 0)
(149.6523896 -13.95336333 0)
(150.0656993 -13.28387484 0)
(148.7705225 -15.2446228 -4.955663321e-18)
(149.2156535 -14.60144504 -2.578088423e-18)
(148.6911685 -15.09812773 2.76726823e-18)
(150.9068067 -11.78376293 3.69023025e-18)
(151.3823235 -11.31469642 5.370170589e-18)
(151.8403112 -10.63748766 -1.434348996e-17)
(150.4698801 -12.62555618 -2.689010187e-18)
(150.9051276 -11.97787047 -2.801556716e-20)
(150.5406949 -12.41487312 -3.062121116e-18)
(128.1292876 -27.92535081 6.240658232e-18)
(128.5632591 -27.71870491 -3.54251865e-18)
(126.2233592 -28.34451724 2.363219387e-18)
(129.4702959 -28.52780706 1.722231541e-18)
(128.9642087 -28.16984872 0)
(136.0823483 -25.99409069 -7.37878506e-18)
(133.3139886 -26.11551972 8.596518473e-18)
(132.7074211 -26.35114267 8.139518513e-18)
(134.625899 -25.66630116 0)
(133.9426414 -25.90080576 0)
(136.5687326 -25.76967398 0)
(134.6945812 -26.86822584 0)
(132.3129515 -26.94500894 1.125214622e-17)
(132.7036978 -27.2438234 0)
(132.2465567 -26.5818525 7.551523983e-18)
(131.6717262 -26.78350916 -1.262423377e-17)
(134.9243694 -26.7265501 -3.608755329e-18)
(112.245605 -31.22441991 -1.301968709e-18)
(117.1576845 -32.12531087 2.269624035e-18)
(117.165932 -31.94882615 1.247002014e-18)
(117.7308418 -32.50809696 5.242063819e-19)
(117.3506791 -32.3703472 0)
(111.8011338 -31.39712196 0)
(114.6946655 -31.07796791 1.408479952e-17)
(115.1705746 -30.93867571 -5.525784621e-18)
(116.9372031 -31.70685574 -1.270013554e-18)
(115.8922977 -31.34479133 -8.480023086e-18)
(111.8509271 -30.7325778 0)
(98.63156294 -31.60109694 4.596957768e-18)
(99.87636722 3.627082862 1.980369314e-20)
(99.99371 2.117143274 1.570622741e-21)
(99.94373062 3.658158056 4.569961146e-21)
(100.1902359 3.597066393 -6.220935743e-22)
(100.1014357 2.103205219 -5.347513838e-22)
(100.2486392 3.527678776 0)
(100.420627 3.203674112 2.473825507e-21)
(100.1805585 1.895703107 0)
(100.4465288 3.0680516 -2.476635263e-21)
(100.5152333 2.620534314 -1.524355342e-20)
(100.2120405 1.57512331 0)
(100.5145156 2.467504417 2.1174636e-21)
(100.505047 2.010458419 5.302700353e-21)
(100.2041586 1.222631927 -4.418876328e-21)
(100.4835799 1.864327278 -2.499572765e-21)
(100.4265108 1.461343586 0)
(100.171722 0.9040472252 -1.100085569e-20)
(99.63865561 5.93535365 -6.123288367e-20)
(99.83201311 4.163736299 -1.3311021e-20)
(99.85256321 6.008710425 -3.979873657e-20)
(100.5014654 5.913965474 -2.309043977e-20)
(100.2484602 4.132598842 -3.905055502e-21)
(100.6905552 5.779839695 0)
(101.1139317 5.147552142 -5.827032087e-21)
(100.5520196 3.6636543 2.006365414e-20)
(101.1973158 4.885418604 2.693251065e-20)
(101.3038931 4.044241093 7.585840962e-20)
(100.6688148 2.9715205 3.131870727e-20)
(101.2994175 3.766000407 1.549701642e-19)
(101.2202442 2.990456845 -1.095486795e-20)
(100.6532107 2.268070045 -2.007196251e-20)
(101.1788695 2.756977836 9.362952837e-20)
(101.0224062 2.119050148 -2.939420554e-19)
(100.5507034 1.639046789 -1.185078481e-20)
(99.08189741 8.920728274 4.085768269e-19)
(99.54272946 6.598803076 2.941023223e-19)
(99.57831352 9.100518695 -2.469232458e-19)
(101.0931055 8.953432015 -2.810513768e-19)
(100.6169227 6.586096176 2.768072899e-20)
(101.5291856 8.687706592 1.985714483e-19)
(102.4279876 7.462465784 2.920705823e-19)
(101.370313 5.68530111 7.362791021e-21)
(102.5811933 6.976166351 -2.779199121e-19)
(102.6847367 5.497757031 -1.663867232e-19)
(101.5843824 4.408525952 -2.954617474e-19)
(102.6315373 5.026317677 0)
(102.3437934 3.800071252 -3.089791974e-21)
(101.4565785 3.212048402 9.242823631e-20)
(102.2251074 3.45322948 -2.054989653e-19)
(101.8667125 2.577791784 0)
(101.2138033 2.259065742 0)
(97.64641672 13.33329795 8.439609858e-20)
(98.84067463 9.844007438 2.839009189e-19)
(98.78746799 13.82005577 0)
(102.3557009 13.45389778 0)
(101.3133125 9.899875502 8.096965641e-20)
(103.3010563 12.80778141 0)
(104.9230754 10.19934339 2.159177475e-19)
(102.9062194 8.113052111 0)
(105.1087193 9.26497691 -5.705315586e-19)
(104.9574048 6.760268228 0)
(103.1531306 5.837482554 -9.078107532e-20)
(104.7467723 6.050771665 0)
(103.9601118 4.307174824 0)
(102.7019836 3.966058761 1.028037934e-19)
(103.6839278 3.842124288 -2.328696478e-19)
(102.9324904 2.729656495 -1.571321029e-20)
(102.113242 2.647855254 -1.50229873e-20)
(93.65041643 22.85473517 7.75478747e-19)
(96.99741272 14.85535071 5.153096842e-19)
(95.34124413 23.91839134 0)
(106.4797343 20.86779565 1.772015429e-19)
(102.9386222 14.9597776 4.422246903e-19)
(108.1953848 18.77961983 1.259353641e-18)
(109.8325699 12.73773394 7.341509758e-19)
(105.8602257 10.89912938 0)
(109.6580623 11.10386292 -1.365673673e-18)
(108.296188 7.278823705 -1.735325989e-18)
(105.6884356 6.996000817 -1.25127714e-18)
(107.7157782 6.322106413 1.569567173e-18)
(105.998804 4.165093892 1.17486082e-18)
(104.4370615 4.346024568 2.223261315e-21)
(105.477693 3.636160544 0)
(104.1464117 2.442447309 1.386496784e-19)
(103.2274804 2.704926526 5.54476581e-19)
(90.93719113 35.83387699 5.77913297e-20)
(105.7655079 34.89905583 0)
(102.037917 26.39183973 0)