/*--------------------------------*- C++ -*----------------------------------*\
| =========                 |                                                 |
| \\      /  F ield         | OpenFOAM: The Open Source CFD Toolbox           |
|  \\    /   O peration     | Version:  v2012                                 |
|   \\  /    A nd           | Website:  www.openfoam.com                      |
|    \\/     M anipulation  |                                                 |
\*---------------------------------------------------------------------------*/
FoamFile
{
    version     2.0;
    format      ascii;
    class       surfaceVectorField;
    location    "0.4";
    object      Uf;
}
// * * * * * * * * * * * * * * * * * * * * * * * * * * * * * * * * * * * * * //

dimensions      [0 1 -1 0 0 0 0];


internalField   nonuniform List<vector> 
5975
(
(104.666033 -28.44166049 -1.814952951e-19)
(103.9988716 -28.70740473 -3.559683267e-19)
(103.9702929 -28.08527828 -1.812455854e-19)
(104.653486 -27.93472102 -1.840541917e-19)
(103.7895549 -28.55263808 -4.095945757e-20)
(107.8221762 -19.10348996 -2.329218241e-20)
(108.5043275 -18.58165976 1.853227377e-19)
(106.9264771 -17.66146303 -2.498874246e-20)
(107.7554285 -17.25562932 -1.059835392e-19)
(107.2563773 -18.79563983 1.340220138e-19)
(108.5421574 -17.92046813 -3.061929218e-20)
(107.8820996 -12.55691636 5.202855563e-19)
(107.4670889 -13.1154499 -1.64079922e-19)
(106.830197 -12.4636598 1.766817439e-20)
(107.1941493 -12.01263726 1.823966845e-19)
(106.3520165 -8.895700016 0)
(106.1768695 -9.333941552 -2.044565924e-19)
(105.6457508 -8.975909297 2.280861042e-19)
(105.8067924 -8.6055006 0)
(104.7417894 -6.441088395 3.209357247e-19)
(104.682348 -6.782016237 1.575683571e-19)
(104.2527015 -6.569330427 1.320932593e-20)
(104.3156019 -6.273655632 8.512801179e-20)
(103.2623165 -4.973544927 -3.836515769e-20)
(103.2654825 -4.709792404 -1.09840031e-19)
(102.9164139 -4.835070491 3.155495041e-20)
(102.9320661 -4.602322607 1.069431415e-21)
(101.8973571 -3.32416548 -1.501402208e-20)
(101.9124426 -3.714052884 1.111550076e-20)
(101.4176751 -3.521739511 -3.19925075e-20)
(101.4535146 -3.200959256 -3.24878168e-20)
(101.0783366 -2.449198482 2.484475947e-22)
(101.0712384 -2.752008313 0)
(100.7072298 -2.609700554 -1.08304183e-20)
(100.7516569 -2.355451417 0)
(99.85313145 -1.461929003 5.764011206e-21)
(99.74110931 -1.829450717 -9.36299118e-21)
(100.1890604 -2.09513108 0)
(100.4170797 -2.024180855 0)
(99.54392344 -0.9400339353 6.830165969e-21)
(99.39665605 -1.24266214 1.399793617e-20)
(99.36379128 -0.4598619184 -2.373781903e-21)
(99.18001029 -0.7263897381 1.061879949e-21)
(99.06879828 -0.2393125025 6.126053101e-21)
(97.4914797 -18.96318157 -2.317313603e-20)
(96.5770263 -18.50526281 -1.210837532e-20)
(97.44767421 -17.6820719 2.752303685e-20)
(98.04148178 -18.22497208 -1.816244189e-20)
(96.59985563 -18.03562372 -4.392313034e-20)
(102.4574998 -15.289417 -5.599395066e-20)
(103.2435959 -15.29544483 1.730618857e-19)
(102.4232806 -14.37003849 -5.653617959e-20)
(103.0196479 -14.4113412 8.730459374e-20)
(104.1365139 -11.67767936 0)
(103.7223817 -11.89112293 -1.822526804e-19)
(103.4084813 -11.30178094 1.060540557e-20)
(103.7441742 -11.13356869 -8.293113375e-20)
(103.7062368 -8.86269749 -1.148242599e-19)
(103.4827475 -9.113345651 -1.1657379e-19)
(103.1330306 -8.731796285 -6.14349199e-20)
(103.3230744 -8.520712796 -1.737957701e-19)
(102.8472832 -6.719184496 7.226205593e-20)
(102.7317432 -6.956804966 6.258049172e-20)
(102.4062611 -6.702356806 1.108063815e-19)
(102.5104994 -6.494434933 2.142108693e-21)
(101.8217964 -5.272373577 -6.434915118e-20)
(101.8755493 -5.060813093 3.125376333e-20)
(101.5368929 -5.092492662 -8.857476355e-20)
(101.5909149 -4.909931726 2.100176145e-20)
(100.9263623 -3.659315055 -4.431274047e-20)
(100.8573578 -3.999808309 -2.315911981e-20)
(100.4343148 -3.741810384 -4.140771179e-20)
(100.5289958 -3.473056525 -1.711743128e-20)
(100.3223954 -2.731374444 -2.775092703e-20)
(100.252754 -3.006449378 1.00435805e-20)
(99.93162549 -2.818244075 -2.937268982e-20)
(100.0172299 -2.588912099 -1.526172518e-20)
(99.29474316 -1.602313727 -4.98660589e-22)
(99.13288505 -1.944315319 -2.673243496e-20)
(99.5167185 -2.276840372 -6.785729411e-21)
(99.75357679 -2.225379101 -4.114761494e-21)
(99.04267781 -1.031080372 9.20509054e-21)
(98.85894741 -1.328361705 1.729353837e-20)
(98.89363555 -0.5048509134 9.204737343e-21)
(98.68376526 -0.7787747771 3.58702006e-22)
(98.59269194 -0.2565956379 2.203678319e-21)
(98.67014307 -12.2789221 2.745087683e-20)
(98.36884066 -11.52053547 -9.473296528e-21)
(98.94472351 -11.36390966 3.239789299e-20)
(99.15903546 -11.81019859 2.927387945e-20)
(100.9183604 -11.79081111 -1.242798563e-20)
(100.5728206 -11.54235516 4.988633025e-21)
(100.6312581 -11.0594677 -1.414596739e-20)
(100.8983851 -11.23732895 2.25335125e-20)
(101.7011572 -10.02746803 7.656851597e-21)
(101.4262647 -10.03325913 -1.863851857e-20)
(101.2723573 -9.603071226 -6.247225539e-20)
(101.4922249 -9.591190087 -6.405836525e-20)
(101.6549546 -8.164697142 -1.739624568e-19)
(101.4652768 -8.27038218 -1.267534117e-19)
(101.2402116 -7.938925146 -1.220830522e-19)
(101.3983166 -7.845378523 -4.48312862e-20)
(101.2055002 -6.498392049 -9.530224953e-20)
(101.0839866 -6.641188367 -4.417397131e-20)
(100.8460977 -6.390725604 -4.517444752e-20)
(100.9520346 -6.265168461 -6.833444834e-20)
(100.5103231 -5.221123482 -1.178158561e-20)
(100.586383 -5.073281816 1.622185962e-22)
(100.2868188 -5.034437833 -1.180575483e-20)
(100.3601242 -4.900033582 -1.028902515e-20)
(99.95298365 -3.774352166 3.324485601e-21)
(99.83802665 -4.043111912 6.174342144e-21)
(99.49079422 -3.76461334 0)
(99.61685596 -3.548682612 2.662696702e-21)
(99.54712294 -2.870621228 -1.250040098e-20)
(99.43545883 -3.103193311 2.660337495e-21)
(99.16322564 -2.892481941 4.20448342e-21)
(99.27520638 -2.692843565 0)
(98.70729023 -1.671137148 -7.746301773e-21)
(98.51425742 -1.979886405 -1.154211046e-20)
(98.84113391 -2.344438784 -1.220779148e-21)
(99.07378193 -2.319551148 -1.154777775e-20)
(98.50921285 -1.079209829 8.903765996e-21)
(98.30278175 -1.364304161 1.77350468e-20)
(98.39069696 -0.5296466078 -5.971682061e-21)
(98.16573098 -0.8021468353 -1.006436027e-20)
(98.09326073 -0.2643617119 -6.334167497e-21)
(99.53768138 -9.305872137 -5.18673772e-20)
(99.43158619 -8.85985608 8.281724574e-21)
(99.68350398 -8.7771545 -4.756988628e-22)
(99.69875279 -9.015120383 -1.064527044e-20)
(100.1016651 -9.244752549 -3.726070583e-21)
(99.99716759 -9.027422674 3.520446671e-20)
(99.99538735 -8.747513619 -1.665166634e-20)
(100.0761283 -8.913896399 -6.749976888e-20)
(100.3104881 -8.4009364 4.446773713e-20)
(100.180158 -8.331596108 4.452587578e-20)
(100.0724935 -8.033927659 4.89931311e-20)
(100.177713 -8.084024648 -1.547899237e-22)
(100.2069074 -7.230217386 0)
(100.0841423 -7.255877003 -8.388681719e-20)
(99.92564179 -6.990766693 -3.739028828e-21)
(100.0274268 -6.963738839 3.071402935e-20)
(99.8956086 -5.999115081 1.819789714e-22)
(99.79713689 -6.075617635 -2.020685847e-20)
(99.61873757 -5.85452103 2.250942759e-21)
(99.70355318 -5.783374192 -4.073114316e-21)
(99.39651404 -4.941394981 0)
(99.47364864 -4.847218002 0)
(99.22391416 -4.767639536 0)
(99.29684294 -4.675577969 0)
(99.05485849 -3.720758784 -1.440444269e-20)
(98.92309952 -3.91980752 -1.439067589e-20)
(98.64500199 -3.649292403 5.341391397e-21)
(98.78051218 -3.481361326 -4.026541454e-20)
(98.79633838 -2.886489365 2.625886552e-20)
(98.66527773 -3.074094758 -3.577467473e-21)
(98.43516513 -2.85703571 2.542219389e-21)
(98.56008287 -2.688686943 1.242427963e-20)
(98.11819296 -1.678640459 1.456024489e-20)
(97.91100596 -1.952385384 2.390083919e-20)
(98.18738342 -2.319710775 2.953205683e-20)
(98.40821021 -2.326694857 -1.237967663e-20)
(97.96677326 -1.09017934 -1.872717436e-21)
(97.75076723 -1.358116634 -8.030763565e-21)
(97.87470547 -0.5361951969 -1.041482425e-20)
(97.64482251 -0.8004068001 -1.16018047e-20)
(97.58765624 -0.2640302367 1.177077613e-21)
(100.0140763 -7.491042482 -6.09096781e-21)
(99.94327837 -7.202740405 2.467496865e-20)
(100.0975052 -7.137250429 -3.090638424e-20)
(100.0387895 -7.291307889 2.460419153e-20)
(99.78972719 -7.499312955 -1.006994618e-20)
(99.80328685 -7.33359828 -2.313317824e-20)
(99.74533094 -7.149107689 -2.020783908e-20)
(99.72714228 -7.282341554 -2.763686375e-21)
(99.5253941 -7.046504426 -2.234134524e-20)
(99.490574 -6.965275631 -2.130634141e-20)
(99.38515416 -6.752910428 -2.328792544e-20)
(99.41090512 -6.816314074 -1.84174316e-20)
(99.23040249 -6.291665095 2.321638122e-20)
(99.17076078 -6.278246895 2.320427272e-20)
(99.03912981 -6.070545361 5.337623613e-20)
(99.08843091 -6.076432953 1.251885336e-20)
(98.89603944 -5.398366056 0)
(98.83192856 -5.431996028 1.609242052e-21)
(98.68817603 -5.244611978 0)
(98.74456445 -5.210697013 0)
(98.49300283 -4.554742661 0)
(98.55712275 -4.497456192 0)
(98.35545078 -4.399907541 0)
(98.4172071 -4.340033453 0)
(98.26348784 -3.555449073 1.965561149e-20)
(98.13364198 -3.695222047 0)
(97.90781288 -3.443215516 0)
(98.03771902 -3.316581658 0)
(98.09675921 -2.807138919 -1.954582219e-20)
(97.96210549 -2.954086046 0)
(97.76663669 -2.740173383 0)
(97.8930176 -2.60264798 0)
(97.54887266 -1.639322076 -2.189044762e-21)
(97.34023596 -1.877425726 1.852809447e-20)
(97.57482993 -2.231669689 1.232657218e-20)
(97.77814797 -2.266213918 1.234693018e-20)
(97.43385761 -1.071215311 -1.851012512e-20)
(97.21825407 -1.318133175 -1.733351887e-20)
(97.36235769 -0.5276122574 2.383724801e-23)
(97.13544858 -0.7789349024 -1.17317197e-21)
(97.09026541 -0.2576775299 1.176988346e-21)
(100.2913986 -6.235640876 1.503196834e-21)
(100.2307404 -6.037382734 7.137967308e-21)
(100.3409907 -5.978008567 4.751076949e-21)
(100.2500651 -6.08948158 -1.176575576e-21)
(99.6494466 -6.245309847 1.186870579e-21)
(99.72399903 -6.119388767 6.86918836e-21)
(99.62499952 -5.984530996 4.343093429e-21)
(99.55199927 -6.089412186 -1.381885741e-20)
(99.04854727 -5.965407308 0)
(99.07449532 -5.890161699 -3.32171444e-21)
(98.95725636 -5.730805664 -1.204232232e-21)
(98.93083278 -5.792029068 6.655086073e-21)
(98.55692158 -5.44918209 4.430554179e-21)
(98.5453899 -5.421141708 9.41003162e-22)
(98.42120249 -5.256756651 2.059580867e-21)
(98.42962524 -5.27669508 2.051982915e-21)
(98.14739463 -4.794010821 0)
(98.1149433 -4.803365624 0)
(97.99111038 -4.649239011 0)
(98.02067385 -4.636974651 0)
(97.77413612 -4.127645516 0)
(97.82133153 -4.09564431 0)
(97.6592272 -3.992752046 0)
(97.70581534 -3.955061829 0)
(97.57865406 -3.317970505 0)
(97.46322392 -3.412822183 0)
(97.27523126 -3.184153652 0)
(97.38967494 -3.089807806 0)
(97.46172672 -2.660512924 0)
(97.33460601 -2.77310746 0)
(97.1676391 -2.57172757 0)
(97.2868691 -2.460031021 0)
(97.01154236 -1.564830397 0)
(96.8100603 -1.770513818 0)
(97.0139155 -2.102140758 0)
(97.19707158 -2.156275162 0)
(96.92277905 -1.028358608 0)
(96.71429307 -1.253565737 0)
(96.86657249 -0.5086192419 0)
(96.64845182 -0.7430962783 0)
(96.61210356 -0.2466475649 0)
(100.4543974 -5.302036483 5.854401625e-21)
(100.4146562 -5.160222475 3.961241404e-21)
(100.4821315 -5.103829635 -3.116681956e-21)
(100.3743862 -5.189366225 -4.099501792e-21)
(99.56013923 -5.296921946 7.201991432e-22)
(99.66931687 -5.199928803 6.880039325e-22)
(99.53940096 -5.094423836 6.883887531e-22)
(99.43436325 -5.177104542 -5.070854265e-22)
(98.72499063 -5.098139484 -9.943658142e-22)
(98.78929247 -5.033510078 0)
(98.65867695 -4.908858438 0)
(98.59790249 -4.962925908 0)
(98.07293112 -4.725433493 0)
(98.0962861 -4.69371268 0)
(97.97326223 -4.563040351 0)
(97.95124663 -4.587625275 0)
(97.58063611 -4.235753671 0)
(97.57450219 -4.232590411 0)
(97.46061084 -4.105446426 0)
(97.46730077 -4.104832913 0)
(97.20022741 -3.703786929 0)
(97.23019173 -3.686550497 0)
(97.09829098 -3.586895857 0)
(97.12937795 -3.563391963 0)
(96.99577748 -3.045624398 0)
(96.90123512 -3.110131189 0)
(96.73858306 -2.905533193 0)
(96.83352046 -2.836330092 0)
(96.8982719 -2.476584046 0)
(96.78507217 -2.562344906 0)
(96.63941642 -2.377644995 0)
(96.74669499 -2.286775501 0)
(96.51355639 -1.468175262 0)
(96.32624576 -1.646295654 0)
(96.50797234 -1.951374883 0)
(96.67121338 -2.015026971 0)
(96.441443 -0.9696515099 0)
(96.2459804 -1.174185693 0)
(96.39560707 -0.4816456815 0)
(96.19004469 -0.6978112019 0)
(96.15964613 -0.2321488483 0)
(100.5418514 -4.574137738 0)
(100.5302436 -4.467683965 0)
(100.5556105 -4.416037997 0)
(100.4356362 -4.482329234 0)
(99.47968035 -4.552248299 0)
(99.61080985 -4.476427856 0)
(99.46086197 -4.390595914 0)
(99.33438191 -4.456397176 0)
(98.48586125 -4.397599586 0)
(98.57598861 -4.343717966 0)
(98.43533064 -4.243876016 0)
(98.35084391 -4.289933268 0)
(97.7125147 -4.116039038 0)
(97.7611313 -4.085323235 0)
(97.63629032 -3.979405338 0)
(97.59160113 -4.004190117 0)
(97.14170393 -3.738072564 0)
(97.15673862 -3.729080407 0)
(97.04726914 -3.6233933 0)
(97.03510704 -3.628561968 0)
(96.73687239 -3.307220132 0)
(96.75067914 -3.298396456 0)
(96.64239643 -3.206453895 0)
(96.65865943 -3.191964167 0)
(96.50162391 -2.766385385 0)
(96.43035783 -2.811800435 0)
(96.28300627 -2.630056779 0)
(96.35766063 -2.579066972 0)
(96.40329891 -2.27669315 0)
(96.30686747 -2.342527445 0)
(96.17638512 -2.175557156 0)
(96.26932334 -2.100962159 0)
(96.05828155 -1.360461037 0)
(95.8891433 -1.515283808 0)
(96.05535775 -1.792714519 0)
(96.20023773 -1.858807881 0)
(95.99493502 -0.9025632537 0)
(95.81583173 -1.087495447 0)
(95.95481648 -0.4494823056 0)
(95.76444416 -0.6476927051 0)
(95.73740295 -0.215919647 0)
(100.5837314 -3.986577448 -2.522670302e-35)
(100.5923091 -3.903411605 1.65796383e-35)
(100.5894668 -3.856705384 -4.91205243e-35)
(100.4607206 -3.909516469 -2.522966048e-35)
(99.40680054 -3.953222008 0)
(99.55346431 -3.892916722 0)
(99.38944325 -3.821396416 0)
(99.24786486 -3.874441239 0)
(98.29998567 -3.825482859 0)
(98.40810767 -3.78076426 0)
(98.25938852 -3.698758035 0)
(98.15801001 -3.737552718 0)
(97.43309 -3.602821897 0)
(97.50032208 -3.574935382 0)
(97.37258514 -3.487501874 0)
(97.31081464 -3.510534102 0)
(96.79336166 -3.302013649 0)
(96.82523238 -3.290812019 0)
(96.71725571 -3.202129658 0)
(96.68978519 -3.209803203 0)
(96.35828705 -2.94771051 0)
(96.35780742 -2.944126748 0)
(96.26829089 -2.861210999 0)
(96.27142763 -2.852429248 0)
(96.08089139 -2.4977664 0)
(96.03250935 -2.53056606 0)
(95.89391877 -2.3702264 0)
(95.94921779 -2.331543997 0)
(95.96983151 -2.075346192 0)
(95.89097296 -2.126865317 0)
(95.77098566 -1.977167728 0)
(95.84865495 -1.915204865 0)
(95.6454971 -1.249527864 0)
(95.49629951 -1.384803886 0)
(95.65225503 -1.635170004 0)
(95.78052564 -1.700206056 0)
(95.5848663 -0.8321118163 0)
(95.42368878 -0.9990714381 0)
(95.54697411 -0.4153140672 0)
(95.37290343 -0.5961083479 0)
(95.34723472 -0.1991306556 0)
(100.5981031 -3.501402428 -2.147277686e-35)
(100.6215768 -3.435959801 0)
(100.5985687 -3.393298865 0)
(100.4636174 -3.436455503 0)
(99.33899404 -3.461647947 0)
(99.49699638 -3.412994594 0)
(99.3226569 -3.352431582 0)
(99.16997105 -3.395600955 0)
(98.14836652 -3.351698443 0)
(98.26959543 -3.314617631 0)
(98.11443974 -3.246018245 0)
(98.00058338 -3.278497635 0)
(97.20866565 -3.168982948 0)
(97.28992189 -3.144517261 0)
(97.1591108 -3.071266933 0)
(97.08423729 -3.091758897 0)
(96.51028054 -2.922954415 0)
(96.55557444 -2.911495443 0)
(96.44755725 -2.836395742 0)
(96.40766834 -2.844715907 0)
(96.0442308 -2.626932094 0)
(96.03167471 -2.62624908 0)
(95.95654807 -2.552480709 0)
(95.94850901 -2.546948839 0)
(95.72063829 -2.247963454 0)
(95.69325819 -2.272007993 0)
(95.55983026 -2.131289683 0)
(95.5970134 -2.100816824 0)
(95.59005087 -1.88164782 0)
(95.52843112 -1.922930905 0)
(95.41548217 -1.789448551 0)
(95.47805558 -1.737090552 0)
(95.27299977 -1.140689564 0)
(95.14421653 -1.259767317 0)
(95.2937285 -1.484661704 0)
(95.40734914 -1.546309494 0)
(95.21080492 -0.7620373111 0)
(95.06798327 -0.9128074985 0)
(95.17260495 -0.3810600645 0)
(95.01503335 -0.5454456195 0)
(94.98926731 -0.1825760349 0)
(100.5942463 -3.095951081 -3.331448937e-35)
(100.6292581 -3.044115988 1.623084207e-35)
(100.5911923 -3.005068417 -3.331448937e-35)
(100.4517843 -3.040864573 -3.331065733e-35)
(99.27487608 -3.052549283 0)
(99.44143034 -3.012936976 0)
(99.25933068 -2.961034031 0)
(99.09818896 -2.996386268 0)
(98.0201914 -2.955201844 0)
(98.15131564 -2.924463175 0)
(97.9909813 -2.86628563 0)
(97.8676117 -2.893364762 0)
(97.02300465 -2.800792621 0)
(97.11504942 -2.779779175 0)
(96.98132636 -2.717668712 0)
(96.8962237 -2.735406559 0)
(96.27518718 -2.594749685 0)
(96.33127158 -2.58404269 0)
(96.22242787 -2.519914383 0)
(96.17240752 -2.527871505 0)
(95.77957851 -2.3437749 0)
(95.75680509 -2.344453486 0)
(95.69284252 -2.279427246 0)
(95.67519678 -2.275677428 0)
(95.41021613 -2.020398868 0)
(95.40161521 -2.038755295 0)
(95.27081946 -1.915360404 0)
(95.29150501 -1.890357983 0)
(95.25649545 -1.700851284 0)
(95.2111095 -1.734871815 0)
(95.10267595 -1.61621896 0)
(95.15091593 -1.571120419 0)
(94.9376213 -1.037411159 0)
(94.82882609 -1.14318164 0)
(94.9745853 -1.344703037 0)
(95.07545433 -1.401592137 0)
(94.87103619 -0.6948410171 0)
(94.74617326 -0.8312205383 0)
(94.83080146 -0.3480174464 0)
(94.68924544 -0.4972845257 0)
(94.66234011 -0.1667805233 0)
(100.5781537 -2.754228973 2.879577925e-35)
(100.6222885 -2.71299482 0)
(100.5726958 -2.677317396 0)
(100.4300302 -2.707185415 0)
(99.21371485 -2.708747045 0)
(99.38688662 -2.676343274 0)
(99.19883032 -2.631472178 0)
(99.0310835 -2.660499853 0)
(97.90888144 -2.620819364 0)
(98.04769862 -2.595387897 0)
(97.88315718 -2.545544653 0)
(97.75233691 -2.568007027 0)
(96.8655713 -2.487260189 0)
(96.96609439 -2.469510341 0)
(96.82974096 -2.416349228 0)
(96.73650553 -2.431372579 0)
(96.07613884 -2.311192019 0)
(96.14099719 -2.301739982 0)
(96.0309626 -2.246596836 0)
(95.97259944 -2.253653417 0)
(95.55327456 -2.095625602 0)
(95.52182689 -2.096725229 0)
(95.46665305 -2.039788282 0)
(95.44074738 -2.036898649 0)
(95.14059264 -1.816164695 0)
(95.14856332 -1.831016903 0)
(95.01875824 -1.722729759 0)
(95.02459335 -1.701315831 0)
(94.96237415 -1.535624389 0)
(94.9319279 -1.564551483 0)
(94.82622862 -1.459228731 0)
(94.86117548 -1.419615226 0)
(94.63580891 -0.9417682405 0)
(94.54598983 -1.036683167 0)
(94.68989575 -1.217120848 0)
(94.77973553 -1.268579971 0)
(94.56309228 -0.6320942712 0)
(94.45526587 -0.7558249835 0)
(94.51971185 -0.3170158581 0)
(94.39327727 -0.452608261 0)
(94.36453576 -0.1520752307 0)
(100.5536106 -2.464622516 1.13855354e-35)
(100.6050355 -2.431789979 -3.424604782e-36)
(100.546467 -2.399276968 1.13855354e-35)
(100.401408 -2.424186285 1.138687018e-35)
(99.15507963 -2.417966194 0)
(99.33346627 -2.391449951 0)
(99.14077932 -2.352430827 0)
(98.96776829 -2.376228384 0)
(97.81022615 -2.337387242 0)
(97.9551726 -2.316455621 0)
(97.78718402 -2.273448762 0)
(97.65039283 -2.291929607 0)
(96.72934214 -2.219703038 0)
(96.83666702 -2.204963651 0)
(96.69799188 -2.159148732 0)
(96.59817212 -2.171594483 0)
(95.90476003 -2.066656146 0)
(95.9768427 -2.058696568 0)
(95.8654886 -2.011020892 0)
(95.80018067 -2.016895208 0)
(95.35722369 -1.879379782 0)
(95.31837056 -1.880325237 0)
(95.27023277 -1.830761455 0)
(95.23720741 -1.828141985 0)
(94.90446668 -1.634933233 0)
(94.9269992 -1.64778136 0)
(94.7971022 -1.552612623 0)
(94.78968218 -1.533484509 0)
(94.70179024 -1.386980536 0)
(94.68489698 -1.412387887 0)
(94.58066695 -1.318915345 0)
(94.60348179 -1.283443835 0)
(94.36393261 -0.8548416129 0)
(94.29171775 -0.9409539212 0)
(94.43512676 -1.102604881 0)
(94.51547658 -1.148400172 0)
(94.2841235 -0.5746910411 0)
(94.19207745 -0.6874093981 0)
(94.23694213 -0.2885458034 0)
(94.1244718 -0.411958011 0)
(94.09346041 -0.1386479971 0)
(100.5231443 -2.218351271 9.93039959e-36)
(100.5805153 -2.192262523 0)
(100.5148304 -2.162753808 0)
(100.3680012 -2.183411092 0)
(99.09869129 -2.171128059 0)
(99.28124099 -2.149510938 0)
(99.08492363 -2.115456925 0)
(98.90765058 -2.134852943 0)
(97.72139061 -2.096475537 0)
(97.87131702 -2.079401133 0)
(97.70047329 -2.042111273 0)
(97.55880825 -2.057131598 0)
(96.60946695 -1.99120826 0)
(96.72234328 -1.979210203 0)
(96.58163124 -1.939527159 0)
(96.47639899 -1.949575035 0)
(95.75502098 -1.856213456 0)
(95.83311666 -1.849828219 0)
(95.72042727 -1.80843184 0)
(95.649285 -1.812997379 0)
(95.18534593 -1.691854863 0)
(95.14014259 -1.692303579 0)
(95.09770263 -1.649395881 0)
(95.05852355 -1.646671341 0)
(94.69596125 -1.475580329 0)
(94.73127431 -1.487442851 0)
(94.60057517 -1.403656097 0)
(94.58137531 -1.385897829 0)
(94.46966856 -1.254903739 0)
(94.46495962 -1.277934053 0)
(94.36129568 -1.194922746 0)
(94.37315624 -1.16256369 0)
(94.11846527 -0.7770303408 0)
(94.06234363 -0.8560810417 0)
(94.20620348 -1.001128507 0)
(94.27840769 -1.041274502 0)
(94.03114437 -0.5230440752 0)
(93.95348304 -0.6262754628 0)
(93.97983416 -0.262852973 0)
(93.8800619 -0.3755696763 0)
(93.84653662 -0.1265869428 0)
(100.488578 -2.008824644 0)
(100.5509409 -1.988222535 0)
(100.4794564 -1.961560541 0)
(100.3313118 -1.97851123 0)
(99.04434912 -1.961420788 0)
(99.23024701 -1.943941251 0)
(99.0310608 -1.914151815 0)
(98.85029921 -1.929793592 0)
(97.64038626 -1.891645542 0)
(97.79441838 -1.877905577 0)
(97.621178 -1.845460774 0)
(97.47547931 -1.857455587 0)
(96.50249643 -1.79628477 0)
(96.61996348 -1.786764889 0)
(96.47745597 -1.752261466 0)
(96.36772249 -1.760105675 0)
(95.62249715 -1.675675169 0)
(95.70563986 -1.670855894 0)
(95.59164476 -1.634784408 0)
(95.51556708 -1.638008317 0)
(95.0330124 -1.53007837 0)
(94.98234723 -1.529836233 0)
(94.94454451 -1.492894877 0)
(94.90003729 -1.489831871 0)
(94.51036215 -1.336631653 0)
(94.55689597 -1.3482067 0)
(94.42492373 -1.274300996 0)
(94.39527914 -1.257251641 0)
(94.26170609 -1.138808697 0)
(94.26788867 -1.160303585 0)
(94.16413619 -1.086485248 0)
(94.16617794 -1.056433738 0)
(93.8960736 -0.7082990026 0)
(93.85447022 -0.7817663668 0)
(93.99949041 -0.9122507622 0)
(94.06474193 -0.9469140953 0)
(93.80117627 -0.4772414876 0)
(93.73642786 -0.5723884955 0)
(93.74563072 -0.2400129195 0)
(93.6572218 -0.3434634837 0)
(93.62106874 -0.1159087856 0)
(100.4511976 -1.830898538 0)
(100.5179054 -1.814823332 0)
(100.4415257 -1.790857214 0)
(100.2923886 -1.804528548 0)
(98.99184909 -1.783541777 0)
(99.18045221 -1.769612995 0)
(98.97898675 -1.743533019 0)
(98.79534621 -1.755922038 0)
(97.56572482 -1.717824601 0)
(97.72318532 -1.707003964 0)
(97.54790834 -1.678721058 0)
(97.39882976 -1.688040135 0)
(96.40585379 -1.630475048 0)
(96.5271635 -1.623204173 0)
(96.38306274 -1.59312951 0)
(96.26954418 -1.598945415 0)
(95.50381145 -1.521458653 0)
(95.59122819 -1.518163866 0)
(95.47597802 -1.486649917 0)
(95.39569335 -1.488537363 0)
(94.89658733 -1.3913476 0)
(94.8412025 -1.390298606 0)
(94.8071944 -1.358706819 0)
(94.75805626 -1.355149426 0)
(94.34378484 -1.216465027 0)
(94.40018252 -1.228242454 0)
(94.26661771 -1.162925551 0)
(94.22771898 -1.14609276 0)
(94.07418437 -1.037784219 0)
(94.0900686 -1.058377487 0)
(93.98574178 -0.9926127372 0)
(93.97902434 -0.9642242863 0)
(93.69365039 -0.6483460494 0)
(93.66502656 -0.7175184007 0)
(93.81174607 -0.8353031572 0)
(93.87108805 -0.864718475 0)
(93.59132753 -0.4371656031 0)
(93.53804518 -0.5255228762 0)
(93.53157865 -0.2199908825 0)
(93.45321923 -0.3155339969 0)
(93.41440955 -0.1065880124 0)
(100.411914 -1.680547258 0)
(100.4825536 -1.668279034 0)
(100.4018712 -1.646876461 0)
(100.2519643 -1.657589414 0)
(98.94098599 -1.633338456 0)
(99.13177996 -1.622515993 0)
(98.9284986 -1.599707202 0)
(98.74246882 -1.609224142 0)
(97.49625699 -1.571005011 0)
(97.65661413 -1.562783276 0)
(97.47958683 -1.538125332 0)
(97.32764313 -1.545039582 0)
(96.31756335 -1.490179046 0)
(96.44212779 -1.484972891 0)
(96.29660219 -1.45873241 0)
(96.17986569 -1.462661873 0)
(95.39633627 -1.390560389 0)
(95.48740661 -1.38874666 0)
(95.37095957 -1.361172101 0)
(95.28705893 -1.36173516 0)
(94.77317574 -1.273298022 0)
(94.7136881 -1.271362267 0)
(94.68280349 -1.244592526 0)
(94.62962023 -1.240424491 0)
(94.1930207 -1.113495532 0)
(94.2581043 -1.125833017 0)
(94.12272044 -1.06799336 0)
(94.07562106 -1.050993572 0)
(93.9039124 -0.950804092 0)
(93.92841952 -0.9709911205 0)
(93.82314064 -0.9122648155 0)
(93.80863787 -0.8850040426 0)
(93.50835794 -0.5967381454 0)
(93.49123675 -0.6627560504 0)
(93.64009319 -0.7695327921 0)
(93.69444989 -0.7939456636 0)
(93.3988779 -0.4025868801 0)
(93.35565969 -0.4853500659 0)
(93.33503771 -0.2026902622 0)
(93.26544681 -0.2916047181 0)
(93.22400254 -0.09857428647 0)
(100.3713404 -1.554580091 0)
(100.4456626 -1.545556764 0)
(100.361048 -1.526579097 0)
(100.2105143 -1.534601537 0)
(98.89153439 -1.507522497 0)
(99.0840946 -1.499457561 0)
(98.87936253 -1.479554935 0)
(98.69134925 -1.486501567 0)
(97.43105115 -1.447986056 0)
(97.59387507 -1.442106406 0)
(97.4153193 -1.420633797 0)
(97.26092699 -1.425361453 0)
(96.23605289 -1.37247235 0)
(96.36339742 -1.369176741 0)
(96.21657641 -1.34628325 0)
(96.09708231 -1.348446007 0)
(95.29796134 -1.280473311 0)
(95.39217525 -1.280096055 0)
(95.27457633 -1.255949496 0)
(95.18754952 -1.255204555 0)
(94.66038301 -1.173872759 0)
(94.59732006 -1.170992711 0)
(94.56898414 -1.148582161 0)
(94.51226688 -1.143712048 0)
(94.05537465 -1.026251838 0)
(94.12812622 -1.039420527 0)
(93.99074694 -0.9881112663 0)
(93.9363677 -0.9706278826 0)
(93.74811616 -0.8768389455 0)
(93.78027412 -0.8970239908 0)
(93.67373199 -0.8444333685 0)
(93.65232754 -0.8178461421 0)
(93.33754499 -0.5529829394 0)
(93.33055182 -0.6169010348 0)
(93.48194534 -0.7141952685 0)
(93.53213357 -0.7338511933 0)
(93.22122738 -0.3732190711 0)
(93.18677991 -0.4514975982 0)
(93.1534419 -0.1879801472 0)
(93.09143295 -0.2714705405 0)
(93.04740395 -0.09180752343 0)
(100.329909 -1.450399329 -1.87735855e-36)
(100.407784 -1.444188388 -2.276313355e-37)
(100.3194566 -1.427511005 -3.657255947e-36)
(100.1683667 -1.433060283 -1.877142604e-36)
(98.8432503 -1.403454313 0)
(99.03722779 -1.397877396 0)
(98.83133526 -1.380582932 0)
(98.64167471 -1.385191816 0)
(97.36931903 -1.346189932 0)
(97.53426076 -1.342454623 0)
(97.35435033 -1.323809933 0)
(97.19784739 -1.326518262 0)
(96.16002981 -1.274972498 0)
(96.2897712 -1.273468525 0)
(96.14175484 -1.253524622 0)
(96.01987643 -1.254012151 0)
(95.20694951 -1.189126671 0)
(95.30389265 -1.19015242 0)
(95.18517975 -1.169016557 0)
(95.09542445 -1.166974835 0)
(94.55617363 -1.09141453 0)
(94.48993487 -1.087539797 0)
(94.46373437 -1.069169548 0)
(94.40383188 -1.063520276 0)
(93.92854702 -0.9534623867 0)
(94.00815784 -0.9677531489 0)
(93.8685099 -0.9221923174 0)
(93.80768704 -0.9038395276 0)
(93.60434489 -0.814908809 0)
(93.64328827 -0.8354564433 0)
(93.53520558 -0.7881942688 0)
(93.50770913 -0.7618529062 0)
(93.17896138 -0.5165967459 0)
(93.18075243 -0.5793517639 0)
(93.3350004 -0.6685271677 0)
(93.38178913 -0.683592367 0)
(93.05613579 -0.3487707515 0)
(93.02912435 -0.423598014 0)
(92.98457087 -0.1757288341 0)
(92.92888644 -0.2549174028 0)
(92.88232447 -0.08622059148 0)
(100.2879176 -1.36593832 0)
(100.3692798 -1.362202724 0)
(100.277358 -1.34769644 0)
(100.1257337 -1.350960426 0)
(98.7958918 -1.3190337 0)
(98.990997 -1.315730074 0)
(98.78416918 -1.300793902 0)
(98.5931441 -1.303249356 0)
(97.3103861 -1.263561686 0)
(97.47715479 -1.261815058 0)
(97.29601848 -1.245699654 0)
(97.13768641 -1.24651863 0)
(96.08841805 -1.195758356 0)
(96.22023673 -1.195952054 0)
(96.07109179 -1.178622489 0)
(95.94714281 -1.177505731 0)
(95.12188827 -1.114819298 0)
(95.22120782 -1.117215239 0)
(95.10140546 -1.09872907 0)
(95.00926878 -1.095407825 0)
(94.45905929 -1.024529914 0)
(94.38998096 -1.019754924 0)
(94.36563467 -1.005059712 0)
(94.30287863 -0.9986097337 0)
(93.810364 -0.8941672195 0)
(93.89606144 -0.9096728449 0)
(93.75393225 -0.8692296428 0)
(93.68747109 -0.8495973851 0)
(93.47041557 -0.7641676307 0)
(93.51536012 -0.7853951815 0)
(93.40553808 -0.7427195387 0)
(93.37263038 -0.7163286534 0)
(93.02987441 -0.4870939256 0)
(93.03947055 -0.5498086368 0)
(93.19712171 -0.6320673499 0)
(93.24105062 -0.6429125947 0)
(92.9008291 -0.328943752 0)
(92.88055825 -0.4013145923 0)
(92.82559362 -0.1657806899 0)
(92.77561959 -0.2417830784 0)
(92.72659028 -0.08177257675 0)
(100.2455858 -1.299473287 0)
(100.3304234 -1.297935379 0)
(100.2349797 -1.285503323 0)
(100.0827835 -1.286646186 0)
(98.74921742 -1.25257459 0)
(98.94521982 -1.251379246 0)
(98.73762866 -1.23860564 0)
(98.54546858 -1.239043915 0)
(97.2536365 -1.198452454 0)
(97.42199245 -1.198583668 0)
(97.23972126 -1.184754287 0)
(97.07979212 -1.183772312 0)
(96.02025762 -1.133264061 0)
(96.15388799 -1.135095545 0)
(96.00365074 -1.120101521 0)
(95.87789357 -1.117419207 0)
(95.04151225 -1.056090861 0)
(95.14290161 -1.059850133 0)
(95.02200444 -1.043701663 0)
(94.92779412 -1.039085605 0)
(94.36757692 -0.9717208664 0)
(94.29610387 -0.9659813512 0)
(94.27301319 -0.9545566372 0)
(94.20794028 -0.9471431853 0)
(93.6990036 -0.8471985991 0)
(93.78992878 -0.8638645491 0)
(93.64550062 -0.8279581759 0)
(93.57394635 -0.8069069557 0)
(93.34434716 -0.7236853279 0)
(93.39455133 -0.7459397314 0)
(93.28253756 -0.7071849072 0)
(93.24512133 -0.6801391775 0)
(92.89032687 -0.4641609638 0)
(92.90573012 -0.5269564214 0)
(93.06645225 -0.6035604324 0)
(93.10864898 -0.6094976653 0)
(92.75539412 -0.3135664148 0)
(92.7390899 -0.3843060804 0)
(92.67670257 -0.1581024144 0)
(92.62958485 -0.2318217604 0)
(92.57806904 -0.07835854244 0)
(100.2031787 -1.24969988 -7.400864786e-36)
(100.2915372 -1.250161715 0)
(100.1925903 -1.239756585 -6.159025427e-36)
(100.039727 -1.238891444 0)
(98.70300663 -1.202790007 0)
(98.89973426 -1.203590428 0)
(98.69149739 -1.192831909 0)
(98.49838097 -1.191339736 0)
(97.19850004 -1.149588256 0)
(97.36824962 -1.151530177 0)
(97.18490153 -1.139790973 0)
(97.02356323 -1.137055944 0)
(95.95467366 -1.086269889 0)
(96.08990007 -1.089714404 0)
(95.9385828 -1.076828402 0)
(95.81122976 -1.072587322 0)
(94.96462714 -1.011822644 0)
(95.06784117 -1.016971687 0)
(94.94582577 -1.002914379 0)
(94.84977665 -0.9969591026 0)
(94.28005573 -0.9321427065 0)
(94.20643794 -0.9251684256 0)
(94.18425546 -0.9169497214 0)
(94.11697486 -0.9085317024 0)
(93.59315758 -0.8114802599 0)
(93.68873972 -0.8298640383 0)
(93.54182874 -0.7977045727 0)