/*--------------------------------*- C++ -*----------------------------------*\
| =========                 |                                                 |
| \\      /  F ield         | OpenFOAM: The Open Source CFD Toolbox           |
|  \\    /   O peration     | Version:  v2012                                 |
|   \\  /    A nd           | Website:  www.openfoam.com                      |
|    \\/     M anipulation  |                                                 |
\*---------------------------------------------------------------------------*/
FoamFile
{
    version     2.0;
    format      ascii;
    class       volScalarField;
    location    "2.14";
    object      nut;
}
// * * * * * * * * * * * * * * * * * * * * * * * * * * * * * * * * * * * * * //

dimensions      [0 2 -1 0 0 0 0];


internalField   nonuniform List<scalar> 
3019
(
0.06992496599
0.2092133874
0.2791831512
0.3517107673
0.4346742411
0.5551399437
0.7539827407
0.9930610975
1.15772716
1.151842303
1.149041683
1.14822572
0.1333346608
0.3103263393
0.3891143171
0.457588918
0.5332362192
0.6491660562
0.8317728968
1.044913001
1.158931086
1.152616505
1.149490841
1.148547936
0.1852242192
0.4606968157
0.5986787338
0.6305153248
0.6852555599
0.7850592588
0.9495083673
1.134712228
1.160055751
1.153421331
1.15006527
1.149049691
0.198033558
0.4644439237
0.7160031619
0.9053208378
0.8988562053
0.9652178443
1.108994674
1.169064068
1.161049855
1.154224519
1.150717315
1.149647285
0.1868955908
0.4539449762
0.710110268
0.9205725272
1.059927302
1.132417485
1.165619228
1.170039841
1.161833776
1.154927984
1.151329913
1.150234179
0.1733928147
0.4425217907
0.7091729901
0.9259936699
1.064560185
1.134876042
1.166697625
1.170609994
1.162387714
1.155505099
1.151908138
1.150805584
0.1746169798
0.4438412208
0.717229644
0.9330790992
1.067743097
1.136315339
1.167195963
1.170813126
1.162684916
1.155890984
1.15233691
1.151245074
0.1897231629
0.4549346895
0.7257207756
0.938547253
1.069934393
1.137059649
1.167255434
1.170721761
1.162831107
1.156196596
1.1527094
1.151629508
0.2038091861
0.4646967149
0.7314465889
0.9425651421
1.071409653
1.137329675
1.166993562
1.170409529
1.162781547
1.156325588
1.152917555
1.151852697
0.2159916969
0.4733014296
0.7355990852
0.9450747032
1.072290223
1.137261521
1.166505882
1.169941172
1.16267051
1.156428423
1.153099028
1.15204053
0.2267421312
0.4809566496
0.7388949962
0.9462315674
1.07258992
1.136922973
1.165859045
1.169368418
1.162421965
1.156377654
1.153122234
1.152068438
0.2363338029
0.4878086531
0.741627849
0.9464334582
1.072329714
1.13634218
1.165094667
1.168727988
1.162181733
1.156354389
1.15316372
1.152104569
0.245019544
0.4939660658
0.7439250157
0.9460529165
1.071596408
1.135543022
1.164240939
1.168044896
1.161827383
1.156183998
1.153049861
1.151984594
0.2529998853
0.4995261906
0.7458686045
0.945332911
1.070509378
1.134560126
1.163320906
1.167335871
1.161529803
1.156088054
1.153001136
1.151921316
0.2604116387
0.5046108522
0.7475354526
0.9444166598
1.069179259
1.133434348
1.162354993
1.166613054
1.161116517
1.155837346
1.152791961
1.151699111
0.2673613933
0.5093379945
0.7490035356
0.9433930076
1.067692729
1.132204546
1.161360339
1.165885013
1.160800469
1.155703283
1.152691628
1.151579075
0.2739442347
0.5138217401
0.7503376973
0.9423211508
1.0661136
1.130903781
1.160350667
1.16515794
1.160354254
1.155401543
1.152421832
1.151293492
0.2802392769
0.5181110981
0.7515800101
0.9412386695
1.064487362
1.129558568
1.159336482
1.164436916
1.160038969
1.155246689
1.15229197
1.151141933
0.286289013
0.5222285888
0.7527549701
0.9401703533
1.062847531
1.128190325
1.158325743
1.163724191
1.159582541
1.154923771
1.151995697
1.150829961
0.2921114394
0.5261907288
0.7538889118
0.9391404084
1.061221392
1.126816564
1.157324332
1.163024316
1.159264891
1.154742643
1.151835176
1.150647412
0.297741164
0.5300392737
0.7550221619
0.9381758334
1.059631496
1.125450861
1.15633648
1.162334381
1.158840402
1.154445359
1.151559796
1.150358326
0.3032429041
0.533838712
0.7561985609
0.9373008241
1.058096273
1.12410634
1.155368029
1.161664483
1.158469818
1.154196616
1.151332279
1.150108734
0.3086734254
0.5376306842
0.7574466318
0.9365313882
1.056630113
1.122793339
1.15443554
1.161014442
1.158183047
1.154003337
1.151153016
1.149918802
0.3140372255
0.5414053642
0.7587579394
0.9358681416
1.055239835
1.121516454
1.153604313
1.160452681
1.157693945
1.153665356
1.150842548
1.149583538
0.05196850306
0.06552745962
0.1838640235
0.09781418477
0.0534769696
0.1246266331
0.2503507845
0.1870876112
0.1367520846
0.1039264636
0.1456194746
0.08214834153
0.08008410166
0.09477558319
0.1617230542
0.1492783172
0.0353601489
0.06358809242
0.03217254395
0.04265675397
0.1090174696
0.06806156177
0.1791571296
0.3871234196
0.2823699864
0.1225653464
0.1138974801
0.04610188861
0.2015485294
0.1681045651
0.09832263168
0.1125588666
0.007027060841
0.02184171209
0.03759837045
0.08772362524
0.01088409284
0.01378052331
0.04244192212
0.0108632785
0.01056071168
0.01397101709
0.01086221857
0.01105883168
0.02309318765
0.01568517076
0.0330099487
0.02598178478
0.01083942666
0.007239095706
0.02454169267
0.01038002355
0.01073472609
0.1911640721
0.24371942
0.0447505106
0.01535009465
0.02230206274
0.01101458206
0.01698231432
0.03267864448
0.06566614014
0.0107815714
0.00753319257
0.007637899087
0.01096120825
0.01077829158
0.04183207793
0.03540096795
0.01037410204
0.01040110525
0.01038932738
0.01049565493
0.007217244116
0.01057105358
0.01063363645
0.01242676865
0.01095730765
0.01079827571
0.01081117908
0.01062869372
0.01157563301
0.0112937344
0.01097706321
0.01089711524
0.01111353849
0.01280443751
0.0120337404
0.01053417262
0.01099587378
0.01085696493
0.01297887805
0.01176003191
0.01036355796
0.260759686
0.3142501383
0.3328553043
0.3921424583
0.4150088002
0.495463369
0.08297517738
0.1229473528
0.1229283007
0.2756985473
0.3376118287
0.2615697719
0.3555316606
0.4076358957
0.3326016112
0.4243543688
0.4838833506
0.4120452838
0.5053829624
0.5795516365
0.5154636209
0.147381025
0.2697986292
0.2171138504
0.4562636924
0.5241336738
0.372932719
0.5343105288
0.5667664763
0.4411958367
0.5796309003
0.6228065811
0.5116311876
0.6415325577
0.7071580751
0.6075813454
0.1230409634
0.1100124028
0.1977704321
0.3991546684
0.3923703636
0.4653774776
0.6572964218
0.5938180152
0.7169147936
0.8274692824
0.6207029337
0.8206808566
0.8301137123
0.6682806343
0.8393192754
0.8889955159
0.7493248889
0.1179766266
0.1240057978
0.1907626005
0.3915831782
0.3987738696
0.4573159717
0.6507487167
0.6562586971
0.711445292
0.873903648
0.8737681682
0.9197654599
1.030357343
0.8933009212
1.058484148
1.118377264
0.944415923
0.1045081311
0.1143152716
0.1757214964
0.3779263117
0.3880335467
0.4444779363
0.6453916001
0.6486865499
0.7085409024
0.8769390216
0.8742311615
0.9241752805
1.036095966
1.031830383
1.063560893
1.121521435
1.11929513
0.1034003682
0.1027721183
0.1725531145
0.3749245144
0.3757996265
0.4421901276
0.6493291072
0.6454643401
0.7145759603
0.8847727254
0.8785320591
0.9314733048
1.040393065
1.037311833
1.067054661
1.123492638
1.122107796
0.117925381
0.1058646001
0.1858250515
0.3851072483
0.3763942056
0.4522712987
0.6586554322
0.6519198778
0.7239050899
0.8917299145
0.8866846409
0.9373160952
1.043466765
1.041260027
1.069461819
1.124644515
1.123845972
0.1341659302
0.1222020192
0.2004920633
0.3959192536
0.3879596541
0.4623766409
0.6654809235
0.66054601
0.7302041501
0.8968571683
0.8931879981
0.9417005813
1.045657182
1.044088714
1.071098862
1.125227534
1.124835785
0.1483299421
0.1378873789
0.2130958361
0.4054376949
0.3984050691
0.4712458972
0.6709327193
0.6669434966
0.7346598564
0.9001033279
0.8978419976
0.9445864474
1.047106659
1.046088003
1.072124314
1.125405721
1.125305885
0.1609173883
0.1516018056
0.2241735894
0.4139690553
0.4076574946
0.4791237716
0.6755500735
0.6721554766
0.7381310718
0.9017814791
0.9006493625
0.9460488496
1.047818479
1.047354844
1.072569459
1.125259537
1.125398427
0.1719475066
0.1638089305
0.2340313888
0.4216723291
0.4159687698
0.4861643481
0.6795379197
0.6766024846
0.7409893903
0.9024469585
0.9020232662
0.9464500772
1.047817538
1.047882181
1.07244352
1.124816899
1.125176577
0.1817493694
0.1744940293
0.2429210018
0.4286829115
0.4234859015
0.4924876203
0.6829997824
0.6804506578
0.7433869536
0.9025285421
0.9025107106
0.946187339
1.047227405
1.047719309
1.071817665
1.124100518
1.124662812
0.1907189277
0.1840625915
0.2510636337
0.4351146187
0.4303449737
0.498185938
0.6860151537
0.6837937027
0.7454119135
0.9022709674
0.9024902147
0.945535776
1.046212496
1.047007713
1.070807908
1.123150271
1.123883572
0.1990206938
0.1928550027
0.2586064865
0.4410355054
0.4366402023
0.5033777868
0.6886664212
0.6867097372
0.7471404649
0.9018086822
0.9021715596
0.9446587375
1.044916785
1.045910541
1.069529457
1.122016752
1.122882604
0.2067362659
0.2010036613
0.2656625662
0.4465489841
0.4424494891
0.5081831789
0.691044897
0.6892843044
0.7486513666
0.9012255762
0.9016723889
0.9436554649
1.043447058
1.04456271
1.068075267
1.120749258
1.121711164
0.213949166
0.2085843013
0.2723288608
0.4517385354
0.4478755123
0.5127204513
0.693230717
0.6916079897
0.7500141426
0.9005806106
0.9010690612
0.942591363
1.041878443
1.04306223
1.066514371
1.119389681
1.120416995
0.2207533526
0.2156863586
0.2786907054
0.4566823313
0.4529961417
0.5170557852
0.6952787878
0.6937552408
0.7512767132
0.8999128776
0.9004155094
0.9415089337
1.040262736
1.041477793
1.064896417
1.117971617
1.119039964
0.2272204361
0.2223994245
0.284800638
0.4614284161
0.4578880295
0.5212148119
0.6972206078
0.6957744156
0.7524664805
0.8992463021
0.8997461497
0.9404349418
1.038635934
1.039856362
1.063257238
1.116521599
1.11761162
0.2334008917
0.2287883152
0.2906803658
0.4659963251
0.462587164
0.5252139155
0.6990817605
0.6976933422
0.7536074276
0.8986030157
0.899083103
0.9393929306
1.037026722
1.038231436
1.061625392
1.115061339
1.11615716
0.2393510623
0.2348994473
0.2963597105
0.4704233283
0.4671148999
0.5290852165
0.7009014128
0.6995396972
0.7547365884
0.8980112814
0.8984498494
0.9384095071
1.035459775
1.036630636
1.060024551
1.113607941
1.114697154
0.2451569266
0.2407913262
0.3019051445
0.4747731629
0.471513825
0.5328954574
0.7027309989
0.701356795
0.7558991007
0.8975002228
0.8978757384
0.9375103053
1.033955633
1.035077654
1.058474176
1.112176446
1.113247836
0.2509145886
0.2465452205
0.3074011052
0.4791173224
0.4758479698
0.5367052843
0.7046150009
0.7031950501
0.7571325066
0.8970918441
0.8973884241
0.9367144697
1.032530259
1.033591824
1.056989894
1.110779941
1.111823996
0.2567016672
0.2522275458
0.3129240982
0.4835173782
0.4801647561
0.5405756801
0.7065935531
0.7050876112
0.7584731111
0.8968084038
0.8970057736
0.9360414994
1.031200357
1.032187599
1.055588193
1.109432391
1.110437722
0.2629337731
0.2578484643
0.3188735365
0.4882957283
0.4844498623
0.5447972422
0.7088320956
0.7070244566
0.7600419879
0.8966722844
0.8967258314
0.9354926489
1.029934937
1.030870925
1.054235842
1.108108196
1.109094604
0.04920808179
0.04017996918
0.04214927542
0.08507181856
0.08068880419
0.06077837913
0.1676171012
0.1479597308
0.1564848755
0.09029090929
0.03725343498
0.0251256951
0.03319818738
0.05478625996
0.1534163541
0.1423150705
0.1087689801
0.2171683599
0.1833019666
0.2212440002
0.1604396871
0.1757066579
0.2098657261
0.1168394805
0.1021354658
0.1425129184
0.1310865142
0.1281193071
0.1276388477
0.1417094266
0.02729913416
0.03811602389
0.06523823193
0.067218957
0.08417507886
0.0762174504
0.05746445984
0.06161784615
0.1281136955
0.1259116669
0.08720125057
0.1569347585
0.1408614096
0.145127296
0.1333034808
0.1362484978
0.1529602202
0.02441449601
0.02726346465
0.03762930546
0.01489222816
0.01383827152
0.01099609437
0.05954043615
0.03567280173
0.04107185368
0.02975502409
0.01877569367
0.02144275481
0.06697030352
0.06217030441
0.03528613072
0.1046406902
0.08302227519
0.08751421669
0.07825290494
0.09976445615
0.04941694018
0.05384899784
0.07215392733
0.01833481801
0.01656061422
0.04404887346
0.04328333288
0.2558221637
0.2484823772
0.1543460213
0.3806779132
0.3176348838
0.3239480079
0.2445032817
0.3033568893
0.3290231167
0.1224538989
0.1013051428
0.105559143
0.09223611852
0.09664695382
0.1180031574
0.05613262185
0.07602283881
0.07140420802
0.1873657552
0.1662738904
0.1777941616
0.1502447883
0.157397258
0.1761150888
0.1034117212
0.1359178745
0.1300267079
0.1076565123
0.07015829152
0.07365915658
0.01921185275
0.01177130371
0.01307332905
0.05054797064
0.04848653896
0.0531890469
0.05169293833
0.03563114476
0.08570168735
0.06945337003
0.07045979703
0.01143385621
0.01697224569
0.01481273741
0.02221777096
0.01955430835
0.01254798444
0.04024897214
0.03008855416
0.03273190782
0.02046904845
0.0133987118
0.01475606215
0.01139807365
0.01212259796
0.01792076398
0.03102003225
0.02053594182
0.02280730706
0.01656666961
0.01844978324
0.02819023748
0.01481402553
0.01647280542
0.02694681029
0.2117357067
0.1986285339
0.1786366568
0.2285563172
0.2113785551
0.2254103914
0.03518079835
0.03753912874
0.04721205106
0.01704683629
0.02725544422
0.02482580285
0.0325164621
0.0301412687
0.0196032507
0.04336952038
0.04124275285
0.02993962689
0.06109827621
0.0523835373
0.05247086939
0.04874047542
0.05949610542
0.02277011591
0.02067735945
0.03945926223
0.03057218123
0.03282976499
0.02554702018
0.0280691813
0.03721248464
0.5258338349
0.6214764802
0.7253014382
0.8351152498
0.9598021372
1.107212296
0.07441028128
0.09375372908
0.08956902547
0.2262737942
0.2462830366
0.2270778741
0.3004440324
0.318893137
0.2968154615
0.3729252162
0.392421441
0.3721199496
0.4560277345
0.480877904
0.459570507
0.6105665432
0.7038082254
0.6569298703
0.7884282588
0.8903871407
0.8616052873
0.9984921916
1.130978884
1.100703467
0.1380322914
0.1773048349
0.1692861891
0.3544601665
0.373476592
0.3294943262
0.4299228768
0.4459229486
0.4065393605
0.4932742992
0.5112046433
0.4757987234
0.5667587075
0.58817482
0.5563892239
0.7311732587
0.8127988988
0.7552306313
0.8858910112
0.976480561
0.9300513446
1.06359219
1.165097423
1.140085807
0.1911755728
0.2673019064
0.2620406866
0.4636917636
0.5306751275
0.5285255108
0.6758162795
0.6741227108
0.6051790194
0.6877052994
0.6958441702
0.6418436085
0.732071363
0.7489038749
0.7037671094
0.8973545198
0.9556926141
0.8795741394
1.022674544
1.095956756
1.032507072
1.167899252
1.166282743
1.165735531
0.1965742984
0.268843922
0.2709133737
0.4627332138
0.5283729893
0.5302040994
0.7146881729
0.7715775854
0.7725713721
0.9187178991
0.9592323647
0.8947592089
0.9637256792
0.9699096229
0.9079412783
1.111608504
1.14580491
1.042809949
1.164754297
1.16909693
1.168348215
1.169588263
1.167248426
1.166822766
0.1827827741
0.2534906104
0.2577635445
0.4505413401
0.5174729457
0.5203846279
0.7091003872
0.7682036045
0.7686586414
0.9215484747
0.9634689718
0.962265079
1.061255223
1.08472192
1.083602915
1.134375666
1.157142054
1.156292325
1.166241268
1.170195081
1.169736553
1.170390308
1.167915068
1.167646024
0.171945361
0.2420851993
0.2437112827
0.4414639688
0.5103711033
0.5110619364
0.7103279494
0.7711873068
0.7696908154
0.9279311005
0.9699364445
0.9682978266
1.065470474
1.088210314
1.087466617
1.136033731
1.158225265
1.157775654
1.167009985
1.170718293
1.170513081
1.170764632
1.168268569
1.168150913
0.1775906646
0.2463093982
0.2437128381
0.4466308345
0.5160298868
0.5133797072
0.7196734768
0.78078469
0.7784656076
0.9345851814
0.9754487153
0.9742102576
1.068370644
1.090524293
1.090032984
1.136926483
1.158684714
1.15851992
1.167273042
1.170823429
1.170813567
1.17080807
1.16835203
1.16836725
0.1934612713
0.2599240942
0.2567054541
0.457502874
0.5257558364
0.5234656026
0.7273624885
0.7882249977
0.7866365863
0.9396899945
0.9796257144
0.9786910345
1.070363277
1.092030395
1.091715324
1.137298169
1.158706484
1.158740985
1.167158195
1.170619256
1.170752121
1.170595334
1.16822005
1.168337824
0.2070115858
0.2717268193
0.2689168881
0.4669473169
0.5341685976
0.5321675739
0.732595074
0.7930437766
0.7920382118
0.9433346043
0.9826458328
0.9820006042
1.071684206
1.092951423
1.092768379
1.13730485
1.158421504
1.158595965
1.166773172
1.170194234
1.17042828
1.170196304
1.167924717
1.168119888
0.2188021927
0.2822093151
0.2796921633
0.4752992019
0.5415711541
0.5398054064
0.7364878338
0.7961513188
0.795484659
0.9454776177
0.9844723032
0.9841276061
1.072420026
1.093391094
1.093324459
1.137029534
1.157916325
1.158192624
1.166199353
1.169615423
1.169919568
1.169669129
1.167519966
1.167764015
0.2292401674
0.2916664028
0.2893883671
0.482740812
0.5481229491
0.5465574332
0.7396253477
0.7983268261
0.797843842
0.946355454
0.9851804337
0.9850952475
1.072575265
1.093370705
1.093418459
1.136506983
1.157240706
1.157597738
1.165489627
1.168930395
1.169283039
1.169057977
1.167039929
1.167318381
0.2385814775
0.3002635021
0.2981862225
0.4894116458
0.5539478053
0.5525536697
0.742240161
0.7999568097
0.799589044
0.9463816749
0.9850409716
0.9851379574
1.072186444
1.092911309
1.09306449
1.135759572
1.15642446
1.156848568
1.164677471
1.168171481
1.16855796
1.168392757
1.166516256
1.16681161
0.2470763272
0.3081135555
0.3062156882
0.4954084237
0.5591447575
0.5578995596
0.7444418404
0.8012130206
0.8009281169
0.9458982837
0.9843511136
0.9845616678
1.071353366
1.092076568
1.092315768
1.134819023
1.155493386
1.155971644
1.16378788
1.167361681
1.167771273
1.167694377
1.165960949
1.166270395
0.2549029684
0.3153269928
0.3135756768
0.5008379865
0.5638058672
0.5626847627
0.746308827
0.8021910788
0.8019683901
0.9451185468
0.9833289557
0.9836069229
1.070196044
1.090953763
1.091256655
1.133725357
1.154473871
1.154993035
1.162842581
1.166518739
1.166943062
1.166976415
1.165392269
1.165703902
0.2621900043
0.3220346531
0.3203982434
0.5058227875
0.5680439493
0.5670175644
0.7479189056
0.8029657567
0.8027872628
0.9441685222
0.9821140773
0.9824303444
1.068819673
1.089626827
1.089973667
1.132518441
1.153390881
1.153938843
1.161860439
1.165656676
1.166089034
1.166249878
1.164811459
1.16512853
0.2690393725
0.328356848
0.3268066424
0.5104797661
0.5719669197
0.571011216
0.7493482286
0.8036041472
0.8034540923
0.9431281925
0.9807958508
0.9811314391
1.067304812
1.08816425
1.088539492
1.131232837
1.152265741
1.152832295
1.160856985
1.164786432
1.165221675
1.165521166
1.164231726
1.16454381
0.275544327
0.3343851821
0.33290126
0.5149120977
0.5756548373
0.5747507752
0.7506564131
0.8041584681
0.8040256619
0.9420508631
0.9794331379
0.9797756573
1.065710225
1.086618349
1.08701034
1.129896707
1.151115677
1.151692607
1.159844405
1.163916355
1.16435023
1.164797244
1.163650748
1.163963593
0.2817762188
0.3401820392
0.3387517625
0.5191569798
0.5791679371
0.5783039493
0.7518799125
0.8046607173
0.8045388351
0.9409697806
0.9780634132
0.9784049953
1.06407773
1.085027892
1.085427977
1.128532543
1.149954133
1.150534909
1.158832219
1.163052994
1.163482092
1.164080485
1.163076795
1.163381329
0.2877688433
0.345776203
0.3443946978
0.5232342378
0.5825354342
0.5817059756
0.7530416046
0.8051319211
0.8050157145
0.9399086631
0.976713584
0.9770478034
1.062438994
1.083423009
1.083824177
1.127158837
1.148791849
1.149370676
1.157828059
1.162201567
1.16262205
1.163377285
1.162512578
1.162811736
0.2935424083
0.3511851844
0.3498457503
0.5271620995
0.5857986168
0.5849896549
0.7541711306
0.8055997796
0.8054810877
0.9388925155
0.975409226
0.9757296379
1.060819986
1.081828157
1.082224781
1.125789919
1.147639335
1.148209553
1.15683812
1.161366556
1.161774521
1.162686896
1.161952452
1.162242941
0.299144458
0.3564515744
0.3551363766
0.5309946481
0.5890053609
0.5882053406
0.7553115122
0.8061026523
0.8059714186
0.9379483438
0.9741753843
0.9744760036
1.059242186
1.080263228
1.080650698
1.124438917
1.146505374
1.147061051
1.155867016
1.160550684
1.160940923
1.162017529
1.161422919
1.161691492
0.3046549516
0.3616466347
0.3603249205
0.5347974087
0.5922072547
0.5914002568
0.7565055256
0.806676847
0.8065244753
0.9370988209
0.973032489
0.9733087458
1.057723087
1.078744902
1.079119318
1.123116843
1.145392439
1.145931081
1.154914979
1.159752866
1.160126692
1.161360211
1.160874713
1.161142184
0.3101549865
0.3668427886
0.3654597583
0.5386287838
0.5954521307
0.5946101916
0.7577863673
0.8073499694
0.8071644728
0.9363609659
0.9719962146
0.9722428341
1.056277422
1.077287593
1.07764476
1.121834665
1.144282844
1.144833717
1.153956619
1.158948208
1.159343365
1.160701482
1.160376137
1.160620101
0.3157244915
0.3721196736
0.3705355949
0.5425653478
0.5988048297
0.5978194879
0.7592094289
0.8081740745
0.8078837463
0.9357645914
0.9710925602
0.9712810551
1.054927129
1.075912896
1.076234117
1.120575482
1.14312896
1.143837003
1.152976924
1.158134577
1.158650928
1.160036452
1.159817529
1.160160412
0.176200597
0.1682502418
0.1729898148
0.09636310146
0.07312480708
0.08007072365
0.04542268421
0.04579515446
0.05789072247
0.1830117869
0.184553938
0.1940341294
0.1360708445
0.1421286266
0.110960833
0.1077369091
0.09357000589
0.05318033087
0.05037680422
0.04049985975
0.03211907176
0.03045085053
0.04648454255
0.0592169645
0.05479117437
0.09920597731
0.1116579528
0.1117246762
0.03608353691
0.03453799164
0.2780962323
0.2618605891
0.245174374
0.2964428952
0.2790442233
0.2959300834
0.3520272457
0.3345281159
0.3149497669
0.3758590535
0.3545497181
0.3711488609
0.4398884601
0.4236220025
0.3987462137
0.4803849062
0.4505968834
0.4667760811
0.1019196785
0.09808513981
0.07887293325
0.1237351429
0.1171586329
0.1149280489
0.1100645529
0.1138915029
0.1253087873
0.295226654
0.2686266969
0.2483973443
0.3076519577
0.2853607015
0.3148173545
0.2417732279
0.2611211621
0.2822496321
0.3728754778
0.343108444
0.3256997196
0.3791128651
0.3608919895
0.3906915893
0.3143217476
0.3370103223
0.3549384009
0.4437115237
0.4179016853
0.3981159064
0.4564125072
0.4375969678
0.4640106976
0.3911210679
0.412042699
0.4330832086
0.5286890043
0.5031495541
0.4778434584
0.5558711944
0.5294111692
0.5542418231
0.4862228754
0.5066726597
0.5326695134
0.1876693978
0.1822901402
0.1443020327
0.1938448593
0.2149811614
0.2397120556
0.4954940296
0.4282566058
0.4112987205
0.4653301392
0.4485339063
0.5114570179
0.3511142079
0.395355473
0.415152619
0.5451100733
0.4920544806
0.4781376368
0.5187460961
0.5061968405
0.5560645096
0.4242473086
0.4620215079
0.4770080966
0.5934258892
0.5494375315
0.5333632102
0.5828765493
0.5654485549
0.6072956212
0.4935441343
0.5282590014
0.5463538405
0.6621987417
0.6242314484
0.6026427189
0.6714142135
0.6461643584
0.6832513602
0.5816200028
0.6124640857
0.636333674
0.1203222596
0.115442624
0.2716613904
0.270578275
0.1955785257
0.3984220801
0.3364482562
0.337272799
0.329637367
0.3337714535
0.3960930121
0.5313765095
0.5315626688
0.4651753253
0.65773617
0.596156447
0.5956573333
0.5876107078
0.5956679358
0.6572093355
0.7731692296
0.7579339174
0.7172201308
0.7477066614
0.7501976367
0.8254015221
0.6128873539
0.6759279442
0.6807894201
0.8199405881
0.7549730013
0.7499611687
0.7714421504
0.7620714602
0.8234467287
0.6541142991
0.7055895284
0.7173912039
0.8506542716
0.7976149008
0.7836025518
0.8401815953
0.8152151652
0.8672727015
0.7233430529
0.7680574549
0.7918655596
0.121164355
0.1233341964
0.2618595202
0.2656547521
0.1941156735
0.3947013617
0.3316806498
0.3280204832
0.3366058112
0.3346439419
0.3971104854
0.5232153249
0.5259644613
0.4602765714
0.6528213653
0.590400849
0.5879810832
0.5945000625
0.5926901085
0.6547050142
0.7694758718
0.7705043674
0.7131076689
0.8738347208
0.8242217372
0.8237362448
0.8252071812
0.8247655789
0.8738459149
0.9611703651
0.9601419215
0.9191876605
1.02893995
0.9967373533
0.9979782774
0.8910564334
0.9703769855
0.9640527837
1.082363562
1.038840491
1.038914104
1.062688687
1.046215547
1.102160906
0.9224769419
0.9821858274
0.9991586777
0.1072940473
0.110562811
0.2461923762
0.2496643556
0.1790682612
0.3809609682
0.3160912048
0.3127783546
0.3240075326
0.319815071
0.3843322841
0.5125837465
0.5146734044
0.4473344979
0.645984396
0.5813128816
0.5799697106
0.5855094631
0.583115459
0.6471198833
0.7687234358
0.7681664852
0.708535818
0.8757540411
0.8241279152
0.8250206226
0.8235085964
0.823600858
0.8748545324
0.9665552961
0.9648965821
0.922706007
1.034770298
1.002281974
1.003861421
0.9992770457
1.000722237
1.033329767
1.086643213
1.085731561
1.062462776
1.12086083
1.105025601
1.105792752
1.103219184
1.104171225
1.120122658
0.1021349502
0.1017796429
0.2421306174
0.2416237902
0.1717462062
0.3742703854
0.3085678983
0.3090534222
0.3104457747
0.3089746997
0.3745422872
0.5114808093
0.5105671749
0.4413826784
0.6473881131
0.5799184918
0.5811778062
0.5792265463
0.5792540936
0.6461462314
0.7759683006
0.7733554708
0.7120505032
0.8827399904
0.8304939357
0.832852249
0.8263167789
0.8281430273
0.8805900429
0.9728837178
0.9714620225
0.9297600634
1.039451375
1.007947278
1.009111822
1.005331663
1.006690152
1.038426846
1.089487121
1.088881596
1.066299293
1.123088032
1.107646567
1.108137639
1.106480319
1.107096162
1.122628951
0.1135042159
0.1090710475
0.2533600073
0.2498782226
0.1817502205
0.382146759
0.3160346008
0.3191064741
0.3104144981
0.3128907241
0.379095462
0.5210880587
0.5186134355
0.4495027921
0.6566061653
0.5882610879
0.5904582071
0.5834500073
0.5859288584
0.6543684649
0.784870297
0.7829202933
0.721894347
0.890160217
0.8390953475
0.8408916593
0.8350744579
0.8371553154
0.8884784036
0.9776848863
0.9766053327
0.9359958618
1.0427912
1.012122235
1.012985376
1.010191349
1.011192564
1.042057085
1.091361518
1.09096579
1.068941854
1.124418063
1.109302975
1.109603201
1.108574326
1.108961218
1.124153282
0.1303173828
0.1263294496
0.2660195356
0.2630253561
0.1970446782
0.393356276
0.3278074713
0.3305388646
0.3220943473
0.324993914
0.390704978
0.530101373
0.5279658505
0.4599802325
0.6639381137
0.5964276569
0.5982546269
0.5925410392
0.594526188
0.6622984943
0.7909109911
0.7896453125
0.7288491782
0.8957533372
0.8453892154
0.8465932455
0.8425404015
0.8440392297
0.89452927
0.9812813226
0.980489358
0.9407414302
1.045181435
1.015209016
1.015835333
1.013785666
1.014526059
1.044659029
1.092554839
1.092309505
1.070750548
1.125124667
1.110287222
1.110452355
1.109865305
1.110092246
1.124994835
0.1449566214
0.1414751125
0.2771088289
0.2744553432
0.2101020754
0.4031590256
0.3382924167
0.3407465001
0.3331930814
0.3357757464
0.4008152969
0.5379847168
0.5361067174
0.4691283622
0.6696609532
0.6033466577
0.6049302538
0.6000131452
0.6017087573
0.6683329677
0.7947525639
0.7939435155
0.7336615774
0.8994590983
0.8494026473
0.8501092062
0.8476569123
0.8485893735
0.8987072168
0.9837092359
0.9832155391
0.9440074471
1.046812745
1.017370089
1.017764925
1.016404639
1.016916382
1.046472908
1.093229039
1.09310483
1.071922228
1.125393717
1.11078626
1.110847862
1.110589627
1.110700365
1.125360514
0.1579161867
0.1548022643
0.2870547093
0.2846625574
0.2215263736
0.4119198668
0.3477530379
0.3499781002
0.3431397784
0.3454741322
0.4098159359
0.5449450224
0.5432837203
0.4772383521
0.6744603637
0.6093756791
0.6107644308
0.6064611939
0.6079418578
0.6733292469
0.7973238559
0.7967618657
0.7373298047
0.9014783557
0.8517091049
0.8521074942
0.8507209731
0.8512502171
0.9011038647
0.9849520392
0.9847459193
0.9457998225
1.047710183
1.018592157
1.018752168
1.018099952
1.018375259
1.047555664
1.093437966
1.093428957
1.072512932
1.12532491
1.110891741
1.110860239
1.110885834
1.110900192
1.125370835
0.1693246349
0.1666080675
0.2960632044
0.2938904096
0.231667343
0.4198178212
0.356344431
0.358371228
0.3521502716
0.3542712598
0.4179160783
0.5511193688
0.549643178
0.4844753675
0.6785940216
0.6146716837
0.615894421
0.6121087044
0.6134101337
0.6776155572
0.7991964359
0.798776727
0.7403224428
0.9023486889
0.8530143753
0.8532419853
0.8524530469
0.852753022
0.9022093283
0.9851967249
0.9852126045
0.9464259755
1.047879302
1.018914227
1.018873753
1.018857107
1.018909858
1.047901491
1.093192828
1.09329528
1.072525894
1.124954807
1.110629844
1.110508974
1.110806002
1.110728879
1.125074268
0.1793887109
0.1769701083
0.3042762313
0.3022929086
0.2407747362
0.4269867023
0.3641806592
0.3660299316
0.3603519854
0.3622886304
0.4252534898
0.5566193636
0.5553026889
0.4909698386
0.6821794823
0.6193390137
0.6204185274
0.617078775
0.6182261243
0.6813297961
0.8006247509
0.8003015895
0.7428257118
0.9025471969
0.8537566258
0.8538831484
0.8534391514
0.8536094256
0.9025422056
0.9847490489
0.9849100762
0.9462981035
1.047421224
1.018517991
1.018333893
1.018791671
1.018671712
1.047585988
1.09253556
1.092734602
1.072015011
1.124303816
1.110022538
1.109821993
1.110367041
1.110204397
1.12449091
0.1885439885
0.1863244816
0.3117912608
0.3099712431
0.2490886354
0.433558726
0.3713358231
0.3730315797
0.3678375489
0.3696050901
0.4319685896
0.5615355824
0.5603562239
0.4968136403
0.6852991797
0.6234639891
0.6244210371
0.6214647749
0.6224790587
0.6845588161
0.8017319807
0.801480674
0.7449366884
0.9023588026
0.8541539346
0.854214534
0.8539901719
0.8540796079
0.9024323503
0.9838713375
0.9841202399
0.9457249592
1.046497661
1.017627828
1.017350951
1.018122119
1.017885687
1.046763377
1.091545618
1.091819453
1.071089854
1.12340747
1.109118803
1.108854149
1.109603897
1.109368941
1.12365165
0.1970040698
0.1949476173
0.3187362785
0.3170465614
0.2567698419
0.4395980421
0.3779221941
0.3794945973
0.3746930566
0.3763222201
0.4381328094
0.5659703474
0.5649004985
0.5021205073
0.6880330309
0.6271348485
0.6279942256
0.625350476
0.6262541213
0.6873809671
0.8025994103
0.8024011558
0.7467320054
0.9019385148
0.8543222511
0.8543385345
0.8542617773
0.8542970126
0.9020597431
0.9827391603
0.9830392463
0.9448931767
1.045260678
1.016425422
1.016092107
1.017056831
1.016747542
1.045592396
1.090311134
1.090638257
1.069868853
1.122314873
1.107983881
1.107671781
1.108576164
1.108285554
1.122603294
0.2048590969
0.2029472939
0.3252371896
0.3236470984
0.2639383224
0.4452037251
0.3840565953
0.385530851
0.3810402552
0.3825602409
0.4438371752
0.5700395394
0.5690507542
0.5070126572
0.6904714159
0.6304549981
0.6312425284
0.6288328076
0.6296521887
0.6898846475
0.8032982537
0.8031358827
0.7482901783
0.9013792867
0.8543393997
0.8543279983
0.8543459694
0.854345664
0.9015283924
0.9814636539
0.981791578
0.9439143084
1.043826325
1.015036699
1.014671271
1.015748534
1.015396152
1.044198526
1.088908899
1.089271664
1.068451257
1.121076565
1.106681649
1.106336568
1.107350173
1.107019683
1.121397022
0.2121880698
0.2103994429
0.3314028472
0.3298883938
0.2706931757
0.4504677119