/*--------------------------------*- C++ -*----------------------------------*\
| =========                 |                                                 |
| \\      /  F ield         | OpenFOAM: The Open Source CFD Toolbox           |
|  \\    /   O peration     | Version:  v2012                                 |
|   \\  /    A nd           | Website:  www.openfoam.com                      |
|    \\/     M anipulation  |                                                 |
\*---------------------------------------------------------------------------*/
FoamFile
{
    version     2.0;
    format      ascii;
    class       volScalarField;
    location    "3.21";
    object      k;
}
// * * * * * * * * * * * * * * * * * * * * * * * * * * * * * * * * * * * * * //

dimensions      [0 2 -2 0 0 0 0];


internalField   nonuniform List<scalar> 
3259
(
37.00502442
37.00502127
36.99816923
36.98502571
36.97352323
36.96472376
36.95961
36.95660164
36.91040112
36.90926412
36.90872576
36.90842292
37.02850872
37.03105605
37.00978491
36.95577544
36.89734697
36.85335523
36.80425603
36.78689649
36.73349515
36.72995553
36.7282636
36.72740353
37.09257863
37.09808384
37.0591703
36.97360948
36.85977338
36.75840982
36.66803174
36.62851695
36.5636636
36.55504105
36.5510619
36.54948538
37.25420358
37.25511927
37.18546915
37.05630938
36.89148437
36.72750356
36.56822898
36.49073971
36.40169246
36.38575249
36.37791011
36.37488006
37.61275567
37.5983457
37.4579217
37.24030549
36.99672323
36.76054181
36.52472339
36.38098365
36.25367015
36.22219774
36.20802392
36.20255099
38.44906158
38.35488733
37.98457978
37.5840988
37.20010326
36.85719861
36.5357737
36.30603314
36.11955278
36.06420332
36.04043011
36.03113544
40.35755733
40.18321813
38.94703536
38.14387058
37.52035405
37.0218411
36.5813224
36.27061891
35.99948435
35.91223249
35.87462732
35.85997237
43.10750727
40.50819892
38.93974471
37.95730789
37.25020633
36.66235251
36.26627935
35.89650554
35.76786041
35.71170046
35.69005195
47.96021254
42.42687097
39.89643065
38.47627038
37.52511532
36.7686614
36.28026716
35.80992032
35.633452
35.55483128
35.52470637
51.30884799
44.17315277
40.85666362
39.01685251
37.81718664
36.88930741
36.30490427
35.74087868
35.51312679
35.40886362
35.36883784
52.94936948
45.47884616
41.69119228
39.51426972
38.098649
37.01032892
36.33600886
35.68816437
35.40905793
35.27841763
35.22753856
53.65525642
46.34944946
42.33657708
39.92637641
38.34297556
37.12041716
36.36925786
35.65125608
35.3224706
35.16579617
35.10377437
48.51976612
43.50417475
52.21327223
48.98039618
53.92037019
52.51982268
54.60902406
54.03353307
54.65036174
40.32204155
42.99461148
40.08513649
52.66020353
45.27994058
47.42383398
42.87461968
41.10071504
56.30694712
58.63291649
51.00295294
45.04101675
43.46020485
54.86075155
54.35503525
52.81666558
46.61176031
45.49628266
56.48271103
55.5284057
39.89489952
57.41704816
57.16865421
58.55467523
53.00568489
46.35338524
51.91344352
57.15657159
54.45487793
56.06738036
50.79780956
57.25311625
56.14308589
57.35904266
57.37449615
50.54759016
55.35051398
54.95337097
53.45559362
56.66464669
56.93001191
56.08330588
56.61865782
53.26723832
57.12052349
56.58555718
41.6186599
42.93843633
57.44720818
39.68111125
65.51983137
48.65416147
51.49556782
53.61454704
47.61329705
46.91386898
60.70315573
48.64717184
46.97795348
44.86253407
50.8778089
45.70442264
46.50637673
42.64158934
54.39946685
57.21145507
57.32911947
56.96374325
57.19137698
54.32951495
42.01728963
44.64305458
42.05216306
42.04174567
70.6922345
49.46324139
65.13368773
47.51834954
61.14115767
48.56193005
58.06207219
58.22225945
54.51858481
54.4864766
41.0977731
47.56220428
56.11979572
41.65690314
41.73873873
49.66784067
41.96865742
55.99287368
51.8554614
49.58221249
53.67312374
56.64187441
56.2447867
55.37942458
55.52123524
56.73019721
55.0413538
54.44182475
55.62085428
55.20424304
56.64188652
58.01818027
53.06609787
51.99017419
54.2097239
53.38098553
58.00166579
55.53917119
50.46781306
55.46419128
42.06190075
45.62783483
56.85647879
42.05717266
40.95343087
62.22905011
52.50937248
65.0068951
40.03731129
40.92110801
56.30117959
41.62479347
46.61494489
43.81744
47.54243529
43.60447664
43.98440304
57.13721083
60.49787875
59.04020711
58.6275169
54.63131037
44.66572112
44.77885288
48.8003544
48.26354923
54.20280808
57.98167087
62.16746061
60.87183798
54.56019554
49.76866543
48.21967162
51.5861492
50.25309961
54.94258603
54.80778408
49.77314504
49.13330649
55.66609331
44.92469605
45.0991207
55.15926436
56.78822894
56.33592357
56.26205249
56.06210152
56.00040339
55.72903265
56.22840302
56.0663023
56.0728654
56.9274663
46.28333226
50.71838228
54.55364797
58.34088785
57.68536524
57.10820187
51.45571082
51.25950286
39.83343701
39.92446472
61.08630782
61.53215979
50.13555189
62.0000024
46.02680065
41.50564371
44.25639005
50.73519168
56.7686608
70.96936984
57.38435097
53.3284946
61.58205592
58.27357213
52.54730771
49.20693052
55.29976813
56.50494341
55.76154662
57.46008363
58.5469346
58.60677282
57.07836872
45.903996
44.93399979
54.56864785
48.40781987
48.19813701
45.35305233
47.9051909
48.07450551
54.2521046
48.02582945
46.30374971
42.0366589
42.76164442
41.26273022
50.59074882
49.54725854
44.56659284
47.35078757
45.81254263
49.13656181
47.89370562
43.56432022
43.91502495
40.68756602
39.94139578
62.10653044
61.40449646
57.68001602
63.20989972
64.28638685
64.10118699
63.39584333
62.60920013
64.63889473
63.20154501
54.88318771
61.1206956
62.21606715
50.74499539
49.90101983
54.945352
55.67772415
52.36807278
51.14310204
43.72230865
43.36508191
45.3814656
44.09170452
50.53763446
43.71090038
44.8407922
43.26494623
43.4059822
56.72745141
41.16038347
55.56678988
49.91027811
55.19809862
40.99365609
61.86311707
42.63597727
40.54856371
39.19290725
59.71220185
59.21018165
47.7994068
59.77659656
57.34107863
57.40075651
54.79053334
46.18044385
45.54405839
49.3316731
55.61218477
46.04554278
46.26475853
41.50742517
41.85980506
44.38840838
51.19239432
55.27114323
58.26233868
42.73058574
41.16249052
42.03484672
51.45221783
53.24613853
57.31881029
59.12492444
60.89330952
54.46682798
50.35002948
45.33041837
63.2562663
55.91811055
43.26502792
66.14267086
51.16439835
43.46900939
45.46437487
59.71293056
40.10110503
40.15416191
49.01836035
47.6808264
46.00991879
48.24452999
44.8472957
40.90218494
40.19072635
43.24458435
43.5996351
46.75610729
67.26225278
61.99064807
59.18991352
70.3652303
67.2738132
41.28328155
45.12760977
43.87980237
52.88473122
52.21879219
44.73944786
51.84111316
50.94593945
41.27029489
50.08843806
42.33443066
42.65833975
48.58058162
40.89971372
41.82019731
49.83477365
49.44648533
43.16384495
43.67718027
50.16683943
49.32598708
49.72716142
55.23362592
45.2395927
46.52770137
62.38938658
59.53519995
58.6141792
47.30343393
45.53744596
40.49272921
57.77830295
59.41749428
62.09392374
42.92006586
57.66129637
51.68594142
58.0309159
56.72227646
44.51897414
44.99344073
45.82810603
51.09392886
54.23072669
54.65417084
53.57022735
53.8867216
60.06532196
59.37084221
59.71140648
58.64547836
58.99359108
59.52648767
48.63242305
47.318804
47.62829043
46.87587153
47.08618929
48.63316194
61.61317685
60.56147556
60.59936435
60.05834819
60.34882323
61.23339286
49.38172966
48.54345365
48.88534144
47.90967248
48.23585801
49.19255241
52.84110938
52.96031638
52.06289439
52.23186967
65.23743155
64.6846072
62.25935765
48.61514101
65.14206054
62.96803296
69.15592102
63.25685781
65.87364664
61.09816282
52.1319769
67.62297165
62.0636041
52.01220389
51.5435339
61.16655998
47.84460629
52.77297341
58.33926524
56.42794366
57.96206279
55.52437374
66.29656624
62.4729905
66.78920341
60.33103142
63.40105067
66.24585088
67.84545207
67.16039974
55.90933498
56.34673634
56.70318452
55.43357724
55.67834157
55.56815745
58.04880062
57.90586104
58.25586357
57.14851912
57.49190581
57.57872304
45.57243471
47.51939654
47.50015078
48.23754102
48.27391043
46.38183616
48.8771386
48.56927134
47.93611268
48.41091675
48.86218997
47.25618408
46.94194003
46.8528021
47.40567536
47.20384354
46.68512434
52.57781628
48.2592341
41.5403738
54.22304204
54.13490597
53.78159577
43.6132684
52.55858839
52.00587298
41.92869489
42.07074177
46.81018656
61.90338662
60.54830278
60.4810374
60.53004888
60.55764887
61.65021618
63.63668924
63.89611462
63.29302888
66.68419953
66.55697907
66.64909328
66.72314353
63.14108566
64.8752356
65.9825682
67.89301232
64.96541815
50.58627553
49.91031898
50.27653833
49.20845407
49.56787418
50.15180328
51.83844051
51.2566969
51.54187938
50.629915
50.96955619
51.54992404
49.11505819
48.9912822
50.08471661
44.53870129
46.39734318
44.04292628
48.90917457
49.24409934
48.66713294
48.82352333
44.44344737
43.20025214
46.31686085
44.74689228
48.55769144
48.67162326
43.21366051
54.54773387
43.11844853
44.1939942
41.28558738
42.1120659
55.33305842
54.05214989
53.4113401
45.6293962
49.17301726
55.74097767
60.89983451
37.0646044
37.02373681
37.0704634
37.07755419
37.0324754
37.07547506
37.05374905
37.01909456
37.04166745
36.98639259
36.97359738
36.96422856
36.8864242
36.91147106
36.86094849
36.79414478
36.86327521
37.19029026
37.0861638
37.20148672
37.20917642
37.10040372
37.20358413
37.16349833
37.07305744
37.1431224
37.06068894
36.99830656
37.02767396
36.91662802
36.88843322
36.87786286
36.7631951
36.77881439
37.4795062
37.24110849
37.50028663
37.50878254
37.26009894
37.48865837
37.40591629
37.20950207
37.36977895
37.23459734
37.09283496
37.18253251
37.0176145
36.93460302
36.96194271
36.79958587
36.76633208
38.14105452
37.58707232
38.17145331
38.17039359
37.60613063
38.09236397
37.89555091
37.50364987
37.81874649
37.56757228
37.29966741
37.48003123
37.22189003
37.05800288
37.13858102
36.90324448
36.81853232
39.98839108
38.39182036
40.01502132
39.78341063
38.3696709
39.42555569
38.84985353
38.08303888
38.65496244
38.13650042
37.68462296
37.98034505
37.55727356
37.29242878
37.42871437
37.08009918
36.93958685
41.57565328
41.58644608
40.36262981
40.99217532
40.31268217
39.82759119
40.06438296
38.99840578
38.32376396
38.72141622
38.03074369
37.66337146
37.83605028
37.3332671
37.13605217
44.97761328
43.56173314
42.2103224
41.94519138
40.09430462
39.25447658
39.6555714
38.62101089
38.17133626
38.34313422
37.64755586
37.40673202
49.45583466
46.71760893
45.56596017
43.77370932
41.22715034
40.37808463
40.63177893
39.24940909
38.77533153
38.88493926
37.9892829
37.73137026
52.0866495
48.97019674
48.25411123
45.19439118
42.21549958
41.48826992
41.50150143
39.83691318
39.40052612
39.39745976
38.32319362
38.07399199
53.30563318
50.24847881
49.89233925
46.16365665
42.98509087
42.42855687
42.19525276
40.32908607
39.96854581
39.83298993
38.61765848
38.40073713
53.81491929
51.37414986
51.24430074
43.13892008
40.43379641
38.68160665
47.73933738
49.22861953
50.45382882
43.7960303
44.66535088
44.18954753
51.86621244
54.02661112
54.48601229
50.83281315
51.85767771
49.71698273
53.77601702
55.49598036
55.71020854
54.60620223
54.94161538
52.79973009
54.5382397
55.55136717
55.59747977
55.27633959
55.34124892
54.14625958
55.62856929
55.67240452
54.7080582
53.63531965
54.343108
55.5413987
41.58633992
55.64863721
52.8679389
42.40954395
42.57617712
43.23705726
40.25053755
41.51694492
41.21410854
52.06631723
52.87940225
53.52785515
46.0078095
46.8778557
46.18807337
45.21779348
43.89509737
45.57421559
42.27882534
43.30646424
44.02963542
41.85375623
42.57341789
41.68103549
56.55662375
54.62338016
54.22257609
59.3872033
59.24135233
58.66958213
47.97680299
47.04071108
49.87505323
44.55023956
45.99703388
46.55319195
44.72872542
45.38502474
44.0189009
54.76797135
52.61641334
52.82879347
51.34479906
51.19686123
54.27213882
49.71327805
49.19249428
52.2921272
46.28146673
47.90502601
48.24923037
47.05875972
47.50444913
45.90606704
56.36626274
54.28908561
54.63558562
50.22635141
51.18277128
55.69130797
39.53264922
39.55495706
40.29682713
57.33467971
53.75144563
54.98699229
56.49175119
56.62973076
57.22288995
58.42878426
59.58430196
59.52683274
54.14536341
54.78775546
53.55461987
47.39755381
48.78387495
47.17231182
52.48998513
50.9577985
50.26780576
54.49897759
53.99750273
56.34317804
54.56307136
51.69539826
51.51375245
53.84408257
53.48143392
55.87325118
53.22398471
53.85587654
51.22601457
56.97044359
56.93211077
56.85836812
57.40177705
57.38660766
56.32462183
57.78868149
55.35000876
54.92832446
56.78868265
56.61195167
57.72254064
49.89351955
52.15866462
52.99223751
55.15836827
48.66449023
49.88763116
52.97312259
53.08524484
55.02436775
55.31337953
55.46301019
53.63157334
56.70566892
57.39562727
57.40640708
56.38457036
56.34694723
56.81859295
55.99906138
57.41393546
57.41031424
57.41920782
57.42567373
56.15213166
53.04362295
55.02475061
55.25917967
57.06065801
56.18501464
56.34821498
54.87786629
55.13783013
56.68765793
55.32913491
39.56245001
50.05205213
54.71351514
51.49587031
51.09046151
50.41201914
53.38133511
47.41180341
49.05184006
49.24741562
48.55664352
48.81698538
47.17331792
47.71062278
40.3285001
41.30988936
43.72627711
44.13816441
47.55767181
47.21240149
45.43847714
44.00237897
49.49334017
48.7956513
50.15837691
44.8814905
45.44109145
46.89886141
45.94736079
42.59412182
43.07910761
40.6036663
40.70462302
43.06986058
55.47734321
55.52175661
54.48598842
57.27164332
56.66785875
56.38154089
56.67130518
56.66816978
57.27915569
57.07336048
56.39447824
56.38947149
56.38893571
56.39414255
57.10724856
54.23297515
55.38756475
55.43864146
43.22395067
44.09677227
44.38135586
44.90393955
42.02681188
43.10170492
42.82003252
43.23786987
43.20339301
42.05473479
51.24531764
54.37023
50.79971321
53.21237134
48.65727004
46.71248462
57.77819854
56.07152291
60.56169686
47.11204888
48.76245552
50.5973652
57.56532713
57.37196965
57.92306097
58.33023468
58.12092737
57.93557962
52.10521428
52.11542279
54.52952876
54.42866102
51.85176783
52.04265229
53.54452237
53.9498834
56.24740557
41.4757887
42.24562528
41.98310342
45.09649049
44.61808051
41.5177003
41.80228236
41.76344798
42.39805357
55.85416815
51.51767159
51.92793342
51.14473595
45.83977129
46.89359516
41.87239152
42.94207742
50.37241476
58.45188932
58.75250433
57.01016409
55.81109927
57.6251829
58.09233003
52.88323729
52.68309995
55.23336215
55.62746383
53.16856468
53.05737501
57.28198958
57.21864117
56.90981547
54.8561104
56.13300095
56.27704328
55.76065216
55.96908458
54.66149519
55.49242835
56.62199272
56.71192215
56.40534241
56.52109205
55.35899707
56.40588211
57.36368949
57.32914744
56.03640006
55.68817692
57.88703949
52.73022679
54.0739899
54.41208877
53.29423474
53.69616559
52.37054304
53.95084803
55.294418
55.54996856
54.74030891
55.0182722
53.67887561
57.83009664
56.57799971
56.28486211
46.99863845
48.18067789
55.93769194
55.38908578
53.64307306
53.77546763
43.43838615
51.6363709
52.07869539
52.79220877
52.26998329
43.9858641
56.7702848
55.38015189
55.60621707
41.71725562
40.57726964
40.56308234
42.91854913
42.06728568
40.895161
47.91050663
40.22954503
44.15651433
42.70624948
43.79274595
44.73593942
45.31173713
44.76592119
43.57621685
47.99900519
45.20826543
46.2804269
46.79362169
48.39039678
43.82297219
44.93558458
44.54584143
45.28981388
45.14278143
43.94429888
55.63006606
55.07292858
56.84035351
58.66073999
59.03119868
58.85816497
52.23695109
52.41450482
54.67397248
44.57463422
47.95592992
47.66916894
48.87270075
48.39334513
44.63159197
54.21417498
51.08479781
51.07442147
59.44658135
59.58495116
58.2393636
52.30711355
51.62094604
53.51712887
49.2672014
50.26881171
50.84286004
49.07135751
49.6883208
48.75245524
51.16294272
52.3979723
52.86153375
51.38647026
51.90895249
50.71720221
56.00897919
53.47902358
52.90481746
52.07665068
51.88477004
54.68446327
55.70799212
53.18694383
52.99912587
45.0100661
49.46086205
49.22783122
49.81284764
49.64140034
45.05168796
55.09606656
53.16644959
53.25721459
57.37471481
57.38347193
56.74076772
56.31551424
57.14563705
57.14473074
57.12785622
57.13925004
56.29427885
57.41664398
57.41544435
56.00398094
55.91766213
56.91830813
56.96990699
56.7903836
56.85919948
55.83313772
56.18036803
57.08489871
57.10992493
57.01499972
57.05362224
56.13168119
56.11835457
57.41904895
57.41773195
55.81380776
56.01174075
57.0022466
47.39622179
53.71985474
53.33498358
54.52228016
54.13645686
49.93862106
53.04863769
56.41093726
63.29080012
39.80505748
40.27433808
39.98667015
41.43759831
40.68977147
39.80419914
52.23135262
44.08296913
40.61941676
40.86091675
40.35013229
40.47538936
42.66552587
43.77749173
40.92721874
41.22102586
55.7735732
58.66423914
60.74809686
55.70947406
57.76188914
54.93581965
61.77379753
63.38103257
59.67591561
51.07246288
52.9182775
54.72002548
50.40959834
51.78584748
50.35917355
57.15296813
53.92838429
52.66598902
57.71223229
56.84890778
56.31092476
58.60641477
58.4247968
58.46077287
47.56430391
47.5221996
45.20767143
54.55462929
52.12062857
52.1567851
51.22431324
51.53131387
54.34015663
42.97734124
42.64160475
41.35943002
50.2917592
46.58186129
47.06965706
45.43955357
46.0098708
49.89588645
46.83952776
42.88557805
43.23304169
42.53312389
42.61797924
46.26465493
48.76557555
44.40217871
44.87243652
43.63253189
43.98832509
48.28022871
42.99532492
41.76148638
41.84897314
39.99663978
40.35615492
46.03442386
40.47656258
39.65450345
39.65721277
39.85410446
39.71452266
40.09534537
57.34900167
59.00834237
59.25618094
56.52491568
57.10774556
55.3523723
61.72416508
59.49994371
58.92197208
60.34549763
59.98177139
62.16366645
55.08444731
52.48158361
52.27737876
53.05580138
53.16529713
55.68416858
43.51849976
43.14690821
42.85088856
44.00733156
43.58049713
43.42839111
44.9966125
42.5254419
42.5182095
42.64632838
42.57637536
44.54272467
40.85727611
40.68949063
41.33759649
40.91263953
41.38964942
41.06821718
41.95171784
41.1300786
41.28763748
40.04391025
40.49315101
41.1582227
39.46601332
39.95540037
39.5919721
49.4186001
49.56771901
47.95006311
57.40937824
56.68310802
56.6746537
56.71510132
56.6932399
57.35997845
45.75990011
46.95538414
47.43814536
46.35208749
46.85539424
45.58368606
54.34738788
48.37717336
48.45289107
49.45333486
52.77353702
61.30676311
46.16161875
47.44569366
47.03531357
47.87209919
47.81860918
46.21798539
42.54696287
42.31509198
41.78933824
43.68613387
42.85791668
43.04574992
51.67775683
52.27439713
51.75600695
56.36113408
54.08160949
53.25099072
55.70315913
54.84186112
57.25198203
42.1783846
40.04846269
40.31565493
39.69991165
39.8080883
41.61048774
40.94852093
39.65074428
39.78602441
52.08061563
55.1747121
54.86050328
55.71369998
55.45352303
52.68818009
59.92541017
57.20997521
56.43808665
58.40460807
57.7784612
60.32875404
53.93580068
55.3669347
55.9643485
40.7556088
40.05638169
41.21604734
40.96071507
42.05613382
41.76141612
40.08587362
47.91368515
44.99562558
44.8395305
47.12468309
47.81862174
48.45034729
49.03635551
47.953558
47.27900193
41.63257213
42.05879694
45.39890872
40.53879049
40.36474247
40.33592596
40.61703837
40.45574488
40.3560023
43.29874117
43.71030814
43.57422554
44.09103382
44.01410749
43.45241785
45.64985707
44.57662775
45.18095414
51.55064386
48.63667413
48.95454766
47.62035226
48.0671896
51.22175357
41.33794167
43.9572031
43.49297055
53.36120068
53.49090183
55.30245704
45.52526199
50.35009735
50.04582052
51.07385669
50.73863681
46.00197194
45.17684597
46.0720549
45.71344471
46.70329363
46.47596404
45.50606824
49.62274843
47.43318965
48.13612831
37.01663885
37.01854032
37.00568193
37.01672524
37.01123552
37.00304891
36.9999422
36.98187835
36.9908969
36.95995016
36.94035609
36.97906252
36.92336453
36.90921329
36.96875269
36.89845155
36.88831935
36.96189326
36.88079791
36.87536173
36.95794226
37.0393033
37.04269738
37.0309625
37.04271856
37.0393785
37.02879658
37.01772558
37.00557907
37.00166823
36.95621338
36.93479405
36.94119025
36.88126906
36.86438624
36.88544752
36.77841398
36.75285761
36.81576936
36.73306531
36.71814128
36.79451552
36.70753624
36.70214558
36.78161309
37.12123893
37.1274469
37.0976487
37.12622628
37.11928801
37.09245914
37.08122363
37.06163275
37.04141474
36.98700055
36.95669452
36.9455446
36.86209638
36.82940374
36.82914056
36.72742795
36.65573844
36.69744176
36.61267809
36.58133415
36.64583203
36.55876102
36.54548297
36.61639345
37.32233106
37.33159121
37.26239029
37.31897926
37.30239708
37.24572995
37.23574997
37.204547
37.15771528
37.09130058
37.04815114
37.0172651
36.90955746
36.86273451
36.84820763
36.74818931
36.62236201
36.62651369
36.5386641
36.4779417
36.5244382
36.43427029
36.40586667
36.46693524
37.76583095
37.78086612
37.62914514
37.73557767
37.68705493
37.58361575
37.55774426
37.50053604
37.40888665
37.30894914
37.24164825
37.18018293
37.03746983
36.97097296
36.93619661
36.82924732
36.64456806
36.62872716
36.52716429
36.41879964
36.44202227
36.34115793
36.28691755
36.33867426
38.82220214
38.83538576
38.46529865
38.61889326
38.49714992
38.29639545
38.17688949
38.05623618
37.88536449
37.70143622
37.58869439
37.48516422
37.26795704
37.16895377
37.11024339
36.97689598
36.71675335
36.67429482
36.55391644
36.41067232
36.40818398
36.28547487
36.1937854
36.23214089
40.69137801
40.70828565
40.4409373
39.27904484
39.00476012
38.72192662
38.3223391
38.12838677
37.97459068
37.61831162
37.46914817
37.3851723
37.18984435
36.83417206
36.76970674
36.61842107
36.43355526
36.41854956
36.2650542
36.1287356
36.15408336
43.69730243
43.37119038
42.85532286
40.97703921
40.40913721
40.02151013
39.1734882
38.857782
38.65863377
38.08118408
37.86576881
37.75987444
37.45433563
36.99247617
36.90848228
36.71335709
36.47768034
36.45322387
36.27148305
36.08862943
36.10335313
48.49530037
47.54337606
47.06542212
42.89596132
42.00445994
41.60793321
40.1473541
39.69296252
39.47720807
38.61303603
38.32228497
38.20476241
37.74455528
37.17540699
37.08162841
36.8285135
36.53827409
36.50570717
36.29236341
36.06871743
36.07560793
51.59434499
50.47126923
50.18146758
44.54307789
43.43291943
43.10384628
41.08683237
40.51046801
40.30978648
39.14705476
38.78341038
38.67062649
38.03185014
37.36167088
37.26868526
36.95094496
36.60875885
36.57199562
36.32130312
36.06509224
36.06496529
53.08653013
52.02399928
51.87388958
45.7316532
44.52139419
44.28161747
41.87460428
41.2102251
41.04554335
39.62674464
39.20314326
39.10469763
38.2876769
37.53386438
37.45003901
37.06786554
36.68032881
36.64360236
36.35515284
36.0707639
36.06762622
53.72349113
52.73851445
52.6886136
46.50439275
45.26752874
45.11027932
42.46740119
41.74773587
41.62809914
40.01403273
39.54697648
39.46881506
37.61006809
36.71219982
36.07540116
40.7038856
46.57544071
46.05666926
46.8157388
49.88151061
49.54825157
50.66527154
51.73654455
51.56066837
52.65442704
57.38420818
57.13408521
57.2139852
56.07636389
55.8185068
56.9241471
57.14633744
57.51139259
57.53573685
56.99261389
57.01181211
56.19257356
57.52234926
56.49275857
56.27315399
57.57689843
57.5986071
57.49075474
57.34513789
57.34925842
56.8999238
56.04721053
56.95029427
56.96249893
57.27413601
52.60964359
52.54771493
53.53495854
45.55154092
45.08434334
44.60778191
57.24137177
57.32214783
57.3134078
57.27396725
57.27948719
57.3065723
57.00008964
57.33302037
57.33659509
57.31459918
57.31523687
57.16462571
42.00932099
42.2958515
42.36602306
42.34754654
42.34997559
42.10401391
49.52396836
47.95568766
46.93608388
57.27863047
57.31886159
56.79746975
56.56449813
57.19301993
57.2323121
57.35925997
57.24025956
58.00811738
57.96866859
57.53781737
57.44645177
53.92352894
54.00607668
55.60399127
42.44350102
46.22468563
45.7472655
49.09178597
48.65660196
45.10056917
53.96260764
53.67824595
54.16664347
55.30685043
54.51990648
54.19600693
56.93826078
56.93015686
56.04118451
56.08842006
56.95294067
56.94283502
46.69177726
49.93811489
49.49690054
42.41494653
41.96246546
42.12251632
57.36601733
57.26298484
57.26745802
54.74361789
55.7046514
55.74162909
41.62864371
42.17433576
42.03124671
44.08544024
43.67724062
43.81392525
57.26211596
56.74901719
56.87268247
46.54546665
47.16333216
46.56677627
46.44444347
45.65901873
45.81955024
37.04742414
37.03411187
37.07475541
37.05689869
37.05308891
37.05883708
37.05847815
37.07739557
37.03250821
37.0439583
37.044077
37.07045795
37.05306611
37.05725404
37.03871394
37.0476481
37.06390928
37.02430779
37.03464565
37.02729496
37.02556932
37.01363481
37.02812185
36.97845631
36.99738725
37.00763289
36.98520188
36.99011876
36.97466376
36.93850849
36.93527533
36.95871462
36.88844456
36.91312738
36.91431067
36.92522673
36.91667179
36.89741862
36.8358705
36.84769387
36.86887632
36.81296383
36.830614
36.81474758
36.87343334
36.85050944
36.83644014
37.14709345
37.11350955
37.20920633
37.16342541
37.15644976
37.16427804
37.1659153
37.21169073
37.10077845
37.13058795
37.12937185
37.1932505
37.15343724
37.16078672
37.12724803
37.14237244
37.18028779
37.08460323
37.10994666
37.09696223
37.11873728
37.08719103
37.10909274
37.03479953
37.06257481
37.09131213
37.02149685
37.03953046
37.01422157
36.9919792
36.97205283
37.00484745
36.9029202
36.93831382
36.95508996
36.91810529
36.92600125
36.89348943
36.83860465
36.83242574
36.86772384
36.76277008
36.79796331
36.80051021
36.80326808
36.79747272
36.76877262
37.3805541
37.30681369
37.51349151
37.40998045
37.39912208
37.40078993
37.40806701
37.51309192
37.26333881
37.33321863
37.32944453
37.46043952
37.38278112
37.39427411
37.33039285
37.35966918
37.43544744
37.23005997
37.28445276
37.26246086
37.32843452
37.26144746
37.29773095
37.17908948
37.22188894
37.28320049
37.12687022
37.16982685
37.13187901
37.12812534
37.08577956
37.1336601
36.98410379
37.03556419
37.07310969
36.97677548
37.00341875
36.95677637
36.90670261
36.88229739
36.93299529
36.78395786
36.8326129
36.85247979
36.80643817
36.81735931
36.77342433
37.90268797
37.74089237
38.18676082
37.95519962
37.93727363
37.90865912
37.9416921
38.18681074
37.62238767
37.78048586
37.77485062
38.01361103
37.87397551
37.90027352
37.74515972
37.81177852
37.96068821
37.54719926
37.65162526
37.60909653
37.73731662
37.60937081
37.67862624
37.46451441
37.53791935
37.65360288
37.3562841
37.43917059
37.37508265
37.39345542
37.31241839
37.38869985
37.15966681
37.23609336
37.30745826
37.11954514
37.1738406
37.10517222
37.05765446
37.011439
37.08483721
36.87021231
36.93995079
36.9792431
36.87684066
36.90601142
36.84270541
39.21491549
38.7751432
40.03687581
39.3070241
39.29320532
39.09800193
39.22021896
39.91288725
38.43100618
38.83075615
38.78010907
39.21853572
38.91832141
39.05656267
38.55322834
38.71701368
39.05009869
38.1866964
38.40563642
38.29579457
38.47261032
38.25030345
38.39969381
37.96782263
38.10645433
38.30038099
37.78512726
37.93645346
37.81805678
37.8329673
37.70403178
37.83353757
37.45974452
37.57918712
37.69227659
37.38773491
37.47885196
37.37143702
37.30656621
37.23502589
37.34527788
37.0281975
37.12944316
37.19045172
37.02342671
37.07382094
36.98218355
41.56480796
41.19141525
41.14712831
41.09810149
41.15303396
41.6254974
40.42194849
40.76125321
40.74926746
39.65785777
39.3157876
39.65328094
38.75498217
39.01988604
39.30696209
38.51529191
38.75779001
38.5316749
38.47080604
38.29322613
38.51360968
37.9006881
38.08959695
38.24146779
37.81459515
37.94705414
37.77739369
37.65581643
37.56045719
37.72465679
37.26278328
37.40663573
37.48878641
37.25722922
37.3291443
37.19753469
44.45279268
43.89368029
44.28516094
43.03769189
43.45225036
43.93758126
41.20789506
40.80360187
41.45877314
39.80438199
40.2626318
40.60320493
39.61006411
39.9344307
39.52876035
39.27047491
39.0573413
39.40677783
38.46448826
38.74562023
38.92812431
38.40398185
38.5737165
38.31624387
38.09025827
37.97538079
38.20887197
37.56425844
37.76113735
37.85908404
37.57658442
37.66750244
37.48454703
48.42228809
47.98760943
48.98024871
46.33410074
47.10104342
47.50029953
46.26168881
46.69542232
45.99466393
42.75675678
42.38689959
43.3468919
40.94676258
41.60301576
41.92397154
40.93915908
41.27690721
40.66824408
40.11310853
39.8984628
40.38520269
39.09001631
39.47071445
39.65590614
39.10678044
39.29179259
38.934343
38.55635035
38.43913964
38.74826118
37.90347014
38.15839166
38.25888726
37.95721083
38.05792883
37.81746474
50.97287825
50.72513982
51.8488071
48.75631682
49.68489914
49.93182221
49.15852348
49.44146857
48.50564437
44.02123499
43.73819076
44.88488267
41.9866932
42.78856589
43.04437095
42.22570262
42.51702339
41.74693008
40.87803937
40.69498455
41.29638563
39.69518482
40.16542602
40.32742422
39.82870636
40.00208096
39.55089352
39.00204349
38.89464045
39.27419906
38.24182701
38.5517003
38.64519166
38.35744547
38.45508308
38.15856092
52.26054889
52.12897913
53.18787862
44.93341203
44.73624183
45.96237083
42.81196198
43.70110072
43.88842586
43.2806488
43.50354886
42.63169976
41.49897124
41.35862127
42.03868393
40.21694613
40.75553915
40.88129811
40.47534793
40.62232929
40.09743828
39.38559326
39.29772991
39.73359705
38.54842902
38.90400603
38.98167261
38.73481947
38.82085862
38.47626566
44.05389092
44.20558787
43.28022293
40.9982795
41.10671404
40.53151223
39.05524193
39.12483649
38.7437778
49.64939257
48.8608844
48.41780684
49.57175112
49.17394064
50.06192124
54.19614863
53.12515908
52.94186127
53.45310901
53.29225386
54.33833182
51.19224331
50.24070813
49.87840161
50.85611512
50.53609575
51.53491432
55.53447618
54.7869936
54.74513011
54.73331789
53.73901941
53.60076862
53.98858848
53.86878026
54.83280143
41.09648051
40.7012802
40.6486767
40.2465894
41.39178186
40.94235668
40.96882372
40.75008349
40.84314436
41.30519958
44.74704804
45.35968657
45.82205602
44.41330451
44.89497401
44.40014074
46.24115891
45.53545869
44.98657811
47.68215522
48.55240128
48.87422091
47.8658901
48.22668469
47.37974242
50.30005061
49.2029765
48.82030958
49.56948126
50.51690136
50.69896513
50.13476021
50.34815963
49.37142327
52.48895482
51.39074934
51.18105919
50.54431478
53.19287212
53.03790434
53.54286185
53.38887308
50.89970968
56.96916945
57.06606442
57.35486525
54.20613454
56.16740417
55.94576984
56.5336395
56.3572771
54.62551042
47.86402409
47.30876287
46.79267849
48.09942122
47.62528403
48.33718383
56.64840553
55.59373852
55.30267115
53.45312536
52.35453313
52.12484148
52.75488223
52.54323432
53.65199094
57.44324676
57.45947365
57.03991401
56.97240446
57.2962075
57.37954283
57.21037718
57.26940033
56.89823118
56.2647
57.04817294
57.07475988
56.84322331
56.65900508
57.66686179
56.7334434
57.06838266
57.1520933
56.83732967
56.97084893
56.66671188
57.61117838
57.62543193