/*--------------------------------*- C++ -*----------------------------------*\
| =========                 |                                                 |
| \\      /  F ield         | OpenFOAM: The Open Source CFD Toolbox           |
|  \\    /   O peration     | Version:  v2012                                 |
|   \\  /    A nd           | Website:  www.openfoam.com                      |
|    \\/     M anipulation  |                                                 |
\*---------------------------------------------------------------------------*/
FoamFile
{
    version     2.0;
    format      ascii;
    class       surfaceScalarField;
    location    "3.21";
    object      meshPhi;
}
// * * * * * * * * * * * * * * * * * * * * * * * * * * * * * * * * * * * * * //

dimensions      [0 3 -1 0 0 0 0];
oriented        oriented;


internalField   nonuniform List<scalar> 
6464
(
0
0
0
0
0
0
0
0
0
0
0
0
0
0
0
0
0
0
0
0
0
0
0
0
0
0
0
0
0
0
0
0
8.155322906e-07
0
5.492054893e-09
-6.93302787e-07
0
0
0
0
0
0
0
0
0
0
0
0
0
0
0
0
0
0
0
0
0
0
0
0
0
0
0
0
0
0
0
0
0
0
0
0
0
-1.567513096e-06
0.0002338086336
3.518089247e-06
-0.0002313287177
-7.110428912e-06
0.0001857821714
1.316420373e-05
-0.0001602023273
-3.273045327e-06
7.173936824e-05
8.806626148e-06
-4.478990683e-05
0
1.332722639e-06
2.103847034e-07
0
0
0
0
0
0
0
0
0
0
0
0
0
0
0
0
0
0
0
0
0
0
0
0
0
0
-1.844251598e-05
0.0008745759603
2.69949206e-05
-0.0008725964743
-4.342088523e-05
0.0007873263803
5.747207936e-05
-0.0007337432901
-3.853439037e-05
0.0005142644979
5.199982925e-05
-0.0004288202218
-1.497980581e-05
0.0001799067528
2.432173299e-05
-0.000111934376
0
2.777596953e-06
6.057531718e-07
0
0
0
0
0
0
0
0
0
0
0
0
0
0
0
0
0
0
0
0
0
0
-5.999074322e-05
0.001609728239
7.127084414e-05
-0.001608964095
-0.0001078550284
0.001518419084
0.000125631763
-0.001456552527
-9.978572791e-05
0.001171652247
0.0001173461097
-0.001046939445
-7.228321652e-05
0.0006477406826
8.810132115e-05
-0.0005109954086
-1.519538108e-05
0.0001538082711
2.295872713e-05
-7.6450454e-05
0
0
0
0
0
0
0
0
0
0
0
0
0
0
0
0
0
0
0
0
0
-9.474341098e-05
0.002035295103
9.692616593e-05
-0.002035042483
-0.0001789729012
0.002011120922
0.0001912020312
-0.001977870949
-0.0002187688426
0.001799171753
0.0002321976252
-0.001670084375
-0.000113167009
0.001165446215
0.0001258190122
-0.0009830826532
-4.82144014e-05
0.0004488900716
5.64818301e-05
-0.0002993619139
2.044866735e-05
-1.702314675e-06
2.938725474e-06
-3.12249317e-07
0
0
0
0
0
0
0
0
0
0
0
0
0
0
0
0
0
0.001062014581
-4.51001325e-05
4.526306125e-05
-0.001062177509
0.001094053856
-0.0002534131303
-0.002202167788
0.001117296696
0.0001138635949
0.0001303667714
0.002083453375
-0.000234798863
0.0002481537825
-0.002002439053
-0.0001651106773
0.001570312519
0.0001766997312
-0.001376207724
-7.754380304e-05
0.0007364550302
8.327916492e-05
-0.0005413257034
0.0001083676479
-1.215915999e-05
1.54702108e-05
-3.439293383e-05
0
0
0
0
0
0
0
0
0
0
0
0
0
0
0
0
0
0.001130243622
-0.0001013450896
9.963035418e-05
-0.001128528887
0.002237277816
-0.0002713736517
0.0002761798136
-0.002191908657
-0.0001931095482
0.001804842375
0.000196942611
-0.001609999846
-9.666215505e-05
0.0009375797413
9.977218826e-05
-0.0007164527204
0.0001948290862
-2.280763303e-05
2.593280156e-05
-8.536853604e-05
0
0
0
0
0
0
0
0
0
0
0
0
0
0
0
0
0
0.00116705341
-9.61258758e-05
9.55234172e-05
-0.001166450951
0.002333508442
-0.0002797841427
0.0002801327263
-0.002305192891
-0.0002099137955
0.00195205656
0.0002124919595
-0.001760085928
-0.0001067418745
0.001070449544
0.0001085446141
-0.000834906531
0.0002484598085
-2.969815315e-05
3.091644765e-05
-0.000120784657
0
0
0
0
0
0
0
0
0
0
0
0
0
0
0
0
0
0.001205509016
-9.377829244e-05
9.33544733e-05
-0.001205085196
0.002409646907
-0.0002773989695
0.0002758099151
-0.002376949749
-0.0002102333697
0.002003322824
0.0002089124227
-0.00180366161
-0.0001071193124
0.001091902942
0.0001065244478
-0.0008507659217
0.0002520069397
-3.003093254e-05
2.964891021e-05
-0.0001219136796
0
0
0
0
0
0
0
0
0
0
0
0
0
0
0
0
0
0.001246485983
-9.210685776e-05
9.169632735e-05
-0.001246075452
0.00248379848
-0.0002666012109
0.0002623649906
-0.002425376238
-0.0001965980047
0.001974488157
0.0001955717171
-0.001767417072
-9.812296602e-05
0.001027957286
9.587164275e-05
-0.0007854824936
0.000205580192
-2.405623591e-05
2.277093464e-05
-8.834773022e-05
0
0
0
0
0
0
0
0
0
0
0
0
0
0
0
0
0
0.001284787006
-9.02721381e-05
9.017788222e-05
-0.00128469275
0.002522786643
-0.0002490549488
0.0002432558978
-0.00242548511
-0.0001785235092
0.001893967742
0.0001673653696
-0.001657739247
-8.442059186e-05
0.0008934119286
7.83499382e-05
-0.0006568232419
0.0001372380604
-1.576774119e-05
1.362104617e-05
-4.476024916e-05
0
0
0
0
0
0
0
0
0
0
9.165780434e-05
-0.001159836254
-9.230181223e-05
0.0005819170622
0.0005785632001
-0.0001021423186
0.001135026736
9.735920539e-05
8.723292373e-05
-0.001201586665
-8.782301014e-05
0.0006016739613
0.0006005027906
8.969884712e-05
0.000585262613
0.0005837497543
8.608940159e-05
-0.001240076565
-8.527616099e-05
0.000620060557
0.0006192027676
8.681196716e-05
0.0006028592323
0.0006030707399
8.31539623e-05
-0.001278924799
-8.400503652e-05
0.001279775873
0.001247060151
8.551523306e-05
0.001285036232
8.290473642e-05
-3.83847975e-05
3.803330755e-05
-0.001130302492
-0.0001002973669
0.00112845754
-0.0001093795684
0.001085529692
0.0001179037327
1.700417489e-05
-0.0002885485006
-1.715105455e-05
0.0002886953802
-0.0005728924643
-4.176088306e-05
0.0005744637267
4.018962066e-05
-0.001159383221
-9.657890896e-05
0.0002692766047
-0.002308073834
-0.0002723039922
0.002311725581
-0.000276447579
0.002251235865
0.000271138231
1.88501805e-05
-0.0002958824847
-1.863958291e-05
0.0002956718871
-1.640594643e-05
-0.0002916759861
0.0002914725789
1.660935364e-05
-0.001201282389
-9.408256846e-05
0.0002656016744
-0.00239343782
-0.0002666015339
0.002394567098
0.002334924427
0.0002680776974
1.614964943e-05
-0.0003062051661
-1.624234789e-05
0.0003062978646
-1.776561666e-05
-0.0003011385309
0.0003005793482
1.832479934e-05
-0.001240178803
-9.200462007e-05
0.000259456617
-0.002464727171
-0.0002619576295
0.002471997261
0.002411158451
0.000264512978
3.039462508e-05
-0.0006304464068
-3.061887884e-05
0.0006306706605
-3.15319116e-05
-0.0006227895331
3.01937194e-05
0.0003125401184
0.0003115876069
0.0003280731918
9.374836967e-06
-0.0003271218443
-1.032618451e-05
2.913057484e-05
-0.0006507744636
-2.893772967e-05
0.0006505816184
-2.99431385e-05
-0.0006419348141
0.0006419383983
2.993955431e-05
-0.000291548368
-1.622353268e-05
0.0002913659543
-0.0002880609976
0.0002883085494
1.675662312e-05
-9.42875526e-05
-0.001148657206
9.305905646e-05
0.0005766711584
0.0005732145437
-3.772476622e-05
0.0002875987879
3.670200663e-05
-0.0005746370259
1.706744439e-05
-0.000291641278
-1.697453436e-05
-0.0003002895797
-1.714812803e-05
0.000299672091
-0.0002970559047
0.0002966402309
1.926585434e-05
-4.519223473e-05
-0.000593583342
0.0005937024741
4.507310268e-05
-1.89606417e-05
1.908283869e-05
-0.0002971781017
1.76822813e-05
-0.0003006522822
-1.731957881e-05
1.715350235e-05
-0.0002917620441
-0.0002960707862
-1.877234016e-05
-0.0005914235204
-4.519758535e-05
0.0005914288711
-0.000620657454
-3.139253991e-05
0.0003104250129
0.0003100930694
-0.0003064416942
0.000306357101
1.623424269e-05
-8.530700367e-05
-0.001224528475
8.547900547e-05
0.0006123616403
0.0006119948324
-3.352311466e-05
0.0003058966476
3.304732999e-05
-0.0006118625571
3.291332834e-05
-0.0006205808336
-3.298994878e-05
1.803984762e-05
-0.0003014960972
0.0003054377075
-0.0006111153547
-1.665608085e-05
-1.739455275e-05
-0.001219787374
-8.637702978e-05
0.0006109739673
0.0006098834329
-0.0006410493186
-2.998641662e-05
0.0006410925968
-0.0006321872402
0.0006321889182
3.039294707e-05
-7.06098813e-06
-0.0003261201751
0.0003250398116
-8.870068356e-06
0.0003298822721
0.0006513062787
-0.0003261134274
4.630325571e-05
-0.0002823116684
2.640442541e-06
0.0002333679702
-0.0002943873039
-2.090145452e-05
0.0002985100694
1.677868899e-05
9.395350539e-05
-0.0003158916906
-3.818885862e-05
0.0002601270438
-0.001278542999
-9.065393738e-05
0.0002499865645
-0.002518487347
-0.000253514333
0.00255320338
0.002493375817
0.0002586450963
9.254363477e-05
-0.000324310513
-3.47638495e-05
0.0002665307277
2.308204502e-05
-0.0006457462805
-2.34678574e-05
0.0003231886353
0.0003229434576
-1.205384892e-05
-0.0003208680106
0.0003208119743
1.210988531e-05
-4.668431877e-05
4.198971288e-05
-0.0005681978584
0.0002872417654
-0.0005745666438
-3.894838846e-05
-0.001142682614
-9.2159865e-05
0.0005712529891
0.0005693019375
-0.0003210954315
-1.230664036e-05
0.0003213482229
-1.552119958e-05
-0.0003190375641
0.0003199378918
1.462087196e-05
-8.49110901e-05
-0.001263807964
0.001264228705
8.44903485e-05
-3.232453421e-05
3.210748864e-05
-0.0006319701946
3.167826842e-05
-0.0006408971809
-3.183040617e-05
3.250073752e-05
-0.0006223769423
-0.0006304504692
-3.232047181e-05
-0.001260365494
-8.503587698e-05
0.001260490281
-0.0005412994856
-1.676219803e-05
0.0005412796323
1.678205133e-05
-0.0005703133087
-4.256352115e-05
0.0005711159468
-0.001138312201
-0.0001034003042
0.0005709639502
0.0005482239499
5.214934387e-05
7.037526166e-05
-2.879415056e-05
2.949855407e-05
-0.0005420038891
-0.0003608568642
0.0004071601199
-3.721698382e-05
-0.0005743402928
3.601758696e-05
0.0002877053892
0.0002878343004
-2.049346358e-05
-4.985403023e-05
-0.0002905093703
-1.812224185e-05
1.603336441e-05
-0.0002922984265
-0.0002893959689
-1.340916314e-05
-0.000571064415
-3.55037964e-05
0.0002852475219
0.0002841037057
-1.687004141e-05
-0.0002939736261
0.0002940177557
1.682591184e-05
-0.0002940156478
-1.691683732e-05
0.0002940624437
-1.584509996e-05
-0.0003046025374
0.00030451596
1.593167741e-05
-0.0003051394179
-1.625360772e-05
0.0003055479256
-0.0003149563266
1.549664505e-05
-1.336363159e-05
0.0003128233131
-0.0003208083526
0.0004064729143
8.288943646e-06
-3.096998305e-05
-0.0006263282531
0.000626322487
3.097574916e-05
-1.851955979e-05
1.430102808e-05
-0.0003165898209
1.573724981e-05
-0.0003155432433
-1.515033314e-05
-1.665403726e-05
3.769761463e-05
-0.000308218123
0.0002871745456
-0.0003142109345
-2.020031592e-05
-0.0006255132546
-3.103804355e-05
0.0003128507219
0.0003127305931
2.202964937e-05
-0.0006504403665
-2.221084414e-05
0.0006506215613
-0.0006468247638
2.265257695e-05
0.0003238889186
0.0003233653133
0.0004173117131
5.167415009e-06
-0.0003299354933
-1.745839636e-05
-0.0002902081315
0.0002895188356
1.814769225e-05
-0.0002891842241
-1.750452947e-05
0.0002892303572
-1.511292928e-05
-0.0002994542922
0.0002993758868
1.519133463e-05
-0.000299221184
-1.520059951e-05
0.0002993088543
1.612959896e-05
-0.0002990895477
-1.626123532e-05
3.885350583e-05
-0.0005966053245
-3.898299678e-05
0.0005967348154
-3.919643001e-05
-0.0005939952107
0.0005940578996
3.913374107e-05
3.861657661e-05
-0.0006018536066
-3.867331734e-05
0.0006019103474
-0.0005983830043
0.0005984481148
3.878839532e-05
1.610353955e-05
-0.0002994282328
1.725448394e-05
-0.0002939206087
-1.734952307e-05
3.944604537e-05
-0.0005870933301
-3.950605786e-05
0.0005871533426
-3.974875659e-05
-0.0005840814417
0.0005841425285
3.968766978e-05
-0.0005916070785
-3.925535229e-05
0.0005916660008
-0.0005881671317
0.0005882142362
3.939894091e-05
1.726187791e-05
-0.0002939810201
-1.636671743e-05
-0.0003087716892
0.0003088617105
1.627669618e-05
-0.00030406932
-1.149937833e-05
0.0002989146611
-0.0003083676416
-1.658110869e-05
0.0003085820329
0.0003156235971
1.64234934e-05
-0.0003163098407
0.0003195082123
1.444434255e-05
-0.0003188967851
-1.505576972e-05
3.009511265e-05
-0.0006361883325
-3.041107803e-05
0.0006365042979
-1.643628119e-05
0.0003204232939
0.0003137685716
1.735167062e-05
-3.646020056e-05
0.0004537719137
-0.0006509119375
0.0006506736734
-0.0003443077918
-1.476665497e-05
0.0003590744468
1.630137341e-05
-0.0003219860401
-1.613926704e-05
0.0003218239337
-9.448989144e-06
-0.000320644579
0.0003198805474
1.021302073e-05
0.0003220407703
3.36348319e-05
5.394385009e-05
-0.0004096194523
-0.0003225378789
-1.231475466e-05
0.0003254036444
-5.597772708e-06
-0.0003217512658
0.0003186027172
8.746321283e-06
-0.0005459218135
-6.018555114e-06
0.0005511753523
6.909124748e-06
-6.144108415e-06
-0.000295767476
-2.337768329e-05
0.0002982437047
-0.0005801547523
-5.469825316e-05
0.000567407384
6.744562148e-05
-3.439218519e-05
-0.0005532844664
2.320764082e-05
1.85471973e-05
-1.772704943e-05
-0.000294730039
0.000294271766
1.818532242e-05
-1.443576613e-05
1.448492636e-05
-0.0002908262668
0.0002907771065
1.443862381e-05
-0.0002927189775
-1.464524911e-05
0.0002929256028
1.702820745e-05
-0.000292943399
-1.692638238e-05
0.0002928415739
-1.709137378e-05
-0.0003050718884
0.0003047965229
1.736673935e-05
-1.93856614e-05
0.0003035513352
2.015125516e-05
-0.0003043169289
1.282918772e-05
0.0003098712187
-0.0003083806098
-1.431979659e-05
-1.426128104e-05
1.399860523e-05
-0.000299143876
0.0002994065518
3.761378607e-05
-0.0003020064847
-1.844227666e-05
0.0002828349753
1.910735035e-05
-0.0003018983902
-1.929774505e-05
0.0003020887849
-1.7434111e-05
-0.0002897909556
0.0002906426112
1.65824554e-05
-1.829079428e-05
0.0003615887408
-5.031448305e-05
-0.0002929834635
-0.0002903538351
-1.175524427e-05
0.0002876733132
1.74775499e-05
-0.0002890055427
-1.765623135e-05
4.001154714e-05
-0.0005761453897
-4.028231781e-05
0.0005764161604
-4.031984034e-05
-0.0005748951663
0.0005747780688
4.043693782e-05
-0.0005822432122
-3.985956881e-05
0.0005823540244
-0.0005793777843
0.000579429533
3.99597984e-05
1.770043651e-05
-0.0002904310181
-1.587132481e-05
-0.0002995429053
0.0002991868546
1.622737549e-05
-1.293840965e-05
1.371638984e-05
-0.0002982232254
0.0002974452452
-0.0002983217744
-1.345974284e-05
0.0002975202362
1.806036596e-05
-0.0002986648592
-1.889893992e-05
0.0002995034332
0.0003042081134
1.421554755e-05
-0.0003055944732
0.0003032035459
1.9968743e-05
-0.0003050323674
-1.813992148e-05
1.697968739e-05
-0.0003066172612
-1.679483025e-05
0.000306432404
3.276430297e-05
0.0003074411322
-0.0006153834279
-3.318964887e-05
-0.0006147697451
3.741874238e-05
-3.77726777e-05
0.0006151236804
-3.79734594e-05
-0.0006119000051
0.0006119073091
3.796615547e-05
1.572099639e-05
-0.000304411576
-1.64488383e-05
3.863006244e-05
-0.0006067228253
-3.854342997e-05
0.0006066361929
-0.0006033109063
0.0006034203798
3.850710316e-05
-0.0006113363239
-3.793495269e-05
0.0006112978172
-0.0006081156196
0.0006087328564
3.801282568e-05
1.547345371e-05
-0.0003043549948
-0.0006368625589
0.0006369177102
3.003996134e-05
1.390938343e-05
-0.000318502605
2.449819604e-05
0.0003209923982
-0.0006413400896
-2.524593612e-05
-9.281984116e-05
-0.0003327465057
0.000419970586
5.595760867e-06
-1.597681903e-05
-0.000295614292
0.0002925397122
1.905139881e-05
-3.772093656e-05
-4.499023274e-06
-0.000302087832
-0.0002938634862
-1.35019736e-05
0.0002913886408
-3.170140646e-06
-0.0003044455752
1.072282831e-05
0.0002968928875
-0.0003116723783
3.113538915e-05
0.0002773668485
1.443722082e-05
-0.0003237278578
-1.476927141e-05
0.0003240599084
-0.0003233362941
0.0003247114199
1.49262476e-05
-3.559722599e-05
-0.0004153594499
0.0004509566758
1.800587475e-05
-7.260642789e-05
-0.0002365215579
2.255629623e-05
-8.433330997e-06
-0.0002423531594
0.000318149827
-7.897944227e-06
1.105717056e-05
-0.0003213090533
0.0003258785038
1.157099408e-05
-0.0003226053657
-1.484413215e-05
1.321938356e-05
-0.0003199314062
-1.383717961e-05
0.0003205492022
-9.196437133e-05
0.0004122451024
3.323292328e-05
6.559846311e-06
0.0002783570574
-0.0003643289661
-4.508944355e-05
0.0004094184097
1.361577231e-05
-0.0002886772012
-1.415902961e-05
0.0002892204585
-1.440544459e-05
-0.0002877009625
0.0002882049562
1.390145098e-05
1.289505858e-05
-0.0002887326635
-1.592928824e-05
0.0002917668932
-0.0002874797756
0.0002878598512
1.323569675e-05
-0.0002862912352
-1.652861494e-05
0.0002884144056
-1.644701891e-05
-0.0002852002533
0.0002860254253
1.56218469e-05
-1.958738923e-05
1.58223467e-05
-0.0002918492495
-1.453216829e-05
1.392740505e-05
-0.000294714741
0.0002953195042
-0.0003604855326
-3.874179626e-05
0.0003992273289
-0.0002948659932
-1.724271099e-05
0.0002943816548
-0.0002927138112
0.0002927029597
1.703905897e-05
1.464454704e-05
-0.0002926598666
0.0002924539434
-0.0002942261762
-1.444967688e-05
0.0002941436848
0.000300758317
-1.213795614e-05
1.399338709e-05
-0.000302613748
0.0003001162898
-0.0003020510995
-1.745085163e-05
-0.0003040565979
-1.697744485e-05
0.000303942669
1.819344531e-05
-1.414667586e-05
0.0002960695203
-1.066520076e-05
1.184541659e-05
0.0002995781012
9.782669974e-06
-9.29064315e-06
0.0003093791918
3.797989412e-05
0.0002837648864
-0.0003038360776
-6.478547534e-06
0.0002996494244
-0.0003029143417
0.0003037684936
1.825319841e-05
9.254578329e-05
-0.0003068525326
0.0002519205354
-0.0003052035128
-1.077052096e-05
-1.847235143e-05
-0.0003161813009
0.0003172016995
1.745195279e-05
-0.0003133953447
-1.496638812e-05
0.0003098893814
1.719618254e-05
-0.000315459075
-1.513245219e-05
1.47676756e-05
-0.0003159034213
-1.499512657e-05
0.0003161308723
-1.621172986e-05
-0.0003129797538
0.0003136341484
1.555733528e-05
9.284469988e-06
-0.0003133032779
-7.653570447e-06
1.543835713e-05
-0.0003120296444
-1.559102121e-05
0.0003121823085
-1.56423151e-05
-0.0003116137773
0.0003113977485
1.585834388e-05
-0.0003129309698
-1.643741869e-05
0.0003131566586
-0.0003116298579
0.0003114099278
1.565828725e-05
1.342001307e-05
-0.0003085811183
0.000325744434
1.545100882e-05
-0.0003259532858
-1.524215695e-05
1.226172027e-05
-0.0003248169081
-1.268056296e-05
0.0003252357508
-0.0003244371811
0.0003251930238
1.368137807e-05
0.0002862563459
-1.448041499e-05
1.603113035e-05
-0.0002878070613
0.0002905264224
-0.0002908740975
-1.794311916e-05
-0.0002888780033
-1.813242707e-05
0.0002895763194
4.432975397e-05
-1.847997913e-05
0.0002646766476
-1.128600324e-05
1.499520159e-05
0.0002825471476
0.0004059184948
1.917501717e-05
-0.0002852495336
-1.657602414e-05
0.0002826505406
-0.0002881415825
0.0002890713596
1.196528154e-05
-0.0002875162265
5.203363757e-06
0.0002710268595
-0.0002893074668
0.0002886505527
1.983193125e-05
-1.72438266e-05
-0.000289786923
0.0002895879738
1.744277577e-05
-1.890799504e-05
1.818984607e-05
-0.0002885893178
-0.0002881665387
-1.383010278e-05
-1.333529692e-05
1.264583551e-05
-0.0002994219708
0.0003001114322
-0.0002990348294
-1.334406629e-05
0.000299440486
-0.0002998878489
-1.553211229e-05
0.0002995486364
-0.0002990767652
0.0003003913178
1.674581339e-05
-1.963499964e-05
-0.0003808382468
0.0004004732464
-0.0002987709828
-1.296564468e-05
0.0002984013305
1.74312111e-05
-0.000310602136
-1.869584413e-05
0.0003118667691
-1.432577818e-05
-0.0003083409141
0.000306677206
1.598948629e-05
-0.0003100861117
-1.520406576e-05
0.0003096478624
-0.0003113612124
0.0003135953772
1.519704626e-05
-3.007058936e-05
-0.0004024600035
0.0004325305929
2.013671138e-05
-1.759612759e-05
0.0003006629621
0.0003013762304
1.261455299e-05
-0.0003108167958
-1.545279766e-05
0.0003119438152
-0.0003058264995
0.0003045838475
2.137936332e-05
-0.0004114648334
0.0004446977567
-1.52460373e-05
-0.0003168420669
0.000316123355
1.596474922e-05
-2.69167737e-06
1.443879053e-05
-0.0003086939563
0.0002969468431
-0.0003254526068
-9.391017083e-05
-0.0003151398754
3.318512131e-05
0.0002792630767
-0.00031726001
-1.573087046e-05
0.0003177448432
-3.459926421e-05
0.000267523857
-0.001131489293
-0.0001001582889
-0.002221989768
-0.0002797228052
0.002243099471
-0.0002427043454
0.002132836767
0.0002509228425
-2.153591259e-07
1.276749184e-05
-0.0003094782506
0.0002969261178
3.59663859e-05
-0.0003167576181
0.0002805758731
0.002568809165
0.0002457962956
-0.000412524417
0.0004484908029
3.161548789e-05
-0.0006418720336
-0.001299122942
-6.478765865e-05
0.0006490724001
-0.001298862811
-8.294105734e-05
0.001298766814
-0.0002736776932
-5.824955103e-06
0.0002805504379
-1.047789586e-06
2.861074186e-05
0.000288336076
-3.193573271e-05
-0.0002850110852
0.0003120590188
-0.0003021021348
2.367794786e-05
-0.0003011302108
-4.551334046e-05
0.0003318768963
-0.0002884563123
-3.128390841e-05
0.0002835487381
3.619148259e-05
-2.147552431e-05
2.466891976e-05
-0.0002768710887
-0.0001137725791
-0.001103186631
0.001112556751
0.0001044024587
-0.0001134872677
0.0001042992891
-0.001129124223
-0.0005713833142
-4.561431329e-05
-0.0002854017877
-1.786904261e-05
0.0002850326212
1.823820905e-05
-1.380289334e-05
1.335850417e-05
-0.0002870353864
1.493303033e-05
-0.0002889293766
-1.473631728e-05
9.928349448e-06
-0.0003254649976
-1.021646361e-05
0.0003257531118
-0.000325191405
0.0003259656405
1.148748482e-05
1.171790668e-05
-0.0003290134035
0.0003211355376
2.450900283e-05
-0.0006420143551
2.450368662e-05
-0.0006455196341
-2.473033303e-05
2.94596774e-05
-0.000645034715
-2.955639188e-05
0.0006451314295
1.50450807e-05
-0.0002882536329
-0.0002867226912
-1.743483743e-05
-0.0002887716661
-1.703895e-05
0.0002885667895
-9.461372318e-07
0.0003205451062
0.0003279875724
-8.41177987e-06
-0.0003284458609
8.739063002e-05
-2.417889055e-05
0.000264775833
0.0004163267649
-0.0003254121772
0.0003254284216
5.405951688e-05
-0.0002827104973
0.000231291423
-1.6799785e-05
-0.0003076675677
0.0002862784941
-1.548546561e-05
1.543311846e-05
-0.0003242581659
0.0003161453053
-1.029581295e-05
-0.000321334958
-4.99621932e-06
0.0002863776752
-1.165716479e-05
1.197334956e-05
-0.0003209607638
1.488733584e-05
-0.0003221674442
-1.470593173e-05
1.181672673e-05
-0.0003220359268
-1.169535852e-05
0.0003219145586
-0.0005733015792
-4.058084192e-05
0.0005735625808
-4.206071304e-05
-0.0005700474963
0.0005692814132
4.282679617e-05
-3.925693288e-05
3.746747534e-05
-0.0005725508352
-0.0003196924137
0.0003203109182
1.260087901e-05
1.139979257e-05
-0.0003215800643
-0.0003219855272
-1.220951643e-05
-5.465820151e-05
-0.0005612813848
0.0005708428328
4.50967535e-05
-5.959158938e-05
5.510045482e-05
-0.0005756636178
-0.0002915013385
-2.238837932e-05
-0.00028632445
-2.647334999e-07
0.0002367351532
-1.462110258e-05
1.60719144e-05
-0.0002877752618
-1.528870922e-05
-0.0002898417637
-4.774294781e-05
-0.0003628953212
0.000410638269
-0.0002843121423
-1.638529561e-05
0.0002529544901
0.0003167000927
-1.365227777e-05
-0.0003164114465
9.741009611e-06
-7.423416485e-06
0.0003143824996
0.0003076211992
1.494312356e-05
-3.117218399e-05
0.0004376450983
-0.0003151115499
3.34773265e-06
0.0002805916332
1.011799706e-05
-0.0003169406033
-0.0003155347655
1.435751658e-05
-1.442323472e-05
0.0003156004836
-0.0003155661117
0.000315666414
1.466737328e-05
1.708188835e-05
-0.0003160670067
-0.0003154341051
9.272163037e-05
0.0002604100894
-1.90752589e-05
1.730361114e-05
-0.0003136624573
-1.691559391e-05
-0.000310377788
-0.000324896574
0.0003205775176
9.486471436e-06
-1.204415609e-05
1.308511568e-05
-0.0003259375336
-0.000326546531
-1.160250386e-05
1.740051014e-05
-0.0003018122251
0.0002960142188
-4.210481558e-06
-0.0003030290202
0.0002956369979
-1.338887934e-05
-0.0003075960346
0.0003038530908
-9.577542866e-06
-0.0003076644272
-3.66984694e-06
0.0002960235594
2.855544244e-05
-0.0003107335928
0.0002779676688
-0.0004003511956
0.0004289066381
-0.0003072189398
0.0003072906932
1.690793396e-05
2.067041742e-05
-0.0003065281739
1.580027492e-05
-0.0003095649531
-1.705211756e-05
4.403021053e-06
0.000279714296
-3.644964364e-05
9.338458248e-05
-0.0003224411413
0.0002655062024
-0.0003126193588
0.000288937207
6.448011087e-06
-3.32508177e-06
-0.000315898784
1.28685445e-05
1.343692576e-05
-0.000319122689
-1.935605266e-05
0.0003014105007
-0.0002281105979
-1.116952548e-05
-0.0003984499268
0.0003806075858
-0.0003999636385
0.0003224990189
-1.285463872e-05
-0.0003219591348
9.044585434e-05
-3.378018638e-05
0.0002658333509
5.444332672e-06
3.433219625e-05
0.0002788261883
-0.0003156144119
0.0002872785581
-0.0003197227293
-3.098011288e-05
-0.0002879992606
0.0002920156493
2.696372418e-05
-4.331738839e-05
4.698507301e-05
-0.0002921239969
-0.0002989298497
-3.992129766e-05
2.617842162e-06
1.290523913e-05
-0.0002940357617
0.0002785126804
5.136687114e-05
-0.000293712288
0.0002449632591
-1.536845824e-05
1.476810415e-05
-0.0002956958889
0.000296296243
-0.0002943682981
0.000291905079
-0.0002913662232
1.480445787e-05
0.0002910466917
-1.594923888e-05
1.629981215e-05
-0.0002917167965
-1.561981395e-05
-0.0002911556917
-1.636592883e-05
1.642955867e-05
-0.0002927826073
0.0002923947896
-0.0002924609063
0.0002925539984
-0.0002988964685
1.473206978e-05
0.000298163004
-1.733350137e-05
1.857666772e-05
-0.0003001396349
-1.674431133e-05
-0.0002997330661
-1.967504782e-05
1.992702257e-05
-0.0003022584595
0.0002992852966
-0.0003003836767
0.0002955750898
-0.0002930316777
-4.413873342e-06
0.000247131068
-1.529082453e-05
1.443146448e-05
-0.0002921723177
-1.676427354e-05
-0.0002915100145
-1.499908681e-05
-0.0002909745622
0.0002910117417
-0.0002915793641
0.0002748426241
-0.0002990744028
1.351763541e-05
0.0002992731573
-1.515394255e-05
1.549803777e-05
-0.000299418498
-1.469411918e-05
-0.0002986830487
-1.606343726e-05
-0.0002990026485
0.0002988485505
-0.00029941395
0.0002989064431
-1.581648494e-05
1.796891517e-05
-0.0002974779615
0.0002953255313
-0.0002958376346
0.0002947892538
-3.60027847e-05
9.161996127e-05
-0.0003003171115
0.0002446999349
-0.0002986861882
0.0002806523186
3.839953719e-05
0.0002796231026
-3.313268655e-05
0.0004531032725
-0.0003273555155
0.0002700439384
-0.0003301715345
0.0004547263021
2.91919702e-05
4.539067513e-05
0.0002179570669
-0.0003657889374
0.0003949809076
-0.0002926780217
-0.00038215531
0.0003776562867
-2.795495259e-05
-4.827018044e-05
-0.000305930177
-0.0003035581424
-2.648464219e-05
-2.934960498e-05
-0.0003555815415
0.0003849311465
-0.0002851270602
0.0002075072748
-0.0003035736393
0.0002974966827
-0.0004034289881
0.0004345643773
-0.0003197516077
0.0002791581624
-6.370350033e-06
-0.0003236770706
-0.0003283452174
9.381588779e-06
-3.498863741e-05
-0.0003217091844
0.0002647334505
0.0004465772987
-0.0003147312563
0.0002863024652
-1.838095014e-05
-5.34070296e-05
-0.0002925409864
0.0002857074831
-0.0002880165189
0.0002403533061
0.0002866789939
-1.465943818e-05
-0.000287948844
1.87894261e-05
-1.642257449e-05
-5.233900194e-05
6.793406851e-06
-0.0002816316933
0.0002584529908
-0.000287840608
0.0002412269853
-0.0002939662748
1.666704959e-05
0.0002912266303
-1.569475533e-05
1.541791368e-05
-0.0002936894332
-1.619698689e-05
-0.0002942125094
-1.531548e-05
-0.0002938031814
0.0002934678162
-0.0002933653825
0.0002713930695
-0.0002931926827
1.483913306e-05
0.0002929980966
-1.644768787e-05
1.646875082e-05
-0.0002932137456
-0.0002926779958
-1.622294394e-05
-0.0002942002192
0.000294123413
-0.0002938776061
0.0002945128691
-0.0003005524418
0.0002987901017
1.575572716e-05
-1.501675621e-05
-0.0003020587612
1.652307564e-05
-1.371661853e-05
-0.0003039138857
-1.329451298e-05
-0.0002989713155
0.0002981191527
0.0002973410053
0.0003975228672
-9.311710734e-05
-0.000313696403
-2.734666015e-05
0.0004248695273
4.148792299e-06
0.0002778837394
-0.000309570096
0.0002544328828
2.508373895e-05
-0.0003075336583
0.0002759713718
-0.0003920681933
0.0004171519322
-0.0003100144
1.049199003e-05
-1.815213275e-05
1.478220962e-05
-0.0003066444769
-0.0003050776428
-1.32994049e-05
-0.0003056207264
0.0003078121892
-0.0003063293845
9.329710354e-05
-3.721956048e-05
0.0002611241564
-0.000321424563
0.0004072982501
-0.000317624888
-3.245337901e-05
0.0004397516291
-2.967104922e-06
1.457856523e-05
0.0002960097389
0.0002789620157
0.0003082710565
-0.0003131194475
1.461954892e-05
0.0002969992402
0.0002872893698
-1.348750547e-05
-0.000312703015
1.288724265e-05
0.0003183609282
-0.0003145448225
-0.0002891594811
1.722998402e-05
0.0002879606274
-1.676381013e-05
1.717953531e-05
-0.0002895752062
-0.0002888033326
-1.576753885e-05
-1.731621517e-05
-0.0002903221559
0.0002902485651
-0.000290385245
0.00028953543
-1.547663196e-05
0.0002865320828
0.000287479197
0.0002815939835
-1.389340665e-05
-0.000284276601
1.473667495e-05
-1.048202876e-05
0.0002773393373
2.059589242e-05
0.0002767913231
-6.879453666e-06
0.0002436118113
-0.0002838181807
0.0002664566983
-0.0002857463058
5.119778338e-05
-0.0002913397893
0.0002453453697
4.696759821e-05
0.0002622788469
-0.0003649367737
0.0004119043719
-0.0002939070591
-0.0002983200592
1.338189675e-05
0.000297583998
-1.385254218e-05
1.424865418e-05
-0.0002987161712
-1.395580333e-05
-0.0002993187097
-1.450576192e-05
-0.0002992231866
0.0002989303986
-0.0002991875063
0.0002989682291
-0.0003018037673
8.169232957e-06
0.0002739995347
-1.324726654e-05
1.28917802e-05
-0.0003014482809
-0.000302465552
-1.34769698e-05
-0.0002992498163
0.0002989063148
-0.0002994915044
0.000294109903
-3.8216323e-05
9.302708602e-05
-0.0003139362322
0.0002591254691
-0.0003060036199
0.0002851878071
-0.0003108667671
0.0002771263308
-8.085425354e-06
-0.0003123588846
-0.0003175183429
0.0002995958625
-1.521871294e-05
-0.0003019732772
1.386732864e-05
-1.28359546e-05
0.0002985644885
1.837878312e-05
0.0002961515076
1.087885364e-05
0.000294646169
-0.0002991795584
0.0002972224574
-0.0003017837183
0.0003160001619
-1.93976435e-05
-0.000312055316
9.674087211e-06
-9.402512097e-05
1.08843096e-05
3.866624817e-05
0.0002842963825
-0.000311553536
0.0002561946633
-0.0003095718162
-0.0003115098406
3.752825201e-05
0.0002884203791
-1.511983622e-05
1.901288493e-05
-0.0003154028893
-9.8423996e-06
-0.0003139713929
-1.817601554e-05
-0.0003217424999
1.446590864e-05
0.0003204102267
-0.0003195733573
0.0002640283079
-3.718666011e-05
9.336321474e-05
-0.0003183267496
0.0002621501949
-0.0003102498815
0.0002876417866
-7.212940825e-06
-0.0003177693342
0.0004088821906
-0.0003227319167
0.0004420673119
-0.0003167545154
0.0002865582723
-0.0001304327514
-6.575976969e-07
5.24438948e-07
-1.190214104e-08
-0.000128385484
-5.624949206e-07
-9.557124848e-05
6.702565692e-06
-2.938563803e-06
0.000110404065
0
7.750518977e-08
3.159441769e-09
-7.802654253e-05
-2.945273017e-06
-2.377366298e-05
4.913896432e-06
-1.157606919e-06
4.047066609e-05
0
0
0
-1.092571506e-05
-4.10988692e-07
0
1.840169026e-08
0
1.245508508e-07
0
0
0
0
0
0
0
0
0
0
0
0
0
0
0
0
0
0
0
0
0
-0.0006898726275
8.610994872e-06
-4.10226685e-06
-2.117275842e-07
-0.0006875052872
-1.170247302e-05
-0.0006097213417
4.029727783e-05
-2.88945531e-05
0.0006470834846