/*--------------------------------*- C++ -*----------------------------------*\
| =========                 |                                                 |
| \\      /  F ield         | OpenFOAM: The Open Source CFD Toolbox           |
|  \\    /   O peration     | Version:  v2012                                 |
|   \\  /    A nd           | Website:  www.openfoam.com                      |
|    \\/     M anipulation  |                                                 |
\*---------------------------------------------------------------------------*/
FoamFile
{
    version     2.0;
    format      ascii;
    class       volScalarField;
    location    "1.34";
    object      k;
}
// * * * * * * * * * * * * * * * * * * * * * * * * * * * * * * * * * * * * * //

dimensions      [0 2 -2 0 0 0 0];


internalField   nonuniform List<scalar> 
3259
(
34.91827869
34.93039342
34.96256284
35.03376857
35.16148814
35.39571452
35.84757305
36.44200228
37.39912771
38.83163931
41.16039667
43.20594666
34.78877024
34.80334981
34.84192139
34.92377232
35.06983417
35.34490362
35.8439965
36.49451673
37.54093212
39.11182053
41.65584928
41.83962826
34.66519532
34.68211883
34.72659405
34.81839854
34.97716623
35.28111203
35.8148003
36.50575053
37.60994501
39.28252805
41.96328136
37.90477411
34.54481959
34.56395311
34.61368681
34.71492758
34.88620685
35.21379175
35.77670168
36.49527458
37.63344869
39.35627072
41.96004522
33.49790264
34.42724015
34.44834703
34.50236577
34.61167927
34.79409046
35.14036158
35.72669344
36.46568992
37.61714517
39.34043958
41.61431557
31.58700368
34.30916368
34.3320057
34.38959598
34.50614557
34.69880731
35.05918445
35.66237562
36.42081014
37.57258389
39.24466786
41.16359191
31.17750473
34.19166019
34.21594098
34.27616344
34.39822671
34.59900277
34.96963737
35.58390203
36.35424318
37.51556177
39.13759384
40.68578371
30.1661939
34.07108685
34.09656278
34.15896598
34.28598536
34.49414202
34.8719821
35.49272202
36.26898427
37.43137092
39.00589951
40.16672151
27.56874474
33.9507068
33.97709607
34.04092149
34.17111392
34.38418835
34.76696381
35.39072899
36.16887061
37.3260756
38.83572894
39.59907072
25.38971634
33.82572454
33.85285466
33.91803088
34.05152792
34.26964912
34.65565048
35.27999418
36.05727603
37.20501225
38.63664588
39.00430727
23.76957567
33.70227402
33.72992343
33.79584686
33.93082642
34.15115481
34.53923917
35.16244345
35.93707686
37.07209504
38.41524404
38.40809714
22.58105772
33.57289917
33.60099859
33.66794709
33.80549077
34.02961194
34.41891802
35.03982563
35.81063417
36.93007925
38.17479982
37.82465211
21.71026164
33.44780844
33.47619337
33.54357617
33.6815197
33.90567553
34.29577151
34.91369135
35.67989161
36.7807158
37.91804868
37.26036536
21.06133425
33.31465652
33.3433492
33.41172335
33.55224319
33.78021764
34.17068582
34.78528183
35.54629516
36.62478021
37.64685295
36.71543959
20.53839006
33.19010652
33.21897439
33.28764742
33.4277439
33.65360316
34.04438313
34.65555465
35.41078495
36.46252777
37.36521555
36.18613998
20.07119044
33.05347834
33.08261009
33.15236636
33.29554607
33.52663544
33.91742728
34.52518299
35.27388361
36.29417535
37.07708937
35.66732967
19.63119079
32.9320654
32.96133987
33.03134963
33.17329605
33.39928754
33.79026744
34.39464883
35.13587441
36.12017048
36.78563661
35.15486647
19.21550761
32.79132388
32.82087582
32.89208223
33.03791677
33.27247004
33.66328396
34.26429161
34.99688729
35.94113873
36.4913829
34.64624861
18.82844036
32.67625806
32.70596268
32.77746113
32.92127884
33.1456866
33.53678313
34.13437519
34.85698741
35.75780104
36.1947343
34.14029237
18.47312377
32.52935975
32.55939096
32.63214627
32.78060118
33.02026064
33.41107301
34.00512179
34.7162377
35.57085211
35.89614028
33.63679281
18.15281571
32.4250256
32.45523321
32.52843058
32.67461102
32.895038
33.28644606
33.87674157
34.57469994
35.38093656
35.59622102
33.13607279
17.86817811
32.26795609
32.29856252
32.37299571
32.52340887
32.77247729
33.16345983
33.74958716
34.43247873
35.18863258
35.29540487
32.63892422
17.61911893
32.18029572
32.21112364
32.28620224
32.4364622
32.65095356
33.04315701
33.62476497
34.28966313
34.99436343
34.99408511
32.14685752
17.40471642
31.98035462
32.01178195
32.08853467
32.2429114
32.5368662
32.92823593
33.50614945
34.14675965
34.7994153
34.69500577
31.66435949
17.22120163
43.24491358
42.30456838
41.0604435
43.33160542
41.5636232
42.82256256
43.28913497
42.88860535
32.34427232
34.83578277
40.80878947
34.98398723
33.01093921
39.90342843
32.28300924
42.84152636
31.93009443
74.33937116
32.92772384
31.93724578
46.37670423
33.89370826
40.97262689
40.48429385
41.5902444
41.14670852
34.04496031
36.7070156
42.14602289
41.73528215
42.27438055
36.84948395
35.10961431
34.98380733
40.29660127
39.83732665
31.94265813
33.12828196
41.57118225
41.41502538
32.515029
66.45717763
41.70223803
58.50625826
32.4350311
44.12225022
40.624982
41.90694379
42.36645683
42.73112738
41.3376021
33.59410346
41.26461782
32.70862215
37.64677212
37.22995842
66.76546051
49.95545988
35.55843524
33.81519483
38.90929041
38.56351159
37.77775608
37.09463034
36.69674712
32.15747623
40.67805002
31.9260901
84.76893365
43.21393469
41.7154175
46.52214095
32.75373455
32.01627483
38.23321335
37.77188995
33.02904483
34.37767861
38.74714186
38.36379222
35.44249018
34.37268419
32.09856794
36.50944985
35.83293182
67.10364729
74.21819247
31.85749885
78.27954623
58.1994922
41.15280342
32.6866854
66.23472646
44.11220113
76.19229698
45.82893718
32.12877014
39.23468032
38.86817582
34.49495348
35.78968067
39.73702589
39.35508247
32.31243459
32.34323078
33.13792523
31.918631
32.86756147
32.27505636
32.29635049
31.95083016
40.21417132
39.85950156
36.11277111
37.24338694
40.64005753
40.32043275
33.28870266
33.35531599
35.22122809
34.84546212
33.12417314
33.21579756
32.0535166
32.82660662
32.22415084
108.1132435
32.34055294
41.21818188
53.5921874
48.40931691
32.05943983
32.09045914
32.55862162
65.24019474
70.46081226
68.24613998
52.29474958
32.39998465
32.01803154
32.04076056
41.22324374
32.70374713
32.66614626
32.48794634
33.37364196
32.38677691
32.50920321
34.11264681
33.35235865
39.51411542
32.18936769
33.63930485
33.49524066
31.89495737
82.79671858
84.28190524
62.01310518
73.81852363
63.55642303
32.20950154
32.24593053
32.81381798
31.9796306
32.54835597
32.49947178
32.62635571
32.59300189
32.76054232
33.01614371
34.65043683
32.33108444
32.27970772
32.44810439
32.38497916
33.4185903
33.13274502
32.03612873
65.21412246
91.23719662
96.78412915
90.35181463
91.55626959
70.35784109
32.07116411
68.74605835
50.45567215
53.95487916
32.62486133
32.11379846
32.16605342
66.4126726
73.4751194
71.67826565
57.98861014
64.48262186
78.39500713
73.76393206
48.76512578
69.6395476
61.16727394
32.31259988
31.94200563
32.19185021
36.43202964
37.09683985
37.36989814
38.3677711
38.77542637
40.34885162
36.48633679
37.21659557
37.12165536
37.51441322
38.60676353
38.41487355
39.05554506
40.8005879
40.43961771
41.27366139
42.30279579
42.15511126
43.07419733
41.97598793
42.30985184
36.50534086
37.28152317
37.23796438
37.59764371
38.76344833
38.65364297
39.2477924
41.13857874
40.8963714
41.74861106
42.51605174
42.59604981
41.73686865
38.61960183
39.42125266
36.50036342
37.30580769
37.29060569
37.63127913
38.84062859
38.79138413
39.34689189
41.2878521
41.19772466
41.9998429
40.761562
42.07759938
34.42548051
36.47432023
37.29491986
37.30568623
37.62457931
38.84532411
38.84779513
39.35248496
41.16931646
41.28546426
41.71659611
39.37218727
40.34291724
31.83461173
36.43423005
37.25700538
37.28739971
37.58450349
38.78588082
38.83638074
39.27207906
40.87403988
41.10403113
41.27958938
38.4440635
39.12045777
31.2674097
36.37287512
37.20505036
37.2461911
37.53251924
38.70572653
38.76530048
39.1635207
40.54582479
40.79199409
40.80793035
37.42437148
38.21131479
30.61797729
36.29189099
37.1272102
37.18783934
37.45464108
38.60905281
38.68539581
39.0428904
40.20138895
40.46408232
40.30148069
35.90564865
37.09123075
28.21639195
36.19512759
37.02894462
37.10432614
37.354058
38.47702827
38.57896429
38.881319
39.79692357
40.10480433
39.7447622
34.35439374
35.5017415
25.8773464
36.08609381
36.91545618
37.00182273
37.23651905
38.31836798
38.43957405
38.68868727
39.36028906
39.69048609
39.15391738
32.98948869
33.99528095
24.12949433
35.96779607
36.79065093
36.88518482
37.10626638
38.13941465
38.27532851
38.47250956
38.90017553
39.2469864
38.55635846
31.80908582
32.67786486
22.84431077
35.84271259
36.65737523
36.75803026
36.96632093
37.94398937
38.09201348
38.23649501
38.42906982
38.7828574
37.96884144
30.79191782
31.54059734
21.90441654
35.71288688
36.5176713
36.6229864
36.81868876
37.73398216
37.8928104
37.98361894
37.95887256
38.31114077
37.39954934
29.8974216
30.55968403
21.20844872
35.57989619
36.3727567
36.481897
36.66436071
37.51039362
37.67932427
37.71582224
37.49478749
37.84219318
36.85001087
29.07427411
29.6860525
20.66235157
35.44480242
36.22318466
36.33578724
36.50367365
37.27534435
37.45259569
37.43634892
37.0379265
37.37991461
36.31728373
28.29374685
28.87620769
20.18549968
35.30821813
36.06913436
36.18508408
36.33681772
37.03117679
37.21506685
37.1495847
36.58727011
36.92475333
35.79631451
27.53395037
28.10236905
19.73963891
35.17046668
35.91075223
36.02993043
36.16417022
36.77964904
36.9689497
36.85876212
36.14095424
36.47535037
35.28254443
26.78769569
27.34615557
19.31738407
35.03171683
35.74830425
35.87050628
35.98632764
36.52244932
36.71579455
36.56519314
35.69737363
36.0298575
34.77310606
26.05733231
26.60376418
18.92281472
34.89203946
35.58216137
35.70709629
35.80399738
36.26138229
36.45749356
36.26908399
35.25549919
35.58677758
34.26650616
25.34690069
25.87839159
18.55914664
34.75149822
35.41278291
35.54010026
35.6178931
35.99788708
36.19563223
35.97093301
34.81492743
35.14525275
33.7623067
24.66054325
25.17434929
18.22945221
34.61014692
35.24061903
35.36998326
35.42865764
35.73267931
35.93175392
35.67129397
34.37560652
34.70501383
33.26061711
24.00114406
24.49605659
17.9351497
34.46809079
35.06613994
35.19719816
35.23690476
35.46586315
35.66611203
35.37065442
33.93767834
34.2661253
32.76174294
23.37036989
23.84658263
17.67554278
34.32541128
34.8897273
35.02220524
35.04306204
35.19767638
35.39896169
35.06918795
33.50090023
33.82898134
32.26543416
22.76876924
23.22825395
17.4500734
34.18208648
34.71148372
34.84538562
34.84725414
34.92753825
35.13064553
34.76580856
33.06272618
33.39453385
31.76896694
22.19604399
22.64283333
17.25472368
34.02929725
34.52014078
34.66774688
34.63686243
34.63707449
34.86344572
34.43950854
32.59282966
32.9671075
31.23862372
21.61515322
22.09178758
17.07761877
42.41708094
42.7214768
43.36355717
39.60623724
40.15306182
42.46144693
43.64234512
42.1028839
41.92656405
40.95348484
43.4439033
42.39766156
42.52510174
42.56335124
42.34197059
41.35949055
43.09123352
42.7078278
42.88619917
42.56470764
42.68060995
43.14785958
41.49289126
41.85526454
43.0312005
32.41153176
34.0703381
33.93334723
36.66955423
36.52976544
34.71454751
28.37951128
32.75911428
41.08093097
47.2381136
42.75369835
44.23569794
44.93782703
35.17935738
36.99662217
36.82228545
40.73832333
37.37392033
43.40009238
42.81696366
40.93308598
33.07900784
32.55722698
33.82901466
33.71371015
32.24058319
42.69396284
40.97024216
41.35495982
71.97711792
68.85564482
68.6665486
35.55133944
35.37822966
33.74671991
40.83256643
39.5042438
39.63252188
38.46043374
38.98620727
40.6429938
41.44681024
40.29005257
40.47882889
39.89652316
40.07652418
41.29108721
34.14740161
35.84873096
35.71305677
38.15470776
38.005378
36.55086415
42.01277536
41.05509293
41.23513575
40.67507951
40.86573443
41.87529947
42.52059933
41.73405518
41.40727516
41.57334716
42.39914758
36.98338578
38.43137208
38.29539794
40.16995531
37.92853948
38.31828213
37.19555626
37.75713602
39.89813262
41.4511123
41.87897815
41.91313689
44.51537787
43.50234394
41.20546203
42.21616933
47.8664139
45.83203359
42.72371217
40.89512916
42.62750112
42.57763425
41.83123776
42.3333983
42.99089446
42.95396828
42.9058758
42.94360019
42.44029504
38.75007293
39.1812903
41.53063275
35.63081363
34.98905446
34.79587224
37.47203964
36.87323292
42.0392254
34.51216148
34.2516696
32.5252466
37.50613614
36.02535498
36.22406092
35.71082569
35.85831087
37.36620052
55.68492514
44.12937293
43.63015522
46.76044455
45.81814321
55.08180746
33.53526256
33.60333423
35.67887514
33.82136227
34.3293723
38.78464702
38.26793062
35.53376447
35.89848004
34.86241366
35.31535405
38.02210782
36.96224197
35.44520067
35.58166209
35.17462126
35.33263776
36.82153714
40.91882608
42.93262171
48.12536155
47.21834946
49.3822666
53.7876874
42.53242286
91.32215093
106.046815
38.08055823
36.8475373
37.01200383
36.44130068
36.6543092
37.94194855
33.44567661
35.1267646
34.83682125
36.12474263
35.9910953
34.26968903
38.61600364
37.44219715
37.57884618
37.16194229
37.30240053
38.49501776
35.33408644
33.41731378
33.4727421
36.40961037
34.79399977
35.06389546
33.439952
34.57131712
35.91088053
46.64446591
48.10782582
61.86428004
41.18284522
42.82102133
42.40734076
54.86669507
51.06017093
42.96969149
39.11050166
37.98123727
38.11616253
37.7147659
37.84830864
38.99302823
34.60323195
36.39508332
36.26260148
37.42596155
37.20117807
35.45505667
39.6061916
38.56122325
38.72501867
38.25598415
38.40324735
39.48133936
40.09770665
39.17600581
39.30873715
38.8846851
39.03619906
39.98459541
36.35747957
37.83770156
37.64430556
38.69618336
38.56458773
37.11463291
40.53365522
39.68538571
39.8093575
39.43610889
39.56197443
40.43152726
42.07130406
41.90954978
41.34412636
52.22635113
44.58176611
45.22654889
43.6372312
43.86591873
50.08499126
41.81364829
33.63714372
33.27729184
33.36556106
32.80581578
33.12648471
33.48572869
38.79337779
34.09198564
33.85481776
86.5831082
86.53340374
56.79333307
77.94172085
96.45678144
95.79189715
94.55048942
96.29416451
76.46703135
35.21507662
35.30727134
35.43897832
35.62191751
35.86265367
36.25263644
35.11651039
35.22467364
35.25577755
35.37658377
35.58412555
35.58780822
35.85444395
36.28620225
36.25687362
36.45010521
36.65613767
36.64358911
37.42872394
37.74108492
37.70450218
38.89317209
39.37086161
39.29921396
43.16159719
42.99090483
43.05000298
35.02259864
35.14508252
35.18234279
35.3136478
35.5409457
35.56321053
35.83037882
36.29045508
36.28897513
36.49964828
36.72596523
36.71627254
37.56263999
37.90191751
37.87479356
39.16174893
39.6899379
39.62867478
34.93135644
35.06597175
35.10312007
35.24848713
35.49180296
35.51734979
35.7968755
36.27681895
36.28822411
36.50525571
36.74457946
36.74274753
37.61942383
37.97543053
37.96272819
39.31102522
39.87744875
39.8403663
42.00285506
42.61456419
42.63094358
36.79835172
27.29097609
28.8466014
34.84023415
34.98454093
35.02326808
35.1783325
35.43379756
35.46400399
35.75342041
36.24738232
36.26966175
36.4892704
36.73645462
36.74073805
37.63242034
37.99583171
37.99535206
39.36072905
39.93646747
39.93285389
41.89280967
42.26026227
42.37908694
32.7455293
22.88089851
23.86732851
34.74679209
34.89853479
34.93997853
35.1011289
35.36545305
35.40096366
35.69635024
36.20277324
36.23736843
36.45657222
36.70589129
36.71466914
37.60767443
37.9713173
37.98148411
39.32127733
39.87089616
39.89988649
41.50615718
41.68768852
41.83981333
31.42801404
19.53872159
20.13050788
34.64931994
34.80663073
34.8514091
35.01573278
35.28627549
35.32719742
35.62483115
36.13817816
36.18789714
36.40622516
36.65987304
36.67361496
37.56071824
37.9183004
37.93173581
39.21704778
39.7213555
39.76052482
41.04671108
41.06218865
41.21948182
31.07941992
17.79760592
18.18599942
34.5469953
34.70833804
34.75661755
34.92201423
35.19673075
35.24273452
35.53978703
36.05570855
36.11872533
36.33460085
36.59047744
36.60982852
37.49684583
37.8539607
37.87299886
39.10895669
39.56803621
39.60706518
40.56116731
40.38220059
40.56276963
29.63549908
16.98298373
17.04241915
34.43946345
34.60377757
34.65543379
34.82051941
35.09792837
35.14839746
35.44294603
35.95849185
36.03238432
36.24524773
36.50164904
36.52541795
37.40678631
37.76053976
37.7862429
38.96652389
39.38084237
39.43189513
40.02889919
39.60579722
39.80345608
26.96457574
17.10083604
17.06912681
34.32712534
34.4934952
34.54817784
34.71216613
34.99118641
35.04546055
35.33632587
35.84965865
35.9320677
36.14193994
36.39786028
36.42500039
37.29710745
37.6447721
37.67548165
38.78832731
39.15262603
39.21291851
39.4517007
38.8109304
39.00912271
24.93770681
17.20296262
17.1813012
34.210405
34.37833918
34.4355753
34.59812357
34.87785456
34.93525748
35.22195711
35.73205393
35.82085902
36.02793476
36.28279382
36.31245156
37.17276609
37.51216269
37.54665342
38.58322061
38.89413011
38.96125853
38.85467005
38.03285525
38.22457719
23.43715008
17.26315828
17.25209249
34.09032854
34.25926036
34.31851917
34.47958635
34.75927232
34.81913284
35.10166313
35.60805605
35.70149517
35.9059645
36.15936542
36.19087661
37.03735699
37.36667618
37.40408889
38.35669754
38.60946621
38.68299777
38.26067413
37.29000669
37.47181365
22.33820797
17.28208132
17.28196948
33.96736148
34.13720905
34.19800379
34.35770911
34.63675945
34.69842556
34.97711139
35.47965082
35.57625578
35.77827926
36.02988152
36.06271636
36.89338043
37.21090736
37.2507209
38.11205947
38.30237809
38.38074002
37.68169906
36.59040753
36.76118932
21.53085258
17.26498103
17.27245401
33.84271862
34.01302993
34.07490425
34.2334767
34.51151654
34.57441214
34.84970319
35.34837111
35.44702957
35.64670902
35.89614482
35.92990471
36.74233196
37.04615448
37.08815529
37.85149248
37.98161035
38.06258397
37.12242327
35.93205854
36.09319457
20.92288863
17.20792629
17.22549662
33.71640905
33.88742311
33.95004258
34.10769238
34.38453215
34.44818734
34.72053467
35.21529617
35.31523186
35.51256381
35.7593765
35.79380842
36.58480166
36.8728117
36.91693794
37.57722859
37.6547788
37.73693532
36.58185647
35.30590543
35.46005559
20.41854594
17.11919525
17.14306179
33.58983706
33.76097598
33.82400437
33.98098614
34.25656536
34.32063339
34.59041314
35.08111024
35.18183848
35.3766693
35.62028086
35.65525304
36.4209972
36.69124701
36.73737479
37.29368439
37.32365309
37.40675848
36.05565181
34.70047531
34.85047404
19.95964452
17.01645394
17.04209598
33.46226344
33.63413823
33.6974032
33.85386755
34.12818343
34.19240025
34.4599079
34.94622532
35.04745217
35.23947137
35.47918226
35.51463568
36.25118124
36.50219011
36.55010258
37.00447637
36.98957707
37.07333232
35.53874372
34.10644806
34.25424113
19.52529373
16.9139065
16.93828903
33.33565069
33.50730998
33.57053452
33.72672863
33.99981536
34.06398748
34.32941939
34.81089119
34.91244613
35.10120959
35.33623378
35.3721415
36.07585396
36.30663824
36.35607224
36.71232813
36.65343921
36.73761072
35.02740538
33.5187716
33.66528501
19.1165316
16.82684997
16.84594167
33.20809741
33.380761
33.4439341
33.59990234
33.87177827
33.93577335
34.19922765
34.67522703
34.77702613
34.96198661
35.19150883
35.22785635
35.89567381
36.10571668
36.15639708
36.41741355
36.3160153
36.40047958
34.51949051
32.9353537
33.08095748
18.73678814
16.76295177
16.77621348
33.08282734
33.25477877
33.31765687
33.47362012
33.74431986
33.80807053
34.06954623
34.53930615
34.64129629
34.82187334
35.04510174
35.08185638
35.71137738
35.90042983
35.95211611
36.12024325
35.97762983
36.06230613
34.01410582
32.35582259
32.50054372
18.38992773
16.72773436
16.73310302
32.95589255
33.12943469
33.1923317
33.34804352
33.61756774
33.68115554
33.94048537
34.40315425
34.50531963
34.68091806
34.89712619
34.93426016
35.52362585
35.69158024
35.74406825
35.82126436
35.6384862
35.72333131
33.51113155
31.78074331
31.92457644
18.07797382
16.72011579
16.7194939
32.83287815
33.00478515
33.06780059
33.22309328
33.49146877
33.55533664
33.8119459
34.26684145
34.36912426
34.53920142
34.74773805
34.78520678
35.33306438
35.47999472
35.53311732
35.52108045
35.29885508
35.3838033
33.01081466
31.21092262
31.35415
17.80101312
16.73754978
16.72956203
32.70577358
32.88028297
32.94524383
33.09836932
33.3655268
33.43111699
33.68341286
34.1303883
34.2327798
34.39682502
34.59712766
34.63488664
35.14023139
35.26618056
35.31983527
35.22003302
34.95897533
35.04405649
32.51333972
30.64692843
30.7908422
17.55874721
16.77611829
16.76151615
32.58344128
32.75457537
32.82490051
32.97233841
33.23815291
33.30960974
33.55293562
33.99371239
34.09631332
34.25386453
34.44544537
34.48347903
34.94545858
35.0502403
35.10450216
34.91799067
34.6184884
34.70455461
32.0176022
30.08780307
30.23684432
17.34885132
16.83143029
16.81174847
32.44080064
32.61769597
32.71053681
32.83541957
33.09970729
33.19352131
33.41087595
33.84848512
33.96008259
34.10931301
34.29161116
34.33163453
34.7471528
34.83010034
34.88855779
34.61001813
34.27169731
34.36858354
31.51774868
29.52900535
29.69618492
17.16737301
16.89981046
16.87620972
43.10781126
43.16419953
43.28705021
41.60920392
41.77183268
42.29332801
43.37140708
43.20976176
43.20598641
42.88535037
43.09643431
43.07298842
43.19800003
43.18752683
43.24437083
42.60912683
42.67509995
42.93836895
43.46967729
43.42348005
42.79010396
42.47385891
42.53988297
40.61571637
43.04641866
43.01764151
42.64903194
32.69277448
32.80363866
41.18879567
61.03519269
65.88770843
68.71823789
40.74558254
41.73985212
42.62411677
42.13233845
36.62862517
36.61758017
36.42446728
37.07572481
36.8348206
36.84979841
37.6698208
37.63422306
37.34125368
38.31627662
37.95775884
38.00096265
39.23214085
39.16288445
38.71553863
40.25353891
39.66927607
39.75038202
36.70333498
36.6695218
36.45916532
37.16741058
36.90542511
36.94648354
36.87006931
36.88773104
37.1449993
37.84245367
37.77424902
37.45627102
38.51374531
38.12509168
38.20477293
38.04149644
38.08580128
38.46774281
39.56092999
39.4327793
38.94664522
40.62201703
39.98473349
40.13635134
39.82861651
39.91327585
40.53929779
42.8684325
42.93021079
43.12060069
42.08816444
42.60523482
42.52109212
42.76909656
42.68853295
42.20158909
36.73897813
36.73360028
36.50328183
37.26994249
36.98713283
36.99584156
36.96324539
36.97626367
37.25496716
37.94659091
37.92580277
37.58174272
38.73142363
38.30693037
38.33283083
38.24381812
38.27715829
38.69449711
39.79718562
39.74646353
39.20743985
41.06613996
40.36211692
40.42467417
40.21766436
40.29263463
40.98499743
40.69577034
40.55951455
39.21913213
36.74334106
36.74451507
36.50350593
37.30306616
37.01030022
37.01049681
37.00292819
37.00767228
37.29778465
37.99097966
37.98480519
37.62618632
38.82900723
38.38328054
38.39195008
38.35436352
38.3707863
38.81274298
39.92191135
39.90370853
39.33194063
41.27518692
40.55330796
40.57280075
40.47746947
40.52204255
41.24568082
42.48302825
42.56759796
42.01116873
41.20902515
42.59254537
42.40260362
42.87785882
42.75608131
41.66931591
24.97876122
26.07150297
35.56359966
44.0080045
43.36880294
45.6015517
44.58390737
36.72294632
36.73030771
36.48200944
37.30042198
37.00202015
36.99564847
37.00924527
37.00650864
37.30393626
37.98885501
37.99356009
37.62956809
38.85032793
38.39804954
38.39341379
38.39715131
38.39987703
38.85189905
39.92115878
39.93248808
39.35893299
41.2246984
40.56789508
40.54134721
40.5820427
40.58023718
41.2670715
41.98768635
42.12882724
41.81046163
39.65204157
41.77059859
41.56110219
42.19371622
41.98355074
39.97402576
20.89139564
21.77177059
32.21653236
40.97384839
39.85848519
42.72068827
41.84460087
36.68579478
36.69640417
36.4459778
37.26761684
36.96890738
36.95890283
36.98749432
36.97843591
37.27791257
37.94558725
37.95910856
37.5963937
38.80574814
38.36053278
38.34453802
38.38568977
38.37398729
38.82217683
39.79918475
39.83639632
39.29840186
40.95435228
40.40322208
40.34855452
40.5014397
40.45477406
41.03162206
41.37692818
41.53289024
41.39406074
38.66374527
40.95971904
40.76231898
41.356979
41.15743405
38.88812301
18.57870579
19.01524495
31.33205059
36.06654417
34.81764107
38.65328711
37.3336827
36.62790531
36.64460002
36.39009738
37.22056612
36.92057031
36.90448152
36.94780977
36.9350457
37.23427756
37.89004401
37.90498072
37.54758461
38.72460127
38.29628291
38.28055396
38.32811095
38.31174192
38.74470181
39.64398836
39.68242635
39.18966995
40.62745104
40.17830708
40.12172257
40.29221546
40.23514606
40.70935825
40.7352182
40.90117649
40.9281165
37.7080053
40.13696579
39.90962177
40.56062415
40.3539875
37.97418245
17.19963755
17.44674449
30.88634294
32.01645577
31.37422377
33.73485478
32.76227396
36.54819303
36.56989899
36.31370107
37.14881976
36.84749204
36.82588636
36.88687636
36.86785149
37.16906364
37.81045619
37.83306819
37.47650128
38.63693479
38.22015637
38.19580658
38.26268248
38.24249931
38.6624451
39.48024784
39.52570749
39.0773155
40.29390428
39.95118267
39.88869377
40.06641209
40.01027619
40.3816213
39.9992927
40.1925323
40.43297879
36.31915386
39.12687567
38.84604119
39.66540679
39.40693233
36.73578267
17.03482188
16.99841235
28.91120825
30.56401571
30.48732958
30.96399189
30.65253955
36.45137704
36.47694817
36.22056099
37.05511636
36.75444412
36.728662
36.80312675
36.77928787
37.08026966
37.70506636
37.73344781
37.38098751
38.51281989
38.11209376
38.08102287
38.16959762
38.14165568
38.54684304
39.27130097
39.32728748
38.9249494
39.90159746
39.68222232
39.60692785
39.82292058
39.75407829
40.00469639
39.20800263
39.40709286
39.8882408
34.72541295
38.0144584
37.74343283
38.56650018
38.28905221
35.10807905
17.15713839
17.13014783
26.40083188
30.17537812
30.04564685
30.39672581
30.29277102
36.34153771
36.37002842
36.11431256
36.9450201
36.64636464
36.6174669
36.70201784
36.67456342
36.97382732
37.58029187
37.61301869
37.26723609
38.36014536
37.97975542
37.94359802
38.04855117
38.01476566
38.40057873
39.0267525
39.09056138
38.73927907
39.47208716
39.36465566
39.27915606
39.52884731
39.44798838
39.58219045
38.4183389
38.61389421
39.30317542
33.31271479
36.95686768
36.7048017
37.47652617
37.21419396
33.64797373
17.23791079
17.22170036
24.51753372
29.59086932
29.41999442
29.90434358
29.75264658
36.22196751
36.25262599
35.99809204
36.82274169
36.52710822
36.49590172
36.58793117
36.55779633
36.85426713
37.44083339
37.47687189
37.13983655
38.1857957
37.82897943
37.78891839
37.90637414
37.86814911
38.23111734
38.75509988
38.82550886
38.52850842
39.01677093
39.01175977
38.92005017
39.19171837
39.10258276
39.13238816
37.65630935
37.8433749
38.70527828
32.08793958
35.98161177
35.7517013
36.45819737
36.21711123
32.3773785
17.27773086
17.27072153
23.1286691
28.85927433
28.65888285
29.24047755
29.05350457
36.09525339
36.12748462
35.8745018
36.6913622
36.3995807
36.36667658
36.4642257
36.43210823
36.7249267
37.28996477
37.32862176
37.00208708
37.99425942
37.66381871
37.62057651
37.74801884
37.70631145
38.04361445
38.45813819
38.5344335
38.29712447
38.54709769
38.64044337
38.54581102
38.82759989
38.73439958
38.66509349
36.93468142
37.11094134
38.11420267
31.03242207
35.09489123
34.88657416
35.52732848
35.3084295
31.2818152
17.27828427
17.28105463
22.11255081
28.02988039
27.81418298
28.45315103
28.2432337
35.96345436
35.99679176
35.74569533
36.5531188
36.265996
36.23184885
36.33343047
36.29986202
36.58822961
37.12961688
37.17053569
36.85624652
37.78779793
37.48650788
37.44039538
37.57660415
37.53191267
37.84074449
38.14322863
38.22316661
38.04831925
38.07596494
38.25868656
38.16220121
38.45057932
38.35483967
38.19340781
36.25653215
36.42222837
37.53999061
30.11327286
34.28969571
34.09890366
34.68314458
34.48432782
30.33402164
17.24164415
17.25431965
21.36375433
27.1650646
26.95150762
27.59747925
27.3807396
35.82808219
35.86220486
35.61338075
36.40943659
36.12791776
36.09281002
36.19744585
36.16279743
36.44581739
36.96054014
37.00361659
36.70354793
37.56752296
37.29790175
37.2490223
37.39358811
37.34608873
37.62383356
37.81879456
37.90035569
37.7840375
37.61014104
37.87136083
37.77411573
38.0654803
37.96850616
37.72594037
35.6156623
35.77294937
36.98565823
29.2749372
33.54560254
33.36632429
33.91153021
33.72721597
29.47872594
17.16629857
17.18763085
20.78964651
26.33310624
26.13756534
26.7409716
26.53492131
35.69009265
35.72480581
35.47873782
36.26100158
35.98625893
35.95033904
36.05749746
36.02197872
36.29853649
36.78301937
36.82816818
36.54443231
37.33504667
37.09854504
37.04716752
37.19949235
37.14932727
37.394141
37.48966457
37.57234675
37.50703824
37.15149798
37.48237076
37.38520125
37.67685054
37.57959243
37.26548587
35.00127373
35.15304029
36.44916179
28.4863141
32.83913112
32.66597415
33.18903757
33.01339468
28.68040543
17.06868569
17.09392773
20.30053819
25.59270145
25.42527011
25.94887313
25.76723154
35.54997144
35.5851887
35.34248676
36.10805927
35.84143757
35.80475671
35.91422912
35.87792829
36.14670994
36.5975975
36.64464901
36.37909213
37.09294808
36.88971644
36.83620578
36.99522144
36.94273004
37.15425755
37.15693088
37.24037033
37.22179684
36.69945301
37.09408566
36.99718469
37.28809399
37.19105403
36.81193537
34.40245354
34.55118377
35.9257327
27.72256891
32.15138785
31.98102571
32.49373796
32.32222351
27.91203071
16.9642543
16.98959233
19.84831915
24.96571833
24.82617544
25.26504306
25.11193194
35.40793395
35.44361682
35.20500623
35.95073997
35.69360721
35.65619125
35.76788845
35.7308397
35.99046744
36.40515544
36.45386875
36.20784366
36.8431349
36.67292162
36.61764783
36.78222314
36.72779143
36.90624894
36.82169773
36.9056914
36.93170536
36.25222291
36.70681813
36.61012378
36.9003368
36.80355334
36.36367799
33.81199806
33.95908109
35.4105008
26.97306994
31.47270635
31.3039522
31.81118535
31.6416748
27.15907814
16.86765635
16.88989293
19.42002218
24.44533157
24.32973747
24.69315739
24.56628505
35.26408997
35.30021785
35.06649711
35.78927834
35.54288248
35.50476262
35.61859849
35.58082834
35.83001448
36.20678446
36.25686969
36.03123621
36.5871657
36.44979326
36.39320335
36.56202956
36.50607412
36.65162315
36.48486898
36.56919051
36.63884456
35.80808227
36.32024127
36.22366629
36.51346581
36.41683886
35.91890168
33.22659272
33.37261954
34.90017588
26.23870097
30.80044579
30.6331467
31.13579329
30.96775278
26.42028998
16.79170293
16.8076739
19.01815643
24.01268568
23.91540699
24.21944417
24.11380944
35.11850907
35.15506156
34.9270445
35.6240173
35.38940363
35.35062814
35.46647592
35.42801913
35.66566309
36.00356352
36.05476935
35.84995859
36.32694046
36.22175637
36.16410286
36.33632439
36.2791661
36.39231529
36.14692894
36.23150116
36.34331419
35.36584329
35.93404659
35.83753848
36.12711336
36.03056513
35.47625402
32.64508453
32.79024091