/*--------------------------------*- C++ -*----------------------------------*\
| =========                 |                                                 |
| \\      /  F ield         | OpenFOAM: The Open Source CFD Toolbox           |
|  \\    /   O peration     | Version:  v2012                                 |
|   \\  /    A nd           | Website:  www.openfoam.com                      |
|    \\/     M anipulation  |                                                 |
\*---------------------------------------------------------------------------*/
FoamFile
{
    version     2.0;
    format      ascii;
    class       pointVectorField;
    location    "1.66";
    object      pointDisplacement;
}
// * * * * * * * * * * * * * * * * * * * * * * * * * * * * * * * * * * * * * //

dimensions      [0 1 0 0 0 0 0];


internalField   nonuniform List<vector> 
6962
(
(0 0 0)
(0 0 0)
(0 0 0)
(0 0 0)
(0 0 0)
(0 0 0)
(0 0 0)
(0 0 0)
(0 0 0)
(0 0 0)
(-0.0007471266656 0.0008569699621 5.606626274e-15)
(0 0 0)
(0 0 0)
(0 0 0)
(0 0 0)
(0 0 0)
(0 0 0)
(0 0 0)
(0 0 0)
(0 0 0)
(0 0 0)
(0 0 0)
(0 0 0)
(0 0 0)
(0 0 0)
(-0.001328374327 0.001299280412 9.964251646e-15)
(-0.001211050063 0.001235878146 9.076073226e-15)
(-0.001036442904 0.001101410379 7.78543896e-15)
(-0.005156357971 0.006022689923 4.243827512e-14)
(-0.005540265542 0.006214199872 4.557465516e-14)
(-0.008403696128 0.009914813068 7.26224636e-14)
(-0.007933914472 0.009747973956 6.859790513e-14)
(-0.01688006501 0.02451692003 1.718070131e-13)
(-0.01719488735 0.02397432593 1.748740042e-13)
(-0.01954865388 0.02899163933 2.11247686e-13)
(-0.01928804207 0.02980252984 2.086247841e-13)
(-0.02294114745 0.04376352425 3.058525655e-13)
(-0.02302566843 0.04213632616 3.065186993e-13)
(-0.02290921156 0.04545879354 3.307076835e-13)
(-0.02277095191 0.04711554212 3.293060269e-13)
(-0.01846491547 0.05131930522 0)
(-0.01851010462 0.04929889179 0)
(-0.01636472344 0.04924954708 0)
(-0.01634232488 0.05025940617 0)
(-0.01632020575 0.05126936575 0)
(-0.009908235382 0.05112189925 0)
(-0.009918531812 0.05061741814 0)
(-0.009387317982 0.05060555469 0)
(-0.009377071797 0.05110989609 0)
(0 0 0)
(0 0 0)
(0 0 0)
(0 0 0)
(0 0 0)
(0 0 0)
(0 0 0)
(0 0 0)
(0 0 0)
(0 0 0)
(0 0 0)
(0 0 0)
(0 0 0)
(0 0 0)
(-0.001259757553 0.001023980694 9.492406861e-15)
(-0.001423644729 0.001217605488 1.072752998e-14)
(-0.001521253618 0.001365614689 1.146305273e-14)
(-0.006136596862 0.006057184626 5.070943665e-14)
(-0.005939430581 0.005585566 4.907185769e-14)
(-0.008860866814 0.00876640713 7.689682224e-14)
(-0.009096936245 0.00944638444 7.895073484e-14)
(-0.01797487168 0.02206156059 1.835059882e-13)
(-0.01768678386 0.0206791934 1.804806304e-13)
(-0.02001101928 0.02488286276 2.168820679e-13)
(-0.02029145862 0.0264894612 2.200739591e-13)
(-0.02349153558 0.03783399719 3.137906601e-13)
(-0.02330851649 0.03573862389 3.109457136e-13)
(-0.02301589708 0.03826066047 3.329558851e-13)
(-0.02314510011 0.04042400195 3.353428646e-13)
(-0.01840877076 0.04321226971 0)
(-0.01845622065 0.04119158062 0)
(-0.01630485563 0.04114106219 0)
(-0.0162811362 0.04215117204 0)
(-0.01625740574 0.04316175128 0)
(-0.009803404558 0.04301019819 0)
(-0.009827135017 0.04199961895 0)
(-0.008751499445 0.04197436084 0)
(-0.008739628705 0.04247988515 0)
(-0.008727768986 0.04298494007 0)
(-0.009265586772 0.04299756913 0)
(0 0 0)
(0 0 0)
(0 0 0)
(0 0 0)
(0 0 0)
(0 0 0)
(0 0 0)
(0 0 0)
(0 0 0)
(0 0 0)
(0 0 0)
(0 0 0)
(0 0 0)
(0 0 0)
(-0.0002942359247 0.0001892179561 2.220446049e-15)
(-0.0005338959803 0.0003659954969 4.024558464e-15)
(-0.0007932037644 0.0005774246331 5.981326545e-15)
(-0.004551164699 0.003643167622 3.762268275e-14)
(-0.003888394404 0.002931224111 3.215483435e-14)
(-0.006334133481 0.005023882891 5.501155087e-14)
(-0.007165254139 0.006034471116 6.220024495e-14)
(-0.01549983903 0.01542770756 1.581373921e-13)
(-0.01436970884 0.01347268711 1.466604616e-13)
(-0.01668038207 0.01663179521 1.80772064e-13)
(-0.01782880207 0.01887128669 1.931371729e-13)
(-0.02165786701 0.02824035326 2.883249195e-13)
(-0.02070589966 0.02543177952 2.756406214e-13)
(-0.020880898 0.02778379928 3.011063621e-13)
(-0.02169419361 0.03064911135 3.129024817e-13)
(-0.01838651236 0.03474436451 3.555211681e-13)
(-0.01811124753 0.03219732141 3.496508638e-13)
(-0.01634576493 0.03277355183 3.563538353e-13)
(-0.0164368198 0.03505695327 3.59184904e-13)
(-0.009993226185 0.03492650304 0)
(-0.0100406871 0.03290534456 0)
(-0.007889369022 0.03285482723 0)
(-0.007841908104 0.03487598571 0)
(-0.008917590613 0.03490124492 0)
(0 0 0)
(0 0 0)
(0 0 0)
(0 0 0)
(0 0 0)
(0 0 0)
(0 0 0)
(0 0 0)
(0 0 0)
(0 0 0)
(0 0 0)
(0 0 0)
(0 0 0)
(0 0 0)
(0 0 0)
(0 0 0)
(-7.227187208e-06 4.034397375e-06 5.551115123e-17)
(-0.001729847924 0.001061871959 1.432187702e-14)
(-0.001085865524 0.0006158658256 8.992806499e-15)
(-0.00252584036 0.001507666562 2.198241589e-14)
(-0.003469561088 0.002241308205 3.018418848e-14)
(-0.01010506445 0.007725276817 1.034172747e-13)
(-0.008513276216 0.006016858194 8.723577416e-14)
(-0.01053398423 0.007923006872 1.146444051e-13)
(-0.01223789186 0.009954046746 1.329908406e-13)
(-0.01663288901 0.01668102936 2.220446049e-13)
(-0.01492531051 0.0138518663 1.996180998e-13)
(-0.01558551058 0.01567369109 2.257499743e-13)
(-0.01719504665 0.01868247967 2.485650574e-13)
(-0.01603372395 0.0232388485 3.095301793e-13)
(-0.014903054 0.01999871166 2.882555306e-13)
(-0.01388701128 0.02098836917 3.0281333e-13)
(-0.01483379471 0.02421548957 3.228806111e-13)
(-0.009716485348 0.02573199529 3.446548602e-13)
(-0.009247013283 0.02266240233 3.284178485e-13)
(-0.007366822893 0.02285377494 3.317901509e-13)
(-0.007719485614 0.02587981194 3.472500065e-13)
(0 0 0)
(0 0 0)
(0 0 0)
(0 0 0)
(0 0 0)
(0 0 0)
(0 0 0)
(0 0 0)
(0 0 0)
(0 0 0)
(0 0 0)
(0 0 0)
(0 0 0)
(0 0 0)
(0 0 0)
(0 0 0)
(0 0 0)
(-6.344912354e-06 2.710285894e-06 5.551115123e-17)
(0 0 0)
(-6.533833249e-05 2.616366988e-05 5.828670879e-16)
(-0.000386149611 0.0001735871962 3.358424649e-15)
(-0.003899760967 0.002078982756 4.013456234e-14)
(-0.002599430565 0.001234803672 2.678413047e-14)
(-0.003872422775 0.00196014814 4.24521529e-14)
(-0.005403505355 0.003068499687 5.911937606e-14)
(-0.009274419922 0.006521687754 1.250527459e-13)
(-0.00739235185 0.004640563535 1.000033389e-13)
(-0.008192822792 0.005583536134 1.201816424e-13)
(-0.01008097609 0.007691168946 1.473404732e-13)
(-0.01051833384 0.0107484655 2.058075932e-13)
(-0.008877328696 0.008121093948 1.746658373e-13)
(-0.008515182765 0.008792613309 1.89209759e-13)
(-0.01000958847 0.01153511837 2.210315264e-13)
(-0.006931641458 0.01302999577 2.506467256e-13)
(-0.005969502794 0.01009728267 2.180755576e-13)
(-0.004766551842 0.01027838629 2.22363794e-13)
(-0.005537163535 0.01323183223 2.549904732e-13)
(0 0 0)
(0 0 0)
(0 0 0)
(0 0 0)
(0 0 0)
(0 0 0)
(0 0 0)
(0 0 0)
(0 0 0)
(0 0 0)
(0 0 0)
(0 0 0)
(0 0 0)
(0 0 0)
(0 0 0)
(0 0 0)
(0 0 0)
(0 0 0)
(0 0 0)
(0 0 0)
(0 0 0)
(-0.0001676545913 5.035639227e-05 1.734723476e-15)
(0 0 0)
(-0.0001218713788 3.146507141e-05 1.346145417e-15)
(-0.0006042345387 0.0001935183515 6.661338148e-15)
(-0.002578215209 0.001028796507 3.522182546e-14)
(-0.001437455351 0.0004629011034 1.967870311e-14)
(-0.001937034147 0.0006792322961 2.883804306e-14)
(-0.00319305493 0.00138635979 4.739264536e-14)
(-0.004187103143 0.002461284059 8.394673845e-14)
(-0.002881855129 0.001372538567 5.813405313e-14)
(-0.002926209489 0.001581158055 6.696032617e-14)
(-0.004162077622 0.002771745558 9.454936833e-14)
(-0.003071741508 0.003410848031 1.166289287e-13)
(-0.0022272232 0.002020378332 8.573697308e-14)
(-0.001775968087 0.002086972644 8.867906409e-14)
(-0.002447906776 0.003505643105 1.200428645e-13)
(0 0 0)
(0 0 0)
(0 0 0)
(0 0 0)
(0 0 0)
(0 0 0)
(0 0 0)
(0 0 0)
(0 0 0)
(0 0 0)
(0 0 0)
(0 0 0)
(0 0 0)
(0 0 0)
(0 0 0)
(0 0 0)
(0 0 0)
(0 0 0)
(0 0 0)
(0 0 0)
(0 0 0)
(0 0 0)
(0 0 0)
(0 0 0)
(0 0 0)
(0 0 0)
(0 0 0)
(0 0 0)
(-1.884700228e-05 1.847869516e-06 2.775557562e-16)
(-0.0003377044891 4.535071204e-05 6.911138328e-15)
(-3.801971396e-05 7.192250139e-07 7.771561172e-16)
(-8.30253387e-05 1.795124556e-06 1.942890293e-15)
(-0.000427553776 6.541880215e-05 9.950373858e-15)
(-0.0004385769276 0.0001148376095 1.745825706e-14)
(-0.0001419253952 5.293323859e-06 5.689893001e-15)
(-0.0001215919185 5.955327132e-06 6.411537967e-15)
(-0.0003588977415 0.0001231836748 1.874889133e-14)
(0 0 0)
(0 0 0)
(0 0 0)
(0 0 0)
(0 0 0)
(0 0 0)
(0 0 0)
(0 0 0)
(0 0 0)
(0 0 0)
(0 0 0)
(0 0 0)
(0 0 0)
(0 0 0)
(0 0 0)
(0 0 0)
(0 0 0)
(0 0 0)
(0 0 0)
(0 0 0)
(0 0 0)
(0 0 0)
(0 0 0)
(0 0 0)
(0 0 0)
(0 0 0)
(0 0 0)
(0 0 0)
(0 0 0)
(0 0 0)
(0 0 0)
(0 0 0)
(0 0 0)
(0 0 0)
(0 0 0)
(0 0 0)
(0 0 0)
(0 0 0)
(0 0 0)
(0 0 0)
(0 0 0)
(0 0 0)
(0 0 0)
(0 0 0)
(0 0 0)
(0 0 0)
(0 0 0)
(0 0 0)
(0 0 0)
(0 0 0)
(0 0 0)
(0 0 0)
(0 0 0)
(0 0 0)
(0 0 0)
(0 0 0)
(0 0 0)
(0 0 0)
(0 0 0)
(0 0 0)
(0 0 0)
(0 0 0)
(0 0 0)
(0 0 0)
(0 0 0)
(0 0 0)
(0 0 0)
(0 0 0)
(0 0 0)
(0 0 0)
(0 0 0)
(0 0 0)
(0 0 0)
(0 0 0)
(0 0 0)
(0 0 0)
(0 0 0)
(0 0 0)
(0 0 0)
(0 0 0)
(0 0 0)
(0 0 0)
(0 0 0)
(0 0 0)
(0 0 0)
(0 0 0)
(0 0 0)
(0 0 0)
(0 0 0)
(0 0 0)
(0 0 0)
(0 0 0)
(0 0 0)
(0 0 0)
(0 0 0)
(0 0 0)
(0 0 0)
(0 0 0)
(0 0 0)
(0 0 0)
(0 0 0)
(0 0 0)
(0 0 0)
(0 0 0)
(0 0 0)
(0 0 0)
(0 0 0)
(0 0 0)
(0 0 0)
(0 0 0)
(0 0 0)
(0 0 0)
(0 0 0)
(0 0 0)
(0 0 0)
(0 0 0)
(0 0 0)
(0 0 0)
(0 0 0)
(0 0 0)
(0 0 0)
(0 0 0)
(0 0 0)
(0 0 0)
(0 0 0)
(0 0 0)
(0 0 0)
(0 0 0)
(0 0 0)
(0 0 0)
(0 0 0)
(0 0 0)
(0 0 0)
(0 0 0)
(0 0 0)
(0 0 0)
(0 0 0)
(0 0 0)
(0 0 0)
(0 0 0)
(0 0 0)
(0 0 0)
(0 0 0)
(0 0 0)
(0 0 0)
(0 0 0)
(0 0 0)
(0 0 0)
(0 0 0)
(0 0 0)
(0 0 0)
(0 0 0)
(0 0 0)
(0 0 0)
(0 0 0)
(0 0 0)
(0 0 0)
(0 0 0)
(0 0 0)
(0 0 0)
(0 0 0)
(0 0 0)
(0 0 0)
(0 0 0)
(0 0 0)
(0 0 0)
(0 0 0)
(0 0 0)
(0 0 0)
(0 0 0)
(0 0 0)
(0 0 0)
(0 0 0)
(0 0 0)
(0 0 0)
(0 0 0)
(0 0 0)
(0 0 0)
(0 0 0)
(0 0 0)
(0 0 0)
(0 0 0)
(0 0 0)
(0 0 0)
(0 0 0)
(0 0 0)
(0 0 0)
(0 0 0)
(0 0 0)
(0 0 0)
(0 0 0)
(0 0 0)
(0 0 0)
(0 0 0)
(0 0 0)
(0 0 0)
(0 0 0)
(0 0 0)
(0 0 0)
(0 0 0)
(0 0 0)
(0 0 0)
(0 0 0)
(0 0 0)
(0 0 0)
(0 0 0)
(0 0 0)
(0 0 0)
(0 0 0)
(0 0 0)
(0 0 0)
(0 0 0)
(0 0 0)
(0 0 0)
(0 0 0)
(0 0 0)
(0 0 0)
(0 0 0)
(0 0 0)
(0 0 0)
(0 0 0)
(0 0 0)
(0 0 0)
(0 0 0)
(0 0 0)
(0 0 0)
(0 0 0)
(0 0 0)
(0 0 0)
(0 0 0)
(0 0 0)
(0 0 0)
(0 0 0)
(0 0 0)
(0 0 0)
(0 0 0)
(0 0 0)
(0 0 0)
(0 0 0)
(0 0 0)
(0 0 0)
(0 0 0)
(0 0 0)
(0 0 0)
(0 0 0)
(0 0 0)
(0 0 0)
(0 0 0)
(0 0 0)
(0 0 0)
(0 0 0)
(0 0 0)
(0 0 0)
(0 0 0)
(0 0 0)
(0 0 0)
(0 0 0)
(0 0 0)
(0 0 0)
(0 0 0)
(0 0 0)
(0 0 0)
(0 0 0)
(0 0 0)
(0 0 0)
(0 0 0)
(0 0 0)
(0 0 0)
(0 0 0)
(0 0 0)
(0 0 0)
(0 0 0)
(0 0 0)
(0 0 0)
(0 0 0)
(0 0 0)
(0 0 0)
(0 0 0)
(0 0 0)
(0 0 0)
(0 0 0)
(0 0 0)
(0 0 0)
(0 0 0)
(0 0 0)
(0 0 0)
(0 0 0)
(0 0 0)
(0 0 0)
(0 0 0)
(0 0 0)
(0 0 0)
(0 0 0)
(0 0 0)
(0 0 0)
(0 0 0)
(0 0 0)
(0 0 0)
(0 0 0)
(0 0 0)
(0 0 0)
(0 0 0)
(0 0 0)
(0 0 0)
(0 0 0)
(0 0 0)
(0 0 0)
(0 0 0)
(0 0 0)
(0 0 0)
(0 0 0)
(0 0 0)
(0 0 0)
(0 0 0)
(0 0 0)
(0 0 0)
(0 0 0)
(0 0 0)
(0 0 0)
(0 0 0)
(0 0 0)
(0 0 0)
(0 0 0)
(0 0 0)
(0 0 0)
(0 0 0)
(0 0 0)
(0 0 0)
(0 0 0)
(0 0 0)
(0 0 0)
(0 0 0)
(0 0 0)
(0 0 0)
(0 0 0)
(0 0 0)
(0 0 0)
(0 0 0)
(0 0 0)
(0 0 0)
(0 0 0)
(0 0 0)
(0 0 0)
(0 0 0)
(0 0 0)
(0 0 0)
(0 0 0)
(0 0 0)
(0 0 0)
(0 0 0)
(0 0 0)
(0 0 0)
(0 0 0)
(0 0 0)
(0 0 0)
(0 0 0)
(0 0 0)
(0 0 0)
(0 0 0)
(0 0 0)
(0 0 0)
(0 0 0)
(0 0 0)
(0 0 0)
(0 0 0)
(0 0 0)
(0 0 0)
(0 0 0)
(0 0 0)
(0 0 0)
(0 0 0)
(0 0 0)
(0 0 0)
(0 0 0)
(0 0 0)
(0 0 0)
(0 0 0)
(0 0 0)
(0 0 0)
(0 0 0)
(0 0 0)
(0 0 0)
(0 0 0)
(0 0 0)
(0 0 0)
(0 0 0)
(0 0 0)
(0 0 0)
(0 0 0)
(0 0 0)
(0 0 0)
(0 0 0)
(0 0 0)
(0 0 0)
(0 0 0)
(0 0 0)
(0 0 0)
(0 0 0)
(0 0 0)
(0 0 0)
(0 0 0)
(0 0 0)
(0 0 0)
(0 0 0)
(0 0 0)
(0 0 0)
(0 0 0)
(0 0 0)
(0 0 0)
(0 0 0)
(0 0 0)
(0 0 0)
(0 0 0)
(0 0 0)
(0 0 0)
(0 0 0)
(0 0 0)
(0 0 0)
(0 0 0)
(0 0 0)
(0 0 0)
(0 0 0)
(0 0 0)
(0 0 0)
(0 0 0)
(0 0 0)
(0 0 0)
(0 0 0)
(0 0 0)
(0 0 0)
(0 0 0)
(0 0 0)
(0 0 0)
(0 0 0)
(0 0 0)
(0 0 0)
(0 0 0)
(0 0 0)
(0 0 0)
(0 0 0)
(0 0 0)
(0 0 0)
(0 0 0)
(0 0 0)
(0 0 0)
(0 0 0)
(0 0 0)
(0 0 0)
(0 0 0)
(0 0 0)
(0 0 0)
(0 0 0)
(0 0 0)
(0 0 0)
(0 0 0)
(0 0 0)
(0 0 0)
(0 0 0)
(0 0 0)
(0 0 0)
(0 0 0)
(0 0 0)
(0 0 0)
(0 0 0)
(0 0 0)
(0 0 0)
(0 0 0)
(0 0 0)
(0 0 0)
(0 0 0)
(0 0 0)
(0 0 0)
(0 0 0)
(0 0 0)
(0 0 0)
(0 0 0)
(0 0 0)
(0 0 0)
(0 0 0)
(0 0 0)
(0 0 0)
(0 0 0)
(0 0 0)
(0 0 0)
(0 0 0)
(0 0 0)
(0 0 0)
(0 0 0)
(0 0 0)
(0 0 0)
(0 0 0)
(0 0 0)
(0 0 0)
(0 0 0)
(0 0 0)
(0 0 0)
(0 0 0)
(0 0 0)
(0 0 0)
(0 0 0)
(0 0 0)
(0 0 0)
(0 0 0)
(0 0 0)
(0 0 0)
(0 0 0)
(0 0 0)
(0 0 0)
(0 0 0)
(0 0 0)
(0 0 0)
(0 0 0)
(0 0 0)
(0 0 0)
(0 0 0)
(0 0 0)
(0 0 0)
(0 0 0)
(0 0 0)
(0 0 0)
(0 0 0)
(0 0 0)
(0 0 0)
(0 0 0)
(0 0 0)
(0 0 0)
(0 0 0)
(0 0 0)
(0 0 0)
(0 0 0)
(0 0 0)
(0 0 0)
(0 0 0)
(0 0 0)
(0 0 0)
(0 0 0)
(0 0 0)
(0 0 0)
(0 0 0)
(0 0 0)
(0 0 0)
(0 0 0)
(0 0 0)
(0 0 0)
(0 0 0)
(0 0 0)
(0 0 0)
(0 0 0)
(0 0 0)
(0 0 0)
(0 0 0)
(0 0 0)
(0 0 0)
(0 0 0)
(0 0 0)
(0 0 0)
(0 0 0)
(0 0 0)
(0 0 0)
(0 0 0)
(0 0 0)
(0 0 0)
(0 0 0)
(0 0 0)
(0 0 0)
(0 0 0)
(0 0 0)
(0 0 0)
(0 0 0)
(0 0 0)
(0 0 0)
(0 0 0)
(0 0 0)
(0 0 0)
(0 0 0)
(0 0 0)
(0 0 0)
(0 0 0)
(0 0 0)
(0 0 0)
(0 0 0)
(0 0 0)
(0 0 0)
(0 0 0)
(0 0 0)
(0 0 0)
(0 0 0)
(0 0 0)
(0 0 0)
(0 0 0)
(0 0 0)
(0 0 0)
(0 0 0)
(0 0 0)
(0 0 0)
(0 0 0)
(0 0 0)
(0 0 0)
(0 0 0)
(0 0 0)
(0 0 0)
(0 0 0)
(0 0 0)
(0 0 0)
(0 0 0)
(0 0 0)
(0 0 0)
(0 0 0)
(0 0 0)
(0 0 0)
(0 0 0)
(0 0 0)
(0 0 0)
(0 0 0)
(0 0 0)
(0 0 0)
(0 0 0)
(0 0 0)
(0 0 0)
(0 0 0)
(0 0 0)
(0 0 0)
(0 0 0)
(0 0 0)
(0 0 0)
(0 0 0)
(0 0 0)
(0 0 0)
(0 0 0)
(-0.009366858222 0.05161484878 0)
(-0.009897974869 0.05162685084 0)
(-0.009253716032 0.04350309344 0)
(-0.009791533817 0.0435157225 0)
(-0.01629845111 0.05227980352 0)
(-0.01627650871 0.0532902369 0)
(-0.01842047292 0.05333992404 0)
(-0.009887798312 0.05213222708 0)
(-0.01095181195 0.05215641389 0)
(-0.01097281558 0.05114595848 0)
(-0.00982616625 0.05516287427 0)
(-0.01623367528 0.04417233052 0)
(-0.01636952058 0.04515725742 0)
(-0.01851763097 0.04521037638 0)
(-0.009779674099 0.04402077743 0)
(-0.01085535661 0.04404603664 0)
(-0.01087908707 0.04303545741 0)
(-0.0109938071 0.05013601939 0)
(-0.00992903914 0.05011195575 0)
(-0.009993908835 0.04708143154 0)
(-0.009462416683 0.04706942066 0)
(-0.009451264344 0.04757435131 0)
(-0.009982755394 0.04758640913 0)
(-0.005735750922 0.04698505755 0)
(-0.005713778615 0.04723556457 0)
(-0.005988879511 0.04724258806 0)
(-0.006005111523 0.04699133572 0)
(-0.00562731372 0.05102273645 0)
(-0.005913313415 0.0510306264 0)
(-0.005923907334 0.05077947649 0)
(-0.005642040974 0.05077196538 0)
(-0.008893860155 0.03591182416 0)
(-0.009969495726 0.03593708228 0)
(-0.005618152556 0.05127467143 0)
(-0.005906640261 0.05128280767 0)
(-0.009836434478 0.05465759412 0)
(-0.009305318934 0.05464554512 0)
(-0.005344968589 0.05101521409 0)
(-0.005330587329 0.05126665078 0)
(-0.005501617558 0.04291200131 0)
(-0.005490638015 0.04342177332 0)
(-0.005757120413 0.04342662194 0)
(-0.006025370955 0.04343057281 0)
(-0.006038365362 0.04292319632 0)
(-0.006023402203 0.04674041351 0)
(-0.005758699542 0.04673457347 0)
(-0.01000524562 0.04657664612 0)
(-0.009473704326 0.04656472801 0)
(-0.005527301769 0.04673021995 0)
(-0.005502484724 0.0469804723 0)
(-0.00496509996 0.04289940279 0)
(-0.004957457722 0.04340925316 0)
(-0.005225530906 0.04341695698 0)
(-0.005364775126 0.05076493801 0)
(-0.005476396471 0.04723045999 0)
(-0.002900339778 0.04881075273 0)
(-0.002625681736 0.04880326999 0)
(-0.002610630286 0.0490530472 0)
(-0.002883118681 0.04906052596 0)
(-0.005766746561 0.04901228512 0)
(-0.006015273714 0.04901657123 0)
(-0.006022602901 0.04876445233 0)
(-0.005778527161 0.0487605995 0)
(-0.007831897414 0.04905429802 0)
(-0.007842435148 0.0485495408 0)
(-0.007316752309 0.04853813598 0)
(-0.007306450369 0.04904285177 0)
(-0.00787534103 0.04703421931 0)
(-0.007349564316 0.04702281229 0)
(-0.007343544989 0.04727514979 0)
(-0.007338090022 0.04752745359 0)
(-0.007864095917 0.04753910082 0)
(-0.007789485335 0.05107444792 0)
(-0.007799917068 0.05057020482 0)
(-0.007273061877 0.0505587255 0)
(-0.007262211007 0.05106281787 0)
(-0.007295539334 0.0495475063 0)
(-0.007821313844 0.04955900721 0)
(-0.005750711119 0.04926316636 0)
(-0.006004062985 0.04926798844 0)
(-0.005654820787 0.05305072745 0)
(-0.005913092346 0.05305604076 0)
(-0.005920994711 0.05280351265 0)
(-0.005665628911 0.05279845543 0)
(-0.00774817332 0.05309575079 0)
(-0.007758634813 0.05259024035 0)
(-0.007231828765 0.05257866826 0)
(-0.007221274498 0.05308412956 0)
(-0.007251951596 0.05156772252 0)
(-0.007779225924 0.05157935257 0)
(-0.007716752281 0.05460983912 0)
(-0.007189011878 0.05459805723 0)
(-0.007210540194 0.05358925788 0)
(-0.00773767481 0.05360083768 0)
(-0.005642224032 0.05330276961 0)
(-0.005903925956 0.0533083983 0)
(-0.005398681609 0.0530456051 0)
(-0.00538147275 0.05329725717 0)
(-0.005414091348 0.05279376988 0)
(-0.007886861159 0.04652962605 0)
(-0.007361596356 0.0465184189 0)
(-0.007355392583 0.04677061118 0)
(-0.007810119444 0.04495372918 0)
(-0.007282101663 0.04496175962 0)
(-0.007342751967 0.04524492128 0)
(-0.007370768717 0.0455058071 0)
(-0.007896674846 0.04550970291 0)
(-0.00569300077 0.04492660464 0)
(-0.005785298264 0.04521224712 0)
(-0.006035861851 0.04521381017 0)
(-0.005949912587 0.04492202358 0)
(-0.005561796235 0.0449904475 0)
(-0.00562337779 0.04521995109 0)
(-0.003058517264 0.0447834468 0)
(-0.003048525541 0.04503475174 0)
(-0.00330226844 0.04503512142 0)
(-0.003312421139 0.04478396114 0)
(-0.002954947919 0.04678802441 0)
(-0.003216697237 0.04679163476 0)
(-0.003226012195 0.04653975035 0)
(-0.002965190619 0.04653663143 0)
(-0.005521113575 0.04900834875 0)
(-0.005499603183 0.04925858483 0)
(-0.003149283586 0.04908349526 0)
(-0.003222260686 0.04887711111 0)
(-0.002945291947 0.04703943117 0)
(-0.003208940912 0.04704374362 0)
(-0.003158314932 0.04855648866 0)
(-0.002903049279 0.04855556662 0)
(-0.005540395753 0.04875740286 0)
(-0.002633041785 0.04854983683 0)
(-0.002695901461 0.04678551074 0)
(-0.002684566451 0.04703622058 0)
(-0.01639977747 0.03709874523 0)
(-0.01850130219 0.03705341534 3.584910147e-13)
(-0.009945776289 0.03694719213 0)
(-0.0110214588 0.03697245135 0)
(-0.01209714131 0.03699771057 0)
(-0.0121445912 0.03497702147 0)
(-0.01090281753 0.04202487817 0)
(-0.009898315371 0.03896835061 0)
(-0.0088226798 0.0389430925 0)
(-0.008798949341 0.03995367174 0)
(-0.009874584912 0.03997892985 0)
(-0.005595665128 0.03886731562 0)
(-0.005571934669 0.03987789486 0)
(-0.006647584322 0.03990315331 0)
(-0.006671314781 0.03889257407 0)
(-0.006050434878 0.04241720704 0)
(-0.005512944025 0.0424050553 0)
(-0.005720571251 0.04799649508 0)
(-0.005990887473 0.04800307747 0)
(-0.005978137491 0.04774804495 0)
(-0.005696780552 0.04774063973 0)
(-0.006799910816 0.04802221588 0)
(-0.006803609686 0.04776869675 0)
(-0.006534043659 0.04776236679 0)
(-0.006533297486 0.04801614312 0)
(-0.006821210409 0.04701115689 0)
(-0.006552628981 0.04700489701 0)
(-0.006543986627 0.0472569381 0)
(-0.006814254523 0.04726337847 0)
(-0.004975454807 0.04239243396 0)
(-0.0045199967 0.03884205674 0)
(-0.004496266241 0.03985263598 0)
(-0.005602664941 0.05405702297 0)
(-0.005328534849 0.05405025709 0)
(-0.005311817701 0.05430116928 0)
(-0.005590095209 0.05430831434 0)
(-0.005655430235 0.05203777368 0)
(-0.005634572925 0.05178259774 0)
(-0.005358274004 0.05177559308 0)
(-0.005398971877 0.05203264383 0)
(-0.005739047284 0.04463927954 0)
(-0.005391213244 0.04457945121 0)
(-0.007616026917 0.044475304 0)
(-0.007077270368 0.0444626529 0)
(-0.007118352247 0.04469515047 0)
(-0.007652039538 0.04295967976 0)
(-0.007114069916 0.04294751677 0)
(-0.007101928569 0.04345256509 0)
(-0.007640027983 0.04346520076 0)
(-0.006828725145 0.04675913628 0)
(-0.006562298465 0.04675311486 0)
(-0.006851061114 0.04600194243 0)
(-0.006591103086 0.04599644862 0)
(-0.006582543586 0.0462489613 0)
(-0.006844284162 0.04625454393 0)
(-0.00582827152 0.04598219897 0)
(-0.005806895082 0.04623333051 0)
(-0.006061544647 0.04623808914 0)
(-0.00607783462 0.04598636852 0)
(-0.002707864341 0.04653486262 0)
(-0.003025465999 0.04528095949 0)
(-0.005605254172 0.04597855885 0)
(-0.005580838343 0.04622952509 0)
(-0.004047405942 0.04579488593 0)
(-0.004031154756 0.04604355479 0)
(-0.004281212832 0.04605764538 0)
(-0.004359502251 0.04585763219 0)
(-0.003349753778 0.04285912296 0)
(-0.003338361807 0.04336465852 0)
(-0.003877551613 0.04337825907 0)
(-0.003888100331 0.04287223408 0)
(-0.003345362386 0.04454033364 0)
(-0.003090851867 0.04453905362 0)
(-0.005696767714 0.0500177864 0)
(-0.005433326588 0.05001202295 0)
(-0.005410473554 0.05026363642 0)
(-0.005678122014 0.05026982742 0)
(-0.005428406531 0.0477179473 0)
(-0.005406338496 0.04792933099 0)
(-0.002870558747 0.04986280006 0)
(-0.002798985841 0.05006738559 0)
(-0.002811915735 0.0495445564 0)
(-0.006784047692 0.0490317588 0)
(-0.006789314906 0.04877945059 0)
(-0.006530105685 0.04877406829 0)
(-0.006524884308 0.04902642454 0)
(-0.006533370204 0.04826904635 0)
(-0.006796142318 0.04827470017 0)
(-0.005757350318 0.04825303114 0)
(-0.006009188285 0.04825772374 0)
(-0.005964096994 0.05002396991 0)
(-0.005977820797 0.04977153154 0)
(-0.005715168233 0.0497657866 0)
(-0.006759437532 0.05004180078 0)
(-0.006765709185 0.04978871777 0)
(-0.006503783061 0.04978303685 0)
(-0.00649619824 0.05003604206 0)
(-0.006518358581 0.04927832748 0)
(-0.006778316608 0.04928382129 0)
(-0.005615703237 0.05380597742 0)
(-0.005345913009 0.05379959523 0)
(-0.005423639751 0.05228814407 0)
(-0.005669927952 0.0522923776 0)
(-0.006087050152 0.04573391821 0)
(-0.005842070462 0.04573056075 0)
(-0.006854648472 0.0457491721 0)
(-0.006595536435 0.04574365119 0)
(-0.006751332967 0.04495093983 0)
(-0.006484122021 0.04494231697 0)
(-0.006554506811 0.04522692829 0)
(-0.006817063617 0.04523375115 0)
(-0.004134220791 0.04480941097 0)
(-0.004095872361 0.04504910741 0)
(-0.004397043256 0.04506792053 0)
(-0.004512546662 0.04485732197 0)
(-0.004308380275 0.04554289959 0)
(-0.004055069778 0.04554291579 0)
(-0.005628081038 0.04572825976 0)
(-0.003989296411 0.04681292355 0)
(-0.004065509091 0.04660994983 0)
(-0.003753903429 0.04654730901 0)
(-0.003739912287 0.04679833219 0)
(-0.003782362342 0.04579016501 0)
(-0.003770345341 0.04604071794 0)
(-0.003001306366 0.04578201543 0)
(-0.002988184151 0.04603343472 0)
(-0.003246512949 0.04603471048 0)
(-0.003257736087 0.04578296481 0)
(-0.005455743097 0.04976039923 0)
(-0.002996812061 0.04951160867 0)
(-0.002921654973 0.04779682929 0)
(-0.003187287504 0.0478014701 0)
(-0.003193686993 0.04754834313 0)
(-0.002928505068 0.0475437129 0)
(-0.003721828022 0.04704686408 0)
(-0.003912703855 0.04701687461 0)
(-0.002916853055 0.04805032252 0)
(-0.00318505951 0.04805615091 0)
(-0.0055288294 0.04825076463 0)
(-0.006734848314 0.05105095093 0)
(-0.00674005426 0.05079925182 0)
(-0.006473910312 0.05079319007 0)
(-0.006467580053 0.05104476885 0)
(-0.006488564278 0.05028914004 0)
(-0.006752694293 0.05029496664 0)
(-0.005950230172 0.05027649886 0)
(-0.00592047334 0.05204371565 0)
(-0.005912019628 0.05178972329 0)
(-0.006715999427 0.0520616448 0)
(-0.006720011433 0.05180879051 0)
(-0.006454945961 0.05180280106 0)
(-0.006452292957 0.05205578118 0)
(-0.00646203121 0.05129707044 0)
(-0.006728925068 0.05130319676 0)
(-0.005101814397 0.05100931648 0)
(-0.005078859087 0.05125848542 0)
(-0.005056784585 0.05149654455 0)
(-0.005331581708 0.05151990441 0)
(-0.005619695009 0.05152798489 0)
(-0.00578285227 0.04648421158 0)
(-0.005553924016 0.04648029177 0)
(-0.005659545866 0.0505213065 0)
(-0.005387226486 0.0505146301 0)
(-0.005150006706 0.05050981112 0)
(-0.005124805584 0.05075981964 0)
(-0.005697347543 0.04748709401 0)
(-0.005451103354 0.04747938617 0)
(-0.002726586935 0.05027434689 0)
(-0.002605355723 0.05062546834 0)
(-0.006696014103 0.05307273466 0)
(-0.006701619804 0.05282001172 0)
(-0.006439974206 0.05281438436 0)
(-0.006434180753 0.05306710288 0)
(-0.00644921751 0.05230875138 0)
(-0.006711566078 0.05231444222 0)
(-0.005926161006 0.05229750216 0)
(-0.005875060524 0.05406365419 0)
(-0.005884579273 0.05381229117 0)
(-0.006673211842 0.05408178588 0)
(-0.006678794397 0.05383004865 0)
(-0.006415509269 0.05382424189 0)
(-0.006409364559 0.05407591895 0)
(-0.006428059834 0.05331976675 0)
(-0.006690314526 0.05332545538 0)
(-0.005144355633 0.05304066621 0)
(-0.00512275638 0.05329188645 0)
(-0.00510087052 0.05354291209 0)
(-0.005363687368 0.05354866089 0)
(-0.005628993327 0.05355460903 0)
(-0.005672078397 0.05254579927 0)
(-0.005424688251 0.0525414929 0)
(-0.005182892605 0.05253774057 0)
(-0.005165074651 0.05278933138 0)
(-0.005833127985 0.04547538282 0)
(-0.006078307552 0.04547822836 0)
(-0.006330816736 0.04548293672 0)
(-0.006293270887 0.04521985465 0)
(-0.006215961746 0.04493212201 0)
(-0.004788986151 0.04486494047 0)
(-0.004701325365 0.0451226403 0)
(-0.004939601044 0.04483729307 0)
(-0.005640538537 0.04547414791 0)
(-0.003269018363 0.0455323007 0)
(-0.003013543692 0.04553127982 0)
(-0.003791384649 0.04553874338 0)
(-0.003860931102 0.0448012559 0)
(-0.003825429938 0.04504209937 0)
(-0.005296297392 0.04900471335 0)
(-0.00527184312 0.04925431673 0)
(-0.005248287609 0.04950464568 0)
(-0.0054778352 0.04950919057 0)
(-0.005733230265 0.04951420152 0)
(-0.002844131397 0.04930142846 0)
(-0.003072452002 0.04930082546 0)
(-0.003351276245 0.04852748743 0)
(-0.003426561963 0.04832298909 0)
(-0.003174035964 0.04830719681 0)
(-0.002909027425 0.04830238279 0)
(-0.005779252392 0.048507715 0)
(-0.005549734997 0.0485052842 0)
(-0.005346151065 0.04850585754 0)
(-0.005321558963 0.04875433054 0)
(-0.00265537992 0.04779175071 0)
(-0.002648057099 0.0480441985 0)
(-0.005017685358 0.05454561417 0)
(-0.005037523325 0.05429439955 0)
(-0.004797562602 0.05428890567 0)
(-0.004775796576 0.05454002806 0)
(-0.005057863285 0.05404380724 0)
(-0.004819258258 0.05403858002 0)
(-0.005166638723 0.05202972424 0)
(-0.005037197623 0.0517074699 0)
(-0.005004962836 0.05205401227 0)
(-0.00657771532 0.04468057665 0)
(-0.006302994264 0.04467177743 0)
(-0.006549484561 0.04394680456 0)
(-0.006278607114 0.04394232237 0)
(-0.006268723425 0.04419522663 0)
(-0.006541066978 0.04419927361 0)
(-0.005477363154 0.04394229316 0)
(-0.005460693796 0.04420537017 0)
(-0.005723058539 0.04419697217 0)
(-0.005739047881 0.04394045416 0)
(-0.006042630544 0.04648956028 0)
(-0.006307228839 0.04649544484 0)
(-0.006321083537 0.04624343221 0)
(-0.006332783487 0.04599118114 0)
(-0.004009482703 0.0462908753 0)
(-0.004200413721 0.04626013569 0)
(-0.005228109294 0.04394395442 0)
(-0.005240357676 0.04422414791 0)
(-0.004416191123 0.04390469438 0)
(-0.004420062755 0.04416261805 0)
(-0.004701770017 0.04418050449 0)
(-0.004691914394 0.04391821353 0)
(-0.00452535698 0.04459058507 0)
(-0.004235627102 0.04458894767 0)
(-0.005200352509 0.05000739759 0)
(-0.00517567358 0.05025896819 0)
(-0.004889566386 0.05328725602 0)
(-0.004865851039 0.05353819175 0)
(-0.004913148919 0.05303617629 0)
(-0.005079080171 0.05379347034 0)
(-0.004842192264 0.05378851827 0)
(-0.005190415873 0.05228515659 0)
(-0.004983402679 0.05228536762 0)
(-0.004960224803 0.05253401473 0)
(-0.004936689208 0.05278509556 0)
(-0.006338953548 0.04573842449 0)
(-0.004081593148 0.04529819829 0)
(-0.004342723415 0.04530137143 0)
(-0.004589803577 0.0453132787 0)
(-0.004499521413 0.04551221189 0)
(-0.003760594428 0.04629296782 0)
(-0.003497775242 0.0462903186 0)
(-0.003489942505 0.04654388155 0)
(-0.003479663927 0.04679560244 0)
(-0.005224463487 0.04975581366 0)
(-0.00346848485 0.04730147174 0)
(-0.003455655533 0.04755181774 0)
(-0.003706369395 0.04756658122 0)
(-0.003782048975 0.04736490997 0)
(-0.003438392154 0.04780079158 0)
(-0.003629742347 0.0477710011 0)
(-0.003472339718 0.04704790931 0)
(-0.003500400425 0.04812052318 0)
(-0.005368690919 0.04827598108 0)
(-0.007939617247 0.01014302928 6.865341629e-14)
(-0.005125178517 0.006224143716 4.217459715e-14)
(-0.01675342658 0.02530755709 1.706412789e-13)
(-0.01396229337 0.01988866098 1.34267597e-13)
(-0.01384693814 0.01896708178 1.331018629e-13)
(-0.01915614201 0.03078865849 2.073757832e-13)
(-0.02281916046 0.04530791867 3.046868313e-13)
(-0.02226981516 0.0410076848 2.758349105e-13)
(-0.02239971927 0.03963797151 2.770839114e-13)
(-0.02266181127 0.04881566137 3.282929484e-13)
(-0.02037767591 0.05290973355 3.562011797e-13)
(-0.02044631461 0.05096720015 3.566175133e-13)
(-0.01837688519 0.05536014026 0)
(-0.01623353117 0.05531046744 0)
(-0.01409285262 0.05526085745 0)
(-0.01516276945 0.05528565253 0)
(-0.008948889513 0.009693554832 7.742417818e-14)
(-0.005997838748 0.006176504352 4.94049246e-14)
(-0.01786216213 0.02286005233 1.817573869e-13)
(-0.01508709657 0.01821428707 1.450228826e-13)
(-0.01522055119 0.01762008374 1.467853616e-13)
(-0.01443566179 0.01898415714 1.386668558e-13)
(-0.02020609799 0.02750156892 2.184086245e-13)
(-0.02350609709 0.03944920808 3.127775816e-13)
(-0.02310118171 0.03597995426 2.853134395e-13)
(-0.02312072767 0.03455004685 2.866040738e-13)
(-0.02253835926 0.03826719177 2.784439346e-13)
(-0.02319180277 0.04219697418 3.346212196e-13)
(-0.02058845793 0.04509585643 3.581024366e-13)
(-0.02049074103 0.04312109095 3.582412145e-13)
(-0.02051688891 0.04902237153 3.570477247e-13)
(-0.01855684519 0.04727240945 0)
(-0.01641062878 0.04722863385 0)
(-0.0163874975 0.0482396968 0)
(-0.01426703346 0.04717923715 0)
(-0.01424414237 0.04819007092 0)
(-0.01531546735 0.04821489906 0)
(-0.01533849924 0.0472040686 0)
(-0.01417793241 0.05121967134 0)
(-0.01524864719 0.05124448515 0)
(-0.0152706244 0.0502345692 0)
(-0.01419967494 0.05020974988 0)
(-0.009950135549 0.04910154947 0)
(-0.009418784212 0.0490895419 0)
(-0.009408292314 0.04959434717 0)
(-0.009939548673 0.04960639947 0)
(-0.00834891674 0.04957064497 0)
(-0.008359407535 0.04906588665 0)
(-0.008317603449 0.05108614475 0)
(-0.008327894367 0.05058189834 0)
(-0.00787887717 0.007021795332 6.837586053e-14)
(-0.005129855848 0.004345644739 4.239664175e-14)
(-0.01643970686 0.0173140037 1.676991879e-13)
(-0.01373181116 0.01364238696 1.323663401e-13)
(-0.01283378468 0.01204970189 1.237343561e-13)
(-0.01493774187 0.01647431064 1.440098041e-13)
(-0.01877395628 0.0210262394 2.033651025e-13)
(-0.02240279586 0.03091524789 2.983446823e-13)
(-0.02182988189 0.02796636191 2.69978484e-13)