/*--------------------------------*- C++ -*----------------------------------*\
| =========                 |                                                 |
| \\      /  F ield         | OpenFOAM: The Open Source CFD Toolbox           |
|  \\    /   O peration     | Version:  v2012                                 |
|   \\  /    A nd           | Website:  www.openfoam.com                      |
|    \\/     M anipulation  |                                                 |
\*---------------------------------------------------------------------------*/
FoamFile
{
    version     2.0;
    format      ascii;
    class       surfaceVectorField;
    location    "1.78";
    object      Uf;
}
// * * * * * * * * * * * * * * * * * * * * * * * * * * * * * * * * * * * * * //

dimensions      [0 1 -1 0 0 0 0];


internalField   nonuniform List<vector> 
6430
(
(101.256278 -0.3496468182 5.361047877e-20)
(101.4540661 -0.1808938144 3.192645209e-21)
(101.1849655 -0.7087205896 -4.921182572e-20)
(101.40995 -0.5467293599 5.046021577e-20)
(101.0610785 -1.086014426 -9.400439292e-20)
(101.3248798 -0.9241327072 -1.016783641e-19)
(100.7964085 -1.469704532 -1.416863103e-21)
(101.1844995 -1.341505363 -2.659863147e-22)
(100.9375217 -1.513152164 2.965988807e-19)
(100.6080176 -1.525963029 -8.002960884e-22)
(100.8012894 -1.609668004 2.039068452e-19)
(100.6261082 -1.67308778 -8.031119865e-22)
(100.2503406 -1.972777271 0)
(100.4593947 -1.908205487 0)
(100.4911622 -2.084017851 0)
(100.2607183 -2.161101285 0)
(99.76559193 -2.51151446 7.896058358e-21)
(100.0315707 -2.435546014 3.426766786e-20)
(100.0539272 -2.656894797 -1.997558815e-19)
(99.7145433 -2.718937207 -1.196378573e-20)
(99.81803864 -2.771110221 1.872963558e-19)
(99.21839884 -3.120281386 4.804379538e-20)
(99.38331571 -3.069249308 4.887064293e-20)
(99.3881904 -3.207994323 -1.524682484e-19)
(99.2119427 -3.270197037 -3.918162039e-21)
(98.25431456 -4.051351308 -7.75218588e-20)
(98.50724173 -3.978597072 -2.05238928e-19)
(98.47809171 -4.162425672 -7.449210878e-20)
(98.20646989 -4.251225269 -2.001417379e-19)
(96.79550871 -5.271446755 1.185687796e-19)
(97.13804101 -5.179772035 6.2687735e-20)
(97.09479484 -5.413282381 6.096960975e-20)
(96.73126143 -5.524881794 5.231011366e-20)
(94.97899489 -6.735487877 1.01283806e-19)
(95.39943791 -6.641877562 -1.846533101e-20)
(95.36277476 -6.942719341 -2.930374477e-19)
(94.84500185 -7.00428469 7.447810718e-20)
(94.97822527 -7.085978465 -1.899420348e-19)
(93.24955837 -8.254940386 -1.773369195e-19)
(93.37073404 -8.250958733 -3.294340959e-19)
(93.3464729 -8.338834833 -6.047313834e-20)
(93.23493291 -8.35249818 -2.368980331e-19)
(101.6044141 -0.3771832687 0)
(101.8083917 -0.1920023085 0)
(101.5467149 -0.7648015296 0)
(101.7740583 -0.5813122251 0)
(101.4465821 -1.173862157 0)
(101.7091509 -0.981555257 0)
(101.21854 -1.598358141 0)
(101.6008264 -1.420316869 0)
(101.3708546 -1.63573486 0)
(101.0303228 -1.681329985 2.040715641e-19)
(101.2469338 -1.736637517 0)
(101.072262 -1.828955342 0)
(100.7316115 -2.177854014 0)
(100.9336542 -2.08599482 0)
(100.9904528 -2.250290006 0)
(100.771072 -2.361519095 0)
(100.3373022 -2.777779406 -1.886080202e-19)
(100.587329 -2.660343695 4.608204276e-20)
(100.6455934 -2.862879608 2.749666123e-20)
(100.3297437 -2.982414071 4.793888049e-20)
(100.4408428 -3.005521465 3.181154023e-20)
(99.91204551 -3.435260816 -3.357570969e-19)
(100.0664617 -3.359270305 -1.774720984e-21)
(100.0979972 -3.487527096 -4.19037899e-20)
(99.93498116 -3.57542802 4.558687956e-20)
(99.15732493 -4.438399364 -3.863985434e-19)
(99.38950071 -4.330703954 0)
(99.40251557 -4.492871501 -1.792410375e-19)
(99.15313307 -4.621239108 -2.221377187e-21)
(98.00632739 -5.756554368 2.125993015e-19)
(98.3192212 -5.614586247 -7.340502035e-20)
(98.33746389 -5.815115154 2.180937206e-19)
(98.00720122 -5.987952656 1.336478496e-19)
(96.60620006 -7.459486967 5.008813965e-19)
(97.00606155 -7.258521808 1.165228068e-19)
(97.07631381 -7.534395567 1.061567094e-20)
(96.57694218 -7.74352633 2.925036562e-19)
(96.757884 -7.765215903 1.022427657e-20)
(95.33397619 -9.726530897 2.122856737e-20)
(95.5723917 -9.669067997 -8.258665164e-20)
(95.68776007 -9.929946126 -7.696503163e-20)
(95.23532149 -9.873764956 2.215282708e-20)
(95.24460896 -10.07794837 1.966633677e-20)
(95.39577358 -10.11418238 1.531631472e-19)
(101.9744298 -0.3951451162 0)
(102.1795906 -0.1982867689 0)
(101.9318584 -0.8006572148 0)
(102.1549751 -0.6009456205 0)
(101.8573008 -1.227162261 0)
(102.1098093 -1.013821844 0)
(101.6680064 -1.672240014 0)
(102.0314327 -1.459315666 0)
(101.8250312 -1.698854451 0)
(101.4823935 -1.778578231 0)
(101.7144956 -1.807044078 0)
(101.5483857 -1.919328665 0)
(101.2538745 -2.302566188 0)
(101.4430881 -2.186350208 0)
(101.5198382 -2.33601366 0)
(101.3204352 -2.469455959 0)
(100.9566152 -2.917402447 -1.834045947e-20)
(101.1835064 -2.774288347 0)
(101.2676438 -2.946224001 -1.641143037e-22)
(100.9878447 -3.098645285 5.682757288e-20)
(101.0984787 -3.115131586 5.494449544e-20)
(100.6599691 -3.577508775 8.238761984e-22)
(100.7973454 -3.48171903 -3.99339229e-22)
(100.8461118 -3.588814738 8.298092578e-20)
(100.7065419 -3.692956582 8.638959209e-20)
(100.1414681 -4.551830421 7.157421765e-20)
(100.342011 -4.419208266 1.503416831e-19)
(100.3854819 -4.54115995 2.339594946e-19)
(100.1770154 -4.700148571 7.717863099e-20)
(99.32935362 -5.827121506 2.497748404e-21)
(99.59481207 -5.640606062 2.517784051e-21)
(99.64814029 -5.783555438 -9.433449633e-21)
(99.38405162 -5.995165938 2.281994181e-20)
(98.48065672 -7.466879037 1.72173283e-19)
(98.78789538 -7.200615102 8.188277347e-20)
(98.91425338 -7.357867193 6.957177e-22)
(98.64891879 -7.663158839 8.252609092e-20)
(98.40997369 -9.673287097 -5.257474228e-20)
(98.44574579 -9.282367596 -6.378263206e-20)
(98.09434012 -9.392259741 7.585335335e-20)
(92.99637328 -9.039373522 7.467285406e-20)
(98.03639569 -9.902574054 1.552317406e-19)
(102.3565758 -0.4033979885 0)
(102.5585642 -0.2000907905 0)
(102.3286012 -0.8163184445 0)
(102.5428735 -0.6064602281 0)
(102.2786451 -1.248262938 0)
(102.515601 -1.022301772 0)
(102.1268635 -1.703301006 0)
(102.4645962 -1.463142742 0)
(102.2827322 -1.715384761 0)
(101.9496369 -1.82354129 0)
(102.1850539 -1.828728855 0)
(102.0324807 -1.953918569 0)
(101.7846856 -2.352045315 0)
(101.9572843 -2.220003317 0)
(102.0470149 -2.352190067 0)
(101.8702844 -2.4992403 0)
(101.5747891 -2.951879115 -1.593159433e-22)
(101.7751933 -2.797101166 3.604913981e-24)
(101.8744749 -2.936764685 3.605118251e-24)
(101.6308433 -3.118019826 -5.525484848e-21)
(101.7364228 -3.114254938 6.423011434e-21)
(101.3912819 -3.574961867 -7.697937412e-20)
(101.506261 -3.473245946 -4.041788138e-20)
(101.5656055 -3.556920837 7.392488958e-20)
(101.4500951 -3.665535258 7.47152827e-20)
(101.0688457 -4.446586645 -3.506456986e-19)
(101.2246764 -4.3082668 2.864609765e-21)
(101.2812154 -4.397809252 -6.286581077e-20)
(101.1214876 -4.546966358 7.221624346e-20)
(100.5334166 -5.541903571 -5.309210039e-19)
(100.7399216 -5.348080783 -3.649919494e-20)
(100.800827 -5.435417535 -2.652099086e-19)
(100.6020379 -5.641988072 -2.640655706e-19)
(100.0294072 -6.855880969 -6.367162707e-20)
(100.2380949 -6.593380819 -2.971062347e-19)
(100.336303 -6.650898884 3.115474259e-20)
(100.1620121 -6.923803978 2.057690724e-21)
(98.15798169 -8.163861103 -2.580465131e-20)
(99.20342062 -7.791032488 4.251644856e-20)
(98.39299466 -7.7928216 -1.133479302e-19)
(94.17538923 -7.661487161 -2.938046203e-19)
(102.7417136 -0.4028909208 0)
(102.9370395 -0.1980248016 0)
(102.7264636 -0.8140662201 0)
(102.9291101 -0.5997775716 0)
(102.697869 -1.241381009 0)
(102.91702 -1.010160589 0)
(102.5795351 -1.696008209 0)
(102.8891512 -1.437231667 0)
(102.7301249 -1.690640434 0)
(102.4144113 -1.82322871 0)
(102.6442015 -1.808410035 0)
(102.5074238 -1.940635626 0)
(102.3037024 -2.337898498 0)
(102.4577222 -2.1973377 0)
(102.5540642 -2.310790851 0)
(102.4000604 -2.463835857 0)
(102.1648817 -2.903385395 0)
(102.3383753 -2.744745703 0)
(102.4438992 -2.854366281 0)
(102.2335353 -3.054113202 0)
(102.3305776 -3.029447513 0)
(102.0610411 -3.471820813 2.601318235e-21)
(102.1544052 -3.372462779 2.19201398e-21)
(102.216426 -3.435161681 4.573060615e-21)
(102.1235078 -3.538628459 2.614410887e-21)
(101.8683972 -4.211008146 2.459701666e-19)
(101.9894435 -4.080110445 1.500532387e-19)
(102.0466059 -4.139547695 1.504086217e-19)
(101.9239706 -4.275488067 -1.991683343e-19)
(101.5087666 -5.076321898 1.272136584e-22)
(101.6645012 -4.904349701 -2.135426924e-19)
(101.7142854 -4.95011287 2.102850974e-20)
(101.5636203 -5.125839119 2.200845399e-19)
(101.1038268 -6.021802152 2.404871141e-20)
(101.2614509 -5.805116318 -1.100353797e-20)
(101.3169098 -5.818582001 -3.735496964e-19)
(101.1782506 -6.029256657 -3.067503676e-20)
(99.41332699 -6.755380457 -9.102648598e-21)
(100.2943905 -6.540309701 1.317295098e-19)
(99.75767837 -6.452411981 -9.657622509e-21)
(96.01629803 -6.37002692 -2.262484589e-19)
(103.1219202 -0.3950436618 0)
(103.3081431 -0.1927929383 0)
(103.1170756 -0.7969002087 0)
(103.3065931 -0.5831817754 0)
(103.1057378 -1.211518618 0)
(103.3065121 -0.9812897582 0)
(103.0156195 -1.655578687 0)
(103.296808 -1.387701447 0)
(103.1579751 -1.635368362 0)
(102.8644814 -1.784591076 0)
(103.0827991 -1.753838107 0)
(102.9616949 -1.887992848 0)
(102.7958153 -2.272631457 0)
(102.9315611 -2.12966901 0)
(103.0289546 -2.225155783 0)
(102.8958806 -2.377834724 0)
(102.7102638 -2.792350824 0)
(102.8585613 -2.635976678 0)
(102.9629379 -2.719847895 0)
(102.7826242 -2.924013992 0)
(102.8691622 -2.885921727 0)
(102.6529108 -3.303420703 0)
(102.7304102 -3.207250531 0)
(102.7888714 -3.253234564 0)
(102.7121831 -3.352003566 0)
(102.5291579 -3.913255007 1.141486622e-20)
(102.6239188 -3.798493027 3.930655778e-20)
(102.6732731 -3.836368868 5.225949663e-20)
(102.5769323 -3.952601548 4.866837098e-22)
(102.2500185 -4.574564774 1.118096605e-20)
(102.3716116 -4.432134947 -8.659757034e-20)
(102.40402 -4.453722807 -1.202883893e-20)
(102.2839758 -4.595318368 -5.556290221e-22)
(101.8559027 -5.248189484 0)
(101.9862304 -5.07922433 1.310791831e-22)
(102.0067565 -5.073324155 -1.406242841e-19)
(101.885487 -5.233725013 1.377692564e-19)
(100.612012 -5.695336296 -1.340001787e-19)
(101.1597178 -5.586516754 -1.197744828e-19)
(100.814207 -5.483411447 -1.044409565e-19)
(97.81186729 -5.440382044 -3.976937043e-20)
(103.4908918 -0.3813707719 0)
(103.6664024 -0.1851149735 0)
(103.4940571 -0.7679737692 0)
(103.6697477 -0.5589950555 0)
(103.4956967 -1.163810362 0)
(103.6783606 -0.9397090698 0)
(103.4275393 -1.588987652 0)
(103.6816827 -1.321025567 0)
(103.5599172 -1.55803936 0)
(103.2903158 -1.716179241 0)
(103.4941609 -1.67401013 0)
(103.3872492 -1.805994764 0)
(103.251847 -2.170059425 0)
(103.3707866 -2.029523465 0)
(103.4650544 -2.108890846 0)
(103.3498971 -2.25647257 0)
(103.2015573 -2.639172154 0)
(103.3280937 -2.489462457 0)
(103.426128 -2.552486204 0)
(103.2709993 -2.75114238 0)
(103.3467864 -2.705919246 0)
(103.1676588 -3.08947537 0)
(103.2329887 -2.998831782 0)
(103.2847121 -3.031711322 0)
(103.2197114 -3.123425854 0)
(103.0631207 -3.601092615 0)
(103.1426061 -3.498683691 0)
(103.1805566 -3.521129469 0)
(103.0988123 -3.623682261 0)
(102.8016418 -4.110712018 1.909373043e-20)
(102.9015616 -3.994882914 -8.99563191e-22)
(102.9155533 -4.002118581 -8.995576388e-22)
(102.8142649 -4.116140288 3.167144546e-22)
(102.3863279 -4.595419435 1.066115096e-21)
(102.499055 -4.465521834 0)
(102.4906814 -4.450850757 0)
(102.380891 -4.574448355 2.844831652e-20)
(101.1454113 -4.920911091 -9.044677262e-20)
(101.5706599 -4.830786904 -3.57804553e-20)
(101.1437159 -4.746112624 -1.130037384e-19)
(98.71538932 -4.718980333 -7.797063092e-20)
(103.8438838 -0.3634007608 0)
(104.0077806 -0.1756989751 0)
(103.8527008 -0.7304972014 0)
(104.0145789 -0.5294775016 0)
(103.8631801 -1.103530155 0)
(104.0287873 -0.8892883355 0)
(103.8108169 -1.504410471 0)
(104.0404108 -1.243242279 0)
(103.9323908 -1.466389422 0)
(103.6866549 -1.626976795 0)
(103.8744465 -1.577538994 0)
(103.7798803 -1.704327523 0)
(103.6674659 -2.043089631 0)
(103.7718164 -1.908415593 0)
(103.8599923 -1.973920845 0)
(103.7595418 -2.113350746 0)
(103.6371658 -2.46184513 0)
(103.7460397 -2.321097453 0)
(103.8348266 -2.36899014 0)
(103.6987942 -2.554762559 0)
(103.7643818 -2.508273828 0)
(103.6089189 -2.853154716 0)
(103.6653115 -2.769793022 0)
(103.7087757 -2.79269745 0)
(103.6519711 -2.876082766 0)
(103.4992947 -3.280999703 0)
(103.5693364 -3.189768535 0)
(103.5953051 -3.201743727 0)
(103.5219917 -3.291961853 0)
(103.2166071 -3.686970902 0)
(103.307328 -3.588069606 0)
(103.3051271 -3.58577628 0)
(103.2112815 -3.682290125 0)
(102.7530984 -4.051059217 0)
(102.8582445 -3.946450025 0)
(102.828614 -3.926742246 0)
(102.7216201 -4.026830495 0)
(100.8560768 -4.245426408 0)
(101.4861957 -4.190283572 0)
(100.7560137 -4.093317153 0)
(98.68303309 -4.083776502 0)
(104.1776258 -0.342587817 0)
(104.3296259 -0.1651972813 0)
(104.1899144 -0.6874932656 0)
(104.3385838 -0.496696665 0)
(104.2055042 -1.035433087 0)
(104.3556606 -0.8335038248 0)
(104.1634093 -1.408661973 0)
(104.3714729 -1.15949675 0)
(104.2741266 -1.366999078 0)
(104.0509351 -1.525005394 0)
(104.2224705 -1.471749997 0)
(104.1381494 -1.591251951 0)
(104.0418963 -1.902568958 0)
(104.1341244 -1.775953522 0)
(104.2143355 -1.830029586 0)
(104.1254009 -1.959485527 0)
(104.0195428 -2.275171001 0)
(104.1145324 -2.143299149 0)
(104.1920274 -2.181328662 0)
(104.0709694 -2.347792428 0)
(104.1277306 -2.306006644 0)
(103.9849231 -2.611472364 0)
(104.0352634 -2.535959805 0)
(104.0699527 -2.551662193 0)
(104.0184772 -2.626467197 0)
(103.8562132 -2.969158214 0)
(103.920521 -2.888760626 0)
(103.9349727 -2.893799544 0)
(103.8665141 -2.972592211 0)
(103.5409092 -3.295358554 0)
(103.6267993 -3.210767612 0)
(103.6107547 -3.203090336 0)
(103.5205201 -3.285111126 0)
(103.0268942 -3.577451063 0)
(103.1301177 -3.490399035 0)
(103.0846532 -3.468499644 0)
(102.9761738 -3.55187903 0)
(100.5071935 -3.67933808 0)
(101.3292664 -3.639480164 0)
(100.4397011 -3.554300067 0)
(98.61416225 -3.567641319 0)
(104.4901585 -0.320207662 0)
(104.6304287 -0.1541683245 0)
(104.5040415 -0.6415576169 0)
(104.6404432 -0.4624211171 0)
(104.5215744 -0.9635340606 0)
(104.6581249 -0.7753157179 0)
(104.4851946 -1.307501139 0)
(104.6746627 -1.073883162 0)
(104.5855081 -1.265064575 0)
(104.382878 -1.416842023 0)
(104.5387947 -1.362495708 0)
(104.4626535 -1.473485155 0)
(104.3767837 -1.757189729 0)
(104.4592532 -1.639752537 0)
(104.530482 -1.684738394 0)
(104.4502904 -1.803357101 0)
(104.3529747 -2.088285307 0)
(104.4377031 -1.965502501 0)
(104.5031298 -1.996699227 0)
(104.3935606 -2.14344819 0)
(104.4425751 -2.10726185 0)
(104.3050347 -2.375782168 0)
(104.3514628 -2.308082043 0)
(104.3774665 -2.318675844 0)
(104.3292387 -2.385198003 0)
(104.1496103 -2.675655597 0)
(104.2107211 -2.605211624 0)
(104.2145875 -2.605808523 0)
(104.1486523 -2.674389359 0)
(103.7980847 -2.940262364 0)
(103.8816388 -2.867800546 0)
(103.8539467 -2.857313663 0)
(103.7653152 -2.927273808 0)
(103.2365415 -3.162584981 0)
(103.3400902 -3.089476266 0)
(103.2807748 -3.067258203 0)
(103.1657035 -3.13657016 0)
(100.274806 -3.212766125 0)
(101.1951097 -3.181322775 0)
(100.2303684 -3.108929507 0)
(98.60602358 -3.134012504 0)
(104.7806478 -0.2973106007 0)
(104.9097219 -0.1430595855 0)
(104.7946079 -0.5948008363 0)
(104.9198899 -0.4280599811 0)
(104.8115361 -0.8910491599 0)
(104.9364203 -0.7170967092 0)
(104.777313 -1.205999604 0)
(104.9510033 -0.989500873 0)
(104.8678543 -1.164433601 0)
(104.6837521 -1.307606781 0)
(104.8248746 -1.254182133 0)
(104.7552352 -1.3562342 0)
(104.6750748 -1.613277402 0)
(104.7499217 -1.505414291 0)
(104.8117756 -1.543271059 0)
(104.7380718 -1.650925722 0)
(104.6432423 -1.907114554 0)
(104.7208033 -1.793803697 0)
(104.7740022 -1.819951804 0)
(104.672953 -1.948477669 0)
(104.7153386 -1.917539003 0)
(104.5779259 -2.152846481 0)
(104.6220204 -2.092558126 0)
(104.6398056 -2.099600724 0)
(104.5933228 -2.158439518 0)
(104.3922989 -2.405399207 0)
(104.4519168 -2.343861929 0)
(104.4462918 -2.34174267 0)
(104.3813682 -2.401345278 0)
(104.0048039 -2.622179182 0)
(104.0874761 -2.559969758 0)
(104.0501071 -2.548320984 0)
(103.9619379 -2.608201607 0)
(103.3971661 -2.799895991 0)
(103.5034082 -2.738215663 0)
(103.4311395 -2.716741403 0)
(103.3058609 -2.774386119 0)
(100.121403 -2.823083496 0)
(101.0902638 -2.796325545 0)
(100.0918604 -2.735536475 0)
(98.63383677 -2.764873151 0)
(105.0491622 -0.274718442 0)
(105.1677921 -0.1322170374 0)
(105.0620344 -0.5488546514 0)
(105.1773991 -0.3946818621 0)
(105.076431 -0.8203619651 0)
(105.1914739 -0.6606439239 0)
(105.0415905 -1.107434292 0)
(105.2021171 -0.9086317756 0)
(105.1231783 -1.067916254 0)
(104.9554758 -1.201044804 0)
(105.0829125 -1.149978272 0)
(105.0183192 -1.243099403 0)
(104.9403208 -1.475125277 0)
(105.0093489 -1.376783622 0)
(105.0618734 -1.40912795 0)
(104.9928165 -1.506170682 0)
(104.896039 -1.73550657 0)
(104.968894 -1.632197314 0)
(105.0101226 -1.654043271 0)
(104.9153267 -1.767256269 0)
(104.9520868 -1.740034803 0)
(104.8113209 -1.946443347 0)
(104.8542187 -1.893024953 0)
(104.8643864 -1.897669703 0)
(104.8186047 -1.949508998 0)
(104.5945115 -2.160311358 0)
(104.6537535 -2.106649725 0)
(104.6397351 -2.103020971 0)
(104.5748696 -2.154785698 0)
(104.1733395 -2.339830968 0)
(104.2559512 -2.286305571 0)
(104.210646 -2.274586497 0)
(104.1222799 -2.326014637 0)
(103.5209892 -2.483993603 0)
(103.6317099 -2.431799251 0)
(103.547404 -2.411725641 0)
(103.410447 -2.459915804 0)
(100.019306 -2.49310412 0)
(101.0102722 -2.469487854 0)
(99.9997457 -2.418469009 0)
(98.68201466 -2.448667895 0)
(105.2964253 -0.2530426094 0)
(105.4055139 -0.1218976103 0)
(105.3073498 -0.5049187553 0)
(105.4140121 -0.3630589028 0)
(105.3178366 -0.7531831347 0)
(105.4247068 -0.6072400401 0)
(105.280324 -1.014121431 0)
(105.4300156 -0.8328608223 0)
(105.3538351 -0.9774193458 0)
(105.2004408 -1.099793 0)
(105.3154309 -1.052052665 0)
(105.2546896 -1.136536273 0)
(105.1762179 -1.345519396 0)
(105.2409217 -1.256371356 0)
(105.2844257 -1.284455646 0)
(105.2185968 -1.371553415 0)
(105.1169249 -1.575850073 0)
(105.1869433 -1.482949345 0)
(105.2169664 -1.501155005 0)
(105.1260657 -1.601861538 0)
(105.1580021 -1.577036247 0)
(105.0116896 -1.758387818 0)
(105.0541454 -1.711228974 0)
(105.0573896 -1.714303064 0)
(105.0116145 -1.759873056 0)
(104.7643618 -1.940642424 0)
(104.8239259 -1.893902619 0)
(104.8025638 -1.889618532 0)
(104.7371969 -1.934564723 0)
(104.312885 -2.091106182 0)
(104.395866 -2.044955561 0)
(104.3440841 -2.033871746 0)
(104.2551175 -2.07816377 0)
(103.6177764 -2.2098164 0)
(103.7339429 -2.165513243 0)
(103.638632 -2.147206058 0)
(103.4898643 -2.187712356 0)
(99.95259945 -2.211233607 0)
(100.9500655 -2.190251705 0)
(99.94028505 -2.147305006 0)
(98.74291499 -2.17714428 0)
(105.5236165 -0.2327181213 0)
(105.624129 -0.1122860585 0)
(105.5319818 -0.4638354778 0)
(105.6311117 -0.3337308719 0)
(105.5376221 -0.6906792699 0)
(105.6378036 -0.5577656423 0)
(105.4959756 -0.9275596283 0)
(105.636858 -0.7632376082 0)
(105.5622768 -0.8941707281 0)
(105.421242 -1.005588663 0)
(105.5250619 -0.9617774656 0)
(105.4671878 -1.038083055 0)
(105.3863181 -1.226080323 0)
(105.4479176 -1.14566028 0)
(105.4828589 -1.170492938 0)
(105.4191086 -1.248423407 0)
(105.3107904 -1.430086014 0)
(105.3792386 -1.347141493 0)
(105.3988479 -1.362728683 0)
(105.3101964 -1.452021052 0)
(105.3381171 -1.429750964 0)
(105.1846243 -1.589144037 0)
(105.2272205 -1.547610953 0)
(105.2242171 -1.549772749 0)
(105.1779549 -1.589764178 0)
(104.9083542 -1.745646966 0)
(104.968662 -1.704961237 0)
(104.9409401 -1.700625539 0)
(104.8747691 -1.7396537 0)
(104.4302175 -1.873385972 0)
(104.5138043 -1.833522455 0)
(104.4566829 -1.823490501 0)
(104.3668323 -1.861698796 0)
(103.6945996 -1.972508378 0)
(103.8166134 -1.934813597 0)
(103.7112983 -1.918437452 0)
(103.5511581 -1.952592239 0)
(99.9120205 -1.969639859 0)
(100.9058518 -1.951072191 0)
(99.90517964 -1.914835449 0)
(98.81222571 -1.943789094 0)
(105.7322344 -0.2140384981 0)
(105.8251965 -0.1035053 0)
(105.7376248 -0.4261638803 0)
(105.8303712 -0.3070458834 0)
(105.7378204 -0.6336005812 0)
(105.8326694 -0.5127764448 0)
(105.6910123 -0.8486666071 0)
(105.8249083 -0.7003820921 0)
(105.750964 -0.8188977515 0)
(105.6204546 -0.9195131868 0)
(105.7143815 -0.8799764563 0)
(105.6585438 -0.9486582204 0)
(105.573891 -1.117767577 0)
(105.6333791 -1.045492755 0)
(105.660317 -1.067928832 0)
(105.5977011 -1.137489116 0)
(105.4816129 -1.299098037 0)
(105.5494256 -1.225330522 0)
(105.5594961 -1.239184696 0)
(105.4719232 -1.31808771 0)
(105.4964818 -1.298399812 0)
(105.3348352 -1.438586227 0)
(105.3779939 -1.402069624 0)
(105.3693844 -1.403805651 0)
(105.3222942 -1.438853084 0)
(105.0316804 -1.57412165 0)
(105.0929672 -1.538715601 0)
(105.0597883 -1.534744234 0)
(104.992669 -1.568640556 0)
(104.5302479 -1.683976822 0)
(104.6146015 -1.649503926 0)
(104.5529995 -1.640745479 0)
(104.4620527 -1.673726335 0)
(103.7564024 -1.767809586 0)
(103.884361 -1.73570244 0)
(103.7699412 -1.721292039 0)
(103.5990736 -1.750116779 0)
(99.89121958 -1.762570259 0)
(100.8746035 -1.746310605 0)
(99.88849529 -1.715658701 0)
(98.88699661 -1.743410205 0)
(105.923998 -0.197187079 0)
(106.0104339 -0.09563233909 0)
(105.9261471 -0.3922438206 0)
(106.0135973 -0.2832126196 0)
(105.9205514 -0.5823784962 0)
(106.0112817 -0.4725960434 0)
(105.8678881 -0.7779299798 0)
(105.9964077 -0.6446181535 0)
(105.9223067 -0.7519526685 0)
(105.8006379 -0.8421481576 0)
(105.8859087 -0.807043539 0)
(105.8314041 -0.8687066341 0)
(105.7419796 -1.021004842 0)
(105.8001684 -0.9562181969 0)
(105.819704 -0.9769824248 0)
(105.7574731 -1.038952091 0)
(105.6329017 -1.182953511 0)
(105.7008122 -1.117519801 0)
(105.7021792 -1.130342731 0)
(105.6148301 -1.199848523 0)
(105.6365837 -1.182690431 0)
(105.4662738 -1.306132256 0)
(105.5102886 -1.274073019 0)
(105.4966692 -1.275752021 0)
(105.4485267 -1.306426545 0)
(105.138507 -1.424623455 0)
(105.2008812 -1.393827715 0)
(105.1630432 -1.390513737 0)
(105.0949231 -1.419943962 0)
(104.6166317 -1.520306738 0)
(104.7018733 -1.490497731 0)
(104.636439 -1.483132141 0)
(104.5442396 -1.511580634 0)
(103.8067089 -1.592069168 0)
(103.9405538 -1.564748013 0)
(103.8178113 -1.552289903 0)
(103.636933 -1.57656567 0)
(99.8851512 -1.585550158 0)
(100.853608 -1.571551467 0)
(99.88545197 -1.545549011 0)
(98.96497634 -1.571871609 0)
(106.100721 -0.1822675561 0)
(106.1816558 -0.08870924508 0)
(106.0994741 -0.362257918 0)
(106.1826708 -0.2623357828 0)
(106.0879218 -0.537221908 0)
(106.1756427 -0.4373783341 0)
(106.0289483 -0.7155454889 0)
(106.1535409 -0.5960593902 0)
(106.078606 -0.6934383782 0)
(105.9642273 -0.7737402841 0)
(106.0420238 -0.7431043317 0)
(105.9882477 -0.7983652114 0)
(105.8933441 -0.9358590733 0)
(105.9509077 -0.8778763922 0)
(105.9636582 -0.8975983074 0)
(105.9011929 -0.9527225131 0)
(105.7676411 -1.08125384 0)
(105.8362488 -1.023461347 0)
(105.829627 -1.035580081 0)
(105.7419946 -1.096975596 0)
(105.76145 -1.081921828 0)
(105.5822588 -1.191009165 0)
(105.62733 -1.162917157 0)
(105.6092323 -1.164835689 0)
(105.5599017 -1.191628332 0)
(105.2321524 -1.295682942 0)
(105.2956451 -1.268932279 0)
(105.25383 -1.266488889 0)
(105.1847022 -1.292005912 0)
(104.6921579 -1.380086529 0)
(104.778381 -1.354353071 0)
(104.7096126 -1.348450483 0)
(104.6160453 -1.372931875 0)
(103.8481369 -1.442277623 0)
(103.9877272 -1.419108618 0)
(103.857357 -1.408575524 0)
(103.6672004 -1.428922665 0)
(99.88989727 -1.435020779 0)
(100.8405163 -1.423294024 0)
(99.89241523 -1.401186226 0)
(99.04439131 -1.425974135 0)
(106.264328 -0.1693238576 0)
(106.3407277 -0.08275565382 0)
(106.2596033 -0.3362747776 0)
(106.3395048 -0.2444512781 0)
(106.2420539 -0.4981773691 0)
(106.3277426 -0.4071571747 0)
(106.1764431 -0.6615401265 0)
(106.2984482 -0.5547068512 0)
(106.2220533 -0.6433062393 0)
(106.1135327 -0.7143161969 0)
(106.1849594 -0.6880978308 0)
(106.1313977 -0.7375698413 0)
(106.0305103 -0.862168515 0)
(106.088019 -0.8103056981 0)
(106.0946026 -0.8295062828 0)
(106.0314058 -0.8785210173 0)
(105.8884874 -0.9932483369 0)
(105.9583585 -0.9427536657 0)
(105.9445136 -0.9542050876 0)
(105.8560083 -1.009393497 0)
(105.8735213 -0.9953874765 0)
(105.6855357 -1.092384134 0)
(105.7317743 -1.067829698 0)
(105.709694 -1.070189694 0)
(105.659109 -1.093544318 0)
(105.3152708 -1.185882765 0)
(105.3798804 -1.162690261 0)
(105.334669 -1.161262283 0)
(105.2645369 -1.183337718 0)
(104.759022 -1.261305536 0)
(104.8463073 -1.239153651 0)
(104.7746013 -1.234746445 0)
(104.6795731 -1.255736203 0)
(103.8827204 -1.315909518 0)
(104.0278708 -1.296371299 0)
(103.8904906 -1.287716202 0)
(103.6917431 -1.304642024 0)
(99.90254353 -1.308209348 0)
(100.8333993 -1.298709786 0)
(99.90667108 -1.279933986 0)
(99.12389652 -1.303103147 0)
(106.4165456 -0.1583708951 0)
(106.4895011 -0.07777112441 0)
(106.4083207 -0.3142990057 0)
(106.4859755 -0.2295452716 0)
(106.3848208 -0.4651991468 0)
(106.469498 -0.3818912887 0)
(106.3124237 -0.6156597773 0)
(106.4330737 -0.5204274212 0)
(106.3546772 -0.6013590286 0)
(106.2506859 -0.6637454346 0)
(106.3168339 -0.6418654497 0)
(106.2630073 -0.6860787864 0)
(106.1557888 -0.7995735903 0)
(106.2137216 -0.7531928677 0)
(106.2147187 -0.7723087825 0)
(106.1503926 -0.815920875 0)
(105.9979839 -0.9184186627 0)
(106.0695353 -0.8748045566 0)
(106.0491802 -0.8858649171 0)
(105.9592004 -0.9359882824 0)
(105.9751182 -0.9226263357 0)
(105.7784264 -1.00932889 0)
(105.8259033 -0.9879245548 0)
(105.8002947 -0.99089334 0)
(105.7484246 -1.011206961 0)
(105.3900205 -1.09388708 0)
(105.4557327 -1.073834814 0)
(105.4076131 -1.07352941 0)
(105.3364791 -1.092564754 0)
(104.8189975 -1.16220595 0)
(104.9074163 -1.14322236 0)
(104.8330888 -1.140328532 0)
(104.7365222 -1.158224667 0)
(103.9120319 -1.210822237 0)
(104.0625424 -1.194489471 0)
(103.9186824 -1.187661506 0)
(103.71195 -1.201570069 0)
(99.92092659 -1.202838445 0)
(100.8307438 -1.195472257 0)
(99.92622551 -1.179623329 0)
(99.20248132 -1.201113732 0)
(106.5598415 -0.1493736308 0)
(106.6298226 -0.07376714898 0)
(106.5480727 -0.2962700987 0)
(106.6239624 -0.2176191328 0)
(106.5186698 -0.4381460499 0)
(106.6027761 -0.3615220648 0)
(106.4390581 -0.5778825987 0)
(106.5594888 -0.4932659596 0)
(106.4785227 -0.5675498213 0)
(106.3777632 -0.6218427829 0)
(106.4395593 -0.6041413555 0)
(106.3850962 -0.6436687907 0)
(106.2712574 -0.747662108 0)
(106.3300405 -0.706181739 0)
(106.3259968 -0.7255771993 0)
(106.2601934 -0.7644491977 0)
(106.09845 -0.8565806427 0)
(106.1719522 -0.8189824411 0)
(106.14598 -0.8306060976 0)
(106.0536161 -0.8756214265 0)
(106.0681697 -0.8635427352 0)
(105.8629215 -0.9409383649 0)
(105.9116777 -0.9223127849 0)
(105.8829817 -0.9260177646 0)
(105.8298067 -0.9436702236 0)
(105.4581885 -1.018492147 0)
(105.5249996 -1.001210975 0)
(105.4743867 -1.002109754 0)
(105.4022351 -1.01845638 0)
(104.8735389 -1.081283632 0)
(104.9631649 -1.065112305 0)
(104.8864724 -1.063738512 0)
(104.7882907 -1.078881923 0)
(103.9372694 -1.1252123 0)
(104.0929561 -1.111729685 0)
(103.9430538 -1.106669935 0)
(103.7288387 -1.117888223 0)
(99.94348449 -1.117031753 0)
(100.8314007 -1.111661134 0)
(99.9496322 -1.098450261 0)
(99.27941293 -1.118206263 0)
(106.6937994 -0.1423889939 0)
(106.7635826 -0.07068632782 0)
(106.6785806 -0.2822124329 0)
(106.7553052 -0.2085608612 0)
(106.64343 -0.4170481686 0)
(106.7294407 -0.3459310995 0)
(106.5575599 -0.5468378368 0)
(106.6787086 -0.4722267485 0)
(106.5952399 -0.5410799886 0)
(106.4963999 -0.5882843018 0)
(106.5555347 -0.5747661851 0)
(106.4995779 -0.6097908891 0)
(106.378812 -0.7060326579 0)
(106.4388772 -0.6688904847 0)
(106.4302724 -0.6890521499 0)
(106.3625753 -0.7236676459 0)
(106.191765 -0.8078418776 0)
(106.2672627 -0.7747166371 0)
(106.2360914 -0.7881269848 0)
(106.1413025 -0.8262897866 0)
(106.1549876 -0.8175194243 0)
(105.9409504 -0.886333996 0)
(105.9911057 -0.8701347844 0)
(105.9596791 -0.8747829406 0)
(105.9051306 -0.8900699907 0)
(105.5213246 -0.9586357251 0)
(105.5892525 -0.9438114868 0)
(105.5364837 -0.9459944837 0)
(105.463279 -0.9599467644 0)
(104.9238777 -1.017248898 0)
(105.0147897 -1.003591585 0)
(104.9359335 -1.003749873 0)
(104.836056 -1.016423824 0)
(103.95935 -1.057563226 0)
(104.120065 -1.046645447 0)
(103.9644662 -1.04331037 0)
(103.7431603 -1.052091199 0)
(99.96905824 -1.04922302 0)
(100.8344797 -1.045717749 0)
(99.97581752 -1.034932491 0)
(99.35416985 -1.052912325 0)
(106.8286999 -0.1371490716 0)
(106.8924278 -0.06868915356 0)
(106.8096875 -0.2718051667 0)
(106.8818015 -0.2026196936 0)
(106.7682327 -0.4015274882 0)
(106.8513088 -0.3354759174 0)
(106.6724084 -0.5258105979 0)
(106.7940423 -0.4589973041 0)
(106.7084579 -0.5227782056 0)
(106.6097322 -0.5630530521 0)
(106.6657056 -0.5531466695 0)
(106.6084493 -0.5853981764 0)
(106.4801955 -0.6746262284 0)
(106.5418457 -0.6413738409 0)
(106.5290796 -0.662622024 0)
(106.4592201 -0.6934086792 0)
(106.279165 -0.7713659017 0)
(106.3569662 -0.7418812569 0)
(106.3211635 -0.7574849765 0)
(106.2237712 -0.7895343866 0)
(106.2367387 -0.7836480082 0)
(106.0141492 -0.8450283345 0)
(106.065746 -0.8309997543 0)
(106.0318762 -0.8367110229 0)
(105.9759315 -0.8498687322 0)
(105.5807459 -0.9134628268 0)
(105.649815 -0.9008394067 0)
(105.5951565 -0.9043763131 0)
(105.5208578 -0.9161780143 0)
(104.9710673 -0.9690536827 0)
(105.0633489 -0.95766242 0)
(104.9824855 -0.9593749134 0)
(104.880826 -0.9698159395 0)
(103.9790095 -1.00668783 0)
(104.1446547 -0.9981074016 0)
(103.9836232 -0.9964758873 0)
(103.7554982 -1.003018248 0)
(99.99678882 -0.9982407171 0)
(100.8393411 -0.9964989698 0)
(100.0039818 -0.9880269001 0)
(99.42639162 -1.004155192 0)
(106.933324 -0.1345012733 0)
(107.0187781 -0.06730018304 0)
(106.9116083 -0.2658961327 0)
(107.0052269 -0.1988882725 0)
(106.8660109 -0.3926126694 0)
(106.9703461 -0.3288208768 0)
(106.7746206 -0.513560506 0)
(106.9061177 -0.4496376451 0)
(106.8095896 -0.510275678 0)
(106.7176569 -0.5452417659 0)
(106.7694491 -0.5408641098 0)
(106.7118545 -0.5686968739 0)
(106.5769143 -0.6529878407 0)
(106.6402345 -0.6229820542 0)
(106.6241444 -0.6457518415 0)