/*--------------------------------*- C++ -*----------------------------------*\
| =========                 |                                                 |
| \\      /  F ield         | OpenFOAM: The Open Source CFD Toolbox           |
|  \\    /   O peration     | Version:  v2012                                 |
|   \\  /    A nd           | Website:  www.openfoam.com                      |
|    \\/     M anipulation  |                                                 |
\*---------------------------------------------------------------------------*/
FoamFile
{
    version     2.0;
    format      ascii;
    class       surfaceScalarField;
    location    "0.49";
    object      phi;
}
// * * * * * * * * * * * * * * * * * * * * * * * * * * * * * * * * * * * * * //

dimensions      [0 3 -1 0 0 0 0];
oriented        oriented;


internalField   nonuniform List<scalar> 
5999
(
0.000446467751
0.9162035322
0.0005620314324
0.9165844363
0.000670719581
0.9165413118
0.0003258903894
0.9165649962
0.0004298330034
0.458338817
0.0003370733725
0.4583033088
0.000417124048
-0.0004204328321
-0.0005255532816
0.4582778757
0.0005976775882
-0.000666877584
0.4582259542
0.0007759233498
-0.0008939227436
0.4582034064
0.001020516329
-0.001163455545
0.4581840678
0.00131438777
-0.001463172706
0.4581912758
0.001606896879
-0.001742374652
0.4582294112
0.001844463429
0.001229150019
0.9149743822
0.001963761356
0.915849825
0.002267598691
0.9162374745
0.0006950588132
0.9170122558
0.001125280295
0.4580442165
0.0008311043243
-0.458180262
-0.4581612121
-0.001017022952
0.4579291114
0.001249123547
-0.4580093759
-0.00153484676
0.4576673281
0.000881290725
0.0009956037639
-0.228941994
-0.001064878948
0.2288527609
0.001154111993
-0.001532446337
-0.2288815253
0.2287647785
0.001649193133
-0.002115104582
-0.2288378461
0.2286897416
0.002263209028
-0.002775372538
-0.2288465959
0.2286879902
0.002933978253
-0.003388972025
-0.2289254024
0.2287889063
0.003525481808
0.001566072564
0.9134083097
0.004166109786
0.9132497878
0.007040491236
0.9133630931
0.002937024868
0.9147080877
0.006407634385
-0.4579833455
0.4577797323
0.003140638013
-0.4577143356
-0.003157836107
0.4583234083
0.002548763433
-0.4572003051
-0.002677502186
0.4569162547
0.001432347975
0.001529204579
-0.2284185643
-0.001767405986
0.2282294509
0.001956519399
-0.2281819488
-0.002631408884
0.2279217178
0.002891639895
-0.2279883451
-0.003764694112
0.2277197502
0.004036132461
-0.2280749916
-0.004962458135
0.2277560972
0.005294696403
-0.2283079723
-0.006274032454
0.2280324615
0.006559413294
0.0005780011203
0.9128303085
0.001260686282
0.9125671026
0.002562079947
0.9120616994
0.003319281228
0.9116530945
0.002297791922
-0.4569881349
0.4565211655
0.003786250675
-0.4598229493
-0.005036016159
0.4567284687
0.008130496784
-0.45832671
-0.009442440856
0.4598208105
0.002292183265
0.0056561571
-0.2275332252
-0.00231192639
0.2273098557
0.002535295908
-0.2269565769
-0.003506840768
0.2265334319
0.003937330905
-0.2264391484
-0.005572867507
0.2258371396
0.006207614821
-0.2262703588
-0.008294014136
0.2255757891
0.009023217609
-0.2267498178
-0.01112973782
0.2261493759
0.01174924737
0.0001955385308
0.91263477
0.0004540374891
0.9123086036
0.0008937727955
0.9116219641
0.001461284267
0.9104584583
0.0006271248055
-0.4562099687
0.455387114
0.002284139043
-0.4552506756
-0.002751176267
0.4545678021
0.003434049783
-0.4536563298
-0.004362979109
0.4528050988
0.002746871685
0.002467338431
-0.2278772983
-0.004635480378
0.2259704767
0.006542886491
-0.2255898705
-0.01037911747
0.2270915543
0.008917114813
-0.2235246468
-0.007851383709
0.2226751976
0.008758692598
-0.2228818445
-0.01196840431
0.2217788528
0.01311763236
-0.2236725874
-0.01663015632
0.2225689433
0.01775461181
-8.874661345e-05
0.9127235166
-6.93375947e-05
0.9122891946
0.000211607803
0.9113410187
0.000389514309
0.9099065407
0.0003740111047
-0.4544705562
0.4541168707
0.0007431997738
-0.4540036478
-0.001752624653
0.4531836289
0.00257264352
-0.4519000294
-0.003190104516
0.4507953198
0.002125348065
0.002169466001
-0.2241824311
-0.002849101457
0.2236617589
0.003390905749
-0.2213587822
-0.005622398984
0.2205010637
0.00654581165
-0.2213313501
-0.01177015453
0.2186459125
0.01452792566
-0.2195908633
-0.01949031199
0.2199413849
0.01918172804
-0.2185261918
-0.02309328739
0.2181005399
0.02352885472
-0.0005157040561
0.9132392207
-0.0008927265641
0.9126662171
-0.001100232547
0.9115485247
2.454986469e-05
0.9095176423
-0.0007358840418
-0.4539568699
0.4536197346
0.0003616852295
-0.4520858292
-0.0006335363811
0.4516731218
0.001046243814
-0.4503366391
-0.002070739213
0.4498390268
0.001234464608
0.001334306239
-0.2220206626
-0.002098215615
0.2215005539
0.002658656512
-0.2180452132
-0.004871189058
0.2174483468
0.00555048186
-0.2148517647
-0.008251535612
0.2139906429
0.00918409075
-0.212570804
-0.01328425026
0.2102423786
0.01563694887
-0.2117321371
-0.02954123754
0.1076861356
0.1020550939
0.0136701924
0.01786195269
-0.0009673933892
0.9142066141
-0.001875113875
0.9135739376
-0.002576261938
0.9122496728
-0.001300740225
0.9101310562
-0.001888935596
-0.4535757117
0.4535613729
-0.001286401413
-0.4514751427
0.001321670743
0.4513565298
-0.0012030578
-0.4484264605
0.001011459977
0.4479988324
-0.0002565529805
-0.0003220613792
-0.220207318
-0.0006367984103
0.2199030996
0.0009909856166
-0.215519486
-0.002255440488
0.2152650035
0.002597582631
-0.212036776
-0.004100724686
0.2115303343
0.004676895652
-0.207138211
-0.006222010849
0.2067992171
0.006569284507
-0.09616901064
-0.004456383288
0.09624455413
0.004380839799
-0.001415372399
0.9156219865
-0.002756264796
0.91491483
-0.004163550595
0.9136569586
-0.002415195258
0.9113805225
-0.002997821662
-0.4537667644
0.4539631071
-0.00261153797
-0.4514282821
0.002843436409
0.4516454459
-0.003060600228
-0.4478029335
0.003258582753
0.4478946222
-0.001546584779
-0.001792845425
-0.2194225147
0.001473015618
0.2192664332
-0.001256517544
-0.2142841975
0.0003969863373
0.2140760914
-9.058142063e-05
-0.2109386702
-0.0005945400452
0.2109363424
0.0006702733392
-0.2076000015
-9.946934798e-05
0.2081624997
-0.0004590781844
-0.09979968497
0.001729289168
0.1002716814
-0.002201285632
-0.001825951338
0.9174479378
-0.00376336625
0.9168522449
-0.005639982548
0.9155335749
-0.003524386332
0.913380053
-0.004115126674
-0.454383424
0.4547997561
-0.003940718461
-0.4519586579
0.004423257754
0.4525124149
-0.004977014808
-0.4481777327
0.00551036302
0.4487097836
-0.002822364938
-0.00320252036
-0.2190203534
0.002960341658
0.2189817407
-0.002852316782
-0.2137536433
0.002408334128
0.2137313585
-0.002277261362
-0.2113020388
0.002196891374
0.2115298418
-0.002346003701
-0.2100217564
0.003521500671
0.21064871
-0.004146015306
-0.10231506
0.003086794732
0.1025073261
-0.001627242882
-0.001651817993
-0.002317236723
0.9197651746
-0.004627483702
0.9191624919
-0.007086456683
0.9179925479
-0.004590879155
0.9160470255
-0.005162550075
-0.4554238918
0.4560452702
-0.005212257575
-0.4531502058
0.005972864209
0.4538626185
-0.00668527689
-0.4495905371
0.007514952695
0.4506931601
-0.004189045322
-0.004400919782
-0.2190181578
0.0042341527
0.2190690674
-0.004205476203
-0.2138550072
0.004043532839
0.2139506918
-0.004019540588
-0.2124092982
0.004313947844
0.2127617748
-0.004583087332
-0.2124908972
0.006022583352
0.2131001356
-0.006630819766
-0.1036339196
0.004100252835
0.1037576268
-0.002099382706
-0.002124577328
-0.002760196067
-0.005543178103
-0.008464061577
-0.005547480681
-0.4568341696
-0.006326002261
-0.4547857973
0.007229743915
-0.008204143628
-0.4517322675
0.009271442711
-0.005100709538
-0.005457412402
-0.2193058825
0.005201798066
0.2194052835
-0.005210334556
-0.2143808552
0.005203440077
0.2145700181
-0.005261886138
-0.2139960269
0.005847334113
0.214472849
-0.006237075796
-0.215012632
0.008076741209
0.2157040002
-0.008768004757
-0.1045775722
0.005275625831
0.1047067768
-0.002684064055
-0.002720766363
0.001427212887
-0.001955241592
-0.09927165626
0.002955328328
-0.1021128288
-0.001568640142
-0.001588919378
0.00397581365
-0.1034989899
-0.00204595512
-0.002064788223
0.005110725406
-0.1044540012
-0.002600470905
-0.002633825492
-0.005934077752
0.006201995709
-0.09643692859
0.002775731265
-0.003403547924
-0.209391139
0.1026456439
-0.1024356145
0.002745298895
-0.1002898599
0.001321923643
0.1006972254
0.005455015811
-0.006059115887
-0.2118854805
0.1039768424
-0.1038335558
0.003832527023
0.002893866816
0.1028385718
0.1030393422
0.003480800329
-0.1028752403
-0.001813845816
-0.001831056372
0.05119963594
-0.001135735768
-0.0509771005
0.002124969408
-0.001211769075
-0.05062722939
-0.0009373026164
0.001846042351
0.05064201801
-0.0009235283461
0.007566248502
-0.008253182684
-0.2143253965
0.105015135
-0.1048794792
0.004975069625
0.003967503894
0.1041095913
0.1041113285
0.004499716689
-0.1039946375
-0.002294332222
-0.002322075449
0.02584019201
-0.001081193697
-0.02591234101
0.001153342692
-0.05103200202
-0.001066943414
0.002224388564
0.05102308852
-0.001148531656
0.005130884105
0.1051598767
0.05263885931
0.002917897136
-0.002964365861
-0.05259239058
0.02744033053
-0.00208923403
-0.02719632525
0.001845228747
-0.02671688821
-0.001072982017
0.001241234589
0.02654863564
-0.04688996775
0.002022917497
0.04741815351
-0.00128434433
-0.001266758928
0.04979557929
0.002088407352
-0.04948641801
-0.001275314174
-0.001122254462
-0.002411437265
-0.04325047759
0.04340319456
0.002258720292
0.001857361798
-0.00240548106
-0.04634184849
-0.0009037217305
-0.05060714771
0.001813732328
-0.0009300922865
-0.001737445818
-0.05017828812
0.001695722353
0.05022001159
-0.1013623665
0.002514221276
0.1016442528
-0.002796107549
-0.05001232515
0.05000464344
-0.0008311330786
-0.0008986310359
0.02539899275
-0.0009024920089
-0.02540022247
0.001994673643
0.04993460239
-0.001152819317
-0.0009808774219
0.001724367533
-0.05002229457
-0.0008406469137
-0.0008737511996
-0.001073691712
-0.05108616919
0.002174623434
-0.001046764548
-0.001194305838
0.002105204716
0.05131407519
-0.001025338132
0.003604946404
0.1032047653
-0.001875451708
-0.001894917828
-0.02595134095
0.02600884026
-0.001251805141
0.02532242421
-0.001007298256
-0.02538881767
0.02537367172
-0.0009119815899
-0.001343455224
-0.0257436215
-0.001114591324
-0.02685516843
0.001252871538
-0.001089916285
0.001170687468
0.02575942083
0.004643457992
0.1042253794
-0.002362554526
-0.002394954308
-0.02603562728
0.02588326617
-0.0009375551742
0.02733128823
-0.0008687678118
-0.02757711174
0.02529130295
-0.00103582216
-0.0009302473283
-0.02618657365
-0.001519586075
0.001578995079
0.02738092153
-0.003010282833
-0.0279571007
0.02775564823
-0.001318133604
0.0270540587
-0.0007957524946
-0.002328436961
-0.02771789776
-0.001351019211
0.0008963047821
-0.2071407227
-0.09985198259
0.0009893355601
-0.09766493576
-0.00440926278
0.09761781525
0.0974762921
-0.0008338611958
0.0002445786637
-0.09688700957
0.04706827994
-0.04660419948
0.001393281329
-0.04405472004
-0.002541568588
0.04418485137
0.002354655489
-0.002672003064
-0.101045019
-0.05014869794
0.001694777354
-0.04958006756
0.001826897926
0.04974784328
-0.04934876743
0.001857107217
0.00159601902
0.04749517842
5.3568138e-06
0.09808561102
-0.0006146757292
-0.021795393
6.349668873e-05
0.02164943224
8.246406685e-05
-0.001449266356
-0.01837668095
0.01833214709
0.00149380021
0.002360920274
0.02105268583
-0.00252292033
-0.02089068578
-0.02236278662
-0.09789122629
0.0480856738
0.04672854035
0.01277287893
0.01266691983
-0.003273112377
0.003858940793
-0.043836306
-0.001193060034
-0.02529446225
0.001349286619
0.02513823567
-0.05187605197
0.002921911908
0.05189403715
-0.002939897092
0.05199321807
0.003069741151
-0.003101253697
-0.05196170552
0.005682086586
-0.02136311017
0.03013856463
-0.01445754105
-4.112208892e-06
-0.02191893353
0.0001276527385
0.04851717988
0.002130399945
-0.04821568184
-0.001227855677
-0.001204042311
0.02407110641
-0.02444381037
0.000368591758
-0.02338857666
0.003939723192
0.02513094006
0.02416370895
-0.02637873656
0.002264583917
-4.955630337e-05
0.0004396660057
0.02369493709
0.002130245417
0.04879190951
-0.001200387066
-0.001204587975
0.04454372953
0.0001431611947
-0.0007338965643
-0.04395299416
0.02147252649
-0.02105052649
0.001938920271
-0.01941923513
-0.001095141571
0.01906511035
-0.004038165607
-0.02262672043
0.003276309379
-0.002984445668
0.002328104357
0.0221288678
0.0008206586655
0.04516706709
-0.001443996225
0.0216246866
-0.003556446431
-0.003921805118
-0.02147947066
0.02538203599
0.0009077247302
-0.0009969788744
-0.02529278184
-0.02196030784
0.0001217734334
0.02187709138
-3.855696786e-05
0.0009400184625
0.02541546202
-0.0009734444996
0.0500263363
0.001813179684
-0.05001156043
-0.0009443121486
-0.000883643408
0.02256475256
-0.02261968552
0.0001288622424
-7.392928402e-05
0.0007718465702
0.02338844465
3.417724966e-06
-0.02203554807
0.0001240245048
-4.878427089e-05
0.0001325672036
0.02248658744
-5.440208092e-05
0.001779320618
0.05003496866
-0.0009132881389
-0.0008746648337
0.02581896512
0.0009839369141
-0.0009567461309
-0.0258461559
0.001053149325
0.02573287633
-0.0009670605289
0.02526719141
0.0009844882529
-0.0009693401362
-0.02528233953
0.0009887218636
0.02525843806
-0.0009799685087
0.02510490301
0.00140062259
-0.001457343294
-0.02504818231
0.001655393241
0.02541836855
-0.001968858783
0.02689522623
0.00132467216
-0.001538308709
-0.02668158968
0.001214109495
0.02694318691
-0.001262070179
0.003111913514
-0.003135172148
0.02501775139
0.00113877505
-0.0008503206148
-0.02530620583
0.02474926115
-0.0009245697906
-0.0451283498
-0.01331222103
0.04155048711
-0.00250297673
0.002533138154
-0.01840684237
-0.02625075863
0.001184423121
0.026280445
-0.05159256753
0.002268498683
0.05161469517
-0.002290626322
0.05166415722
0.002368265488
-0.002384364136
-0.05164805857
-0.05149222099
0.002156380577
0.05151898089
-0.002183140471
0.002244805887
-0.00226823047
-0.05156914295
-0.02613716143
0.001211074964
-0.05183578994
0.002728892156
0.05184737006
-0.002740472278
0.002866979922
-0.002875490265
-0.05186754163
-0.02546663988
0.001310952678
-0.05123539599
-0.001004081315
0.002106344429
0.0511862822
-0.05137660177
0.002047388923
0.05140888722
-0.002079674371
0.002125975588
-0.002153811721
-0.05146438486
0.02445623688
-0.0003664535501
-0.02474314036
0.0006533570386
-0.0003557578895
-0.02556513204
0.0006269761532
0.02529391378
-0.02556816797
0.001047867013
0.02550290119
-0.0009826002349
-0.02542021532
0.001459786718
0.02561582185
-0.05173150367
0.002583809328
0.05174535769
-0.002597663352
0.002686771074
-0.002702657048
-0.05181990397
0.002404576618
0.05168019008
-0.002420609482
0.002522898896
-0.002540904172
-0.05171349839
-0.02536408115
0.001344488422
0.02541655132
0.001112580985
-0.0009548443257
-0.02557428798
0.0248430916
-9.99336984e-05
-0.02512590831
0.000382750416
-0.02587522368
-0.0001510856857
0.0004026857146
0.02562362365
0.02310754963
-0.02326489886
0.0001779713191
-2.062208729e-05
-0.02669322097
0.002297556528
0.02438126807
1.439637638e-05
-0.02747462004
0.001692779066
0.02776305546
-0.001981214481
0.02551890181
0.001332776571
-0.001517983569
-0.02533369481
0.0236530039
-0.002235161451
-0.02361090069
0.00219305824
-0.0004253527957
0.0007208510903
0.02416073858
-0.0001433852933
-0.0261285494
0.0003967110148
-0.0001278753607
-0.02689436738
0.000386568
0.02663567475
-0.02663274635
0.001064087165
0.02648594292
-0.0009172837262
0.0261838295
0.001071604663
-0.0007798598134
-0.02647557435
0.02259202704
-0.02271502398
0.0001131649136
9.832024224e-06
0.0001107406152
0.02295990434
3.690467312e-05
-0.01964279083
0.004485347969
0.01511352347
4.391939866e-05
-0.02470091958
0.002635704031
0.02559170872
-0.003526493168
0.01954779702
0.001414981105
-0.02102564487
6.28667431e-05
0.004417602414
0.01506929667
6.089794166e-05
0.01916915475
0.0006847795893
-0.001056780385
-0.01879715395
0.001249832686
0.01970518338
-0.001785861322
0.02244645787
0.0006824005677
-0.02322720547
9.834703741e-05
0.0002119094999
0.02217383972
6.070864747e-05
-0.02568781323
0.0006847476973
0.02521497504
-0.02478391771
0.001348367665
0.02471752144
-0.001281971395
0.02431405081
0.001226033463
-0.00108317567
-0.0244569086
-0.02375643358
0.001716919695
0.0241855232
-0.002146009308
0.001447740248
-0.001486339687
-0.02474531827
-0.02619157435
0.00118616168
-0.02193146308
0.004429346144
0.02191971935
-0.02449086513
0.001808954254
0.02510690244
-0.002424991558
0.02686286685
0.001512621506
-0.001835091206
-0.02654039715
0.001230201501
0.02419172182
-0.001107872514
0.001594887719
-0.001900984444
-0.02418476841
-0.02268286418
0.002166382204
-0.001114672341
-0.02370619677
0.001508558172
0.02331231094
-0.02282811516
0.001424344238
0.02294957897
-0.001545808044
0.00165537982
-0.00205287612
-0.02335893728
0.02386566713
0.001878797352
-0.001663664962
-0.02408079951
0.0231672353
-0.0004162405143
-0.0210844683
0.001505679828
0.01959793264
-1.91441677e-05
-0.02374862837
0.001657378466
0.02414768196
-0.002056432053
0.02761689184
0.002269179251
-0.003313716259
-0.02657235483
-0.02414603174
0.0007192080065
0.02397452707
-0.0005477033331
0.001158312583
-0.001197114338
-0.02370982662
-0.02157477715
0.0004673970372
2.29118098e-05
-0.02757134587
0.0005732154161
0.02734608952
-0.0003479590706
0.02666423543
0.0005438324731
-0.0003127044015
-0.0268953635
0.001692493241
0.02801358802
-0.002089189427
0.0006360232777
-0.0004147399358
-0.02779262921
-0.02288414097
0.0001191677077
0.02281761796
-5.264469724e-05
-0.02639934707
0.0007923172791
0.02619810718
-0.0005910773882
0.02560685596
0.0007521130678
-0.0005617153282
-0.0257972537
0.001214837194
0.02689684691
-0.001248817258
0.0008221783558
-0.0006249393423
-0.02659658608
-0.02297172321
0.0001240326902
-3.645044306e-05
-0.0222621697
7.558845833e-05
0.02216556316
2.101808197e-05
-0.024865835
0.0007090046264
0.02467961207
-0.0005227817007
0.00070785754
-0.0005328858778
-0.02432100341
0.0007450180825
0.02542064881
-0.0005588109337
0.0007155612925
-0.0005290434863
-0.02505235281
-0.02235268627
8.426096251e-05
6.25561221e-06
-0.0271919016
0.0003762157601
0.02694812245
-0.0001324366171
0.0262354761
0.0003233443857
-8.450125566e-05
-0.02647431923
-0.02810611743
0.002148595224
0.02819464057
-0.002237118367
0.0004507998976
-0.0001706343467
-0.02747206715
-0.02529728875
0.02506708918
-0.0001255583206
0.0243365894
-0.0001063070788
-0.02459673587
0.0003238167463
0.02599612633
-8.446697023e-05
0.000351972263
-0.0001227084725
-0.02552655254
-0.02564250617
0.0005455908359
0.02538074253
-0.0002838271958
0.0245850032
0.0005700000663
-0.0003017764219
-0.02485322684
0.0005339467202
0.02641387977
-0.0002835910646
0.0005396607132
-0.000280356614
-0.02590181027
-0.02350878371
0.002134520527
0.02356289107
-0.00218862789
0.003405702053
-0.004701736162
-0.02681008332
0.0005955926712
0.02431320048
-0.0003237899515
0.001276342563
-0.001037793793
-0.02374733248
-0.0005123022494
0.02318307503
-0.02379730081
0.001126528038
-9.710602041e-05
0.0003928063557
0.02454739126
0.001128143961
0.02526357184
-0.0009751644774
-0.02230952372
0.02218555975
2.685794616e-05
0.02130088396
-0.02181469418
1.507971538e-06
-0.02273445046
0.02262692804
-4.356325866e-05
-0.02244070285
3.124543323e-05
0.001533158967
0.01978017829
-1.245329786e-05
0.001957629563
-0.002593648936
-0.02683860067
-0.03146584525
0.004795480567
-2.285629246e-05
0.002289328806
0.02242690519
-0.002279140657
0.02823959731
-0.02816292759
0.002202470936
-0.004585468106
0.003414799715
0.02482367229
0.001469205132
0.02582176528
-0.001772068601
-0.02235918588
0.02235760777
-0.004583890004
0.02451157434
-0.02678583384
-4.881148427e-06
0.02404230592
-0.0001310693201
-0.001515370533
-0.02307897679
-0.02316094567
0.02305235341
-1.928309718e-05
-0.02284114673
-3.668903141e-05
0.0008017839191
0.02371965535
-9.864933504e-06
0.0001345668652
-0.02327785384
-1.765869184e-05
0.001065889347
-0.0009287251479
-0.02676991055
-0.02716606479
0.0004062642749
0.001190982678
0.02785039855
0.02207423412
-0.02221215251
0.0001639493068
-2.603091156e-05
0.0001243572751
0.02247089048
-3.220712568e-06
0.001082655545
0.02589075533
-0.0007895813781
0.002083022759
-0.002336716178
-0.02444722616
-0.02118495059
0.001474568786
6.759096797e-05
0.0002026123137
0.02191486927
-4.324747227e-05
-0.05070480264
-0.001016337706
0.001973331003
0.05073653121
-0.05105161153
0.001841573173
0.05109545651
-0.001885418155
0.05123488866
0.001922726404
-0.00196798079
-0.05118963428
0.001716330797
-0.05086600247
0.05091428248
-0.001764610807
0.001808164656
-0.001856883403
-0.05100289278
-0.0009784595788
-0.05068234363
0.001940488817
0.001949125762
0.05127851995
-0.001992757051
0.002026617426
-0.002056093691
-0.0513471255
-0.001059271803
-0.05127894405
0.002086756779
0.0260514211
0.0009673239309
-0.000982737122
-0.02603600791
0.02775856196
-0.02802154379
0.0007137817315
-0.02797904923
0.001795854968
0.02833178949
-0.02696589295
0.002392545769
-0.02424660591
0.001772630068
0.02460849637
-0.02529967506
0.001107192308
0.02540616397
-0.001213681211
0.0002364732306
0.02151051427
-9.755526104e-05
0.02547881389
0.004551756557
0.0001079941851
-0.01473680236
0.0002792613109
-5.597140025e-06
-0.02206125076
0.0001479143705
0.0003792063134
-0.02482861383
0.02462937891
-0.02505284041
0.0008026678178
0.02421548467
0.0007824859946
0.004703542418
-0.03104073366
-4.154531396e-05
0.02745727526
-0.02617848336
0.003424750522
0.02754981583
0.002172043346
0.02382063982
0.0008345108516
-0.000638708006
0.02345539384
0.001003953988
0.02329270232
-0.021765477
0.001103578505
0.02203162014
-0.00136972165
0.00129491838
-0.001539963992
-0.02258306955
-0.02369152871
0.001864129297
-0.00494194902
0.02309721545
0.003469420168
-0.02001197592
0.02813092881
-0.0130609019
-0.003328212625
-0.02024020973
-0.01886694984
0.0002083423657
0.001123483752
-0.02021506619
0.0002246326016
-0.02235426476
0.001998277854
0.01516075646
-0.01507076015
-8.999630792e-05
0.03114902623
-0.02196339109
0.00597512132
0.02652574588
0.004646177877
-2.289752967e-05
0.02365497161
-0.02385703992
0.0003238417392
-0.0001365989184
0.02341946774
0.0003721027943
0.02178152251
-4.103005394e-05
0.02293297955
-0.02300515957
0.0001356508759
-6.347085457e-05
0.02288035619
0.0001250092037
-7.238585154e-05
0.02432649892
0.002229550502
-3.03035391e-05
0.02357645362
0.000786152455
-3.610715321e-05
7.857060149e-05
-0.02272768354
2.942741641e-05
0.02560659513
-0.02583471795
0.0003066934237
0.02541122756
0.0003242298068
0.02716927863
0.001152383764
-0.0002667598065
0.02680076574
0.0006352726977
0.02311032087
1.136397648e-05
0.0001286209932
-0.02209924788
-6.492119116e-05
0.02404531626
-0.02422719217
0.0003104969021
0.0003123008464
0.02521656139
0.0003272333801
-0.0001341800461
0.02502643663
0.0003243048037
0.02241688432
-6.447692289e-05
0.02666476495
-0.02694302409
0.000601603527
0.0006444733906
0.02749030433
0.001073169873
0.025953398
-0.0009751467677
0.001027003798
-0.000976228467
-0.0256189433
-0.02583579296
0.0006226331773
0.0006025231207
0.02638605858
0.02478713962
-0.02500032962
0.0007831900578
-0.02563676065
0.0007564493921
0.02542590209
-0.02533422431
0.0009667963537
0.02531224509
-0.0009448171313
0.02229487858
-0.02237576765
7.041718797e-05
1.047188272e-05
0.02220831027
7.265735599e-05
1.391095095e-05
0.02276981058
5.877310364e-05
5.177250949e-05
0.02268885478
5.850581114e-05
2.244998861e-05
-0.01525054771
0.01523046455
2.008316675e-05
0.0221168191
8.265830657e-05
8.832867352e-06
0.0001099146758
0.02200276806
4.136359924e-06
0.001068943581
-0.001108829893
-0.02525978875
-0.02424172903
0.001271465686
0.0008048914644
0.02457784083
0.0004017938972
-0.0001534422198
-0.02537425999
0.02540173938
0.0007026957554
-0.02570264124
0.02508440611
0.0007000836884
0.000315591244
-0.02356761681
-1.287328908e-05
0.02732998565
-0.02774981418
0.0007354197822
0.02698340737
0.0005245495981
0.02818659963
-0.0281642518
0.002275208696
-0.000813752893
0.001250538339
-1.016339358e-07
0.02326098858
-0.02409858455
0.0008373781252
2.178433382e-07
0.0003506339776
-2.289753066e-05
0.0001057355222
-0.02283583483
1.507533448e-05
0.02603553676
-0.0263432753
0.0004134740649
0.02572880924
0.0004198924289
0.02665591148
0.0004382365003
-0.000102494489
0.0004151306702
2.157501691e-05
0.02642051178
-0.03120301067
0.004776773543
5.725351184e-06
0.002314795589
7.131638038e-06
0.02217769606
-0.02225577712
0.004563429029
-0.01508733365
0.006062019037
2.618981732e-05
0.0004682169278
1.665247442e-05
0.01508809794
-1.880127268e-05
0.01747012948
0.0008410771056
-0.01679338615
0.01774591671
0.001465431064
0.02076573034
-0.0249029924
0.00315345891
0.01799580919
0.002084634652
0.0006852864932
0.01775938636
0.002316867516
-0.01064772033
0.003504114291
0.002137071099
0.0001145373187
8.950384886e-05
2.308511427e-05
0.02418866441
-0.02311459435
0.003355276084
-0.005967083627
0.003977264679
0.001078055065
0.02314047289
0.00139297602
0.00219226074
-0.02378390632
0.02155861462
0.0005616267446
0.004002605642
0.0003444168435
0.003019021578
0.01396480435
0.0007027922105
0.0009039024529
-0.0003131226017
0.001126093144
-0.02074866086
0.0002204720646
0.0003937132436
0.02188400144
-0.02253937606
0.00216105445
-0.00459017568
0.004510786026
-6.300318799e-05
0.0001855955222
2.114984159e-05
0.02307400987
0.0005310533906
0.001002030848
0.02308859037
-0.02318180824
0.0001366380856
-4.342021109e-05
0.0001327737553
-4.934295717e-05
0.02331243668
0.0002941334315
-3.011649743e-05
0.0001668882914
-3.625984788e-05
0.02605938691
-0.02627516985
0.0003349506497
-8.857680452e-05
0.0003132457621
1.357614188e-06
0.0001424537226
-3.856066385e-06
0.02651267121
0.0004305482576
0.0003615340493
0.02441669087
-0.02462771564
0.0002866132252
-0.0001105965198
0.0003000952238
-4.428123765e-05
0.0001224095326
-5.821148923e-05
0.02483599581
0.0003128503512
0.0002925411367
-0.0001130008612
0.02671497319
0.0003461501277
-0.0232319334
0.02314386922
-2.493667735e-05
-0.02333329424
-3.107577391e-05
-0.02304309069
0.02295021205
8.377389975e-06
8.753462805e-05
1.324389755e-05
0.0003281885822
-0.0007754241649
0.02782147701
0.001148587726
-0.024521899
0.02373764399
8.830837164e-06
-0.02678417308
2.515572043e-05
-0.02347340596
-3.052262771e-05
0.0003021340302
-3.789600027e-05
0.0006515438957
-0.000126089219
0.02483565182
0.0003575265816
-0.02248776502
0.02239826744
-3.65916471e-05
-0.0225813056
-3.201773815e-05
-0.02230371349
0.02218990134
7.505074699e-06
0.0001175182385
-2.296428769e-05
0.000356434188
-8.985818581e-05
0.02575581269
0.0003301718272
-0.02285799283
0.0227571492
1.098543916e-05
7.752250841e-06
-0.02267263034
-3.138372873e-05
0.0001146482238
-3.012936338e-05
0.0003439083711
0.02245344461
6.368559919e-05
-0.02253383542
1.670520997e-05
6.939534937e-05
8.281611956e-06
-0.0002892754431
0.02511816433
0.0005518536484
-0.02512856951
0.02490868942
-0.02534871111
-0.02468514856
0.0244560295
0.0002939580458
0.000558895533
0.02261576124
6.408510337e-05
9.008436153e-06
5.98588316e-05
2.206699312e-05
0.01981436622
0.001485892283
-0.0213113255
1.106700057e-05
0.004549969856
1.384865022e-05
-0.004531621028
0.02474249707
0.003352015035
-0.02229970558
0.02231805441
-0.02300244119
-0.03150261142
1.670217476e-05
0.006045907535
0.00397832128
-0.0003856213222
0.02403321303
0.0006656087723
-0.02421489785
0.02393919121
-0.0235661094
-0.0004741255768
0.0005619452478
-0.000188863444
0.0008478257969
0.02179849449
1.54101301e-05
1.304341486e-05
0.0006400049827
-0.02421919578
-0.0002181100166
0.02408043592
-0.02442023634
0.0009798054067
0.02378870148
0.001418262475
0.02475655835
0.0007206541153
-0.0004555789145
0.0007919009233
-0.0001273834316
0.02204349686
1.467946056e-05
1.0692667e-05
0.02252482376
0.0001565487631
-5.444448756e-05
-6.93213045e-05
0.01519343031
0.004597315285
-1.056730368e-05
0.01524736289
-5.393258332e-05
0.006164783351
-0.02238326571
0.02692872216
-0.02491188006
0.004147941255
0.00355995093
0.02378925481
0.00228877548
-0.004640954767
0.003518329509
-0.0152628863
0.03152789774
0.006092596339
-0.01524641292
-1.647338445e-05
-0.01983539936
5.09643509e-06
0.004748125475
-6.061578563e-06
-0.0002179942012
0.02365666045
0.000603639674
-0.02206021558
0.02184662442
-4.403043985e-06
-1.38355828e-06
-0.02134930192
-1.467966775e-06
0.0005045177286
-7.195229131e-06
0.001082201388
0.02294676514
0.0001303686329
-2.478036882e-05
0.0001379737248
-3.235530733e-05
0.02343195183
0.0003023262668
-1.462274302e-05
0.0001699832241
-1.588523833e-05
0.0001418394742
-0.02234464058
-9.351401351e-06
0.02480034316
-0.02511421655
0.0004557128672
0.02447809222
0.0004862002438
0.02542270239
0.0004304641256
-0.0001320269725
0.0004405128172
-5.777075914e-06
0.0005594880237
-0.0216780805
-6.63581101e-05
0.0230580391
-0.02368437116
0.001185820081
0.002276830767
0.02412459433
0.0005561102051
-0.0002913049188
0.0007315280919
-5.451614241e-05
-0.001600371689
0.001771703138
-0.2285898958
0.002374897211
0.2282554577
-0.2284748698
-0.00215548521
-0.2289721912
-0.001385088263
0.2288248331
0.002602213056
-0.2284092647
0.00337593533
0.2280433098
-0.2283237168
-0.003095528417
-0.228922053
-0.001948635202
0.2287555836
0.003647192273
-0.2282595665
0.004378900834
0.2280609711
-0.2283074765
-0.004126575102
-0.2289077499
-0.002598019044
0.2287303964
0.004615341579
-0.2283038065
0.005368296866
0.2282571515
-0.2284941111
-0.005123161285
-0.2289452492
-0.003247704656
0.2288039818
0.005584498168
-0.228517142
-0.002155527747
0.002405544871
-0.2277832423
0.003310784062
0.2271148421
-0.2274387658
-0.002986860429
-0.002390133507
0.2280141824
0.003670988214
-0.2273150893
0.005036067967
0.2265517121
-0.2270352231
-0.004531965127
-0.00346083468
0.2277399216
0.005571283161
-0.2269491541
0.007356829714
0.2262730141
-0.2268637229
-0.006735455185
-0.004637555636
0.2277481554
0.007976130909
-0.2268597867
0.009774915686
0.2265532809
-0.2271080977
-0.009198590051
-0.00595514047
0.2279500607
0.01030467047
-0.2272623032
-0.009470109384
0.01071784566
-0.2291250346
0.005420573867
0.2278263796
-0.2261838425
-0.007041052516
-0.003140303988
0.2267496103
0.005375834101
-0.2255134291
0.007254673075
0.2238315449
-0.2246096868
-0.00642625721
-0.004978097773
0.2259854895
0.008160304126
-0.2243776973
0.01112831676
0.2229548485
-0.2239298967
-0.01010447855
-0.007578608476
0.2255938199
0.01217054713
-0.2238794031