/*--------------------------------*- C++ -*----------------------------------*\
| =========                 |                                                 |
| \\      /  F ield         | OpenFOAM: The Open Source CFD Toolbox           |
|  \\    /   O peration     | Version:  v2012                                 |
|   \\  /    A nd           | Website:  www.openfoam.com                      |
|    \\/     M anipulation  |                                                 |
\*---------------------------------------------------------------------------*/
FoamFile
{
    version     2.0;
    format      ascii;
    class       surfaceScalarField;
    location    "0.12";
    object      phi;
}
// * * * * * * * * * * * * * * * * * * * * * * * * * * * * * * * * * * * * * //

dimensions      [0 3 -1 0 0 0 0];
oriented        oriented;


internalField   nonuniform List<scalar> 
6430
(
-0.007387756955
0.9320056677
-0.01497310324
0.9315574474
-0.02270147639
0.9305384988
-0.007753852662
0.9289363747
-0.02318335863
-0.4592900623
0.4604417056
-0.008905495962
-0.4572935202
0.01017942669
0.4587284781
-0.01161438452
-0.4540817875
0.01307452663
0.4542381475
-0.006506952951
-0.006693610574
-0.2193307645
0.005831279262
0.2188271702
-0.005285355908
-0.2144994512
0.004325746359
0.2142796817
-0.004056355446
-0.215457691
0.004113089894
0.2154501544
-0.004076024258
-0.2175418885
0.006664888006
0.2187145237
-0.003914744173
-0.003922779007
-0.0528312395
0.002941038122
0.05291448025
-0.003024278866
-0.003851478445
0.9358571461
-0.007820498996
0.935526468
-0.01203072385
0.9347487236
-0.008222778383
0.9335322038
-0.008403774566
-0.4636279599
0.4648450872
-0.009439905675
-0.4619566644
0.01079849878
0.4634249905
-0.01226682479
-0.4554319655
0.01387091299
0.457457277
-0.007766011291
-0.00809924818
-0.2176691043
0.007925062678
0.2175718822
-0.007785232265
-0.2132191643
0.006816598934
0.2129018674
-0.006444148895
-0.2172507288
0.005761027331
0.2173207117
-0.005798405916
-0.2227900461
0.007174456839
0.2240209451
-0.004203836263
-0.004201519616
-0.05506750097
0.006533810291
0.1105823098
-0.0550320824
-0.00350304782
-0.003513488896
-0.004008643746
0.9398657899
-0.008131712281
0.9396495365
-0.01248597125
0.9391029826
-0.008540969746
0.9382419173
-0.00865471493
-0.4661442582
0.4674322465
-0.009828958037
-0.46490857
0.0112222635
0.4663946325
-0.01270832599
-0.4605106612
0.01431345755
0.4640921752
-0.008914314394
-0.008975250777
-0.2183941361
0.0108466764
0.2191298235
-0.01154800494
-0.2123678808
0.01258350577
0.2124334075
-0.01260017579
-0.2166029367
0.01186066524
0.2161865938
-0.01141055645
-0.2256949517
0.009621619185
0.2250136753
-0.008934134762
-0.1138338719
0.01105215323
0.2275547673
-0.01108229705
-0.1136907516
-0.00405916422
0.9439249541
-0.008221163835
0.9438115362
-0.01258709433
0.9434689131
-0.008621621094
0.9429231481
-0.008646704044
-0.4687146801
0.4700022164
-0.009909157377
-0.4678622867
0.01127768724
0.4693036277
-0.01271902828
-0.4670473882
0.01425836921
0.4687237731
-0.008004520431
-0.007930355111
-0.2230299127
0.01199997954
0.224936903
-0.01388710038
-0.2139163432
0.01837634464
0.214979931
-0.0194022744
-0.2153222054
0.02095651358
0.2153942953
-0.0209967923
-0.2229256152
0.02007970878
0.2224414725
-0.01958249459
-0.2250655866
0.01834550919
0.2235732326
-0.01685519107
-0.0040151018
0.9479400559
-0.008117601052
0.9479140354
-0.0123891825
0.9477404946
-0.008496020123
0.9474550303
-0.008425044624
-0.4712411205
0.4724777349
-0.009732634574
-0.4707017704
0.0110318299
0.4720529252
-0.01238298474
-0.4702981592
0.01380541903
0.4717946413
-0.007695083293
-0.007606817775
-0.2324339203
0.00853295075
0.2349142647
-0.01101114328
-0.2202459008
0.01942630779
0.2227053944
-0.02186439207
-0.2174413829
0.02761519138
0.2188225409
-0.02897327044
-0.2223179654
0.03154192732
0.222821136
-0.03203433049
-0.218611617
0.03160696214
0.2171351986
-0.03013676296
-0.003894540172
0.9518345961
-0.007858988447
0.9518784837
-0.01195290315
0.9518344093
-0.008195751386
0.9517470191
-0.008049140558
-0.4736500924
0.4748067614
-0.009352420377
-0.473345411
0.01055495009
0.4745799722
-0.01178951122
-0.4732061371
0.01306927057
0.474529741
-0.007255385156
-0.007137489402
-0.2365110792
0.007949261555
0.2368636016
-0.008301783986
-0.2318457947
0.01090009301
0.2352936875
-0.01434434618
-0.2250377497
0.02369318962
0.2276935545
-0.02633851789
-0.2259972998
0.03260581434
0.2275338781
-0.03413703661
-0.2147754355
0.03467547377
0.2148274148
-0.03473395216
-0.003715088133
0.9555496842
-0.007481942416
0.955645338
-0.01133846504
0.9556909319
-0.0077648793
0.9557400331
-0.007566599676
-0.4758934735
0.47695609
-0.008827495837
-0.475748875
0.00992028194
0.476856014
-0.01102742096
-0.4757658512
0.01215821426
0.4769179718
-0.006722422296
-0.006587912523
-0.2378324002
0.007313724105
0.2381277566
-0.007609080468
-0.2374930831
0.008494307844
0.2377858769
-0.008787101687
-0.2365088291
0.009643567524
0.2370615553
-0.01019590879
-0.2330129722
0.0166544658
0.2349766856
-0.0186173282
-0.2168106189
0.02119466351
0.217758493
-0.02214515631
-0.003494132981
0.9590438172
-0.007023056703
0.9591742617
-0.01060547851
0.9592733537
-0.007249250126
0.9594042039
-0.007020399167
-0.4779469924
0.4789099117
-0.008212169473
-0.4778965804
0.009191915329
0.4788764605
-0.01017179542
-0.47798577
0.01115754306
0.4789735361
-0.006133866885
-0.006011442251
-0.2389358797
0.006642710386
0.2391818132
-0.006888643932
-0.2385694106
0.007609014266
0.2388021182
-0.007841721808
-0.2377829757
0.008507921414
0.2379928819
-0.008717827596
-0.2365494247
0.009274467945
0.2366505299
-0.009375573187
-0.2196975594
0.009306434243
0.2200773365
-0.009686211368
-0.00324787049
0.9622916877
-0.006515806324
0.9624421976
-0.009806435437
0.9625639828
-0.006685677329
0.9627289729
-0.006445527121
-0.4798019209
0.4806682278
-0.007551984265
-0.4797929805
0.008422722366
0.4806531456
-0.009282887476
-0.4798860824
0.01013679958
0.4807282455
-0.005541636478
-0.005437326238
-0.2398533872
0.005978864353
0.2400577129
-0.006183190069
-0.2394262093
0.006770059621
0.2396121054
-0.006955955708
-0.2385455149
0.007479125253
0.2387072712
-0.007640881568
-0.2368793203
0.008045612919
0.2369357734
-0.008102065948
-0.2211225209
0.008084872911
0.2214408337
-0.008403185705
-0.002989362527
0.9652810502
-0.005986613108
0.9654394481
-0.008982325468
0.9655596952
-0.006106833321
0.9657214708
-0.005867990099
-0.4814636258
0.4822370059
-0.006880213431
-0.4814551071
0.007648932768
0.4822060646
-0.008399890352
-0.4815047138
0.009136582831
0.482219745
-0.004969479266
-0.004882134749
-0.2406155486
0.005344956291
0.2407854012
-0.005514808913
-0.2401124302
0.005994542998
0.2402619859
-0.006144098673
-0.2391362141
0.006559538125
0.2392626368
-0.006685960881
-0.2370603896
0.006984067023
0.2370897179
-0.007013395409
-0.2223097985
0.007038561836
0.2225719586
-0.007300721852
-0.002730010544
0.9680110608
-0.005458239644
0.9681676772
-0.008166797273
0.9682682528
-0.005537381996
0.9683989479
-0.00530689234
-0.4829420366
0.483628934
-0.006224279351
-0.4829050769
0.006900354413
0.4835589397
-0.007554217146
-0.4828794164
0.008189490154
0.4834884665
-0.004439484489
-0.004359055756
-0.2412491998
0.004757258836
0.241390498
-0.004898557021
-0.2406660999
0.005292400645
0.2407873566
-0.005413657272
-0.2396000943
0.005747199822
0.2397001308
-0.005847236266
-0.2371501982
0.006068107239
0.2371629339
-0.006080842952
-0.2232821393
0.006142490879
0.2234949542
-0.006355305769
-0.002477719389
0.9704887802
-0.004946257285
0.9706362151
-0.007382205547
0.970704201
-0.004992189847
0.9707841431
-0.00477521088
-0.4842513653
0.484859208
-0.005600032569
-0.4841669261
0.006193156692
0.4847352826
-0.006761513187
-0.4840507575
0.007308491905
0.4845699236
-0.003951637284
-0.003876020661
-0.24177674
0.004220698472
0.241894659
-0.004338617397
-0.2411162025
0.004663596061
0.2412152715
-0.004762665117
-0.2399683042
0.005033104262
0.2400481004
-0.005112900504
-0.2371847876
0.005276811986
0.2371877455
-0.005279769892
-0.2240689329
0.005370735882
0.2242404451
-0.005542248024
-0.00223838817
0.9727271683
-0.004462148236
0.9728599752
-0.006644640055
0.9728866929
-0.004481527164
0.97290288
-0.004281849811
-0.485407304
0.4859438859
-0.005018109081
-0.4852634605
0.005537684416
0.485757159
-0.006031382941
-0.4850494587
0.006502272935
0.485492447
-0.003506794759
-0.003438466504
-0.2422173557
0.003735056372
0.2423160736
-0.003833774278
-0.2414848404
0.004103228456
0.2415663596
-0.004184747585
-0.2402624513
0.004405701485
0.2403263581
-0.004469608258
-0.23718746
0.00459102796
0.2371850333
-0.004588601258
-0.2247023165
0.004701906096
0.2248403151
-0.004839904628
-0.002015547167
0.9747427155
-0.004012626853
0.9748570549
-0.005963057761
0.9748371238
-0.00401164996
0.9747816945
-0.003830222374
-0.4864258958
0.4868989869
-0.004484741109
-0.4862159576
0.004939671208
0.4866448876
-0.005368601232
-0.485901926
0.005774341013
0.4862804494
-0.003106195479
-0.003046668973
-0.2425866482
0.003300208175
0.2426695578
-0.003383117726
-0.2417889577
0.003607605041
0.2418564824
-0.003675129669
-0.2404982637
0.003856673848
0.2405495556
-0.003907965716
-0.2371731884
0.003997568854
0.237168178
-0.003992558421
-0.225212351
0.004122148314
0.2253236832
-0.004233480495
-0.001812052215
0.9765547677
-0.00360305453
0.9766480572
-0.005344472213
0.9765785415
-0.003585925913
0.9764473752
-0.003424226913
-0.487322637
0.4877397497
-0.004003038574
-0.4870435763
0.004401596425
0.4874166367
-0.0047746568
-0.4866306353
0.005124845225
0.4869547463
-0.002750712482
-0.002698243716
-0.2428972093
0.002916004986
0.2429671087
-0.002985904399
-0.2420414743
0.003173907816
0.2420977562
-0.003230189726
-0.2406876531
0.003380012941
0.2407288742
-0.003421234058
-0.2371514647
0.003486969016
0.2371456092
-0.003481113508
-0.2256247659
0.003622125885
0.225715213
-0.003712573046
-0.001629133126
0.9781839009
-0.003235575645
0.9782544997
-0.004791228002
0.9781341938
-0.003205623091
0.9779257959
-0.003064025647
-0.4881124297
0.4884806678
-0.00357386118
-0.4877636697
0.003923633314
0.4880888118
-0.004248775381
-0.4872549841
0.00455177462
0.4875332861
-0.002438435588
-0.002391640996
-0.2431593744
0.002579648915
0.2432185595
-0.002638834094
-0.2422523482
0.002797124442
0.2422995124
-0.002844288648
-0.2408398624
0.002968343458
0.2408729943
-0.003001475456
-0.2371280394
0.003049226088
0.2371223291
-0.003043515793
-0.2259610659
0.003191854937
0.2260354142
-0.003266203285
-0.001467381884
0.9796512827
-0.00291110491
0.9796982227
-0.004304003908
0.9795270928
-0.002870706854
0.9792416952
-0.002749196359
-0.488809163
0.4891351783
-0.003196722145
-0.4883916862
0.003504632444
0.4886760094
-0.003788955635
-0.4877915444
0.004052048306
0.4880313986
-0.002166063293
-0.002125839208
-0.2433816705
0.002287096135
0.243432034
-0.002337459602
-0.2424293384
0.002471467619
0.2424690535
-0.002511182724
-0.2409621534
0.002614184845
0.240988766
-0.00264079742
-0.2371060926
0.002674993648
0.2371010544
-0.002669955457
-0.2262390192
0.002822403396
0.2263011536
-0.002884537795
-0.0013269261
0.9809782088
-0.002629690999
0.9810009876
-0.003882308105
0.9807797099
-0.00258073992
0.9804188294
-0.002478702434
-0.489425759
0.4897156938
-0.002870674693
-0.4889414356
0.003143063887
0.4891913676
-0.003392995868
-0.4882543383
0.0036226591
0.4884617008
-0.001932069985
-0.001897951635
-0.2435712772
0.002036254142
0.2436144313
-0.002079408196
-0.2425786761
0.002193636569
0.2426123129
-0.002227273386
-0.2410603838
0.002313127557
0.2410817673
-0.002334511125
-0.237087298
0.00235859141
0.2370832013
-0.00235449465
-0.2264729935
0.002508763929
0.2265259996
-0.002561769995
-0.001207322412
0.9821855312
-0.00239022412
0.9821838894
-0.003524004697
0.9819134905
-0.002333125425
0.9814789491
-0.002250998985
-0.4899740773
0.4902338273
-0.002592875444
-0.4894254582
0.002835581394
0.4896468061
-0.003056929307
-0.4886553253
0.00325922496
0.488836599
-0.001735953713
-0.001704544957
-0.2437341453
0.001824282999
0.2437713548
-0.001861492441
-0.2427054736
0.001959585395
0.2427341596
-0.001988271396
-0.2411393652
0.002060217575
0.2411565814
-0.0020774338
-0.2370724796
0.00209407865
0.2370694422
-0.002091041324
-0.2266742269
0.00224532507
0.2267204617
-0.002291559858
-0.001108211291
0.9832937425
-0.002192005106
0.9832676832
-0.003227595116
0.9829490805
-0.002127903946
0.9824442244
-0.002064966439
-0.4904654198
0.4907000104
-0.002362494562
-0.489855104
0.002580799683
0.490053138
-0.0027788337
-0.4890069515
0.002958978015
0.489167919
-0.001574990919
-0.001544954594
-0.2438751365
0.001649500314
0.2439075448
-0.001681908569
-0.2428139919
0.001767065989
0.2428387107
-0.001791784817
-0.2412030749
0.001852625189
0.2412170201
-0.001866570464
-0.2370619542
0.001877892469
0.2370599956
-0.001875933884
-0.2268512312
0.00202873775
0.2268924812
-0.00206998776
-0.00102961343
0.984323356
-0.00203440735
0.9842724771
-0.002991917758
0.9839065909
-0.001958749648
0.9833283567
-0.001917300384
-0.4909090488
0.4911265023
-0.002176203188
-0.4902406349
0.002375759568
0.4904201463
-0.002555270906
-0.4893210978
0.002717312492
0.4894657951
-0.001443369719
-0.001418640088
-0.2439986587
0.001509127574
0.2440274451
-0.00153791388
-0.2429079834
0.001613127864
0.2429296202
-0.001634764584
-0.2412548756
0.001686964838
0.2412663138
-0.001698403071
-0.2370556703
0.00170606099
0.2370547254
-0.001705116172
-0.2270104441
0.001855064836
0.2270480877
-0.001892708414
-0.0009691796549
0.9852925356
-0.001914271061
0.9852175685
-0.002812927957
0.9848052478
-0.00183669615
0.9841623065
-0.001810181678
-0.4913195019
0.4915190861
-0.00203628036
-0.4905912
0.002219474373
0.4907561162
-0.002384390586
-0.4896036028
0.002532754282
0.4897355102
-0.00134104762
-0.001323614056
-0.2441092334
0.001400884077
0.2441353184
-0.001426969106
-0.2429908355
0.001494781885
0.2430101668
-0.001514113196
-0.2412976644
0.001559849298
0.2413072622
-0.001569447103
-0.237053283
0.001574798842
0.2370532459
-0.00157476169
-0.2271569438
0.001720643778
0.2271920877
-0.001755787672
-0.000933682666
0.9862262183
-0.001839360498
0.9861232463
-0.002699866967
0.9856657542
-0.001755098663
0.9849496056
-0.001732067358
-0.4916985803
0.4918791682
-0.00193568651
-0.4909150784
0.002109054001
0.4910701539
-0.002264129524
-0.4898626663
0.002403061911
0.4899855725
-0.001267825333
-0.001258142829
-0.2442102428
0.001323545003
0.2442344315
-0.001347733612
-0.2430655335
0.001410359951
0.2430832514
-0.001428077802
-0.2413340285
0.001469335037
0.2413424014
-0.00147770789
-0.237054396
0.001481989942
0.237055195
-0.001482789
-0.2272948444
0.001623814848
0.227328356
-0.001657326461
-0.0008965887786
-0.001775716234
-0.002610979285
-0.001706127798
-0.001664761905
-0.4920588517
0.4922360804
-0.00188335645
-0.4912203216
0.002046058369
0.4913686407
-0.002194377466
-0.4901063726
0.002327120192
0.4902215488
-0.001224871681
-0.001217424697
-0.2443047989
0.001276519759
0.2443278724
-0.001299593185
-0.2431347566
0.001359069648
0.2431514883
-0.001375801345
-0.2413664323
0.001414473367
0.2413742223
-0.001422263374
-0.2370588565
0.001426899001
0.2370604743
-0.001428516763
-0.227427237
0.001564533723
0.2274597188
-0.001597015589
0.002900869749
-0.002992422451
-0.0527396868
0.003244847938
-0.003362697852
-0.05494965105
0.006412570835
-0.2163957143
-0.003739816284
-0.003818928699
0.1060709566
-0.002882724224
-0.1056933677
0.005406005102
0.023140723
-0.2213268706
-0.0204078131
-0.004196085342
0.1102510286
-0.003240032997
-0.1098157482
0.006049600507
-0.002955736587
0.005542651408
0.1064250799
0.05359351551
0.003087946928
-0.003192191579
-0.05348927086
0.02640738797
-0.0003151092097
-0.02695779156
0.0008655128005
-0.02788319063
-0.0008356833724
0.001225231133
0.02749364287
0.005952328059
-0.006302108774
-0.1134840912
-0.001372264351
-0.02811408829
0.001603162014
0.02730723403
-0.000869802069
-0.02780969631
-0.002911964583
0.04699918126
0.004029324908
-0.02555851629
-0.02255802529
-0.0002374416386
0.0006748089001
0.02597002071
0.003108267249
0.05369175835
-0.00320651009
-0.02251703241
0.02235211489
-7.252412141e-05
0.02641661903
-0.005167242784
-0.01255608353
-0.0116052573
0.02682409783
-0.0003525471705
-0.0229016628
6.952117743e-05
0.005423839556
0.02540537681
-0.02432719364
-0.001223044418
0.00164964284
0.02390059522
-0.05228633848
0.003430874838
0.05240183112
-0.003546367476
0.05271247196
0.003487165262
-0.0526323477
-0.001807615989
-0.001759673531
-0.05212475953
0.003258072735
0.05216481584
-0.003298129043
0.003381543521
-0.003437775392
-0.05223010661
-0.000783514299
-0.02479081264
0.001247133303
-0.02508756316
-0.001140778777
0.001407438983
0.02482090295
-0.05177122806
0.003085345034
0.05183955564
-0.003153672614
0.003235430146
-0.00331619974
-0.05204398994
0.003032412149
-0.003086357396
-0.05171728281
-0.0009555184892
-0.02540412496
0.001272080292
0.02477013616
-0.0005259642058
-0.02519969044
0.02433863885
-0.0007092814764
0.003493710811
0.05276754241
-0.001789544678
-0.001759236588
0.0531643979
0.0139619766
-0.05298118544
-0.005321968316
-0.008823220729
-0.01232746895
0.02545751359
-0.02469821779
0.01156817316
0.0121453855
-0.01566097282
-0.008811881622
0.02394360855
-0.0238992717
0.004996891736
-0.02429678315
-0.005770263115
0.005744227255
0.02432281902
0.02384597934
-0.0002571597572
-0.02437233388
0.02865325236
-0.02279601878
-0.0004333940238
-0.005901571018
-0.02432558982
0.00593037768
-0.006832484866
0.0135455345
0.02194020273
0.02312151395
-0.0004985790227
0.02522435352
0.02501767455
-0.0251375934
0.008216920076
-0.007923314725
-0.2259857128
0.2273335795
0.01039122745
-0.006014432124
-0.1128649687
-0.1128930781
0.006082029372
0.1107028096
0.1120914505
0.006433587621
-0.006947541717
-0.1115774964
-0.006845572656
0.0949424372
-0.09543489645
0.007338031907
-0.002833089949
0.004086568571
0.04574570264
-0.004789660675
-0.02647348572
0.003707153548
0.02755599285
-0.026476339
0.002014921336
0.0267953096
-0.00233389193
0.02677104804
0.001718992072
-0.001575648998
-0.02691439112
0.02851302204
-0.004929492954
0.08466807058
-0.01025061269
-0.08126303054
0.02644502606
0.0008962566164
-0.0005078431199
-0.02683343956
-0.02483525559
0.004270789648
0.02673436873
-0.006169902784
-0.03195583965
0.02376346241
0.03364989085
0.02415103403
0.05447557022
-0.01906896638
-0.006393239959
0.003716680167
0.05472013391
-0.003827705125
-0.05460910895
0.001673072848
0.02658176234
-0.00148378715
0.02602292602
0.001782496231
-0.001635450357
-0.0261699719
-0.0004551136026
0.0245578538
-0.02503106834
0.0009283281513
0.024860309
0.02161293904
-0.02188484225
-0.0001832103874
0.02181562257
-0.004169356282
-0.0167464261
-0.0008998401833
-0.008659078758
0.05005915454
-0.04969565574
0.008295579963
0.002555151771
0.02394641726
-0.01981045414
0.02554373002
0.0005046933536
-0.0001158008313
-0.02593262254
-0.03091552438
0.02606955212
5.631158566e-05
-0.0256478375
0.001800338471
0.02567179813
-0.001824299107
0.001986179862
-0.002393769992
-0.02606874887
-0.006030553945
-0.02467621883
0.00423328706
-0.0005329847532
-0.0261255222
0.000976847914
0.02568165904
-0.0259744742
0.001658630038
0.02586303063
-0.001547186475
0.001736858496
-0.001678188182
-0.02570650781
0.0008638149344
0.02603996208
-0.0004587509516
0.003644373002
-0.004631824709
-0.02384780388
-0.001223256588
0.001648363488
0.0241327469
0.002109781702
0.02597032564
-0.002057181322
0.02687154991
0.009360452831
-0.009853673052
-0.02637832968
-0.00215385881
0.0268816729
-0.02141591296
-0.003311901137
-0.004769413036
0.009191580092
0.01739345551
0.02075014461
-0.0003604621634
-0.0180164078
0.02354413468
-0.004796244265
-0.0007314826218
0.02029302224
-0.004846729611
-0.01961564891
0.02410580902
-0.005199034632
-0.02423377726
0.00532700288
0.02516647115
-0.0001557258874
0.01459115563
-0.0008516687029
-0.02385776929
-0.006382479902
0.006169086954
0.02407116224
-0.004455361476
-0.0128461814
-0.0007148649187
-0.00662074144
-0.02377234923
0.006535321384
-0.01480013323
-0.02214594509
-0.02629522595
0.001702787607
0.02620160442
-0.001609166084
0.001598578067
-0.001531772711
-0.02604127955
-0.02657581058
0.0009549817345
-0.02580547563
0.003053344219
0.02702292106
-0.02587122323
0.001781509831
0.02602181337
-0.00193209997
0.001622160557
-0.001679502283
-0.02623788422
-0.02400870176
0.02316940976
-3.051007347e-05
0.002350497148
-0.02635490982
-4.289083811e-06
-0.02786591264
0.002406713482
0.02213232112
0.0001357786962
8.40150823e-05
-0.0001185962242
0.02636304342
0.0005796506288
-0.02286591704
0.02262534676
0.0001219740556
-4.905444749e-05
-0.02378254658
0.0008491845781
3.169920149e-05
-0.0256118206
0.001578320666
0.02561112714
-0.001577627208
0.001725691346
-0.001879402315
-0.02571751226
-0.02493339378
0.002772291157
-0.02639331793
0.001189906801
0.02606722606
-0.02573589387
0.00152333647
0.02569730413
-0.001484746724
0.001554783354
-0.00153342604
-0.02563317791
-0.02481845437
0.02441447404
-0.0001219838792
0.0004576481506
-8.452669917e-05
-0.02519157582
0.0008807713917
-0.02562281368
-0.001185158208
0.0239477465
0.001576050566
-0.02391810009
0.023230524
-0.0004975821239
-0.0002129075211
0.006879700224
-0.007407641396
-0.02417027662
0.02565162578
-0.02514363164
0.006371706084
0.02662638092
0.01059341802
0.0002244024614
0.004909953712
-0.005134356176
-0.01867141166
-0.004397202556
0.005196118796
0.02404856647
0.02056067423
-0.005037065027
0.02181084403
-0.002381327935
-0.0215833749
-0.02179842478
0.021519595
2.16700254e-05
0.0002191638506
-0.02196793473
-4.965390168e-05
-0.02478273022
0.0006295601859
-0.01907170517
-0.0004518023533
0.01454467688
-0.0009991423745
-0.005300167981
0.0204394115
-0.0005945666393
0.0231698228
-0.006529788057
-0.001487994968
0.02227969101
0.002329817903
-0.02095495379
0.01946313347
3.825353522e-06
6.606218436e-05
0.02542547106
-0.0255221807
0.02264897005
0.0002075028805
-2.942526647e-05
0.02252462943
0.0001698864421
-4.554582996e-05
0.01507322625
-0.01507431721
1.090963533e-06
-0.004825882844
0.003694338932
-0.03118096719
1.745272053e-07
-0.02227764373
0.02006335745
0.0276009062
-0.02079271372
0.02714477479
0.001678337285
-0.001572942109
-0.02725016996
-0.0002446022487
0.02291304599
-0.02369475008
0.001026306347
0.0006506949195
-0.0001730978195
-0.02550866544
0.02573806143
-0.02621251498
0.001125148476
0.02531259671
0.001353792873
7.438104578e-05
-0.01195823249
-0.003795574549
-0.0009926190596
-0.01057844105
-0.00137979144
0.0121077056
-0.001771017931
-0.01058128991
0.01841784333
-0.00461384495
-0.01828093526
0.004476936883
0.003163894967
0.003983067019
0.01973471092
-0.02242840495
0.0222786629
3.394122392e-05
6.66815776e-05
0.0001302602281
0.0004971024577
0.002409438351
-0.00012243281
0.02207650411
-0.0222229493
6.191849286e-05
0.02190969378
4.482645014e-05
0.02237564431
0.0001047384183
4.424670812e-05
7.38224817e-05
7.887252808e-05
-0.02240075682
-0.004508711611
0.002325453897
-0.001495686716
0.002425396509
0.01960693086
-0.02112501871
2.240114127e-05
2.390203896e-05
0.02165858368
3.820257699e-05
3.598284241e-05
0.02504361776
0.001917342434
-0.00347908115
0.003379067269
-0.00351661087
0.0009432725759
-0.01816808679
-0.004191098748
0.01818588219
-0.01477325964
-0.002469349973
0.01509838351
0.0108577072
-0.001666127106
-0.002448386314
-0.001467166129
-0.003223017585
-0.001437877914
-0.005359937889
0.01832563152
-0.0213332746
-0.00562434278
0.02159767949
-0.02070287397
-0.005426644895
-0.0001841102047
0.0005678511381
-0.02212840286
-2.364207128e-05
-5.465851178e-06
-0.0005200903106
-0.01923916254
0.0251857403
-0.005245133773
-0.0007014439832
-0.01367537298
-0.004871014777
-0.0006927747846
-0.01946200826
-0.005696227185
0.01171474783
-0.005991015792
-0.001131433569
-0.01267310474
-0.001002268235
0.005736338023
-0.006338864453
0.02673099755
-0.0005552480346
0.0205932142
-0.01504532099
0.000245187767
0.004436891655
-1.907917706e-05
0.004570637581
0.006622637552
-0.006444788957
-0.2194818217
-0.004822453345
0.2144438137
-0.2155364797
0.005952933006
-0.004387745266
-0.2148939504
-0.003844645607
0.2148013121
-0.214777111
0.003852074794
-0.004073364556
-0.2152030909
0.2180537532
-0.2169796405
0.005341792443
0.02161883725
-0.02125471407
-0.2179904883
-0.01995667574
0.2134788282
-0.21383411
0.02036771752
0.004044185268
0.2147805333
-0.01962292187
-0.2134973716
-0.01957917467
0.2156082161
-0.2153763029
0.01938866244
0.003923204114
0.2150261358
-0.02002656549
-0.2167704777
0.2231239337
-0.2217920769
0.02181077614
0.005531059255
0.2191908745
0.2199183
0.006805009527
-0.004007341086
-0.004001444798
0.1091614506
-0.004678563675
-0.1088247366
0.004341849663
-0.1078425342
-0.004518240678
0.004195968549
0.1081648064
0.05319806135
0.003014977651
-0.003119083708
-0.05309395528
0.05259694346
-0.05251586642
0.003300466482
-0.05230869931
0.003188056303
0.05237871574
0.01015780132
-0.01060772555
-0.2179071418
-0.01099805221
0.2128533261
-0.2128177444
0.0110129214
0.00719240618
0.2131584465
-0.01086670439
-0.212448424
-0.009979111039
0.2147691997
-0.2150907805
0.01034080316
0.005877946221
0.2155323203
-0.009582850132
-0.2169657759
0.2234797283
-0.2239537758
0.00870076545
0.006408929384
0.2238915696
-0.008326559979
0.2252321333
0.007115375901
0.2247302007
-0.004827853919
-0.1117413536
-0.1116230143
-0.004864538825
-0.1109059331
-0.004883064512
0.004529969587
0.1112590281
0.1110758055
0.006541490157
-0.003516332143
-0.003518653687
0.05548682621
-0.003867633798
-0.05529231494
0.003673122528
-0.05486248399
-0.003756077651
0.003627799268
0.05499076238
0.01206074692
-0.01363323745
-0.2214334748
-0.01714681056
0.2151968097
-0.2142083923
0.01619754973
0.01240790254
0.2130770947
-0.01785994256
-0.213162233
-0.01859649591
0.214119048
-0.2140627309
0.01857706573
0.01221696735
0.2144526493
-0.01841132393
-0.2154744439
-0.01693977988
0.2208523414
-0.2214351069
0.01754009363
0.01027851794
0.2228354015
-0.01630104096
-0.2235519062
-0.01487641379
0.2284454424
-0.2288134818
0.01524566728
0.009773656399
0.2286120763
-0.01355840612
-0.2263845867
0.009648078686
-0.01241654706
-0.2296588607
-0.01992130142
0.2224927996
-0.2201506607
0.01760188407
0.01710250547
0.2165061207
-0.02200726753
-0.2181341224
-0.02665287137
0.2172602514
-0.2159633387
0.02538348053
0.02068770141
0.2144230165
-0.02764821024
-0.2164202369
-0.02922166954
0.2206195319
-0.220278047
0.02889620052
0.02051570111
0.2204342911
-0.02942811455
-0.2220996712
-0.02882812471
0.226066163
-0.2268540189
0.02961482096
0.01877565674
0.2280162873
-0.02718796152
-0.2202571959
0.008099221873
-0.008466326824
-0.2361439742
-0.01405264727
0.2347499099
-0.2313447588
0.01065177399
0.01677440196
0.225162808
-0.01733758876
-0.2285529258
-0.02600362883
0.2259762586
-0.2233116248
0.02335262085
0.02597588067
0.2189238657
-0.02838247528
-0.2226451791
-0.03385118669
0.2250830809
-0.2235175615
0.03229505992
0.03090440629
0.2212716782
-0.03516359852
-0.2246781431
-0.03535934022
0.2221688791
-0.2231074458
0.03629467959
0.03252716493
0.2251440488
-0.03499507208
-0.2151465856
0.007478564938
-0.007787068854
-0.2375238963
-0.008719035958
0.2376168626
-0.2373058486
0.008408021931
0.009020166662
0.236630984
-0.009029258482
-0.2371828606
-0.01154395154
0.2369957379
-0.2351989516
0.009748825066
0.02078983627
0.2288896062
-0.01449743733
-0.2335536733
-0.02219081566
0.233409024
-0.2311218032
0.0199060153
0.03079340019
0.2269030202
-0.02411429726
-0.2310877475
-0.02614605525
0.2208776613
-0.2207462192
0.02601240208
0.03542500217
0.221416085
-0.02701977513
-0.2159407736
0.006810012479
-0.007066876329
-0.2386790158
-0.007825252497
0.238704335
-0.2384542948
0.007575212318
0.008199788383
0.2379113821
-0.008071569721
-0.2383230934
-0.008780253806
0.2380156344
-0.2377851026
0.008549722046
0.009362893186
0.2372764122
-0.009004691227
-0.2375585383
-0.009610022785
0.2370366259
-0.236855694
0.009429090829
0.01433089887
0.2357336464
-0.009727681287
-0.2364317662
-0.009636575685
0.2221546675
-0.2221398508
0.00962175896
0.0207758461
0.221294965
-0.01003326554
-0.2193008695
0.006141812586
-0.006355107396
-0.2396400923
-0.006972574661
0.239579655
-0.2393781805
0.006771100175
0.007372135327
0.2389412139
-0.007169034316
-0.2392297497
-0.007724064964
0.238804083
-0.238625115
0.007545097017
0.008291719129
0.2382318367
-0.007896430327
-0.2383731496
-0.008333895883
0.2376059816
-0.2374832305
0.0082111448
0.009110977023
0.2372001168
-0.008399427646
-0.2368137886
-0.008370745716
0.2223655366
-0.2222967414
0.0083019505
0.009272069803
0.222189032
-0.008703825039
-0.2207894415
0.005501196039
-0.005678398002
-0.2404383466
-0.006182861114
0.2402869722
-0.2401238049
0.006019693843
0.006578995486
0.2397707192
-0.006340687767
-0.2399546036
-0.006780392937
0.2394210113
-0.239280228
0.006639609655
0.007310753725
0.2389724545
-0.006914700869
-0.2390019062
-0.007236297944
0.2379963969
-0.237912098
0.007151999059
0.007933844666
0.2377177498
-0.007271241775
-0.2370254457
-0.007286331009
0.2227121419
-0.2226168971
0.007191086234
0.008007797286
0.2224426122
-0.007562026404
-0.2220341031
0.004901305412
-0.005048645084
-0.2411018601
-0.00546237589
0.2408616372
-0.2407287647
0.005329503416
0.005839657387
0.2404418578
-0.005590100932
-0.2405383749
-0.005942209799
0.2399099038
-0.2397977921
0.005830098148
0.006426726033
0.2395538234
-0.006048203637
-0.2394941005
-0.006286260573
0.2382637504
-0.2382061832
0.006228693365
0.006907389916
0.238073074
-0.006302389258
-0.2371340695
-0.006355579773
0.2231292617
-0.2230208324
0.006247150476
0.00693904445
0.2228116593
-0.006580056023
-0.223057663
0.004349763022
-0.004472519207
-0.2416539839
-0.00481331727
0.2413312877
-0.2412224657
0.004704495307
0.005166089822
0.240987948
-0.004917428531
-0.2410120912
-0.005202142846
0.240301835
-0.2402116226
0.005111930377
0.005641130114
0.2400159735
-0.005286521109
-0.2398839259
-0.005463096717
0.2384450856
-0.2384062694
0.00542428046
0.006015873979
0.2383159837
-0.005468010386
-0.237179874
-0.005552310531
0.2235769991
-0.2234637801
0.005439091458
0.006032246554
0.223239506
-0.005733358019
-0.2238878855
0.003851150524
-0.003953797593
-0.2421147086
-0.004236014487
0.2417174662
-0.2416277711
0.004146319393
0.004559940405
0.2414349434
-0.00432152784
-0.2413993271
-0.004553732556
0.2406188277
-0.2405456661
0.004480570886
0.004947525162