/*--------------------------------*- C++ -*----------------------------------*\
| =========                 |                                                 |
| \\      /  F ield         | OpenFOAM: The Open Source CFD Toolbox           |
|  \\    /   O peration     | Version:  v2012                                 |
|   \\  /    A nd           | Website:  www.openfoam.com                      |
|    \\/     M anipulation  |                                                 |
\*---------------------------------------------------------------------------*/
FoamFile
{
    version     2.0;
    format      ascii;
    class       pointVectorField;
    location    "1.14";
    object      pointDisplacement;
}
// * * * * * * * * * * * * * * * * * * * * * * * * * * * * * * * * * * * * * //

dimensions      [0 1 0 0 0 0 0];


internalField   nonuniform List<vector> 
7018
(
(0 0 0)
(0 0 0)
(0 0 0)
(0 0 0)
(0 0 0)
(0 0 0)
(0 0 0)
(0 0 0)
(0 0 0)
(0 0 0)
(0 0 0)
(0 0 0)
(0 0 0)
(0 0 0)
(0 0 0)
(0 0 0)
(0 0 0)
(0 0 0)
(0 0 0)
(0 0 0)
(0 0 0)
(0 0 0)
(0 0 0)
(0 0 0)
(0 0 0)
(0 0 0)
(0 0 0)
(0 0 0)
(0 0 0)
(0 0 0)
(0 0 0)
(0 0 0)
(0 0 0)
(0 0 0)
(0 0 0)
(0 0 0)
(0 0 0)
(0 0 0)
(0 0 0)
(0 0 0)
(0 0 0)
(0 0 0)
(0 0 0)
(0 0 0)
(-4.644283413e-07 9.942141648e-05 3.330669074e-16)
(2.148013782e-06 8.451530991e-05 2.91433544e-16)
(0 0 0)
(0 0 0)
(0 0 0)
(0 0 0)
(0 0 0)
(0 0 0)
(0 0 0)
(0 0 0)
(0 0 0)
(0 0 0)
(0 0 0)
(0 0 0)
(0 0 0)
(0 0 0)
(0 0 0)
(0 0 0)
(0 0 0)
(0 0 0)
(0 0 0)
(0 0 0)
(0 0 0)
(0 0 0)
(0 0 0)
(0 0 0)
(0 0 0)
(0 0 0)
(0 0 0)
(0 0 0)
(0 0 0)
(0 0 0)
(0 0 0)
(0 0 0)
(0 0 0)
(0 0 0)
(0 0 0)
(-2.367833612e-05 0.00942424839 3.526345882e-14)
(-1.484003864e-05 0.0151041602 5.831446437e-14)
(0.0004898930376 0.01490720417 5.755118604e-14)
(0.0002808960371 0.009269153751 3.469446952e-14)
(0.0009115167607 0.007103903012 2.658984144e-14)
(0.001621911156 0.0121194065 4.680977828e-14)
(0.001771615994 0.01058864664 4.089784067e-14)
(0.0009565616553 0.005946650279 2.225997164e-14)
(0.0005606921896 0.002169978854 8.118505868e-15)
(0.001393346824 0.005208714875 2.012279232e-14)
(0.001047203872 0.003480370033 1.34336986e-14)
(0.0003273699449 0.001125216138 4.218847494e-15)
(0 0 0)
(5.509540049e-05 0.0001372001143 5.273559367e-16)
(0 0 0)
(0 0 0)
(0 0 0)
(0 0 0)
(0 0 0)
(0 0 0)
(0 0 0)
(0 0 0)
(0 0 0)
(0 0 0)
(0 0 0)
(0 0 0)
(0 0 0)
(0 0 0)
(0 0 0)
(0 0 0)
(0 0 0)
(0 0 0)
(0 0 0)
(0 0 0)
(0 0 0)
(0 0 0)
(0 0 0)
(0 0 0)
(0.0001751677811 0.03517383638 1.500050084e-13)
(0.0002964524023 0.04171818411 1.843525332e-13)
(0.001897965453 0.04140178778 1.830757768e-13)
(0.001477456637 0.03487831725 1.488253965e-13)
(0.004721858699 0.03072286967 1.312699949e-13)
(0.005967347455 0.03701079006 1.639521852e-13)
(0.006876653285 0.03448464099 1.528360771e-13)
(0.005402018806 0.02835220135 1.211808431e-13)
(0.005754885452 0.01916033158 8.192058143e-14)
(0.007666168224 0.024482288 1.085520562e-13)
(0.007238066068 0.02063335851 9.148237723e-14)
(0.005293340857 0.01571768159 6.719624857e-14)
(0.002687213307 0.006025479271 2.57294186e-14)
(0.004301934947 0.009281739516 4.110600749e-14)
(0.003037482003 0.006061464218 2.683964162e-14)
(0.00168520585 0.003492518403 1.490474411e-14)
(0 0 0)
(0.0001456194049 0.0002362828882 1.040834086e-15)
(0 0 0)
(0 0 0)
(0 0 0)
(0 0 0)
(0 0 0)
(0 0 0)
(0 0 0)
(0 0 0)
(0 0 0)
(0 0 0)
(0 0 0)
(0 0 0)
(0 0 0)
(0 0 0)
(0 0 0)
(0 0 0)
(0 0 0)
(0 0 0)
(0 0 0)
(0 0 0)
(0.0007096996104 0.05676980347 2.814554145e-13)
(0.0008144731517 0.05957540413 3.078648447e-13)
(0.003497696644 0.05926180653 3.066435994e-13)
(0.003160174041 0.05644033276 2.801370247e-13)
(0.009696372239 0.05216118269 2.597505544e-13)
(0.0107692749 0.05531236629 2.872979632e-13)
(0.01268896024 0.05292510049 2.751826544e-13)
(0.01136101189 0.04962282512 2.473160565e-13)
(0.01388238374 0.03887438061 1.940392291e-13)
(0.01588841997 0.04247783797 2.212952044e-13)
(0.01591085307 0.03803719859 1.981748099e-13)
(0.01375098378 0.03442748898 1.718486464e-13)
(0.01043270106 0.01980800482 9.876821583e-14)
(0.01301277439 0.02351297537 1.225131108e-13)
(0.01119885073 0.01871975868 9.75469705e-14)
(0.008870420461 0.01554887442 7.753520048e-14)
(0.003065521622 0.004393484123 2.187139359e-14)
(0.004583115469 0.006287112859 3.26683125e-14)
(0.002584580718 0.003344703601 1.736111255e-14)
(0.001476620799 0.001995250955 9.93649607e-15)
(0 0 0)
(0 0 0)
(0 0 0)
(0 0 0)
(0 0 0)
(0 0 0)
(0 0 0)
(0 0 0)
(0 0 0)
(0 0 0)
(0 0 0)
(0 0 0)
(0 0 0)
(0 0 0)
(0 0 0)
(0 0 0)
(0 0 0)
(0 0 0)
(0.000864439027 0.06013598718 3.559375017e-13)
(0.0007844057996 0.05781458814 3.596289933e-13)
(0.003942620792 0.05769691431 3.595734821e-13)
(0.003981052148 0.05994683485 3.554656569e-13)
(0.01301443207 0.05795775823 3.455291608e-13)
(0.01334084782 0.05659220448 3.548272787e-13)
(0.01618460528 0.05554990493 3.4898473e-13)
(0.01566742557 0.05649425437 3.373967772e-13)
(0.02113720706 0.04857440603 2.913363994e-13)
(0.02246427539 0.0488100327 3.085864897e-13)
(0.02348479822 0.04549949625 2.882000194e-13)
(0.02186484563 0.04473460115 2.687849943e-13)
(0.0200606033 0.03120595644 1.876276912e-13)
(0.02210978133 0.03262936016 2.066541382e-13)
(0.02021861603 0.02768367237 1.751515599e-13)
(0.01813241696 0.0261704759 1.571937025e-13)
(0.009838372926 0.01169422748 6.991629498e-14)
(0.01159866424 0.01308426839 8.237854843e-14)
(0.008354865666 0.008904505859 5.595524044e-14)
(0.006844157673 0.007684134937 4.58660887e-14)
(0.0004512249958 0.0004332266383 2.581268532e-15)
(0.0007752016128 0.0007069752769 4.427014311e-15)
(1.967731438e-05 1.709736941e-05 1.110223025e-16)
(0 0 0)
(0 0 0)
(0 0 0)
(0 0 0)
(0 0 0)
(0 0 0)
(0 0 0)
(0 0 0)
(0 0 0)
(0 0 0)
(0 0 0)
(0 0 0)
(0 0 0)
(0 0 0)
(0 0 0)
(0.0004770518047 0.04898911433 0)
(0.0004262385711 0.04751798185 0)
(0.002037964512 0.04746360344 0)
(0.002080044294 0.04893489906 0)
(0.01343287209 0.04842090873 0)
(0.01342878487 0.04690832271 0)
(0.01343532005 0.04537193348 0)
(0.01503698401 0.04527033834 0)
(0.01661638017 0.0451986692 0)
(0.01665141812 0.04823525429 0)
(0.02496525065 0.04572943922 3.438638263e-13)
(0.02532022295 0.04361333825 3.497202528e-13)
(0.02721075278 0.04179389558 3.356898093e-13)
(0.02664905703 0.0435690144 3.28057026e-13)
(0.02683239759 0.03329447111 2.509242814e-13)
(0.02778407573 0.03230191753 2.600003546e-13)
(0.02635250733 0.02838610223 2.283312428e-13)
(0.02516632797 0.02894478922 2.179645353e-13)
(0.016199645 0.01533462962 1.148942053e-13)
(0.01771587194 0.01571301181 1.25635613e-13)
(0.01395087662 0.01169987423 9.328648964e-14)
(0.01256504358 0.01124348657 8.403000518e-14)
(0.002794570686 0.002147637129 1.594557819e-14)
(0.003493205791 0.002518398299 1.992850329e-14)
(0.001251258989 0.0008609987342 6.800116026e-15)
(0.000851323668 0.0006242327465 4.635181128e-15)
(0 0 0)
(0 0 0)
(0 0 0)
(0 0 0)
(0 0 0)
(0 0 0)
(0 0 0)
(0 0 0)
(0 0 0)
(0 0 0)
(0 0 0)
(0 0 0)
(0 0 0)
(0 0 0)
(0.01322851382 0.03633769296 0)
(0.01318565242 0.03483411968 0)
(0.0147546873 0.03477382999 0)
(0.01479912442 0.03627512105 0)
(0.02567003925 0.03566284693 3.578665142e-13)
(0.02563292809 0.03277694136 3.587408148e-13)
(0.02817394139 0.03201657102 3.514410984e-13)
(0.02810713005 0.03473339043 3.49442697e-13)
(0.0304167394 0.02834020561 2.858685511e-13)
(0.03075118811 0.0263020215 2.89601676e-13)
(0.02967578057 0.02349590624 2.584321646e-13)
(0.02927942421 0.02526147276 2.54546384e-13)
(0.02078291535 0.0147606273 1.475625178e-13)
(0.02124434996 0.0138431835 1.509625758e-13)
(0.01724554964 0.0106292517 1.154631946e-13)
(0.01680627155 0.01129004849 1.124517146e-13)
(0.005068199137 0.002932836501 2.889355422e-14)
(0.00572306146 0.003038225038 3.264055692e-14)
(0.002729136616 0.001384585144 1.482147738e-14)
(0.002246672252 0.001241953735 1.221245327e-14)
(0 0 0)
(0 0 0)
(0 0 0)
(0 0 0)
(0 0 0)
(0 0 0)
(0 0 0)
(0 0 0)
(0 0 0)
(0 0 0)
(0 0 0)
(0 0 0)
(0 0 0)
(0 0 0)
(0.01285074909 0.02434329161 0)
(0.01279956287 0.02284818343 0)
(0.01436499391 0.02279333265 0)
(0.01441642943 0.02428767398 0)
(0.02538599555 0.02389728861 3.595873599e-13)
(0.02528262847 0.02091718689 3.596289933e-13)
(0.02809457779 0.02058022085 3.554934125e-13)
(0.02815571909 0.02349289738 3.549521788e-13)
(0.03158235703 0.0197143554 2.993993942e-13)
(0.0317007114 0.01733321832 3.012312622e-13)
(0.0309667449 0.01565166574 2.716854519e-13)
(0.03078426222 0.01776860562 2.695482726e-13)
(0.02289923568 0.01087654672 1.631472735e-13)
(0.02322140924 0.009662822558 1.656036419e-13)
(0.01927441403 0.007598234167 1.293826157e-13)
(0.01893510203 0.008515580525 1.27009514e-13)
(0.006561444265 0.002554245486 3.744227151e-14)
(0.006827699456 0.002334695516 3.896882816e-14)
(0.003520962917 0.001152732724 1.915134717e-14)
(0.003319447379 0.00123639904 1.804112415e-14)
(0 0 0)
(0 0 0)
(0 0 0)
(0 0 0)
(0 0 0)
(0 0 0)
(0 0 0)
(0 0 0)
(0 0 0)
(0 0 0)
(0 0 0)
(0 0 0)
(0 0 0)
(0 0 0)
(0.01242449751 0.01239610109 0)
(0.01236896173 0.0109067953 0)
(0.01393268807 0.01085448485 0)
(0.0139884138 0.01234330157 0)
(0.02495016433 0.0119739807 3.596012377e-13)
(0.02483320493 0.009001245067 3.595457265e-13)
(0.02759661978 0.008786980566 3.546607452e-13)
(0.02774267725 0.01173146751 3.5513259e-13)
(0.03133782381 0.009809739537 3.000100168e-13)
(0.03114608062 0.007307818867 2.989136716e-13)
(0.03041912169 0.006599427016 2.691180612e-13)
(0.0306128432 0.008857049299 2.702560398e-13)
(0.02291529794 0.005495627688 1.639521852e-13)
(0.022746534 0.0041182746 1.629252289e-13)
(0.01883736744 0.003254783381 1.268707361e-13)
(0.01899004112 0.004331844711 1.277866701e-13)
(0.006641444849 0.001331041082 3.794187187e-14)
(0.006554121702 0.001005037482 3.744227151e-14)
(0.00332076342 0.0004904159285 1.806887973e-14)
(0.003382210273 0.0006511599391 1.840194663e-14)
(0 0 0)
(0 0 0)
(0 0 0)
(0 0 0)
(0 0 0)
(0 0 0)
(0 0 0)
(0 0 0)
(0 0 0)
(0 0 0)
(0 0 0)
(0 0 0)
(0 0 0)
(0 0 0)
(0.01196916395 0.0004991308263 0)
(0.0119094306 -0.0009879623097 0)
(0.01347169681 -0.001038636979 0)
(0.01353176017 0.0004480311863 0)
(0.02442927131 9.174266982e-05 3.586991815e-13)
(0.02426392389 -0.002863281157 3.579636587e-13)
(0.02674854718 -0.002873997335 3.493594303e-13)
(0.02701301837 6.537469472e-06 3.513855873e-13)
(0.02996308084 -7.001981883e-05 2.896710649e-13)
(0.02931177972 -0.002399087609 2.840228053e-13)
(0.02851606705 -0.002126486538 2.542965838e-13)
(0.02905229665 -3.810218117e-05 2.585709424e-13)
(0.02105257798 9.747393058e-05 1.512401315e-13)
(0.02051513975 -0.001115070186 1.475208844e-13)
(0.01664964563 -0.00080790678 1.124655924e-13)
(0.0171487834 0.0001183416068 1.157546281e-13)
(0.00535629293 6.626117182e-05 3.062827769e-14)
(0.005068551805 -0.0001755891473 2.899069873e-14)
(0.002254081016 -7.0988735e-05 1.226796442e-14)
(0.002447018747 3.255640274e-05 1.33226763e-14)
(0 0 0)
(0 0 0)
(0 0 0)
(0 0 0)
(0 0 0)
(0 0 0)
(0 0 0)
(0 0 0)
(0 0 0)
(0 0 0)
(0 0 0)
(0 0 0)
(0 0 0)
(0 0 0)
(0.01148086223 -0.01136837183 0)
(0.01141695976 -0.01285042705 0)
(0.01297871788 -0.01289984342 0)
(0.0130431023 -0.01141780481 0)
(0.02366636258 -0.01158723615 3.542721672e-13)
(0.02341285112 -0.01441634075 3.522043768e-13)
(0.02549581799 -0.01391353632 3.383682223e-13)
(0.02586730247 -0.01125235493 3.419486916e-13)
(0.02748116649 -0.008850347925 2.680217159e-13)
(0.02699427796 -0.0108778297 2.638583796e-13)
(0.02564217529 -0.009458898631 2.302186219e-13)
(0.02646989373 -0.007809662367 2.372824159e-13)
(0.01811397818 -0.004189671577 1.305483499e-13)
(0.01697634126 -0.004925643002 1.224159663e-13)
(0.01317549911 -0.00355521695 8.917866445e-14)
(0.01431633534 -0.003072849234 9.68669589e-14)
(0.003595980677 -0.0006314173467 2.058075932e-14)
(0.00314054902 -0.0006990699639 1.797173521e-14)
(0.001020277978 -0.0002149652771 5.551115123e-15)
(0.001284171834 -0.000213010005 6.994405055e-15)
(0 0 0)
(0 0 0)
(0 0 0)
(0 0 0)
(0 0 0)
(0 0 0)
(0 0 0)
(0 0 0)
(0 0 0)
(0 0 0)
(0 0 0)
(0 0 0)
(0 0 0)
(0 0 0)
(0.01290157922 0.02583606835 0)
(0.01133613151 0.02589443527 0)
(0.01131071168 0.02514890872 0)
(0.01128561715 0.02440082045 0)
(0.01165483273 0.03640917822 0)
(0.01161554435 0.03489927165 0)
(0.01247981959 0.01388720649 0)
(0.01091672951 0.01393997754 0)
(0.01088929403 0.013193969 0)
(0.01086165911 0.01244817413 0)
(0.01126036357 0.02365211727 0)
(0.01123496516 0.02290321228 0)
(0.01202712856 0.001984906271 0)
(0.01046504518 0.002034885313 0)
(0.01043634658 0.001292229077 0)
(0.01040732271 0.0005501355121 0)
(0.01083388411 0.01170231516 0)
(0.01080624441 0.01095838164 0)
(0.01154474334 -0.009886936263 0)
(0.00998359064 -0.009837954355 0)
(0.009918781248 -0.01132032298 0)
(0.01034777456 -0.0009375844007 0)
(0.009857079636 -0.012802523 0)
(-0.001104599261 0.04904259403 0)
(-0.001159862545 0.04757099454 0)
(0.01326707459 0.03784848833 0)
(0.01169331355 0.037917654 0)
(0.01182605177 0.04850289791 0)
(0.01181655838 0.04700145852 0)
(0.006780219554 0.03056818274 0)
(0.006791206216 0.03094594788 0)
(0.006396127186 0.03095979228 0)
(0.00638405767 0.03058180941 0)
(0.006933614092 0.03662634564 0)
(0.006145304526 0.03666466632 0)
(0.006132460718 0.03589941828 0)
(0.006919754486 0.03586322541 0)
(0.01446779138 0.02577988094 0)
(0.02548581594 0.02686928118 3.595040932e-13)
(0.02235670745 0.02699354644 0)
(0.02225219339 0.02401119328 0)
(0.02265534711 0.03596022629 0)
(0.02255789181 0.03297267497 0)
(0.006299593277 0.01858497404 0)
(0.006314229344 0.01895822239 0)
(0.005869339818 0.01897307356 0)
(0.00585484406 0.01860009611 0)
(0.006574731698 0.02456539319 0)
(0.006165361158 0.02457798617 0)
(0.006163815778 0.02420414877 0)
(0.006567741885 0.02419119198 0)
(0.01404386172 0.01383405797 0)
(0.02506407275 0.01495233044 3.596289933e-13)
(0.02192850884 0.01505986489 0)
(0.0218166799 0.01208127941 0)
(0.02214643293 0.02102667723 0)
(0.005956652269 0.006643942284 0)
(0.005968019358 0.007016545043 0)
(0.005574274152 0.007029288801 0)
(0.005565103406 0.006656610342 0)
(0.006166273013 0.01260704272 0)
(0.005764604713 0.01262150715 0)
(0.005739708431 0.01224937069 0)
(0.006146801711 0.01223430569 0)
(0.01359028271 0.001933994199 0)
(0.02457627703 0.003054094767 3.591432707e-13)
(0.02147330826 0.003160753128 0)
(0.0213556126 0.0001919514938 0)
(0.02170388459 0.00910865545 0)
(0.005494352271 -0.005243550898 0)
(0.005525147511 -0.004501863049 0)
(0.004747774633 -0.004477827171 0)
(0.004717784714 -0.005219749574 0)
(0.00573128006 0.0006990314967 0)
(0.004952037747 0.0007240279324 0)
(0.004937076878 0.0003517558356 0)
(0.004923035536 -2.123728024e-05 0)
(0.005702311773 -4.464943433e-05 0)
(-0.001209632955 -0.01692439486 0)
(-0.0008217007266 -0.01693583534 0)
(-0.0008124986302 -0.01656384729 0)
(-0.00120416722 -0.01655131297 0)
(0.004980155347 -0.01710037261 0)
(0.005014559576 -0.0163597742 0)
(0.004237614074 -0.0163373385 0)
(0.004203825225 -0.01707768239 0)
(0.005246295412 -0.01117603021 0)
(0.004470418269 -0.01115259735 0)
(0.004438368272 -0.01189369049 0)
(0.005214582785 -0.01191713498 0)
(0.006584262574 0.02493992042 0)
(0.006171559185 0.02495221468 0)
(0.006372745497 0.03020479996 0)
(0.006768518487 0.03019149 0)
(0.01304886472 0.03032938471 0)
(0.01148130135 0.03039036816 0)
(0.01145762018 0.0296412868 0)
(0.01143419 0.02888948774 0)
(0.01300077496 0.02883011657 0)
(0.006758088532 0.02981587705 0)
(0.00754276752 0.02978641941 0)
(0.007565617699 0.03053739059 0)
(0.006976550735 0.02455230223 0)
(0.006987672301 0.02492698143 0)
(0.006185991476 0.01297915084 0)
(0.005789828403 0.01299294299 0)
(0.005844914784 0.0182264098 0)
(0.006289073555 0.01821075662 0)
(0.01264239069 0.01836601647 0)
(0.01186038505 0.01839303826 0)
(0.01183372119 0.01764541768 0)
(0.01261559387 0.01761853833 0)
(0.006722030525 0.01819569632 0)
(0.006733555703 0.01857008588 0)
(0.006563532954 0.0125930749 0)
(0.006579956068 0.01296557233 0)
(0.006966542649 0.02417792931 0)
(0.006747599887 0.01894356143 0)
(0.01266894535 0.01911246896 0)
(0.01188687086 0.01913949313 0)
(0.00575989841 0.001441759432 0)
(0.004980070632 0.001466569248 0)
(0.00496608173 0.001095297641 0)
(0.005552081758 0.006284202474 0)
(0.005942985562 0.006271418784 0)
(0.0121998116 0.006441102482 0)
(0.01063717266 0.006490962807 0)
(0.01060885395 0.00574732842 0)
(0.01058043787 0.005004869244 0)
(0.01214272306 0.004954745381 0)
(0.005928652172 0.005899952252 0)
(0.006708840114 0.005874992157 0)
(0.006737151711 0.006618419991 0)
(0.006509801811 0.0006741288288 0)
(0.006538638111 0.001416780319 0)
(0.006547226184 0.01221995307 0)
(0.006764867381 0.007362557691 0)
(0.006373512002 0.007375839474 0)
(0.00598018916 0.007388637607 0)
(0.01225602881 0.007928178942 0)
(0.01069405462 0.007979326075 0)
(0.01066584987 0.007234998434 0)
(0.005278694878 -0.01043439765 0)
(0.004502225617 -0.01041094438 0)
(0.004687959802 -0.005961884462 0)
(0.005464795878 -0.005985695041 0)
(-0.001590547183 -0.01691519531 0)
(-0.00160823647 -0.01728440926 0)
(-0.001223148604 -0.01729485558 0)
(-0.00159159401 -0.01654002777 0)
(0.004168625636 -0.01781735725 0)
(0.004944918726 -0.01784032193 0)
(-0.0008353650934 -0.01730629094 0)
(0.003673929199 0.03371160407 0)
(0.003658684018 0.03408448298 0)
(0.003262623395 0.03407624762 0)
(0.00337622065 0.03376913899 0)
(0.003744613509 0.03680282654 0)
(0.003332747867 0.03682562703 0)
(0.003319467773 0.03642752068 0)
(0.003734033469 0.03641025906 0)
(0.002419571821 -0.002156306569 0)
(0.002417250624 -0.001781853372 0)
(0.002004652392 -0.001739508109 0)
(0.001932890222 -0.002048403488 0)
(0.01310634951 -0.009936760992 0)
(0.02388909177 -0.008707909672 3.558681128e-13)
(0.02099297474 -0.008704796891 3.596289933e-13)
(0.02085952693 -0.01166464255 3.594624598e-13)
(0.02123653518 -0.002776940381 0)
(-0.001245948033 -0.01384247438 0)
(-0.000764241276 -0.01394951667 0)
(-0.0007529553717 -0.01357766938 0)
(-0.001153880276 -0.01353703617 0)
(0.002017119892 -0.01404937806 0)
(0.00204939449 -0.01330856839 0)
(0.001273225097 -0.01328581478 0)
(0.001257575219 -0.01365647768 0)
(0.001242880228 -0.01402703562 0)
(0.002146487972 -0.01108511469 0)
(0.001758745391 -0.01107361181 0)
(0.00174285928 -0.0114441287 0)
(0.002130627029 -0.01145570138 0)
(0.00770648962 0.03582662441 0)
(0.007723615658 0.03658351636 0)
(0.007588181526 0.0312900536 0)
(0.006803004863 0.03132247182 0)
(0.01309617126 0.03182792848 0)
(0.01152892749 0.03188618497 0)
(0.01150530043 0.03113867341 0)
(0.002161674878 -0.01071388437 0)
(0.001773631961 -0.01070209541 0)
(0.002256561804 -0.008114051312 0)
(0.001854782139 -0.008098617993 0)
(0.001846332188 -0.00847118343 0)
(0.00224430771 -0.008485589509 0)
(0.01172999774 -0.005439996719 0)
(0.01016832271 -0.005390169617 0)
(0.01010735947 -0.006872946539 0)
(0.01166877334 -0.006922351044 0)
(0.006242001141 -0.006009794075 0)
(0.006272190728 -0.005267878554 0)
(0.006023003044 -0.01119976743 0)
(0.006055728248 -0.01045828397 0)
(0.006480877676 -6.907109549e-05 0)
(0.006302579748 -0.004526176705 0)
(0.01179095382 -0.003955427301 0)
(0.01022900576 -0.003905521856 0)
(0.0003007446401 0.04310438639 0)
(-0.0005571642736 0.04312677947 0)
(-0.0005820607522 0.04239063729 0)
(0.0002747537524 0.04236819922 0)
(0.006947088682 0.03738789508 0)
(0.006157390258 0.03742731967 0)
(0.006955682416 0.04275263214 0)
(0.005312243038 0.04285856229 0)
(0.005300767393 0.0421134099 0)
(0.005329623358 0.04134003195 0)
(0.006171911106 0.04126142503 0)
(0.006979359436 0.0412089932 0)
(0.00117046391 0.04233108898 0)
(0.001190637207 0.04306819356 0)
(0.003552520527 0.03323387356 0)
(0.006866535287 0.03358613266 0)
(0.006080771022 0.03361830229 0)
(0.006069830693 0.03323828146 0)
(0.006058953507 0.03285889263 0)
(0.006846463231 0.03282836547 0)
(0.004044532734 0.03330603184 0)
(0.004064291843 0.03368971924 0)
(0.004142052448 0.03639445215 0)
(0.004149522358 0.03678418285 0)
(0.004068106072 0.03407218464 0)
(0.006886583404 0.03434140531 0)
(0.006101817988 0.03437135535 0)
(0.006091202379 0.03399535588 0)
(0.006514672423 0.02157144368 0)
(0.006143501007 0.02158533951 0)
(0.006126670035 0.02121140856 0)
(0.006498132997 0.0211975716 0)
(0.006526192855 0.02194569553 0)
(0.006152602401 0.02195960581 0)
(0.006070286997 0.009622120858 0)
(0.005682318144 0.009634458728 0)
(0.005665411904 0.009260943961 0)
(0.006055480708 0.009248533713 0)
(0.006081750444 0.009996719342 0)
(0.005692088328 0.01000952917 0)
(0.002359484139 -0.005140880267 0)
(0.002377045465 -0.00477055898 0)
(0.001983149021 -0.004757603212 0)
(0.001954718487 -0.005125481898 0)
(0.00207531626 -0.002528878706 0)
(0.002442432964 -0.002536017257 0)
(0.005614410914 -0.00227358992 0)
(0.004836512865 -0.002249191277 0)
(0.004806805702 -0.00299070983 0)
(0.005585116857 -0.003015122711 0)
(0.002839140193 -0.002549621364 0)
(0.00283550204 -0.002174778113 0)
(0.002761580752 -0.005156117712 0)
(0.002775835565 -0.004785131 0)
(0.002581127577 0.0008128445501 0)
(0.002506507717 0.0004692366802 0)
(0.002915531153 0.0004277728865 0)
(0.002950156828 0.000796196308 0)
(0.002841509925 -0.001802266373 0)
(0.005643802066 -0.001531440081 0)
(0.004865940814 -0.001506973774 0)
(0.004851001771 -0.001878212634 0)
(0.00188203669 -0.017011859 0)
(0.001916713481 -0.01627175252 0)
(0.001144751845 -0.01625031579 0)
(0.001111068645 -0.01699059438 0)
(0.001227122796 -0.01439741908 0)
(0.001211661188 -0.01476801954 0)
(0.001984517417 -0.0147899007 0)
(-0.001130666725 -0.01432084217 0)
(-0.0007570973789 -0.01432744486 0)
(0.006687149843 0.02756167405 0)
(0.00628980063 0.02757585175 0)
(0.006282330299 0.02720090884 0)
(0.006677020699 0.02718578879 0)
(0.006698283273 0.02793669751 0)
(0.006299798021 0.02795091436 0)
(0.006309794596 0.0155911534 0)
(0.005941381759 0.01560288618 0)
(0.00592558141 0.01522905757 0)
(0.006295873875 0.01521726001 0)
(0.006318753308 0.01596507996 0)
(0.005949516634 0.01597691006 0)
(0.006687462892 0.01557875696 0)
(0.006698209354 0.01595255297 0)
(0.009409189395 0.01548646557 0)
(0.00943594112 0.01623263554 0)
(0.008655096455 0.01625934159 0)
(0.008628684238 0.01551302205 0)
(0.009515533856 0.01847392559 0)
(0.008733801249 0.01850086904 0)
(0.008707536259 0.01775282111 0)
(0.009489133537 0.01772595126 0)
(0.009299938927 0.01250069117 0)
(0.009327512116 0.01324669496 0)
(0.008547068691 0.01327304251 0)
(0.008519424278 0.01252697224 0)
(0.008601773454 0.01476623717 0)
(0.009382143283 0.01473975429 0)
(0.006674233054 0.01520490868 0)
(0.006894292307 0.02155767025 0)
(0.006906774278 0.02193182003 0)
(0.009619978969 0.02146227827 0)
(0.00964568366 0.02221006978 0)
(0.008864309546 0.02223741446 0)
(0.008838740184 0.02148954936 0)
(0.009721309085 0.02445625292 0)
(0.008939255954 0.02448389674 0)
(0.008914467714 0.02373469499 0)
(0.009696316666 0.02370712714 0)
(0.009541820236 0.01922059413 0)
(0.008760021151 0.0192476088 0)
(0.008812700731 0.02074204512 0)
(0.009594079591 0.02071483813 0)
(0.006879201122 0.02118381719 0)
(0.005844778855 0.003670666154 0)
(0.005453156863 0.003683612463 0)
(0.005439949552 0.003311417793 0)
(0.005830837213 0.003298565727 0)
(0.003003980794 0.001160235672 0)
(0.002655871606 0.001170855063 0)
(0.005857662333 0.004042665188 0)
(0.005465042238 0.004055852696 0)
(0.002341419735 -0.005511597811 0)
(0.002746315503 -0.005527621059 0)
(0.002652194726 -0.008127825189 0)
(0.002665628777 -0.00775605193 0)
(0.002267786445 -0.007741581508 0)
(0.005372708822 -0.00821049315 0)
(0.005403706571 -0.007468329753 0)
(0.004627148272 -0.007444459815 0)
(0.004596262589 -0.008186971738 0)
(0.001861700026 -0.007725103627 0)
(0.001928793421 -0.005494067332 0)
(-0.001403277202 -0.01436183605 0)
(0.001075546393 -0.01772943093 0)
(0.001847172799 -0.01775099397 0)
(0.002107861267 0.03693257612 0)
(0.001623690361 0.03694892401 0)
(0.002045436072 0.03647298216 0)
(0.0005057426035 -0.01251482098 0)
(0.0005220558231 -0.01214411202 0)
(0.000110572901 -0.01212620735 0)
(9.482449236e-05 -0.01249672899 0)
(0.000587374932 -0.01103675454 0)
(0.0002036817503 -0.01102656309 0)
(0.0001841522268 -0.01139598934 0)
(0.0005714821707 -0.01140706441 0)
(-0.001960063357 0.03704710477 0)
(-0.002010312842 0.0366177748 0)
(-0.001516068129 0.03654350661 0)
(-0.001536537939 0.03708999902 0)
(0.0005951527519 -0.01066389021 0)
(0.0001996893502 -0.0106503979 0)
(0.0006321806792 -0.009547768253 0)
(0.0002655466659 -0.009542024992 0)
(0.0002458082169 -0.009911512982 0)
(0.0006257589872 -0.009920886125 0)
(0.0001778404378 0.04016013886 0)
(-0.0007367382252 0.0401682515 0)
(-0.0007884895073 0.03942594863 0)
(-0.0002967327731 0.03943379466 0)
(0.0001707309436 0.03942483122 0)
(-0.002560969281 0.03937032274 0)
(-0.002440953562 0.04016803833 0)
(0.003749488258 0.03719766167 0)
(0.003340516546 0.03722382615 0)
(0.003711103538 0.03992297392 0)
(0.002874783734 0.03998693376 0)
(0.002889769186 0.0392233191 0)
(0.003737339251 0.03914257243 0)
(0.0006721614949 0.03940102772 0)
(0.001131196067 0.03937157851 0)
(0.001125111668 0.0401166468 0)
(0.006399477971 0.02007661151 0)
(0.005982489419 0.02009077678 0)
(0.005927955017 0.01971752492 0)
(0.006362787805 0.0197030893 0)
(0.004974110851 0.0246152529 0)
(0.004996459057 0.02424265995 0)
(0.005353677714 0.02423014114 0)
(0.005337510409 0.02460286571 0)
(0.005046234042 0.0231218229 0)
(0.005395126024 0.02310931535 0)
(0.00538383951 0.02348325036 0)
(0.005033295342 0.02349602165 0)
(0.006549764152 0.0230675891 0)
(0.006555985442 0.02344209254 0)
(0.006163895966 0.02345567535 0)
(0.006163038626 0.02308140064 0)
(0.006006796799 0.008133227093 0)
(0.005606417446 0.008146888831 0)
(0.005592315074 0.007774725011 0)
(0.00599255863 0.007760723289 0)
(0.004363938831 0.008197226159 0)
(0.004342702541 0.007826480073 0)
(0.00476631675 0.007807950488 0)
(0.004782461151 0.008179561399 0)
(0.004406878982 0.0066910844 0)
(0.004784230766 0.00668090471 0)
(0.004782447308 0.007055959766 0)
(0.004397227509 0.007067858223 0)
(0.0046053251 0.01266256617 0)
(0.004564079816 0.01229168253 0)
(0.004921973913 0.01227976084 0)
(0.00496083649 0.012650313 0)
(0.004427514919 0.01120801189 0)
(0.004840377124 0.01116772551 0)
(0.004849875747 0.01154011694 0)
(0.004471820383 0.01155728308 0)
(0.006101982741 0.01111693575 0)
(0.006113069446 0.01148920351 0)
(0.005698713337 0.01150534602 0)
(0.005689556595 0.01113287387 0)
(0.006634437074 0.02606427478 0)
(0.006236417634 0.02607840664 0)
(0.006209525914 0.02570337485 0)
(0.006615350166 0.02569049051 0)
(0.005099766125 0.02612399357 0)
(0.004897744404 0.02565476981 0)
(0.005387637415 0.0257278421 0)
(0.005453802767 0.02610655235 0)
(0.005327351645 0.02497552106 0)
(0.004949812326 0.02498425963 0)
(0.007081107316 0.02754788899 0)
(0.007092715583 0.02792268928 0)
(0.009820255556 0.02744906893 0)
(0.009844713813 0.0281966966 0)
(0.009062271307 0.02822504317 0)
(0.009038007738 0.02747706413 0)
(0.009914988468 0.03044963345 0)
(0.009132203606 0.03047804696 0)
(0.009109210031 0.02972691528 0)
(0.00989185197 0.02969835504 0)
(0.009746211296 0.02520476141 0)
(0.008964025209 0.02523254768 0)
(0.009013808306 0.02672694596 0)
(0.009795989647 0.02669902199 0)
(0.007069933543 0.02717169507 0)
(0.006243698592 0.01409745523 0)
(0.005862309976 0.01410991097 0)
(0.005838953814 0.0137378593 0)
(0.006224934548 0.01372503849 0)
(0.004759203001 0.01414455331 0)
(0.004723418759 0.01377451544 0)
(0.005072045531 0.01376291315 0)
(0.005105946568 0.01413391206 0)
(0.004999333455 0.01302025738 0)
(0.004646345583 0.01303152745 0)
(0.006297122848 0.01708749748 0)
(0.006286415384 0.01746203292 0)
(0.005852834478 0.01747739045 0)
(0.005881328257 0.01710210412 0)
(0.004383913099 0.006321156186 0)
(0.004769137643 0.00630939543 0)
(0.004268218595 0.005220015589 0)
(0.004689138596 0.005201716729 0)
(0.004714684013 0.005571487103 0)
(0.004304293947 0.005587699719 0)
(0.005898709746 0.005157407819 0)
(0.005913162556 0.005528939167 0)
(0.005519654519 0.005542364077 0)
(0.005503492069 0.005171029519 0)
(0.006624294666 0.003646004955 0)
(0.006652240651 0.004388824997 0)
(0.005871010922 0.004413958864 0)
(0.008962790125 0.00357071343 0)
(0.008991125485 0.004312830725 0)
(0.008211406197 0.004338188263 0)
(0.00818312545 0.00359565549 0)
(0.009076435412 0.006541998375 0)
(0.008296585542 0.006567567212 0)
(0.008268340423 0.005824068154 0)
(0.009048190293 0.005798499317 0)
(0.00645990446 0.009610415493 0)
(0.006472578746 0.009984145052 0)
(0.009189634208 0.009522328886 0)
(0.009217461443 0.01026770353 0)
(0.008437013272 0.01029391338 0)
(0.008409603888 0.009548662202 0)
(0.008491635044 0.01178070017 0)
(0.009272292141 0.01175455204 0)
(0.009104989157 0.007286451853 0)
(0.008324930361 0.007311958958 0)
(0.008381403922 0.008802473214 0)
(0.009161598047 0.008776892512 0)
(0.006445936246 0.009237144126 0)
(0.004564551866 -0.008928421235 0)
(0.005341496198 -0.008951890883 0)
(0.002638259 -0.008498753966 0)
(0.002920746151 -0.0111073199 0)
(0.002951734408 -0.01036543191 0)
(0.002177057174 -0.01034238506 0)
(-0.001215369514 -0.01542153442 0)
(-0.001699266499 -0.01531400304 0)
(-0.001579786905 -0.01579361845 0)
(-0.001203161516 -0.01580115366 0)
(0.003693415025 0.03523876249 0)
(0.00328420492 0.03525501027 0)
(0.003273301286 0.03486685412 0)
(0.003677157478 0.0348464688 0)
(0.002489294879 0.03648262588 0)
(0.002509518948 0.03688560357 0)
(0.00370873362 0.03562921359 0)
(0.003297286155 0.03564214699 0)
(0.002567805683 -0.0006928745813 0)
(0.002244893198 -0.0006916023436 0)
(0.002165198961 -0.00104523735 0)
(0.002514538908 -0.001055347699 0)
(0.002580004229 -0.0003217480651 0)
(0.00231943421 -0.0003608821607 0)
(0.0004576120293 -0.01400107324 0)
(0.0004706185029 -0.01362990563 0)
(6.695326071e-05 -0.01361358013 0)
(5.502276544e-05 -0.01398512949 0)
(8.994933754e-05 -0.01287017589 0)
(0.0004949937359 -0.01288668679 0)
(-0.0009587192136 -0.0128880064 0)
(-0.0006859883349 -0.0128474992 0)
(-0.0008050781782 -0.01236955161 0)
(-0.002110972031 0.03539626625 0)
(-0.001973642829 0.03570971232 0)
(-0.002459123437 0.03580926073 0)
(-0.002492666194 0.03542265691 0)
(-0.002373982735 0.03701951853 0)
(-0.002410644296 0.03660902627 0)
(-0.002524589067 0.03503665212 0)
(-0.002238355018 0.03507539799 0)
(0.0006736170124 -0.008058941564 0)
(0.0006577515574 -0.008429459167 0)
(0.001045255299 -0.00844109168 0)
(0.001047652525 -0.008066938975 0)