/*--------------------------------*- C++ -*----------------------------------*\
| =========                 |                                                 |
| \\      /  F ield         | OpenFOAM: The Open Source CFD Toolbox           |
|  \\    /   O peration     | Version:  v2012                                 |
|   \\  /    A nd           | Website:  www.openfoam.com                      |
|    \\/     M anipulation  |                                                 |
\*---------------------------------------------------------------------------*/
FoamFile
{
    version     2.0;
    format      ascii;
    class       surfaceScalarField;
    location    "1.18";
    object      phi;
}
// * * * * * * * * * * * * * * * * * * * * * * * * * * * * * * * * * * * * * //

dimensions      [0 3 -1 0 0 0 0];
oriented        oriented;


internalField   nonuniform List<scalar> 
6430
(
-0.007464849229
0.9329350645
-0.01511479417
0.9324737105
-0.02288286808
0.9314297527
-0.00782916195
0.9297771037
-0.02328656122
-0.459702072
0.4608381263
-0.008965216211
-0.4576777054
0.01021288114
0.4590748926
-0.0116100682
-0.4588397161
0.01301923825
0.4600237049
-0.007192788273
-0.007133519666
-0.234148108
0.007528925717
0.2339101106
-0.007470586169
-0.2344428968
0.005934668671
0.2336810656
-0.005414993189
-0.2268794419
0.004428129588
0.2271221208
-0.0048269365
-0.2156272557
0.006664684705
0.2167827144
-0.003900607309
-0.003919536076
-0.05239962395
0.002920204828
0.05248135495
-0.003001935831
-0.003944570738
0.9368796353
-0.007994735016
0.9365238748
-0.01226197115
0.9356969889
-0.008336426662
0.9343888724
-0.008537313167
-0.4640109404
0.4652158023
-0.009541288561
-0.4622678598
0.01088012101
0.4637062922
-0.01231855334
-0.4618092825
0.01388123095
0.4625675622
-0.007348694315
-0.007432647262
-0.2327039505
0.007023489148
0.2321574486
-0.006665485079
-0.2318622584
0.005260913791
0.2312056865
-0.004849801138
-0.2269779337
0.00449361157
0.2271508777
-0.004813213511
-0.2207730718
0.00746502268
0.2219652695
-0.004319218959
-0.004338001376
-0.05455068134
0.006519703663
0.1095038532
-0.05451167891
-0.003472777662
-0.003488418892
-0.00412896943
0.9410086047
-0.008361860396
0.9407567658
-0.01280510535
0.9401402338
-0.008717435877
0.9391533757
-0.008852172774
-0.4665134464
0.4677960639
-0.01000005338
-0.4651670331
0.01138581836
0.4666385141
-0.01285729937
-0.4636347687
0.01443883183
0.4652298066
-0.007960546285
-0.008124120312
-0.230700364
0.008117486938
0.2303890093
-0.007964869581
-0.2292338426
0.006970968091
0.2286277164
-0.006596576206
-0.2273729596
0.005929455193
0.2272664996
-0.005991535035
-0.2254096136
0.007329345647
0.2262240656
-0.008178891824
-0.1126326322
0.01163850139
0.2250336826
-0.01156942809
-0.1124701237
-0.004213076986
0.9452216817
-0.008520461936
0.9450641507
-0.01301513008
0.944634902
-0.008872296932
0.9439371104
-0.008926567889
-0.4690925482
0.4703890687
-0.01016881746
-0.4681010637
0.01154635692
0.4695469464
-0.01299223964
-0.4670934125
0.01452967618
0.4687328807
-0.008100840001
-0.008068398387
-0.2304424865
0.009575625632
0.2308836959
-0.0101127604
-0.2273185863
0.01091701097
0.2271829339
-0.01097125649
-0.2265432441
0.01082008038
0.2262977041
-0.01075076619
-0.2272410721
0.01077314666
0.2272714251
-0.01089756024
-0.2241044401
0.01165878751
0.2234527266
-0.01102748806
-0.004206873381
0.9494285551
-0.00849470635
0.9493519837
-0.01293910803
0.9490793037
-0.008830883949
0.9486230344
-0.008794148051
-0.4716558616
0.472918191
-0.01009321339
-0.4709594173
0.01141938292
0.4723349107
-0.01279487634
-0.4703091528
0.01423754015
0.4718199354
-0.007908718026
-0.007839604688
-0.2337447395
0.008722725699
0.2349837079
-0.009974305695
-0.2281723157
0.01374678055
0.2290527444
-0.01474141757
-0.2262260674
0.01692013687
0.2265737503
-0.01740788815
-0.2272803319
0.01838147536
0.2274216545
-0.01862093557
-0.2206981928
0.01869426197
0.2196087881
-0.01763259519
-0.004126375325
0.9535549305
-0.008318221536
0.9535438299
-0.01263111234
0.9533921945
-0.008620343467
0.9531223279
-0.008510062392
-0.4741338597
0.4753327246
-0.009819208367
-0.4736615403
0.01106643996
0.4749396943
-0.01234459399
-0.47325806
0.01366561192
0.4746195977
-0.007563172992
-0.007463976623
-0.2363381276
0.008270686149
0.2366976397
-0.008630198262
-0.2334069072
0.01052545723
0.2353533101
-0.01249229798
-0.2291236582
0.01767293223
0.2304853456
-0.01910358125
-0.2287318141
0.02246123848
0.2295088764
-0.02329994006
-0.2167068707
0.02356239663
0.2160990277
-0.02297207814
-0.003987337078
0.9575422675
-0.008023727527
0.9575802204
-0.01214482268
0.9575132896
-0.00827922815
0.9573738553
-0.008117121921
-0.4764776808
0.4775980074
-0.009399554726
-0.4761610536
0.01055327104
0.4773290088
-0.01172122628
-0.4759036429
0.01291156392
0.4771119737
-0.007119103709
-0.007000790937
-0.2376970678
0.007735647875
0.2380053963
-0.008043976272
-0.2370252169
0.008965851615
0.2373296846
-0.009270319287
-0.2357088694
0.01016287342
0.2361646317
-0.01061967741
-0.2327485999
0.01488701704
0.2340450847
-0.01619637736
-0.2158413955
0.01745614432
0.2162089682
-0.01782829917
-0.003805594297
0.9613478619
-0.007644584232
0.9614192103
-0.01153473855
0.9614034439
-0.007849788234
0.961343841
-0.007654935984
-0.4786608607
0.4796951492
-0.008884076732
-0.4784379981
0.009938874753
0.4794932783
-0.01099415495
-0.4782462321
0.01205487175
0.4793076655
-0.006615070418
-0.00650123473
-0.2388589682
0.007153866166
0.2391219227
-0.007416820639
-0.2381552453
0.008186528314
0.238403876
-0.008435159062
-0.236929799
0.009148918533
0.2371560885
-0.009375208044
-0.2353545239
0.0100084912
0.2355076856
-0.01016165287
-0.2174179333
0.009750350064
0.2177537589
-0.01008617571
-0.003596196625
0.9649440585
-0.007211957555
0.9650349713
-0.01084983507
0.9650413215
-0.007366508126
0.9650170362
-0.007156522124
-0.4806712186
0.4816201388
-0.008315428411
-0.4804913017
0.009272882757
0.4814385747
-0.01022015577
-0.4803001855
0.01116059079
0.4812278112
-0.006093347008
-0.005994869493
-0.2398493712
0.006566289361
0.2400736104
-0.006790528623
-0.2390800947
0.007435133891
0.2392845653
-0.007639604488
-0.2377624803
0.008217747674
0.2379434219
-0.008398689239
-0.235863935
0.008882178619
0.2359531767
-0.008971420329
-0.2188581071
0.008594604277
0.2192453089
-0.008981806078
-0.003371388136
0.9683154466
-0.006750698783
0.9684142819
-0.01012873093
0.9684193536
-0.006858847277
0.968394334
-0.006647181481
-0.4825098042
0.4833758102
-0.00772485327
-0.4823324548
0.008589897223
0.4831797562
-0.009437198709
-0.482094539
0.0102693653
0.4829045289
-0.005580987501
-0.005498367746
-0.2406944714
0.005996454319
0.2408862011
-0.006188183995
-0.2398433789
0.006731184083
0.2400132108
-0.006901016008
-0.2384327652
0.007376410795
0.2385800706
-0.00752371619
-0.2361480598
0.007894528881
0.2361918609
-0.007938329985
-0.2204207274
0.007626553396
0.2208090981
-0.008014924147
-0.003142241343
0.971457688
-0.006282986774
0.9715550274
-0.009404594035
0.9715409609
-0.006352084378
0.9714876286
-0.006145804243
-0.4841833263
0.4849712137
-0.007139971774
-0.4839787599
0.00792002378
0.4847360775
-0.008677341351
-0.4836616296
0.009414245785
0.4843699048
-0.005097109028
-0.005025411859
-0.2414181899
0.005461911193
0.2415829217
-0.005626643052
-0.2404801074
0.006087737784
0.2406228677
-0.006230498109
-0.2389817085
0.006627717106
0.2391034881
-0.006749496709
-0.2362709318
0.007033581657
0.2362820933
-0.007044743132
-0.2219390983
0.006809238623
0.222299649
-0.007169789274
-0.002916554307
0.9743742423
-0.005824251038
0.9744627241
-0.008699790577
0.9744165004
-0.00586122302
0.9743147712
-0.005665710222
-0.4857027461
0.4864185453
-0.00657702217
-0.485450385
0.007280301463
0.486127862
-0.007957778455
-0.4850341887
0.008611902188
0.4856575099
-0.004651935161
-0.004583288206
-0.242040992
0.004970054996
0.2421832959
-0.005112358911
-0.2410177593
0.005507406671
0.2411393183
-0.005628965663
-0.2394374214
0.005965860863
0.2395392093
-0.006067648675
-0.2362782979
0.006283918694
0.2362663148
-0.00627193561
-0.2233207882
0.006111323709
0.2236390887
-0.006429624177
-0.002700352892
0.9770745952
-0.00538628691
0.9771486581
-0.008031031068
0.9770612446
-0.005397074493
0.9768972573
-0.005216442628
-0.487081061
0.4877313136
-0.006047327078
-0.4867673346
0.00668200157
0.4873745247
-0.007289191701
-0.4862430657
0.007871164026
0.486793719
-0.004242153354
-0.004179664022
-0.2425802903
0.004521248671
0.2427041219
-0.004645080192
-0.2414776525
0.004986886021
0.2415825059
-0.005091739432
-0.2398193824
0.005381056579
0.2399051159
-0.005466790096
-0.2362046677
0.005629435833
0.2361768877
-0.005601655825
-0.2245232657
0.005508233223
0.2247941889
-0.005779156429
-0.002497295787
0.979571891
-0.004976115558
0.9796274779
-0.007407840091
0.9794929691
-0.004966493305
0.9792577361
-0.004801825555
-0.4883319649
0.4889234043
-0.005557932701
-0.4879484631
0.006131869289
0.4884942658
-0.006677671964
-0.4873122962
0.007197436515
0.487801132
-0.003870290653
-0.003815981621
-0.2430509465
0.004116541448
0.2431595555
-0.004225150366
-0.2418762049
0.004523952096
0.2419677618
-0.004615509021
-0.2401418799
0.004866556446
0.2402145282
-0.004939204662
-0.2360767743
0.005059375631
0.2360388191
-0.005021420425
-0.2255361679
0.004984637178
0.225760497
-0.005208966266
-0.002310597
0.981882488
-0.004599861627
0.9819167425
-0.006838485706
0.9817315932
-0.0045736121
0.981419738
-0.004426875522
-0.4894689595
0.4900082405
-0.005112893124
-0.489011033
0.005633518899
0.4895035541
-0.006126040043
-0.4882627005
0.006592471631
0.4886991283
-0.003538486804
-0.003490412655
-0.2434650958
0.003757181829
0.2435612072
-0.003853293256
-0.2422257391
0.004117346447
0.2423066088
-0.004198216211
-0.2404157512
0.004418118736
0.2404776624
-0.00448003001
-0.2359147778
0.004566676825
0.2358707841
-0.004522683206
-0.2263684849
0.004531515718
0.226550517
-0.004713547858
-0.00214177414
0.9840242621
-0.004260275521
0.9840352439
-0.006326289989
0.9837976076
-0.004220484143
0.9834063535
-0.004092421427
-0.4905053261
0.4909988414
-0.004713999476
-0.4899709065
0.005188213182
0.4904174609
-0.005634767529
-0.4891124951
0.006055644009
0.4895046013
-0.003245627819
-0.003202122353
-0.2438328105
0.003441246788
0.2439186756
-0.003527111912
-0.2425356573
0.00376297553
0.2426078453
-0.00383516353
-0.2406496011
0.004029495584
0.2407026624
-0.004082556899
-0.2357334416
0.004142858216
0.2356864105
-0.00409582719
-0.2270399581
0.004140203989
0.2271854618
-0.004285707667
-0.001991744001
0.9860160061
-0.003958935692
0.9860024356
-0.00587296794
0.9857116399
-0.003907818066
0.9852399531
-0.003798749389
-0.4914535981
0.4919074173
-0.00436163727
-0.4908423371
0.004795818139
0.4912495537
-0.005203034727
-0.4898770932
0.005585241174
0.4902314483
-0.002988857687
-0.002950738549
-0.2441624403
0.003165060729
0.2442398908
-0.003242511242
-0.2428132426
0.003455331547
0.2428782979
-0.003520386894
-0.2408503981
0.003693538311
0.2408961322
-0.003739272463
-0.2355434977
0.00377902574
0.2354956176
-0.003731145684
-0.227574285
0.00380220893
0.2276892916
-0.003917215506
-0.001860975948
0.9878769821
-0.003696583664
0.9878380433
-0.0054790664
0.9874941226
-0.003636013215
0.9869423812
-0.003545481332
-0.4923256011
0.4927453735
-0.004055785649
-0.4916382835
0.004455863198
0.492012263
-0.004829842688
-0.4905696351
0.005179867828
0.4908931417
-0.002769322973
-0.002734051447
-0.2444607969
0.002927520255
0.2445312896
-0.002998012928
-0.243064268
0.003191932308
0.2431234505
-0.003251114768
-0.2410238745
0.003406722212
0.2410635602
-0.003446407901
-0.2353525627
0.003470332508
0.2353052958
-0.003423065568
-0.2279954512
0.003513348571
0.2280857116
-0.003603608987
-0.001749267815
0.9896262499
-0.003472556341
0.9895613318
-0.005143081006
0.9891646473
-0.003402479534
0.9885333233
-0.003331543535
-0.4931322157
0.493523482
-0.003793745846
-0.4923705928
0.00416515459
0.4927167215
-0.004511283299
-0.4912033933
0.004834593095
0.4915019046
-0.002583380811
-0.00254972362
-0.2447334253
0.002725732173
0.2447982042
-0.002790511009
-0.2432934602
0.002968973835
0.2433478206
-0.00302333418
-0.2411748637
0.003164476385
0.2412095908
-0.003199203407
-0.2351655458
0.003211072278
0.2351197995
-0.003165325919
-0.2283254422
0.003268956448
0.2283959548
-0.003339469089
-0.001656577914
0.9912828278
-0.003286884974
0.9911916389
-0.004864508395
0.9907422707
-0.003208612705
0.9900343167
-0.003156889116
-0.4938840376
0.4942512735
-0.003575848707
-0.4930498096
0.003923436996
0.4933729881
-0.004246615494
-0.4917907408
0.004547744779
0.4920697245
-0.002428158629
-0.002398569911
-0.2449850511
0.002558645243
0.2450453252
-0.002618919372
-0.2435048488
0.002785112498
0.2435553457
-0.002835609401
-0.2413075227
0.002965075408
0.2413382574
-0.002995810158
-0.2349855324
0.002998695734
0.2349418863
-0.002955049606
-0.2285830351
0.003067536901
0.2286380227
-0.003122524428
-0.001583502864
0.9928663307
-0.003139801437
0.9927479375
-0.004643551427
0.9922460207
-0.003046041114
0.9914538662
-0.003017059832
-0.4945889093
0.494941541
-0.003398672798
-0.4936855123
0.003728350532
0.4939904292
-0.004033267516
-0.4923396527
0.004316613364
0.4926018144
-0.002300839359
-0.002277935703
-0.2452204629
0.002424266276
0.2452773211
-0.002481124451
-0.2437020772
0.002637865071
0.2437495555
-0.002685343379
-0.2414254765
0.002805572429
0.2414530451
-0.002833141001
-0.2348145494
0.002829606596
0.2347733602
-0.002788417347
-0.2287839571
0.002906340885
0.2288269009
-0.002949284653
-0.001527204525
0.9943935352
-0.003028017241
0.9942487502
-0.004476735564
0.993694739
-0.002933795884
0.9928283619
-0.002917435435
-0.4952642548
0.4955984578
-0.003267998909
-0.4942866052
0.003580560992
0.4945766532
-0.003870609063
-0.492857193
0.004140293954
0.4931066421
-0.002202862852
-0.002186880212
-0.2454433772
0.002320389939
0.2454975944
-0.002374607121
-0.2438882823
0.002524101309
0.2439334428
-0.002569261809
-0.2415318651
0.002682353004
0.2415569999
-0.002707487826
-0.2346537641
0.002699668406
0.2346152517
-0.002661155986
-0.2289410322
0.0027820877
0.2289746993
-0.00281575478
-0.001497382882
0.9958909181
-0.002961562241
0.9957129295
-0.004376414755
0.9951095915
-0.002866914671
0.9941622657
-0.002843403883
-0.4959080409
0.4962154606
-0.00317433436
-0.4948604776
0.003476774212
0.4951403842
-0.003756680734
-0.4933513642
0.004016494952
0.4935912543
-0.002132204142
-0.002124180914
-0.2456568653
0.002245717976
0.2457091659
-0.002298018493
-0.2440662043
0.002442217986
0.2441096715
-0.002485685181
-0.2416295918
0.002593597304
0.2416529975
-0.002617002994
-0.2345039713
0.002606796314
0.234468348
-0.002571173034
-0.2290644347
0.002693618852
0.2290909808
-0.002720164939
-0.001461729608
-0.002905715729
-0.004297560393
-0.002828070321
-0.002760690992
-0.4965287265
0.4968329188
-0.00313226266
-0.4954143197
0.003420220073
0.4956862541
-0.003692154401
-0.4938288954
0.003945481688
0.4940621457
-0.002093231562
-0.00208550046
-0.2458635416
0.00220040531
0.2459144705
-0.002251334231
-0.244238209
0.002391737694
0.2442805038
-0.002434032487
-0.2417215408
0.002538686823
0.2417440227
-0.002561168735
-0.23436607
0.002550793432
0.2343334261
-0.002518149522
-0.2291619488
0.002641839919
0.2291829277
-0.002662818875
0.002878028311
-0.002969273061
-0.05230837919
0.003231952497
-0.003338975538
-0.0544436583
0.006347082465
-0.2144906424
-0.003701692075
-0.003782003683
0.1052048056
-0.00285983655
-0.1048301777
0.00536323703
0.02319051902
-0.2193394791
-0.02033193314
-0.004292178614
0.1092372999
-0.003224693708
-0.1088350111
0.006054357427
-0.002934907178
0.005505587542
0.10555433
0.05314362993
0.003071142882
-0.003171631752
-0.05304314105
0.02621778788
-0.0003117341257
-0.02676316747
0.000857113711
-0.02766932624
-0.0008296671612
0.00121595999
0.02728303342
0.006191917014
-0.006536758497
-0.1122877907
-0.001362093554
-0.02789811557
0.001590882882
0.02710845738
-0.000863862798
-0.02760668814
-0.002746472721
0.0467324392
0.003923428227
-0.02541174399
-0.02249765072
-0.0002337602583
0.0006672134863
0.02578433466
0.003091749828
0.05323738975
-0.003185509656
-0.02237238586
0.02220938284
-7.075722997e-05
0.02497087899
-0.004855099493
-0.01215512869
-0.01070712352
0.02662917984
-0.0003503896142
-0.02275386967
6.974968607e-05
0.005183896479
0.02475130085
-0.02414226348
-0.001213927347
0.001636884758
0.02371930607
-0.05185217974
0.003404323511
0.0519661099
-0.003518253667
0.05227098657
0.003456654754
-0.05219306306
-0.001791853712
-0.001742724551
-0.0516933234
0.003232852654
0.05173288406
-0.003272413313
0.003355721636
-0.003410987957
-0.05179691342
-0.000777788142
-0.02460206078
0.00123758544
-0.02489112828
-0.00113192604
0.0013962155
0.02462683882
-0.051342062
0.003059156722
0.05141016376
-0.003127258487
0.003209957446
-0.003290034585
-0.05161324626
0.00300586256
-0.003059837776
-0.05128808678
-0.0009480270826
-0.02520493482
0.001261833619
0.0245816147
-0.0005220506681
-0.02500759111
0.02415371764
-0.0007040289836
0.003460909413
0.05232353466
-0.001772717648
-0.001740739851
0.05270397998
0.01382610783
-0.05252752405
-0.005266738508
-0.008735825241
-0.01224996236
0.02532382723
-0.02454380739
0.01146994253
0.01209452372
-0.01557628136
-0.008768204731
0.02391455285
-0.02383974288
0.00490775874
-0.02388502584
-0.005616901198
0.005530742659
0.02397118438
0.02367419851
-0.0002554288909
-0.02419655776
0.02757918483
-0.02193906923
-0.0004562191145
-0.005731520243
-0.02385102326
0.005697517658
-0.006551996975
0.01293088397
0.02120029784
0.02295545392
-0.0004951827578
0.02463817086
0.02486171258
-0.0249262376
0.007279115136
-0.008373303583
-0.2243308997
0.224975306
0.0108625272
-0.006212327037
-0.1117078623
-0.1117257269
0.006104028011
0.1096529755
0.1109222002
0.006509333413
-0.007002193828
-0.1104293398
-0.006702057868
0.09355936814
-0.09421034126
0.007353031
-0.002678513616
0.003991899381
0.04541905344
-0.004755823095
-0.02627805673
0.003678692744
0.02735518708
-0.02626212719
0.001998113401
0.02657854669
-0.002314532907
0.02655488633
0.001702701636
-0.001560651502
-0.02669693646
0.02695651099
-0.004664145622
0.08187842578
-0.01036704262
-0.07821344101
0.02624239617
0.0008887425885
-0.0005036447211
-0.02662749404
-0.02464900696
0.004238460535
0.02653648452
-0.006125938093
-0.03184557703
0.02362931451
0.03354008975
0.0239149087
0.05400054507
-0.0188898452
-0.006321628578
0.003653838558
0.05418973898
-0.003745926788
-0.05409765074
0.001656388401
0.02636728365
-0.001468785723
0.02581344763
0.00176144887
-0.001615747998
-0.0259591485
-0.0004477592613
0.02438632293
-0.02485441968
0.0009158560168
0.02475518613
0.02147792756
-0.02174653815
-0.0001791486687
0.02054654501
-0.003911866125
-0.01577413372
-0.0008605451639
-0.008676294586
0.04985182921
-0.04938868602
0.0082131514
0.002493476632
0.02392935248
-0.01975105331
0.0253594092
0.0005012618121
-0.0001158234253
-0.02574484759
-0.03070709722
0.02589742685
5.38472754e-05
-0.0254397365
0.001785977541
0.0254635715
-0.001809812543
0.001969334104
-0.00237412253
-0.02585733876
-0.005988264561
-0.02449084212
0.004201049959
-0.0005292036646
-0.0259260752
0.0009695874044
0.02548569146
-0.02576371838
0.001645645367
0.02565325004
-0.001535177024
0.001723351013
-0.001665033141
-0.02549805437
0.0008566775321
0.0258407713
-0.0004550526549
0.003616419329
-0.004597705275
-0.02366772101
-0.001209671783
0.001629003711
0.023966991
0.002084429774
0.02576139015
-0.002032372288
0.02665499888
0.009267466146
-0.009755714268
-0.02616675075
-0.002025115885
0.02545236185
-0.02030556012
-0.003121685851
-0.004489270796
0.008582867625
0.01645294818
0.02062356374
-0.0003553079655
-0.01709586663
0.02233913262
-0.00452022396
-0.0007230420282
0.01941141724
-0.004596295559
-0.0187269878
0.0239230284
-0.005089849373
-0.02399917829
0.005165999263
0.02498479681
-0.0001545912748
0.01405775841
-0.0008717248869
-0.02321259787
-0.006160726426
0.005893162564
0.02348016174
-0.004188261985
-0.01219779746
-0.0007098071792
-0.006380834776
-0.02306793827
0.00623617517
-0.01470469781
-0.02199066397
-0.0260817545
0.001689322617
0.02598903257
-0.001596600683
0.001586228143
-0.001519945708
-0.02583000081
-0.02637273981
0.0009479264263
-0.02560503188
0.003029593985
0.02681389843
-0.02566091343
0.001767121657
0.02581047914
-0.001916687369
0.001609589769
-0.001666390458
-0.02602495381
-0.02385004105
0.02301704614
-3.086788636e-05
0.002333929269
-0.02617945106
-4.519256986e-06
-0.02766151918
0.002388760308
0.02199132905
0.0001322088267
8.584496287e-05
-0.0001181874983
0.02617168952
0.0005756778107
-0.02271591197
0.02247659741
0.0001211270617
-4.925544001e-05
-0.02362732274
0.0008416934896
3.175958134e-05
-0.02540310037
0.001565135788
0.02540261161
-0.001564647033
0.001711818934
-0.001864356877
-0.02550837548
-0.02473918354
0.002750570993
-0.02618554885
0.001179927554
0.02586229883
-0.02552556517
0.001509935671
0.02548757823
-0.001471948732
0.00154192036
-0.001520748054
-0.02542427267
-0.02463850001
0.02423801208
-0.0001215627375
0.0004541758877
-8.433600689e-05
-0.02500833989
0.000873745643
-0.02542716087
-0.001176368816
0.02376621946
0.001563866997
-0.0237454709
0.02306323464
-0.0004941325581
-0.000211487798
0.006819254578
-0.007353807863
-0.02400925411
0.02547134613
-0.0249600676
0.006307976053
0.02644975188
0.01049153679
0.0002094392688
0.004418509021
-0.004627948286
-0.01856130077
-0.004368788449
0.005053190881
0.02391537797
0.0197126392
-0.004790492756
0.02099803911
-0.00225649865
-0.02076665634
-0.02165643542
0.02137955808
2.144845815e-05
0.0002177323947
-0.0218245028
-4.96650168e-05
-0.02460388791
0.0006250625422
-0.01836262174
-0.00047535298
0.01394714093
-0.001016256961
-0.005035387527
0.01959111191
-0.0006085834446
0.02243361152
-0.006268701208
-0.001477684705
0.02212077271
0.002312365918
-0.02081859218
0.01933727435
3.633130422e-06
6.578313715e-05
0.02502673887
-0.02505528429
0.02249820408
0.000205796109
-2.927198952e-05
0.02237511408
0.0001684867856
-4.539678472e-05
0.01497660468
-0.01497744428
8.395953794e-07
-0.004791749881
0.003666715224
-0.03097143059
2.296412468e-07
-0.022120764
0.01987969622
0.02738871427
-0.02061341161
0.02692509811
0.001627716464
-0.001516341853
-0.02703647272
-0.0001840968151
0.02287456562
-0.02365437531
0.0009639065061
0.0006415317112
-0.0001687418603
-0.02532720953
0.02554406747
-0.0260139526
0.001111416842
0.0251230236
0.001336899893
7.604903976e-05
-0.01127212126
-0.003550064895
-0.0009519475632
-0.009940396447
-0.00133172481
0.01189643908
-0.001636668601
-0.01044386729
0.01733039918
-0.004379201944
-0.01717090001
0.00421970278
0.003058971699
0.003736629089
0.01865676107
-0.0222801301
0.02213228805
3.201862157e-05
6.69524247e-05
0.0001295148851
0.0004937943612
0.002391246935
-0.0001211428303
0.0219293235
-0.02207489761
6.123810856e-05
0.02176479623
4.296453257e-05
0.02222704878
0.0001038773664
4.418793415e-05
7.344830543e-05
7.870285941e-05
-0.02224034271
-0.00447812656
0.002308248805
-0.001485356877
0.002406747252
0.01947914433
-0.02098640423
2.190302744e-05
2.35734947e-05
0.02151590559
3.740283483e-05
3.536880095e-05
0.02485777616
0.001894251153
-0.003444526607
0.003342235164
-0.003486789709
0.0008628125949
-0.01720689842
-0.003961474287
0.01689046537
-0.01376264213
-0.002265010641
0.01397821878
0.0101317342
-0.001548866568
-0.002272217461
-0.00135869047
-0.003026167698
-0.001424526737
-0.005064162423
0.01746289859
-0.02052019781
-0.00536941236
0.02082544775
-0.01987272234
-0.005167699434
-0.0001829121684
0.0005638210713
-0.02198346688
-2.394809514e-05
-5.770099478e-06
-0.0005369067066
-0.01835652665
0.02402917837
-0.004966672468
-0.0007059792494
-0.01305513168
-0.004602935364
-0.0006984595961
-0.01864383597
-0.005417148353
0.01107290479
-0.005687562386
-0.001124892675
-0.01203899067
-0.001016141009
0.005460238648
-0.006094565399
0.02562343622
-0.0005720856631
0.01982062072
-0.01494996081
0.0002452630018
0.004406443622
-1.913008182e-05
0.004536552358
0.00665156256
-0.006269926567
-0.2346993786
-0.005319954492
0.2357488535
-0.2357833235
0.005112655983
-0.004927676691
-0.2350735445
-0.004378624957
0.2294157919
-0.229640065
0.004416257597
-0.004538418573
-0.2268720796
0.2176626467
-0.2168420632
0.00550710102
0.02227381775
-0.02202773352
-0.2331371981
-0.02086658525
0.232456763
-0.2331035936
0.02126907146
0.007071269069
0.2343620041
-0.02050418735
-0.2324681323
-0.02018377363
0.2285298572
-0.2286405844
0.02011281191
0.004597798157
0.2290599117
-0.0204919098
-0.2268140927
0.2217274364
-0.2205126039
0.02196746982
0.005772916731
0.2185375407
0.2179644083
0.006873115523
-0.004017935549
-0.00403687387
0.1082038642
-0.004690480473
-0.1078769658
0.004363582054
-0.1069115132
-0.004494092975
0.004176188296
0.1072294179
0.05276052063
0.002995770499
-0.003098287784
-0.05265800335
0.05215815487
-0.05207853605
0.003276102824
-0.05187437213
0.003163671426
0.05194355336
0.007727212743
-0.007475252773
-0.2311217301
-0.006253681469
0.2296268298
-0.2303007287
0.006693631527
0.005735193851
0.231736265
-0.005847918872
-0.2298767784
-0.005273708528
0.2278834569
-0.2281247704
0.00532253036
0.004419873336
0.2284196693
-0.00542335986
-0.2273857426
0.2258491095
-0.2250368882
0.006416471716
0.00631153075
0.222870542
-0.008669245459
0.2231469953
0.007487471132
0.2226075728
-0.004986271901
-0.1107020966
-0.1105870915
-0.005001358231
-0.1098957877
-0.004971715494
0.004632986549
0.1102345167
0.1099590222
0.006550044215
-0.003498344845
-0.003506868403
0.05490511799
-0.003834194697
-0.05472004542
0.003649122141
-0.05433215024
-0.003697315951
0.003584509499
0.0544449567
0.009316363786
-0.009642044274
-0.2302311382
-0.009850913945
0.2278766372
-0.2281067051
0.009888941352
0.00735211006
0.2290191284
-0.009744332181
-0.2276287661
-0.009298277494
0.2265511613
-0.2268853205
0.009438553308
0.006035512852
0.2275821785
-0.009201805823
-0.2268176202
-0.009366176554
0.2269976885
-0.2269640725
0.009223619549
0.006681647561
0.2264289786
-0.009595469635
-0.2270961075
-0.01081016042
0.2283327108
-0.2279323301
0.01038359934
0.01037552694
0.2262382804
-0.01031247246
-0.2246162522
0.009184404103
-0.01043247265
-0.2325296804
-0.01342519325
0.2292632888
-0.2285171878
0.01256162849
0.0107680214
0.2278493004
-0.01415341827
-0.2275799077
-0.01560781755
0.2263704962
-0.2261519872
0.01523235386
0.01089664132
0.226285784
-0.01589552974
-0.2260916687
-0.01642593883
0.226815033
-0.2267907261
0.01628298193
0.01071569777
0.2269385251
-0.01657033352
-0.2272378611
-0.01670100138
0.2281391068
-0.2284077005
0.01692286825
0.01143507782
0.2285211058
-0.01569507181
-0.2217322774
0.008394154172
-0.008766488543
-0.2359657932
-0.0121109408
0.2350707754
-0.2332258326
0.01024272404
0.01261497715
0.2303002882
-0.01387680539
-0.2316851008
-0.01837227349
0.2298144437
-0.2285457304
0.01702006013
0.01632121142
0.2268282326
-0.01957173813
-0.2280127215
-0.02231064474
0.2284790624
-0.2277787829
0.02152885717
0.01811751852
0.2269661218
-0.02298725066
-0.2281282664
-0.02313952144
0.2259524044
-0.2266195611
0.02377090077
0.01904504507
0.2277421714
-0.02232927576
-0.2175379745
0.007876305526
-0.008196507301
-0.237376866
-0.009160980516
0.2372421665
-0.2369206996
0.008839513658
0.009360602308
0.2362298993
-0.009481434883
-0.2367047625
-0.01137147795
0.2362070837
-0.235019464
0.01017834275
0.01608653931
0.2313384928
-0.01323923375
-0.2338519392
-0.0180611142
0.233152117
-0.2317440436
0.01662820628
0.02149073812
0.229381625
-0.01929467176
-0.2315398146
-0.02022944594
0.2237947377
-0.2241418241
0.02056287082
0.02420709495
0.2252771762
-0.02040446393
-0.2156738678
0.007299928058
-0.007572964308
-0.2385859319
-0.008377958276
0.2383841214
-0.2381188379
0.008112674778
0.008659462622
0.2375485555
-0.00863931398
-0.2378938896
-0.009393123918
0.2372823012
-0.2370366188
0.009147441447
0.009869776147
0.2365001809
-0.009633042184
-0.2366898808
-0.01031153554
0.2357979628
-0.2355822649
0.01009583764
0.01336609456
0.2346619948
-0.01048526419
-0.2351807953
-0.01007064102
0.2232590205
-0.2235300522
0.01034167274
0.01759559014
0.223646926
-0.0103809875
-0.2171075868
0.006711132247
-0.006943780062
-0.2396167234
-0.007617201631
0.2393285138
-0.2391087295
0.007397417353
0.007933504302
0.2386371454
-0.007831680512
-0.2388656158
-0.008440112085
0.2381384924
-0.2379416556
0.008243275235
0.008916781938
0.2375144378
-0.008631076474
-0.237571516
-0.009147814543
0.2365057579
-0.2363496698
0.008991726452
0.00980954515
0.2359969088
-0.009250957332
-0.2357607922
-0.008862033195
0.222466664
-0.222624727
0.009020096175
0.009989794675
0.2230195759
-0.009241963985
-0.2184781763
0.006137809382
-0.006336517401
-0.2404957634
-0.006903068986
0.2401142759
-0.2399308203
0.006719613416
0.007225181316
0.2395384664
-0.007080809389
-0.2396656385
-0.007579382913
0.2388317599
-0.2386712431
0.007418866162
0.008030975469
0.2383252646
-0.007734239572
-0.2382779085
-0.008130509986
0.2370152854
-0.2369035846
0.008018809245
0.008738351947
0.2366495845
-0.008184320475
-0.2360942493
-0.007854496963
0.2220749746
-0.2221389301
0.007918452414
0.008727606573
0.2223336617
-0.008246084752
-0.2200291396
0.005593713631
-0.005764164246
-0.2412477392
-0.006244290252
0.240773624
-0.2406191011
0.00608976737
0.00655563293
0.240289827
-0.006393246638
-0.240331151
-0.006808209199
0.2394030503
-0.2392698737
0.006675032571
0.007223493455
0.2389846772
-0.006935804046
-0.2388541136
-0.007239654221
0.2373747372
-0.2372968278
0.007161744821
0.007792168335
0.2371176459
-0.007257993478
-0.2362525926
-0.007003121036
0.2220147955
-0.2220029549
0.00699128046
0.007669721803
0.2220318062
-0.007372535175
-0.2215696842
0.005088574706
-0.005235502903
-0.2418940638
-0.005645721344
0.2413324569
-0.2412009873
0.005514251809
0.005939503683
0.2409218581
-0.005772086899
-0.2408913937
-0.006122635713
0.239881546
-0.2397694047
0.006010494479
0.006500326964
0.2395304405
-0.006228984865
-0.2393310723
-0.006460701201
0.2376193691
-0.2375674237
0.00640875582
0.006962827198
0.2374454917
-0.006453747091
-0.236285252
-0.006274976062
0.2222087237
-0.2221406156
0.00620686801
0.00678154031
0.2220424938
-0.00660455722
-0.222991207
0.00462860108
-0.004756191208
-0.2424527002
-0.005110209668
0.2418113375
-0.2416981684
0.004997040487
0.005380880686
0.2414589828
-0.005218853043
-0.2413690091
-0.0055190031
0.2402875388