/*--------------------------------*- C++ -*----------------------------------*\
| =========                 |                                                 |
| \\      /  F ield         | OpenFOAM: The Open Source CFD Toolbox           |
|  \\    /   O peration     | Version:  v2012                                 |
|   \\  /    A nd           | Website:  www.openfoam.com                      |
|    \\/     M anipulation  |                                                 |
\*---------------------------------------------------------------------------*/
FoamFile
{
    version     2.0;
    format      ascii;
    class       volVectorField;
    location    "2.91";
    object      U;
}
// * * * * * * * * * * * * * * * * * * * * * * * * * * * * * * * * * * * * * //

dimensions      [0 1 -1 0 0 0 0];


internalField   nonuniform List<vector> 
3019
(
(99.99833034 0.004029096586 -4.450948529e-21)
(99.99784284 0.01341065139 3.398553964e-25)
(99.99647592 0.02783176995 -4.440651994e-21)
(99.9942031 0.05057281219 -4.409088744e-21)
(99.99977551 0.03931534267 4.24907957e-21)
(99.99714958 0.06382943451 0)
(99.99569317 0.1014463369 0)
(99.99531406 0.1524302036 -7.37329638e-21)
(99.9941441 0.2183820321 8.547840043e-22)
(99.9935077 0.2960553247 -5.494955335e-21)
(99.99409408 0.3747408628 7.420969881e-22)
(99.99530337 0.4368504096 0)
(99.98499793 0.01079609232 1.783782012e-20)
(99.97931355 0.03641714243 4.453175188e-21)
(99.96651737 0.07631580664 3.108915127e-20)
(99.94467865 0.1395838302 -1.331479718e-20)
(99.94869008 0.1867397022 4.282129199e-21)
(99.91564357 0.3063989214 -5.553306402e-23)
(99.873387 0.4872736322 0)
(99.85199282 0.6470591061 -7.460916315e-21)
(99.80874882 0.9378642483 -6.862289171e-21)
(99.78012222 1.291196665 -1.179255388e-20)
(99.78615295 1.661035328 -4.79025023e-21)
(99.83980049 1.962007153 -1.18257189e-20)
(99.95975024 0.01393332501 -1.779808057e-20)
(99.94364317 0.04813873544 -3.575078557e-20)
(99.9086332 0.1037476174 -8.009308549e-20)
(99.85026245 0.1944644894 1.065481033e-19)
(99.82239856 0.2951679815 -8.804183004e-21)
(99.72308442 0.4990732317 -8.538392748e-21)
(99.59194363 0.8107489819 -1.480609316e-20)
(99.5230417 1.145312414 0)
(99.38343395 1.704414565 2.846856377e-20)
(99.29198057 2.400490261 1.069830069e-20)
(99.32630412 3.147839624 -4.147283254e-20)
(99.52999289 3.807148056 2.739660929e-20)
(99.9304638 0.01116228569 -8.977077213e-21)
(99.89949674 0.0414337282 6.283162252e-20)
(99.83323057 0.09855950282 -1.797902009e-20)
(99.7250346 0.1960905634 0)
(99.6403372 0.3379025506 0)
(99.44514218 0.6010364315 -6.921522987e-20)
(99.17624697 1.018003695 -1.383990245e-19)
(98.97067157 1.51817341 3.248799444e-20)
(98.64709729 2.334686703 -1.266230689e-19)
(98.41858127 3.39215454 -6.547329867e-20)
(98.41817327 4.660051274 1.215734281e-19)
(98.8465623 5.902659499 5.253663328e-21)
(99.91138238 0.001015930231 0)
(99.8630404 0.01139844998 0)
(99.76051489 0.05222111964 9.089144538e-21)
(99.59208757 0.1335918796 1.371962892e-20)
(99.43688116 0.2965802669 2.270208215e-20)
(99.11445953 0.5793428281 0)
(98.66604228 1.033749638 0)
(98.24578971 1.661466093 -6.921888206e-20)
(97.65661911 2.672396595 5.623893173e-19)
(97.10971469 4.127597114 0)
(96.85850806 6.104681876 -6.277675292e-19)
(97.45888915 8.40961658 0)
(99.91853271 -0.01702918485 0)
(99.85232635 -0.04370227416 0)
(99.71364027 -0.04074571663 -1.820138851e-20)
(99.48163265 0.002003587161 3.712916425e-20)
(99.24534403 0.1563608677 0)
(98.78314942 0.4049912695 0)
(98.1238201 0.8280865512 2.911192386e-20)
(97.46533974 1.477859742 -6.258153647e-19)
(96.48323051 2.550449809 0)
(95.35079353 4.257991477 -3.421839576e-19)
(94.28107074 7.053869409 0)
(94.41265688 11.39512197 2.482160057e-18)
(99.96744749 -0.04256152047 4.451181622e-21)
(99.88508311 -0.1220296187 -4.485567668e-21)
(99.71504144 -0.1772057928 9.159726861e-21)
(99.42689282 -0.198856615 -3.350376042e-20)
(99.10150422 -0.08484751428 7.556231307e-23)
(98.51284167 0.07494506564 2.875817262e-20)
(97.66887254 0.3805274255 -5.972383969e-20)
(96.75680144 0.9316617756 0)
(95.33365378 1.863336459 -7.545850054e-19)
(93.39496404 3.439964805 8.072740628e-19)
(90.60140407 6.348407232 -8.194030726e-19)
(87.12761221 13.34858427 -2.084828287e-18)
(100.071532 -0.07409485064 -4.451648755e-21)
(99.97682359 -0.2187816717 4.487174612e-21)
(99.78388245 -0.3477560516 -5.699529871e-21)
(99.45486037 -0.45366954 -3.839799288e-21)
(99.05379866 -0.4107522771 1.638954696e-20)
(98.36873055 -0.3842113957 9.785244707e-21)
(97.40708102 -0.277090036 7.753471835e-20)
(96.27932345 0.06254847155 0)
(94.52328287 0.6151664043 0)
(91.95759013 1.506437343 0)
(87.62279069 2.851313601 -1.00362837e-18)
(79.00287584 5.398942902 1.277157726e-18)
(100.240593 -0.1093216567 -2.14616832e-21)
(100.1388275 -0.3268027945 -1.612917482e-21)
(99.93404137 -0.5387540373 -5.532634775e-22)
(99.5841347 -0.7406437849 1.676949404e-21)
(99.12792773 -0.7904359928 -3.267196555e-23)
(98.39682705 -0.9241935393 0)
(97.3963421 -1.053188014 -8.059914963e-20)
(96.15268827 -0.9920948758 -9.381069581e-20)
(94.28744615 -0.9141067763 -1.717455441e-18)
(91.66949538 -0.8624558177 -8.106078565e-19)
(87.68507131 -1.31741484 -2.047876466e-18)
(82.30891468 -3.439832639 -2.275729375e-18)
(100.4794402 -0.145471139 4.227861589e-21)
(100.3765001 -0.437553838 6.558411261e-23)
(100.17194 -0.7341165969 0)
(99.82280856 -1.034643852 2.170995052e-22)
(99.33785188 -1.187250971 -2.248777021e-21)
(98.61452393 -1.485581953 2.402359851e-21)
(97.64987895 -1.842735781 8.251511249e-20)
(96.40812137 -2.051465132 1.867632965e-19)
(94.64576559 -2.377845867 -4.253395481e-19)
(92.31426708 -2.895943189 8.501455302e-19)
(89.18113981 -4.042806874 9.539137094e-19)
(85.86240303 -6.052167855 9.671465711e-19)
(100.7873859 -0.1798635808 -2.081509254e-21)
(100.6887664 -0.542618874 2.100204942e-21)
(100.4953458 -0.9182145013 2.047418531e-21)
(100.1686844 -1.311723781 -1.919205675e-21)
(99.6783416 -1.565791626 -2.216354609e-21)
(99.00916342 -2.010331827 0)
(98.13510124 -2.562696756 1.470594801e-19)
(96.97407587 -2.995104879 3.364449055e-21)
(95.40617414 -3.604264271 2.056219821e-18)
(93.4169912 -4.437091081 -2.718403339e-20)
(90.85912197 -5.7974983 1.688482906e-18)
(88.24060339 -7.497628274 -2.098630088e-19)
(101.1585395 -0.2101716304 7.620648543e-21)
(101.0690121 -0.6345918342 0)
(100.8949491 -1.075748758 -2.043398039e-21)
(100.6053981 -1.55839589 0)
(100.1256627 -1.897864707 0)
(99.54974179 -2.455722008 -6.581799388e-21)
(98.80267383 -3.157910257 -1.166632361e-20)
(97.77025498 -3.756176042 1.689519105e-18)
(96.42807271 -4.548692514 7.906077297e-19)
(94.75052355 -5.569755962 8.018988305e-19)
(92.55726191 -7.081370351 -2.24418401e-18)
(90.13969401 -8.780620582 -1.871595729e-19)
(81.70923938 -2.874098656 -1.153724534e-18)
(85.51072164 -5.81787302 -1.752931457e-18)
(87.98245003 -7.344540187 -2.565341823e-18)
(89.90067849 -8.610354973 0)
(79.51074894 7.036396157 -1.274707741e-18)
(88.76955765 -3.479673208 -9.483133845e-19)
(85.89880977 -5.445909043 0)
(83.02444089 -2.892725874 3.407502826e-18)
(90.44052288 -5.416804697 -2.584858305e-18)
(88.2799683 -7.068598283 -8.598611746e-19)
(86.23553523 -5.694239721 -9.710280715e-19)
(86.84081292 -6.669926304 0)
(85.93110165 -7.808841001 8.328460886e-19)
(84.62600498 -7.21077982 1.554259648e-18)
(92.12393389 -6.790985407 2.3097074e-18)
(90.17563045 -8.368846801 0)
(88.53227451 -7.233642641 0)
(88.9676206 -7.955707376 -2.017444943e-19)
(87.95130928 -8.755569044 1.761764353e-18)
(87.23761762 -8.302832186 -7.91750368e-19)
(90.41256137 -8.534778203 0)
(91.01713322 -9.278618931 5.148321266e-21)
(89.48353595 -10.2194491 0)
(88.76317313 -9.505531143 -1.132787703e-18)
(74.07923888 -4.583512857 -1.026674483e-18)
(79.72985292 -6.432596026 -2.195525436e-18)
(67.57920102 7.94868321 -1.521617259e-18)
(72.97801874 -3.879264207 0)
(84.44113709 -7.10915534 -2.218134491e-18)
(83.04902598 -6.523024004 3.775758272e-18)
(84.32543393 -4.995972932 2.099531272e-18)
(82.86162566 -6.77180398 9.675699247e-19)
(84.31181207 -7.269794808 -6.775084894e-19)
(80.25663369 -6.498769894 1.366597037e-18)
(82.62583456 -6.722570939 1.21823696e-18)
(87.11256958 -8.24617686 -8.016461694e-19)
(86.10154032 -7.869709919 -2.065277304e-19)
(87.14428173 -6.851746824 0)
(85.91380005 -7.98602675 0)
(86.9827966 -8.344875959 0)
(84.40281257 -7.329637744 6.809838998e-19)
(85.82854521 -7.950586256 0)
(88.70888546 -9.458642291 -4.384850644e-21)
(87.99521952 -8.79408022 1.174348846e-18)
(89.2003663 -8.114188065 0)
(87.84511506 -8.831001757 3.331261724e-21)
(88.49127475 -9.506321844 0)
(87.04303856 -8.378761663 1.587678839e-21)
(87.80543485 -8.793902865 -1.209843574e-18)
(89.5324003 -10.27551024 0)
(91.14795664 -9.372501118 1.152222701e-18)
(89.17701599 -10.30930211 1.091096808e-18)
(88.54427037 -9.552251029 -1.155773795e-18)
(89.13906641 -10.25547375 -1.090725134e-18)
(87.44588413 -0.4032558371 -1.038043367e-18)
(82.53306183 -2.30669029 2.350534595e-18)
(80.74637862 5.080255872 0)
(79.35246116 0.8119182768 -2.645191548e-18)
(73.94314222 -2.84752279 0)
(69.90031234 7.622475006 3.122457213e-18)
(83.87802523 -4.678545704 1.090028201e-18)
(82.80829899 -6.46080964 -4.766169434e-18)
(80.38310031 -5.965089889 2.179061475e-18)
(79.87682221 -5.844433671 -2.258808001e-18)
(74.85137377 -3.576232693 0)
(79.86392 -0.3742684723 -2.5453374e-18)
(77.00196853 -9.237618727 5.981725848e-18)
(52.43668872 11.4815771 3.703272881e-18)
(59.90767999 -6.263545443 1.67514082e-18)
(78.02485603 20.37063522 1.100171904e-18)
(68.12915338 10.34503272 -7.663092049e-19)
(89.17237804 -9.852204158 1.163278154e-18)
(90.03181625 -9.529481657 6.569582648e-19)
(90.4077566 -9.815075739 -6.31604599e-19)
(72.17818519 -10.51986214 0)
(76.50630793 -9.42111136 -7.256937687e-18)
(76.95224129 -5.86547554 -2.172227317e-18)
(76.70145889 -9.025860885 0)
(72.30082732 -9.444675163 1.161463665e-18)
(79.2597808 -8.205217832 -5.938862371e-18)
(77.16168954 -8.891753563 2.12175704e-18)
(77.75303592 -6.078908888 2.162453181e-18)
(68.63772704 1.318308878 0)
(61.31130996 -4.621418857 -1.664915745e-18)
(55.34822228 10.91484568 -3.442427258e-18)
(71.38962071 -9.282522199 -1.232997206e-18)
(62.72337184 -5.819979568 1.553530194e-18)
(69.61249866 -0.4298811988 0)
(61.62009846 -7.475508002 0)
(71.28867484 -10.23281773 1.337554559e-18)
(83.58270048 -6.91273931 -1.384104918e-18)
(81.69720541 -7.371165286 2.059838732e-18)
(83.67703895 -6.955822571 6.862988236e-19)
(81.48178111 -6.587478798 -7.571908946e-19)
(80.73544223 -7.573518158 2.065290982e-18)
(79.44808203 -8.111643953 2.068703764e-18)
(81.62149968 -7.361103947 -2.05698128e-18)
(80.86607052 -7.503739106 4.132025982e-18)
(81.8057693 -6.611460719 0)
(86.46120515 -8.147805107 1.279766474e-18)
(86.5318365 -8.178140152 1.27412577e-18)
(85.0784109 -7.666547293 -6.71705457e-19)
(85.17501651 -7.71713745 -6.673582581e-19)
(88.15987632 -9.135932071 0)
(88.20456368 -9.177496143 9.168261427e-19)
(87.43837043 -8.560260059 5.952443042e-19)
(87.48783944 -8.589118714 1.777451134e-18)
(90.538999 -9.913578331 5.177548995e-21)
(88.89160693 -9.835805876 -1.823547904e-18)
(88.93136539 -9.881002316 -1.224901808e-18)
(65.70363672 28.8400691 0)
(53.08277805 14.62791349 0)
(87.61320107 -8.541595387 -1.160055447e-18)
(88.19294353 -8.1889246 0)
(88.53523592 -8.407175094 0)
(87.70243676 -7.915789927 7.340341064e-19)
(88.07453887 -8.119294681 0)
(87.56008103 -8.514313522 0)
(89.55465403 -9.165950229 6.726088583e-19)
(89.91127242 -9.436563787 -6.552082668e-19)
(89.12661141 -9.804624149 0)
(86.71472435 -8.085062329 8.069319127e-19)
(87.1608881 -7.645403213 -7.468765192e-19)
(87.57243245 -7.848028596 4.085693828e-21)
(86.44170443 -8.491231165 0)
(86.28757296 -8.417412826 0)
(86.79815464 -8.272096614 6.415382851e-19)
(88.37651033 -9.136123994 2.682733508e-22)
(89.09389761 -8.815004433 0)
(89.43769112 -9.076764888 0)
(88.64652986 -8.484814193 6.988974693e-19)
(88.98102794 -8.72985798 0)
(88.32789316 -9.092538011 -1.179770534e-18)
(87.96875808 -8.958738391 -6.163378034e-19)
(86.95728976 -9.006710442 0)
(86.89616386 -8.852392803 -1.367315633e-18)
(86.61868062 -9.488260322 0)
(86.52723777 -9.351471279 0)
(88.34686361 -9.357747439 -5.711216058e-19)
(87.22187113 -8.453876731 -1.266193126e-18)
(86.65105419 -8.598731524 0)
(86.49723968 -8.519271502 0)
(86.87973516 -8.819540631 0)
(86.80706614 -8.755325872 0)
(87.67974756 -8.698508016 0)
(88.7066847 -9.678719547 1.180499743e-18)
(86.87631819 -9.661553576 3.558069051e-21)
(86.66596318 -9.54666917 1.476130111e-18)
(87.06359075 -10.05457392 1.843991601e-18)
(89.07856646 -10.10392948 5.924698655e-19)
(78.07363308 -8.748993659 -3.099337841e-18)
(78.39761212 -8.646480389 -2.128521834e-18)
(53.64588049 1.972832585 0)
(54.91383002 -0.6224108105 -3.642264568e-18)
(74.3012477 -10.09773631 -4.949828319e-18)
(74.9126805 -9.896494211 -1.229275529e-18)
(75.1396574 -9.362204367 0)
(75.30153289 -7.39635987 0)
(76.8826134 -7.552756299 0)
(72.73720054 -6.761280779 1.195963092e-18)
(74.71072113 -7.296743188 4.336239548e-18)
(74.52776998 -9.456787802 2.1009558e-18)
(78.59407161 -8.447725539 2.124377579e-18)
(78.83678404 -7.512259419 1.960496932e-18)
(79.66366477 -7.420663059 -8.149622781e-19)
(77.34627603 -7.568670315 0)
(78.51709387 -7.535809809 9.102834638e-19)
(78.26453754 -8.5177165 0)
(68.09414972 -8.618317571 2.68115774e-18)
(69.52203282 -5.364656455 0)
(71.96640901 -6.494700563 -2.468848223e-18)
(66.2790227 -9.676038697 -4.434658654e-20)
(67.74441687 -9.951453141 0)
(82.10282339 -7.404732511 -1.080061546e-18)
(82.82942213 -7.202355376 -6.175919829e-19)
(83.0481533 -7.269244512 0)
(82.41692324 -7.139957609 0)
(82.7327133 -7.185705754 -8.385549659e-19)
(82.003008 -7.418546661 -1.04135253e-18)
(83.39970481 -7.457920245 1.48849145e-18)
(83.62068243 -7.624006818 0)
(83.11035789 -7.304639424 -1.829799765e-19)
(83.32788911 -7.414862694 -1.47518266e-18)
(80.25615922 -7.762192412 0)
(80.74479704 -7.252679234 -1.621137871e-18)
(81.2594984 -7.174155171 0)
(79.9021965 -7.386691952 8.098176993e-19)
(80.55224868 -7.285074175 0)
(80.08370324 -7.843761516 1.042954597e-18)
(81.3031591 -7.434931473 1.032657027e-18)
(81.9508511 -7.123725224 -8.299061352e-19)
(82.30813344 -7.129831113 0)
(81.41203665 -7.153538477 1.636084505e-18)
(81.82213227 -7.124981508 -8.330543942e-19)
(81.1729786 -7.441987726 1.036453884e-18)
(85.42981749 -8.338038978 -1.926495988e-21)
(85.62359854 -8.395381237 -6.257767882e-21)
(85.15197362 -8.333728433 0)
(85.37196236 -8.330384916 2.816645265e-18)
(85.92158489 -8.43630987 -1.478990097e-18)
(86.05729171 -8.513024761 1.508146248e-18)
(85.6957126 -8.408689993 1.441696356e-18)
(85.87727811 -8.424558775 -2.369982521e-21)
(84.1146128 -7.92550726 0)
(84.43273489 -8.056529714 2.361499039e-18)
(83.70452082 -7.691153391 -3.042785307e-18)
(84.00813909 -7.875238212 0)
(84.93561553 -8.228368915 1.594100865e-18)
(85.09679445 -8.311768829 -2.057984476e-18)
(84.5377065 -8.094325772 -2.379457612e-18)
(84.84389713 -8.196442654 -1.606517731e-18)
(87.15382693 -9.19744198 0)
(86.99997147 -9.069973681 -7.046553274e-19)
(88.01446676 -9.004653991 0)
(86.11716516 -9.031051379 -7.958123866e-19)
(86.30501289 -9.145264612 0)
(86.04632816 -8.777020268 1.574833468e-18)
(86.0684139 -8.953604812 0)
(86.31133278 -9.171441045 -1.68384754e-18)
(88.31275629 -9.306949133 2.298754075e-18)
(86.61704328 -9.310271491 0)
(87.16109458 -9.234723533 0)
(86.63448963 -8.689676985 -2.514382029e-18)
(86.69158236 -8.635240662 0)
(87.27776199 -8.486776168 6.292680769e-19)
(86.28713788 -8.652704387 1.546814823e-18)
(85.83598053 -8.671130268 0)
(86.11182499 -8.543145482 0)
(86.24727791 -8.622276097 0)
(85.98497023 -8.703552687 0)
(86.04154687 -8.748669913 0)
(85.8523484 -8.673010934 1.512972079e-18)
(85.95523041 -8.693181485 0)
(87.63432067 -8.670307825 0)
(86.77530253 -8.739688896 1.317035916e-18)
(86.6631989 -8.706476906 2.02077076e-21)
(87.03741401 -9.744292627 0)
(86.93203786 -9.681877105 -7.389855056e-19)
(88.75766807 -9.716845125 1.188431678e-18)
(89.04430892 -10.04226756 -6.087193177e-19)
(87.03712826 -9.980753939 0)
(87.05103247 -9.772812726 0)
(85.38391753 -7.589756227 2.15267727e-19)
(85.88399884 -7.029782045 -1.585083934e-18)
(86.39342662 -7.282075896 0)
(85.16942123 -6.641161257 0)
(85.70874254 -6.937581694 1.606355785e-18)
(85.19428433 -7.50321085 0)
(86.55577155 -7.359684399 0)
(87.01592697 -7.576360511 0)
(86.57100301 -8.032858877 8.115247581e-19)
(86.16143137 -8.052924305 6.389986587e-19)
(85.7029192 -8.283178902 1.335519235e-18)
(85.46458904 -8.247157482 0)
(85.38945621 -8.222272375 6.684304482e-19)
(85.1497136 -8.139541234 -3.711244491e-19)
(85.5575448 -7.86666029 -6.617881986e-19)
(77.42615748 -9.028395279 -1.18915718e-18)
(72.96696595 -10.48107025 1.102404793e-18)
(71.74503584 -10.8341093 0)
(75.99168802 -9.569463743 -7.360678783e-22)
(76.21257008 -9.140269834 -4.242142673e-18)
(76.32894694 -8.617489629 0)
(76.81004726 -8.541115024 0)
(79.07985974 -8.317261119 3.643693795e-18)
(79.2324014 -8.022692538 4.345675945e-19)
(79.46404575 -7.958014731 0)
(77.25894246 -8.448958471 -4.052581785e-18)
(77.66931597 -8.34990967 1.009859377e-18)
(77.5754463 -8.744150962 0)
(66.01242529 -2.463871998 0)
(68.65309784 -4.699081896 -2.795671322e-18)
(66.80857334 -8.197299108 -2.796068938e-18)
(63.24650078 -8.480635871 2.574199686e-18)
(62.6088381 -10.87740361 0)
(60.57966224 -9.159302111 0)
(70.9634684 -10.909418 0)
(69.98448265 -11.07103634 -6.204081056e-18)
(70.26699004 -10.1557726 1.388422323e-18)
(82.06382541 -7.367221726 0)
(82.41724359 -7.372571182 -6.447797515e-18)
(82.39226933 -7.395052707 6.487935513e-18)
(82.04627067 -7.323818715 9.227263724e-19)
(82.14458525 -7.337314193 1.850973406e-18)
(81.78620467 -7.38894349 0)
(82.69651801 -7.628375314 -9.399708697e-19)
(82.74218107 -7.706220784 9.438698074e-19)
(82.39518266 -7.417783635 0)
(82.44238862 -7.438169692 9.139334942e-19)
(80.57523938 -7.646529344 1.045115142e-18)
(80.83686678 -7.537420159 -4.256934156e-21)
(80.99361113 -7.48553303 -1.788724797e-18)
(79.68721905 -7.898930422 1.729725295e-18)
(79.90800123 -7.840543923 -3.517329162e-18)
(79.66101705 -8.028041695 0)
(81.54243654 -7.372610352 0)
(81.85600603 -7.327229159 -9.140581742e-19)
(81.95336633 -7.318110721 -9.145162976e-19)
(81.1337896 -7.434812231 -2.875302652e-21)
(81.25604182 -7.398510479 -1.237276557e-22)
(80.96647202 -7.460952851 -2.068885004e-18)
(85.97784916 -8.350066436 0)
(85.77192717 -8.296141089 2.683971958e-18)
(86.23852163 -8.083797477 6.373202124e-19)
(86.73492573 -8.241197088 -1.275586759e-18)
(86.23521678 -8.401293332 0)
(86.04788973 -8.365307755 -1.377705131e-18)
(84.64941716 -7.963212784 -1.506140182e-18)
(84.33870654 -7.828805955 -1.484616104e-18)
(84.78428553 -7.535885368 2.024638508e-18)
(83.48184988 -8.160606393 3.733017796e-18)
(83.58786915 -8.196234338 -1.865254571e-18)
(82.80733691 -7.808620884 -1.88509219e-18)
(82.90865727 -7.90437853 0)
(83.97940667 -8.368089499 2.824463217e-17)
(83.69217983 -8.2285591 -1.860407889e-18)
(83.79425714 -8.257609637 1.859242807e-18)
(85.46450777 -7.824045255 -1.451520534e-21)
(85.05506873 -8.108160534 0)
(84.75248384 -8.002645343 1.512055288e-18)
(86.93016688 -8.9453605 1.387515307e-18)
(87.41825882 -8.959322112 6.641168789e-19)
(87.4519386 -9.011563936 1.33954369e-18)
(86.57728612 -9.440544727 7.329745199e-19)
(87.57827331 -9.505101723 0)
(87.62264259 -9.547681636 5.630305718e-22)
(87.51955819 -9.410074883 3.120223435e-21)
(87.53723124 -9.462160078 2.420050307e-18)
(86.53399688 -9.396435433 -2.150161473e-18)
(87.4639099 -10.23996118 -1.347121101e-18)
(87.49480911 -10.26793426 0)
(86.80673122 -9.636427366 9.91103863e-22)
(87.78611057 -9.680009479 -1.267321712e-18)
(87.844571 -9.710378762 1.274789149e-18)
(87.66984249 -9.594947337 3.897574978e-22)
(87.72503794 -9.641636232 -1.262931529e-18)
(86.73067904 -9.599955736 7.332581844e-19)
(87.53696289 -10.20152717 -1.175326467e-18)
(87.45730943 -10.2182341 1.289553877e-18)
(88.08781842 -10.14466234 1.370460885e-18)
(87.67307002 -10.17224184 -5.216067139e-19)
(86.73868535 -10.08776511 0)
(77.76463089 -8.860463671 1.210574885e-18)
(78.61790417 -8.491853682 3.271287848e-17)
(45.02382827 3.621369166 0)
(46.82630487 -0.3940257759 0)
(54.73754683 -9.689707652 0)
(57.1583157 -10.5487808 0)
(49.39761074 -3.919264068 0)
(52.0799842 -7.955405487 0)
(49.3333583 -8.776348379 0)
(73.64687156 -10.30720785 2.349438596e-18)
(75.47038449 -9.716696571 2.470805452e-18)
(78.69678171 -8.143594798 -1.125870785e-20)
(78.98032339 -8.088462828 -1.82387715e-18)
(78.84683973 -8.414724432 -1.295011275e-17)
(77.93550621 -8.613919406 -2.152888679e-18)
(78.03819775 -8.261577109 1.015817809e-18)
(78.37609785 -8.191775155 2.019044572e-18)
(65.93439515 -11.5615342 -5.93992194e-18)
(64.38872962 -11.45820142 3.475568186e-19)
(64.77158199 -9.201199186 -4.371426533e-19)
(59.53487083 -11.08097082 0)
(61.56768271 -11.65315826 0)
(69.09047381 -10.08948128 0)
(68.82209903 -11.27209552 0)
(67.44586502 -11.4665189 3.12414749e-18)
(82.44827812 -7.36785808 7.102083834e-19)
(82.53086081 -7.369718999 -4.212527986e-21)
(82.17572808 -7.376984662 0)
(81.88892104 -7.409957354 0)
(82.24873464 -7.35273419 1.863506774e-18)
(82.35537612 -7.364039228 9.404941913e-19)
(82.60675037 -7.524993137 0)
(82.65281179 -7.569230239 1.880969927e-18)
(82.501832 -7.461259556 -2.788843151e-18)
(82.55666076 -7.489989778 9.347193557e-19)
(80.50561136 -7.641160621 4.426026645e-21)
(80.67388507 -7.586118545 1.779080283e-18)
(80.41322099 -7.701483088 1.041506133e-18)
(79.88195872 -7.937489363 1.041455214e-18)
(80.12313304 -7.775591054 0)
(80.32378889 -7.706262344 -3.527533987e-18)
(81.61802416 -7.362235471 9.041946327e-19)
(81.74338379 -7.346300527 -4.669810306e-21)
(81.43547939 -7.405654251 1.030714372e-18)
(81.06237686 -7.443500287 -1.032540629e-18)
(81.37194567 -7.379012812 1.807737672e-18)
(81.49182915 -7.370284052 0)
(85.48876273 -8.354706714 -1.426314891e-18)
(84.82523317 -8.355522682 8.408801401e-19)
(84.77820577 -8.338569977 0)
(84.95977761 -8.40074258 -1.681800191e-18)
(84.88585282 -8.380342947 -2.526448919e-18)
(85.55338307 -8.375813595 1.429692172e-18)
(85.22884198 -8.338816084 1.376235925e-18)
(84.61203994 -8.375294851 4.638868487e-21)
(84.54221382 -8.395119729 -3.129375629e-18)
(84.73672771 -8.334883488 1.672563821e-18)
(84.68457275 -8.349533218 -1.660150564e-18)
(85.30633557 -8.333266591 2.705839673e-21)
(85.96371832 -8.456183177 -2.973580675e-18)
(85.27885779 -8.425337154 8.416766228e-19)
(85.24988114 -8.406242113 -4.96760396e-22)
(85.35635249 -8.489672725 -1.691824473e-18)
(85.31248168 -8.454039246 -1.689856793e-18)
(86.00809316 -8.48248308 2.994055113e-18)
(85.76415062 -8.41608903 0)
(85.112847 -8.410221025 8.408984687e-19)
(85.03878753 -8.409759858 -4.196150483e-18)
(85.21846394 -8.398602414 8.409574001e-19)
(85.17400377 -8.402840401 0)
(85.82529784 -8.419637154 0)
(83.26494445 -8.077822213 -2.803627924e-18)
(83.37386007 -8.121840329 2.804742058e-18)
(84.22078956 -7.972466554 7.775706678e-19)
(83.90126004 -8.059708058 -1.634435094e-18)
(83.79252242 -8.014730369 1.62864558e-18)
(84.11771251 -8.138841924 0)
(84.00997701 -8.100792368 -1.64049276e-18)
(84.3269882 -8.016078444 -7.86092696e-19)
(83.03350622 -7.972877585 0)
(83.15383913 -8.027622966 -1.877214448e-18)
(84.0682123 -8.337082128 -4.866287851e-19)
(84.14381881 -8.350102369 1.695930216e-18)
(85.02502489 -8.268782275 1.528380895e-18)
(84.7093957 -8.340660131 -2.520803022e-18)
(84.61455967 -8.303915078 -8.52765485e-19)
(84.52229461 -8.400144651 7.249149839e-18)
(84.53607162 -8.37950131 -1.538227028e-17)
(85.05770322 -8.286473618 0)
(84.64150463 -8.129670864 3.190373238e-18)
(84.32900327 -8.207282164 -3.321499854e-18)
(84.22419545 -8.174344241 1.653942762e-18)
(84.53135964 -8.270655487 0)
(84.4311805 -8.239269309 0)
(84.74379096 -8.163375093 7.997733654e-19)
(83.8926231 -8.286533351 0)
(83.98987767 -8.312368107 0)
(87.10955085 -9.162317373 -1.431751557e-18)
(87.59199845 -9.157047607 2.067327887e-18)
(87.63614351 -9.197501259 6.898290138e-19)
(87.49377956 -9.065285406 -6.741834209e-19)
(87.54257869 -9.114259614 -6.813063175e-19)
(87.05559141 -9.122112938 -7.116594432e-19)
(86.18922713 -9.084105607 7.997669092e-19)
(86.25586115 -9.118954526 0)
(86.04808752 -8.818068842 -1.580295681e-18)
(86.05029694 -8.874455786 0)
(86.30768787 -9.184873616 -1.952513176e-18)
(85.96206144 -9.203795609 2.890408156e-17)
(86.77403655 -9.275122723 -8.871491941e-18)
(87.61242807 -9.304485524 -1.24303363e-18)
(87.55039039 -9.349280988 1.357095387e-21)
(87.66281393 -9.236799078 -6.887598859e-19)
(87.68417984 -9.288347575 3.302542352e-19)
(87.17571594 -9.275701481 0)
(85.98366854 -8.654046781 4.704833875e-18)
(85.29565655 -8.603351538 1.536614446e-18)
(85.5648888 -8.598564459 -3.100005792e-18)
(85.88692376 -8.667702395 -5.334167951e-18)
(86.16728826 -8.569972066 2.294332828e-18)
(85.46828137 -8.545521563 -1.698590495e-18)
(85.41127037 -8.521326577 0)
(85.54284641 -8.58787283 -8.924711717e-19)
(85.52011308 -8.565371746 8.606753789e-19)
(86.21977752 -8.594760173 -7.756154258e-19)
(86.01096748 -8.715006423 1.562499993e-18)
(86.03017009 -8.728955871 1.566021573e-18)
(85.88981966 -8.677027774 -1.540262354e-18)
(85.92407124 -8.684061797 0)
(87.01132824 -9.722141985 0)
(87.97538098 -9.79244012 -1.306555253e-18)
(88.00628509 -9.824721749 0)
(87.89528506 -9.737101805 -1.289390945e-18)
(87.93844968 -9.76377996 -2.593620148e-18)
(86.97597564 -9.701589901 1.481368414e-18)
(87.04884807 -9.884547607 2.295494987e-18)
(88.06358265 -9.977429557 -1.377781305e-18)
(88.05845381 -10.05822881 -6.96637652e-19)
(88.0305637 -9.863295772 6.655368498e-19)
(88.04768278 -9.913516402 6.765160845e-19)
(87.05194664 -9.819021502 -7.532688709e-19)
(99.62908856 1.028716923 -1.504741563e-20)
(99.551802 1.385279845 7.078716113e-21)
(99.84946198 0.848524692 7.079044738e-21)
(99.52189994 1.520240698 -2.118831952e-20)
(99.46902783 1.969097848 -6.491059021e-21)
(99.82674802 1.187056266 -3.846420045e-22)
(99.45223376 2.129341616 0)
(99.47137781 2.61431619 -1.989095315e-20)
(99.83391048 1.558956934 4.788646115e-21)
(99.48188394 2.772717721 2.140075005e-20)
(99.59757748 3.207281036 5.587415385e-20)
(99.88873247 1.886347091 -1.746923624e-21)
(99.63937232 3.328164126 -5.586071163e-20)
(99.12741432 1.441509667 -1.610912843e-20)
(98.92138117 1.989560696 -1.562030126e-20)
(99.41924195 1.550383847 0)
(98.85616597 2.199561028 -5.698007703e-21)
(98.70743202 2.901792692 6.718565206e-21)
(99.30890932 2.218514132 1.598133313e-21)
(98.67510898 3.160776452 -2.319289868e-19)
(98.66383561 3.994879527 -1.006862166e-19)
(99.30849496 2.962169772 8.860728716e-20)
(98.69459062 4.281744505 9.26947043e-20)
(98.93355726 5.106139636 0)
(99.46788054 3.662867265 0)
(99.06325737 5.34659365 -5.977229122e-20)
(98.4383941 1.654050982 5.318538176e-19)
(98.05261342 2.349979723 -8.34404716e-19)
(98.72330147 2.109407739 -4.817868415e-20)
(97.92622036 2.624729224 -5.642549875e-19)
(97.57718307 3.60102918 5.374519831e-19)
(98.46165367 3.104299231 -2.367994431e-19)
(97.48111795 3.980675335 0)
(97.31886696 5.282452847 -5.546439888e-19)
(98.38683903 4.331891629 -2.108849154e-19)
(97.32831569 5.763258869 0)
(97.66596869 7.260622033 3.364506245e-19)
(98.69079386 5.618308106 -4.455498481e-19)
(97.908048 7.736108273 -4.397693919e-20)
(97.65888325 1.558330366 -2.239833865e-19)
(97.01646847 2.31257036 0)
(97.80651648 2.379874033 5.501255947e-19)
(96.78792714 2.625304172 0)
(96.06810445 3.811217717 1.89028582e-18)
(97.23249964 3.717115588 -5.830851529e-19)
(95.82553461 4.307880343 -1.256234708e-18)
(95.18716705 6.158988812 -1.06450753e-18)
(96.86948761 5.562535092 1.027440604e-18)
(95.04043468 6.913970064 9.19726515e-19)
(95.11389134 9.620773799 1.437511788e-18)
(97.1885154 7.84139627 4.045294113e-19)
(95.4269295 10.61987552 -2.283052557e-18)
(96.91804837 1.101760884 0)
(95.96526635 1.795879579 -1.063717465e-18)
(96.7451671 2.233711231 0)
(95.60395189 2.09244332 1.457790615e-18)
(94.35091054 3.251171941 0)
(95.64330841 3.748660793 -1.355092985e-18)
(93.8660825 3.75420987 -3.85201746e-19)
(92.19417878 5.806212216 0)
(94.50697672 6.220942767 1.290661065e-18)
(91.57723643 6.756986871 -7.662925758e-19)
(89.85798271 11.13159901 2.30755622e-18)
(94.12718502 10.17076075 -2.197205638e-18)
(89.58473619 13.37656847 -1.510275339e-18)
(96.36952539 0.3043969076 0)
(95.15530536 0.7667314839 -7.952984244e-19)
(95.72854834 1.583196195 2.251124353e-18)
(94.67912104 0.9674757522 -1.856235826e-20)
(92.94135658 1.740575962 0)
(93.94417036 2.960588154 -8.10776031e-19)
(92.22232994 2.069298824 0)
(89.38963206 3.370815818 9.339364871e-19)
(91.39588372 5.415800428 0)
(88.10836267 3.949434002 1.963827658e-18)
(81.18439118 6.42508064 0)
(87.94685945 10.88564258 9.092095619e-19)
(83.98545569 11.66659477 -2.043606308e-18)
(81.79232015 17.79307075 1.959731762e-18)
(88.03905882 17.33479989 -1.420405511e-18)
(96.14881732 -0.7175553753 -1.583814844e-21)
(94.80888851 -0.5866215606 -4.12475585e-19)
(95.01878158 0.4477699186 3.943367853e-19)
(94.28652939 -0.5268697284 0)
(92.40030331 -0.3382202681 -1.368021402e-18)
(92.71014146 1.247038605 1.321500381e-18)
(91.62976564 -0.2844277412 -9.591467555e-19)
(88.69435224 -0.2813567048 -1.0070127e-18)
(88.97687589 2.461535612 0)
(87.37004358 1.713955587 0)
(85.75429489 1.897807364 -2.185992763e-18)
(86.00684183 3.266462417 0)
(78.84258132 3.759561961 2.675885941e-18)
(76.8705916 3.761568054 -1.35507327e-18)
(76.97669282 5.722598861 -1.360958669e-18)
(96.31301528 -1.793151285 -1.39490897e-18)
(95.01162349 -1.967154036 -1.665858334e-18)
(94.80885624 -0.9407132697 3.741120469e-18)
(94.51400482 -2.030287255 0)
(92.77496197 -2.298345448 4.561056112e-19)
(92.42250012 -0.8554490211 -4.327163269e-19)
(92.09603994 -2.435295013 1.001922475e-18)
(89.69379969 -3.115612067 1.907232209e-18)
(88.84966896 -1.095183748 4.212770309e-20)
(88.00423355 -2.129077956 9.86520199e-19)
(86.85824555 -2.513904505 -2.061592362e-18)
(86.41339943 -1.629491243 -5.643857062e-19)
(82.87144976 -3.915340305 4.531720985e-18)
(82.32619802 -4.54051087 8.554046122e-19)
(81.67227556 -4.108692751 1.176493148e-18)
(96.80772213 -2.774091639 1.457490902e-18)
(95.62869629 -3.176328857 -1.620414755e-18)
(95.13110158 -2.290077959 2.100329491e-18)