/*--------------------------------*- C++ -*----------------------------------*\
| =========                 |                                                 |
| \\      /  F ield         | OpenFOAM: The Open Source CFD Toolbox           |
|  \\    /   O peration     | Version:  v2012                                 |
|   \\  /    A nd           | Website:  www.openfoam.com                      |
|    \\/     M anipulation  |                                                 |
\*---------------------------------------------------------------------------*/
FoamFile
{
    version     2.0;
    format      ascii;
    class       volScalarField;
    location    "0.72";
    object      omega;
}
// * * * * * * * * * * * * * * * * * * * * * * * * * * * * * * * * * * * * * //

dimensions      [0 0 -1 0 0 0 0];


internalField   nonuniform List<scalar> 
3259
(
31.99496974
31.99543046
31.99178694
31.98497989
31.97843204
31.97290686
31.97040143
31.96819734
31.93465424
31.9333568
31.93215515
31.93113718
31.98718396
31.99227087
31.97541415
31.94372611
31.91179997
31.88673987
31.8552291
31.84415338
31.80608554
31.80217753
31.79872447
31.79567859
32.02356046
32.04068054
32.00082057
31.93470908
31.86273439
31.80618647
31.75110863
31.7268103
31.68191086
31.67438995
31.66833302
31.66329413
32.24126586
32.25454694
32.14645646
32.01065543
31.87122848
31.76031521
31.66826858
31.62173337
31.56299066
31.55045168
31.54099937
31.53363248
33.00897586
32.96436586
32.61942628
32.28336698
31.99271802
31.77352707
31.61681822
31.53324585
31.45167891
31.43035108
31.41640763
31.40636623
35.89698039
35.38530115
33.95241766
32.97218102
32.31541778
31.87994084
31.60333744
31.46472036
31.34883979
31.31339556
31.29322313
31.27987662
50.0447882
46.40446999
37.51857625
34.4435196
32.94860564
32.12182819
31.62989162
31.41742639
31.25392203
31.19997306
31.17135386
31.15404577
81.06996641
45.66578332
37.04082367
33.96815597
32.51534131
31.71467986
31.38836269
31.16782445
31.09036665
31.05090339
31.02888575
159.2500091
57.51802561
40.58544362
35.30034367
33.02819146
31.8422163
31.37645034
31.09014329
30.98617596
30.93372188
30.90633181
199.5211475
67.84425726
44.20813898
36.72269301
33.57675185
31.99281761
31.37882134
31.0212205
30.88895477
30.82220017
30.78873679
199.0398296
73.88373352
47.10509273
37.96624675
34.09576885
32.14019644
31.38819178
30.96016493
30.80079314
30.71917505
30.67913762
183.701838
76.23126763
48.93353872
38.85724441
34.49635229
32.26189294
31.39943245
30.90684648
30.72115223
30.62558616
30.5788471
189.4299012
92.20506706
242.1689422
196.7844315
237.4344646
243.9519856
213.1693279
234.4006948
209.8458806
49.43983806
84.11136998
45.92600681
613.9676896
202.6582757
150.3553426
63.39568701
50.45011727
2130.830999
1507.104466
197.2328828
78.58561085
67.64750351
1160.072381
1632.195248
200.4555439
86.98356816
81.31774225
631.595591
851.9005892
2635.326078
405.271139
471.0607864
1467.225247
649.2106578
147.7531673
516.377033
1016.229813
1653.120989
2131.677826
222.2913066
1463.637954
1252.129062
1050.646795
1459.977018
219.3787776
892.9222441
1133.410628
243.1636803
846.205824
658.3831021
1237.515685
879.5585093
244.4417564
485.3931952
607.0091009
3584.058712
3991.272565
398.4131157
2326.609616
3799.742773
671.1043215
6426.872427
186.0912711
89.6883134
88.05629647
6168.580413
916.7757948
1020.46361
168.0434777
455.4514419
136.1308875
1041.978154
1343.309865
222.0868292
499.8545714
425.8682483
635.6914551
513.9028697
225.499708
83.48288099
175.6952883
79.57121097
85.43597747
5359.519786
426.8897435
3750.844943
491.0048458
2738.055065
383.5922125
1729.427956
1706.234978
1352.831573
1385.882992
2624.936128
5468.136796
714.2724311
3193.000506
1703.613214
6178.074091
3701.36345
746.5310361
770.0728317
873.6204677
5619.406
1026.652388
971.3270761
1765.175223
1785.144202
1339.044924
441.2832619
430.2427246
443.0425171
443.0257112
1328.095956
1238.523483
391.6605458
358.1621299
424.5449383
401.5488548
1260.85792
951.0659457
6395.207581
969.6394573
1606.246831
1162.034612
546.2018629
1427.212876
2424.593538
6307.529405
738.5690671
4556.368648
2481.089441
3305.341908
1336.642106
3734.20648
4944.29838
169.637078
525.7009654
155.4370803
183.7576929
2006.127505
5064.495869
5214.294563
1607.551358
1244.844521
3596.162146
2580.723475
6076.846924
5941.986296
1553.02126
1272.508418
4646.699328
5063.083221
698.2085522
286.2062106
239.0169671
344.5199856
302.3421743
731.8531533
1704.479332
6021.000509
6088.929566
2020.696056
2430.905657
2220.088143
1062.706343
759.7141083
393.2384423
409.6036632
1094.794003
433.2247659
441.5283907
415.3267507
428.9806707
1072.423513
528.1171184
1117.568686
902.930916
5451.851898
2311.831639
2819.082547
2097.453282
6390.88267
6489.433562
1642.769475
2187.242786
6355.771354
1667.526785
679.7271756
1642.632902
4928.841954
3611.355569
1180.663004
5623.364653
6432.677438
5556.236745
1544.261993
935.560336
2550.465096
1704.807458
839.5422892
520.6737063
1547.608949
5386.884844
6908.421904
1906.345074
1630.842263
5269.853843
5395.05295
3972.260819
3714.254078
1276.273158
6209.122607
6106.231261
4596.978718
6035.73137
6065.960237
1509.338167
6063.34986
4082.317704
3810.476274
4263.748063
2364.181608
1084.048931
1174.402332
4805.479009
1379.728496
1568.842867
1210.968575
1323.284432
4536.262565
4310.718221
1259.119462
1503.541619
3318.960199
3450.654207
1205.835143
4902.747288
5019.971665
6331.679992
3423.081487
2841.344559
4886.79004
3378.48862
811.4904028
2363.225884
3172.503947
5869.769945
5967.012004
1720.846304
1936.73206
6153.420015
5839.612253
2072.298182
2444.933461
1637.57507
1923.084735
6656.143862
3917.645572
4314.711582
2622.726498
3779.303423
6502.0463
1708.364908
6443.205849
5613.292551
6421.260959
1836.486015
6263.058816
74.7976945
46.7510846
38.78671093
6357.366457
6331.988257
89.73665352
6575.662785
415.2486726
345.9715973
201.6809966
430.9936538
284.5699732
688.6421467
2512.007068
411.0133518
468.7702522
60.4026629
72.52529824
151.684012
534.1879655
1090.904623
1624.581776
1071.315642
1199.339973
3846.322748
861.6854468
756.8936199
440.6522952
1770.209054
2271.798802
761.979049
5086.415595
4460.569415
6215.513662
5649.197517
1044.081611
4091.355626
6227.717257
4311.388145
4698.973817
6110.961496
1987.482735
1582.458723
929.2432474
222.4538315
174.5424732
323.3892249
1139.865509
3137.537488
2210.73091
112.5025253
146.9962317
405.635279
4346.849619
2823.167536
2167.390935
5858.970424
4465.135917
2893.174859
4919.798958
4538.388873
6736.292317
6400.737096
4873.320477
982.4358926
1059.48892
2164.559206
6333.893808
3663.061115
4047.637962
5006.774177
3360.847917
3807.499432
6379.52001
6315.994553
4231.115367
4467.764685
6353.235771
6379.103646
6595.372814
1040.828575
2134.608482
1772.426872
6270.880458
6241.459835
6167.231591
5019.6249
4708.885565
3006.932466
1511.459035
2228.142493
1876.04448
4206.98918
6323.818778
5539.989771
6406.339065
6161.656505
4647.794581
258.2040722
373.2368277
1336.115726
5203.061739
5095.478415
5327.307553
5297.175472
5147.354181
3342.451638
3323.249273
3355.920218
3344.480645
5140.862635
6108.810695
3401.123989
3429.88285
3254.416612
3354.451586
6205.893461
4832.241197
3048.020348
2745.315775
3301.377422
3219.754502
4944.428186
6001.388701
3501.82513
3528.930678
3462.193131
3478.368888
6048.870375
5461.550815
5358.766175
5573.250119
5327.666066
6304.830994
6516.602353
6162.444045
4938.332682
6342.873094
3344.010772
4974.986697
3451.310086
4423.639928
3402.476544
1415.893649
4582.119074
3415.336348
6448.771467
6694.067968
6317.444989
5031.661785
5627.744631
1552.861491
6259.461967
6476.847996
6178.019028
4125.091126
2920.47382
4092.34672
2153.69446
3165.640288
4317.566766
4738.727072
4323.742237
5577.182302
3537.551353
3364.494682
4829.645416
3487.421672
5164.217288
5297.69657
3367.926381
3359.666443
3388.530569
3363.192714
5328.133339
3874.842574
2254.556598
2296.704368
6143.067458
6134.566738
5329.907371
6472.493294
6267.381796
6171.10155
6147.475159
6388.439513
5125.927276
2710.169489
3030.327047
2359.883231
2481.742229
4403.046592
6418.497822
5478.366296
3322.719289
6726.333
6446.599181
6426.707512
4461.219077
6421.792072
6212.901055
2787.168086
3163.409759
5511.993394
3315.974791
2236.333598
2202.482806
2460.608406
2379.669774
3499.564546
5239.412341
4916.35951
3198.886711
4826.45515
5053.942289
4521.089619
4765.283081
3144.732147
4774.566354
4697.591481
6117.715633
4485.507772
5931.590052
3599.019533
3622.743217
3546.857385
3569.181873
5918.89884
5865.386923
3997.692523
4636.265315
3670.999125
3765.114497
5858.979343
6292.863275
6159.442976
6451.84939
4755.506955
5469.000666
4060.051126
6257.813672
6329.328014
6248.092123
6258.700956
4142.791024
2939.854233
5443.061713
4687.578553
6134.710752
6275.280273
3422.016285
6208.64732
4344.888728
4585.853098
3408.749597
3945.23178
6301.803409
6417.841675
6230.501749
4930.606584
5517.618059
6726.032255
6081.064623
31.99876536
31.97999566
32.00573195
32.01917208
31.99304674
32.01727111
31.9991959
31.98321626
31.98868437
31.94574932
31.9533856
31.93163723
31.88460817
31.92029355
31.87139948
31.83324014
31.89273959
32.1520203
32.01406689
32.16750321
32.17668507
32.0416402
32.16135481
32.12354786
32.01308397
32.09791658
32.00950699
31.95130694
31.97996845
31.88964498
31.87813164
31.86250406
31.78751035
31.81780247
32.70689911
32.22122734
32.72639995
32.73321593
32.25173995
32.65758185
32.54067712
32.17416916
32.47108383
32.25978867
32.0457315
32.19225716
32.00333072
31.90494156
31.94692038
31.80338458
31.78440458
34.60461144
32.95456693
34.72199008
34.66799674
32.95200328
34.31712968
33.75559463
32.69956988
33.52439688
32.92634678
32.36696028
32.75334203
32.32673065
32.05864681
32.20799594
31.92522347
31.82130744
46.35629424
35.6755144
46.66740812
43.62691618
35.50127108
41.00309064
37.27711809
34.24466961
36.3409683
34.44029129
33.18459971
33.99393945
33.00426349
32.45273342
32.75496787
32.1925209
31.97433022
70.80880847
67.61544849
49.99264308
53.5847093
46.49596112
43.15423474
43.16645729
37.40125645
35.00295008
36.31526878
34.15433291
33.23977464
33.67019049
32.64566771
32.28579301
111.2544105
76.45167642
62.82283491
54.52551247
41.84758724
38.36703567
39.72891451
35.78838101
34.52186471
34.96048881
33.26915631
32.7851731
180.4898407
108.2416119
96.84798134
65.66325176
46.63284931
43.01338634
43.44881706
37.58731137
36.20944505
36.38592124
33.97354322
33.44006067
202.5909466
125.3313094
120.8499348
72.77855415
50.44643122
47.65213441
46.52048838
39.21571287
38.00244308
37.69062469
34.6387265
34.13764035
194.2437605
128.2483494
128.3422725
75.91019985
52.90729581
51.1770001
48.60478653
40.41008108
39.5380338
38.67964159
35.17622352
34.7863968
177.7746348
131.7637135
133.086616
53.29039425
40.62653381
35.27804206
174.1317514
243.3674365
275.9088412
106.6626196
128.0108709
106.5496596
239.1070739
355.9359493
358.2054408
286.108323
312.4924236
210.3915785
239.2949758
327.5307858
323.8111128
357.9502117
354.6358978
245.0489616
215.8599891
255.5492355
250.2906549
293.0164796
286.3903186
231.6918597
244.7485724
240.042491
207.2518348
2064.238908
1686.558731
1837.640144
70.88421575
2819.994585
2228.460815
73.16758473
79.98633736
94.65544965
48.35215715
65.32606821
56.84847621
583.9337884
680.9652943
732.7560979
267.9120911
322.005177
257.7042106
93.52023873
79.53614196
121.0724224
58.94622612
70.27635665
76.68718328
57.74972957
63.90280324
54.6248197
2116.880743
3282.600648
3287.91467
2191.129652
2231.954702
1546.524528
118.9344876
111.0390748
185.8715712
75.32518895
93.01433668
97.16915639
82.68472574
88.22743356
71.69944832
1188.174985
1465.697198
1419.330046
2203.684421
2181.039646
1611.742955
128.0715604
126.306195
202.493361
85.48842335
105.0611096
106.4981582
100.4679563
103.1573152
83.65301751
656.6342268
864.7157907
824.2316248
1261.336938
1163.222134
815.6280023
1673.170437
1832.012236
2982.280799
430.8553323
724.348419
641.3328063
561.2079769
542.3507196
461.6595947
1410.946879
2072.482435
2150.062235
809.2491009
864.9035623
681.5221567
195.4365108
231.1593029
164.3607312
548.8287595
409.8141565
374.6225666
595.1655971
566.1494997
889.4786165
1670.310515
2243.270924
2227.207372
3273.138963
3250.922704
2118.975514
343.5806499
353.8172447
224.0549458
1429.909733
710.3009213
728.7284296
751.1506423
759.7048769
1288.866981
1142.401439
645.8322958
619.8275543
728.1752058
727.0942637
1395.301134
211.951863
320.0414005
338.8236868
933.7378383
1439.35848
1299.849496
1379.287966
1346.682754
1108.898894
341.5028936
331.9443639
241.8588942
817.6955322
614.9663355
630.0083765
369.809009
386.6562762
730.1915038
1186.280551
730.2400568
742.2238521
645.2947822
660.819682
993.4175757
244.9338976
352.3006145
344.9454397
497.2425304
605.9154993
583.3496833
787.7088832
752.6173903
585.3975148
615.4794803
1528.070689
932.9126569
1807.152404
1082.129784
134.7990376
127.9663211
192.074435
89.34431668
107.8265086
107.6486114
107.2847235
107.8040092
88.87458418
959.9019222
1474.887324
1245.573503
1148.084519
1122.18753
989.8578633
273.8754537
159.1263676
119.8659808
342.7423956
311.1922986
421.220741
119.2535369
147.1743832
182.093912
1073.949838
1248.206923
1200.984807
1826.568596
1688.159318
1287.136495
267.7379446
261.7475594
219.2972393
464.7517291
332.0028594
323.530631
310.5715739
320.3448462
453.5416256
576.8932574
348.078976
364.2954666
327.0876261
343.2313386
558.8710568
228.3238317
280.1638983
273.5501224
129.7601982
146.2087788
169.9709022
200.6278363
80.0392307
117.821522
98.7688499
137.4570051
129.3862432
82.87535064
637.8830658
995.8582865
521.1766828
1254.986619
476.7432969
347.5779475
1862.185817
1589.282883
2640.690599
298.5359731
441.091794
582.918593
2378.076035
2462.563308
1768.967877
1678.859213
2337.548299
2378.221124
1704.050468
1670.439457
1328.591685
1420.114802
1808.912948
1747.635063
950.478784
905.9132439
685.1594515
2792.998216
1791.660846
1935.87455
1308.434787
1356.09867
1816.738594
2114.737384
2283.838074
4117.212717
778.0008789
1127.835382
1078.444316
802.3766773
967.2663736
921.4424365
1182.036538
1084.475751
838.4154648
1463.031524
1528.853773
1083.992482
914.0025639
1294.08058
1372.63683
2334.650993
2320.455978
1750.567514
1814.008226
2407.408565
2359.754654
771.843718
773.9870609
1401.01998
438.5652593
567.9017243
570.1917907
558.9455152
564.5778929
434.940853
443.7002309
568.5108085
565.6867982
570.4813934
569.9231986
443.894283
1299.998404
765.4874552
769.631329
690.2988343
667.1949975
1168.090592
381.6342302
490.7637761
502.5918024
457.8078853
472.7895578
369.7618152
417.7734529
541.4144484
551.3106067
518.7633645
527.3745845
410.0317988
1356.511223
729.9942802
708.1418289
1686.109699
1502.824004
855.4550179
994.791232
1189.03554
1162.505152
1359.970125
960.7620395
966.7519947
874.9908324
915.73342
1299.231549
564.3545992
718.97738
687.9525466
1510.358147
2228.911003
2010.670633
4328.438852
3893.459153
2212.022645
877.1315432
2755.17128
4491.052933
4132.296929
161.502633
252.9901264
318.8420188
206.0110006
140.6107712
481.9594811
244.3157896
378.7939503
458.2134825
685.8495752
172.879388
270.9042942
220.5863392
323.8960138
308.1957076
181.0765934
3070.976589
3225.894052
2078.712208
1575.069493
2253.057938
2286.4446
1564.433819
1516.234477
1217.45848
3273.341836
2009.292307
2107.012779
1794.743048
1893.448817
2856.953767
1584.471658
2144.363564
2091.881067
1822.303369
1966.331075
1347.98323
476.1483394
437.4111674
616.0603077
271.2654292
334.4183587
355.9360655
289.4923404
312.6073787
254.640712
331.5214821
420.1235333
437.9787806
378.522988
398.5745148
316.405852
846.9191866
538.2280215
507.0096191
2277.270986
2261.904725
1688.617377
2086.816799
3175.583627
3002.003257
2347.61928
1672.970605
1722.473158
1588.585203
1628.02917
2281.755655
1086.043471
1315.021622
1286.740335
585.489314
600.0550258
786.7330577
398.3905983
486.7045888
477.9471945
504.4369445
495.8303094
404.5688532
702.9609537
717.9008186
1162.354162
436.3772536
550.9396064
544.3497085
561.7835102
556.8661821
439.5501931
419.9284974
521.4738455
513.2585277
537.0911148
529.6468638
425.0334127
1022.693282
674.448902
689.7112069
658.490247
631.6893265
513.2431434
1051.162289
798.2207359
834.7030003
729.6063511
763.1657298
944.6900022
1336.992919
2114.525835
3563.05639
1775.173161
2868.888634
2557.047931
3645.940813
3216.044151
1959.313137
885.2864806
4591.212752
2627.862461
2959.633919
2099.67403
2349.014924
4137.880601
1221.169673
1569.768639
1465.498377
1271.27936
1924.489129
2408.284046
1381.801234
1745.23822
1147.6497
2684.675588
3160.392304
2017.191342
684.7867433
973.5934164
1222.248274
677.4236254
829.7337044
614.4021714
1924.287375
1220.180474
1039.504044
1826.592246
2529.560568
2780.306709
2299.925636
2331.371323
1659.448086
2170.915477
2216.740507
3827.246069
1299.590326
1638.177864
1604.378362
2001.219988
1897.918918
1465.434063
1594.637993
1678.946021
2542.357475
1112.463418
1299.390455
1256.090277
1416.995619
1354.627915
1142.485082
1433.748422
1942.471631
1811.454961
2260.926359
2109.003882
1505.238232
1241.473597
1561.883297
1489.417456
1709.688055
1635.193097
1288.349665
4286.12947
2424.10035
2572.907737
2678.258097
3007.64984
4737.343539
1317.700851
1820.213759
1664.832374
2239.1429
2005.782921
1418.009162
1139.081127
1612.400343
1707.070124
1109.158657
1183.131532
855.2397978
2642.776404
1758.082234
1646.581845
2059.034922
1961.370212
3014.33669
1735.034483
2305.404985
2292.596003
2723.823547
2512.109798
1863.862727
2212.058471
3979.659332
3598.535935
4391.679444
4162.267197
2325.558157
1706.344942
2530.1054
2394.38961
3094.163399
2735.880414
1799.406065
2673.645152
2458.490395
1610.275129
2003.215347
3386.902221
2963.162952
60.34330861
53.44391777
56.41437145
43.50732393
46.99648644
52.2333658
40.43607057
43.57147321
40.9710781
107.3123675
106.710521
89.66903558
399.9255843
291.633254
300.0958827
275.0519003
282.8660258
358.378817
390.4202973
620.6143156
719.3614898
363.8091972
459.0154361
388.3404817
1672.946874
654.3516959
590.1628179
1129.187417
1976.890481
3918.177044
451.9094471
729.9865901
599.6947621
823.9772318
808.9745013
468.7845617
89.80515081
78.86053425
68.72243367
111.3841735
91.9981586
100.6405434
577.5465617
623.9099367
556.4072039
1286.018053
878.9292984
767.6491134
1076.626697
950.7066956
1392.951537
1112.005471
1334.503646
1264.310925
1533.022041
1423.255471
1153.28698
3396.594623
2056.101401
2341.34935
826.0239784
669.0072704
698.1339235
615.810153
640.8108443
789.8820636
2004.107981
1299.239962
1179.652553
1505.389325
1408.876215
2077.428302
723.579508
951.9113565
1009.503534
1197.718506
1834.69886
1348.546915
1409.825315
1225.007013
1271.045688
1704.12176
974.3053229
1068.785341
1070.99604
206.3285957
245.1380993
268.1168946
358.3051164
276.6563026
251.1242267
1379.519178
1310.650946
1103.627791
2809.499066
1747.589555
1894.392887
1512.975548
1612.686304
2479.977289
120.869682
136.9725225
128.0539139
178.7039309
162.2007656
129.756752
269.6037839
196.5384273
259.2414739
1011.180918
1135.358296
1114.117041
1210.53532
1177.070645
1031.477044
1979.286295
1433.410314
1505.411009
1254.264697
1224.866839
1016.203205
2020.850312
1488.386487
1539.225596
1382.647884
1427.78928
1883.202033
279.7326492
363.7647002
317.2101931
497.3701557
427.0451848
323.7823128
938.8268961
583.4528746
785.6130494
31.98715748
31.99151818
31.99553415
31.99068567
31.98524142
31.99440426
31.97734942
31.96748089
31.98853354
31.95696562
31.94633278
31.98158291
31.936747
31.92869007
31.9756148
31.92304145
31.91616955
31.97175382
31.91174867
31.90867515
31.96926234
31.98899249
31.99175236
31.9886016
31.99617304
31.99463577
31.99163753
31.97657581
31.96689725
31.96834931
31.93662457
31.92584959
31.93659601
31.89622709
31.88678286
31.90554909
31.82465811
31.81180654
31.86222912
31.8006579
31.79206029
31.84915944
31.78597812
31.78304555
31.84045983
32.06010772
32.07024314
32.03234677
32.06587762
32.05984845
32.03459205
32.02428952
32.00408379
31.9844258
31.94221532
31.92033117
31.91549005
31.85752053
31.83824538
31.84636091
31.76936865
31.72913035
31.76851343
31.7052651
31.68736384
31.73767747
31.67430806
31.66666802
31.71911237
32.36591892
32.38560808
32.24914
32.33818892
32.31767463
32.23787053
32.2340787
32.18949369
32.11443412
32.05743122
32.01327661
31.9749192
31.88789845
31.8499074
31.83969783
31.7643924
31.68089884
31.70352809
31.63688782
31.60239318
31.64234437
31.57697978
31.56047501
31.60710229
33.40847387
33.45852293
32.98899267
33.23798657
33.15171581
32.90445092
32.86666546
32.7441806
32.53622247
32.41143014
32.31263661
32.20360725
32.04953644
31.97586602
31.93088381
31.85013967
31.68652175
31.67891166
31.60219396
31.54221136
31.56978554
31.49791184
31.46682839
31.50782901
37.71723369
37.94695569
35.85775897
36.44375637
35.91271206
35.07307841
34.60404551
34.20188697
33.67478634
33.26252046
33.02249404
32.78099469
32.43684328
32.28659268
32.18906364
32.0575109
31.75267587
31.70788642
31.61125866
31.50955988
31.52375698
31.43950421
31.38749974
31.42200563
54.52704279
54.63861649
50.91287206
39.08216459
37.67339132
36.48611358
35.00986122
34.42471517
33.97427439
33.16316578
32.86441303
32.69608481
32.41128233
31.90177643
31.81555468
31.66706687
31.51189082
31.5083365
31.40133822
31.32307591
31.35124736
91.08301896
81.44436891
74.38653832
48.51592866
44.4313459
42.39144871
37.93147045
36.70456214
36.01101305
34.28263727
33.74987085
33.50550049
32.8947991
32.13013466
32.00436956
31.77518323
31.53929012
31.52093108
31.38072883
31.2714938
31.29507602
166.3617063
137.9759107
131.960183
60.44355177
52.98566501
50.8421643
41.59614832
39.55140985
38.75391911
35.67106248
34.84760626
34.5571609
33.4457435
32.40885413
32.26359642
31.91718531
31.59187172
31.56222072
31.37682607
31.23118463
31.25112383
201.0676606
167.3700973
165.6087909
69.78196238
60.22682631
58.65768665
45.11331451
42.33293075
41.60771113
37.05807084
35.94565673
35.68181616
33.98005811
32.68849545
32.5489882
32.06878995
31.65705679
31.6223521
31.38408376
31.20055373
31.21742978
197.7057141
168.8633657
169.4761825
74.77004903
64.64644973
63.78997408
47.71852586
44.47565165
43.95795132
38.2298531
36.8966158
36.68513528
34.41706733
32.93010595
32.81653603
32.20547337
31.72096824
31.68806765
31.39697803
31.17748094
31.19168409
181.877962
159.0288694
160.6034758
76.42662135
66.56183703
66.28288901
49.24755495
45.79988372
45.52134752
39.03615294
37.56706615
37.41631865
33.02789877
31.74573052
31.1703586
54.85332394
125.2908489
118.429022
141.323243
163.2276546
160.4617792
194.3506298
170.0982176
170.3937468
201.4238589
413.804782
466.2514803
456.1366508
792.3680676
767.4212204
976.3921059
1462.249182
1074.972903
1074.108239
994.7233839
1003.295241
1264.839271
1083.951721
834.6678127
810.7689391
1069.676498
1062.475011
1447.924401
531.2283721
543.7372873
681.9214037
1222.916374
976.2351631
986.1802715
443.6018816
161.7929898
163.2188404
187.9675167
201.6999326
165.9686713
151.3707301
487.7564286
423.1959286
430.7283545
374.8176958
382.5048658
433.6989361
614.9697863
506.4831964
518.0580411
442.1949323
450.4378479
527.3748982
78.91461983
90.61816372
93.05011091
94.9303628
94.86138824
85.46962515
715.1716517
501.1498202
399.3077196
1043.226018
1046.942318
1352.709716
1319.441759
1034.602325
1038.077098
946.9978196
928.1775094
1215.944182
1286.658755
980.5947389
962.3282566
1127.221957
1108.345173
925.7210696
1515.075233
1212.94788
1248.577242
1020.972629
1049.547899
1199.787829
637.9551216
623.0895203
664.4169427
768.5004755
670.0044686
648.8611158
901.9547957
915.5186697
1114.25817
1057.49
876.7845479
890.3059054
1094.475823
972.0856992
1000.850495
68.90554991
62.96121237
66.54446532
409.3711003
360.0647385
368.3500626
204.1081025
235.1900252
231.0601965
63.59977291
72.89636526
67.97280629
131.4181525
119.3563251
126.8838652
448.6463699
523.7826418
507.8952991
203.1886504
224.0632886
190.2329475
352.5347612
292.5086502
315.9057632
31.98756022
31.9820677
32.01359197
31.9984604
31.99394795
32.00551038
32.00262538
32.01788558
31.99262591
31.9955538
31.99686072
32.01336218
32.0016389
32.00514103
31.98913948
31.99599833
32.0085289
31.98643051
31.98952892
31.98460417
31.97415826
31.96872345
31.98040572
31.94392507
31.95774696
31.96144579
31.95977034
31.95686736
31.94617634
31.91421326
31.91780528
31.93134412
31.89338024
31.90678698
31.89962754
31.92741691
31.9159088
31.90548774
31.85705651
31.87051968
31.88261758
31.85048839
31.86085921
31.84528773
31.89824752
31.87873853
31.8707818
32.08265439
32.0471192
32.18167008
32.1071597
32.0974006
32.11536539
32.11274058
32.18436453
32.0385475
32.07386458
32.07186885
32.15089309
32.10481172
32.11474669
32.06825334
32.08788679
32.14108403
32.02530214
32.05328139
32.04045619
32.068727
32.02794328
32.05013409
31.98043404
32.00542197
32.03993501
31.96930641
31.9845902
31.9627428
31.94908297
31.93030424
31.95615766
31.88151393
31.90632805
31.91928532
31.89783614
31.89995247
31.87831822
31.83568138
31.83444457
31.8583538
31.79506954
31.81390087
31.81015999
31.83209456
31.82171117
31.80562208
32.47913359
32.34611415
32.75929147
32.50839528
32.50990559
32.49867363
32.50674975
32.75354578
32.25155214
32.38610829
32.3733998
32.61786549
32.47753731
32.507941
32.36533986
32.42440248
32.58227584
32.20762803
32.30059976
32.27548283
32.39911156
32.27009863
32.31976386
32.16570506
32.21858964
32.32905055
32.08113134
32.14551611
32.1008467
32.1261438
32.0610961
32.11309632
31.95994668
32.01003514
32.06333654
31.94009991
31.97044897
31.92813587
31.89476276
31.86865653
31.91296157
31.79138682
31.82800553
31.84706964
31.81128475
31.81652156
31.7860315
33.81815271
33.35087011
34.85685501
33.91954626
33.95200655
33.80823083
33.88207232
34.80079672
32.97820824
33.44259639
33.39694771
34.11434185
33.66510844
33.7974932
33.26708907
33.4629692
33.94137653
32.80612926
33.07435742
32.99023907
33.30954482
32.96771428
33.11590099
32.68743925
32.82427331
33.11318199
32.45137164
32.62928748
32.51818419
32.60077563
32.43454931
32.55582166
32.21701459
32.32204666
32.45977632
32.12958664
32.22056262
32.13089406
32.10275649
32.03420455
32.1223226
31.88113633
31.95378837
32.00909689
31.87386228
31.90916194
31.84873841
40.24877905
37.48725657
46.19321395
40.3766513
40.63145636
39.21236794
39.9790474
44.72519963
35.73582448
37.7564619
37.29941796
39.43782879
37.73191994
38.60964735
35.92741531
36.68336021
38.36629024
34.61888097
35.50330085
35.05988836
35.5854262
34.78299862
35.3225378
33.92698875
34.32265698
34.96566879
33.41719721
33.85363889
33.54096047
33.6188984
33.27917863
33.58122958
32.78692778
33.01493734
33.29250791
32.60750722
32.80731581
32.6103467
32.53958353
32.40788553
32.58745456
32.10808739
32.2485903
32.35396669
32.07519623
32.15499068
32.03818483
70.56275366
62.27081455
61.96171539
59.93170085
61.16135458
70.30918405
50.5954791
54.58203457
53.94019582
40.62918101
38.9996326
40.92149462
36.47647846
37.57444593
38.78542495
35.66422631
36.58485936
35.71954531
35.44820411
34.87742074
35.5873345
33.81446158
34.29751616
34.73840303
33.57829671
33.93152126
33.51508973
33.26655173
33.06125237
33.40715668
32.51179894
32.76478699
32.93030734
32.476539
32.61146246
32.39434408
96.05646925
88.54558796
100.0325696
70.80406353
78.01828356
83.66212864
48.69270804
46.48474478
51.44620071
40.59259216
43.06166275
44.69776018
40.07596037
41.57569053
39.50298262
38.09789135
37.31359876
38.73109806
35.31899798
36.20610804
36.81270396
35.1907035
35.72284803
34.93006142
34.28506803
34.00203901
34.59681706
33.09755937
33.5087983
33.72890624
33.11462934
33.3086341
32.93954669
148.6254913
143.5597459
174.0212076
104.4551255
120.7556237
124.9913658
111.3862353
116.2978502
101.3249387
56.94676147
55.0121021
63.15149093
45.40173535
49.41233329
50.92796828
46.27669238
47.88925507
44.26835737
40.9979744
40.2071366
42.43461375
37.11569504
38.48223259
39.08801103
37.33607069
37.95182068
36.68655707
35.41402897
35.12482883
36.0183448
33.794596
34.39350813
34.62114479
33.94514331
34.17307272
33.61928696
169.7221458
168.8196658
202.1269535
124.0791754
143.1430051
144.4013265
139.820791
141.7287546
122.6235921
62.77694201
61.59309506
71.4060519
49.60137057
54.65398299
55.65855079
52.26364046
53.53292155
48.71053405
43.49256729
42.88273407
45.79740627
38.81737395
40.61261346
41.11330711
39.59692236
40.15558548
38.43630004
36.45848171
36.20747739
37.37767435
34.47594251
35.253483
35.45442407
34.83190117
35.0408904
34.30657305
166.8913981
167.6863791
195.8176956
65.85536031
65.30722349
75.41876031
52.38511388
57.92159659
58.46923292
56.53521239
57.32332036
51.8813236
45.22324203
44.85581782
48.14971718
40.1555082
42.24633947
42.5506736
41.49186291
41.92234086
39.87796012
37.26852709
37.0939573
38.46770611
35.05676577
35.97253826
36.11371385
35.63976789
35.80865408
34.92551982
58.90268971
59.20217891
53.60390962
42.81093786
43.05052642
40.8344412
36.2394788
36.36058781
35.37829281
254.3160872
216.7769419
207.0272042
232.1777662
223.6293838
265.6137216
357.2007024
296.5732711
294.6224041
298.970759
297.9101666
358.1695373
295.4289857
246.5071916
238.9005442
259.2381126
252.9208826
304.3824986
324.9704709
283.5932949
286.1878516
357.3312923
299.8220311
299.5970006
299.4151431
299.6727382
355.8919906
60.27819736
53.12437171
52.14766758
47.84457044
62.042134
55.61088274
57.06677522
51.68744607
53.11866416
59.12516784
88.42542644
100.8059571
106.2421318
89.45570272
95.18158551
85.10132858
131.667559
111.0541529
103.6194034
116.5164353
135.0071264
137.6987297
128.6636498
132.1289147
114.1335135
190.6069447
157.072749
153.171759
127.6842902
146.1560557
146.2636979
145.1785864
145.8396139
127.1003193
202.1589204
170.5090803
170.3374287
1228.210079
1061.418248
1088.034863
1010.756528
1037.899592
1190.669741
492.5003778
479.4482257
422.0382845
695.5578935
570.1043094
591.1687245
531.7124244
548.7298126
666.310831
206.8948888
183.1825813
171.8006306
200.1823749
189.7761016
219.7642648
934.6431549
748.5715946
723.543167
347.6810367
287.2202786
283.6451731
292.5550324
289.8886359
351.0547194
1066.871569
1072.875527
1450.740946
729.1564426
814.2719972
840.3313864
801.5191423
810.4026676
729.429121
1277.547379
1010.637179
1017.695222
875.0520841
852.268897
1113.280817
727.4743991
781.8695241
793.5266267
754.9162618
769.9125104
727.0325073
1427.665042