/*--------------------------------*- C++ -*----------------------------------*\
| =========                 |                                                 |
| \\      /  F ield         | OpenFOAM: The Open Source CFD Toolbox           |
|  \\    /   O peration     | Version:  v2012                                 |
|   \\  /    A nd           | Website:  www.openfoam.com                      |
|    \\/     M anipulation  |                                                 |
\*---------------------------------------------------------------------------*/
FoamFile
{
    version     2.0;
    format      ascii;
    class       volVectorField;
    location    "0.73";
    object      U;
}
// * * * * * * * * * * * * * * * * * * * * * * * * * * * * * * * * * * * * * //

dimensions      [0 1 -1 0 0 0 0];


internalField   nonuniform List<vector> 
3019
(
(99.99916141 0.002069795791 -4.254125271e-21)
(99.99870727 0.007371890115 -1.76723637e-25)
(99.9976218 0.01666838558 -4.251682619e-21)
(99.99560255 0.0330771472 -4.233658778e-21)
(99.99967164 0.02713923367 4.102274797e-21)
(99.99772306 0.04627637213 0)
(99.99643517 0.07682151128 0)
(99.9959452 0.1197378047 -7.360274938e-21)
(99.99463234 0.1778613592 8.672029766e-22)
(99.99356202 0.2511448115 -5.821996836e-21)
(99.99340996 0.3330148031 6.540836293e-22)
(99.99453122 0.408653752 0)
(99.99243954 0.005173240738 1.702229172e-20)
(99.98767084 0.01902616478 4.256703421e-21)
(99.97742843 0.04392507397 2.977178473e-20)
(99.95983361 0.08990026089 -1.275281618e-20)
(99.96126507 0.1273696321 4.129667403e-21)
(99.93294961 0.2203049864 -3.90079969e-23)
(99.89587257 0.3664288846 0)
(99.87532432 0.5027985338 -7.36784631e-21)
(99.83074179 0.7556160639 -6.905650572e-21)
(99.79040261 1.081882889 -1.226985631e-20)
(99.77161144 1.458951731 -5.203442884e-21)
(99.79961713 1.81824601 -7.135824909e-21)
(99.98062062 0.005341808425 -1.698434346e-20)
(99.9672723 0.02156635193 -3.407726748e-20)
(99.93885647 0.05467369403 -7.658877535e-20)
(99.89204602 0.1163816189 1.019585722e-19)
(99.86273191 0.1946484121 -8.437562706e-21)
(99.7811756 0.3518681115 -8.259668198e-21)
(99.66739266 0.5992295142 -1.435926019e-20)
(99.5984907 0.8770862453 0)
(99.45521249 1.35122413 2.854269164e-20)
(99.32270537 1.981465268 -1.766643479e-19)
(99.2705248 2.744697651 0)
(99.38272352 3.537129318 1.04089009e-18)
(99.97026805 0.0007135688949 -8.54636288e-21)
(99.94477882 0.008928518128 5.986753159e-20)
(99.89079362 0.03877810261 -1.712514532e-20)
(99.80241897 0.1008415545 0)
(99.72943164 0.208252709 0)
(99.56616586 0.4073510159 -6.652152155e-20)
(99.33756028 0.7307668753 -1.333002133e-19)
(99.14594389 1.135914445 3.164933979e-20)
(98.82038419 1.816516768 -1.206771764e-19)
(98.50951579 2.803009431 -6.3514971e-19)
(98.34370776 4.140389104 -1.422798209e-18)
(98.55542581 5.603180911 1.329845842e-19)
(99.97268802 -0.009881945941 0)
(99.93307406 -0.02264059051 0)
(99.85009601 -0.01162165202 8.603818344e-21)
(99.71236588 0.03499904186 1.303860049e-20)
(99.58292776 0.1537011858 2.161862533e-20)
(99.31566205 0.3602379597 0)
(98.94020108 0.7040038002 0)
(98.56794005 1.200986241 -6.628488077e-20)
(97.97480008 2.068110057 -4.870004298e-19)
(97.29122997 3.5060747 -1.582422963e-20)
(96.80984509 5.665564159 -1.53256297e-18)
(97.27437209 8.234555183 -3.339044557e-19)
(100.0007611 -0.02685160833 0)
(99.94673617 -0.07410439865 0)
(99.83507932 -0.09870863229 -1.726165847e-20)
(99.64717447 -0.08840537611 3.506688532e-20)
(99.44726764 0.01974278255 0)
(99.0716869 0.1929017047 0)
(98.5275569 0.5047164736 2.751641178e-20)
(97.93852182 1.023377427 1.36968485e-19)
(96.95837981 1.985385173 1.607420472e-18)
(95.60127046 3.775443896 -2.239229989e-20)
(94.25553091 6.882665717 2.721920048e-19)
(94.34407487 11.56210039 0)
(100.0669318 -0.04979014516 4.205852102e-21)
(99.99994028 -0.1440934483 -4.235964329e-21)
(99.86309655 -0.2201665177 8.640510656e-21)
(99.63076078 -0.2665003321 -3.165986819e-20)
(99.3601796 -0.194911856 8.651950654e-23)
(98.883027 -0.09673210733 2.70286446e-20)
(98.18340457 0.122350031 -6.542790804e-20)
(97.3810945 0.562523706 0)
(95.92999379 1.433584489 0)
(93.65771187 3.16261034 3.317638011e-19)
(90.47357132 6.430096331 7.99962623e-19)
(86.94595831 13.69630111 7.572407661e-19)
(100.1819161 -0.07751696735 -4.206290532e-21)
(100.1049766 -0.2289253449 4.237481995e-21)
(99.94951517 -0.3688424759 -5.373360081e-21)
(99.68451136 -0.4879690204 -3.608561141e-21)
(99.35173677 -0.4766152139 1.538549469e-20)
(98.79723855 -0.4879387554 9.146310855e-21)
(97.98652467 -0.4243099574 -7.643719671e-20)
(97.01270456 -0.1607036787 -1.085638234e-19)
(95.18450695 0.3693898372 8.973113833e-19)
(92.18552778 1.386388372 0)
(87.35369096 2.931968382 0)
(78.51862916 5.64361149 -2.495194156e-18)
(100.3535765 -0.1082098407 -2.023596399e-21)
(100.2708861 -0.3229180724 -1.51997452e-21)
(100.1056541 -0.5340747523 -5.209791866e-22)
(99.82357584 -0.7353958457 1.574468554e-21)
(99.44519026 -0.8012726731 -2.98535263e-23)
(98.84903788 -0.9432569417 0)
(97.99573683 -1.070175212 2.361119218e-21)
(96.92440361 -1.041384339 -2.306837791e-18)
(94.94243026 -0.9795949481 3.104827832e-19)
(91.8368345 -0.8982813603 0)
(87.38045539 -1.350466524 0)
(81.81415447 -3.520270154 0)
(100.5858289 -0.1396571384 3.98628594e-21)
(100.5021013 -0.4192118968 6.183476881e-23)
(100.3368446 -0.7031073868 0)
(100.0550743 -0.989099816 2.037189654e-22)
(99.650962 -1.14090652 -2.10661387e-21)
(99.05308943 -1.417352295 2.238436092e-21)
(98.22375986 -1.734794017 -7.554413973e-20)
(97.14360838 -1.945270845 -7.364693728e-20)
(95.23243691 -2.313002886 1.252209965e-18)
(92.42215968 -2.912831618 0)
(88.91573577 -4.160867234 -1.860544221e-18)
(85.50844751 -6.248429529 -1.937594035e-18)
(100.8781978 -0.1697078628 -1.962517922e-21)
(100.7978965 -0.5110179025 1.978762859e-21)
(100.6414614 -0.8632148905 1.928232367e-21)
(100.3775179 -1.230477888 -1.801672782e-21)
(99.96561018 -1.467437496 -2.074724173e-21)
(99.40314258 -1.865701935 0)
(98.6477127 -2.351225887 5.870307019e-23)
(97.62684222 -2.770605667 0)
(95.89691726 -3.462766929 -1.50267003e-18)
(93.48099751 -4.461426954 -2.202702987e-20)
(90.64594237 -5.953051929 -1.666239743e-18)
(87.98771587 -7.715078081 2.05567414e-19)
(101.2259584 -0.1964455893 7.198979625e-21)
(101.1530659 -0.5922467664 0)
(101.0123032 -1.001941606 -1.924456049e-21)
(100.7781885 -1.447051043 0)
(100.373022 -1.75723154 0)
(99.87838114 -2.253356179 -6.157533951e-21)
(99.22988591 -2.87153973 -4.196874114e-21)
(98.31440075 -3.453484351 -9.864309879e-19)
(96.81872123 -4.366057132 1.998678534e-18)
(94.78303818 -5.6012058 -6.235818115e-19)
(92.38717219 -7.242048682 -2.130717844e-18)
(89.95145613 -8.982123104 0)
(81.19790727 -2.926060565 -1.173472764e-18)
(85.14070154 -6.006692969 1.696900524e-18)
(87.71947549 -7.562100091 1.684187338e-18)
(89.70568638 -8.814717622 0)
(79.06313524 7.318589942 0)
(88.49142703 -3.58166961 -4.515975148e-20)
(85.54100043 -5.618311698 -1.929319498e-18)
(82.56141625 -2.958353976 0)
(90.21412499 -5.566069028 1.667177252e-18)
(88.02239179 -7.273406088 -1.680594371e-18)
(85.8919567 -5.874112095 1.924841893e-18)
(86.53033203 -6.880253228 3.175360588e-20)
(85.61337868 -8.065238005 1.650063206e-18)
(84.25034183 -7.46354837 -2.193361729e-19)
(91.94438357 -6.95269843 0)
(89.98439442 -8.566914523 7.255440202e-19)
(88.28469718 -7.439035411 0)
(88.74218656 -8.169726999 -1.553192443e-18)
(87.72988684 -8.995911181 0)
(86.97812135 -8.553318023 -1.827514308e-19)
(90.22791047 -8.730276963 -1.419801364e-18)
(90.8491734 -9.467858403 0)
(89.32602167 -10.42809779 1.036860178e-18)
(88.57734831 -9.729992247 -3.312254444e-21)
(73.28406198 -4.560024963 -3.546219018e-19)
(79.08978061 -6.600074285 -2.242758539e-18)
(66.85101939 8.440693035 1.582186537e-18)
(72.16751607 -3.815749978 0)
(84.05578533 -7.360713012 -2.203076586e-19)
(82.58297508 -6.755361983 1.994884565e-20)
(83.90301758 -5.152448524 0)
(82.39139136 -7.018271239 0)
(83.92857391 -7.52848746 -7.332970623e-21)
(79.63898276 -6.68127175 0)
(82.14118459 -6.964684841 -1.949560521e-18)
(86.84734368 -8.497745988 -1.951719433e-18)
(85.79108166 -8.125987718 -1.014045283e-18)
(86.84680293 -7.064786611 9.033779363e-19)
(85.60254116 -8.247582156 0)
(86.72088371 -8.599734963 -2.512300108e-18)
(84.02443384 -7.589244666 -2.019651355e-18)
(85.51363632 -8.211872374 -1.276363059e-18)
(88.52116431 -9.684114989 1.099108297e-18)
(87.77604901 -9.033567913 0)
(88.9830596 -8.325943736 3.087603508e-18)
(87.6280547 -9.072583688 -1.18649507e-18)
(88.30687847 -9.73343313 1.11763195e-18)
(86.78398399 -8.633343482 1.258496385e-18)
(87.58604356 -9.03641983 0)
(89.37676744 -10.48295573 -1.040247283e-18)
(90.98300683 -9.560128112 0)
(89.02767122 -10.51806289 -1.062029131e-18)
(88.36182998 -9.778328207 1.120774001e-18)
(88.98758801 -10.46537597 1.052582839e-18)
(87.1401532 -0.4073132931 0)
(82.05746925 -2.34595924 1.170768438e-18)
(80.30511098 5.293299441 2.488241673e-18)
(78.81185576 0.9176090243 0)
(73.18802938 -2.767373042 0)
(69.23076548 8.063755893 1.5006054e-18)
(83.43782559 -4.821204441 0)
(82.32832974 -6.688725948 2.135225566e-20)
(79.78317939 -6.124934444 -1.088745349e-18)
(79.25874903 -5.989440689 -1.116857365e-18)
(74.10936684 -3.538340621 -2.724298172e-18)
(79.3220833 -0.3139180065 -1.306725001e-18)
(76.22555698 -9.465538181 -3.608262179e-18)
(51.46202615 12.34754773 0)
(58.71355291 -5.981250321 1.733146356e-18)
(77.74252911 20.98860629 0)
(67.45756035 10.88490848 -2.325504708e-18)
(89.00149795 -10.06822261 -2.265171832e-18)
(89.85331524 -9.735532201 6.373289654e-19)
(90.23866581 -10.01506814 1.226398927e-20)
(71.2154249 -10.64075881 0)
(75.70966053 -9.639779702 -1.207943524e-18)
(76.22415661 -5.949592544 0)
(75.90896107 -9.224302034 0)
(71.34188778 -9.531878833 0)
(78.60572249 -8.472559014 0)
(76.38843671 -9.099822672 4.249410598e-18)
(77.04692209 -6.189111218 0)
(67.81084763 1.620813613 0)
(60.18520943 -4.316513631 0)
(54.43226243 11.69635699 -3.426379801e-18)
(70.41177685 -9.341886781 0)
(61.60837055 -5.576969458 0)
(68.77695306 -0.1936587755 0)
(60.43965094 -7.255913219 0)
(70.29610348 -10.31536025 -8.339487529e-20)
(83.1554103 -7.165388142 6.897128891e-19)
(81.22851164 -7.664772321 0)
(83.25581626 -7.210089209 0)
(80.92999241 -6.805927404 2.033612065e-18)
(80.18229825 -7.860847601 0)
(78.80841076 -8.382475258 1.02680084e-18)
(81.14458122 -7.654650126 -3.0682277e-18)
(80.32369617 -7.792421987 1.029064968e-18)
(81.2718142 -6.838243996 -2.480668943e-19)
(86.17435228 -8.406867101 0)
(86.24820189 -8.437140981 -1.252170081e-18)
(84.73185 -7.927677137 0)
(84.83256493 -7.978834493 0)
(87.95827778 -9.370857093 0)
(88.00514747 -9.41149334 0)
(87.19909766 -8.80973652 5.837370372e-19)
(87.25103384 -8.837737903 5.806809076e-19)
(90.37302065 -10.11140629 2.461281757e-18)
(88.72278414 -10.05434052 0)
(88.76444519 -10.09838121 1.185581179e-18)
(65.29809086 29.83462303 0)
(52.18532895 15.54986727 -2.670273335e-18)
(87.37433204 -8.787730642 0)
(87.95245968 -8.419156031 -2.101540337e-18)
(88.30850073 -8.634111708 0)
(87.44175957 -8.14910508 0)
(87.82924732 -8.350433863 2.816415583e-18)
(87.31855288 -8.761272865 0)
(89.36286265 -9.379356929 -1.081841939e-20)
(89.72954891 -9.644540641 -6.467733488e-19)
(88.95390976 -10.02175547 5.627826269e-19)
(86.43122422 -8.339369598 7.919424923e-19)
(86.87727529 -7.880290694 2.2137947e-18)
(87.30628661 -8.081847913 0)
(86.18828367 -8.753747037 0)
(86.0246605 -8.682375484 0)
(86.52718618 -8.529076749 -1.255699344e-18)
(88.17456768 -9.368351322 0)
(88.88758951 -9.034989324 -6.673065797e-19)
(89.24240129 -9.291902555 2.627616059e-18)
(88.42413832 -8.710498812 0)
(88.77085827 -8.951370071 0)
(88.12385775 -9.32568171 1.154513207e-18)
(87.75846498 -9.197476461 0)
(86.76462907 -9.250758706 2.731777481e-18)
(86.69631132 -9.099911158 0)
(86.4692564 -9.718794521 -7.172263255e-19)
(86.37073083 -9.585743744 -1.333019581e-18)
(88.15645579 -9.588020586 0)
(86.97140696 -8.706192802 1.238996694e-18)
(86.41003338 -8.857926646 0)
(86.2468954 -8.780944058 7.13794596e-19)
(86.67734723 -9.06821563 0)
(86.59674634 -9.007310996 0)
(87.45305773 -8.943693065 -1.169369783e-18)
(88.53010999 -9.901671981 0)
(86.73517944 -9.887364285 -7.198508421e-19)
(86.51868801 -9.775997847 0)
(86.94167238 -10.2693415 -2.235578511e-18)
(88.91953843 -10.31689022 -1.144169033e-18)
(77.35435137 -8.997175011 0)
(77.69542431 -8.900665562 0)
(52.4852123 2.593613863 0)
(53.74047856 -0.09039795557 0)
(73.41244983 -10.27199667 0)
(74.04907025 -10.08397382 0)
(74.2839328 -9.526622802 0)
(74.47079772 -7.49102407 2.135146698e-18)
(76.10275264 -7.691242734 2.022705326e-18)
(71.84059913 -6.77018383 0)
(73.86355322 -7.373247496 0)
(73.64996696 -9.60617781 0)
(77.89074624 -8.689651898 0)
(78.14311766 -7.708370662 0)
(79.01222092 -7.639889931 -8.162967601e-19)
(76.58383481 -7.719489167 0)
(77.806655 -7.721934533 -9.137089791e-19)
(77.54505249 -8.751151995 0)
(67.04823564 -8.576080369 0)
(68.57331885 -5.256295468 0)
(71.05447521 -6.477323296 0)
(65.15754854 -9.610959587 0)
(66.65463812 -9.925350274 0)
(81.66501256 -7.699147678 1.06840316e-18)
(82.38179842 -7.477968212 0)
(82.62137208 -7.548224177 7.384676141e-19)
(81.93941116 -7.411623623 0)
(82.27785753 -7.46037386 0)
(81.55752401 -7.712616629 1.033848874e-18)
(83.00395145 -7.73802891 1.468073935e-18)
(83.24141881 -7.903539059 2.991952658e-18)
(82.69028563 -7.584273538 0)
(82.92630137 -7.695055198 1.464531236e-18)
(79.66875361 -8.044143556 -4.166485239e-18)
(80.15392974 -7.497327688 -5.899661095e-21)
(80.70096795 -7.428762066 5.339005522e-21)
(79.26351783 -7.612155552 0)
(79.9498753 -7.525562973 1.612477535e-18)
(79.48401134 -8.123620606 -1.66013716e-21)
(80.79986665 -7.726765857 0)
(81.43991271 -7.38973051 0)
(81.82259513 -7.400308903 0)
(80.86367126 -7.410926827 3.261129854e-18)
(81.30230406 -7.389120513 0)
(80.66046828 -7.733030185 0)
(85.14541226 -8.612093013 1.389322255e-18)
(85.35012004 -8.667272318 -1.409045099e-18)
(84.85153348 -8.610034887 1.34138826e-18)
(85.08368976 -8.605113452 -1.38226813e-18)
(85.66545776 -8.704148182 1.449981251e-18)
(85.81084851 -8.778125673 -7.392519558e-19)
(85.4257276 -8.679834563 2.838778964e-18)
(85.61781489 -8.693339909 -2.874625464e-18)
(83.76002532 -8.203919659 1.532988894e-18)
(84.09187249 -8.334130436 -1.553662507e-18)
(83.33042345 -7.970444989 -1.50733263e-18)
(83.64881117 -8.153876203 0)
(84.61631228 -8.504502157 -3.950019956e-19)
(84.79195154 -8.588368435 -1.346809056e-18)
(84.20125921 -8.371616303 2.888698767e-21)
(84.52032447 -8.472770458 1.582301744e-18)
(86.97051959 -9.437193413 0)
(86.80960539 -9.312926676 1.985392076e-22)
(87.80636861 -9.242428745 0)
(85.94331511 -9.27418636 -2.332113011e-18)
(86.13834486 -9.385267708 0)
(85.86305791 -9.025040042 0)
(85.89233501 -9.197904742 -7.831655542e-19)
(86.14768169 -9.410201904 8.188530855e-19)
(88.12012272 -9.538271273 0)
(86.45622666 -9.545881584 1.229132732e-18)
(86.9808568 -9.473210116 -1.434703745e-18)
(86.40950368 -8.946120823 -1.231181421e-18)
(86.45357327 -8.893705456 0)
(87.03007931 -8.738777417 -1.843515454e-18)
(86.05712868 -8.91330087 0)
(85.62694199 -8.930034529 0)
(85.86859129 -8.807381591 0)
(86.01379912 -8.883634486 0)
(85.7909223 -8.956517345 0)
(85.85567885 -8.997959924 -7.67297303e-19)
(85.64655503 -8.930818279 0)
(85.75837169 -8.947364353 -7.610666899e-19)
(87.40512617 -8.916360715 2.330103633e-18)
(86.56222145 -8.992711231 2.575426339e-18)
(86.44151532 -8.96208756 0)
(86.9047203 -9.965246695 0)
(86.79301817 -9.906541412 1.437524129e-18)
(88.58304584 -9.938715284 0)
(88.88317611 -10.25630874 0)
(86.91285142 -10.19643925 3.860277702e-19)
(86.92040975 -9.992439081 0)
(85.04308506 -7.845673107 -1.682986061e-18)
(85.54638676 -7.26115061 7.738722061e-19)
(86.07726309 -7.516020129 -2.282985499e-18)
(84.79816392 -6.86595085 1.632140899e-18)
(85.36291814 -7.16753172 -2.38417138e-18)
(84.84528801 -7.758611419 2.139920506e-19)
(86.24668691 -7.593879312 7.678617108e-19)
(86.72624685 -7.811274265 -1.475720995e-18)
(86.28105494 -8.287853284 1.602912796e-18)
(85.86100034 -8.313405013 0)
(85.40880109 -8.554217516 -1.313715188e-18)
(85.15896151 -8.519416023 -9.712734512e-19)
(85.07976624 -8.494848878 1.318529215e-18)
(84.82743765 -8.412116244 -3.675061988e-19)
(85.23112997 -8.128504561 0)
(76.66946808 -9.264104909 0)
(72.02837573 -10.62331078 1.111594206e-18)
(70.76196194 -10.96285889 0)
(75.17420282 -9.778555628 -4.931852864e-18)
(75.39959724 -9.328885648 4.267650835e-18)
(75.52153485 -8.785765331 -2.032472052e-18)
(76.02194745 -8.721146285 1.435396495e-20)
(78.4111417 -8.579924257 0)
(78.56114772 -8.266632393 2.166843853e-18)
(78.8075144 -8.208531502 -1.73029729e-18)
(76.48959073 -8.640209791 0)
(76.91818148 -8.550102362 0)
(76.82063975 -8.961295081 0)
(65.02564433 -2.201729748 0)
(67.69653732 -4.551773687 0)
(65.73967966 -8.111684147 0)
(62.08517647 -8.3147504 7.565122081e-19)
(61.39184151 -10.76321177 9.651668137e-18)
(59.33914754 -8.958547437 0)
(69.94888095 -11.00704939 -6.918997857e-18)
(68.93782358 -11.14253135 0)
(69.24205121 -10.20237153 0)
(81.64278327 -7.662571288 0)
(81.99236239 -7.665562399 2.130178121e-18)
(81.97589375 -7.688595713 1.606215659e-18)
(81.5723922 -7.610574975 0)
(81.67861863 -7.624585382 0)
(81.32548025 -7.682642013 0)
(82.32407271 -7.918134833 -5.364748509e-21)
(82.37524109 -7.995316296 0)
(81.98548041 -7.711010237 -1.954241156e-18)
(82.03931166 -7.730989555 9.036860341e-19)
(80.01101151 -7.932033748 2.066378797e-18)
(80.26857411 -7.812095512 -1.777626797e-18)
(80.43621634 -7.762297841 0)
(79.04486227 -8.15471386 -1.73081669e-18)
(79.27915906 -8.100630581 3.518648531e-18)
(79.0352255 -8.302112005 -1.049802943e-18)
(81.05701212 -7.665932128 1.019326606e-18)
(81.36553671 -7.612792363 9.047049595e-19)
(81.47134935 -7.604296998 9.089551976e-19)
(80.58697177 -7.713433466 6.057665802e-21)
(80.71950101 -7.678762553 1.794425277e-18)
(80.43441495 -7.750544949 4.563037636e-21)
(85.69804035 -8.618625411 1.343429033e-18)
(85.48148502 -8.566593889 1.319082869e-18)
(85.94150549 -8.344350369 -1.253666781e-18)
(86.46091662 -8.498363633 1.255766418e-18)
(85.96903147 -8.667035787 1.37852069e-18)
(85.77153774 -8.633219694 -1.352275589e-18)
(84.30591446 -8.236724043 2.974903837e-18)
(83.98161719 -8.102700614 -1.466393134e-18)
(84.42460775 -7.796821683 -1.334358257e-18)
(83.14961006 -8.44580927 -1.842012766e-18)
(83.26034056 -8.480911519 0)
(82.4456367 -8.097003216 1.870810764e-18)
(82.55200217 -8.192127043 -1.857817403e-18)
(83.68818925 -8.649420552 -1.642638097e-18)
(83.36928934 -8.512688414 -1.836027004e-18)
(83.47594275 -8.541195569 0)
(85.13423541 -8.085479668 0)
(84.72862461 -8.380879 7.458827168e-19)
(84.41334641 -8.275978588 2.980240125e-18)
(86.7351847 -9.190550003 -1.353499374e-18)
(87.21423128 -9.202740811 -2.593033561e-18)
(87.25023115 -9.253907203 1.312242287e-18)
(86.42562594 -9.67226815 2.13360986e-18)
(87.40776654 -9.736127837 0)
(87.45432585 -9.777785489 1.204087794e-18)
(87.34412526 -9.643071729 2.888335402e-19)
(87.36441679 -9.694090545 0)
(86.38012945 -9.629404167 2.799718027e-18)
(87.34720569 -10.45012529 0)
(87.38036615 -10.47671755 -6.631861388e-19)
(86.6635197 -9.863369969 -4.133275393e-21)
(87.62400609 -9.906925079 0)
(87.6845469 -9.936219242 0)
(87.50360645 -9.824007258 -2.434939911e-18)
(87.56086143 -9.869614696 1.228494091e-18)
(86.58543848 -9.828065865 7.164221212e-19)
(87.41344173 -10.41446175 -5.708315972e-18)
(87.33803585 -10.42980042 2.494874885e-18)
(87.94735349 -10.35945743 6.670941853e-19)
(87.54377533 -10.38620097 4.022436002e-18)
(86.62523276 -10.30025062 -5.243619968e-18)
(77.02700112 -9.102498683 0)
(77.93177055 -8.753717511 0)
(43.64036833 4.488763933 0)
(45.44736897 0.3196383999 -1.047528332e-18)
(53.34033171 -9.333874452 0)
(55.794916 -10.27106478 0)
(48.037389 -3.35534881 -4.325320213e-18)
(50.69522086 -7.511391425 7.98760423e-19)
(47.85378309 -8.362080539 -3.921221882e-18)
(72.73239064 -10.46631246 0)
(74.63070721 -9.915753799 0)
(77.99470696 -8.370008226 0)
(78.2939144 -8.32436121 9.125063425e-19)
(78.16207008 -8.669869884 0)
(77.19863065 -8.839414733 0)
(77.3043911 -8.470303115 0)
(77.65869453 -8.409176987 5.072282715e-19)
(64.77965149 -11.54176511 6.029229036e-18)
(63.19714595 -11.40053235 0)
(63.62862488 -9.090850344 0)
(58.22877997 -10.87719069 0)
(60.308452 -11.53980449 -2.47530339e-17)
(68.03355787 -10.09972688 0)
(67.74120937 -11.31529621 0)
(66.32856617 -11.47870096 0)
(82.00503828 -7.656764012 -1.882219178e-18)
(82.09504546 -7.659735338 1.855015892e-18)
(81.7457361 -7.671637881 0)
(81.43591245 -7.703785718 1.028409211e-18)
(81.79045372 -7.64047337 0)
(81.90456784 -7.652260887 0)
(82.2227171 -7.816148057 -1.855857292e-18)
(82.27467828 -7.859681426 2.78612846e-18)
(82.10532053 -7.753619657 9.199470264e-19)
(82.16650488 -7.781786239 9.246269977e-19)
(79.91432175 -7.910938482 3.534177656e-18)
(80.09431355 -7.858478792 -3.556675196e-18)
(79.83760835 -7.985183936 1.042086221e-18)
(79.26948667 -8.21465821 -3.126134592e-18)
(79.50720828 -8.039297165 1.76386345e-18)
(79.72037322 -7.973159679 1.764694877e-18)
(81.10987585 -7.646063067 1.809716414e-18)
(81.24417822 -7.631052994 0)
(80.94122789 -7.69838874 0)
(80.54026356 -7.733868505 3.093904299e-18)
(80.84519813 -7.660749685 1.792114254e-18)
(80.97448863 -7.653111631 -3.603633791e-18)
(85.20809124 -8.628041061 -1.404071507e-18)
(84.55744544 -8.630952219 8.23153173e-19)
(84.50660981 -8.614927576 -8.261318681e-19)
(84.69929726 -8.674485732 0)
(84.62174 -8.654896232 0)
(85.27633817 -8.648428234 0)
(84.93249576 -8.614606032 1.353045005e-18)
(84.32825377 -8.65427779 4.725527173e-21)
(84.25369481 -8.674879398 -4.242390854e-18)
(84.46111671 -8.612172179 1.643599999e-18)
(84.40495521 -8.627693526 0)
(85.01405904 -8.608557625 0)
(85.7108778 -8.723082213 0)
(85.03943725 -8.693699478 0)
(85.00712385 -8.675653764 0)
(85.12348866 -8.75605752 1.658160542e-18)
(85.0764247 -8.721394779 -8.269986193e-19)
(85.75847602 -8.748469693 7.320396112e-19)
(85.4977592 -8.68643048 0)
(84.85958335 -8.682339356 0)
(84.78196784 -8.68272458 1.647573872e-18)
(84.97218135 -8.669046341 0)
(84.9240786 -8.674184813 1.645583422e-18)
(85.56246394 -8.689277484 -1.430445822e-18)
(82.92304652 -8.364037974 -3.959387101e-21)
(83.03683094 -8.407548037 1.845479969e-18)
(83.87086269 -8.250627023 2.45463919e-21)
(83.55576277 -8.342277649 1.60616918e-18)
(83.44231286 -8.29768069 -4.820571648e-18)
(83.78138257 -8.420582465 0)
(83.66910732 -8.382957009 -1.621050797e-18)
(83.98163446 -8.293968489 3.096756505e-18)
(82.68180179 -8.260090592 0)
(82.80704191 -8.314342683 0)
(83.76372393 -8.619046262 0)
(83.84415404 -8.631759509 3.324092075e-18)
(84.71019355 -8.544719462 1.507395769e-18)
(84.39946782 -8.619996013 -3.306026858e-18)
(84.30031777 -8.58341301 -8.395417073e-19)
(84.22820729 -8.680403585 2.843879081e-18)
(84.23539053 -8.659755984 -1.889493455e-18)
(84.74814548 -8.562850536 2.825925374e-18)
(84.30939619 -8.406637288 0)
(84.00154016 -8.488123382 0)
(83.8923349 -8.455639597 -1.627449078e-18)
(84.21255662 -8.550567067 -1.663062575e-18)
(84.10808014 -8.51964237 0)
(84.41596734 -8.440011186 0)
(83.57885283 -8.569570189 9.15453749e-19)
(83.68060267 -8.594862955 -9.278740779e-19)
(86.92391366 -9.403233186 0)
(87.39717883 -9.39618457 -1.339590849e-18)
(87.44363566 -9.4355762 6.720526362e-19)
(87.29436479 -9.30657308 6.591438111e-19)
(87.34545971 -9.354496334 -6.667442295e-19)
(86.86758796 -9.364034586 0)
(86.01757831 -9.326152228 -7.751646981e-19)
(86.08656292 -9.360011957 7.811484198e-19)
(85.86731363 -9.064809258 0)
(85.87195269 -9.119956139 0)
(86.14697951 -9.422700906 -1.901293998e-18)
(85.80975678 -9.439370635 2.815290764e-17)
(86.60745247 -9.511819454 -8.098038956e-18)
(87.42942137 -9.53991657 -1.727285508e-21)
(87.37155395 -9.583603319 2.898150778e-19)
(87.47291563 -9.473869843 -1.005543668e-18)
(87.49692743 -9.524345709 -6.475364967e-19)
(86.99834702 -9.51310178 1.416301756e-18)
(85.76390359 -8.914754628 0)
(85.08808921 -8.863482192 0)
(85.34889058 -8.860415627 0)
(85.67302277 -8.92769664 0)
(85.92716858 -8.833402038 0)
(85.2417724 -8.810168269 0)
(85.18149592 -8.786782334 -8.313112102e-19)
(85.32332813 -8.850465775 0)
(85.29685414 -8.829059841 0)
(85.98267141 -8.85720034 0)
(85.81967451 -8.966761508 0)
(85.84161662 -8.979492548 7.63861291e-19)
(85.68699245 -8.933686227 0)
(85.72429077 -8.939486126 2.271693113e-18)
(86.87653596 -9.944382172 -2.884108596e-18)
(87.82156721 -10.01476754 -6.314694164e-19)
(87.85451054 -10.04579846 6.415120761e-19)
(87.73734262 -9.961823464 -1.247115288e-18)
(87.78257997 -9.987326008 1.261850878e-18)
(86.83908008 -9.925068113 1.439830554e-18)
(86.92223958 -10.1015741 -1.489596689e-18)
(87.91792121 -10.19466863 -1.330444807e-18)
(87.91542119 -10.27411663 -6.755327138e-19)
(87.88081463 -10.08310171 0)
(87.89998222 -10.13203224 1.313322042e-18)
(86.92333882 -10.03730458 -1.460197426e-18)
(99.68671244 0.7912383918 -1.484678576e-20)
(99.6077992 1.093696455 7.093252133e-21)
(99.86671301 0.6768027641 7.123022024e-21)
(99.57582999 1.210813527 -2.125688261e-20)
(99.50261514 1.613057974 -6.640754305e-21)
(99.83473653 0.9833918494 -3.966373765e-22)
(99.47525279 1.762667526 -3.122602833e-21)
(99.44268056 2.249456473 -5.287618715e-19)
(99.82037742 1.350253305 5.202490306e-21)
(99.43552409 2.418206279 9.969439793e-19)
(99.49702329 2.924710001 0)
(99.84809275 1.723335768 -2.038620997e-21)
(99.52425395 3.081104502 0)
(99.27318955 1.085708629 -1.571679643e-20)
(99.07252532 1.537660394 -1.539708356e-20)
(99.49388175 1.218521238 0)
(99.00164885 1.71651342 5.679861502e-20)
(98.80168521 2.35637855 8.603291944e-19)
(99.35520305 1.809354167 -2.628820869e-20)
(98.74555858 2.604885537 -1.909366291e-18)
(98.63207007 3.461859288 0)
(99.27541515 2.544900059 0)
(98.62047961 3.776014693 0)
(98.71247529 4.746698861 0)
(99.33950751 3.349604378 1.04945624e-19)
(98.80239421 5.038414201 -1.330668176e-19)
(98.72112594 1.206839931 5.124361312e-19)
(98.33714497 1.790508511 -5.058502502e-19)
(98.90581057 1.621418039 7.687052886e-20)
(98.20279557 2.033268668 9.927023096e-19)
(97.77892322 2.96373265 -9.234982383e-19)
(98.58039632 2.5226731 2.189542309e-19)
(97.63966932 3.351274237 -4.354088179e-19)
(97.31615755 4.749712604 -1.726915992e-18)
(98.35958792 3.779928398 0)
(97.27036079 5.283353883 -1.586811447e-18)
(97.48081587 6.960107325 0)
(98.44717818 5.255418295 0)
(97.68858733 7.50418946 1.130725081e-18)
(98.09429842 1.093916916 -5.468034673e-19)
(97.47010881 1.746539679 -1.062346854e-18)
(98.1325749 1.808479618 4.909091469e-19)
(97.22309265 2.042029077 1.029030659e-18)
(96.37381992 3.243659447 -1.506172526e-18)
(97.46256101 3.080948402 9.449843956e-19)
(96.06847107 3.772412434 -1.043088013e-20)
(95.2195872 5.823512896 6.457898511e-19)
(96.87727354 5.062152203 1.733268122e-18)
(95.01624682 6.663497225 -5.236291206e-19)
(95.01308092 9.63180714 -4.781804018e-19)
(97.02048005 7.60436909 0)
(95.33510633 10.6998572 0)
(97.50781243 0.7040976406 -1.395957222e-19)
(96.5687015 1.328078228 1.097813173e-18)
(97.24079391 1.683199016 5.198780093e-19)
(96.1722861 1.623250824 2.810810741e-19)
(94.71215577 2.863273273 5.888954847e-19)
(95.96633706 3.223988176 0)
(94.13543575 3.425562805 0)
(92.17646962 5.740262977 -7.804245692e-21)
(94.54123991 5.955641017 -1.320874464e-19)
(91.48582038 6.802711105 -3.49620441e-19)
(89.7066503 11.39635853 6.922858212e-19)
(94.04010158 10.27055707 0)
(89.45827294 13.69353871 -1.449486575e-18)
(97.07965999 0.04079528927 1.774959347e-20)
(95.8519457 0.4697275594 0)
(96.36277241 1.153153289 0)
(95.324676 0.6763203294 -2.244018708e-18)
(93.30462977 1.536036651 -1.005216015e-18)
(94.31143218 2.61893612 9.460692808e-21)
(92.45974238 1.917308213 -3.603121431e-19)
(89.24159254 3.412085953 -8.743222927e-19)
(91.3485485 5.396643919 1.119980071e-18)
(87.86742418 4.04931773 0)
(80.77325397 6.669032308 0)
(87.74730647 11.16847686 -8.939726615e-19)
(83.70403123 12.00795381 -2.006319756e-18)
(81.54474137 18.30221902 0)
(87.92937742 17.75208829 -6.843683697e-19)
(96.91647412 -0.8118401242 1.170372753e-18)
(95.53889316 -0.6951646971 1.375301167e-18)
(95.73453813 0.1960813408 0)
(94.9514868 -0.633010286 -1.542931215e-19)
(92.7295571 -0.4067776374 -6.980116672e-19)
(93.0717867 1.080481547 3.413002449e-19)
(91.81633797 -0.3348238228 0)
(88.46986869 -0.288116581 9.09800652e-19)
(88.80144835 2.50015611 9.141232849e-19)
(87.08110016 1.769030423 0)
(85.40889188 1.972861015 -5.598246526e-19)
(85.68011817 3.379101406 0)
(78.33021482 3.960326927 0)
(76.29990878 3.990257511 0)
(76.44028565 6.00496107 1.35049749e-18)
(97.06227981 -1.723056814 -1.806671897e-20)
(95.69325673 -1.919229245 0)
(95.53240528 -1.005721269 -1.385764043e-18)
(95.12157624 -1.992624139 1.58845134e-18)
(93.03510111 -2.298994403 0)
(92.73283609 -0.9011066943 0)
(92.21772746 -2.452897486 0)
(89.46962575 -3.197669636 -8.981737237e-19)
(88.62002483 -1.122034612 9.068783246e-19)
(87.70540842 -2.188528087 0)
(86.52028899 -2.5846179 -2.64378137e-19)
(86.06400741 -1.669430918 2.399730551e-18)
(82.39444788 -4.019950355 0)
(81.82020248 -4.665312388 -5.772175866e-19)
(81.14380799 -4.208089827 0)
(97.4841531 -2.575499839 7.186997793e-20)
(96.21917493 -3.023085685 3.031970197e-19)
(95.79307541 -2.210850613 1.218435301e-18)
(95.70226688 -3.197072353 -3.030394889e-19)
(93.87701655 -3.844117421 3.437587674e-19)
(93.20658889 -2.721450367 0)
(93.18791349 -4.115580064 6.676459028e-20)
(90.96923761 -5.145012582 8.0163527e-19)
(89.8241651 -3.75844574 0)
(89.34710996 -4.677710166 -8.820938928e-19)
(88.51693072 -5.152138357 -1.583117932e-18)
(88.02157176 -4.632549857 0)
(85.86123205 -6.473601255 -1.626800859e-18)
(85.52352975 -6.976001665 7.855994492e-19)
(84.96660632 -6.668825718 -8.155672982e-19)
(98.12660047 -3.298185432 1.361891052e-19)
(97.01645897 -3.924034233 -2.864181388e-19)
(96.39718853 -3.269284408 1.473376214e-18)
(96.5693385 -4.16460949 -5.660048555e-19)
(95.01794089 -5.016559703 -9.446551528e-19)
(94.14052025 -4.170952604 0)
(94.4403367 -5.350964459 -6.805957209e-19)
(92.58478073 -6.515156713 -7.131361239e-19)
(91.36515136 -5.529481868 7.798324281e-19)
(91.0767434 -6.310353156 -7.88029375e-19)
(90.39504936 -6.763472636 1.445604749e-18)