/*--------------------------------*- C++ -*----------------------------------*\
| =========                 |                                                 |
| \\      /  F ield         | OpenFOAM: The Open Source CFD Toolbox           |
|  \\    /   O peration     | Version:  v2012                                 |
|   \\  /    A nd           | Website:  www.openfoam.com                      |
|    \\/     M anipulation  |                                                 |
\*---------------------------------------------------------------------------*/
FoamFile
{
    version     2.0;
    format      ascii;
    class       volScalarField;
    location    "1.54";
    object      p;
}
// * * * * * * * * * * * * * * * * * * * * * * * * * * * * * * * * * * * * * //

dimensions      [0 2 -2 0 0 0 0];


internalField   nonuniform List<scalar> 
3259
(
122.6219661
-80.23963727
-267.158157
-425.0957913
-550.1907939
-644.1075393
-711.6061151
-757.8343182
-795.685473
-812.4186951
-821.9500217
-826.2848295
151.6947425
-61.1868802
-258.819183
-424.7592439
-553.4951758
-648.6467649
-722.9997905
-765.8561443
-802.6812471
-817.0707664
-825.3343653
-829.0788653
153.9113256
-86.75293003
-300.6197811
-471.5076428
-597.4876597
-684.5150634
-754.0702952
-788.4006709
-818.6894381
-828.1280828
-833.5549648
-835.9060917
160.1881888
-143.9408858
-392.5878749
-564.3947064
-677.1297727
-748.8121588
-801.6360817
-822.1708591
-841.2102088
-844.2094072
-845.3793954
-845.6915033
183.0130422
-255.8383908
-562.6409204
-725.6595529
-801.0431793
-837.4225333
-862.7042627
-864.3427979
-867.182251
-862.179655
-858.2183423
-856.1302292
236.6945601
-517.4777042
-881.1041715
-972.6826369
-968.0441967
-946.7318216
-932.1490499
-909.7360891
-892.8727751
-878.9806048
-869.4409609
-864.8330871
430.006108
-1294.353408
-1439.37037
-1307.662919
-1166.233564
-1064.266641
-1000.509912
-951.8378577
-914.4404372
-891.223424
-876.4478875
-869.5016398
-3231.093644
-2204.615475
-1669.543141
-1354.282641
-1168.960962
-1054.47034
-982.9291517
-925.8862005
-895.4585397
-876.7312353
-867.8375449
-4608.25378
-2707.254408
-1905.015811
-1473.949853
-1232.712727
-1081.523261
-994.9395405
-923.6253028
-889.0561238
-868.0776935
-858.0563382
-4130.1889
-2639.008155
-1901.713249
-1476.211884
-1235.112046
-1073.38499
-983.5805863
-905.5426117
-870.5000883
-849.2576797
-839.0760833
-3040.638309
-2188.793015
-1695.096513
-1376.448333
-1177.42848
-1029.70471
-948.3852256
-871.621087
-839.7209616
-820.1791634
-810.751602
-1951.840339
-1612.348105
-1385.110261
-1205.470186
-1073.5525
-957.0874274
-892.8750974
-823.7626179
-798.1439687
-781.8043404
-773.8612109
-4965.856953
-3451.671319
-4509.143225
-4997.503046
-3311.068687
-4378.682663
-2127.489528
-3155.879972
-1988.84742
693.981766
-3065.838596
-1092.587814
-6840.975662
-4647.142369
-4566.862388
-2924.845386
-2393.883675
-6453.15657
-6965.767288
-4241.198071
-2979.532112
-3008.294174
-4624.421928
-5547.834936
-3182.154351
-2503.974035
-2895.272336
-2991.579747
-3677.642005
-1605.036415
-1584.191089
-2178.199533
-6991.688294
-6885.346349
-4620.185352
-6566.99662
-6812.956983
-5604.934553
-6410.356585
-4770.160452
-6274.388421
-5512.026241
-6790.913257
-6315.924606
-4815.937298
-3780.162593
-4560.435269
-3778.729089
-4451.460116
-3707.585089
-5456.118776
-4568.604185
-3933.968023
-2265.781977
-2897.744786
-1556.059797
-1598.575127
-1503.413196
-1552.762869
-9045.422168
-6083.201464
-3581.95768
-2082.448237
-1842.87393
-2345.587104
-2028.934783
-1985.652364
-2298.367198
-4388.358862
-6444.601279
-4403.171513
-2349.963579
-2688.515798
-2556.988439
-2853.991893
-2240.825475
-3608.921117
-2945.026168
-2703.939044
1030.776616
-4122.302734
-1416.110503
661.7515399
-9120.06714
-6309.838052
-8706.489225
-5756.917026
-8563.329308
-5973.83929
-6689.403057
-6725.951689
-5058.267014
-5121.000541
-3152.799966
-3499.605563
-3278.473281
-3482.519031
-3124.57945
-3936.475754
-3536.879398
-3376.695937
-1606.679763
-1890.844053
-1942.726116
-7057.050233
-7057.382335
-5978.608301
-6029.627802
-5926.850842
-5310.703105
-5512.427052
-4991.441476
-5235.601729
-5877.013186
-6588.030461
-5755.184808
-5820.494699
-5570.777549
-5717.933206
-6553.337988
-4101.980936
-3981.778552
-4158.24047
-3069.553008
-2717.369822
-2622.05091
-2736.120337
-3090.579155
-1948.659601
-1513.321819
-7870.993966
-2192.152404
-2356.966457
4845.791118
-2389.948432
-2572.826853
1536.659144
-5387.448004
-1883.518504
525.2561461
-6564.913876
-7525.801194
-7368.451511
-6871.147447
-4807.525992
-5004.041938
-4791.83932
-5823.262846
-5635.061893
-5370.333804
-7030.76945
-7591.131555
-7587.170355
-6855.881236
-5716.494718
-5466.694148
-5823.766357
-5763.682015
-6850.605439
-5770.973179
-6062.497046
-5888.497934
-6259.791696
-4725.683239
-4524.061021
-4383.765824
-4119.102815
-3866.971025
-4150.160941
-5047.228231
-4629.039572
-4903.921475
-4246.015045
-4534.268179
-4987.176304
-2532.153256
-2669.413087
-2345.596604
-1738.05334
-8331.867649
-7589.324241
-7951.095296
-3734.303437
-3803.635407
-1996.805767
-2142.470745
-2146.893624
4591.072893
4617.095573
4440.070943
-2762.889621
-2577.488941
-2539.68705
-2576.912326
-2779.957056
-8957.933816
-7756.354898
-7325.235461
-8013.242356
-7850.811959
-7141.805215
-6407.939258
-7739.84788
-7089.115317
-6963.72359
-6594.479526
-6836.470002
-7309.857886
-7142.779351
-5279.855284
-5074.882599
-4870.547938
-5134.493779
-5346.948132
-4856.751655
-5070.385678
-5418.5338
-5308.803088
-5575.628807
-5353.531065
-3298.06248
-3365.983172
-3335.308056
-3253.729123
-3403.106486
-3777.808361
-3665.866484
-3826.430081
-3452.997124
-3613.039313
-3719.330603
-1811.768295
-1794.946258
-1943.894257
-7726.212869
-7608.646733
-7039.68544
-7804.266141
-7978.690664
-7751.238338
-8020.956544
-8072.912
-8049.099622
-7997.552426
-7022.276243
-7746.310214
-7772.172857
-6276.630963
-6118.646879
-5824.433057
-6200.41974
-6512.958334
-6322.312408
-4094.839533
-4275.930063
-3882.809036
-4043.272587
-4133.705237
-4575.201478
-4782.91783
-4331.735305
-4513.449608
-2781.092903
-2891.318613
-2955.863163
-2769.717379
-3010.316536
-2938.262765
-1827.773307
-2913.618921
-2151.79351
-1451.059214
-2338.500191
-2394.870607
-1675.372966
-2399.056368
-2155.690938
-1616.476862
-1586.415837
1609.353539
3321.003669
4492.042662
-6519.579698
-2491.724338
420.6850533
-2013.240175
-1706.663104
-3950.437741
-6609.058826
-7484.850231
-7683.078386
-1596.108104
-1744.405017
-1747.405843
-2251.051178
-1969.311185
-1918.74495
-7727.816614
-7752.504726
-7013.107097
-1567.441996
-1672.657833
-1681.914239
-1578.947142
-1546.377474
-8952.909195
-3620.17583
-2011.456472
-2084.75402
-2088.916721
-2339.724627
-2184.634419
-2154.497782
-5339.814171
-4821.652346
-5836.284071
-2492.378454
-2544.476329
-2384.916772
-2680.211995
-2229.50794
-5183.836528
-8876.561154
-8379.935844
-8224.502867
-8634.683394
-8669.913353
-3202.053123
-3236.135653
-3183.987647
-3515.012835
-3515.870584
-3489.470538
-3052.450538
-3200.645743
-3274.724515
-3898.312226
-3841.359271
-3897.78831
-1938.706425
-1917.349002
-1950.222107
-4277.42643
-4351.191277
-3955.647174
-4023.926515
-4047.286923
-4420.255991
-4433.249563
-4323.873286
-4463.051709
-4287.178101
-1949.886422
-2226.187022
-2273.118765
-2381.449539
-2332.04493
-2311.587648
4995.884108
5070.183782
4936.235704
-2450.568199
-2475.819028
-2388.184739
-2589.602477
-2532.077688
-2522.325159
-3586.063985
-2883.735508
-6163.627303
-6828.285131
-6842.563007
-6738.087463
-6786.91777
-7470.412182
-7285.370249
-7332.027459
-7195.726
-7241.139213
-7420.049674
-5764.71285
-5677.953195
-5738.534075
-5547.555044
-5615.771642
-5703.482614
-7638.28818
-7421.585671
-7419.407632
-7378.769328
-7412.655512
-7633.029784
-6001.227597
-5912.799342
-5969.851868
-5799.081324
-5856.384286
-5947.170647
-6651.67925
-6694.724996
-6532.181754
-6593.525108
-1574.005491
-1743.015482
-1737.615836
-1729.560819
-1578.734797
-8872.731608
-9163.984602
-8668.622539
-8448.526158
-7967.785968
-7067.225725
-8802.789547
-8469.190335
-3669.843851
-3821.582973
-2146.851298
-2137.5272
-2143.057509
4668.71618
-2664.105195
-2588.526021
-2720.681788
-8581.023525
-8494.732427
-8932.387241
-7965.491263
-8326.064387
-8341.446004
-8713.479127
-8696.922006
-7033.402643
-6914.806731
-6956.642809
-6860.540165
-6875.963418
-6982.766876
-7249.40452
-7096.917554
-7147.314723
-7002.04683
-7048.318078
-7195.254736
-5212.621222
-5136.818253
-5203.506057
-5201.20328
-5275.880532
-4903.335834
-4933.572565
-4906.040182
-5006.983961
-5496.493524
-5533.16099
-5487.020073
-5402.640292
-5475.574643
-5273.045274
-5340.692355
-5428.819889
-3337.84642
-3244.692535
-3239.392703
-3259.038584
-3195.785348
-3255.662789
-3437.617185
-3461.377472
-3392.722671
-3735.759839
-3779.845187
-3803.379656
-7677.68212
-7467.201345
-7493.409454
-7427.176227
-7443.787563
-7638.752248
-7860.220101
-7913.613661
-8062.70126
-8388.078189
-8310.734962
-8453.278393
-8460.945655
-8091.612144
-8067.40009
-8262.014991
-8236.356791
-7994.012244
-6228.781838
-6132.432516
-6180.818258
-6024.514492
-6079.11972
-6171.652938
-6455.738936
-6361.235333
-6447.30358
-6229.240486
-6287.92915
-6383.829559
-4185.799806
-4222.342946
-4117.111245
-4084.374561
-4109.23417
-4634.115843
-4665.567762
-4614.80976
-4821.369047
-4732.738507
-4702.098681
-4378.73881
-4411.401843
-4384.076465
-4560.004369
-4505.757041
-4445.702712
-2894.786366
-2879.019746
-2946.120574
-2765.96417
-2818.4564
-2853.501185
-3082.233167
-3129.342581
-2993.94269
-2997.411036
-3008.499433
-1890.497029
211.9086118
203.1983478
153.1065657
-20.76901676
-10.22107932
-77.86632901
-236.9564798
-212.550355
-286.2347311
-417.3228528
-386.7001476
-456.2700465
-554.9728513
-524.1243844
-583.166442
-653.0824492
-626.9448642
229.6720647
214.9769405
158.1318896
-57.46881031
-27.76125055
-125.9277851
-310.3940345
-250.7216919
-363.7551918
-498.4993632
-432.7914114
-535.7106134
-628.037729
-569.9427757
-653.3067757
-714.3682238
-665.6833842
275.3346845
237.2878267
174.9086028
-127.3414007
-70.94985632
-219.8855425
-450.3741524
-337.7102175
-510.1398596
-644.2498302
-527.9809205
-677.1050308
-749.088047
-652.9639027
-766.1147198
-803.7900014
-734.3643809
388.2067779
294.953944
220.1138437
-285.510647
-154.1661684
-426.3303138
-720.4709271
-501.5393024
-781.8006299
-887.3242205
-694.6709472
-902.8530688
-921.5615067
-787.4995777
-922.6915355
-919.5438013
-830.3813346
626.9230262
435.9089385
411.4310878
-803.1056021
-360.2693235
-1007.426308
-1259.610085
-822.8308394
-1273.908034
-1240.686241
-964.4575616
-1216.792676
-1139.759034
-973.0764251
-1115.387215
-1052.671556
-951.7599332
473.0784192
-1015.271639
-381.9812804
-1781.827116
-1707.967121
-1394.509344
-2013.045535
-1674.727886
-1345.619678
-1584.307196
-1367.809284
-1198.427759
-1311.380552
-1179.482939
-1086.097425
-4033.260657
-3255.638236
-2731.148133
-2634.796878
-2015.022318
-1777.605818
-1866.921896
-1535.801341
-1418.311104
-1454.022289
-1268.547642
-1206.609549
-4572.944939
-3746.688039
-3702.385058
-2702.752161
-2078.71583
-2059.948389
-1922.829943
-1572.218578
-1559.17872
-1485.952868
-1289.180583
-1280.975084
-3743.470718
-3240.450779
-3490.05941
-2321.53617
-1877.717268
-2049.837371
-1760.414146
-1482.784191
-1561.57371
-1410.80144
-1241.177071
-1283.560121
-2620.73861
-2387.215456
-2713.607926
-1757.968275
-1532.250277
-1799.801273
-1466.67608
-1298.779765
-1442.770589
-1251.970517
-1134.915983
-1218.810857
-1572.761188
-1590.755562
-1800.775937
-1437.7113
-1245.69684
-1102.581899
-4895.615794
-5482.414614
-5563.156735
-3710.68021
-4162.117992
-3812.180957
-4629.39563
-5061.832048
-4837.935088
-5564.693422
-5523.830837
-4996.72158
-3466.519398
-3697.122673
-3434.690364
-4756.597592
-4501.835951
-4236.314865
-2268.236877
-2323.535936
-2174.531115
-3278.205974
-3111.256662
-3003.042408
-2027.359029
-1881.677136
-1851.89662
1796.962218
3333.749326
4159.033943
1022.495343
-2896.973458
-525.1416194
-2685.902902
-2765.983072
-3232.056402
-603.8012742
-1306.487
-1729.459505
-6749.269609
-7013.402938
-7088.795838
-4957.004427
-5563.54291
-5142.608011
-3668.037136
-3377.239356
-4226.892576
-2791.217931
-3124.945598
-3286.226468
-2621.243836
-2899.564549
-2611.13245
-6493.918607
-6645.054096
-6598.96142
-7147.208532
-7110.345154
-6935.757475
-3572.453988
-3710.654473
-4513.50607
-3030.643365
-3382.086392
-3307.657748
-3379.67597
-3409.109947
-3042.232832
-4682.070721
-4741.910906
-4677.907605
-5639.885975
-5580.036212
-5489.537628
-2827.486119
-3134.408604
-3605.467363
-2651.623189
-2887.092131
-2707.278434
-3195.182739
-3052.145764
-2783.816469
-3086.40393
-3135.832575
-3037.827826
-3791.188024
-3632.316081
-3576.069416
-1603.129922
-1656.561372
-1664.331274
-1835.940643
-1876.538256
-1600.292474
-2202.436573
-2112.576672
-2091.232419
-7010.103674
-7202.713703
-7180.137442
-7145.779615
-7192.108311
-6947.289895
-5175.154303
-5432.929735
-4781.880073
-6654.135984
-6249.914152
-6152.903953
-6406.579054
-6417.129653
-6846.890654
-5661.126889
-5755.363564
-5698.431312
-6554.342817
-6508.200684
-6365.202894
-5314.156257
-5130.346329
-4663.129781
-6134.277275
-5807.854792
-5903.840222
-5316.628363
-5416.022095
-5674.043672
-6714.676252
-6351.929019
-6384.731502
-5948.35989
-6020.436377
-6423.776112
-4855.832228
-5491.112799
-5365.130964
-3884.374455
-4005.407001
-3845.23098
-4615.344152
-4552.243703
-4502.283103
-4053.334276
-3784.940122
-3622.534312
-4337.944914
-4240.944742
-4347.428821
-3501.007361
-3774.578008
-4013.487839
-5284.575044
-5110.089834
-5214.480114
-4455.970937
-4566.109583
-4746.268315
-4086.968652
-4413.25089
-4143.500362
-2353.951849
-2383.898573
-2292.865803
-2941.070732
-2845.65192
-2804.913494
-1509.485872
-1550.196181
-6509.06203
-7414.136587
-6785.386327
-2022.07062
-2274.472047
-2483.45958
-2011.893342
-2126.337982
-1930.094602
-2517.87596
-2323.129284
-2180.381674
-2081.32652
-2134.110922
-1986.383892
-2310.14882
-2261.537967
-2252.882052
-5537.995758
-4613.937978
-3819.172128
-6027.291355
-5868.575381
-6281.703858
-4127.60246
-4586.433676
-5052.819084
-2396.388681
-2410.345007
-2359.399161
-2708.905126
-2661.175286
-2640.349594
-2630.562745
-2475.472048
-2411.944576
-2587.067522
-2541.269292
-2732.070337
-2218.415408
-2377.460305
-2499.771384
-3318.603608
-3154.287974
-3413.296488
-2817.91015
-3066.795564
-3223.863945
-2852.682493
-2948.49675
-2788.286146
1353.37967
-3606.688123
-3683.823767
-4308.725609
-762.8786218
-1688.973552
-2279.330216
615.550549
-1328.650388
-514.3244891
-6957.132426
-7391.354318
-6574.395366
-7306.594299
-6123.825162
-5328.583308
-8042.634456
-7816.780568
-8383.443796
-5590.209437
-6098.417711
-6792.101459
-6825.574189
-6788.708407
-6654.663072
-6763.023088
-6907.531109
-6865.926919
-5131.387034
-5066.375408
-4995.586632
-5183.572252
-5262.463891
-5197.388913
-3335.163145
-3235.015204
-3181.968786
-3446.907235
-3413.409677
-3460.156216
-3098.12918
-3148.505335
-3174.400445
-3509.243616
-3562.398681
-3592.673434
-3475.81482
-3580.74851
-3424.685399
-1700.7412
-1709.99397
-1613.025817
-1935.779588
-1789.25505
-1795.366702
-7273.50159
-7259.930508
-7055.793402
-7060.104047
-7279.261493
-7280.325261
-6077.763286
-6027.392245
-5928.364385
-6083.693214
-6184.457809
-6128.625475
-5693.076482
-5780.215383
-6081.998129
-5381.988448
-5574.175511
-5496.270933
-5723.539804
-5651.71985
-5449.239942
-5076.52106
-5242.458984
-5150.479557
-5415.757915
-5331.017547
-5157.923367
-5726.759753
-5512.259096
-5604.745185
-6261.992153
-6310.33945
-6683.859731
-5785.210407
-6040.031609
-6001.433738
-6092.902723
-6070.903801
-5807.367538
-5624.355847
-5846.307985
-5790.065648
-5955.824588
-5903.566778
-5673.806031
-6457.140248
-6149.318973
-6207.697902
-4230.936482
-4058.726208
-3947.681606
-4211.316973
-4256.088195
-4199.591997
-2916.07398
-2886.559805
-3001.020139
-2694.403152
-2789.71997
-2868.086044
-2712.682127
-2751.785748
-2659.073045
-2785.576756
-2801.244027
-2753.261965
-3113.200653
-3049.359482
-3032.040492
-1517.080736
-2251.039114
-2264.876117
-2201.250028
2234.198663
3002.052512
1483.263752
3190.532668
2634.593005
4395.626207
3475.863104
-4695.724901
-4821.283849
-5631.217886
-1350.850674
-2234.987006
-2659.706611
610.6146456
-1834.639076
-551.1552861
-6715.736308
-6686.932507
-6531.374347
-6904.099258
-7072.894853
-7034.046899
-4872.123635
-4807.071271
-4743.954001
-4928.791525
-4866.963214
-4934.896026
-4734.841092
-4799.620235
-4851.680892
-5430.583427
-5519.229437
-5456.138236
-7223.505609
-7213.706284
-7021.600865
-6369.264778
-6320.74043
-6714.455031
-5652.586177
-5970.495347
-6029.247929
-5788.956281
-5891.146865
-5570.414206
-5815.876464
-6104.446985
-6104.334793
-6069.985142
-6093.740522
-5796.622853
-6855.00916
-6418.324158
-6406.411861
-5866.946415
-5811.656847
-5716.501757
-6315.37237
-6453.009161
-6387.627875
-4653.815121
-4604.224211
-4670.465879
-4478.047622
-4539.625181
-4586.255893
-4440.137313
-4490.588996
-4430.005684
-4033.089091
-4136.12248
-4227.219689
-3960.468531
-4047.809806
-3949.55522
-4248.327843
-4147.429458
-4054.79368
-4895.902854
-5003.83675
-5225.721134
-4722.584234
-4860.379712
-4760.008993
-5055.824231
-4958.980792
-4814.120849
-4342.330173
-4452.74629
-4350.26194
-4658.215218
-4555.54146
-4438.398305
-4806.562572
-4676.468392
-4786.596217
-2566.825157
-2475.080915
-2442.759549
-2523.577629
-2505.463911
-2599.629591
-2319.777816
-2412.43968
-2441.373433
-7433.274539
-8029.133125
-8483.79872
-2050.756011
-2066.061642
-2004.504319
-2146.906701
-2114.155146
-2098.480417
4708.258332
-2709.811154
-2683.136351
-2731.484142
-2569.724088
-2623.060628
-2637.375634
-2590.168035
-2608.303225
-2556.467075
-7636.75312
-8047.812653
-8165.507712
-7742.60983
-7907.503443
-7492.569449
-8262.86504
-8312.382857
-7918.431524
-6933.336774
-7329.036058
-7554.702536
-6767.376389
-7070.110474
-6703.602081
-8110.33523
-7532.422053
-7199.874135
-6622.36424
-6755.564133
-6736.450773
-6993.089245
-6950.305513
-6800.196414
-5002.85598
-5070.360753
-5144.214287
-4933.233751
-5001.975303
-4937.193404
-5391.437872
-5326.669718
-5246.233291
-3308.012639
-3363.629341
-3397.927475
-3303.115467
-3332.034224
-3279.13679
-3432.302475
-3382.133225
-3355.169217
-3719.084507
-3752.379504
-3700.614251
-3859.690935
-3805.285457
-3772.280393
-3505.706562
-3535.674857
-3483.053999
-3647.608372
-3591.325719
-3559.398082
-3651.758887
-3621.224216
-3682.842473
-1807.115044
-1869.909852
-1886.502801
-1846.232595
-1856.985939
-1802.26986
-1949.882529
-1904.593462
-1894.824635
-7048.56795
-7244.847008
-7232.611695
-7257.643225
-7273.131883
-7057.135727
-7759.816576
-7512.632202
-7501.293476
-7513.570189
-7519.174748
-7785.284373
-5877.118847
-5974.938214
-5921.263108
-6315.211734
-6247.547685
-6141.024923
-4149.953005
-4188.62147
-4132.272818
-4323.496754
-4251.423315
-4211.384529
-3939.761987
-3980.615132
-3918.513074
-4076.63246
-4034.460319
-3992.832715
-2917.102435
-2857.644356
-2838.47888
-2982.717925
-2996.125213
-2962.949962
-2552.044121
-2074.263372
-2029.795235
-1904.951006
-1994.838252
-2308.176114
-1440.53526
-1698.616569
-1667.068271
-1738.990081
-1553.89538
-1511.846407
-1904.694203
-1907.706028
-2062.252772
-1607.814945
-1756.394185
-1774.39872
2465.192221
2877.028573
1796.463313
3693.916514
3415.394842
3004.504468
4494.509072
3930.0778
4109.4295
-4736.866698
-4763.804534
-6368.432466
-1801.078858
-2802.865256
-3418.28234
120.7495739
-1547.425928
-786.6398339
-2244.27028
-2314.086239
-1871.042794
-3546.184219
-2831.544681
-2727.205738
-6897.147897
-6956.45331
-6685.221089
-7564.420849
-7242.941985
-7167.589392
-7373.872952
-7311.338041
-7629.072189
-1645.744514
-1649.739616
-1598.509019
-1747.930357
-1697.576502
-1694.918121
-1711.949646
-1703.78154
-1750.076996
-2156.434027
-2135.367809
-2227.534094
-1951.810178
-2043.431229
-2062.551476
-7755.533573
-7463.331144
-7425.302945
-7493.866397
-7484.775621
-7762.933819
-6968.636918
-7219.855664
-7243.798638
-1547.904104
-2292.92993
-2276.099796
-2324.220314
-2173.432294
-2225.283184
-2239.024717
-2201.286302
-2212.173572
-2162.561542
-5187.780077
-5507.192363
-5661.713419
-6083.108676
-5674.514625
-5443.360004
-2507.929606
-2460.215595
-2447.795936
-2498.603977
-2478.403745
-2524.626269
-2373.258531
-2425.749355
-2438.832743
-2605.977046
-3114.803992
-3123.83794
-2923.991146
-3050.867886
-2459.491316
-4509.731984
-3734.360693
-3781.330061
-3099.874534
-3123.643994
-3073.445243
-3226.166069
-3173.913917
-3151.886182
-3222.272399
-3199.147882
-3252.012232
-4371.398322
-4313.022523
-4269.262701
-4401.997296
-4359.082488
-4418.374988
-4242.894382
-4300.408956
-4343.035614
-3389.993373
-4083.801923
-4086.282378
-3710.787517
-3958.980465
-3179.740546
-5900.68125
-4862.459165
-4708.744181
123.0452388
19.49631157
20.30029702
-82.11130168
-179.6765117
-176.7572887
-271.0923628
-354.6753728
-350.118857
-429.8596934
-496.4907014
-491.7630541
-554.6952129
-604.9436904
-600.7735042
-647.9606421
-684.6095714
-680.9530777
-714.7497634
-739.580097
-736.9471912
152.258756
96.56517829
96.22441065
-64.9359568
-118.163102
-113.9600128
-265.1833669
-311.069164
-304.045104
-432.3360797
-468.218609
-459.9598523
-560.5872195
-587.1505919
-579.5570052
-672.6356991
-709.4318984
-694.1880275
-736.3381126
-757.9939555
-746.6066596
-775.5361866
-789.1167293
-781.647017
154.9841414
90.909442
93.18811912
-97.62254223
-156.7838095
-143.5311557
-318.1404197
-365.5915341
-347.3709082
-489.5039035
-524.7829305
-507.0483641
-613.8607025
-638.0764246
-622.3257424
-730.3897318
-755.6496223
-729.9735216
-775.9306706
-791.6822872
-773.1664997
-803.9357037
-812.6491155
-800.4260908
163.6300526
79.16775267
82.2644264
-165.1072883
-238.818061
-213.0888049
-426.1109052
-476.7234888
-442.4134666
-597.1345467
-628.4052174
-597.0351685
-704.008762
-723.8636069
-698.6669138
-812.8254636
-821.3503644
-786.2674984
-830.7700142
-837.7367089
-813.3128585
-842.561306
-845.6235933
-828.7182898
193.1452319
63.28661405
68.43103776
-299.9721431
-400.3802498
-348.1515314
-624.3376609
-675.5884371
-614.3256543
-779.8342508
-800.6568515
-750.9363794
-838.8272158
-846.7527075
-812.3649941
-918.1689267
-900.6885604
-859.484371
-896.8659685
-892.299897
-864.319893
-887.156001
-882.6279522
-863.7235417
254.9709602
-1.305186449
28.13798114
-636.0528567
-770.9414317
-644.9781156
-996.3960329
-1026.93053
-922.4020028
-1050.667676
-1044.305759
-976.3590993
-1015.532066
-1004.859932
-962.6055282
-1035.408106
-987.803997
-943.9416351
-967.20603
-948.3070413
-920.6495574
-931.7711862
-918.0743003
-900.6239836
454.4538458
105.5206913
149.0958862
-1620.488912
-1567.187158
-1414.646518
-1400.820655
-1349.164048
-1269.667621
-1216.461829
-1180.159357
-1136.764188
-1146.019555
-1069.831885
-1030.842984
-1030.168633
-996.8698148
-974.1192551
-969.6125777
-947.4968173
-932.363854
-3530.018709
-3294.604231
-3042.563316
-2378.313908
-2182.166551
-2042.097432
-1746.83462
-1639.068789
-1574.648594
-1392.985836
-1331.247758
-1298.303208
-1222.532835
-1125.830505
-1102.009012
-1071.994019
-1027.83293
-1015.144865
-991.8614323
-963.5009753
-955.7194068
-4618.979622
-4290.690559
-4270.005284
-2741.084855
-2487.096228
-2454.94137
-1927.805891
-1792.172543
-1772.181894
-1486.889144
-1411.360181
-1400.226423
-1240.258166
-1142.485885
-1139.786209
-1082.073063
-1032.734551
-1033.874672
-992.557666
-960.7728749
-962.70327
-4008.006241
-3796.618431
-3902.53524
-2551.077053
-2345.123328
-2415.176645
-1866.656287
-1745.208392
-1772.776347
-1463.28733
-1391.827813
-1402.484204
-1197.328048
-1113.384139
-1133.430474
-1055.71903
-1008.300834
-1024.17136
-968.9347991
-937.6434948
-949.9430249
-2899.582932
-2797.847921
-2927.909135
-2048.49631
-1926.902201
-2045.78428
-1623.111192
-1540.419144
-1601.054885
-1338.571077
-1284.795707
-1317.553045
-1102.646487
-1043.800134
-1082.981306
-996.3702597
-956.6137644
-985.5369296
-922.8509937
-895.6237037
-917.2830009
-1822.453255
-1802.434266
-1918.368642
-1469.601697
-1427.335423
-1551.720201
-1303.097677
-1263.982692
-1335.553728
-1157.296673
-1125.755954
-1168.361308
-997.6422632
-922.5646176
-867.7900594
778.9850784
-4223.447789
-4147.532164
-4491.568274
-3999.347648
-4085.132762
-4342.214031
-3057.663184
-3186.968632
-3323.878495
-1668.229616
-1673.775464
-1587.320418
-6648.858599
-6650.338923
-6827.295751
-6230.514965
-6101.736996
-6143.138523
-5425.060327
-5472.92124
-5566.680302
-6768.416925
-6613.28229
-6621.759579
-6182.053048
-6218.460427
-6354.364411
-3637.712592
-3734.479065
-3807.697628
-5399.729445
-5316.189842
-5365.789757
-1504.294402
-2048.496352
-2163.191543
-2214.359702
-4806.983738
-4534.63623
-4174.978828
-2764.014681
-2724.113545
-2812.111738
-2225.00517
-2302.646841
-2326.554676
-3511.131678
-3447.679869
-3541.946839
-2900.424568
-2989.565784
-3037.099004
1359.108084
1491.797085
1097.375083
654.3769574
156.471122
207.4618084
-6315.268133
-5962.874327
-5488.59396
-5828.586656
-5870.247007
-5977.285652
-5828.383329
-5732.983497
-5774.506083
-6454.984999
-6475.699427
-6620.145542
-6521.215324
-6392.603374
-6414.772831
-4144.769475
-4089.824625
-4050.268765
-3015.059512
-2993.429469
-3046.006118
-2703.025407
-2749.193511
-2766.981549
-6656.643487
-6623.293484
-6861.098643
-6858.551918
-6683.506535
-6662.193243
-4977.027788
-5030.272547
-5106.891917
-4926.910368
-4860.959033
-4915.07639
-2621.305199
-2607.280802
-2652.465559
-2777.508294
-2505.827804
-2594.868664
-2071.104016
-2058.352704
-2136.731751
-1717.686828
-1738.532947
-1598.011536
-1964.082909
-2339.372259
-2331.619687
-3799.463934
-3416.131654
-3515.97352
-2004.854903
-2023.305363
-1934.708003
-5107.896659
-5322.159841
-5015.089951
-5005.130162
-4565.052328
-4600.55348
209.2020287
205.8300482
95.29873387
97.05626851
152.5134145
-15.31179576
39.85969487
36.43821576
44.82459172
42.93411409
-12.31066936
-132.510833
-123.7787694
-70.82239961
-225.9644933
-176.4092036
-186.2431435
-163.0928928
-168.3888205
-218.4082862
-332.221091
-319.9339161
-274.6459181
-404.4160605
-363.9897466
-376.4923016
-346.573046
-353.6675349
-394.6763964
-491.6569406
-478.4129491
-443.2685139
-542.1177234
-511.9391951
-524.966057
-493.6467765
-501.1291043
-532.2016115
-608.4286537
-596.4472645
-570.818077
-642.1653912
-620.6847222
-632.0563147
-604.8677446
-611.3072214
-633.7022863
223.6535017
218.8336019
85.3910893
88.31201142
156.3986227
-45.93191278
20.49903133
13.20237208
32.08958614
26.77844593
-36.09739697
-191.1866869
-172.5555443
-110.6000879
-287.0767559
-231.5886303
-252.8626616
-198.5592671
-213.5977428
-267.3125306
-412.7563341
-387.2739801
-339.0768895
-472.987475
-431.941224
-457.6491137
-391.6669694
-410.0380015
-451.1823416
-569.459292
-545.4393514
-510.8153719
-606.1754743
-577.2657528
-600.17299
-540.0677825
-557.3683594
-586.9243246
-675.9201573
-655.8706197
-632.3964819
-696.1453849
-677.0755681
-696.2505965
-645.1821698
-660.1105675
-679.9096839
259.6424928
247.1302038
72.50472744
75.99384394
168.5380702
-105.2393086
-15.97089822
-29.14995504
4.806377763
-4.822849669
-86.70503852
-305.1025511
-269.1396951
-190.0991095
-406.834572
-341.5502582
-382.0808883
-277.85699
-307.1571012
-369.605494
-561.8169659
-516.2815177
-465.0089284
-600.2899168
-561.1745789
-606.1903382
-487.4732868
-521.8160969
-561.7653144
-705.0213319
-664.0386807
-634.3665694
-713.5307118
-690.3008257
-728.6898138
-626.4165682
-656.3005331
-681.4342721
-780.4827502
-751.0789154
-733.8002672
-778.9341938
-766.0009632
-792.9581687
-717.6549437
-740.9857087
-755.8508492
350.0081693
319.4559149
45.41467977
56.16417577
205.4785841
-229.7862502
-91.04490236
-126.148878
-45.14204947
-65.13590199
-187.4213451
-545.2732161
-464.9180285
-355.3869232
-634.7564037
-557.8615274
-642.563887
-430.1785754
-487.9008085
-562.3115636
-829.0052131
-746.9795069
-696.9795014
-816.7223555
-786.4855492
-863.6583081
-657.8433652
-717.7439514
-752.1852794
-912.8849806
-854.3977074
-838.7752046
-873.660889
-865.5644864
-918.6383578
-770.9790735
-816.4400003
-828.9382346
-922.4076291
-883.4877432
-879.4381246
-888.3726934
-886.3161285
-921.198761
-822.0429323
-853.224006
-858.65497
574.475096
496.9983564
-276.4876571
-50.91152185
272.3968016
-602.7723364
-353.767614
-517.9070413
-175.6665355
-247.5091818
-461.7659764
-1137.91318
-932.8007299
-793.8798549
-1091.806543
-1029.286212
-1218.196369
-745.2463702
-872.1596869
-945.9381992
-1273.90132
-1143.230196
-1127.11443
-1142.197217
-1147.77879
-1260.447342
-948.9096854
-1042.967428
-1048.932095
-1191.264129
-1115.735492
-1130.746905
-1081.922692
-1099.14107
-1165.367294
-976.4504957
-1035.869353
-1026.072478
-1092.642284
-1048.446191
-1064.900551
-1018.817052
-1033.022703
-1071.692125
-957.0965232
-994.6154746
-985.0537131
-112.3477288
29.20658069
472.4035783
-735.0775531
-387.7933977
-622.4681019
-130.6793931
-235.8992391
-534.3652265
-1888.165945
-1727.314152
-1814.519915
-1566.116772
-1644.152443
-1775.736016
-1381.889679
-1511.216146
-1455.209777
-1503.5113
-1427.702922
-1493.867309
-1313.617285
-1367.698453
-1431.62089
-1233.057452
-1301.012957
-1256.730038
-1261.645863
-1222.071905
-1265.197896
-1150.040599
-1183.816346
-1217.874392
-1110.069254
-1147.659161
-1118.791487
-3727.743046
-3524.160132
-3799.059826
-3087.770586
-3290.994247
-3471.754079
-2392.640343
-2300.756114
-2524.094798
-1951.338392
-2112.004804
-2188.398147
-1900.951428
-2014.83984
-1871.053945
-1739.814516
-1695.052799
-1813.648701
-1503.865423
-1592.597142
-1630.343195
-1491.374821
-1545.426999
-1463.937678
-1383.197716
-1360.105305
-1426.902903
-1251.749969
-1302.110454
-1321.79457
-1249.41572
-1277.755669
-1231.001662
-4262.423566
-4287.260264
-4603.689083
-3740.959047
-4000.848728
-3987.958785
-3970.860461
-3999.21148
-3745.102332
-2463.586148
-2486.682082
-2737.901808
-2090.417759
-2273.536896
-2257.446953
-2241.390347
-2270.383495
-2085.755106
-1787.502146
-1797.492208
-1933.019006
-1578.947386
-1680.295916
-1671.612809
-1657.845779
-1675.195201
-1574.161752
-1410.969493
-1415.427687
-1491.314482
-1292.402071
-1349.714136
-1345.939949
-1336.375846
-1345.902738
-1289.069048
-3563.997103
-3683.184886
-3878.150772
-3324.979847
-3499.540009
-3394.776194
-3689.965462
-3599.769342
-3422.763054
-2156.900794
-2257.660561