/*--------------------------------*- C++ -*----------------------------------*\
| =========                 |                                                 |
| \\      /  F ield         | OpenFOAM: The Open Source CFD Toolbox           |
|  \\    /   O peration     | Version:  v2012                                 |
|   \\  /    A nd           | Website:  www.openfoam.com                      |
|    \\/     M anipulation  |                                                 |
\*---------------------------------------------------------------------------*/
FoamFile
{
    version     2.0;
    format      ascii;
    class       surfaceScalarField;
    location    "0.36";
    object      meshPhi;
}
// * * * * * * * * * * * * * * * * * * * * * * * * * * * * * * * * * * * * * //

dimensions      [0 3 -1 0 0 0 0];
oriented        oriented;


internalField   nonuniform List<scalar> 
6430
(
0
0
0
0
0
0
0
0
0
0
0
0
0
0
0
0
-2.486465012e-05
0
3.197716127e-05
3.787633343e-06
5.520310591e-06
-0.0001637828781
-1.921445135e-05
0.0001747217974
3.052641313e-05
-0.0004614869226
-7.603992941e-05
0.0004681574262
9.262884089e-05
-0.0005692358861
-0.0001377144117
0.0005719734969
0.0001477271715
-0.0004137008189
-0.0001623422377
0.0004138316588
7.543468307e-05
8.677671477e-05
-5.687796839e-05
-3.622296407e-05
5.688691301e-05
3.621401945e-05
0
0
0
0
0
0
0
0
0
0
0
0
0
0
0
0
-3.665261362e-05
0
3.029478129e-05
1.064344124e-05
1.098648474e-05
-0.0001912664
-4.81504719e-05
0.0001856533939
7.536377621e-05
-0.0004869387661
-0.0001766000664
0.0004792542861
0.0002120015745
-0.000575697273
-0.0003020948817
0.000571465859
0.0003224603456
-0.0004090053953
-0.0003441934257
0.0004090053953
0.0001664821355
0.0001777112902
-5.578030639e-05
-0.0001664821355
0.0001083561174
-5.257581106e-05
8.178810999e-05
8.469402551e-05
0
0
0
0
0
0
0
0
0
0
0
0
0
0
0
0
-1.901006038e-05
0
7.025818964e-06
7.302898207e-06
4.928016843e-06
-0.0001460626617
-5.184673614e-05
0.0001270355898
8.761540088e-05
-0.00042198953
-0.000230196072
0.0003923850203
0.0002826139498
-0.0005353082737
-0.0004241017138
0.0005138564957
0.000459949909
-0.0004094412288
-0.0005201383229
0.0004066119211
0.0005249902688
-0.0001083561175
-0.000525287403
0.000203898143
0.000525287403
-9.554202551e-05
0
0
0
0
0
0
0
0
0
0
0
0
0
0
0
0
-1.722050479e-07
0
0
5.180954292e-08
0
-6.379983693e-05
-2.307011431e-05
4.408822863e-05
5.209634534e-05
-0.0002800488506
-0.0001936685894
0.0002378680808
0.0002522934259
-0.0004182649088
-0.0004298917588
0.0003770305361
0.0004825940339
-0.0003672987595
-0.0006020277782
0.0003432191565
0.0006276386667
-0.000196659001
-0.0006681565627
0.0001872525182
0.0006723131138
0
0
0
0
0
0
0
0
0
0
0
0
0
0
0
0
0
0
0
0
0
-4.706015684e-06
-6.322373761e-08
7.792315936e-07
4.795851812e-06
-0.0001145829136
-8.412848863e-05
7.927292198e-05
0.0001283341161
-0.0002380570192
-0.0002865015355
0.0001912019806
0.0003406664285
-0.0002456428334
-0.0004825048856
0.000208299932
0.000518901819
-0.0001410974582
-0.0005872716548
0.0001219409642
0.0005959960146
0
0
0
0
0
0
0
0
0
0
0
0
0
0
0
0
0
0
0
0
0
0
0
0
0
-9.281575267e-06
-2.526273625e-06
1.4556446e-06
1.179768559e-05
-7.008896572e-05
-8.248408996e-05
4.081141564e-05
0.0001148318087
-0.0001001532271
-0.0002144451235
6.967623244e-05
0.0002435548163
-6.379031663e-05
-0.0003034521991
4.659061637e-05
0.000312158417
0
0
0
0
0
0
0
0
0
0
0
0
0
0
0
0
0
0
0
0
0
0
0
0
0
0
0
0
0
-2.246420233e-07
0
0
4.816131151e-07
-9.156246324e-06
-1.320814176e-05
1.444954535e-06
2.049554224e-05
-9.455908838e-06
-4.001689706e-05
3.135694192e-06
4.346262226e-05
0
0
0
0
0
0
0
0
0
0
0
0
0
0
0
0
0
0
0
0
0
0
0
0
0
0
0
0
0
0
0
0
0
0
0
0
0
0
0
0
0
0
0
0
0
0
0
0
0
0
0
0
0
0
0
0
0
0
0
0
0
0
0
0
0
0
0
0
0
0
0
0
0
0
0
0
0
0
0
0
0
0
0
0
0
0
0
0
0
0
0
0
0
0
0
0
0
0
0
0
0
0
0
0
0
0
0
0
0
0
0
0
0
0
0
0
0
0
0
0
0
0
0
0
0
0
0
0
0
0
0
0
0
0
0
0
0
0
0
0
0
0
0
0
0
0
0
0
0
0
0
0
0
0
0
0
0
0
0
0
0
0
0
0
0
0
0
0
0
0
0
0
0
0
0
0
0
0
0
0
0
0
0
0
0
0
0
0
0
0
0
0
0
0
0
0
0
0
0
0
0
0
0
0
0
0
0
0
0
0
0
0
0
0
0
0
0
0
0
0
0
0
0
0
0
0
0
0
0
0
0
0
0
0
0
0
0
0
0
0
0
0
0
0
0
0
0
0
0
0
0
0
0
0
0
0
0
0
0
0
0
0
0
0
0
0
0
0
0
0
0
0
0
0
0
0
0
0
0
0
0
0
0
0
0
0
0
0
0
0
0
0
0
0
0
0
0
0
0
0
0
0
0
0
0
0
0
0
0
0
0
0
0
0
0
0
0
0
0
0
0
0
0
0
0
0
0
0
0
0
0
0
0
0
0
0
0
0
0
0
0
0
0
0
0
0
0
0
0
0
0
0
0
0
0
0
0
0
0
0
0
0
0
0
0
0
0
0
0
0
0
0
0
0
0
0
0
0
0
0
0
0
0
0
0
0
0
0
0
0
0
0
0
0
0
0
0
0
0
0
0
0
0
0
0
0
0
0
0
0
0
0
0
0
0
0
0
0
0
0
0
0
0
0
0
0
0
0
0
0
0
0
0
0
0
0
0
0
0
0
0
0
0
0
0
0
0
0
0
0
0
0
0
0
0
0
0
0
0
0
0
0
0
0
0
0
0
0
0
0
0
0
0
0
0
0
0
0
0
0
0
0
0
0
0
0
0
0
0
0
0
0
0
0
0
0
0
0
0
0
0
0
0
0
0
0
0
0
0
0
0
0
0
0
0
0
0
0
0
0
0
0
0
0
0
0
0
0
0
0
0
0
0
0
0
0
0
0
0
0
0
0
0
0
0
0
0
0
0
0
0
0
0
0
0
0
0
0
0
0
0
0
0
0
0
0
0
0
0
0
0
0
0
0
0
0
0
0
0
0
0
0
0
0
0
0
0
0
0
0
0
0
0
0
0
0
0
0
0
0
0
0
0
0
0
0
0
0
0
0
0
0
0
0
0
0
0
0
0
0
0
0
0
0
0
0
0
0
0
0
0
0
0
0
0
0
0
0
0
0
0
0
0
0
0
0
0
0
0
0
0
0
0
0
0
0
0
0
0
0
0
0
0
0
0
0
0
0
0
0
0
0
0
0
0
0
0
0
0
0
0
0
0
0
0
0
0
0
0
0
0
0
0
-3.342856368e-05
3.34304429e-05
-5.687984761e-05
-7.903421697e-05
7.903421697e-05
-5.578030639e-05
-0.0001169754876
-0.0004136378087
5.281813381e-05
6.409434368e-05
0.0001234069239
3.061839081e-05
-0.0001233583766
-6.40955018e-05
-0.0002637755789
-0.0004117752284
0.0001113776383
0.0001551677736
0.0001211796662
7.613355661e-05
-0.0001211796662
-0.0001551677736
3.914215185e-05
-7.536415131e-05
0.0001234059593
5.687900506e-05
-5.61321646e-05
5.612859102e-05
-5.687543148e-05
1.729316935e-05
2.92768398e-05
-1.755422532e-05
-2.901578383e-05
-1.825947589e-05
1.830361444e-05
-1.807631691e-05
1.803217836e-05
-0.0002456721586
0.0002456721586
-0.0001083561174
1.732438518e-05
-1.840369748e-05
-1.718016359e-05
1.71551873e-05
1.760204728e-05
-1.74328494e-05
7.960836092e-05
3.350610775e-05
-7.938470743e-05
-1.738692453e-05
-1.634283672e-05
3.003841677e-05
-2.982067323e-05
1.707542581e-05
-5.895523403e-05
5.689470676e-05
5.893953234e-05
-1.442230754e-05
1.437786043e-05
3.008286388e-05
3.008021562e-05
7.943695955e-05
-1.547911914e-05
-1.44296951e-05
1.690449942e-05
1.855430232e-05
-1.457841907e-05
2.943295134e-05
-2.329703947e-05
8.212110544e-06
-1.627792022e-05
2.379973372e-05
-2.355536294e-05
1.603354944e-05
-4.396874248e-05
-4.758338553e-05
4.398956145e-05
4.756256656e-05
4.399730304e-05
-5.613243601e-05
-4.398905678e-05
2.768413788e-05
2.844005187e-05
-4.411591669e-05
-3.624106407e-05
4.408836872e-05
3.626861204e-05
-4.476109445e-05
4.478593547e-05
-4.39935835e-05
2.33053481e-05
-1.652834128e-05
-2.305492704e-05
-1.677024894e-05
1.249619817e-05
-1.232874039e-05
1.660279116e-05
-4.410470656e-05
-2.501734861e-05
4.409558149e-05
2.502647368e-05
-3.345016625e-05
3.34552878e-05
-4.412103824e-05
-2.217323533e-05
2.219786701e-05
-4.412933824e-05
1.189546277e-05
-1.69660773e-05
-1.16996344e-05
1.590869452e-05
1.214073989e-05
-1.615397164e-05
1.56619781e-05
1.27429146e-05
-5.894692812e-05
4.398150551e-05
2.911390909e-05
2.984881656e-05
4.616463393e-05
-6.567728207e-05
-4.490837879e-05
3.167610226e-05
3.274492466e-05
3.217085211e-05
1.764837119e-05
-1.664822685e-05
-3.317099645e-05
1.703169532e-05
-1.154010919e-05
2.667926597e-05
9.347752822e-06
-9.334318559e-06
-3.442727289e-05
-9.006283277e-06
2.954386866e-05
-2.95863961e-05
9.048810711e-06
1.544317742e-05
2.355984605e-05
-1.569767537e-05
5.396576885e-06
-7.319986273e-06
-2.137363008e-05
2.882427626e-05
-8.980726691e-06
-2.884983285e-05
2.401189697e-05
-2.755878222e-05
8.943462135e-06
1.505942823e-05
2.41834829e-05
8.222186415e-06
8.287805548e-06
-8.242058334e-06
-0.0004791800183
0.0004799385809
-0.0004091783046
0.0002551784324
-0.0004799237299
0.0002342515713
-0.0001339987662
-0.0001211796662
-0.0001664821355
0.0001211796662
0.0001083561175
-0.0002004199661
0.0002004199661
-0.0001083561174
0.0002004199661
6.9901886e-05
-6.9901886e-05
-0.0002004199661
8.204752759e-05
-8.194707109e-05
3.340565125e-05
2.474321054e-05
-1.73525254e-05
-2.53179693e-05
1.792728416e-05
-1.955240761e-05
-2.626014109e-05
1.973860285e-05
2.607394585e-05
1.967268799e-05
-2.849709092e-05
2.85994066e-05
-1.977500368e-05
3.012835943e-05
8.199938377e-05
5.708445359e-05
0.0002004199661
-5.70844536e-05
1.685752794e-05
-9.054523683e-06
9.274826799e-06
-1.707783105e-05
-1.587220881e-05
-1.345942344e-05
1.690243718e-05
1.242919507e-05
2.857825967e-05
-2.469062933e-05
1.376074085e-05
-4.89389138e-05
4.303143265e-05
2.30166381e-05
2.905547698e-05
-7.904588487e-05
4.304729145e-05
7.898117722e-05
-4.298258381e-05
-2.922217009e-05
1.954454743e-05
2.935031065e-05
1.914146697e-05
-3.134981656e-05
3.146814409e-05
-1.92597945e-05
3.21171306e-05
1.638942938e-05
-1.662129901e-05
-3.188526097e-05
8.343033878e-06
1.407307544e-05
-1.420383211e-05
3.224788727e-05
7.228199227e-06
3.1675727e-05
-1.023171531e-05
-2.867221092e-05
7.901473559e-05
2.047941504e-05
-2.044800797e-05
-7.904614266e-05
-3.495772579e-05
9.353944003e-06
4.560995499e-05
1.625787365e-05
-2.075697946e-05
2.094589873e-05
-1.644679291e-05
-1.309861709e-05
1.465203375e-05
2.318979387e-05
-1.908837491e-05
-2.343410647e-05
1.908753042e-05
2.343495097e-05
-2.545202228e-05
2.521427063e-05
-1.931465596e-05
2.322843458e-05
-1.640227636e-05
-2.417868362e-05
2.144488167e-05
-1.725732265e-05
-2.119972263e-05
1.701216361e-05
-1.934468087e-05
-2.075111641e-05
1.925621942e-05
2.083957786e-05
-2.274318755e-05
2.278653023e-05
-1.913171758e-05
-9.776368319e-06
1.662783209e-05
1.000606416e-05
-1.311393211e-05
1.258909077e-05
-1.534736748e-05
3.238027526e-05
-3.219203862e-05
1.620119273e-05
-3.183019601e-05
1.906967468e-05
3.190198829e-05
1.890185677e-05
-3.269647825e-05
3.280944836e-05
-1.901482688e-05
3.424826506e-05
1.226694172e-05
-1.21910974e-05
-3.432410938e-05
3.238588413e-05
-3.735023449e-05
1.219254959e-05
1.368776013e-05
3.276559057e-05
-9.454772084e-06
6.726016567e-06
2.972334921e-05
-2.69945937e-05
1.137839858e-05
3.168839824e-05
-1.139106982e-05
9.233528558e-06
3.175230071e-05
-9.230455104e-06
-3.175537417e-05
1.607640236e-05
2.162635296e-05
9.063059724e-06
-3.334583145e-05
-8.987499632e-06
2.679902463e-05
-2.679053392e-05
8.979008915e-06
2.892107346e-05
-1.177494125e-05
-2.66009043e-05
2.605721227e-05
-8.962258773e-06
-2.608245312e-05
2.460174749e-05
-1.447192999e-05
-1.960470219e-05
-1.774269217e-05
1.95287114e-05
1.781868296e-05
-2.008387784e-05
2.014083185e-05
-1.940163488e-05
-1.750569315e-05
-2.050860897e-05
-1.713285398e-05
-1.414489153e-05
1.781832207e-05
-1.937517723e-05
-1.49021084e-05
1.946264503e-05
1.481464061e-05
-1.713105693e-05
1.710693663e-05
-1.958058189e-05
-1.443354154e-05
1.410551416e-05
1.793007466e-05
-1.607860219e-05
-1.48462078e-05
1.649126846e-05
-1.74898838e-05
-1.602156779e-05
1.432257584e-05
-3.080382482e-05
3.085910941e-05
1.94170966e-05
1.666058105e-05
-1.917317822e-05
-1.401116543e-05
1.39168727e-05
1.951138933e-05
1.864865105e-05
-1.482224507e-05
-2.832653898e-05
2.857036498e-05
-1.925610493e-05
-1.218526848e-05
1.9243079e-05
1.219829441e-05
-1.422303683e-05
1.413633311e-05
-1.928847352e-05
-1.664147522e-05
-1.360531087e-05
-1.757870053e-05
-9.573181281e-06
1.737551349e-05
-1.939153726e-05
-9.322243664e-06
1.93527518e-05
9.361029126e-06
-1.148475753e-05
1.151234001e-05
-1.928368741e-05
-1.52877372e-05
1.508373785e-05
1.234473924e-05
-1.146163857e-05
1.164970511e-05
-1.547580374e-05
-1.12229175e-05
-1.639269272e-05
1.317233181e-05
1.542959885e-05
-1.293995256e-05
-1.482435541e-05
1.444893965e-05
1.354774756e-05
1.300229705e-05
-3.163167972e-05
3.123086714e-05
-1.624741427e-05
1.724060652e-05
-1.719932554e-05
-3.16729607e-05
1.703764484e-05
-3.296803476e-05
3.94483358e-05
1.215123403e-05
-5.159956983e-05
-1.242488513e-05
3.211564308e-05
-3.232163281e-05
9.220127337e-06
1.139873742e-05
3.236554529e-05
1.148014316e-05
3.418188818e-05
-1.141376629e-05
-1.362424705e-05
1.354576752e-05
2.363832559e-05
-2.290874094e-05
-1.366491832e-05
2.294941221e-05
-1.589342724e-05
-2.271298906e-05
-7.947269469e-06
-2.193309538e-05
1.006949116e-05
-3.762827337e-05
2.464090816e-05
8.143488688e-06
-2.271490569e-05
8.936311572e-06
2.464805872e-05
2.436745845e-05
1.45810722e-05
-2.388910241e-05
-1.327298056e-05
1.270658174e-05
2.493385727e-05
2.445626985e-05
8.180681527e-06
-8.153936897e-06
1.332928197e-05
-8.730517039e-06
8.795915498e-06
1.330246198e-05
-9.441283335e-06
9.468103319e-06
-1.129212143e-05
-1.077242026e-05
2.206454169e-05
1.394550065e-05
-1.453294727e-05
-1.498514713e-05
1.408443998e-05
-1.384807349e-05
-2.379186801e-05
1.88761243e-05
2.381760048e-05
1.907600219e-05
-3.717815777e-05
3.733231085e-05
-1.923015527e-05
3.91261048e-05
1.699568282e-05
-1.792673573e-05
-3.819505189e-05
-3.133167598e-05
3.155980731e-05
-1.684943033e-05
1.761997865e-05
-1.787903971e-05
-3.107261491e-05
1.73870987e-05
-3.165238102e-05
3.167855103e-05
-1.272703531e-05
3.107672095e-05
-2.858140095e-05
3.518998805e-05
-4.791702336e-05
1.547001666e-05
3.980039268e-05
-1.614430453e-05
1.242427498e-05
3.725851597e-05
-1.21697312e-05
-3.751305976e-05
3.527419804e-05
-3.736035503e-05
1.435309872e-05
-1.383299086e-05
1.377434373e-05
2.100454586e-05
-2.021781478e-05
2.030169662e-05
-2.000402665e-05
-2.680488833e-05
2.663467701e-05
1.31530312e-05
-1.320771723e-05
1.170439113e-05
1.309083355e-05
1.240693689e-05
1.325908764e-05
-1.01826069e-05
1.022598124e-05
-1.092376519e-05
1.097513561e-05
-1.396895515e-05
1.270997243e-05
-1.32146356e-05
1.36946201e-05
-1.313240423e-05
1.204863477e-05
-1.271939855e-05
1.436538388e-05
1.398618694e-05
1.298434542e-05
1.310878518e-05
1.381269444e-05
1.721900507e-05
-3.202394499e-05
3.207407442e-05
-3.205439489e-05
3.202785289e-05
-3.365318727e-05
-1.223847822e-05
3.370056809e-05
8.578473094e-06
-1.110786745e-05
-3.112379291e-05
1.370269952e-05
1.361768682e-05
-5.096792131e-05
3.306822868e-05
-3.055840931e-05
3.302230005e-05
3.329072789e-05
3.050442712e-05
1.14115775e-05
-1.066446713e-05
3.044724485e-05
1.072164941e-05
-1.056335715e-05
2.962223923e-05
2.22775951e-05
-2.209461998e-05
-1.37214465e-05
2.233412328e-05
2.167925018e-05
-2.074965229e-05
-8.830303935e-06
6.26349888e-06
2.746443121e-05
-2.489762615e-05
-1.092481604e-05
2.680364074e-05
-2.470912864e-05
-1.050837003e-05
2.886608635e-05
-3.240290844e-05
2.815803728e-05
-4.417784969e-05
3.003289047e-05
-4.095770651e-05
-2.533399758e-05
2.530805037e-05
5.788270171e-06
-2.297877906e-05
9.738707521e-06
-1.243412349e-05
3.703587098e-05
-2.339703847e-05
2.366949672e-05
-2.328789626e-05
-1.372731968e-05
2.236626966e-05
-0.0001635758318
5.487346754e-05
0.0003933742175
-0.0003917515455
-4.422970702e-05
6.665055598e-05
-0.0004583968744
9.820288269e-05
0.0005701789803
-0.0005677733681
-8.87576565e-05
0.0001060235039
-0.0005673102957
0.0004655853259
-0.000465634875
-0.0001156380289
-3.131235709e-05
4.949018349e-05
-0.0001875774542
0.0001202443223
0.0004227679566
-0.0004197337037
-9.476978438e-05
-5.796657951e-05
0.0004029319554
0.0001463695556
-0.0004846708071
0.0002182404058
0.000581918516
-0.0005825942956
-0.000196423649
-0.0001242014767
0.0005715844798
0.000236609196
-0.0005772968184
0.0004605124147
-0.0004635316456
-0.0002597640353
-0.0001608311356
0.0004655585325
0.0004145999419
-0.0002085490694
9.814223548e-05
0.0001096385508
0.0001748333946
0.0001095814714
-0.0001748159351
-0.000109598931
-0.0001747601989
7.54029031e-05
-7.542288251e-05
0.0001747801783
5.687541107e-05
-4.475739354e-05
4.474841951e-05
-5.686643705e-05
4.720923281e-05
-4.721679944e-05
-4.475352781e-05
-4.727056234e-05
-3.622375743e-05
4.72532557e-05
-5.430474522e-05
8.908316175e-05
-0.0001625989505
0.000224205335
0.0003587596641
-0.0003827846414
-0.000175918573
-0.0001410035013
0.0004151000217
0.0002729526851
-0.000446571889
0.0004015607719
0.0005316197436
-0.0005514748746
-0.0003634976179
-0.0002761333238
0.0005763536254
0.0004328456959
-0.000551753578
0.000456864254
-0.0004603292498
-0.0004718039401
-0.0003434203552
0.0004606764342
0.0003895255703
0.0004090082098
-0.0003895299165
0.0003577217497
0.0002004199661
-0.0001852662427
-0.000172455507
0.0001891056042
-0.000172455507
0.0001664821355
-0.0001664821355
0.000172455507
0.0001083561174
-0.0001777112902
8.744266337e-05
9.026862688e-05
4.616654073e-05
9.026862688e-05
-4.616654074e-05
-9.026862688e-05
-4.617043008e-05
8.179199934e-05
-8.178810999e-05
4.616654073e-05
-3.20869923e-05
6.453842324e-05
-8.491646186e-05
0.0002116925245
0.0002243355735
-0.0002619756289
-0.0001562967249
-0.000178756624
0.0003301268793
0.0002703827418
-0.0003205703759
0.0004426582701
0.0004009489419
-0.0004408378845
-0.0003880841734
-0.0003815506185
0.0005065312908
0.0004919378066
-0.00045517682
0.0005979640399
0.0003957457706
-0.0004191966621
-0.0005700488384
-0.0005081078595
0.0004494104245
0.0006187537894
-0.0003859569726
0.0006478416539
0.0002444972262
-0.0002522086708
-0.0006425176519
-0.000525287403
0.0002551784325
0.0006502842833
-0.0002022800637
-1.754730221e-06
1.347560734e-05
-1.343721825e-05
0.000114151048
7.815836994e-05
-0.0001113661212
-7.111191116e-05
-0.0001392685423
0.0001858149336
0.0001641531355
-0.0001537398052
0.0003339334751
0.0002153622375
-0.0002631595519
-0.0002762718493
-0.0003726636066
0.0003572979606
0.0003899044851
-0.0002856390889
0.0005319289523
0.0002563048395
-0.0002961551176
-0.0004901190054
-0.0005693068531
0.0003669419793
0.0005672102175
-0.000281401857
0.0006317644094
0.0001741608156
-0.0001963903659
-0.0006171220444
-0.0006598650578
0.0002322857031
0.0006397128224
-0.0001588577243
0
0
0
1.24551235e-05
2.004051138e-06
-1.03275849e-05
-2.363004844e-06
-4.765922597e-05
4.943892611e-05
3.18217788e-05
-2.546771145e-05
0.0001296026783
5.430781663e-05
-8.715208052e-05
-9.217446542e-05
-0.0002316795376
0.0001690907277
0.0001693793403
-0.0001057665015
0.0002853850451
9.902793504e-05
-0.0001352058796
-0.0002488554971
-0.0004400342679
0.0002152466863
0.0003180198386
-0.0001342291576
0.0003835820287
7.792696672e-05
-0.0001012120703
-0.0003677784709
-0.0005714943614
0.0001502569183
0.0003928102754
-8.253632593e-05
0
0
0
0
0
0
0
0
0
0
0
2.757782493e-06
0
-1.562002839e-06
-1.82719729e-07
-5.337437426e-05
2.850794127e-05
8.332898852e-06
-5.271577825e-06
4.311465863e-05
6.700595726e-06
-2.019122955e-05
-2.973939079e-05
-0.0001823858228
6.712172149e-05
5.663303189e-05
-2.342799961e-05
8.818981854e-05
1.093432678e-05
-2.256824193e-05
-7.997988584e-05
-0.0002888028554
5.660102704e-05
9.334014775e-05
-1.900136043e-05
0
0
0
0
0
0
0
0
0
0
0
0
0
0
0
0
0
0
0
0
0
0
0
-7.075615286e-06
5.079238012e-07
0
0
0
0
0
0
-3.467395323e-05
3.38757236e-06
0
0
0
0
0
0
0
0
0
0
0
0
0
0
0
0
0
0
0
0
0
0
0
0
0
0
0
0
0
0
0
0
0
0
0
0
0
0
0
0
0
0
0
0
0
0
0
0
0
0
0
0
0
0
0
0
0
0
0
0
0
0
0
0
0
0
0
0
0
0
0
0
0
0
0
0
0
0
0
0
0
0
0
0
0
0
0
0
0
0
0
0
0
0
0
0
0
0
0
0
0
0
0
0
0
0
0
0
0
0
0
0
0
0
0
0
0
0
0
0
0
0
0
0
0
0
0
0
0
0
0
0
0
0
0
0
0
0
0
0
0
0
0
0
0
0
0
0
0
0
0
0
0
0
0
0
0
0
0
0
0
0
0
0
0
0
0
0
0
0
0
0
0
0
0
0
0
0
0
0
0
0
0
0
0
0
0
0
0
0
0
0
0
0
0
0
0
0
0
0
0
0
0
0
0
0
0
0
0
0
0
0
0
0
0
0
0
0
0
0
0
0
0
0
0
0
0
0
0
0
0
0
0
0
0
0
0
0
0
0
0
0
0
0
0
0
0
0
0
0
0
0
0
0
0
0
0
0
0
0
0
0
0
0
0
0
0
0
0
0
0
0
0
0
0
0
0
0
0
0
0
0
0
0
0
0
0
0
0
0
0
0
0
0
0
0
0
0
0
0
0
0
0
0
0
0
0
0
0
0
0
0
0
0
0
0
0
0
0
0
0
0
0
0
0
0
0
0
0
0
0
0
0
0
0
0
0
0
0
0
0
0
0
0
0
0
0
0
0
0
0
0
0
0
0
0
0
0
0
0
0
0
0
0
0
0
0
0
0
0
0
0
0
0
0
0
0
0
0
0
0
0
0
0
0
0
0
0
0
0
0
0
0
0
0
0
0
0
0
0
0
0
0
0
0
0
0
0
0
0
0
0
0
0
0
0
0
0
0
0
0
0
0
0
0
0
0
0
0
0
0
0
0
0
0
0
0
0
0
0
0
0
0
0
0
0
0
0
0
0
0
0
0
0
0
0
0
0
0
0
0
0
0
0
0
0
0
0
0
0
0
0
0
0
0
0
0
0
0
0
0
0
0
0
0
0
0
0
0
0
0
0
0
0
0
0
0
0
0
0
0
0
0
0
0
0
0
0
0
0
0
0
0
0
0
0
0
0
0
0
0
0
0
0
0
0
0
0
0
0
0
0
0
0
0
0
0
0
0
0
0
0
0
0
0
0
0
0
0
0
0
0
0
0
0
0
0
0
0
0
0
0
0
0
0
0
0
0
0
0
0
0
0
0
0
0
0
0
0
0
0
0
0
0
0
0
0
0
0
0
0
0
0
-4.727730481e-05
-3.344342378e-05
-4.729944746e-05
-2.500191134e-05
4.728401019e-05
-5.689689672e-05
-2.497701036e-05
5.689309548e-05
2.49808116e-05
-4.617792895e-05
-7.9038386e-05
-4.68977725e-05
-4.82382364e-05
4.61970951e-05
-5.666356912e-05
-4.626851755e-05
5.578030639e-05
4.715178028e-05
1.725997385e-05
-1.727533826e-05
6.407796892e-05
-0.0001747632718
-6.407489601e-05
3.008961736e-05
-3.009334911e-05
0.0001747305492
-7.156180097e-05
3.009301175e-05
4.143500346e-05
1.645923964e-05
-3.01037655e-05
0.0001234295832
0.0001619058572
3.008189878e-05
0.0001619294167
6.407374747e-05
-0.0001619251953
0.0001551677736
-0.000172455507
-0.0001551677736
0.0001217619518
-0.0001217744622
0.000174845905
-0.0002409151965
0.0001220084172
0.0001217314928
-0.0001234539447
6.189930591e-05
-0.0001217552038
0.0001243546085
-0.000161989059
0.0001619789079
0.0001217721028
0.0001596364069
0.0001551677736
-0.0001596364069
0.000161944901
7.538741889e-05
0.0001095662932
-0.0001619738808
5.334941706e-05
-0.0001233988448
-0.0001095366816
4.72037742e-05
-4.721077357e-05
-5.612543663e-05
-4.758449777e-05
4.721034505e-05
-4.75819287e-05
5.687600986e-05
4.758132992e-05
-2.801032395e-05
-1.787044036e-05
1.865269295e-05
-1.882758996e-05
-2.783542694e-05
1.840581854e-05
-2.876890942e-05
1.867908087e-05
-1.884061221e-05
-1.791478557e-05
1.890840526e-05
-1.870229097e-05
1.847296657e-05
1.77674054e-05
0.0002456721586
6.990188601e-05
-6.990188602e-05
-0.0002456721586
0.000211734328
-0.000211734328
6.990188602e-05
-0.000211734328
0.0001083561174
0.000211734328
5.70844536e-05
0.000211734328
5.708445359e-05
0.0002456721586
-5.70844536e-05
-8.185487709e-05
1.732893658e-05
-9.026846169e-05
-1.732593249e-05
-1.612222375e-05
-1.830304152e-05
1.88956316e-05
-1.87752582e-05
-1.624259715e-05
-1.71251442e-05
-8.645523772e-06
8.666988574e-06
-1.941300206e-05
-1.776996318e-05
-8.863261032e-06
-2.212536205e-05
2.213702784e-05
-5.690856251e-05
-4.731454788e-05
-2.21581349e-05
3.91560578e-05
-3.879861071e-05
1.663823574e-05
-3.787223119e-05
1.893156643e-05
3.801666695e-05
-7.914694e-05
3.669771288e-05
-1.885045221e-05
-1.80850281e-05
1.814701572e-05
-2.956187041e-05
3.057782934e-05
-3.030985333e-05
-6.40130621e-05
6.447851184e-05
-5.712901886e-05
-4.717646846e-05
-6.53985861e-05
-5.894209872e-05
4.71989448e-05
7.918687737e-05
2.675586088e-05
-1.367594524e-05
-1.282983347e-05
3.789599591e-05
-3.827785108e-05
1.280613016e-05
1.538446952e-05
3.924160493e-05
1.713293039e-05
-1.723244788e-05
-2.345584546e-05
2.378676637e-05
-2.387461533e-05
1.722077935e-05
1.59312134e-05
5.038290653e-05
4.402702406e-05
-5.042036914e-05
-4.077103241e-05
2.015865829e-05
2.464593928e-05
2.08973191e-05
-4.0707776e-05
2.406520368e-05
2.022884109e-05
-2.027811009e-05
-2.844782192e-05
-2.63527118e-05
2.025122899e-05
-5.336382815e-05
2.634204342e-05
2.705975201e-05
3.923474819e-05
4.403732e-05
-3.918369947e-05
-4.100290876e-05
4.087492862e-05
1.92788505e-05
-4.102678874e-05
1.854979984e-05
-4.074808355e-05
2.208305547e-05
-4.206675388e-05
2.144248254e-05
-4.202301738e-05
-2.246826973e-05
-1.677306061e-05
1.740744001e-05
-1.761144688e-05
-2.226426286e-05
-2.28799349e-05
1.75307807e-05
-1.762151415e-05
-1.223800695e-05
1.285878722e-05
-1.285431617e-05
1.752630966e-05
1.652162582e-05
2.782151305e-05
4.408151779e-05
-2.780744935e-05
-4.089254282e-05
4.095120401e-05
1.353981503e-05
-4.091497514e-05
1.286363753e-05
-4.103517248e-05
1.633261461e-05
-3.064247255e-05
1.565639568e-05
-3.0681993e-05
1.653287039e-05
4.416006979e-05
-1.651272858e-05
4.100192848e-05
7.931717363e-06
-4.096938412e-05
1.076751846e-05
-1.934707198e-05
1.005737267e-05
-1.931634043e-05
-1.101878918e-05
-1.717020562e-05
1.774150833e-05
-1.78811714e-05
-1.087912611e-05
-1.157964022e-05
4.398733422e-05
-6.188037866e-05
3.060535292e-05
3.126919704e-05
1.995568802e-05
-2.00114116e-05
-3.129409297e-05
-2.915661059e-05
2.016328159e-05
1.977845041e-05
-1.986579574e-05
-3.260913293e-05
-3.178995735e-05
1.991544937e-05
-6.467709186e-05
3.177608948e-05
3.197995781e-05
-3.35838641e-05
-9.256770699e-06
9.990725677e-06
-9.934651047e-06
-3.363993873e-05
-3.414408305e-05
9.707535832e-06
9.809035049e-06
-9.773191916e-06
3.038379044e-05
9.872489456e-06
9.140183573e-06
3.029241758e-05
-2.815433465e-05
-8.967876302e-06
2.814148426e-05
9.756938421e-06
-9.753235784e-06
8.167943297e-06
8.215493523e-06
-0.0003577217497
0.0004799237299
0.0003577570002
-0.0004347830179
0.0004347830179
-0.0004349696269
-0.0001211796662
-0.000211734328
0.0001211796662
0.000306447587
-0.0001596364069
0.000211734328
0.0002230486899
-0.0001468111801
0.000306447587
0.0001596364069
0.0001664821355
0.0002004199661
-0.0001596364069
-0.0001211796662
-0.0002004199661
-9.55420255e-05
0.0002004199661
9.554202552e-05
-0.0001891056042
0.0001891056042
-4.937548477e-05
-0.0001891056042
-0.0001891056042
-3.334883387e-05
0.0001891053271
-3.655277507e-05
8.272292547e-05
-4.29620454e-05
-3.976088008e-05
8.272292547e-05
4.296565508e-05
8.187363572e-05
9.026862688e-05
-4.29620454e-05
9.026724156e-05
-3.334744856e-05
-9.026862688e-05
1.875090107e-05
-2.577310004e-05
-1.829577033e-05
2.674804452e-05
-2.682473341e-05
2.693130011e-05
1.980705685e-05
-2.699975411e-05
-1.928065845e-05
1.938722515e-05
-1.897981264e-05
-1.930238523e-05
1.91328824e-05
-2.775058701e-05
-2.771853383e-05
3.014422667e-05
9.02666341e-05
-3.014361922e-05
2.053062359e-05
-2.053123104e-05
-9.026785424e-05
-8.191393214e-05
2.053847009e-05
-4.426568919e-05
4.426568918e-05
-0.0001891051619
-2.373534266e-05
-2.694006173e-05
-1.600234065e-05
1.583588411e-05
-8.539166098e-06
-8.319764345e-06
1.625216254e-05
-2.390514703e-05
2.468953228e-05
-2.739699664e-05
1.89596269e-05
3.680226259e-05
1.648010536e-06
7.325619649e-05
4.309060755e-05
-7.331537138e-05
4.010201049e-05
3.623486936e-05
-2.041388707e-05
-1.984495405e-05
-2.361271264e-05
1.959929505e-05
-3.992885395e-05
3.976309116e-05
-7.625713721e-05
3.855806255e-05
-7.614911347e-05
3.009037048e-05
1.939567833e-05
-2.994150138e-05
-1.892132265e-05
1.870183979e-05
-1.848720706e-05
1.830297013e-05
-3.085798219e-05
-3.072209835e-05
-8.493750281e-06
-7.622976335e-05
-2.039250413e-05
7.61742595e-05
2.356310745e-05
-1.192475341e-05
-3.868668319e-05
-1.128543829e-05
2.370384216e-05
1.205773773e-05
3.469660346e-05
3.713437874e-05
-1.180061618e-05
-1.150196473e-05
-5.089599875e-06
6.707591202e-05
-3.706940874e-05
-3.380744282e-05
-7.905603509e-06
-2.974585598e-06
2.963667652e-05
-1.875648741e-05
3.61913718e-05
-3.194574128e-05
2.398984814e-05
1.916288596e-05
-1.816877375e-05
1.828400656e-05
-1.818966824e-05
-1.857595003e-05
2.481040803e-05
-2.449416927e-05
2.42022258e-05
-2.375895923e-05
1.766404592e-05
1.782011556e-05
-2.098416843e-05
-1.803566976e-05
2.185551699e-05
-2.16468483e-05
2.150990933e-05
1.918879263e-05
-1.854414424e-05
1.840720526e-05
-1.868873481e-05
-1.828307292e-05
-2.214013051e-05
1.074022756e-05
-1.050508818e-05
-1.565934137e-05
3.201230663e-05
1.903989351e-05
-3.198252545e-05
-1.818101343e-05
1.813892517e-05
-1.812344759e-05
1.796486119e-05
-3.165748312e-05
-3.163241649e-05
-1.066097613e-05
3.174023759e-05
1.060913679e-05
-3.109722863e-05
3.115790191e-05
-3.112646344e-05
3.10361919e-05
9.903927926e-06
9.888791346e-06
9.751814347e-06
2.746300977e-05
2.747414238e-05
1.858064813e-05
1.949786311e-05
-1.910809362e-05
1.898645078e-05
-1.920419623e-05
-1.883706411e-05
2.028916115e-05
-1.937507873e-05
1.95244654e-05
-1.97423144e-05
1.825511758e-05
1.844177929e-05
-1.458177009e-05
-1.800490073e-05
1.501766671e-05
-1.535114562e-05
1.554397737e-05
1.957506334e-05
-1.894507314e-05
1.91379049e-05
-1.871220263e-05
-1.92224038e-05
-1.632709605e-05
1.286098928e-05
1.924572725e-05
-1.840828323e-05
1.841495633e-05
-1.844799576e-05
-1.851629735e-05
1.394042783e-05
-1.349706876e-05
1.339572774e-05
-1.325225363e-05
1.766978377e-05
1.80205808e-05
-9.44034615e-06
-1.815341594e-05
1.029978031e-05
-1.016037091e-05
1.008651279e-05
1.932361167e-05
-1.866083747e-05
1.858697936e-05
-1.874015449e-05
-1.851529597e-05
-1.080744273e-05
9.909465415e-06
-3.234230688e-05
3.300375321e-05
-3.302893884e-05
3.297126301e-05
1.144977446e-05
-1.06323752e-05
1.057469937e-05
-1.06713369e-05
1.070914204e-05
-3.373657626e-05
2.842679547e-05
1.921432463e-05
-2.876499579e-05
-1.787731464e-05
1.890711347e-05
-1.891158518e-05
3.763048009e-05
1.861341595e-05
-3.621903872e-05
3.621456701e-05
-3.661445667e-05
5.548998353e-05
1.855973724e-05
1.799516543e-05
-1.217097435e-05
3.829057575e-05
1.368079128e-05
-5.246083822e-05
3.731527827e-05
-3.642821117e-05
-8.234566366e-06
3.249304634e-05
1.219935457e-05
-1.131228747e-05
1.297687057e-05
1.253371628e-05
3.085810532e-05
3.697663768e-05
0
0
0
0
0
0
1.292549528e-06
2.467474357e-06
9.834946881e-05
-9.738215704e-05
-7.021337969e-06
0
0
0
0
0
0
0
0
6.204839039e-06
6.805726282e-06
0.0001202918549
-0.0001170392303
-1.693770154e-05
-1.016022597e-05
0.0001068017465
4.196863738e-05
0.0001818123933
-2.658553569e-05
-0.0002506545548
0.0002590537812
5.976072881e-05
-0.0002376123373
4.361209303e-05
0.0001201973429
-9.963982636e-05
0.0004782180047
-0.0005198934521
0.0005295906546
0.0001401256318
-0.000515011708
0.0001089271492
0.0001905998802
-0.0001751252741
0.0005752927109
-0.0005514724477
0.0005533066573
0.0002008854621
-0.0005499023945
0.0001558734602
3.914942209e-05
5.687964278e-05
-5.366049975e-05
5.365538274e-05
3.91545391e-05
-5.366347257e-05
3.621699226e-05
0
0
0
0
0
0
0
0
1.052475084e-05
9.254394785e-06
8.530547401e-05
-9.792296056e-05
-2.733586951e-05
-2.627558366e-05
0.0001158665144
8.266841288e-05
0.0001759734427
-5.229249714e-05
-0.0002627382447
0.0002513170663
0.0001179111347
-0.0002693279505
0.0001067637832
0.0002368699013
-0.0001967429736
0.0004657479906
-0.0005293311853
0.0005163671654
0.0002751166786
-0.0005366608407
0.0002456659787
0.0003629684685
-0.0003395071015
0.0005636379509
-0.0005487889252
0.0005435773961
0.0003793298255
-0.0005514579125
0.000336407384
0
0
0
0
0
0
0
0
2.556836545e-06
7.681975771e-07
2.732212445e-05
-4.116667334e-05
-1.054161246e-05
-2.471779396e-05
7.109330215e-05
8.284784533e-05
0.0001063437684
-4.708475147e-05
-0.0001923664154
0.0001666908462
0.0001265701761
-0.0002155490224
0.0001305317563
0.000285564586
-0.0002301572631
0.0003583344456
-0.0004444500763
0.0004102939184
0.0003402793408
-0.0004737582235
0.0003337696054
0.0004796001524
-0.0004390513128
0.0004871494238
-0.0005056317278
0.0004833476113
0.000512673365
-0.0005227328657
0.0004880997767
0.0005651293948
-0.0005550138167
0.0003989961925
-0.0003579220269