/*--------------------------------*- C++ -*----------------------------------*\
| =========                 |                                                 |
| \\      /  F ield         | OpenFOAM: The Open Source CFD Toolbox           |
|  \\    /   O peration     | Version:  v2012                                 |
|   \\  /    A nd           | Website:  www.openfoam.com                      |
|    \\/     M anipulation  |                                                 |
\*---------------------------------------------------------------------------*/
FoamFile
{
    version     2.0;
    format      ascii;
    class       volScalarField;
    location    "0.46";
    object      p;
}
// * * * * * * * * * * * * * * * * * * * * * * * * * * * * * * * * * * * * * //

dimensions      [0 2 -2 0 0 0 0];


internalField   nonuniform List<scalar> 
3019
(
713.9713328
713.0077195
710.6904728
705.9771568
699.389844
685.4889932
662.8982155
627.0349893
573.4325802
496.6416581
392.6809645
261.5135854
714.5738769
713.9245147
712.2398975
708.6650958
702.1183997
690.2223393
670.1946497
641.1717309
593.0117697
521.8249921
421.9927788
291.3862338
715.9945207
716.0389354
715.8246649
714.7322625
710.0384883
702.7280987
688.8688034
663.9225386
623.6871431
559.4505565
461.6165337
322.9252399
717.68034
718.7056417
720.582683
722.8059737
721.7534342
720.8415366
716.4389383
700.7651246
675.1710198
625.7990439
535.9491044
386.748291
718.6131809
720.758713
725.0596894
731.1944807
734.5069502
741.977324
749.4902363
748.8818079
745.4945759
724.4182846
661.7060334
509.0345326
717.6873583
720.9492341
727.6567786
737.946172
746.0145482
762.6529762
783.6939409
800.8676527
828.6316865
856.1752907
860.9600607
755.3401185
713.8426584
718.0856848
726.8437735
740.7337051
754.2048623
778.8424679
812.4242472
847.5136688
907.2149654
993.9042099
1124.728993
1286.189019
706.1627254
711.1222335
721.3581872
737.8046604
755.9240972
786.5703729
828.967807
878.2484731
960.4140866
1086.114311
1302.535649
1757.928521
693.9503914
699.274364
710.2421681
727.9345115
749.5733742
783.2049943
829.5384867
886.0557406
974.4286881
1098.962508
1270.549577
1455.735859
676.8209252
682.122536
693.0077483
710.5281249
734.242436
767.7750432
813.2858861
870.3633232
952.8538006
1058.226437
1178.878644
1279.550423
654.7474567
659.66599
669.7016071
685.6878464
710.1464439
740.8810217
781.8468856
834.7476499
906.1750638
993.0192434
1089.174594
1178.240754
628.0334338
632.2632711
640.8741484
653.9633102
678.5977468
704.0436735
737.8166511
783.4830215
841.4779174
912.0540458
997.0746389
1101.111163
1492.198975
1295.085704
1188.654669
1111.443526
1746.193382
1202.068012
1285.488807
1437.433089
1111.270024
1177.887951
1269.739725
1236.639657
1265.579825
1320.991797
1021.313379
1096.717976
1167.114419
1149.454983
1189.191847
1213.122325
1085.915502
1059.948831
1124.74986
1159.282211
1808.072136
1488.736512
2401.85824
1881.426348
1327.297553
1368.718094
1349.186765
1368.596384
1331.17559
1465.335802
1375.55585
1217.7065
1258.048408
1223.525717
1262.689517
1219.783648
1327.811011
1266.826833
1161.813752
1188.060231
1140.247963
1191.457346
1166.202366
1217.342315
1192.307603
1122.264959
1052.905551
1127.905028
1163.576124
1130.407839
1289.85026
1468.894657
1662.802585
1671.93372
1860.443728
2270.649797
1371.152229
1376.687808
1474.366335
1498.131181
1796.208876
1625.202788
1494.247
3235.318656
2504.865586
1872.353732
2401.011398
1140.842721
1111.39581
1094.832249
1738.326853
1519.658823
1632.361597
1536.075392
1770.474618
1412.280536
1513.304722
1587.740818
2225.998492
2473.817879
3082.206807
1824.482382
2371.583748
2137.81143
2385.15828
1799.773239
1350.144319
1366.096422
1347.872999
1414.195066
1373.814343
1408.568072
1364.823931
1371.554334
1402.232728
1239.574775
1236.546759
1301.134334
1296.542587
1180.692937
1178.693085
1202.733088
1201.090582
1088.859321
1146.805282
1145.131364
2623.007912
3245.874884
1198.799364
1181.302428
1169.496737
1199.211008
1185.516257
1200.794149
1131.437226
1116.543172
1142.81397
1232.673718
1220.110425
1204.13984
1225.996657
1231.192982
1226.339427
1175.084686
1149.551368
1136.200869
1165.671964
1153.78115
1177.061647
1188.242664
1202.299969
1201.835618
1179.098774
1192.167177
1173.150164
1210.605806
1215.688657
1223.721477
1201.24946
1201.547163
1195.247708
1155.333026
1163.715781
1177.118059
1156.164331
1136.570218
1454.075388
1440.241736
3005.446078
2887.508406
1619.826762
1591.418649
1612.925188
1670.030532
1587.286087
1820.092579
1702.654902
1644.287427
1451.134374
1491.801352
1452.498789
1564.389186
1507.551584
1465.800148
2016.631358
2025.731658
1865.109965
2082.869352
1997.118318
1355.694763
1358.488708
1354.86998
1367.568492
1360.818174
1359.682986
1352.104572
1348.712234
1355.125223
1352.8116
1384.471668
1410.897151
1394.694348
1442.544287
1417.648416
1388.424811
1369.912254
1377.526872
1369.612008
1390.424197
1380.558343
1372.932015
1253.336279
1244.991939
1268.215047
1255.277528
1232.448181
1228.404405
1241.340052
1233.567405
1328.768007
1313.455834
1346.423554
1333.716455
1286.781979
1271.559139
1308.236545
1292.378279
1191.165214
1200.422019
1186.671207
1206.037027
1193.775818
1204.896629
1208.450688
1192.210794
1174.138471
1191.129859
1189.099922
1209.768122
1213.181312
1208.266825
1216.425566
1212.866291
1226.044011
1218.032561
1202.501372
1203.459943
1207.860886
1202.990956
1196.485123
1202.265116
1207.289594
1156.647564
1160.688954
1152.801131
1139.158636
1159.265217
1156.856377
1290.168305
1273.285699
1251.745265
1302.43332
1280.637764
1298.414668
1244.890793
1225.919371
1238.380255
1252.03897
1255.166123
1267.253266
1270.972889
1285.078971
1279.065701
1474.245266
1689.594321
1731.580563
1544.542686
1560.278382
1580.699486
1556.186779
1418.103066
1435.839385
1426.740173
1533.584365
1513.530362
1493.952099
2286.145981
2093.133183
2096.391656
2276.961706
2255.772947
2397.433052
1782.004729
1832.818637
1856.688454
1351.806107
1352.421936
1358.761302
1365.922531
1364.764068
1365.46498
1361.044981
1361.644772
1360.398743
1358.686011
1378.473399
1385.018235
1380.967162
1419.473971
1412.195829
1402.63369
1363.848712
1366.773597
1366.17008
1378.031654
1376.824132
1372.529295
1243.706205
1252.359757
1248.532061
1228.836014
1232.899962
1240.541239
1310.364848
1324.763964
1313.380895
1324.864628
1319.125084
1361.031926
1356.495591
1275.966882
1313.42871
1307.780598
1283.651213
1290.251518
1305.400596
1202.721093
1197.875194
1196.997713
1181.566831
1178.051346
1175.181766
1184.21998
1181.71293
1186.397405
1135.449506
1131.690667
1168.138848
1165.453922
1161.805749
1172.645008
1169.391987
1173.302996
1142.54412
1141.527211
1148.902054
1134.418282
1140.987455
1462.995846
1420.591164
3431.436975
3272.763683
2664.122839
2523.220345
3079.434279
2848.839505
2942.090695
1651.870438
1566.334271
1464.969527
1448.368092
1430.644629
1478.957166
1496.237448
1480.577252
2052.603515
2140.693055
2177.096845
2396.67869
2277.322166
1921.386952
1895.077656
1970.554332
1357.001998
1355.722348
1354.117367
1363.215906
1362.624272
1359.923502
1359.010276
1359.983632
1357.742339
1358.157063
1392.942338
1388.933584
1381.924577
1394.9262
1404.677098
1398.035059
1371.881364
1368.865213
1365.831204
1373.62859
1376.039494
1374.476064
1251.182478
1252.543662
1253.715854
1246.230194
1250.066561
1248.382797
1263.017519
1261.091106
1268.673101
1254.069972
1255.812816
1258.253969
1231.462886
1233.26922
1233.371927
1231.124254
1232.606071
1230.174445
1238.017359
1237.853269
1241.760463
1233.55755
1234.957868
1235.368186
1336.438095
1330.729472
1323.777511
1327.475867
1332.763254
1316.528147
1322.0158
1318.655309
1349.004571
1342.134166
1291.297428
1286.459543
1281.344432
1283.982872
1289.035269
1272.975804
1271.739266
1274.500721
1302.994926
1305.611643
1311.064029
1294.779122
1300.191875
1297.721591
1302.313856
1296.912367
1193.655534
1190.148882
1187.679888
1195.335298
1192.880986
1197.101007
1201.014041
1196.421013
1206.559372
1207.914545
1192.165902
1184.261408
1179.969846
1180.256094
1182.695716
1185.302996
1183.64255
1188.749822
1206.620611
1210.051036
1219.092318
1213.530788
1223.299895
1225.319815
1228.478448
1220.552516
1222.745282
1220.722249
1202.241593
1202.519672
1204.59378
1203.487187
1157.357076
1155.301201
1154.156263
1158.986425
1156.88756
1158.688505
1159.289351
1152.956299
1151.273543
1153.499975
1153.258895
1158.020836
656.7151396
626.6870026
607.5180495
613.9001461
566.8077224
542.7091452
547.2412002
476.9354111
450.2646537
448.5718246
350.3617244
326.7125774
312.4885158
690.3737442
669.701878
635.730812
660.4198295
622.8893224
578.3742998
606.358861
541.1706232
489.8480294
513.3460458
408.9201958
361.6477422
366.7148991
736.1308902
730.0034971
683.2833444
726.287975
706.8267905
641.1923393
696.5360186
648.2040135
563.2697083
624.259712
518.9715646
430.42474
470.4787954
788.0110424
802.7840212
747.4986063
807.5569496
818.7836536
732.2988275
820.553964
813.3915128
683.5009286
803.3117213
726.0082038
558.9806792
675.5322166
836.9780797
874.4378901
821.3513013
889.0855501
941.0650999
849.976371
961.4820865
1032.362534
865.0948014
1058.030971
1118.181099
802.7805707
1115.93944
872.5756703
928.1125011
890.2329255
950.6042893
1034.81435
968.91126
1070.3336
1213.178659
1086.875927
1279.201986
1651.452406
1253.691491
1505.720727
1636.43114
1215.29627
886.388103
949.534779
936.7434018
974.6609815
1065.718048
1048.903988
1102.379806
1236.529602
1234.562326
1309.651476
1387.92855
1383.395371
1745.048624
1846.892148
1872.063834
876.3339201
937.5048379
949.4333869
960.9808882
1041.363579
1063.712542
1071.434033
1168.877223
1223.427766
1248.55905
1290.587618
1319.974308
1423.715917
1432.638767
1467.450812
845.2853558
899.4953553
930.1162494
919.7323003
986.7127498
1029.821219
1010.87702
1086.268538
1148.647057
1156.018734
1182.718303
1207.823175
1264.699137
1274.889957
1296.614594
797.5533866
842.5144123
886.8194487
859.1175356
913.8791594
970.0227447
933.7929853
998.3084504
1065.025604
1067.009409
1090.499181
1112.814367
1168.302766
1180.118788
1194.140103
825.8461366
893.1454432
974.3137392
971.5209757
995.2096272
1021.076025
1090.331259
1108.183333
1123.382701
1508.639626
1557.15198
1533.075459
1303.942586
1326.554135
1311.651952
1199.212743
1215.322536
1199.606746
1128.326352
1142.058344
1121.36738
2268.787699
1809.895895
1582.370956
1166.248465
1651.841804
1234.135178
1261.768609
1225.436703
1339.236869
1294.800143
1249.875018
1365.748328
1313.292752
1360.222131
1135.427236
1158.648218
1133.504529
1213.451077
1181.688266
1147.382538
1234.167508
1195.508961
1226.586977
1246.658342
1267.651745
1250.393521
1273.554915
1268.887475
1261.336024
1314.433112
1307.40479
1314.010604
1045.137317
1068.097005
1044.50072
1127.118971
1090.706857
1058.31252
1134.778231
1102.955778
1136.913647
1163.188714
1175.661007
1158.749498
1192.683394
1185.134703
1182.033617
1208.712435
1204.147709
1208.605269
1045.280181
1007.456565
1050.407627
1085.655505
1102.791175
1079.060503
1131.931335
1119.136141
1109.824338
1147.711045
1142.878161
1151.606217
1741.746822
1712.921418
1824.620351
1462.670157
1503.355206
1516.46752
2366.419759
2506.035522
2557.434519
1890.640841
1985.731665
1962.532072
1343.905973
1331.113136
1309.572754
1364.357683
1338.552494
1349.21187
1329.584282
1334.901453
1355.288844
1362.361284
1361.070147
1368.50265
1343.445777
1348.454607
1338.63438
1445.395554
1425.363095
1452.22727
1370.987572
1380.059783
1383.313359
1222.388154
1218.29007
1213.418646
1254.094578
1247.218823
1250.993293
1211.188726
1221.173329
1239.907336
1259.170117
1260.54319
1264.374006
1221.750061
1223.920195
1221.851978
1317.636412
1329.337604
1340.885465
1268.301423
1272.4588
1270.607165
1168.363071
1156.751246
1152.407049
1178.994615
1175.830176
1184.322445
1130.941223
1146.531221
1159.021504
1190.562333
1194.317706
1194.890314
1170.85343
1173.854
1168.898708
1215.203981
1217.141132
1219.487727
1195.402687
1195.985923
1193.18538
1106.873395
1079.609764
1124.611675
1129.031912
1132.499626
1160.89658
1165.144311
1168.086839
1135.734599
1136.100318
1131.64135
1348.560323
1373.360053
1303.993311
1575.545286
1436.59357
1386.794601
1447.930492
1452.154739
1609.375579
1740.998102
1802.186115
1713.75684
2071.537796
1891.367158
1774.812075
2021.865315
1921.812996
2139.894869
1377.393167
1403.066926
1395.791158
1407.08044
1412.092034
1375.650901
1482.052612
1427.769727
1420.359271
1594.577238
1587.482833
1505.925204
1732.082536
1622.214007
1636.704645
1577.933716
1613.513415
1675.921328
3182.634835
3361.458946
3418.926105
2532.936628
2674.595818
2632.812286
1773.652917
2363.881175
2142.572293
2338.591719
1814.678664
3005.47761
2547.154951
2232.001656
1128.846608
1124.096933
1134.450033
1106.117089
1114.999736
1120.069843
1103.996241
1109.654776
1100.595091
1599.457482
1681.133144
1683.358954
1794.797602
1747.467377
1723.437193
1549.23061
1519.063098
1576.475943
2315.376979
2420.590255
2305.001011
2798.168715
2558.369321
2350.778643
2745.62195
2679.431553
2892.049056
1882.292403
1901.231748
1845.935589
2346.835794
2262.362031
2276.285645
2048.537436
2090.501147
2204.126739
1353.95465
1358.76632
1356.662229
1341.289726
1349.713012
1353.202348
1400.091343
1418.224086
1428.42049
1392.096871
1383.433165
1395.369424
1241.017245
1243.986879
1242.370442
1233.927772
1235.349333
1238.127501
1304.10972
1308.56107
1305.137027
1292.398905
1295.026904
1299.598606
1184.217178
1186.484622
1182.759992
1176.950979
1180.325314
1182.046437
1205.092876
1206.423655
1204.559714
1199.475651
1201.665141
1203.499482
1098.427675
1150.600601
1152.113357
1148.588822
1143.446806
1148.172753
1149.338456
2896.265027
3028.670537
1192.094084
1188.482597
1194.079814
1177.266328
1182.95619
1186.772457
1175.790996
1179.301965
1173.328558
1194.474739
1199.43207
1204.074046
1190.766346
1194.974448
1189.894674
1204.323634
1199.766651
1195.683321
1126.563475
1134.721994
1139.539401
1124.98765
1129.853327
1121.579224
1149.135133
1138.088003
1133.437774
1228.865686
1223.422477
1227.337922
1214.565659
1219.137941
1224.641685
1208.893695
1213.893764
1209.235092
1227.943746
1225.900536
1223.825076
1229.747794
1227.840449
1229.628304
1224.246218
1226.031054
1228.152969
1164.716543
1160.771028
1169.954305
1145.237659
1152.946059
1157.095526
1144.226445
1148.681693
1140.78259
1161.827448
1168.76845
1172.312329
1161.156582
1165.056591
1157.861115
1182.691814
1172.385541
1168.636934
1192.42555
1193.541747
1189.514882
1198.355416
1198.253073
1202.441091
1171.416479
1176.853668
1178.517599
1212.387238
1214.757168
1212.724309
1218.550085
1216.631071
1214.061881
1221.56482
1219.139718
1221.179799
1200.942916
1198.600008
1198.39497
1199.758681
1199.050753
1201.054223
1194.159665
1196.716774
1197.614156
1158.814063
1161.927482
1158.094267
1133.475901
1135.605421
1141.406285
3129.452386
3262.751826
3105.44752
3635.378814
3558.521001
2762.181977
2819.265121
2974.360154
1636.273819
1607.236599
1585.319617
1640.030001
1625.294302
1655.094508
1573.103135
1598.087189
1612.50453
1777.4112
1765.670912
1810.688375
1687.971445
1724.658092
1738.413896
1680.919841
1705.164562
1668.461345
1477.185615
1464.316255
1479.166559
1440.458795
1451.215045
1463.980455
1543.523061
1529.461685
1550.194927
1494.588515
1511.098237
1524.739212
2027.83997
1961.515914
1945.735358
1968.51231
1966.892842
2029.694139
1858.22931
1910.82267
1914.49985
1356.561311
1355.967885
1357.887682
1355.565855
1354.044629
1355.101853
1365.462727
1365.051164
1366.743193
1360.451835
1362.889395
1363.190025
1351.314085
1355.6896
1355.669524
1354.750449
1355.472588
1350.249056
1354.652885
1356.667543
1357.054348
1355.588752
1355.850203
1353.679034
1404.914002
1397.50842
1402.660236
1388.518902
1392.838813
1399.5589
1433.549634
1423.351676
1431.478537
1408.669756
1415.659355
1425.249043
1374.565618
1372.100128
1374.883183
1368.113154
1369.758432
1371.893556
1386.78201
1382.201795
1384.894744
1377.589162
1379.965187
1383.601118
1343.059416
1349.315922
1353.003098
1338.084222
1343.838979
1338.63396
1184.81253
1188.790664
1190.843464
1178.330781
1178.671942
1175.340911
1209.620925
1208.229696
1207.567267
1211.725805
1209.36772
1208.922459
1206.420085
1208.107648
1210.186725
1198.687417
1200.007379
1197.897474
1203.156672
1201.906912
1200.685577
1205.86888
1203.667464
1204.666372
1150.569038
1153.936262
1156.138194
1144.329026
1146.741691
1141.543654
1284.509547
1276.654368
1281.821692
1265.99758
1271.369988
1278.894924
1256.668367
1263.927327
1258.782595
1295.248393
1301.215466
1308.322003
1286.436061
1293.895756
1287.958818
1306.419871
1300.001483
1292.331472
1238.303181
1242.922165
1249.644027
1230.43243
1236.512953
1231.965043
1244.45406
1240.73263
1234.630825
1253.297535
1256.809848
1255.297531
1258.674541
1257.965003
1254.4255
1265.839849
1261.886601
1262.974046
1275.119992
1274.01106
1269.748259
1283.281116
1278.602643
1280.103409
1275.042909
1276.818702
1281.294834
2223.209354
2241.359467
2315.835726
2097.211232
2168.562621
2153.509658
2184.465581
2180.248278
2101.12238
1246.804273
1245.440391
1242.443153
1251.312774
1248.384151
1249.684091
1245.580942
1246.980754
1250.055433
1230.368701
1232.765627
1231.163978
1234.99729
1234.05856
1231.777462
1239.467781
1236.635924
1237.570726
1315.270659
1311.896109
1307.239017
1320.879099
1316.452417
1320.079946
1309.615315
1312.911598
1317.134772
1285.854501
1290.452534
1287.795093
1295.343994
1292.92589
1288.103797
1302.510434
1297.735122
1300.393543
686.7989977
677.2060649
675.5670439
664.9259519
649.0578744
646.828725
629.625624
605.7970997
602.8033107
576.8208617
541.9791764
538.2437232
500.6353093
452.3001433
448.186629
396.7129277
333.9775824
330.2696891
264.6336887
189.7177585
187.433312
705.4597257
701.3473994
696.9659079
695.6637062
688.1616685
681.4482001
678.2947208
664.6811839
650.7987009
645.3267137
635.4671527
631.463468
598.6132672
583.4724384
578.2013721
528.5078981
506.4227627
500.2775479
428.8647758
398.5816944
392.37844
296.7972259
258.6109031
253.8853293
715.5939811
713.9284103
707.0314992
711.2106713
707.2504266
696.8343502
701.7042908
695.3565007
671.2494902
671.9208479
664.3876365
655.7138442
634.6612808
622.0235735
610.3224357
573.271551
552.9206571
538.6424682
476.5539442
445.6249029
431.0567677
335.1655316
292.9602689
282.1733857
728.2759025
729.797311
721.5689454
731.244865
732.2030105
719.1854552
732.549652
737.0539813
704.7981217
711.8613261
708.1053658
695.9190305
691.1012841
682.9001664
665.6164482
647.2433009
630.660569
607.8974247
561.7501731
531.0135689
504.8884577
410.2586002
360.0101438
338.8914891
740.9203428
746.3266719
738.0760746
752.6272979
759.5327005
745.8280627
766.6927686
783.1322666
748.326977
761.9139142
763.6132833
749.0484684
765.8990135
764.8339115
742.4099222
754.380372
747.0813812
714.0948912
703.776589
678.9468264
634.369732
554.8695152
492.7086826
450.0956876
751.497785
760.5912135
753.8513314
771.568369
784.4558943
772.6625127
799.2958567
826.399384
794.3668245
813.4570056
821.7235873
807.5154177
849.4337739
859.5830331
835.8999672
891.8482712
902.2362304
861.0381805
923.0797777
923.1984714
851.5278771
852.6800467
784.7269438
686.0727319
756.844578
769.0841022
765.6714872
783.9765503
801.5995264
794.2822992
822.5079041
857.499445
835.4198192
857.070486
871.4615849
860.4925265
923.7184556
944.8053748
925.8311862
1023.523868
1056.494895
1021.664834
1186.505921
1244.609857
1166.404281
754.7367128
769.0049447
770.1200524
786.3807626
806.9497826
805.9421745
831.3804247
869.0670113
862.1882067
882.4859364
900.7870815
895.8660062
967.7163619
994.8548126
986.6817933
1096.573777
1139.38646
1128.538401
743.9134324
758.8502054
765.1594935
776.9873747
798.3173853
804.4258567
823.4455228
859.0979754
868.3594743
884.2484078
903.5407255
905.3781605
971.9494692
998.6343227
1001.661972
1092.26719
1128.266603
1137.270944
724.023722
738.371956
749.8379537
755.675795
775.8270404
788.7284877
799.3117592
829.7359391
853.3103178
863.1656944
881.2022482
888.8637736
943.1820869
966.4307086
977.0552734
1043.597883
1071.341644
1087.744719
695.8041165
708.4261441
724.5133573
723.57937
741.0626925
759.8511292
761.229559
784.5649917
819.7122615
823.2445049
838.8508506
851.0371603
891.5115974
910.888677
926.5181682
974.2270439
996.8229403
1016.664488
690.4165548
719.766093
771.2478526
768.6701377
781.1034852
796.7693202
822.9380208
838.2870359
857.8837243
889.2237014
908.0346516
931.8531183
1863.471241
1819.638579
1709.795517
980.9619437
1113.486863
1302.189161
1290.859836
1274.583923
1415.842951
1390.850229
1408.937254
1189.161679
1179.158476
1167.601946
1259.131179
1244.425265
1254.767985
1107.128683
1093.719474
1082.901269
1156.479875
1145.764237
1156.780819
1190.26306
1187.155685
1186.207658
1071.713408
1060.161088
1074.686218
1126.809895
1122.084487
1119.376065
1154.90223
1152.828765
1156.770686
1333.06444
1327.412077
1321.073538
1368.158175
1360.194513
1361.586358
1334.752442
1337.318449
1333.590163
1324.912615
1328.64277
1331.851904
1164.24453
1159.670751
1157.711478
1184.562625
1183.612412
1186.963131
1116.777977
1113.99689
1119.265479
1061.631437
1503.090764
1470.691004
1442.563826
1584.967526
1580.259619
1656.46261
1929.301464
1892.358539
1834.372969
2159.383921
2147.583653
2247.200056
1385.595254
1386.766694
1376.984088
1480.203392
1459.240876
1453.849595
1525.829855
1531.196167
1504.03624
1778.899043
1727.056303
1737.352468
2562.54924
2518.673558
2370.160914
1136.353437
1134.627719
1138.911113
2582.423334
2532.595766
2436.462788
2911.908816
2897.83728
3035.517708
1351.755097
1354.33653
1351.579146
1345.825007
1347.781269
1349.643585
3411.26953
3358.806251
3195.994145
1196.5188
1195.011802
1197.172267
1203.207882
1199.147873
1198.327609
1144.767317
1140.602802
1138.867145
1171.194172
1169.695879
1173.293748
1178.987108
1175.049381
1173.507287
647.9526145
641.1333915
650.3794318
618.771809
630.3907267
637.7980074
619.575939
624.4871216
612.1872433
599.9733572
590.9566733
605.3734689
556.7824953
574.4521703
584.0592923
560.6847448
566.8976512
548.4890751
526.1388749
515.3377781
536.7080697
465.8113895
491.2679337
502.3942998
475.7526087
482.6857183
456.593782
418.432657
407.6155066
437.4100859
340.6364518
374.7462175
385.2697297
360.4229173
366.8080857
332.3868049
273.1352491
265.4160453
303.5270896
224.5990038
231.173725
215.8035099
219.8017076
684.5281189
674.0021341
680.7411387
657.2233405
666.179111
677.6691737
646.2649661
655.70847
645.8958716
649.6895478
635.1461411
646.9018239
606.3449439
621.6604854
637.2327687
595.1413844
607.6395625
591.5245091
587.451885
569.1513226
588.8665482
521.7732197
546.8182611
565.7765562
515.3207722
530.0427613
504.7347134
482.1693663
462.5188111
493.6589585
390.522914
428.0924718
447.3621777
397.5388368
411.6193774
374.8788594
320.9880427
305.8019309
349.6488682
259.0426691
271.8900914
238.9831885
248.1704197
734.7908003
721.0473687
723.6433035
713.4933031
717.721804
732.7879696
690.1315001
703.5041475
697.9051826
721.3422883
701.4995984
708.1587289
683.1311805
693.2405564
714.9558503
654.3621449
673.0383532
661.2622009
683.7009634
655.9006334
670.8022903
616.5573094
637.9768761
667.7864166
587.1261022
611.1360689
588.3249177
595.2374587
560.9662102
591.0668803
484.779904
525.6838493
560.3670788
469.7560547
495.6881692
455.5098675
414.6602947
384.9901246
437.8966252
326.2636244
351.6521215
287.053864
304.9835816
792.9752328
778.2874735
774.9757493
784.1646553
781.4223602
797.9449878
748.7502128
764.9176407
765.5106274
812.0156064
788.0248699
786.4952429
788.7227047
788.978571
815.9217945
738.1421913
762.8006597
759.5294048
821.4318799
782.7156019
786.4401227
765.8423397
775.9901793
818.5982702
700.6845039
736.7413565
722.6508567
787.0161797
729.6008178
750.8435668
661.033282
700.3023755
762.0869674
600.4596479
646.7903093
605.8953074
607.6563165
544.3798245
609.6497218
464.3171849
520.3869906
382.1487794
419.0936501
848.4227448
835.4355338
825.5424103
857.4706516
846.032996
860.8786367
814.327726
830.4234543
839.6762181
904.9744339
882.7489466
869.6906414
911.5292123
896.709355
922.2736188
843.094946
870.1481179
880.9861846
983.5665386
943.4147225
927.1726649
975.756034
959.863122
1007.279979
863.7370672
911.6303848
919.1677887
1083.371525
1000.997902
989.9344843
998.167631
1005.656612
1105.710779
833.2948865
914.4281279
893.0297418
1071.705113
910.5562985
971.2246378
798.7285389
1046.467229
590.9086164
681.4068064
889.2992969
881.1487727
865.4766058
917.3798719
898.4171109
907.77998
874.6957201
887.2905119
904.6326875
975.5832818
961.5622129
938.3265279
1016.511383
987.4694707
1003.475165
946.3232579
968.2101554
994.2955806
1110.961962
1086.68932
1049.320233
1179.865627
1129.614016
1157.894068
1052.527559
1093.916084
1136.914924
1359.450999
1311.190602
1239.266768
1524.641928
1401.113382
1465.16002
1210.941786
1313.059793
1391.461096
1478.076734
1468.395137
1599.404108
905.5482162
904.0044355
885.1674616
947.4845251
924.7462982
926.5672811
915.3286664
920.990539
943.2028606
1002.201977
1000.022257
972.4748427
1064.206104
1030.428815
1032.445617
1015.992652
1025.010087
1058.710423
1142.796137
1143.847593
1101.812573
1244.270439
1191.074077
1187.381344
1177.418517
1188.221528
1244.332443
895.198821
900.1169494
880.9681093
943.2791646
920.8817944
915.600114
926.4731483
924.5430398
947.3026271
986.0973994
993.3645392
967.4049341
1051.098553
1021.245844
1012.894049
1031.351842
1027.503531
1058.684209
1102.94461
1116.61052
1082.917621
1188.480295
1151.911731
1135.569062
1178.731259
1166.549592
1206.949996
862.2091753
872.2872077
854.771626
911.0012915
891.0709673
880.3271313
908.8020762
900.594266
921.2435214
941.0427968
954.382469
932.1015914
1002.319107
977.8136135
963.3939883
1002.726318
990.9721115
1016.738417
1035.706417
1053.95145
1027.765766
1107.263756
1080.580373
1060.947172
1118.035956
1099.641727
1128.06582
1282.085218
1275.939116
1269.504669
1290.5988
1284.014004
1289.389417
811.6596934
825.702891
810.8241397
858.2680159
841.5692735
826.6978649
868.4463309
855.5046539
873.0534034
876.5378556
894.2170102
875.8107154
933.5938926
913.4857278
894.7914354
947.8215736
931.1686555
952.3065934
954.5166187
976.1362275
954.4983818
1021.247974
998.4230781
976.0316659
1040.753861
1019.947212
1043.411808
1184.592734
1178.817561
1174.877599
1188.596297
1184.35512
1189.348305
810.9442195
794.3717707
808.3181116
875.0974423
854.4160709
871.3747994
952.5866659
927.9031
949.0510843
1113.303359
1104.707125
1100.302726
1115.032187
1110.874383
1118.485945
1204.347206
1198.967947
1194.401324
1210.014642
1205.084768
1209.78326
1132.967264
1124.877471
1120.937575
1134.282608
1130.543847
1137.658951
2144.914177
1953.885901
2013.127783
1731.55946
1854.47805
1980.023381
1653.488106
1745.531582
1652.777575
1305.34514
1233.747178
1092.293354
1621.420625
1406.378119
1464.04528
1283.715268
1504.549091
1326.539213
1308.127518
1320.040803
1262.455684
1278.02234
1263.264926
1383.316869
1367.705702
1346.33604
1203.731642
1191.229873
1201.002176
1170.808794
1181.091546
1193.373
1157.503626
1169.042508
1157.679672
1221.759807
1233.218787
1247.451916
1206.22752
1219.400595
1207.092573
1240.382166
1230.308004
1216.764148
1253.500696
1247.749772
1241.699896
1261.632495
1255.373272
1260.571702
1114.649578
1104.297281
1117.241943
1080.963372
1092.200758
1102.887199
1070.078033
1081.188049
1068.461911
1124.915114
1135.207588
1146.14156
1113.664413
1124.299943
1112.619326
1146.748283
1135.268919
1124.958119
1167.220825
1160.706412
1157.188036
1169.56279
1165.880683
1171.467034
1189.902741
1188.817749
1191.46193
1034.653611
1046.718174
1058.514731
1021.123506
1034.242504
1021.456839
1062.86931
1048.057548
1035.312082
1091.639976
1083.110062
1076.644369
1093.88453
1089.407375
1097.438941
1127.082491
1124.901423
1129.266823
1114.787652
1118.019248
1110.95757
1154.146228
1149.965766
1147.872415
1748.25566
1754.369672
1720.041599
1826.072863
1790.301196
1784.994655
1474.94588
1484.36356
1471.112561
1512.476667
1497.512391
1488.312019
1339.766877
1333.597362
1338.535467
1323.879506
1328.774576
1335.560963
1315.238627
1322.018237
1316.685481
1356.083254
1358.074248
1366.646322
1342.534072
1349.957395
1346.666092
1355.08948
1352.876638
1346.11708
1363.562172
1363.824826
1361.16572
1369.240176
1366.430656
1365.992331
1345.463331
1341.194525
1338.852318
1345.040991
1343.230359
1347.088976
1336.523213
1339.677344
1341.820397
1433.68875
1441.114312
1431.68888
1460.685545
1449.567048
1442.349989
1373.748646
1375.142884
1372.083168
1382.244572
1378.47336
1376.722763
1227.152623
1221.798428
1216.486339
1234.394856
1228.680757
1233.458224
1321.212401
1325.061048
1321.044031
1333.71652
1329.20882
1325.158851
1336.108237
1332.897316
1337.644611
1163.826035
1162.271475
1166.545159
1185.682577
1181.839321
1180.714226
1150.727614
1143.309635
1139.727195
1152.040212
1148.558261
1154.991501
1104.364505
1108.879334
1111.683371
1070.491095
1527.103295
1499.437532
1539.208269
1637.353625
1568.596744
1550.989275
2006.752315
1950.463942
2000.469819
1857.969691
1900.697066
1945.929734
1804.339723
1852.981364
1814.371412
1990.04112
2023.543034
1938.120967
2200.899564
2108.712239
2060.243131
1410.256625
1397.753763
1395.637598
1399.237859
1398.615367
1411.918665
1376.218799
1386.766514
1386.113642
1462.707074
1461.799153
1482.572263
1426.670567
1443.325046
1443.627716
1435.921252
1440.855132
1424.572116
1596.847462
1561.990426
1557.751073
1559.607376
1561.45719
1594.092487
1505.761801
1531.985289
1529.500335
1694.047004
1711.57792
1756.974316
1630.083672
1669.438453
1655.453906
1684.241571
1679.395444
1635.953171
1945.398936
2139.17443
2143.898732
2125.717449
2286.802737
2905.395449
2693.450821
2756.125967
2442.769973
2581.954631
2742.142672
2310.823688
2436.068032
2331.888237
1136.767884
1131.96917
1129.989412
1624.648589
1632.377565
1608.553811
1687.929937
1659.791906
1651.553957
1536.533976
1545.472739
1528.112043
1585.103834
1564.712085
1555.240183
2711.498631
2626.471646
2691.550768
2394.955164
2479.672168
2410.093131
2968.590629
2850.686948
2794.5002
1355.044363
1354.561209
1352.764098
1358.685678
1356.639274
1356.733586
1343.885195
1345.858535
1343.301949
1350.991673
1348.37929
1346.737193
1351.340295
1349.940104
1352.236198
1405.652065
1411.079467
1404.567921
1424.69338