/*--------------------------------*- C++ -*----------------------------------*\
| =========                 |                                                 |
| \\      /  F ield         | OpenFOAM: The Open Source CFD Toolbox           |
|  \\    /   O peration     | Version:  v2012                                 |
|   \\  /    A nd           | Website:  www.openfoam.com                      |
|    \\/     M anipulation  |                                                 |
\*---------------------------------------------------------------------------*/
FoamFile
{
    version     2.0;
    format      ascii;
    class       volScalarField;
    location    "0.38";
    object      nut;
}
// * * * * * * * * * * * * * * * * * * * * * * * * * * * * * * * * * * * * * //

dimensions      [0 2 -1 0 0 0 0];


internalField   nonuniform List<scalar> 
3019
(
0.06911982698
0.2111874428
0.2835485218
0.3659782421
0.466272508
0.6054971067
0.8242375256
1.080193274
1.155355365
1.150580041
1.148478371
1.147984058
0.130901336
0.3144472179
0.3970884829
0.4761472716
0.5690081781
0.6993883884
0.8985025104
1.127395455
1.156301582
1.151134437
1.148764561
1.148170392
0.1810063519
0.453863154
0.6121609762
0.653633407
0.7225067084
0.8351982252
1.013199178
1.165176895
1.157186335
1.151722715
1.149167058
1.148521227
0.1970550798
0.4645341407
0.7254744092
0.9299163181
0.9356180983
1.013211647
1.161929452
1.165977181
1.15797066
1.152336224
1.149652982
1.148965097
0.2030848336
0.4676297382
0.7279494542
0.9344092222
1.064776036
1.131891664
1.162693906
1.166444151
1.158571588
1.152863777
1.150111676
1.149404102
0.2081445254
0.4687946472
0.7307820931
0.9366397708
1.065756096
1.132284985
1.162783607
1.166572309
1.158985042
1.153304496
1.150556054
1.149844509
0.2162953765
0.472280066
0.734748142
0.938274884
1.06568164
1.131900928
1.16241719
1.166397782
1.159174575
1.153582084
1.150872916
1.150170256
0.2256928193
0.476946147
0.7367767235
0.9388386638
1.064923001
1.130996847
1.161707798
1.165978593
1.159243288
1.153807672
1.151156638
1.150461404
0.2337563412
0.4808096758
0.7365849067
0.9383905602
1.063694944
1.129755289
1.160752667
1.165378366
1.159135897
1.153874804
1.151291529
1.150605391
0.2407247982
0.4840157094
0.7353038202
0.9368092601
1.062073537
1.12828856
1.159631956
1.164654566
1.158985859
1.153936202
1.151418451
1.150732006
0.2468441575
0.4867071443
0.7336741876
0.9342539258
1.060050046
1.126646379
1.158400318
1.163852144
1.158707161
1.153853889
1.151397179
1.150709237
0.2522918299
0.4890415865
0.7320067714
0.9311298201
1.05764196
1.124846391
1.157090517
1.163001443
1.158448
1.153814415
1.151409578
1.150710287
0.2572553169
0.4911596486
0.7304206292
0.9277893763
1.054936116
1.122907059
1.155725093
1.162123224
1.15807796
1.153633962
1.151274795
1.150564171
0.2618741695
0.4931447453
0.7289551629
0.9244335508
1.052042597
1.120857296
1.154323624
1.161232073
1.157774557
1.153543115
1.151220644
1.150489879
0.2662303919
0.4950388345
0.7276116905
0.9211529984
1.049052137
1.118730062
1.152903424
1.160339448
1.157358672
1.153303881
1.151014425
1.150265728
0.2703614517
0.4968739607
0.7263768322
0.9179806011
1.04602644
1.116554567
1.151477919
1.159452957
1.157050123
1.153196153
1.150932435
1.150158312
0.2743035445
0.4986816632
0.7252382854
0.9149260561
1.043006163
1.114354725
1.150057177
1.158577996
1.156615333
1.152925933
1.150688011
1.149893028
0.2780979164
0.5004831551
0.7241860679
0.9119902641
1.040018412
1.112149606
1.148648689
1.157718359
1.156319776
1.152816807
1.150599216
1.149776943
0.2817664152
0.5022575766
0.7232062802
0.9091707469
1.037082763
1.109955423
1.147258485
1.156875688
1.155889056
1.152543627
1.150348648
1.149505624
0.2853037785
0.5039738632
0.7222860253
0.9064680862
1.03421637
1.107786805
1.145891874
1.156054019
1.155604202
1.152430245
1.150255741
1.149385731
0.2886996926
0.5056272699
0.7214285786
0.9038924414
1.031436811
1.105657156
1.144554202
1.155251549
1.155219857
1.152198495
1.150044027
1.149155833
0.2919678182
0.5072410599
0.7206610647
0.901465265
1.028764042
1.103582045
1.143254653
1.154479901
1.154900595
1.152044643
1.149915108
1.149000531
0.2951528736
0.5088651345
0.720023036
0.8992121356
1.026218296
1.101576153
1.14201606
1.153743553
1.154665905
1.15192756
1.149813483
1.14888552
0.2983046911
0.510541215
0.7195469185
0.8971541188
1.023818933
1.099654287
1.140912083
1.153111312
1.154302823
1.151765971
1.149681597
1.148722088
0.05139723974
0.06482614537
0.1852989384
0.09860786011
0.05288125132
0.1247369716
0.2530855251
0.1886046912
0.1333769687
0.1019602407
0.1465260566
0.08213271866
0.07884742336
0.09533560069
0.1627649352
0.1502090733
0.03497813654
0.06276438821
0.03182342938
0.04224376868
0.1079300658
0.06713639104
0.1751172461
0.3800178442
0.2858620763
0.1233323028
0.1127338052
0.04567600806
0.2032694746
0.1692289214
0.09889895474
0.1101338874
0.006877677851
0.0216533027
0.03782641941
0.08822016432
0.01068931411
0.01361726507
0.0419853351
0.0106540288
0.01031814933
0.01379671825
0.0106578507
0.01082905021
0.02288970176
0.01552807982
0.03258006493
0.02571216679
0.01059886263
0.007080556163
0.02430758778
0.01014135484
0.01051973161
0.1927803484
0.2467247485
0.04426469113
0.01519925021
0.02211226729
0.01083827542
0.01684600105
0.03235153282
0.06518268402
0.01057358598
0.007368473291
0.007473288882
0.01072900845
0.01053209462
0.04121517582
0.03490295363
0.01014638488
0.01019359027
0.01015563045
0.01027208347
0.007056875249
0.01035757596
0.01038866647
0.01223962768
0.01072745368
0.01058050726
0.01056689723
0.01038379244
0.01138174748
0.01106221801
0.01073924011
0.01069401437
0.01085293923
0.01259008088
0.0118155894
0.01030104256
0.01081374721
0.01066442242
0.01281690866
0.01158095193
0.01012637091
0.264626465
0.3242929954
0.3456664379
0.4184847647
0.4460537632
0.5411648973
0.08183432486
0.1236700009
0.1237446137
0.2789757622
0.3430801672
0.2651191684
0.3621637673
0.4225820087
0.3441813895
0.4426926012
0.5136428355
0.438849446
0.5396802779
0.6256622604
0.5612292526
0.144423229
0.264739205
0.2192043586
0.4492112309
0.5347987307
0.3795315177
0.5461020608
0.5858246836
0.4565455061
0.6017238336
0.6567570837
0.5440466601
0.679029513
0.7546325648
0.655174559
0.1215014117
0.1076471004
0.1943767447
0.3949009261
0.3849885801
0.4628374879
0.6618695786
0.6069895755
0.7244742054
0.849311461
0.640726455
0.8452184562
0.8638976711
0.7020388636
0.8765340461
0.9343574965
0.7965867719
0.1307894677
0.124573137
0.2019663737
0.3996294269
0.3968260125
0.4672428994
0.6652213722
0.6630438713
0.7274284257
0.889403332
0.8873984943
0.9338521038
1.03838328
0.9269162897
1.064307237
1.119372838
0.9888535625
0.137322686
0.1323612177
0.2066353133
0.4007629099
0.3999252329
0.4683865892
0.6678524157
0.6657817334
0.7299169823
0.8916908573
0.8899453374
0.9360688469
1.040048767
1.038914307
1.065628366
1.120074502
1.119651571
0.1467882818
0.1393212102
0.2139887242
0.4045072274
0.4013495889
0.4711518873
0.6717550916
0.6687399258
0.7338122788
0.8941719019
0.8923363938
0.937977224
1.040494508
1.040259649
1.065775794
1.119875681
1.120094622
0.1587576597
0.1496912477
0.223463337
0.4104938029
0.4059302984
0.4758596596
0.6744741065
0.6727061893
0.7365179344
0.8955516571
0.8946294354
0.9387880312
1.040097484
1.04045998
1.065162515
1.11906892
1.119720846
0.1695522354
0.1616114177
0.2318549037
0.4157440735
0.4118956055
0.4799106418
0.6750557363
0.6747593641
0.7367765324
0.895638745
0.89570226
0.9386059854
1.039122158
1.039900824
1.064039485
1.117858886
1.118797286
0.1786167756
0.1719665119
0.2390703213
0.4201537439
0.4169173713
0.4832682018
0.6747484868
0.675028799
0.7356760178
0.8942912516
0.8954331141
0.9373087011
1.03765136
1.038800565
1.062515761
1.116379083
1.117510476
0.1863289702
0.1806564727
0.2453847949
0.4238947872
0.4211462083
0.4860739555
0.6741258621
0.6746097033
0.7340924674
0.8918090456
0.8937545203
0.9349627093
1.035659617
1.037202619
1.060593883
1.114689018
1.115975307
0.1930747512
0.1880933944
0.2509820695
0.4271436034
0.4247441069
0.4884828991
0.6734100228
0.6739495773
0.7324187101
0.8887508949
0.8910777437
0.9319421644
1.033171173
1.035080004
1.058276093
1.112803944
1.11423579
0.1991193067
0.1946441269
0.2560517469
0.4300909231
0.427902779
0.4906446788
0.6727074081
0.6732298382
0.7308064417
0.8855267665
0.8879489288
0.9286313436
1.030312115
1.032484476
1.055634279
1.110741309
1.112304026
0.2046338452
0.2005427859
0.2607460767
0.4328631221
0.4307964703
0.4926590961
0.6720684137
0.6725402574
0.7293096612
0.8823396141
0.8847214822
0.9252675771
1.027236061
1.029557594
1.052778031
1.108535971
1.110201941
0.2097357763
0.2059446955
0.2651639257
0.4355538057
0.4335435018
0.4945715468
0.6715064724
0.6719204884
0.727936745
0.8792678317
0.8815590647
0.921963642
1.024062465
1.026447865
1.049804987
1.106230013
1.107967528
0.2145049492
0.2109570665
0.2693482644
0.4381565757
0.436212995
0.4964195883
0.6710154122
0.6713772748
0.7266761179
0.8763315867
0.8785206146
0.9187628551
1.020866496
1.023263143
1.0467837
1.103861108
1.105642574
0.2189930571
0.2156516434
0.2733338234
0.4406692698
0.4387935855
0.4982293152
0.670587194
0.6709025607
0.7255143914
0.8735300846
0.8756184727
0.9156784804
1.017692771
1.020069377
1.04375905
1.10145937
1.103262851
0.223253213
0.220076911
0.2771623824
0.4431011244
0.4412834732
0.5000345257
0.6702170669
0.6704894079
0.7244416899
0.870857368
0.8728499586
0.9127131726
1.014568809
1.016906115
1.040761122
1.099048629
1.100856895
0.2273314442
0.224287115
0.2808629523
0.4454721783
0.4437003663
0.501817797
0.6698956022
0.670132722
0.7234452901
0.8683050117
0.8702082152
0.909864783
1.011512293
1.013797631
1.037810807
1.096648081
1.098447015
0.2312475346
0.2283217722
0.284436798
0.447767379
0.4460537069
0.5035516224
0.6696079809
0.669821104
0.7225107483
0.8658669518
0.8676847597
0.9071324348
1.008537803
1.010760287
1.034925531
1.094274724
1.096051726
0.2350057728
0.2321930698
0.2878741496
0.4499757381
0.4483271363
0.5052200854
0.6693499255
0.6695403056
0.721635995
0.8635475697
0.8652754048
0.904523398
1.005661044
1.007808659
1.032122473
1.091944013
1.093687604
0.2386246307
0.2359025309
0.2911859264
0.4521189036
0.4505134808
0.5068431323
0.6691445944
0.6692920136
0.7208428574
0.8613662906
0.8629882045
0.9020567703
1.002901556
1.004959272
1.029421103
1.089672762
1.091370098
0.2421576086
0.2394696276
0.2944229731
0.4542497721
0.452640586
0.5084737625
0.6690359645
0.6691052343
0.7201722622
0.8593520616
0.8608456536
0.8997586284
1.000280733
1.002232422
1.02684198
1.087478047
1.089116416
0.2456827101
0.2429412291
0.2976647251
0.4564419962
0.4547539152
0.5101841628
0.6690761579
0.6690212063
0.7196699227
0.8575355069
0.8588761165
0.8976559808
0.9978207658
0.9996491327
1.024406887
1.085379615
1.086943285
0.2495021724
0.2463677847
0.301196089
0.45890551
0.4568946773
0.5121556896
0.6693254976
0.6690784383
0.7193539108
0.8558445461
0.8571018847
0.8956609506
0.9954233744
0.9972290565
1.02202289
1.083313738
1.084867165
0.0486706887
0.03970646116
0.04164042814
0.08405726218
0.07978808247
0.06016996115
0.1688568103
0.1489370939
0.1575196986
0.09078924678
0.03752836514
0.02487454143
0.03277442553
0.05413830583
0.1544725177
0.1431470835
0.1093620687
0.219222909
0.1847200812
0.2233858443
0.1615207689
0.1770008259
0.2118453384
0.114173673
0.1001080762
0.1434153184
0.1319984701
0.1289468722
0.1284951667
0.1426624804
0.02704632167
0.03778558159
0.06446694293
0.06768512536
0.08469224977
0.07508511646
0.05664248733
0.0606973864
0.1287647503
0.1265823731
0.08594435948
0.1579175372
0.1416501113
0.1459562087
0.1341204431
0.1370260567
0.1538978501
0.0241830552
0.02698903335
0.03721583798
0.01468294346
0.01363460552
0.01074392846
0.05879806468
0.03520506464
0.04048775915
0.02944576815
0.01862634979
0.02126698137
0.06639423106
0.06168572395
0.03493938621
0.1036281203
0.08225163386
0.08663751142
0.07759044788
0.09884275292
0.04873865567
0.05308705899
0.07112048491
0.01815151117
0.01637365784
0.04337747961
0.04263449933
0.2502765712
0.2433631683
0.1511268517
0.3741447587
0.3118778397
0.3177618491
0.2470255544
0.3048635898
0.3338458688
0.1215256185
0.100118792
0.1042914281
0.0912507458
0.09556658466
0.1167723524
0.05560655338
0.07523584437
0.07072570214
0.1888275604
0.1673626131
0.1791144623
0.1511186774
0.1583663163
0.1773705967
0.1039496147
0.1366485004
0.1306663352
0.1053729807
0.06881748224
0.07221737894
0.01905500502
0.01160817354
0.01292420341
0.05027530792
0.04771533316
0.05355174136
0.05203203869
0.03586520827
0.08620925988
0.06993082459
0.07094476842
0.01125241033
0.01681645945
0.01466053804
0.02202643599
0.01939544156
0.01237703096
0.03980617886
0.02975839307
0.03235341107
0.02030864571
0.0132019925
0.01458308894
0.0111854801
0.01193139755
0.01775455725
0.03063516013
0.02034949047
0.02262672789
0.01639443021
0.01829055872
0.027871317
0.01466974891
0.01632231968
0.02668187513
0.2137333822
0.2003957732
0.1800662687
0.2310253421
0.2133483755
0.2277077349
0.03476881786
0.0370923203
0.04670376521
0.01688736907
0.02696650452
0.02458280767
0.03212241955
0.02979757213
0.01945188104
0.04301327553
0.04090331912
0.02964737462
0.0606773531
0.05202972911
0.05209660518
0.04840666961
0.05910554219
0.02257131348
0.02050235823
0.03887641685
0.03019715404
0.03238850215
0.02530293691
0.02776190117
0.03669399552
0.5757921915
0.6829331855
0.7969495655
0.9177915062
1.050640104
1.160027867
0.07349341505
0.09252106072
0.08844195982
0.2285115229
0.2489679658
0.2293354987
0.3054627662
0.3257530147
0.3029994986
0.3885290697
0.411415546
0.3892682076
0.488139005
0.5174389917
0.4958218357
0.6610752033
0.7630305642
0.7168380097
0.8570199509
0.9677594783
0.94122503
1.081388174
1.161189283
1.160569478
0.135412807
0.174117669
0.168640813
0.3598541056
0.3794735709
0.3343085723
0.439321206
0.4575240079
0.4165844284
0.5132672683
0.5342062566
0.4977495807
0.6021650799
0.6286929846
0.5963044237
0.7810606722
0.8720573396
0.8147493044
0.9507747738
1.050514415
1.005732727
1.143649379
1.162207087
1.161702837
0.1863933502
0.260868081
0.2560401568
0.4576154853
0.5262865491
0.5229992956
0.6913749902
0.6904887272
0.6199171492
0.7113496771
0.7227340984
0.668202129
0.7695961064
0.7895477227
0.7443116546
0.9458193616
1.01279809
0.937515173
1.087351885
1.165326674
1.106535864
1.165498537
1.163079712
1.16270434
0.1991015153
0.2696789247
0.2686448382
0.4657703479
0.5333024853
0.5322420334
0.7262393056
0.7847635047
0.7840333329
0.9325782792
0.9721219581
0.9224417532
1.000247234
1.008840891
0.9474870049
1.1316358
1.153518595
1.100765911
1.162371553
1.166181351
1.165844503
1.16625551
1.163739813
1.163464583
0.2041712165
0.2714152126
0.2710479036
0.4678863615
0.5356548783
0.5352034293
0.7285122324
0.7870026302
0.7864521947
0.9349556763
0.9744930212
0.9739608295
1.065146883
1.086865763
1.086574945
1.132274056
1.154111865
1.153961529
1.162803865
1.166503006
1.16640144
1.166561359
1.164126116
1.163995711
0.2098823096
0.2746163287
0.2734706172
0.4693815965
0.537673289
0.5370751288
0.7317464718
0.790005792
0.7891329699
0.9371641503
0.9763397424
0.9759682458
1.065818263
1.087289972
1.0872791
1.132056289
1.153927991
1.154092193
1.162650119
1.166392231
1.166492927
1.166528855
1.164237995
1.164239346
0.2186964084
0.2813968044
0.279455201
0.4735191053
0.5410035908
0.5400829273
0.7355111409
0.7933708479
0.7926859165
0.9385063009
0.9771242432
0.9770205651
1.065544794
1.08685702
1.087027246
1.13126125
1.15325517
1.153642109
1.162099163
1.165943292
1.166202276
1.166221854
1.164115966
1.164232633
0.2278292078
0.2889340438
0.2871516405
0.4779808468
0.5440396212
0.5433582974
0.7368918826
0.7947212883
0.7945961554
0.9388264256
0.9770313518
0.9771273225
1.064654262
1.085862348
1.08615231
1.130089649
1.15224793
1.152785267
1.161255507
1.165246241
1.165618877
1.165702703
1.163809136
1.16401374
0.2355898044
0.2954694429
0.2939185202
0.4816670539
0.5463966668
0.5458569832
0.736327238
0.7940146262
0.7943445802
0.9381015741
0.9761417846
0.9764441995
1.063325731
1.084481707
1.084857638
1.128671373
1.151018325
1.151655622
1.160209024
1.164378993
1.164828537
1.165033089
1.163363216
1.163633836
0.2423268461
0.3011897628
0.2998277821
0.4847304803
0.5482781159
0.5478456129
0.7349112287
0.7920842961
0.7926315478
0.9362469476
0.9743721714
0.974897348
1.061605534
1.082785203
1.083238476
1.12707
1.149637106
1.150343649
1.159027602
1.163399407
1.163899447
1.164264342
1.162827708
1.16313792
0.2482613068
0.3062373485
0.3050272601
0.4873176779
0.5498120934
0.5494538002
0.7332537661
0.7897160096
0.790322162
0.9335095316
0.9718041711
0.9725072963
1.059481382
1.080775905
1.08130756
1.125307772
1.148143152
1.148902623
1.157753669
1.162346169
1.162879427
1.163433975
1.162231481
1.162569629
0.2535720487
0.3108127437
0.3097038073
0.4895867482
0.5511304754
0.5508146946
0.7315997756
0.7873012859
0.7878986269
0.9303043155
0.9687165118
0.9695203632
1.056988784
1.078470102
1.079071601
1.12340092
1.146559473
1.147361254
1.156413478
1.161244726
1.161799639
1.162566457
1.161602991
1.161952866
0.2584375216
0.3150619313
0.314024868
0.4916673367
0.5523369138
0.5520418145
0.7300421715
0.7849901374
0.7855547559
0.9269466203
0.9653892591
0.966231874
1.054226071
1.075929615
1.076582428
1.12137582
1.144907031
1.145740486
1.155027693
1.160114146
1.160681628
1.161679598
1.160951238
1.161311489
0.2629864525
0.319048105
0.3180740274
0.4936248821
0.5534892731
0.5532047491
0.7286080822
0.7828264349
0.7833531379
0.9236041881
0.9620032775
0.9628490217
1.051301014
1.073232882
1.073917717
1.119265221
1.143207654
1.144061858
1.153614966
1.158970044
1.159542662
1.160785757
1.160294869
1.160653027
0.2672834515
0.3228151336
0.3218911995
0.4955024346
0.5546093917
0.5543317639
0.7272932232
0.7808098416
0.7813009488
0.9203489826
0.9586517731
0.959483575
1.048296994
1.070447379
1.071149129
1.1170996
1.141480954
1.1423466
1.152190737
1.157824491
1.158396584
1.159895195
1.159634133
1.159994129
0.2713635448
0.3264086912
0.3255235356
0.4973247379
0.5557074676
0.5554343988
0.7260834566
0.7789258821
0.7793852272
0.9172056442
0.955376583
0.9561869473
1.045269495
1.067622139
1.068330065
1.114904024
1.139742609
1.140612268
1.150766753
1.156686161
1.157253715
1.159013443
1.158983285
1.159333958
0.2752655013
0.3298721519
0.3290166091
0.4991335917
0.5567864793
0.5565175414
0.7249675333
0.7771609819
0.7775917089
0.9141809254
0.9521964236
0.9529820043
1.042255205
1.064792107
1.065498584
1.112698775
1.138004935
1.138872715
1.149351799
1.15556126
1.156121077
1.158146365
1.158338398
1.15868654
0.2790282495
0.3332317123
0.3324002089
0.5009303914
0.5578617432
0.5575930063
0.7239349165
0.7755023793
0.7759078927
0.9112744166
0.949119288
0.9498787392
1.039278771
1.061982343
1.062681811
1.110500547
1.136277664
1.137138746
1.147952788
1.154454526
1.155004062
1.157295335
1.157708506
1.158044468
0.2826666254
0.3364941593
0.3356870593
0.5026936787
0.5589295159
0.5586634523
0.722970902
0.7739356578
0.7743194243
0.9084838634
0.9461494861
0.9468816218
1.036358938
1.059212823
1.059900465
1.108324336
1.134569715
1.135419071
1.146575881
1.153370116
1.15390613
1.156465934
1.157094565
1.157422329
0.2861728648
0.3396466349
0.3388667446
0.5043931049
0.5599920394
0.5597274857
0.7220651373
0.7724525646
0.7728153182
0.9058115502
0.9432938345
0.9439963912
1.033512549
1.05650129
1.057172777
1.106183598
1.132891285
1.133722732
1.145226798
1.152312145
1.152831249
1.155657472
1.156492876
1.156808145
0.2895436717
0.3426828628
0.3419259712
0.5060349785
0.5610419642
0.560779092
0.7212269714
0.7710632634
0.7714003531
0.903270701
0.9405670826
0.9412355298
1.030757758
1.053865779
1.054516461
1.104093401
1.131251139
1.132060164
1.143910658
1.151283933
1.151781759
1.1548785
1.155927952
1.156219032
0.292809334
0.34563178
0.3448775031
0.5076532264
0.562105803
0.5618318991
0.7204893842
0.7697979648
0.7701000209
0.900884922
0.9379915864
0.9386198652
1.028114952
1.051325957
1.051950855
1.102068484
1.129652425
1.130440867
1.142628598
1.150285676
1.150765587
1.154122238
1.155356825
1.155641836
0.2960380264
0.3485607587
0.3477651244
0.5093143552
0.563235293
0.562924427
0.7198974808
0.7686966491
0.7689500277
0.8986813126
0.9355918966
0.9361728928
1.025604965
1.048901858
1.049495394
1.100125885
1.128075585
1.128888128
1.141358072
1.14929643
1.149799126
1.15337791
1.154842494
1.155103045
0.2993142336
0.3515541254
0.3506358718
0.5110917439
0.564496691
0.5640969665
0.719486119
0.7677893764
0.7679785703
0.8966779948
0.9333838418
0.93391497
1.023244783
1.04661196
1.047168931
1.098217938
1.12647155
1.127490392
1.140084525
1.148319369
1.148947546
1.152654
1.154311166
1.154639523
0.1775841915
0.1695037217
0.174325934
0.09663648763
0.0737927852
0.08091436162
0.0448896869
0.04523629357
0.05724549653
0.1844507055
0.1860544719
0.1957352952
0.1369890566
0.1430672555
0.1115459818
0.1083534831
0.09341060042
0.05273129167
0.049959914
0.04011509881
0.03171206064
0.03009200868
0.04603323422
0.05869396878
0.05431762607
0.09973657132
0.1121909105
0.1122508292
0.03623617606
0.0340473749
0.2834826914
0.2664626659
0.248431943
0.3062196734
0.285997355
0.3038532079
0.3686537612
0.3505882816
0.3276639025
0.4006664535
0.3747549841
0.3926636197
0.4758394647
0.458367393
0.4284219863
0.5252790478
0.4905021829
0.5077340747
0.1005032621
0.09675059413
0.07784144012
0.1244682478
0.1168954234
0.1155960708
0.1087166271
0.1126944819
0.1261057445
0.2990293878
0.2717469473
0.2510751917
0.3123222795
0.2890497003
0.3192775232
0.2445166273
0.2643884821
0.286458456
0.3815917905
0.3511467543
0.331496474
0.393402316
0.3718296594
0.4022309373
0.3232797644
0.3462914754
0.3673476126
0.4655327964
0.4372749458
0.4147878323
0.4858815657
0.4611693293
0.4893658353
0.4130234767
0.4358758216
0.4613851782
0.5676264895
0.5410701303
0.5126618396
0.6022886931
0.5713890967
0.5980761245
0.5272274558
0.5481617465
0.5789147218
0.1840126164
0.1788727162
0.1414629035
0.1955497593
0.2110574371
0.2424229088
0.5058131362
0.4360178281
0.4186967536
0.4745368143
0.4567768412
0.5218805604
0.3566397743
0.4021865684
0.4229362687
0.5589086283
0.5046904228
0.4887213821
0.5371423975
0.521206461
0.5723303834
0.4368882627
0.4760552362
0.493751924
0.6189641744
0.5740919361
0.5551121996
0.6153071496
0.5938731136
0.6369049971
0.5198853871
0.5554260468
0.5783068136
0.7021092125
0.66381345
0.6387956446
0.7193556217
0.6906584068
0.7279018686
0.6258792082
0.6566077536
0.6845777604
0.1175955565
0.1128536469
0.2669872465
0.2644689444
0.1908845012
0.3923430826
0.3301921075
0.3325685991
0.3228211513
0.326967125
0.3890715904
0.5307963452
0.5288494224
0.4605726116
0.660302822
0.5957654298
0.5974298194
0.5907480415
0.5935707085
0.6582469173
0.7831014107
0.7756653442
0.7231622631
0.769274007
0.7695078304
0.8371698466
0.6299052454
0.6941729884
0.7015375112
0.8474480458
0.7823107407
0.7741458873
0.8055982244
0.7927807482
0.8538878398
0.6841015916
0.7359457525
0.7514696699
0.8912198743
0.8383645959
0.8210594789
0.8862777337
0.8591557797
0.9106109168
0.7682353786
0.8123272059
0.8382966365
0.1290610962
0.127042641
0.2707184497
0.2703084338
0.2006856154
0.3990975458
0.3356664127
0.3358746037
0.3341840036
0.3351628016
0.3982001343
0.534698582
0.5340896359
0.4666495837
0.664630234
0.60028666
0.6008614623
0.5986688429
0.5995876371
0.6639287058
0.7859369974
0.7853847199
0.7268744692
0.888836239
0.8394726638
0.8400351893
0.8380860004
0.8388253618
0.8881588537
0.9734000571
0.9727948211
0.9332627283
1.037786004
1.007566312
1.008174432
0.9213795501
1.000756592
0.998010721
1.086192071
1.078421041
1.063753018
1.107053035
1.088231139
1.104392405
0.9645518388
1.023707082
1.042996486
0.1355346312
0.1339113164
0.2725761472
0.2718999993
0.2053270541
0.4003778445
0.336297355
0.3367244939
0.3359609465
0.3360669596
0.4001330602
0.536555853
0.5360954324
0.4681108574
0.6670636975
0.6025629396
0.6032483725
0.6013948897
0.601949905
0.6663835288
0.7883304613
0.7876234799
0.7291610139
0.8910770167
0.8417175434
0.8423817184
0.8405637927
0.8411171939
0.8904982468
0.975515573
0.975011702
0.9355075335
1.039756592
1.009705937
1.010110291
1.008723628
1.009237055
1.039377322
1.08720944
1.087074106
1.065428273
1.119996492
1.105111627
1.105207178
1.104712199
1.104949641
1.119859311
0.1440656153
0.141571561
0.2776464132
0.2760134599
0.2118357236
0.4032317279
0.3394736155
0.3408595211
0.3373900022
0.3383140677
0.4021762652
0.5391821099
0.5383820895
0.4701711638
0.6707332899
0.6056861649
0.6065492386
0.6040082793
0.6048234211
0.6697189851
0.7918724787
0.7909465491
0.732763062
0.8936328112
0.8446906277
0.8454228402
0.8431049223
0.8438858874
0.8930113309
0.9768590092
0.9766341076
0.9376094235
1.040476135
1.010846501
1.010954726
1.010431328
1.010674457
1.040400413
1.087159026
1.087248086
1.06582322
1.119991346
1.105159198
1.105048902
1.105243022
1.105225645
1.120066736
0.1557789665
0.1527096741
0.2853028821
0.2833839614
0.2211314774
0.4090248356
0.3457860745
0.3474189526
0.3424046335
0.3440874457
0.4074880887
0.5426310912
0.5418499519
0.4747188666
0.6740530485
0.608822976
0.6093434713
0.607428362
0.6081935946
0.6734721083
0.7943300293
0.7939206898
0.7361002292
0.8953201233
0.8470507171
0.84739198
0.8460616669
0.8466056761
0.8950128021
0.977175228
0.977174684
0.9386773926
1.040257921
1.010958622
1.0108673
1.011006135
1.011006195
1.040380328
1.086416448
1.086652277
1.065370916
1.119314886
1.104496685
1.104249761
1.104899239
1.104714207
1.1195336
0.1670282715
0.164381015
0.2923142564
0.2906537435
0.2298813242
0.4145177516
0.3519484516
0.353347088
0.3489876905
0.3504965384
0.4132363473
0.5452857494
0.5446807745
0.4789686773
0.6750299917
0.6104731316
0.6107524973
0.6097803017
0.6101524963
0.674938019
0.7945826515
0.7947129253
0.7368856001
0.8957503959
0.8477475132
0.8476358777
0.8476246873
0.8477442694
0.8957708889
0.9766917973
0.9768866981
0.9387504819
1.039412514
1.010356694
1.010109146
1.010735685
1.010565519
1.039672616
1.08521359
1.085548863
1.064359629
1.118190554
1.10336204
1.10302374
1.10397686
1.10368032
1.118504106
0.1764919569
0.1742752675
0.2984210999
0.2969695812
0.237360004
0.4191200614
0.3572509241
0.3584635316
0.3546951984
0.3559962878
0.4180422832
0.5473891458
0.546906698
0.4824862451
0.6748679121
0.6114090403
0.6115795749
0.6109985558
0.6112164352
0.6749639891
0.7931437641
0.7936092224
0.7360206186
0.8947546706
0.8466818652
0.8461917408
0.8474152097
0.8470938567
0.8951377964
0.9753683632
0.9757833033
0.9377407789
1.038066396
1.009126801
1.008714484
1.009822638
1.009495856
1.038449417
1.083672156
1.084086507
1.062933082
1.11677008
1.101905042
1.101499511
1.102667614
1.102294472
1.117147246
0.1845063411
0.1826171854
0.3037850692
0.3025071775
0.2438791635
0.4230144398
0.3618774028
0.3629589434
0.3596338467
0.3607690392
0.4220998484
0.5490800909
0.5486888345
0.4854160464
0.674295879
0.61198699
0.612094519
0.6117313437
0.6118666582
0.6744583561
0.7909224697
0.7915118737
0.734506173
0.8925044852
0.8443816311
0.8437014049
0.8456370819
0.8450302149
0.8931563605
0.973172897
0.9737959776
0.9356294627
1.036206911
1.007219216
1.006637197
1.008258965
1.007760431
1.036721614
1.081819775
1.082312328
1.061112548
1.115130464
1.100191445
1.099724226
1.101078889
1.100642873
1.115558848
0.1914624597
0.1898027823
0.308573127
0.3074184289
0.2496394527
0.4263657957
0.3660538713
0.367040395
0.3640146461
0.3650457835
0.4255669507
0.5504907586
0.5501570839
0.4879090948
0.6735905757
0.612362341
0.6124382937
0.6121918382
0.6122807302
0.673771119
0.7885014635
0.7891079482
0.7328348992
0.8895427862
0.8415527454
0.8408192704
0.8429988257
0.8422809185
0.8903205968
0.9703058316
0.9710685733
0.9327371557
1.033834015
1.004676268
1.003961446
1.006017417
1.00536286
1.034471242
1.079657052
1.080225437
1.058889763
1.113293247
1.098232305
1.097705167
1.099242065
1.098744653
1.113770124
0.1976636351
0.1961724145
0.3129718441
0.311901476
0.2548243703
0.4293750283
0.3698886583
0.3708058484
0.3680073615
0.3689563594
0.428645956
0.5517429767
0.5514394463
0.4901207388
0.672878186
0.612647912
0.6127146252
0.6125105295
0.6125801965
0.6730526915
0.7861284782
0.7867108213
0.7311996711
0.8863343345
0.8386236207
0.8379003488
0.8400848721
0.8393524043
0.8871427364
0.9670690462
0.9678981958
0.9294705795
1.031052797
1.001685319
1.000893131
1.003222477
1.002462812
1.031777837
1.07722425
1.077853891
1.056319105
1.111272353
1.096044549
1.095466512
1.097164568
1.096610718
1.111792887
0.2032979753
0.2019345165
0.3170856619
0.3160818181
0.2596004833
0.4321783146
0.3734751422
0.3743371909
0.3717085001
0.372599051
0.4314901057
0.5529180389
0.5526288142
0.4921670517
0.6722209008
0.6129171166
0.6129863934
0.6127814633
0.6128489176
0.6723783125
0.7838892315
0.7844348795
0.7296720222
0.8831272315
0.8357778295
0.8350876491
0.8371844984
0.8364769144
0.8839215646
0.9636961046
0.9645433676
0.9261057146
1.028018059
0.998457163
0.9976320455
1.000089535
0.9992769441
1.028792534
1.074596092
1.075267131
1.053506364
1.109098809
1.093673532
1.093058528
1.094878267
1.094280255
1.109653784
0.2084941115
0.2072305174
0.3209559944
0.3200084134
0.2640824591
0.4348891511
0.376853221
0.3776717647
0.3751867552
0.3760250814
0.4342189327
0.5540526128
0.5537718078
0.4941003685
0.6716398658
0.6132032599
0.6132783574
0.613057197
0.6131295416
0.6717778847
0.7818005618
0.782308932
0.7282688107
0.8800232264
0.8330752421
0.8324232454
0.8344072544
0.8337365633
0.8807871031
0.9603197913
0.9611598713
0.9227808293
1.024860189
0.9951428352
0.9943119254
0.9968038575
0.9959738288
1.025655733
1.071847757
1.072542595
1.050554905
1.106814108
1.091175705
1.090537367
1.092436921
1.091809013
1.107392964
0.2133407198
0.2121582268
0.3246299753
0.3237275044
0.2683220912
0.4375142325
0.3800748909
0.3808593409
0.3784813458
0.3792820768
0.4368663632
0.5551605587
0.5548855897
0.4959626959
0.6711320168
0.6135123085
0.613592923
0.6133549725
0.6134330014
0.6712526367
0.7798522279
0.780326976
0.7269815233
0.8770527679
0.8305233533
0.8299077571
0.8317807995
0.8311476467
0.8777824794
0.9570031677
0.9578248061
0.919552314
1.021664709
0.9918293412
0.9910068766
0.993482321
0.9926546746
1.022463844
1.069037301
1.069743222
1.047540709
1.104457783
1.088601171
1.08795011
1.089895268
1.089249634
1.105051295
0.2178942645
0.216781134
0.3281547578
0.3272854504
0.2723534057
0.440050349
0.3831622267
0.38391514
0.3816348795