/*--------------------------------*- C++ -*----------------------------------*\
| =========                 |                                                 |
| \\      /  F ield         | OpenFOAM: The Open Source CFD Toolbox           |
|  \\    /   O peration     | Version:  v2012                                 |
|   \\  /    A nd           | Website:  www.openfoam.com                      |
|    \\/     M anipulation  |                                                 |
\*---------------------------------------------------------------------------*/
FoamFile
{
    version     2.0;
    format      ascii;
    class       volScalarField;
    location    "0.38";
    object      omega;
}
// * * * * * * * * * * * * * * * * * * * * * * * * * * * * * * * * * * * * * //

dimensions      [0 0 -1 0 0 0 0];


internalField   nonuniform List<scalar> 
3019
(
672.6955921
129.4713504
65.67480252
45.61823078
37.66846121
33.99603152
32.01505593
31.24342687
30.78552097
30.60843799
30.51569683
30.4693298
424.3979206
121.3688431
65.2665715
46.03324704
37.95490838
34.14358002
32.05749195
31.22755159
30.7275441
30.53373273
30.42995658
30.37841601
305.08407
113.8027544
64.25563522
46.01485539
38.04520742
34.19978945
32.06459339
31.20161533
30.67054799
30.46301419
30.34872048
30.29205192
269.8451087
109.1875442
63.42798974
45.8273598
37.97475677
34.17742274
32.04484672
31.16492739
30.60859772
30.39025806
30.2682989
30.20740192
252.0114951
106.3885809
62.63549906
45.51824176
37.83653015
34.11640341
32.00098549
31.11691563
30.54366143
30.3175697
30.1881465
30.12342335
237.1526441
104.0595497
61.69742652
45.10683533
37.65707651
34.0265446
31.93656298
31.05420505
30.46985871
30.23792885
30.10407539
30.03620373
220.9528859
101.2570479
60.62963899
44.68121166
37.47110802
33.91941268
31.85876147
30.98102193
30.39067914
30.15505902
30.01766249
29.94769
205.659861
98.35658712
59.76380138
44.30548302
37.28925984
33.80365128
31.77149875
30.89912555
30.30358174
30.06479044
29.92476292
29.85337315
193.1747771
95.81913478
59.12568656
43.9874577
37.11663227
33.68456019
31.67741771
30.81011023
30.21246207
29.97209984
29.83024024
29.7578846
182.7472033
93.57256102
58.61080808
43.73618183
36.95738418
33.5655374
31.57865615
30.71540577
30.11412167
29.87177307
29.72853819
29.6557549
173.8279883
91.55602495
58.15290314
43.54352574
36.81541233
33.44920703
31.47711436
30.61630525
30.01423783
29.77137909
29.6272859
29.55430093
166.0333959
89.71499764
57.72321263
43.38863313
36.69161519
33.33755044
31.37440423
30.514071
29.90788961
29.66325067
29.5183766
29.44549337
159.09635
88.00691788
57.30936173
43.25351688
36.58331665
33.23148928
31.27168439
30.40971349
29.80300591
29.55831014
29.41302579
29.34029312
152.8405495
86.40359905
56.90577821
43.12769388
36.48651714
33.13092657
31.16962066
30.30409064
29.69135582
29.44443145
29.29853669
29.22611095
147.1490519
84.88840327
56.51033917
43.00609695
36.39777151
33.03525135
31.06855384
30.19772998
29.58467111
29.33791307
29.19177442
29.11960768
141.9379643
83.45017995
56.12229666
42.88643519
36.31459317
32.94370831
30.96861534
30.09115664
29.46913113
29.21934275
29.07255364
29.00071787
137.1408455
82.0798994
55.74116219
42.76761255
36.2352507
32.85558536
30.86984491
29.9845501
29.3634255
29.11408483
28.96706794
28.89546859
132.7001009
80.76952344
55.36648976
42.64899326
36.1584797
32.77023411
30.77222854
29.87832706
29.24402668
28.99068814
28.84288247
28.77154124
128.5750816
79.51454308
54.99834354
42.53016977
36.08330063
32.68707649
30.67573554
29.77242529
29.14231822
28.88976759
28.74165927
28.67047707
124.7421295
78.31373983
54.63693028
42.41068759
36.00885731
32.60556767
30.58031758
29.66732414
29.01730352
28.75984368
28.61078991
28.53975124
121.1828536
77.164808
54.2813361
42.28969528
35.93428345
32.52514731
30.48594987
29.56272882
28.92383846
28.66721261
28.51771999
28.44675775
117.8727303
76.06181237
53.92911059
42.16592036
35.85870071
32.44531725
30.39275983
29.4595552
28.78869722
28.52718538
28.376643
28.30570499
114.7803269
74.99674023
53.57714184
42.03796699
35.7812458
32.36552018
30.30126281
29.35773617
28.71043808
28.4481508
28.2970342
28.22608388
111.885741
73.96998583
53.22588382
41.90565204
35.70151306
32.28541572
30.212955
29.26020022
28.53506716
28.26748563
28.11502907
28.04403248
817.2607801
701.9966279
156.3925837
523.0846526
801.7522763
442.4785542
153.0772934
154.8147803
402.8852055
515.3810125
290.4850355
595.9516885
611.6542204
536.9910261
258.4660402
280.8388536
1116.82799
711.1845313
1221.101132
949.8065026
500.8082329
679.29162
318.2819442
140.7865872
150.1239197
441.4608645
482.6900237
894.1351461
238.2052366
251.2181974
523.2664626
480.2387416
5822.825359
1799.177391
1002.041976
553.7543378
4342.753797
2967.240208
951.0463554
4512.101025
5674.851143
2929.435189
4278.848515
6004.556207
1699.020439
2557.008129
1194.17137
1510.835419
5404.76503
6048.147712
1598.376249
5752.136938
4905.265621
141.7844055
75.4267825
912.9467313
2615.95053
1756.942586
4021.721972
2338.252835
1206.043643
715.0914826
5820.260856
6166.149705
6275.768215
5172.144151
5979.955566
965.8291115
1118.238551
5482.108127
4954.414391
5562.770651
5149.037798
5955.660431
5899.187514
5731.39186
3397.630859
5042.13301
4561.200458
5696.445358
5897.242536
3822.955731
4172.669167
4625.242609
5930.992085
4795.21628
3339.702346
3688.222158
5548.457082
4072.464304
4333.639619
3173.27495
3648.593044
5734.993015
65.66194226
48.82629723
45.49499093
38.97057674
37.55621142
34.61378862
600.6549598
399.061444
427.7193391
123.7020747
74.21066637
75.27108876
65.34533187
49.27195651
48.92243137
45.96766818
39.36003873
39.11119129
37.90490451
34.82893494
34.67378089
386.1773124
214.1477807
233.1833445
115.4174402
72.66165952
74.03487053
64.49713169
49.25516597
49.28910736
46.05596963
39.52364449
39.44011099
38.04673678
34.92738088
34.85837463
415.6453166
470.1846783
276.1920606
132.4761219
138.2395345
110.1104057
71.26369422
72.29326251
63.62777815
49.00993131
49.19150702
45.87915345
39.45780498
39.51798737
37.99961513
34.90974085
34.92769672
373.3609685
402.7275618
255.8181493
127.9160642
131.0687909
106.9948821
70.16471864
70.97096012
62.83957188
48.6565537
48.93164093
45.60539331
39.31097501
39.42648425
37.87777031
34.84393861
34.89554249
341.689876
365.2361697
240.9722613
124.6539664
127.0899678
104.6672667
69.02055423
69.89681294
61.95155691
48.18831682
48.55131145
45.21747418
39.0926969
39.26015411
37.70317864
34.74699335
34.82221639
308.8337709
333.6635758
225.0668897
120.6876903
123.7551642
102.0040503
67.70369728
68.70127886
60.89018441
47.64606253
48.05419308
44.78310183
38.86689725
39.03588451
37.51750063
34.63065457
34.71915362
277.5424203
300.5875573
209.1966243
116.3014609
119.5826765
99.04487501
66.54492376
67.3797884
59.95499193
47.16276895
47.51820738
44.39448022
38.65048524
38.81168232
37.33401818
34.50565894
34.59994326
252.9051222
270.781465
196.0761083
112.4473564
115.2847381
96.42368157
65.66328869
66.30542493
59.2699324
46.76357838
47.05449766
44.06087956
38.44875697
38.59855338
37.15871066
34.37796549
34.47386177
233.7854105
247.6918182
185.1947496
109.087003
111.5658367
94.11038337
64.91830783
65.46796025
58.73245346
46.45799062
46.67864034
43.79283811
38.26639967
38.4011712
36.99570256
34.25130946
34.34611464
218.3505672
229.6356855
175.9394827
106.1128616
108.3111156
92.04174799
64.24522149
64.74479268
58.26402139
46.22799534
46.39471651
43.58730018
38.10817049
38.22448964
36.8491676
34.12873382
34.2202021
205.452469
214.9213048
167.8928903
103.4360275
105.4190552
90.16138673
63.61679527
64.08471882
57.82883011
46.04159457
46.17849093
43.42493623
37.97449221
38.07259299
36.72096581
34.01262111
34.09905496
194.3860119
202.5348119
160.7610685
100.9847027
102.8044523
88.42325639
63.01832932
63.46485449
57.41172843
45.87552645
45.99883713
43.28613566
37.86073665
37.94445281
36.60916058
33.90400682
33.98477715
184.7057145
191.8489162
154.3476017
98.70926707
100.4008633
86.79564833
62.4413273
62.87234201
57.00586854
45.71791055
45.83564469
43.15862321
37.76080753
37.8347
36.50984619
33.80255365
33.87802147
176.1225962
182.4658071
148.5239234
96.57881905
98.16400738
85.25961
61.88159537
62.29991271
56.60849061
45.56365599
45.67917123
43.03625771
37.66984537
37.73739645
36.41935629
33.70726601
33.77821228
168.4359372
174.1231642
143.1994064
94.57316448
96.06633874
83.80305555
61.33720607
61.74413819
56.21865142
45.41079414
45.52537492
42.91624576
37.58463486
37.64811575
36.33497426
33.61703039
33.684288
161.4998357
166.6365137
138.3044401
92.67699351
94.08935343
82.41658047
60.8068504
61.20335865
55.83583204
45.25854641
45.37271028
42.79728237
37.50311957
37.56398532
36.25480407
33.53084256
33.5951498
155.1935856
159.8689248
133.7789223
90.87673282
92.21839115
81.09181713
60.28934635
60.67632154
55.45956009
45.10652829
45.2205482
42.67865529
37.42391783
37.48316005
36.1774899
33.44784663
33.50983652
149.4239387
153.7052183
129.5771389
89.16303396
90.4403963
79.82315778
59.78419817
60.16190622
55.08974665
44.95454183
45.06854862
42.55991626
37.34601773
37.40436744
36.10199466
33.36729744
33.42751737
144.1278888
148.0607454
125.6714653
87.53258121
88.7476981
78.60888196
59.29168852
59.65988895
54.72667513
44.80239259
44.91654789
42.4406598
37.26857791
37.32665841
36.02744754
33.28852638
33.34747277
139.2594911
142.8797911
122.0419979
85.9827703
87.13789996
77.44722021
58.81122308
59.17051734
54.36979233
44.64941191
44.76427863
42.32014944
37.19072828
37.24920006
35.952988
33.21086919
33.26904081
134.7707601
138.1206782
118.6627875
84.50629343
85.60787709
76.33276212
58.34020573
58.6927633
54.01697989
44.49428047
44.61090703
42.1972028
37.11152688
37.17110235
35.87774031
33.13371459
33.19156351
130.5976566
133.7387847
115.492763
83.08889719
84.14986981
75.25504778
57.87408146
58.22360471
53.66474155
44.3352319
44.45497985
42.07034901
37.02998838
37.09140923
35.80081582
33.05643813
33.11443743
126.6657165
129.6823838
112.4784345
81.70861377
82.75330718
74.19770709
57.40613504
57.7591071
53.30808216
44.17005107
44.29483785
41.93782012
36.94500229
37.00916832
35.72120993
32.97828074
33.03703605
122.6900388
125.9132265
109.4028868
80.26533742
81.41731697
73.08332652
56.90101492
57.2999088
52.91982599
43.98562739
44.13043448
41.78892922
36.84954613
36.92399108
35.63239988
32.89320807
32.95900893
850.3796312
993.3274466
954.000341
596.1944106
618.2244755
738.5484365
161.7854219
258.6529201
237.6537163
546.7328627
899.1139204
1559.442778
1184.294751
787.3614756
349.3343157
362.1330687
482.3221153
148.7455872
212.5732363
204.7580417
231.288995
217.167285
149.8447019
465.081136
519.8676965
300.7307125
413.360196
385.1725091
426.3557148
286.3861395
1438.704508
1050.144765
694.6569829
670.7890768
579.2818549
631.3398625
759.076842
722.9298943
360.101223
391.5757127
581.0776909
264.3541156
323.8574969
314.9932815
371.738051
337.2457319
272.8700106
1604.119342
1434.911913
1053.366826
2752.724859
3017.239279
4583.990791
742.7469686
1105.745607
971.5150745
1317.79259
2095.151999
1827.751295
701.7163046
737.8548645
1121.588166
517.7284531
612.7075479
589.8357526
639.4530964
538.2222947
845.6158833
792.8420078
654.1083078
2179.059584
2436.864314
930.0338622
939.7511387
224.7769223
232.7946991
368.5458387
143.6571474
177.8486241
173.5182456
199.8340203
182.765092
146.7697312
452.8762041
528.3053829
511.6811849
567.2243209
547.6805518
468.7656961
779.9580463
644.1361758
672.1736427
240.7541165
290.0390175
284.903718
304.6062341
297.9133635
247.2639366
495.6339473
367.1791707
382.8514905
499.3010293
670.8853449
644.7510785
2052.373465
3611.162618
3135.549719
829.7774065
862.0305666
756.9460372
778.7934701
1049.570543
568.8226137
647.6741648
634.2117401
3870.965561
2335.821278
2715.043882
1763.159679
2009.963293
3355.758896
993.7923144
1301.855366
1199.060665
1921.494376
3113.262508
2755.920613
4023.141088
3563.579654
2211.879182
1269.310459
1923.018389
1724.405908
2417.80874
2148.269072
1393.489637
2711.464822
2408.317871
1453.61063
106.6882331
107.7070634
143.1205936
75.5894862
88.77459677
88.16361029
1119.42702
1054.269644
875.7932898
2327.348587
1435.368598
1576.421717
1206.882846
1299.523399
2006.127818
941.1092522
982.7107039
1313.55043
749.4539626
824.1548478
821.5418196
867.6809466
762.4208031
1740.126648
1920.35743
1015.355969
1293.464272
1208.154495
1541.892902
1405.685298
1068.920062
33.94865602
32.63792679
31.98396614
31.54486991
31.25006532
31.04938344
645.4534337
556.7586858
574.9138453
127.5755072
104.106729
105.2108204
65.57693594
58.63598254
58.6020552
45.80222036
43.11510752
42.99400736
37.75117262
36.55609431
36.47560964
34.1189185
32.74373579
32.695597
32.04004758
31.56343837
31.55436453
31.23857203
31.01558456
31.03451118
411.5701242
327.0395382
337.6964914
119.1709458
99.1813783
100.5150546
65.0527406
58.50917777
58.56337894
46.05785078
43.3996037
43.38602442
38.00199624
36.77158519
36.72175893
34.19497419
32.79406826
32.77059313
32.06632605
31.56177005
31.56419029
31.21914684
30.97815093
30.99876441
293.5065834
212.1451675
217.9722515
112.3932605
94.97976406
95.87673784
64.05513918
57.89615339
58.02804911
45.9712067
43.38981964
43.42034621
38.03581027
36.80989183
36.81540785
34.18698844
32.79192706
32.79546528
32.05975464
31.54489085
31.55565061
31.18873935
30.93472973
30.95790173
264.5188346
198.1434584
200.6631323
108.37599
92.33325508
92.88479812
63.23356686
57.3415522
57.48493218
45.7595137
43.22541635
43.27942204
37.94821611
36.73810945
36.76202608
34.13550162
32.75681352
32.77814038
32.02652618
31.51008609
31.52737066
31.14685057
30.88394526
30.91077745
248.3398936
190.2130433
192.0902454
105.8133653
90.42597265
90.88215522
62.42084412
56.70835206
56.87872305
45.42416978
42.94911336
43.02756306
37.79329146
36.61543495
36.64983157
34.05147631
32.69693667
32.72981818
31.9707809
31.45576254
31.48438131
31.08949539
30.82348651
30.85552096
233.211349
181.9445254
184.1696213
103.4138907
88.55721332
89.04021641
61.43276867
55.91978544
56.13067984
44.99613163
42.59984366
42.68771717
37.61065565
36.46549927
36.50424716
33.94747672
32.61774847
32.6592627
31.89907227
31.38747056
31.422762
31.020788
30.75314109
30.78966455
216.8904592
172.343386
174.7883195
100.4962944
86.49926653
87.02048241
60.38703012
55.08515465
55.27998796
44.58249512
42.26774928
42.34772362
37.42503003
36.30741986
36.34711448
33.83314304
32.52629205
32.5732082
31.81613952
31.30826331
31.3487606
30.94256671
30.67452387
30.71503805
202.3052082
163.3535489
165.4542257
97.69134108
84.60324139
85.05282109
59.58721932
54.42631697
54.57285661
44.22011456
41.96948916
42.04063854
37.24510373
36.15013253
36.18909263
33.71447051
32.42734183
32.47753264
31.7251781
31.22078438
31.26519786
30.85654643
30.58844228
30.63257921
190.400128
155.7523245
157.5437123
95.23278563
82.9328777
83.33291265
58.98893464
53.94309692
54.05066534
43.9183544
41.71126233
41.77155775
37.07540601
35.99828486
36.03554082
33.59515943
32.32402439
32.37607473
31.62850185
31.12714794
31.17446964
30.76421229
30.49617701
30.54322869
180.39317
149.1965156
150.7517812
93.04921781
81.43343278
81.79434392
58.4926067
53.57007559
53.65675741
43.68329272
41.50051063
41.54867745
36.92018169
35.85557789
35.89019802
33.47794123
32.21867695
32.27147589
31.52812636
31.02905778
31.07845462
30.66692113
30.39860018
30.44821374
171.7861527
143.4419266
144.8168352
91.08130721
80.0677849
80.39855816
58.04353612
53.24844989
53.32605405
43.50211831
41.33410356
41.37218566
36.78283046
35.72526473
35.75657196
33.36498363
32.11324816
32.16586891
31.42582269
30.92799083
30.97873453
30.56593517
30.29716509
30.34852155
164.2268853
138.2970958
139.5344826
89.27690502
78.80284834
79.1111584
57.61860065
52.94867033
53.02240931
43.3535524
41.19907334
41.23066861
36.66325424
35.60841746
35.63641571
33.25749571
32.00917854
32.06098122
31.32299453
30.82519528
30.87669015
30.46240308
30.19252124
30.24543723
157.4737637
133.6264615
134.7551386
87.59711136
77.61372625
77.90489519
57.20765861
52.65851967
52.73048795
43.2214763
41.08237248
41.11037862
36.55820179
35.50355404
35.52878421
33.15559605
31.90723467
31.95791938
31.22054344
30.72157479
30.77340738
30.3572361
30.08610943
30.13973303
151.3683612
129.3420733
130.380488
86.01705609
76.48471018
76.76188591
56.8062185
52.37329304
52.44424591
43.09703532
40.97541133
41.00154325
36.46369854
35.40810929
35.43122642
33.05876199
31.80765183
31.8571477
31.11895041
30.61773727
30.66962825
30.25112312
29.97793768
30.03247695
145.8038135
125.3853459
126.3464017
84.52201352
75.4070256
75.67196524
56.41267258
52.09153815
52.16167776
42.97606901
40.87353467
40.89868387
36.37654235
35.31970113
35.34125514
32.96625178
31.71037797
31.7587388
31.0184349
30.51406387
30.56584559
30.14455967
29.86947192
29.92396507
140.7020651
121.7128964
122.6064111
83.10159014
74.37504602
74.62902006
56.02640131
51.81288413
51.88226474
42.85669277
40.77433869
40.79896966
36.29446189
35.23646239
35.25687077
32.87733097
31.61523563
31.66255895
30.91907214
30.41080998
30.46236875
30.03790227
29.75990333
29.81508495
135.9987257
118.2885483
119.1233325
81.74693309
73.3839732
73.62815761
55.64690585
51.53714485
51.60581708
42.73796665
40.67649582
40.70088195
36.21586581
35.15698746
35.17656835
32.79134025
31.52200714
31.56840886
30.82086466
30.30812213
30.35939796
29.93141689
29.65115193
29.70566429
131.6395008
115.0811991
115.8642233
80.45061706
72.42977647
72.66502516
55.2738258
51.26421579
51.33218206
42.61932632
40.57916204
40.60348477
36.13957474
35.08017737
35.09918346
32.70768407
31.43044934
31.47606469
30.72376619
30.20610814
30.25707574
29.82527377
29.54130847
29.59666288
127.5884826
112.0715709
112.806548
79.20926942
71.51081647
71.73727959
54.90737403
50.9942967
51.06148615
42.50039368
40.48173154
40.50613175
36.06466017
35.00513783
35.02377784
32.62581547
31.34030478
31.38529359
30.62769703
30.10478825
30.15549183
29.71961254
29.43338553
29.48742025
123.8235021
109.2492651
109.9390034
78.02170398
70.62654714
70.84446733
54.54756238
50.72729362
50.79381196
42.38063227
40.38353065
40.40819975
35.9902662
34.9310434
34.94952342
32.54516855
31.25130021
31.29587874
30.53248532
30.00412707
30.05473605
29.61440542
29.32361933
29.37925588
120.3232678
106.6028258
107.2523984
76.88462646
69.77442042
69.98483435
54.19307709
50.46204357
50.52830492
42.25907456
40.28361109
40.30881442
35.91552194
34.85708016
34.87560231
32.46523814
31.16305846
31.20767153
30.43782836
29.90387091
29.95487305
29.50955251
29.21705819
29.27085139
117.0547245
104.1108955
104.7315718
75.7901488
68.94831443
69.15357505
53.84104671
50.19623585
50.2629417
42.13436381
40.18078225
40.206836
35.83954651
34.78245352
34.80121723
32.38547921
31.07483042
31.12057709
30.34311254
29.80351492
29.85616129
29.40447446
29.10635119
29.16450564
113.9698858
101.7398138
102.3560698
74.72531366
68.13855351
68.34433201
53.4874664
49.92682399
49.99523561
42.00496995
40.07375663
40.10106174
35.76144405
34.70635184
34.72558626
32.305201
30.98496624
31.0349288
30.24692434
29.70162326
29.75917953
29.29784142
28.99935824
29.05838387
111.0090743
99.44234529
100.1165655
73.6662749
67.32637049
67.55782428
53.12364575
49.64708563
49.72545534
41.86762156
39.95986065
39.99120904
35.67940092
34.62709587
34.6483075
32.21835085
30.88562633
30.95260695
30.14074282
29.58939059
29.66568347
29.1802859
28.87283286
28.95811234
157.9291034
178.3082567
176.072927
535.4149202
610.4779254
599.7910571
898.8918539
889.9197615
759.9881399
173.4646844
171.6069534
152.970796
341.9337525
302.8668865
473.11982
482.9204549
549.0533676
810.6114619
842.3960303
992.1395666
1244.424763
1307.952084
884.5585861
755.6404687
794.9151875
513.9617576
454.5941792
463.5351333
1098.674523
1163.02654
58.44044652
58.35149515
65.64442998
48.57718508
52.82698095
53.02189728
42.83443173
42.64674155
45.26647368
38.83199658
40.54583621
40.69972787
36.3867691
36.27251391
37.42814338
34.53181914
35.31876277
35.41614335
523.9391117
538.7133651
621.0434052
408.4030665
466.8212096
455.7771067
495.1300305
481.0333667
417.9638421
101.876847
102.6573193
125.0285185
74.69123748
86.45192788
85.81804416
87.65637643
86.98229835
74.89119606
58.62868006
58.64354357
65.50497159
49.16162905
53.34121
53.38347622
53.15971485
53.29387414
49.13372157
43.2904653
43.25072732
45.88809317
39.31448385
41.08970236
41.12824401
40.86302163
40.9485573
39.19065779
36.68903702
36.62321284
37.8431899
34.78025572
35.61434592
35.67201749
35.48925925
35.56092369
34.73536608
308.7716502
318.1281398
394.4149404
275.6905142
271.028881
228.1969513
96.89243764
97.9603677
117.2255203
73.10921715
83.70622112
83.05337762
85.23436396
84.4583059
73.58120488
58.18284861
58.34873436
64.76415279
49.31739903
53.31925109
53.21553136
53.36213395
53.38669256
49.3258706
43.44514442
43.44708054
46.0779103
39.5126708
41.29320493
41.29976736
41.2197564
41.24492632
39.47063385
36.81393135
36.78436381
38.02358311
34.90564476
35.76061532
35.78686441
35.70385083
35.74431592
34.89107509
431.0573232
449.5471283
203.6980446
207.4523704
283.9222378
134.1171112
163.515053
161.1814629
169.6521886
166.3201621
136.0253548
93.4982471
94.19128344
111.1695935
71.58108944
81.38479998
80.92859508
82.46163246
81.89340863
71.92905275
57.62750768
57.77126897
63.8361953
49.06574479
52.9466141
52.85526808
53.11813062
53.02300151
49.12798344
43.31615852
43.35555203
45.92436616
39.48308111
41.23871534
41.20728461
41.28685351
41.26538334
39.50400919
36.78226164
36.79830237
38.01974304
34.91896863
35.7766017
35.76377419
35.78820625
35.78495428
34.9255053
382.0678282
391.7001879
193.9793466
195.9623038
259.9232874
128.8249314
156.3243452
155.1343753
159.2577969
157.6681792
129.8618702
91.34588143
91.82552635
107.6509073
70.4286425
79.77500231
79.425488
80.51537752
80.13454841
70.69544634
57.03907256
57.19317541
63.03810402
48.75408299
52.52447182
52.40244344
52.75014171
52.64089576
48.84687278
43.10009676
43.16613837
45.68528626
39.35677768
41.08496869
41.0300475
41.17249343
41.13381936
39.39738115
36.68228508
36.71237187
37.91544969
34.86310272
35.70653617
35.68293545
35.74698774
35.72737566
34.880828
349.5789307
357.3713755
186.2821091
188.2912581
244.6892931
125.4953308
151.7375982
150.5037288
154.01433
152.8975109
126.2965296
89.51046527
89.97036542
105.245963
69.32705988
78.35224924
77.97289702
79.07618312
78.71970884
69.61847863
56.33402116
56.52674957
62.19305119
48.31658941
51.98769403
51.83116761
52.27339483
52.13515541
48.43782284
42.77698508
42.86516262
45.3236319
39.14946579
40.83378666
40.76245199
40.96956729
40.90355451
39.20567763
36.54231584
36.57948464
37.74868389
34.77351227
35.59929266
35.56826185
35.65695701
35.62897113
34.79885502
317.1679413
325.4649426
177.224871
179.6244188
229.1723748
121.7653313
146.2733034
144.7092621
149.1822066
147.7675784
122.7898957
87.54516127
88.05718262
102.7270133
68.0374095
76.78085341
76.37921762
77.58240412
77.18436896
68.37113304
55.48622571
55.70233518
61.16281352
47.77861343
51.32269311
51.15377002
51.66708112
51.49638983
47.91550659
42.42977285
42.51383658
44.88806378
38.9227775
40.55197447
40.48390267
40.69142528
40.6211894
38.97914435
36.38677466
36.42629493
37.56405976
34.6608483
35.46942709
35.43521923
35.53613081
35.50309871
34.69043866
284.8003841
292.5398235
167.6479829
169.9426647
212.93559
117.3581551
139.8934065
138.3632451
143.1094174
141.4863398
118.4563596
85.51742842
85.99880628
99.75751335
66.80192303
75.23853465
74.89982356
75.97800042
75.59666169
67.0792184
54.73138323
54.90218072
60.16230094
47.27635712
50.68896547
50.54921186
50.99160856
50.83655131
47.39487627
42.11413744
42.18987376
44.48685695
38.70338035
40.28719884
40.22439318
40.41702335
40.35142404
38.75712186
36.22833218
36.26780836
37.37929539
34.53735669
35.33084108
35.29578708
35.40065863
35.36579863
34.56878803
258.4633299
264.410619
159.4041767
161.3389937
199.1153919
113.3597796
134.1167408
132.8039809
136.8929686
135.4786051
114.3047628
83.74416768
84.16736439
97.0473319
65.86684797
73.96851546
73.67957728
74.57692621
74.26712326
66.08014081
54.16625372
54.29110082
59.42316932
46.85462751
50.17975698
50.07354372
50.41759721
50.29439095
46.95163885
41.8347883
41.90082355
44.13848234
38.49759108
40.04498183
39.98852883
40.16302949
40.10318214
38.54753772
36.07330067
36.1115247
37.20155514
34.40994349
35.19092671
35.15625087
35.26076216
35.22576029
34.44189763
238.1611981
242.787779
152.360407
154.0260311
187.7430815
109.8871339
129.1304957
127.9860026
131.537162
130.3133582
110.7127793
82.16418441
82.54352282
94.66345282
65.09628319
72.86046014
72.60124333
73.39909492
73.12621203
65.27919339
53.74722208
53.8423399
58.85818875
46.52612427
49.80038393
49.72220035
49.97531407
49.88447615
46.59952195
41.59981453
41.65400741
43.85349489
38.30988052
39.83064015
39.7822212
39.93390554
39.88122467
38.35482026
35.92555702
35.96161157
37.03506404
34.28272143
35.05381899
35.02037589
35.12182106
35.08763437
34.31431315
221.9357916
225.6923602
146.2322501
147.691125
178.1260201
106.8253242
124.7602451
123.7473545
126.8775519
125.8029581
107.5575643
80.7360816
81.08087443
92.53917231
64.40856901
71.85777165
71.62010167
72.34798907
72.10026712
64.57494621
53.40525813
53.48644734
58.37712961
46.28022342
49.51472745
49.45226943
49.64903689
49.58010139
46.33560489
41.41246389
41.45517177
43.63376684
38.14534466
39.65009446
39.61036966
39.73598444
39.69194141
38.18410844
35.7887352
35.82175012
36.88409277
34.15885957
34.92285069
34.89142615
34.98737687
34.95483635
34.18934495
208.4829105
211.6363365
140.8030138
142.1047191
169.8091551
104.0816653
120.8682736
119.9562307
122.7622724
121.8031588
104.7423227
79.42449527
79.74323199
90.61657421
63.7706606
70.9320977
70.71016447
71.38680934
71.15756193
63.92655661
53.09684362
53.17212953
57.93554309
46.08561406
49.27710608
49.22159394
49.39212689
49.33385024
46.13112841
41.26356882
41.29797662
43.46267316
38.0058117
39.50264555
39.47012449
39.57263475
39.53676617
38.03847982
35.66520309
35.69481456
36.7513527
34.04096722
34.80080387
34.77186743
34.86060201
34.83037848
34.06977481
197.0084862
199.7228853
135.908921
137.0891223
162.4704963
101.5794987
117.3423531
116.5079904
119.065393
118.1944797
102.1858242
78.19998994
78.4992306
88.84644337
63.16570245
70.06252842
69.85208613
70.49139658
70.27556752
63.31448894
52.80279689
52.87550536
57.51478202
45.91594757
49.05991971
49.00717033
49.16700719
49.11315503
45.95699117
41.13908083
41.16860223
43.31943347
37.88765604
39.38047122
39.3527838
39.43901451
39.40916955
37.91552469
35.55464328
35.58117695
36.63578565
33.9304646
34.6887819
34.6622855
34.74356146
34.71586201
33.95737877
187.0134146
189.3933457
131.4400578
132.5218312
155.891661
99.26361828
114.1024535
113.3305851
115.6903964
114.8887971
99.8273062
77.04235946
77.32628793
87.19343171
62.58387405
69.23457707
69.0330001
69.64402097
69.4382078
62.72750992
52.51542354
52.58685116
57.10649355
45.75688573
48.8507498
48.79906328
48.95476356
48.9026316
45.7961017
41.02803697
41.05496025
43.18986535
37.78479622
39.2745096
39.24972138
39.32595846
39.29989196
37.80939901
35.45481436
35.47891529
36.53372686
33.82730226
34.58602103
34.56159608
34.63634381
34.61092346
33.85244695
178.1775919
180.2912825
127.325748
128.324096
149.9301106
97.09907231
111.0967007
110.3775598
112.5727352
111.8282735
97.62737259
75.93983937
76.21073143
85.63577128
62.02004481
68.43984426
68.24581241
68.83339788
68.63568727
62.15946737
52.23201616
52.30255731
56.70711374
45.60204888
48.64476899
48.59356862
48.74751364
48.69607865
45.64054154
40.92402486
40.9495909
43.06656203
37.69194939
39.17814058
39.15504721
39.22543416
39.20158609
37.71444873
35.36315578
35.38543299
36.44132134
33.73057645
34.49090914
34.46813637
34.53762009
34.51405968
33.75421554
170.2822192
172.1771866
123.5159828
124.4421035
144.4878541
95.0637374
108.2907903
107.6175149
109.6704443
108.9749783
95.56139576
74.88564508
75.14494967
84.16027231
61.47194185
67.67401445
67.4867451
68.05351694
67.86292324
61.60757335
51.95183988
52.02159737
56.31543641
45.44893591
48.44040843
48.38952015
48.54243833
48.49137882
45.48712268
40.82370315
40.84855273
42.94611893
37.60552828
39.08738643
39.06529069
39.13224198
39.10969349
37.62667692
35.27753467
35.29847198
36.35561623
33.63917701
34.40182023
34.3803267
34.44571009
34.42360609
33.66158761
163.1708522
164.8820009
119.9718856
120.834967
139.4915592
93.14153214
105.6598817
105.0269479
106.9547765
106.3023699
93.61225562
73.87468718
74.12362882
82.75710343
60.93819471
66.93424949
66.75308308
67.30103253
67.1168845
61.07035304
51.67466442
51.74368862
55.93090879
45.2965789
48.23719592
48.18655699
48.33867979
48.28790171
45.33462865
40.72531042
40.7497938
42.82697402
37.52323809
38.99994133
38.97842736
39.04335895
39.02157855
37.54351846
35.19633033
35.21629111
36.27453637
33.55206242
34.31737557
34.29686046
34.35909581
34.33811376
33.57349054
156.7177478
158.2745322
116.659315
117.4674757
134.8788981
91.31842763
103.1827479
102.585237
104.4033261
103.7886672
91.76560885
72.90244449
73.142086
81.41760677
60.41756696
66.21800365
66.0423822
66.57333618
66.3949816
60.54655391
51.4003255
51.46864983
55.55303282
45.14452842
48.03493375
47.98451335
48.13596262
48.0854163
45.18253175
40.62780808
40.65214405
42.70831241
37.44356375
38.9143867
38.89318074
38.95700248
38.93565586
37.46330499
35.11831061
35.13757561
36.19661516
33.46834254
34.23646558
34.21668392
34.27654465
34.25641344
33.48899898
150.8221642
152.2461403
113.5524562
114.3110367
130.5998209
89.58359737
100.8421256
100.2769982
101.9961224
101.415012
90.0093401
71.96591817
72.19675577
80.13519769
59.90931104
65.52355955
65.35332545
65.86810292
65.69514568
60.03520851
51.1288696
51.19644868
55.18157542
44.99254395
47.83356261
47.78337781
47.93414025
47.8838143
45.03054158
40.53049743
40.55483946
42.58963383
37.36541934
38.82975159
38.80865383
38.87201033
38.85086544
37.38486317
35.04248966
35.06128671
36.12074964
33.38724439
34.15816992
34.13891594
34.19704727
34.17754147
33.40731124
145.4151757
146.7197727
110.637565
111.3494952
126.6231932
87.93256581
98.62935591
98.09527636
99.72002142
99.17060201
88.33749618
71.06442501
71.28655178
78.90743806
59.41363682
64.85078115
64.68597122
65.18445014
65.01693149