/*--------------------------------*- C++ -*----------------------------------*\
| =========                 |                                                 |
| \\      /  F ield         | OpenFOAM: The Open Source CFD Toolbox           |
|  \\    /   O peration     | Version:  v2012                                 |
|   \\  /    A nd           | Website:  www.openfoam.com                      |
|    \\/     M anipulation  |                                                 |
\*---------------------------------------------------------------------------*/
FoamFile
{
    version     2.0;
    format      ascii;
    class       volScalarField;
    location    "1.09";
    object      k;
}
// * * * * * * * * * * * * * * * * * * * * * * * * * * * * * * * * * * * * * //

dimensions      [0 2 -2 0 0 0 0];


internalField   nonuniform List<scalar> 
3019
(
43.61025001
54.60404528
47.60831209
42.94296
40.03564977
38.28017236
37.03143641
36.27163092
35.54242264
35.21329284
35.05403745
34.99051498
54.50881155
54.60432843
47.77106653
43.06050676
40.15345157
38.38384616
37.08262639
36.28131933
35.50394002
35.14659766
34.96825868
34.89665892
55.56099398
53.93929701
47.49412151
42.98047011
40.1688468
38.44263225
37.10926574
36.27995488
35.46455514
35.08513611
34.8908653
34.81257028
53.91804771
52.45451777
46.782282
42.70580617
40.10924084
38.45021933
37.10736404
36.26041861
35.41623312
35.02144511
34.8161373
34.73249745
52.97954234
50.54743922
45.73691148
42.31098173
40.02846668
38.4234641
37.08133816
36.21763046
35.35793812
34.95409357
34.73992325
34.65199311
51.69654633
48.69366106
44.75595105
41.9400407
39.90047208
38.34726504
37.01127609
36.14694228
35.28275541
34.87501774
34.65741186
34.56646862
50.36449436
47.37432627
44.12796319
41.63721383
39.71122335
38.21874948
36.908224
36.05325688
35.19312354
34.78581544
34.56693082
34.47452692
49.18536472
46.61632403
43.65349732
41.31868856
39.49006441
38.056215
36.78021107
35.93981744
35.08902436
34.68484007
34.46633121
34.37323143
48.10773659
45.93421569
43.20701325
41.00024086
39.25398273
37.87285943
36.63370343
35.81033611
34.97330027
34.57467056
34.35779085
34.26460897
47.11274348
45.30299771
42.78840424
40.68984884
39.01273018
37.67773063
36.47384298
35.66846686
34.84633892
34.45387903
34.23910487
34.14622331
46.18839314
44.71336126
42.39394574
40.39093831
38.77201078
37.47685673
36.3049795
35.51742363
34.71238806
34.32735195
34.11516599
34.02285891
45.32326513
44.1584436
42.01964391
40.10412677
38.53506359
37.27409141
36.13058504
35.35994528
34.57033495
34.19184851
33.98204488
33.89040085
44.51224475
43.63281543
41.6624617
39.8286982
38.30355062
37.07193182
35.95324427
35.19816147
34.42585451
34.05498728
33.84779489
33.75689665
43.74595846
43.13193696
41.32000981
39.56351662
38.07809444
36.87188646
35.77476818
35.03379904
34.27472556
33.90947697
33.70433695
33.61411419
43.01545795
42.65211352
40.99033715
39.3074863
37.858779
36.67483693
35.59643643
34.8680593
34.12574585
33.76782293
33.56500558
33.4754632
42.31473133
42.19029746
40.67173714
39.05958153
37.64538245
36.48123122
35.41910243
34.70200381
33.96910648
33.6152883
33.41403114
33.32503172
41.6386216
41.74407172
40.36278803
38.818912
37.43758153
36.29128894
35.24335702
34.5361752
33.82043642
33.47374754
33.27447031
33.18599849
40.98571545
41.31146264
40.06225477
38.58466303
37.23498514
36.10506094
35.06959019
34.37133072
33.65929947
33.31493006
33.11676683
33.02867376
40.353649
40.89091553
39.76909141
38.35611261
37.03719283
35.92251725
34.89807145
34.20753236
33.51577666
33.178562
32.98201425
32.89428089
39.7410875
40.48114375
39.48245176
38.13264875
36.84382423
35.74354495
34.72898951
34.04556775
33.34809198
33.01151347
32.81580737
32.72830427
39.14726252
40.08119079
39.20162066
37.91372509
36.6545047
35.56798245
34.56255647
33.88505726
33.21662644
32.88687817
32.69231361
32.6050211
38.57225635
39.69042039
38.92606701
37.69891259
36.46893832
35.39576408
34.39926241
33.72754328
33.03531072
32.70605068
32.51232531
32.42514581
38.01629873
39.308372
38.65539411
37.48784679
36.28684852
35.22670787
34.24053979
33.57309849
32.92834092
32.60251333
32.40930407
32.32218295
37.48405977
38.93820653
38.39057068
37.28077179
36.10829761
35.06081131
34.09103768
33.42800154
32.69452861
32.37012163
32.17775155
32.0906401
40.5117482
42.75587504
56.05133214
49.01851458
40.69866289
53.96342196
56.53216558
56.07704456
51.5087502
49.43569769
58.43647115
45.49639385
44.82139921
49.22203487
58.73587484
58.53861745
40.0846737
41.97239069
40.15313967
39.99155195
53.56593467
42.63743386
56.00072642
55.86177137
56.4432616
55.37381
54.10230565
40.05807906
58.87505909
58.79932696
49.89878505
49.74971472
77.77255672
41.72593051
41.70552726
47.54890537
61.2093787
47.81943142
39.9637817
63.84257755
77.49268277
48.23970909
60.50973842
84.13261493
42.19905153
46.03469082
40.59903651
41.58386305
76.06494707
80.59360962
41.09620848
77.2938869
68.12057196
55.23159291
49.14256504
40.04623388
45.99516233
42.10842635
55.59188682
43.75606473
40.20173833
44.05630967
80.98064561
84.29605023
85.57785022
73.54938913
82.72755815
40.50943393
40.55709475
74.38433157
67.30944269
75.76337636
70.92819845
80.97156291
80.47202789
78.82656617
51.38906291
71.64331572
64.70570788
78.96175533
81.00067018
56.05843309
61.71497586
67.27379736
82.69422351
70.21030549
53.61790277
57.19569786
75.91557979
56.80416232
60.4402133
48.60761784
52.79511645
77.86364198
47.55420788
43.81425296
42.85223106
40.58619361
39.99287189
38.6032161
46.14585745
56.63155268
55.80726239
54.66768462
49.32622699
49.20891133
47.75083637
44.01200169
43.90945031
43.04494403
40.74338049
40.63123953
40.138503
38.72759978
38.64035087
55.2673228
58.55595692
58.85736057
54.19457895
49.10817073
49.33180935
47.59705646
43.96839322
44.0299276
43.01609703
40.7568994
40.74920967
40.17351857
38.80216062
38.75062985
49.09174076
48.4921414
54.20119853
54.32750963
55.54342144
52.88116927
48.35624708
48.978998
47.00847381
43.67620128
43.92079847
42.79061437
40.67945425
40.74734995
40.12926405
38.81677357
38.8089692
51.06635101
49.62712649
53.22972145
52.31998839
53.85797916
51.04052881
47.13717319
48.07746802
46.00638845
43.18616493
43.56849595
42.41622613
40.54323122
40.64683012
40.04656269
38.79251341
38.81424142
51.42330062
51.32766041
52.05599404
50.23010594
51.78614912
49.12303409
45.89720023
46.81285552
44.9766605
42.65873578
43.04732692
42.01861181
40.40430141
40.51266105
39.93972108
38.72329591
38.7808157
50.52775354
51.27519654
50.68860266
48.57658051
49.75620907
47.63678583
45.00238765
45.62925563
44.25119746
42.28771292
42.55104422
41.71521121
40.20455008
40.35937444
39.76241721
38.59477053
38.69571061
49.3417316
50.2369242
49.46880679
47.61827897
48.27362923
46.79635733
44.46180037
44.86046815
43.76962374
41.93716261
42.20053902
41.39876477
39.96865754
40.14794935
39.54725958
38.42793288
38.55585553
48.20079752
49.04844795
48.36895127
46.83408057
47.41620578
46.09951628
43.96263785
44.33356637
43.31592057
41.58966148
41.8495513
41.07931129
39.71702813
39.90666523
39.3137789
38.23812554
38.38215267
47.13797313
47.92825035
47.35438781
46.10892007
46.64759924
45.45659222
43.4974912
43.84336644
42.8906198
41.25356157
41.50437109
40.76644252
39.46092951
39.65311031
39.0731632
38.03540671
38.18836207
46.14212543
46.88312752
46.41351225
45.4341539
45.93582415
44.85727427
43.06076321
43.38585641
42.49052841
40.93200273
41.17176486
40.46452124
39.20665142
39.39701425
38.83192953
37.82656783
37.98357278
45.20379618
45.90249453
45.53469139
44.80188207
45.27238106
44.29422863
42.64753232
42.95540668
42.1115071
40.62495912
40.85391934
40.17471988
38.95755304
39.14380296
38.59383168
37.61608698
37.77398317
44.31365151
44.97737503
44.71032743
44.20539367
44.6496393
43.76173795
42.25422758
42.54745206
41.75029028
40.33108077
40.55031333
39.8965481
38.71517957
38.89629494
38.36087169
37.40675801
37.56357989
43.46418469
44.09758364
43.93389897
43.63896054
44.06116263
43.25504649
41.87801782
42.15866597
41.40435042
40.04878631
40.25947505
39.62891004
38.47994332
38.65569708
38.13387707
37.20019182
37.35482524
42.65167118
43.25776201
43.19506742
43.09797025
43.50148148
42.77027208
41.5165688
41.78635063
41.07165395
39.77669369
39.97985252
39.37069289
38.25171858
38.42223874
37.91304024
36.9972633
37.1491069
41.87155334
42.45382302
42.48753576
42.57871605
42.96623835
42.30421259
41.16785558
41.42826176
40.7504368
39.51358118
39.7101122
39.1208509
38.03011163
38.19571007
37.69819685
36.7983668
36.94716053
41.11929772
41.68094797
41.80541413
42.07814688
42.45190976
41.85428231
40.83016665
41.08244522
40.43919091
39.25838189
39.44906633
38.87844663
37.81463826
37.97567822
37.48902754
36.60362823
36.74929312
40.39320238
40.93536907
41.14688341
41.59397043
41.95563408
41.41842772
40.50209291
40.74729189
40.13665799
39.01017988
39.19570465
38.64266313
37.60481162
37.76166806
37.28516703
36.41303668
36.5556007
39.69271698
40.21567738
40.50977745
41.12442528
41.47526824
40.99499059
40.182418
40.42142411
39.84173755
38.76814501
38.94911837
38.41274852
37.40013219
37.55317455
37.08620935
36.22647887
36.36602938
39.01674727
39.52152215
39.89243375
40.66774754
41.00909245
40.58263432
39.87017049
40.10368889
39.55354085
38.5315852
38.70851258
38.18806835
37.20014932
37.34971007
36.89177209
36.04378439
36.18045305
38.36362801
38.85146486
39.29383003
40.22308357
40.55548098
40.18028885
39.56453423
39.79316411
39.27131249
38.29988851
38.47322214
37.96805296
37.00442764
37.15083164
36.70146981
35.8647333
35.99868935
37.73230674
38.20412947
38.71376328
39.78962171
40.11371377
39.78726485
39.26490355
39.48907954
38.99448365
38.07257538
38.242662
37.7522509
36.81261515
36.95611748
36.5149931
35.68919845
35.82052796
37.12145618
37.57909973
38.15092724
39.36715404
39.68307014
39.4026719
38.9707606
39.19087451
38.72256956
37.84923084
38.01637792
37.54026754
36.62439063
36.76523077
36.3320532
35.51699198
35.64584197
36.52717457
36.97714017
37.60145052
38.95288092
39.26407667
39.02456168
38.6810379
38.8981579
38.45470787
37.62932543
37.79399234
37.33163321
36.4394088
36.5778666
36.15234009
35.34790166
35.4744367
35.91113658
36.40309743
37.02934299
38.51831286
38.85955199
38.62745528
38.37635232
38.61225649
38.17320441
37.39918457
37.57585677
37.11366868
36.24714186
36.39410588
35.96581912
35.17292249
35.3063479
40.29378599
39.97176604
39.97387435
47.63129165
46.72216834
41.99754948
55.95302003
58.35682698
58.50729207
47.91612838
41.69291299
41.44600618
40.37137083
40.84988365
57.52038687
57.31319709
51.90123798
56.09854217
58.66990683
58.64033643
58.55391356
58.65356893
56.10491385
50.1673237
48.69253902
58.35416424
56.49517323
57.1905777
56.20846957
58.40445428
40.64601395
40.10846483
41.87843047
42.40406397
46.25898051
44.06979515
40.97445276
41.39936122
57.61822046
56.8832351
47.02274075
58.67285169
58.21798248
58.37689127
57.40497786
58.05584676
58.60192519
41.19751949
40.67081776
39.90706267
49.07922512
51.21157643
67.50285854
41.37982641
40.24630798
40.18799179
40.37682299
42.92450612
41.88067271
43.91889756
43.00411219
40.09722477
53.00150139
48.32260502
49.20403428
47.38368717
52.35206016
40.40107828
40.64155004
43.33367565
45.49177565
47.08066605
40.73282241
40.51561842
57.79799428
58.24940342
55.24628855
56.12518508
57.71405879
57.36977414
58.55201174
57.97859884
56.32351523
55.02432335
51.59826234
52.24727252
50.06572375
50.83709764
54.55655953
41.31639045
45.78283674
44.85528357
58.87615573
58.61672438
58.66079895
58.47819997
58.56079944
58.84056471
51.30579343
57.20840077
56.89286163
49.36657173
44.06368688
44.47160115
42.63511109
51.67001088
47.90984868
40.98450513
40.87017487
41.47702292
41.25572447
41.65366456
46.79139679
42.98924656
43.49305998
55.44916654
44.11502203
45.94601754
41.85079631
42.78234838
50.72748799
39.92900309
40.35692913
40.16021827
43.11403206
50.37297731
47.79888261
59.1167561
53.9323032
44.34243892
40.85352123
43.55257909
42.73489921
45.94119046
44.5128329
41.11454439
45.62899648
44.08901451
40.64799826
52.66595947
52.56135907
54.9658553
49.02084094
50.73626898
50.85292339
40.07063555
40.01434296
40.13465456
44.41539605
40.78113661
41.23077258
40.25197147
40.49298797
43.1422522
40.08484574
40.11128299
40.39670622
42.95603392
40.95102765
40.73604007
40.56253228
42.58861456
43.3491419
44.28776139
40.5006864
41.27525229
41.06570028
42.07605879
41.61235288
40.50334996
38.24761526
37.47761096
36.99896909
36.60171499
36.2666951
35.97245484
44.42946961
49.34776104
48.51780083
54.64889751
52.7962815
52.73131122
47.69291673
46.28599972
46.20803262
42.96564417
42.11682982
42.07679956
40.08747204
39.55302043
39.51138805
38.36254078
37.56736017
37.52679844
37.05921052
36.63704351
36.62005802
36.27900104
35.96543511
35.97067751
54.92343072
57.69967318
57.65560153
54.50109491
52.73883011
52.80677615
47.71755622
46.34052891
46.36732403
43.06711502
42.2010997
42.19588413
40.16838551
39.6407806
39.62794716
38.43276128
37.62259905
37.59887124
37.09857406
36.65753484
36.64885131
36.28222401
35.95000889
35.96054396
55.03825308
56.79244548
57.30950074
53.63072296
52.02394398
52.2875063
47.36392672
46.05630342
46.16179584
42.93015651
42.10738353
42.14432716
40.16019042
39.65593237
39.65801075
38.4516854
37.64255449
37.63773816
37.11111484
36.65911234
36.66068262
36.27440895
35.92464475
35.9405226
53.6818166
54.7374002
55.22527514
52.002157
50.56545991
50.97628733
46.53550591
45.40509749
45.60323984
42.61461508
41.86755734
41.93715738
40.0876076
39.62174959
39.63315887
38.43270334
37.63122436
37.63949069
37.10000252
36.6450893
36.65460662
36.24760997
35.88410767
35.90718436
52.70190914
52.96510571
53.39325505
50.05796047
48.81298849
49.25245538
45.47193444
44.53735866
44.75433456
42.20730398
41.57135839
41.64667585
40.00433318
39.56155315
39.58147483
38.37282487
37.58469384
37.61437767
37.05100784
36.59240672
36.62228146
36.18925206
35.82381084
35.85740428
51.35686592
51.25256982
51.68591692
48.29892923
47.26359079
47.60643961
44.55884056
43.79626067
43.95488034
41.86670083
41.31298456
41.37627946
39.85748069
39.43318918
39.47139667
38.25517474
37.49113823
37.54302796
36.96337464
36.50857981
36.55337835
36.10594443
35.74273177
35.78612076
50.05334735
49.71546533
50.04727019
47.17032989
46.3101963
46.48399614
44.00696352
43.33431909
43.44285683
41.55826916
41.03765545
41.10886555
39.65809399
39.25271487
39.3012123
38.09951382
37.36303455
37.43066353
36.84691976
36.39912313
36.45621669
36.00123584
35.64328215
35.69569401
48.90762382
48.61099788
48.8737849
46.4403429
45.66516436
45.82118047
43.53915155
42.91028797
43.01449911
41.23865151
40.74561115
40.81922514
39.43196491
39.04396856
39.09791787
37.92022885
37.21113567
37.28950553
36.70894034
36.26949324
36.33612543
35.87873185
35.52765655
35.58793813
47.85167206
47.62817404
47.86467219
45.77204706
45.07123682
45.21553899
43.09984968
42.50735371
42.6059455
40.92168237
40.45153345
40.52475623
39.19387063
38.82106088
38.87759311
37.72730417
37.04340303
37.12884557
36.55515945
36.12476837
36.19845101
35.74215509
35.39877533
35.4654069
46.8755038
46.733285
46.95000384
45.15198392
44.51840868
44.65320016
42.68769133
42.12708252
42.22011099
40.61398166
40.16291662
40.23431664
38.952337
38.59245279
38.64981658
37.52739567
36.86560481
36.95547323
36.39030489
35.96928256
36.04793823
35.5949675
35.25933468
35.33100255
45.96700225
45.90625673
46.10747172
44.57160716
43.99944072
44.12632386
42.29861348
41.76730623
41.85549875
40.31811444
39.8832575
39.95224335
38.71233175
38.36335077
38.42047459
37.32479751
36.68192034
36.77428313
36.21829568
35.80642469
35.88844604
35.44012499
35.11218633
35.18742972
45.11558005
45.1334464
45.32225083
44.02447846
43.50894961
43.62914784
41.92884219
41.42498512
41.50907567
40.03424225
39.61361751
39.68008492
38.47663573
38.13688989
38.19314378
37.12229817
36.49542141
36.58887033
36.04215579
35.63884216
35.72297828
35.28004607
34.95922156
35.03719546
44.31691805
44.40403627
44.58266607
43.50543171
43.04264484
43.15716212
41.57554808
41.09758512
41.17815418
39.76148525
39.35377617
39.41785465
38.24660754
37.91479565
37.96985734
36.92161146
36.30823593
36.40181461
35.86405797
35.46852402
35.55384508
35.11663641
34.80268429
34.88220145
43.56023296
43.71203746
43.88182332
43.01013356
42.59690504
42.70658137
41.23646133
40.78307073
40.86058397
39.49869029
39.10298549
39.16487771
38.02269295
37.69782977
37.75157032
36.72375362
36.12178353
36.21484927
35.68552409
35.2969533
35.38276216
34.95133122
34.6433549
34.72417846
42.83770738
43.05218131
43.21438442
42.53507281
42.16875152
42.2742863
40.90970719
40.47978493
40.55463639
39.24478368
38.86041733
38.92033451
37.80488523
37.48622954
37.53862812
36.52926147
35.93698354
36.02913574
35.50760109
35.12519896
35.21100265
34.78524801
34.48320636
34.56419618
42.14344935
42.42093534
42.57603134
42.07736152
41.7556866
41.85765117
40.5936438
40.18627497
40.25880333
38.9987669
38.62523812
38.68338009
37.5929205
37.27991489
37.3310064
36.33838867
35.7544099
35.84539301
35.33099976
34.95404655
35.03948239
34.61916125
34.32183477
34.40346498
41.47328425
41.81588753
41.96501049
41.63470502
41.35571814
41.45457937
40.28690589
39.90132253
39.97181968
38.75977458
38.39670084
38.45325178
37.38645766
37.07868333
37.12853018
36.15123248
35.57441439
35.66407775
35.15619912
34.78403652
34.86885112
34.45372535
34.16160689
34.24235955
40.82579206
41.2321475
41.37626752
41.20523412
40.96717729
41.06332605
39.98829896
39.62384802
39.69257265
38.52700875
38.17409843
38.22923171
37.18509504
36.88224161
36.93092317
35.96777823
35.39716082
35.48544741
34.98350578
34.61557484
34.69959876
34.28929286
34.00053209
34.08192091
40.19870936
40.6666093
40.80649921
40.78750375
40.58875482
40.68247587
39.6968473
39.35296044
39.42010924
38.29979012
37.95681957
38.01067189
36.98844928
36.69028994
36.73787526
35.78792881
35.22276818
35.30963548
34.81311443
34.44890557
34.53204792
34.12629734
33.84245688
33.92189368
39.59083375
40.11694909
40.25290775
40.38025991
40.21935832
40.31091133
39.41172116
39.08789272
39.15364981
38.07750927
37.74430503
37.79701393
36.79612632
36.50249434
36.54907115
35.61151553
35.05130824
35.13678815
34.64507537
34.2841781
34.36650564
33.96472777
33.68261285
33.76356589
39.00153031
39.58255866
39.71486572
39.98264846
39.85815072
39.9477192
39.1322529
38.82801963
38.89252683
37.85964986
37.53607444
37.5877508
36.60777077
36.31854952
36.36418656
35.43847431
34.88258012
34.96705522
34.47925024
34.12123051
34.20317576
33.80478364
33.52815358
33.60592065
38.43032561
39.06248663
39.19159536
39.59396879
39.50453184
39.59228759
38.85794067
38.57286485
38.63623629
37.64580383
37.33174447
37.38248057
36.42309776
36.13821587
36.18297419
35.26862136
34.7158642
34.80065171
34.31492657
33.95946916
34.04267432
33.64551633
33.36841298
33.45138076
37.87503205
38.55525194
38.68348625
39.21315803
39.15766552
39.24424014
38.58827851
38.32196885
38.3843835
37.43559634
37.13096229
37.18085488
36.24183047
35.96124704
36.00518943
35.10170923
34.54847692
34.63880925
34.14949228
33.79633401
33.88630786
33.48494872
33.21560253
33.29861753
37.32753277
38.05315298
38.19519818
38.8337446
38.81177066
38.90596596
38.31995347
38.07256208
38.13766771
37.22728823
36.93219827
36.9830411
36.06285296
35.78661965
35.83088684
34.92905714
34.3685474
34.48699041
33.97171966
33.62077449
33.73869941
33.31120114
33.03680217
33.15603521
56.01025019
56.9542752
56.98535852
48.45591434
44.48238172
44.89162048
39.99796422
39.87728935
41.28575099
56.99103032
57.00908458
56.08474784
58.00882352
58.29604107
53.07128186
52.70982447
48.58964424
40.90256923
40.58345004
39.97612223
41.55967294
41.84563592
39.85660883
41.96778675
41.17158048
50.40084835
53.92259719
53.56835877
41.32192936
41.43589452
46.14814206
46.02090309
47.42017179
43.73186993
44.8053948
44.90909917
42.00641542
41.94093865
42.7831918
40.52644675
41.19006028
41.25588947
39.46804843
39.42337644
39.94047772
38.56521006
38.96681721
39.00679945
50.83802935
50.13899224
45.32274329
56.39083183
53.9471998
54.42526825
52.89446649
53.43504766
56.03393619
52.851374
52.81560813
54.64816196
49.31463009
51.04599637
51.06149586
50.93535054
51.00701776
49.2843799
46.35328286
46.3271768
47.72820102
44.00380108
45.09235033
45.1141113
44.99016805
45.04215037
43.93525025
42.18916025
42.1497752
43.02333492
40.70123898
41.38064625
41.42312174
41.30774499
41.36393102
40.6880206
39.60373146
39.57865499
40.10330268
38.703472
39.11509932
39.13711734
39.04852558
39.08378597
38.67402556
57.60402687
57.68062117
55.1610734
58.6590963
58.62895403
58.81425418
52.49671664
52.63178192
54.38834814
49.20446159
50.88792042
50.76566972
51.04014971
50.97548656
49.27122877
46.24247762
46.29818378
47.6707234
43.99889907
45.08050272
45.0389525
45.12478616
45.12542711
44.04018548
42.16984071
42.19975453
43.04516487
40.7735605
41.44414444
41.42005609
41.42700648
41.43915367
40.76433625
39.66111704
39.65145267
40.17788937
38.78540283
39.19080919
39.20691458
39.16101497
39.17747817
38.77016064
48.86008791
48.66700292
55.73631448
56.26320093
54.57388557
54.76806681
56.07502932
55.59465981
56.97364702
56.53785895
55.17568233
51.36139574
51.7129082
53.27614962
48.60580563
50.12600956
49.82324248
50.60947931
50.39024955
48.8182923
45.77955508
45.9291027
47.2053168
43.77269778
44.78891353
44.66901857
44.9763008
44.89238736
43.85500016
42.00188237
42.05929341
42.86621188
40.70814438
41.34302638
41.30110804
41.40328932
41.377629
40.73122993
39.64281498
39.6509666
40.14678444
38.81729453
39.21195957
39.20976567
39.20899395
39.21261549
38.81532994
50.66729111
50.17351052
53.82731363
54.27289245
53.46076002
52.84796533
54.08218007
53.55929738
55.10048454
54.59547949
53.36311387
49.69669371
50.13687425
51.52835161
47.46074054
48.75587972
48.37287329
49.48898989
49.13072682
47.77657738
44.97487483
45.19369803
46.27469131
43.32293566
44.2121897
44.03707438
44.53366395
44.38022911
43.45166755
41.7233371
41.79583121
42.51946054
40.57660179
41.15022508
41.10039417
41.25363043
41.20281593
40.611921
39.59632307
39.61011049
40.06703283
38.8016398
39.19096351
39.17941077
39.20643876
39.20012632
38.80967713
51.47784761
51.48628716
52.10632713
52.53630357
52.39263063
50.73216888
51.94546632
51.41145343
53.02688951
52.48739737
51.25385983
47.98255673
48.38718026
49.58056172
46.18702244
47.24505589
46.89947896
47.98889794
47.61049518
46.49418003
44.13329067
44.32884685
45.21684343
42.77991318
43.51835749
43.36245461
43.8599423
43.68557575
42.91058949
41.43707982
41.50088368
42.10859028
40.44477726
40.9502392
40.90221921
41.04834845
40.99817698
40.48037183
39.50592405
39.53617718
39.97457336
38.74664915
39.12740556
39.1008976
39.16620599
39.14936065
38.76624652
50.80356248
51.05823486
50.4218131
50.82553492
51.01991039
48.92253576
49.95516059
49.5571941
50.89300088
50.40521596
49.31902366
46.69709698
46.96091879
47.94514379
45.17700959
46.03516433
45.81576599
46.57947582
46.2897231
45.38858127
43.55211074
43.66438073
44.38790204
42.37399333
42.99650116
42.89896486
43.22089001
43.09890525
42.45961373
41.17877199
41.24696368
41.79186006
40.25895431
40.7367532
40.67595117
40.85046581
40.79510256
40.3107315
39.34768864
39.39181018
39.81130611
38.63112989
38.99883732
38.95883949
39.07027888
39.03612244
38.66507837
49.64074556
49.94340612
49.14460065
49.42424976
49.75798746
47.82456436
48.67213017
48.43341404
49.20552829
48.91876247
48.03639777
45.98056575
46.14349467
46.98075365
44.59235288
45.34422573
45.19895188
45.64483535
45.49250587
44.7252087
43.11998313
43.22663445
43.88747576
42.02500189
42.60676545
42.51005896
42.80145012
42.70396772
42.11287627
40.89257628
40.96546444
41.47869818
40.02970316
40.48312828
40.41650763
40.61315546
40.54877309
40.08956174
39.15082238
39.20250385
39.60334981
38.47224632
38.82585103
38.77807631
38.91647818
38.87204931
38.51502485
48.47820872
48.76068442
48.10698341
48.35558702
48.63552757
47.02424389
47.75026457
47.5327179
48.20037499
47.97274121
47.21824276
45.36251529
45.51233388
46.26815578
44.0840409
44.78035126
44.6461674
45.0566173
44.91712559
44.20766441
42.70596896
42.80742549
43.42662621
41.67568189
42.22450365
42.13120479
42.41402717
42.31880717
41.76234956
40.59824374
40.67190169
41.15881669
39.78068486
40.21308808
40.14468691
40.34916173
40.28129731
39.84394954
38.93366107
38.98917131
39.37315257
38.2871162
38.62756015
38.57550339
38.72900243
38.67875083
38.33517019
47.39699354
47.660353
47.17119333
47.39714255
47.60063292
46.28515104
46.90738823
46.70734738
47.31987465
47.11148875
46.46466042
44.79019624
44.92950262
45.61289734
43.61088685
44.25787715
44.13279782
44.51444894
44.38505186
43.72614337
42.31447112
42.41020616
42.99441177
41.33627512
41.85790981
41.76910345
42.03898233
41.94786982
41.41988813
40.30625224
40.37867664
40.84373429
39.52496637
39.93956274
39.87153264
40.07623013
40.00781982
39.58905349
38.70708587
38.7642003
39.13357055
38.08689843
38.41571982
38.36156591
38.52279502
38.4694723
38.13789625
46.38535008
46.63230375
46.31224524
46.52077708
46.64248585
45.59856948
46.12971321
45.94407215
46.51117753
46.31869339
45.76575444
44.25505818
44.38572395
45.00344796
43.16757423
43.76917698
43.65154509
44.00971798
43.88854192
43.27591507
41.94482591
42.03533636
42.58842254
41.01099337
41.50955358
41.4252437
41.68145477
41.59494766
41.09091188
40.02185683
40.09208669
40.53886943
39.26982777
39.66946158
39.60292911
39.80380406
39.73643271
39.33329765
38.47772663
38.53507332
38.89205356
37.87908821
38.19780317
38.14297543
38.30716494
38.252537
37.93142203
45.43347239
45.66631723
45.51376533
45.70840564
45.74906975
44.95634637
45.40566385
45.23189865
45.76161954
45.58220429
45.11315877
43.75091563
43.87431783
44.43191662
42.74884538
43.30836263
43.19699288
43.53558067
43.4212143
42.85146132
41.59413147
41.68019038
42.20447739
40.70042086
41.17849738
41.09818876
41.34199145
41.25975961
40.77673908
39.74717533
39.81489495
40.24604062
39.01923106
39.40624503
39.34170821
39.53687099
39.47130809
39.08132583
38.24965107
38.30639642
38.65292599
37.66869953
37.97866086
37.92405993
38.08816188
38.03336511
37.72132676
44.53228604
44.75353762
44.76372311
44.94729038
44.91136329
44.35148958
44.72596087
44.5620181
45.06078292
44.89218029
44.49954448
43.27301483
43.39025727
43.89226914
42.35084816
42.87116977
42.76514202
43.08704159
42.9784535
42.44857646
41.25955652
41.34182197
41.83907108
40.40340343
40.86261825
40.78576689
41.01879613
40.94028498
40.4764731
39.48251271
39.54776239
39.96505584
38.77510603
39.15127914
39.08885545
39.27770191
39.21422715
38.83547927
38.02523185
38.0809154
38.41856895
37.45889288
37.76131287
37.70746789
37.8696303
37.81536348
37.51115398
43.67293226
43.88403657
44.05369217
44.22774682
44.12419307
43.77803143
44.08291832
43.92715178
44.40025739
44.24058831
43.91873876
42.81739656
42.92940951
43.37953532
41.97060821
42.45415769
42.3526951
42.66032929
42.55668478
42.06414285
40.93882172
41.01781857
41.48952562
40.11835802
40.55985603
40.48599754
40.70970887
40.63441565
40.18857805
39.2272965
39.29026241
39.69489808
38.53808855
38.90469792
38.84431139
39.02695661
38.96557468
38.59666978
37.80564374
37.86005892
38.19005197
37.25153424
37.54745761
37.49463815
37.65387885
37.60053082
37.30306224
42.85157405
43.05358391
43.37839826
43.54425169
43.37663614
43.23104877
43.47072595
43.32195838
43.77325438
43.62113717
43.36553568
42.3807977
42.48832331
42.88959682
41.60566257
42.05443326
41.95690918
42.25228691
42.15288084
41.69558026
40.63011942
40.70625586
41.15368597
39.8438294
40.26850264
40.19727487
40.41284022
40.34035088
39.91154298
38.98072615
39.04160486
39.43442153
38.30813613
38.66608771
38.60761216
38.78442561
38.72502228
38.36497395
37.59135857
37.64442636
37.96767645
37.04763881
37.33793261
37.28627006
37.44211917
37.38987688
37.09823865
42.06386076
42.25794776
42.73288971
42.89163167
42.66180632
42.70666147
42.88496788
42.74217486
43.17478108
43.02913035
42.83582167
41.96047249
42.06415711
42.41912066
41.25393663
41.66957633
41.57543264
41.86028155
41.76451636
41.34073073
40.33189189
40.40554229
40.82974899
39.5785767
39.98714406
39.91821355
40.12665389
40.05661825
39.64408178
38.74195488
38.80096038
39.18257708
38.08491761
38.43486281
38.37813174
38.54959113
38.49201267
38.14011447
37.38242413
37.43416266
37.75136001
36.84771255
37.13307863
37.08259752
37.23491361
37.18384538
36.89729636
41.30485873
41.49206917
42.11551407
42.26746117
41.97368353
42.20167209
42.32153671
42.1838598
42.60066292
42.46046351
42.3262508
41.55417735
41.65453675
41.96536884
40.91363289
41.29752513
41.20630997
41.48205325
41.38943174
40.99771926
40.04279961
40.11427826
40.51613573
39.32148916
39.71453181
39.64761701
39.84980769
39.78192362
39.38504608
38.51018427
38.5675087
38.93839321
37.86795596
38.21036919
38.15522376
38.32180842
38.26589434
37.92163331
37.17868045
37.22914086
37.54080451
36.65192935
36.93292617
36.88360926
37.03241404
36.9825229
36.70047119
40.57235351
40.75305379
41.52156272
41.66808504
41.30936989
41.71357793
41.77804927
41.64506795
42.0474085
41.9121511
41.83412536
41.16011306
41.25756905
41.52616709
40.58327858
40.93661512
40.84795414
41.11576956
41.0258805
40.66500623
39.76171303
39.8312907
40.21153557
39.07162056
39.44961175
39.38446759
39.58117019
39.51517489
39.13345816
38.28470003
38.3405191
38.70102908
37.65676574
37.99199479
37.93828401
38.10045387
38.04604856
37.70904866
36.97988394
37.02913584
37.33565513
36.46030876
36.73737531
36.68918029
36.83458551
36.78583938
36.50781817
39.86547218
40.03976081
40.94735973
41.08917355
40.66715655
41.24051012
41.25258415
41.12374351
41.51319043
41.3823487
41.35745285
40.77677485
40.87166868
41.09975434
40.26160233
40.5854294
40.49901391
40.75988488
40.67237775
40.34126357
39.487632
39.55554015
39.91480158
38.8281126
39.19143909
39.12785388
39.31973542
39.25539333
38.88843122
38.06482986
38.11930182
38.46970984
37.45084247
37.77913968
37.72672395
37.88491273
37.83186456
37.50185213
36.78572505
36.83384532
37.13550734
36.27275282
36.54622627
36.49909879
36.64126461
36.59360948
36.31925842
39.1835889
39.35178479
40.38980836
40.52771954
40.04499849
40.7807625
40.74399745
40.61941496
40.99609431
40.86953674
40.89454277
40.40298608
40.49559548
40.68475036
39.94758237
40.24284338
40.15842302