/*--------------------------------*- C++ -*----------------------------------*\
| =========                 |                                                 |
| \\      /  F ield         | OpenFOAM: The Open Source CFD Toolbox           |
|  \\    /   O peration     | Version:  v2012                                 |
|   \\  /    A nd           | Website:  www.openfoam.com                      |
|    \\/     M anipulation  |                                                 |
\*---------------------------------------------------------------------------*/
FoamFile
{
    version     2.0;
    format      ascii;
    class       surfaceScalarField;
    location    "2.96";
    object      meshPhi;
}
// * * * * * * * * * * * * * * * * * * * * * * * * * * * * * * * * * * * * * //

dimensions      [0 3 -1 0 0 0 0];
oriented        oriented;


internalField   nonuniform List<scalar> 
5975
(
2.616303069e-05
-0.0003215747012
-2.55949948e-05
0.0006430229301
-0.0003220162648
-0.00128769581
0.0001047657371
-0.0002153097298
0.002580547292
-0.001291697914
0.0001093904252
0.0002277775762
-0.002441014533
-0.000213481526
0.002296045135
0.0001120622006
-0.001690218453
-0.0001067952791
0.001443261799
4.192612141e-05
-0.0007001774988
-4.018089982e-05
0.00048488049
-5.528989126e-05
4.576151201e-06
-3.659300593e-06
5.459397918e-06
0
0
0
0
0
0
0
0
0
0
0
0
0
0
0
0
0
6.84793816e-05
-0.0006641042432
-6.847929887e-05
0.001329936532
-0.0006658323718
-0.00266369403
0.0002220127366
-0.000220126708
0.002656007072
0.0001891382296
-0.00234218397
-0.0001823505046
0.002163841084
9.207909391e-05
-0.00145880767
-8.132375056e-05
0.001203294975
3.153772037e-05
-0.0004888850796
-3.041296744e-05
0.0003130985341
-7.624156335e-06
7.704014196e-07
-3.538082527e-07
0
0
0
0
0
0
0
0
0
0
0
0
0
0
0
0
0
0
0.0001419906105
-0.002735374947
-0.0001419906106
0.002735374947
0.0002057944202
-0.002684577176
-0.0001964534747
0.002607558777
0.0001497312677
-0.002145573263
-0.000138383959
0.001926141961
6.106956866e-05
-0.001170589948
-5.669338904e-05
0.0009167193301
2.032538185e-05
-0.0002813328266
-1.621954416e-05
0.0001470807394
0
0
0
0
0
0
0
0
0
0
0
0
0
0
0
0
0
0
0
0
0
0.0001309048284
-0.002639590836
-0.0001191488403
0.002595743815
0.0001532351079
-0.002331134735
-0.0001348060129
0.002192431542
9.85366292e-05
-0.001637766757
-8.475606245e-05
0.001419723066
4.098163909e-05
-0.0007513128295
-3.520370105e-05
0.0005481073985
7.612601664e-06
-0.0001008146836
-4.757137004e-06
2.767912865e-05
0
0
0
0
0
0
0
0
0
0
0
0
0
0
0
0
0
0
0
0
0
7.019942055e-05
-0.001891179283
-5.34790499e-05
0.001829158302
7.737225222e-05
-0.00152017232
-6.022155047e-05
0.001381506006
4.715597322e-05
-0.0008996484392
-3.66409009e-05
0.0007313703886
1.747534466e-05
-0.0002772742929
-1.191939992e-05
0.0001620600104
7.72223979e-08
-6.970960202e-07
0
0
0
0
0
0
0
0
0
0
0
0
0
0
0
0
0
0
0
0
0
0
0
1.598916885e-05
-0.0008363756803
-8.956395557e-06
0.0007930686436
2.206235103e-05
-0.0005860757668
-1.406523608e-05
0.0004993677589
1.233554609e-05
-0.0002314784156
-6.795671008e-06
0.0001527311716
6.93346729e-07
-8.800040801e-06
-2.002091079e-09
9.486763193e-08
0
0
0
0
0
0
0
0
0
0
0
0
0
0
0
0
0
0
0
0
0
0
0
0
0
5.799121022e-07
-9.849120045e-05
-1.148249437e-07
8.586259267e-05
1.333675319e-06
-3.409456258e-05
-1.126401597e-07
1.879092528e-05
0
0
0
0
0
0
0
0
0
0
0
0
0
0
0
0
0
0
0
0
0
0
0
0
0
0
0
0
0
0
0
0
0
0
0
0
0
0
0
0
0
0
0
0
0
0
0
0
0
0
0
0
0
0
0
0
0
0
0
0
0
0
0
0
0
0
0
0
0
0
0
0
0
0
0
0
0
0
0
0
0
0
0
0
0
0
0
0
0
0
0
0
0
0
0
0
0
0
0
0
0
0
0
0
0
0
0
0
0
0
0
0
0
0
0
0
0
0
0
0
0
0
0
0
0
0
0
0
0
0
0
0
0
0
0
0
0
0
0
0
0
0
0
0
0
0
0
0
0
0
0
0
0
0
0
0
0
0
0
0
0
0
0
0
0
0
0
0
0
0
0
0
0
0
0
0
0
0
0
0
0
0
0
0
0
0
0
0
0
0
0
0
0
0
0
0
0
0
0
0
0
0
0
0
0
0
0
0
0
0
0
0
0
0
0
0
0
0
0
0
0
0
0
0
0
0
0
0
0
0
0
0
0
0
0
0
0
0
0
0
0
0
0
0
0
0
0
0
0
0
0
0
0
0
0
0
0
0
0
0
0
0
0
0
0
0
0
0
0
0
0
0
0
0
0
0
0
0
0
0
0
0
0
0
0
0
0
0
0
0
0
0
0
0
0
0
0
0
0
0
0
0
0
0
0
0
0
0
0
0
0
0
0
0
0
0
0
0
0
0
0
0
0
0
0
0
0
0
0
0
0
0
0
0
0
0
0
0
0
0
0
0
0
0
0
0
0
0
0
0
0
0
0
0
0
0
0
0
0
0
0
0
0
0
0
0
0
0
0
0
0
0
0
0
0
0
0
0
0
0
0
0
0
0
0
0
0
0
0
0
0
0
0
0
0
0
0
0
0
0
0
0
0
0
0
0
0
0
0
0
0
0
0
0
0
0
0
0
0
0
0
0
0
0
0
0
0
0
0
0
0
0
0
0
0
0
0
0
0
0
0
0
0
0
0
0
0
0
0
0
0
0
0
0
0
0
0
0
0
0
0
0
0
0
0
0
0
0
0
0
0
0
0
0
0
0
0
0
0
0
0
0
0
0
0
0
0
0
0
0
0
0
0
0
0
0
0
0
0
0
0
0
0
0
0
0
0
0
0
0
0
0
0
0
0
0
0
0
0
0
0
0
0
0
0
0
0
0
0
0
0
0
0
0
0
0
0
0
0
0
0
0
0
0
0
0
0
0
0
0
0
0
0
0
0
0
0
0
0
0
0
0
0
0
0
0
0
0
0
0
0
0
0
0
0
0
0
0
0
0
0
0
0
0
0
0
0
0
0
0
0
0
0
0
0
0
0
0
0
0
0
0
0
0
0
0
0
0
0
0
0
0
0
0
0
0
0
0
0
0
0
0
0
0
0
0
0
0
0
0
0
0
0
0
0
0
0
0
0
0
0
0
0
0
0
0
0
0
0
0
0
0
0
0
0
0
0
0
0
0
0
0
0
0
0
0
0
0
0
0
0
0
0
0
0
0
0
0
0
0
0
0
0
0
0
0
0
0
0
0
0
0
0
0
0
0
0
0
0
0
0
0
0
0
0
0
0
0
0
0
0
0
0
0
0
0
0
0
0
0
0
0
0
0
0
0
0.0003219285424
-1.280133506e-05
1.29017431e-05
-0.0003220289505
-0.0003216399875
0.0006428355988
2.689596179e-05
-9.869756266e-05
0.001284843601
9.861943492e-05
-0.001284765473
0.0006636105797
-3.235282602e-05
3.235322641e-05
-0.0006636109801
-0.0003219542229
-1.242181333e-05
0.00132549476
-0.0006051447223
2.40179062e-07
1.149974484e-05
-0.0001778954903
0.00261407349
-0.001321569572
-0.001309462324
9.57104785e-05
9.914341794e-05
-0.001287594449
-9.879892359e-05
0.001361024815
-6.344691862e-05
6.344691861e-05
-0.001361024815
-0.000664104465
-3.23526043e-05
-7.699702082e-05
0.001284061453
7.668284046e-05
-0.0006420168383
-0.0006417304343
2.024180309e-05
0.0006461626194
-0.000646573299
-1.983112346e-05
0.0006455357797
2.105870809e-05
-0.0006463526848
-2.399285289e-05
0.0006451770132
2.435161944e-05
-8.342813885e-05
0.00129685952
8.060490035e-05
-0.001294036282
0.001287141519
-7.741918865e-05
-0.0006436300519
-0.0006430892991
1.626568826e-05
0.0003212228991
-0.0003223874499
-1.510113751e-05
-2.221234007e-05
0.0006445208424
2.242948465e-05
-0.0003221504693
-0.0003225875177
0.0003209003895
1.716349562e-05
-0.0003217981969
-1.500468483e-05
0.0003203536229
1.555145149e-05
-3.219491322e-05
0.0006396965666
3.245018308e-05
-0.0006399518365
0.0006454737187
-0.0006455813263
-2.210473244e-05
0.002716978798
-0.001355953983
6.847928699e-05
7.351132357e-05
0.002700065518
-0.0001982873885
0.0002016174682
-0.0027165967
-0.0002023774206
-0.001333757498
-0.001305454602
-3.174950955e-05
0.0006418252913
3.19089155e-05
-0.0006419846973
0.0006400766096
-0.0006401715059
-3.210001697e-05
-1.43351994e-05
0.0003205534137
-8.357637007e-05
0.001299966336
7.730284399e-05
-0.00129369281
0.001300799884
-0.001296310814
-8.79172088e-05
-2.354954447e-05
0.000645719311
0.001343259788
-6.344691834e-05
6.344691755e-05
-0.001343259787
3.388275926e-05
0.0004110856202
-0.0004449683795
-1.571682975e-05
0.0003204804052
1.631844233e-05
-0.0003210820178
-1.272225572e-05
0.0006510209577
1.014597115e-05
-1.380254856e-05
0.0006477162604
1.66366228e-05
-0.0006505503346
-0.0003210672599
9.325249778e-06
-1.263265654e-05
0.0003243746667
-0.0003186376715
-1.401720041e-05
0.0003203523692
1.230250271e-05
-1.38167359e-05
0.0003205464631
1.375436286e-05
-0.00032048409
-1.099391151e-05
5.429172354e-06
-0.0003130729324
-3.019487215e-05
-2.78352363e-05
-0.0002630371515
-1.454354088e-05
0.0003248571502
1.512910546e-05
-0.0003254427148
0.000316315152
-0.0003101594067
-1.71496569e-05
-8.777574801e-05
0.0003234361224
2.523848869e-05
-1.14494622e-05
0.0003238705837
1.186094447e-05
-0.000324282066
0.0003242116241
-0.0003244255194
-1.43296456e-05
-1.220791137e-05
0.0003220557787
1.240371101e-05
-0.0003222515783
0.0003237629094
-0.000324039454
-1.117291766e-05
-2.231607827e-06
0.0003246252718
0.000414171653
-0.0004443665252
0.0003202201647
-0.0003197908291
-1.614616534e-05
-7.443285533e-06
0.0003133713189
-0.0002720452741
0.0003268109422
9.668596056e-05
0.001285077338
0.0001045319996
0.002457343858
-0.0002436743628
0.0002490160003
-0.002534796266
0.0003202497836
-0.0003207205951
-1.334592445e-05
-1.705171576e-05
0.0003193496674
-1.490021507e-05
0.0003236047652
1.61526001e-05
0.0003152876969
-0.000309972061
-1.652901356e-05
0.0003175564562
-1.620100258e-05
-1.569468107e-05
0.0003201932022
1.598188404e-05
-1.476690943e-05
0.0003192447972
1.488011072e-05
-0.0003193579985
-3.13625316e-05
-2.715959114e-05
0.0003216192298
-0.0002630971071
0.0004143926568
-0.0004457551884
0.0004142272774
3.275094314e-05
9.112254033e-05
-4.823811662e-06
0.0003279285487
0.0003235823182
-0.000259619369
0.0003236478573
-9.754166474e-06
9.852450478e-06
-0.0003237461413
0.0003231399219
-0.0003243373625
-1.101047075e-05
-3.741489618e-05
-0.0002803444138
9.485135442e-05
-7.450553586e-06
0.0003236848194
0.0003191617318
-0.0002617252736
-0.0004097241185
9.136273877e-05
0.0003237905521
3.516355026e-05
-0.0004448876688
-6.485323434e-06
-0.0002714240587
0.0003218857675
-0.0002583582651
-0.0003276991867
1.789783108e-05
0.0003249304611
-8.499507575e-06
9.519297766e-05
-1.232299252e-05
-3.660974902e-05
-0.0002800349811
0.0003201569988
-0.0002615737701
0.000320905173
8.669975334e-06
-9.251955981e-06
0.0003240181031
-0.0003217103563
0.0003255565199
0.0003189006539
-9.27665948e-06
8.88162086e-06
-1.146104283e-05
0.0003214800758
0.0003242549367
0.0003095291
-3.81157247e-05
-0.0002788566608
1.234161284e-05
-1.859785132e-05
0.0003157853385
0.0003182623781
1.913206656e-05
0.000323457793
-1.57789173e-05
-0.0003193652351
0.0003198994503
-0.0002607949992
0.002332902246
0.000234559771
0.001737254384
-0.0001423754417
0.0001466009622
-0.00196574152
0.001491820504
0.000124432507
0.0007426202674
-5.371872951e-05
5.791717803e-05
-0.0009840240296
0.0005228119851
4.525979184e-05
-1.263900621e-05
7.13658269e-05
1.527608773e-05
-0.0001801017734
-2.542669034e-05
0.0006447384471
2.520908567e-05
-3.144544032e-05
0.0006447674692
3.182680965e-05
-0.0006451488385
0.0006431125851
-0.000643082263
-3.177983161e-05
0.002615666181
0.0002194753636
0.002379878855
-0.0002098786226
0.00022502681
-0.00252023063
-0.002534982802
-0.0002363895386
0.00220868188
0.0001988437143
0.001512154285
-0.0001058391898
0.0001162563281
-0.001765719497
-0.001921308594
-0.0001357301733
0.001270200969
9.192386084e-05
0.0005445904678
-4.120101288e-05
4.323047192e-05
-0.0007690332201
-0.0009382008237
-5.139682803e-05
0.0003492877967
3.327543929e-05
-4.95496715e-06
1.726015536e-05
7.298026276e-06
-8.35664898e-05
-0.0001552070379
-1.115683774e-05
-6.847928724e-05
0.001343259787
6.847928803e-05
-8.357637006e-05
0.001343259787
8.357637005e-05
-0.001343259787
0.001329936532
-0.001329936532
-8.357637007e-05
0.002644180428
0.0002126889031
0.002220611394
-0.0001733968432
0.0001838556997
-0.002402061365
-0.002479231292
-0.0002046975661
0.002006037739
0.0001594320045
0.001245290945
-7.848568693e-05
8.357891888e-05
-0.001509118819
-0.001713806962
-0.0001008468206
0.000990397599
7.118663638e-05
0.0003340830609
-2.736782651e-05
3.224247423e-05
-0.0005249429053
-0.0007059298711
-3.696671233e-05
0.0001881640981
2.426139077e-05
-6.388608586e-07
0
1.329716954e-06
-1.459543693e-05
-6.144548585e-05
-3.645702012e-06
0.002721640319
-0.0001142389293
0.0001203606084
-0.000121861225
5.841430634e-05
0.002690226017
0.0001386532744
0.002466785648
-0.0001558764816
0.0001709447904
-0.002566768121
-0.00272389243
-0.0001921790068
0.002338372087
0.0001699849597
0.001793379728
-0.0001160288245
0.0001318553215
-0.001998735108
-0.002335728239
-0.0001609932199
0.001570911325
0.0001123533481
0.0008693224071
-5.220224228e-05
5.927156258e-05
-0.001101313222
-0.001429793331
-7.259760112e-05
0.0006498808582
4.654483116e-05
0.000145401781
-1.491550856e-05
1.855676004e-05
-0.0002804773656
-0.0004631274574
-2.48550982e-05
5.20588988e-05
1.061787209e-05
0
0
0
0
-5.143028004e-06
-6.251652118e-08
0.002129742548
-5.955504901e-05
7.546236827e-05
-0.0001040485396
0.002067937141
8.75586538e-05
0.001753134221
-8.060850391e-05
9.982573223e-05
-0.001878944722
-0.002443925683
-0.0001384375749
0.001608519728
9.603037189e-05
0.001092312895
-5.573502677e-05
6.947970836e-05
-0.0012742202
-0.001842514432
-0.0001000296341
0.0009070018145
5.879230211e-05
0.0003879314272
-2.413847632e-05
3.093337685e-05
-0.0005487468948
-0.0009693341074
-4.505401352e-05
0.0002476169618
2.333580769e-05
8.547225894e-06
-1.645380551e-06
4.117998787e-06
-5.250885464e-05
-0.0002159245644
-1.112692763e-05
0
8.485998079e-07
0
0
0
0
0
0
0.001095056305
-1.082098977e-05
1.933984164e-05
-4.425568865e-05
0.001044966765
2.581855834e-05
0.0008037191832
-2.256321547e-05
3.336641821e-05
-0.0008971757661
-0.00164237076
-6.269738231e-05
0.0007008423373
3.23730952e-05
0.0003708100509
-1.549526644e-05
2.325769258e-05
-0.0004804693929
-0.001067261003
-4.338148405e-05
0.0002673000122
1.920154535e-05
4.06437621e-05
-2.694603537e-06
6.613674285e-06
-9.744713356e-05
-0.0004144473966
-1.767812014e-05
8.765265022e-06
3.05126588e-06
0
0
0
0
-1.967346297e-05
-3.575066665e-07
0
0
0
0
0
0
0
0
0.0002220652394
3.191960673e-07
8.159127393e-08
-5.036395777e-06
0.0002018074197
1.819671818e-06
0.0001108916461
-1.592316773e-06
4.184260129e-06
-0.0001442789225
-0.0006657486153
-1.43017549e-05
7.765090203e-05
3.965050714e-06
8.172255587e-06
-7.459026852e-08
1.353343539e-06
-2.320634106e-05
-0.0003182713924
-9.229540058e-06
8.394368846e-07
4.660674037e-07
0
0
0
0
-3.698121442e-05
-4.974986905e-07
0
0
0
0
0
0
0
0
0
0
0
0
0
0
0
0
0
0
0
1.913869796e-07
0
0
0
0
0
0
-5.186859111e-05
-2.59057906e-07
0
0
0
0
0
0
-1.642837562e-06
0
0
0
0
0
0
0
0
0
0
0
0
0
0
0
0
0
0
0
0
0
0
0
0
0
0
0
0
0
0
0
0
0
0
0
0
0
0
0
0
0
0
0
0
0
0
0
0
0
0
0
0
0
0
0
0
0
0
0
0
0
0
0
0
0
0
0
0
0
0
0
0
0
0
0
0
0
0
0
0
0
0
0
0
0
0
0
0
0
0
0
0
0
0
0
0
0
0
0
0
0
0
0
0
0
0
0
0
0
0
0
0
0
0
0
0
0
0
0
0
0
0
0
0
0
0
0
0
0
0
0
0
0
0
0
0
0
0
0
0
0
0
0
0
0
0
0
0
0
0
0
0
0
0
0
0
0
0
0
0
0
0
0
0
0
0
0
0
0
0
0
0
0
0
0
0
0
0
0
0
0
0
0
0
0
0
0
0
0
0
0
0
0
0
0
0
0
0
0
0
0
0
0
0
0
0
0
0
0
0
0
0
0
0
0
0
0
0
0
0
0
0
0
0
0
0
0
0
0
0
0
0
0
0
0
0
0
0
0
0
0
0
0
0
0
0
0
0
0
0
0
0
0
0
0
0
0
0
0
0
0
0
0
0
0
0
0
0
0
0
0
0
0
0
0
0
0
0
0
0
0
0
0
0
0
0
0
0
0
0
0
0
0
0
0
0
0
0
0
0
0
0
0
0
0
0
0
0
0
0
0
0
0
0
0
0
0
0
0
0
0
0
0
0
0
0
0
0
0
0
0
0
0
0
0
0
0
0
0
0
0
0
0
0
0
0
0
0
0
0
0
0
0
0
0
0
0
0
0
0
0
0
0
0
0
0
0
0
0
0
0
0
0
0
0
0
0
0
0
0
0
0
0
0
0
0
0
0
0
0
0
0
0
0
0
0
0
0
0
0
0
0
0
0
0
0
0
0
0
0
0
0
0
0
0
0
0
0
0
0
0
0
0
0
0
0
0
0
0
0
0
0
0
0
0
0
0
0
0
0
0
0
0
0
0
0
0
0
0
0
0
0
0
0
0
0
0
0
0
0
0
0
0
0
0
0
0
0
0
0
0
0
0
0
0
0
0
0
0
0
0
0
0
0
0
0
0
0
0
0
0
0
0
0
0
0
0
0
0
0
0
0
0
0
0
0
0
0
0
0
0
0
0
0
0
0
0
0
0
0
0
0
0
0
0
0
0
0
0
0
0
0
0
0
0
0
0
0
0
0
0
0
0
0
0
0
0
0
0
0
0
0
0
0
0
0
0
0
0
0
0
0
0
0
0
0
0
0
0
0
0
0
0
0
0
0
0
0
0
0
0
0
0
0
0
0
0
0
0
0
0
0
0
0
0
0
0
0
0
0
0
0
0
0
0
0
0
0
0
0
0
0
0
0
0
0
0
0
0
0
0
0
0
0
0
0
0
0
0
0
0
0
0
0
0
0
0
0
0
0
0
0
0
0
0
0
0
0
0
0
0
0
0
0
0
0
0
0
0
0
0
0
0
0
0
0
0
0
0
0
0
0
0
0
0
0
0
0
0
0
0
0
0
0
0
0
0
0
0
0
0
0
0
0
0
0
0
0
0
0
0
0
0
0
0
0
0
0
0
0
0
0
0
0
0
0
0
0
0
0
0
0
0
0
0
0
0
0
0
0
0
0
0
0
0
0
0
0
0
0
0
0
0
0
0
0
0
0
0
0
0
0
0
0
0
0
0
0
0
0
0
0
0
0
0
0
0
-0.0003219930558
1.325481142e-05
-1.368341961e-05
1.428709951e-05
-0.0003225967357
-0.0003224446618
-1.326770831e-05
2.832072068e-05
0.0006423722406
-2.785736241e-05
-0.0006412337806
0.0006411737302
2.838077114e-05
2.728903923e-05
-0.0003213770745
0.001273698013
-0.001273586941
-9.905075261e-05
-0.0006370861725
-8.256279835e-05
0.001273394396
-8.414327032e-05
0.001284459175
8.374554846e-05
0.0006494768707
-0.0006543427531
-8.936666142e-06
0.0006787137021
-1.406573533e-05
0.0003233771443
-1.123148848e-05
0.0003233449089
1.17571633e-05
-2.323012349e-05
0.0006438718051
1.209267383e-05
1.247184208e-05
-0.0003228632109
-0.0003223429866
7.351132357e-05
0.00132549476
-7.351132356e-05
0.001287682875
7.004747004e-05
-0.0006406077209
-0.0006436113009
1.887070434e-05
-1.525766278e-05
0.0006458638291
9.865662917e-05
0.001300925097
-0.001300927398
-9.865432875e-05
8.673048986e-05
-8.488814749e-05
0.001298957542
-8.860714787e-05
0.001302554676
8.601880753e-05
-8.461637649e-05
0.001287614625
0.001296748565
8.684144567e-05
0.001298124001
9.866890443e-05
-0.001298136276
0.00134770156
-0.00134770156
-6.344691856e-05
-6.344691551e-05
0.001333757506
3.109427484e-05
3.235263189e-05
-0.0006674334548
-0.0006663240429
3.943932919e-05
0.001281028647
-0.0006406208153
-0.0006401918341
3.70275139e-05
3.363461045e-05
-3.362393631e-05
0.0006400659355
-3.377954576e-05
0.0006419139185
3.369091857e-05
0.0006392525128
3.407866428e-05
0.0006391080796
3.914072587e-05
-0.0006388094763
0.0003183301184
-1.589503865e-05
-1.54252874e-05
0.000318406747
-1.65633045e-05
1.743382952e-05
-0.0006474438241
0.000647161957
-0.0006490178489
-1.470741257e-05
-1.822559633e-05
0.0006455564298
-0.0006465097371
2.154722925e-05
0.0006460212159
-1.866009766e-05
1.882037905e-05
-0.0003233163935
-0.0003233536249
-0.0006475789529
0.0006460339651
-3.190496521e-05
3.184262339e-05
-0.0006459716233
0.0006451661025
-0.0006449216168
-3.168992597e-05
-2.481904023e-05
0.0006448660686
-0.001291890951
7.820327346e-05
0.001294292578
-7.12136623e-05
6.989936592e-05
-0.0006454105525
-7.304857751e-05
-0.0006461674015
-3.370315725e-05
0.0006430361965
0.001289794152
-0.0006449336059
3.361931706e-05
3.618697218e-05
0.001290578237
-1.57522314e-05
1.701853726e-05
-0.0003236537557
0.000322068365
-0.0003227157731
-1.510482331e-05
-1.439423096e-05
0.0003213614584
1.524857383e-05
-1.582992081e-05
0.0003219110948
-0.0003159108128
0.0003196983438
0.0006450493705
-0.0003229052958
-0.0003229447135
-1.068671189e-05
0.0003232181328
-1.103027841e-05
0.000321980645
1.110541205e-05
-0.0003202483312
1.722206342e-05
0.0003201897634
-1.867813334e-05
1.832925244e-05
2.858250955e-05
0.0006402692021
-2.863501238e-05
-0.0003200646589
-0.0003201520405
0.0006391233309
1.430661276e-05
-0.0003199307456
-0.000319683598
-1.548848727e-05
0.0003200139709
-0.0006389640871
3.251592347e-05
0.0006388983467
-3.082161232e-05
3.098085612e-05
-3.050424664e-05
0.0006377706168
-0.0003187165336
0.0006373243113
-2.023324687e-05
-0.0003242432938
1.100485787e-05
0.0006460073392
-0.0003237723497
0.0006454498361
1.453593866e-05
-1.361548329e-05
0.000325744351
0.0003252086705
-1.55043237e-05
-0.0003245333881
-0.0003245510035
8.331871632e-06
8.677890764e-06
-0.0003240730308
-8.997529246e-06
0.0001621203718
0.002716978798
-0.0001621203718
0.002699844892
7.85440017e-05
-0.001352143332
-0.00134770156
-6.847928703e-05
0.00134770156
-0.002699844892
0.0002023774206
0.002697067883
-0.0001822494256
0.0001822494256
-0.0001821719414
-8.860714787e-05
0.001329936532
0.002682077802
-0.001338818015
8.860714788e-05
9.364227771e-05
0.002682077802
-0.0006413096288
3.167438753e-05
0.0006415441567
-3.038382161e-05
3.0247923e-05
-2.999627832e-05
-3.064021136e-05
-0.0006400355412
0.0006409646215
-0.0006413569099
0.0006405389921
0.0006408690926
-0.0003205633933
1.369829036e-05
1.383151269e-05
2.789295383e-05
-0.000320377088
-0.0003204005117
-0.001314680438
8.905212756e-05
0.001302931155
-0.0001103459519
8.334838886e-05
-7.854400172e-05
-7.650959332e-05
-0.001292849799
0.001300684672
-0.001293845876
0.001301819591
0.0006449511807
2.163578396e-05
6.541573047e-05
-0.0006441854708
-0.000645028666
-0.0006450599636
-0.0006455832246
3.130415477e-05
-0.001338818015
0.001338818017
-5.841430634e-05
2.983619373e-05
-5.841430636e-05
-0.0003191018886
0.0003192193284
-1.646917035e-05
-1.386636873e-05
1.385829832e-05
-1.250918526e-05
-0.0003252436045
-0.0003251233574
-0.0003253876519
-0.0003237021976
1.100187512e-05
0.0006537808886
-1.376180599e-05
-0.0006512149736
0.0006497076634
5.788982572e-06
-0.0006477544143
0.0006461654407
-1.27541634e-05
-9.523609414e-06
0.0003227510446
-1.349793358e-05
1.505800638e-05
-1.502273489e-05
1.432163582e-05
0.0003206924905
-1.466175707e-05
-0.0003225951212
0.0003218940222
-0.0003212032614
-1.441406255e-05
-1.42056621e-05
-0.0003252606203
1.289854236e-05
0.0003242230224
-1.084449067e-05
1.114039033e-05
-1.11084536e-05
-1.316619369e-05
0.0003259027453
0.0003244716421
-0.0003213774194
1.135973494e-05
0.0003224213955
-1.356251245e-05
1.188343677e-05
-1.390299595e-05
-1.089297089e-05
0.0003224705417
0.000322657359
-1.539481968e-05
0.0003187197712
0.0003197956693
0.0002356783894
0.00256605881
-0.0002355439119
-0.001285233575
-0.001281287984
0.002550590552
-0.001276698823
-0.001273489195
-0.0001050657425
0.001273654488
-0.00253285611
0.002466687566
-0.0002503227672
-0.0002451357583
-1.441502853e-05
-0.0003205112286
0.0003214681875
-0.0003215961165
0.0003215170098
-1.766355259e-05
1.582331829e-05
-1.590242503e-05
1.507965215e-05
-1.391954878e-05
-0.0003234195086
1.524533381e-05
0.0003198646923
-1.491682392e-05
-0.0003193061738
0.0003191262202
-0.000318893983
1.505756019e-05
-1.481330663e-05
1.504554377e-05
0.000318206103
1.298003068e-05
0.0003247885673
-1.170206578e-05
0.0003249499028
-0.0003245763214
1.065642212e-05
-1.15110979e-05
1.188467933e-05
-1.046867194e-05
-1.303168793e-05
0.0003245973424
1.15688192e-05
6.449847109e-06
0
0
0
-3.198713559e-08
0
0
0
0
0
0.0006439759026
-2.569909227e-05
2.790108197e-05
-2.778259298e-05
0.0006438574136
0.0006430666496
0.002594395578
-0.0002163045305
-0.001295276777
0.0002352611155
-0.0002342689894
0.002585791843
0.002577821132
0.002278133854
-0.002430623906
-0.0002069550144
0.0001921293735
-0.0001808435985
0.002090908912
0.0001999776442
0.002126762174
0.001368930132
-0.001625294689
-9.502531964e-05
8.434182612e-05
-8.361855082e-05
0.001130738197
8.8141768e-05
0.001189288337
0.0004466446994
-0.0006540589432
-3.786877796e-05
3.034106238e-05
-2.811961982e-05
0.0002708401034
3.201271825e-05
0.0003005922443
0
1.721718725e-06
0
0
0
0
0
0
0
0
0
0
0
0
0
0
0.001333757498
-6.84792901e-05
7.351132357e-05
-7.351132356e-05
0.001333757498
0.001329936532
0.002663790941
-0.0002174609877
0.0002243433119
-0.0002196760622
0.002595276407
0.0002314434778
0.002602151721
0.002116808396
-0.002317705773
-0.000167153938
0.0001702808292
-0.000146631697
0.001885324816
0.0001665041491
0.001959447792
0.001140536333
-0.001395200213
-8.156069639e-05
6.322658275e-05
-5.733280469e-05
0.0008857299921
7.009583357e-05
0.0009466003072
0.0002690740712
-0.0004396319566
-2.598759506e-05
2.006475932e-05
-1.673609931e-05
0.0001324402661
2.222251346e-05
0.0001648898781
0
0
0
0
0
0
0
0
0
0
0
0
0
0
0
0
0.002749044654
-0.002752251333
-0.0001418703186
0.0001620558379
-0.0001601262112
0.002737569273
0.00273483368
0.002545307466
-0.002642189029
-0.0001844994802
0.0001921085551
-0.000178307222
0.002412842974
0.0002036344731
0.002490921947
0.001825843904
-0.002048560499
-0.0001257846472
0.0001146240395
-0.0001039892907
0.001584912203
0.0001242974486
0.001684726083
0.0008367084208
-0.001081407198
-5.181482996e-05
4.412538001e-05
-4.03094077e-05
0.000608835577
4.746451135e-05
0.0006777977866
0.0001105441363
-0.0002380792073
-1.354056732e-05
8.197475722e-06
-6.10364064e-06
2.991704628e-05
1.141688178e-05
5.147401598e-05
0
0
0
0
0
0
0
0
0
0
0
0
0
0
0
0
0.002456900304
-0.002509828389
-0.000104307985
0.0001303344651
-0.0001138565384
0.002382434234
0.0001440666504
0.002531467597
0.002018842014
-0.002163635955
-0.0001154575059
0.0001264756363
-0.0001076020879
0.001852149562
0.0001449939811
0.002028725884
0.001255572118
-0.001465871882
-7.14040835e-05
6.996338592e-05
-5.898850543e-05
0.001041541151
8.13142007e-05
0.001194601613
0.0004445337963
-0.0006289921726
-2.92913112e-05
2.655487354e-05
-2.143617637e-05
0.000284007501
3.146440857e-05
0.000367235827
9.997794906e-06
-6.104398329e-05
-2.374273213e-06
9.758530017e-07
-1.889951278e-07
0
2.23358647e-06
7.63645746e-07
0
0
0
0
0
0
0
0
0
0
0
0
0
0
0
0
0.001573195445
-0.00163308276
-3.84369452e-05
5.961280614e-05
-4.372015218e-05
0.001493221922
7.728418879e-05
0.001745885339
0.001149894735
-0.001279318725
-4.511575029e-05
5.574749899e-05
-4.185272403e-05
0.0010094972
7.161720245e-05
0.001229317787
0.0005625612178
-0.0007113071297
-2.731200079e-05
3.004132929e-05
-2.203714276e-05
0.0004207463433
3.891174052e-05
0.0005677549774
9.091005898e-05
-0.0001794677035
-6.970863171e-06
6.643753372e-06
-2.971223698e-06
3.073818452e-05
1.121206841e-05
7.444745225e-05
0
0
0
0
0
0
0
0
0
0
0
0
0
0
0
0
0
0
0
0
0
0
0
0
0.0005629394
-0.0005987970103
-4.407073478e-06
1.182482192e-05
-6.469074098e-06
0.0005153765703
1.966691077e-05
0.0007355461334
0.0003238617193
-0.0003932646586
-8.128111188e-06
1.303172646e-05
-7.347402649e-06
0.0002529872114
2.055840627e-05
0.0004088878614
6.782939322e-05
-0.0001210909957
-2.746146518e-06
4.281224928e-06
-1.187610803e-06
2.844684139e-05
8.985587547e-06
8.641608763e-05
0
-2.486002922e-08
0
0
0
0
8.334658649e-09
0
0
0
0
0
0
0
0
0
0
0
0
0
0
0
0
0
0
0
0
0
0
0
0
0
2.057200813e-05
-2.590912826e-05
-1.781058587e-09
3.010321822e-07
-3.408634729e-09
1.45443686e-05
1.227377778e-06
6.978713738e-05
5.517857546e-07
-3.772791377e-06
0
1.771781737e-08
0
0
8.800904725e-07
8.180357374e-06
0
0
0
0
0
0
0
0
0
0
0
0
0
0
0
0
0
0
0
0
0
0
0
0
0
0
0
0
0
0
0
0
0
0
0
0
0
0
0
0
0
0
0
0
0
0
0
0
0
0
0
0
0
0
0
0
0
0
0
0
0
0
0
0
0
0
0
0
0
0
0
0
0
0
0
0
0
0
0
0
0
0
0
0
0
0
0
0
0
0
0
0
0
0
0
0
0
0
0
0
0
0
0
0
0
0
0
0
0
0
0
0
0
0
0
0
0
0
0
0
0
0
0
0
0
0
0
0
0
0
0
0
0
0
0
0
0
0
0
0
0
0
0
0
0
0
0
0
0
0
0
0
0
0
0
0
0
0
0
0
0
0
0
0
0
0
0
0
0
0
0
0
0
0
0
0
0
0
0
0
0
0
0
0
0
0
0
0
0
0
0
0
0
0
0
0
0
0
0
0
0
0
0
0
0
0
0
0
0
0
0
0
0
0
0
0
0
0
0
0
0
0
0
0
0
0
0
0
0
0
0
0
0
0
0
0
0
0
0
0
0
0
0
0
0
0
0
0
0
0
0
0
0
0
0
0
0
0
0
0
0
0
0
0
0
0
0
0
0
0
0
0
0
0
0
0
0
0
0
0
0
0
0
0
0
0
0
0
0
0
0
0
0
0
0
0
0
0
0
0
0
0
0
0
0
0
0
0
0
0
0
0
0
0
0
0
0
0
0
0
0
0
0
0
0
0
0
0
0
0
0
0
0
0
0
0
0
0
0
0
0
0
0
0
0
0
0
0
0
0
0
0
0
0
0
0
0
0
0
0
0
0
0
0
0
0
0
0
0
0
0
0
0
0
0
0
0
0
0
0
0
0
0
0
0
0
0
0
0
0
0
0
0
0
0
0
0
0
0
0
0
0
0
0
0
0
0
0
0
0
0
0
0
0
0
0
0
0
0
0
0
0
0
0
0
0
0
0
0
0
0
0
0
0
0
0
0
0
0
0
0
0
0
0
0
0
0
0
0
0
0
0
0
0
0
0
0
0
0
0
0
0
0
0
0
0
0
0
0
0
0
0
0
0
0
0
0
0
0
0
0
0
0
0
0
0
0
0
0
0
0
0
0
0
0
0
0
0
0
0
0
0
0
0
0
0
0
0
0
0
0
0
0
0
0
0
0
0
0
0
0
0
0
0
0
0
0
0
0
0
0
0
0
0
0
0
0
0
0
0
0
0
0
0
0
0
0
0
0
0
0
0
0
0
0
0
0
0
0
0
0
0
0
0
0
0
0
0
0
0
0
0
0
0
0
0
0
0
0
0
0
0
0
0
0
0
0
0
0
0
0
0
0
0
0
0
0
0
0
0
0
0
0
0
0
0
0
0
0
0
0
0
0
0
0
0
0
0
0
0
0
0
0
0
0
0
0
0
0
0
0
0
0
0
0
0
0
0
0
0
0
0
0
0
0
0
0
0
0
0
0
0
0
0
0
0
0
0
0
0
0
0
0
0
0
0
0
0
0
0
0
0
0
0
0
0
0
0
0
0
0
0
0
0
0
0
0
0
0
0
0
0
0
0
0
0
0
0
0
0
0
0
0
0
0
0
0
0
0
0
0
0
0
0
0
0
0
0
0
0
0
0
0
0
0
0
0
0
0
0
0
0
0
0
0
0
0
0
0
0
0
0
0
0
0
0
0
0
0
0
0
0
0
0
0
0
0
0
0
0
0
0
0
0
0
0
0
0
0
0
0
0
0
0
0
0
0
0
0
0
0
0
0
0
0
0
0
0
0
0
0
0
0
0
0
0
0
0
0
0
0
0
0
0
0
0
0
0
0
0
0
0
0
0
0
0
0
0
0
0
0
0
0
0
0
0
0
0
0
0
0
0
0
0
0
0
0
0
0
0
0
0
0
0
0
0
0
0
0
0
0
0
0
0
0
0
0
0
0
0
0
0
0
0
0
0
0
0
0
0
0
0
0
0
0
0
0
0
0
0
0
0
0
0
0
0
0
0
0
0
0
0
0
0
0
0
0
0
0
0
0
0
0
0
0
0
0
0
0
0
0
0
0
0
0
0
0
0
0
0
0
0
0
0
0
0
0
0
0
0
0
0
0
0
0
0
0
0
0
0
0
0
0
0
0
0
0
0
0
0
0
0
0
0
0
0
0
0
0
0
0
0
0
0
0
0
0
0
0
0
0
0
0
0
0
0
0
0
0
0
0
0
0
0
0
0
0
0
0
-0.001282276411
9.897377359e-05
0.001281922073
-9.304530895e-05
9.315570102e-05
-0.001282386804
-9.342119111e-05
-0.001284389591
-0.0005684246329
-4.366863005e-06
-3.109716656e-05
0.0001245600575
-0.0006618875239
-0.0006636125534
-3.109559325e-05
-1.255388507e-05
-0.0003226680462
0.000321966236
-0.0003224274473
-9.361085008e-05
-0.00128740479
0.001291561714
-0.0012911428
-9.402976398e-05
-9.893512399e-05
0.0006370765545
-0.0006369164129
-3.757525143e-05
-3.912279304e-05
2.766532409e-05
-2.79814691e-05
0.0006454931582
-0.0006455101398
0.00064547104
2.77044239e-05
2.486269557e-05
1.462084011e-05
-1.43318761e-05
-0.0003200485081
1.451730779e-05
1.569270678e-05
8.796556696e-06
-8.506801069e-06
9.577467848e-06
0.0003207245494
1.417897406e-05
0.0006448580182
-2.285113286e-05
2.784538266e-05
-2.804732806e-05
7.207191527e-06
-6.936433596e-06
0.0002072190947
0.002166597046
-0.002352066968
0.002192244894
-0.001995823284
0.0017698578
-0.0001778303319
-0.0001723045563
9.437880959e-05
0.001237185144
-0.001539972858
0.001287770353
-0.001034412997
0.0007898358859
-7.411184738e-05
-6.907420741e-05
3.497317913e-05
0.0003327482147
-0.0005645296691
0.0003671185879
-0.0002059128031
9.339680275e-05
-2.512253369e-05
-2.229161034e-05
2.761258138e-05
0.000644968117
-2.784225128e-05
-0.0006445593639
0.0006443893523
-0.0006444821486
3.137535234e-05
-2.999086726e-05
2.989807092e-05
-3.017158881e-05
-3.001189168e-05
0.0006437435929
0.0006433391136
0.0002324587117
0.002585275481
-0.002609039176
0.002590475792
-0.001304943245
-0.002523656244
0.0002350217323
0.00240181567
-0.0002384189597
0.0002408791041
-0.0002521329766
-0.000242254696
0.002532808705
0.0001722907861
0.002001520569
-0.002244128222
0.002044586475
-0.001829299735
0.0001223782612
0.001580917991
-0.0001524208939
0.0001531801933
-0.0001373303452
-0.0001646379482
0.00187030515
7.2557573e-05
0.001014661826
-0.001323008519
0.001068938082
-0.0008210395864
4.859607343e-05
0.0005930333321
-5.611159899e-05
6.283722873e-05
-5.304950851e-05
-6.643302725e-05
0.000884874569
2.614074812e-05
0.0001976717769
-0.0003924777501
0.0002357045117
-0.0001102372889
9.334897655e-06
3.056816451e-05
-1.59688709e-05
1.854458249e-05
-1.287780206e-05
-2.065090268e-05
0.0001343089187
4.340139241e-05
7.351132356e-05
0.001343259787
-7.351132356e-05
-0.001338818015
0.001338818015
-7.854400171e-05
0.001333757498
-7.854400172e-05
-8.357637007e-05
0.001333757498
0.0002128068057
0.002544490351
-0.002661862737
0.0025787225
-0.002448926338
0.0001920914378
0.002276414393
-0.0002025944756
0.0002105972089
-0.0001922515411
-0.0002194058034
0.002479114859
0.0001326412308
0.001765927492
-0.002067320264
0.001833257885
-0.001579097517
9.53820033e-05
0.0013158903
-0.0001065839479
0.0001195050803
-9.987784066e-05
-0.0001253233499
0.001647683292
5.42209838e-05
0.0007464743543
-0.001062644085
0.0008200502204
-0.0005939087176
3.486729971e-05
0.0003938274511
-4.227082795e-05
4.526378881e-05
-3.666951358e-05
-4.788306417e-05
0.0006500973734
1.40065633e-05
7.782198245e-05
-0.0002276803396
0.0001027284883
-2.58547483e-05
2.095165021e-06
1.125657632e-07
-6.194178776e-06
8.014250553e-06
-4.331259004e-06
-1.079820955e-05
4.233780089e-05
2.496432963e-06
0.0001218852299
0.002756769537
0.0001541644421
0.002640103491
-0.0027412864
0.00270932319
-0.00265431685
0.0001831149662
0.002571151969
-0.0001653904697
0.000174540119
-0.0001526839312
-0.0001800274673
0.002704866583
0.0001624610323
0.002181669412
-0.002456822377
0.002310676828