/*--------------------------------*- C++ -*----------------------------------*\
| =========                 |                                                 |
| \\      /  F ield         | OpenFOAM: The Open Source CFD Toolbox           |
|  \\    /   O peration     | Version:  v2012                                 |
|   \\  /    A nd           | Website:  www.openfoam.com                      |
|    \\/     M anipulation  |                                                 |
\*---------------------------------------------------------------------------*/
FoamFile
{
    version     2.0;
    format      ascii;
    class       surfaceScalarField;
    location    "0.39";
    object      meshPhi;
}
// * * * * * * * * * * * * * * * * * * * * * * * * * * * * * * * * * * * * * //

dimensions      [0 3 -1 0 0 0 0];
oriented        oriented;


internalField   nonuniform List<scalar> 
6464
(
0
0
0
0
0
0
0
0
0
0
0
0
0
0
0
0
0
0
0
0
0
0
0
0
0
0
0
0
0
0
0
0
8.575017744e-07
0
-1.143790827e-08
-7.289729363e-07
0
0
0
0
0
0
0
0
0
0
0
0
0
0
0
0
0
0
0
0
0
0
0
0
0
0
0
0
0
0
0
0
0
0
0
0
0
1.188450917e-06
0.0002194457026
-1.788200751e-06
-0.0002162164886
1.128836332e-05
0.0001717628064
-2.014752339e-05
-0.0001477409567
5.454886399e-06
6.598518579e-05
-1.48663148e-05
-4.122682487e-05
0
1.234152185e-06
-3.404306815e-07
0
0
0
0
0
0
0
0
0
0
0
0
0
0
0
0
0
0
0
0
0
0
0
0
0
0
2.844882043e-06
0.0007219255422
-2.689280043e-06
-0.0007159520913
5.634589179e-05
0.0006351640124
-6.992583526e-05
-0.0005891112324
6.51219756e-05
0.000408929564
-8.678450567e-05
-0.0003406179727
2.651996897e-05
0.0001435729054
-4.417679225e-05
-8.969601798e-05
0
2.224369139e-06
-8.905415746e-07
0
0
0
0
0
0
0
0
0
0
0
0
0
0
0
0
0
0
0
0
0
0
6.148040428e-07
0.001161497556
3.759127632e-07
-0.001155629771
0.0001084046569
0.001074817383
-0.0001193511239
-0.001025669059
0.0001557019957
0.0008123805588
-0.0001777929492
-0.0007231896976
0.0001112953023
0.0004364443482
-0.0001349579133
-0.0003480088146
2.757387371e-05
0.0001069641457
-4.331977172e-05
-5.352232247e-05
0
0
0
0
0
0
0
0
0
0
0
0
0
0
0
0
0
0
0
0
0
-2.741099556e-06
0.001275538828
2.916536024e-06
-0.001274388724
0.0001427758727
0.001248446264
-0.0001466497604
-0.001223110367
0.0002191539315
0.001085317235
-0.0002350238473
-0.001004944823
0.0002197005818
0.0006978626192
-0.0002425624873
-0.0005880914495
9.927782848e-05
0.0002698485175
-0.0001180751381
-0.0001806734112
1.254469566e-05
2.768908828e-06
-4.865730905e-06
-1.899981271e-07
0
0
0
0
0
0
0
0
0
0
0
0
0
0
0
0
0
0.000577216319
-5.801334325e-06
5.760515306e-06
-0.0005771755
0.0005898775199
0.0001325088508
-0.001174884492
0.0005893448422
-7.838982402e-05
-5.845689682e-05
0.001105518384
0.0002869184825
-0.0002920824432
-0.001058029748
0.0002936782591
0.0008213019721
-0.0003063357463
-0.0007164289282
0.0001689399237
0.0003812915952
-0.0001858611588
-0.000280924964
5.689963778e-05
2.222583069e-05
-2.885325538e-05
-1.813143631e-05
0
0
0
0
0
0
0
0
0
0
0
0
0
0
0
0
0
0.0005172101564
7.227084838e-05
-7.30512959e-05
-0.0005164297089
0.001011542586
0.0003044366059
-0.0003058555502
-0.0009890683249
0.0003424934898
0.0008106744738
-0.0003473144221
-0.0007224448076
0.0002198804494
0.0004203916066
-0.0002247286907
-0.0003213438391
8.687683589e-05
4.429183144e-05
-5.112587276e-05
-3.81629249e-05
0
0
0
0
0
0
0
0
0
0
0
0
0
0
0
0
0
0.0004442830792
7.465805716e-05
-7.487866094e-05
-0.0004440624755
0.0008778628868
0.0003106906076
-0.0003114864075
-0.0008666093803
0.0003612054757
0.0007317702343
-0.0003638527373
-0.0006591785643
0.0002451201352
0.0004000286565
-0.0002490933717
-0.0003120176184
9.300491007e-05
5.966653555e-05
-6.247235959e-05
-4.526257765e-05
0
0
0
0
0
0
0
0
0
0
0
0
0
0
0
0
0
0.0003728344915
7.524892341e-05
-7.532527495e-05
-0.00037275814
0.000735867318
0.0003114078243
-0.0003109988682
-0.0007265108732
0.0003620339967
0.0006135475661
-0.0003606470991
-0.000552630104
0.0002464289316
0.0003347421458
-0.0002448044777
-0.000260803692
7.720716047e-05
6.058086446e-05
-5.97075575e-05
-3.733671461e-05
0
0
0
0
0
0
0
0
0
0
0
0
0
0
0
0
0
0.0003029070825
7.519007935e-05
-7.518725808e-05
-0.0003029099037
0.0005954533631
0.0003082868754
-0.0003063583421
-0.0005830761123
0.0003476733416
0.0004796219357
-0.00034212063
-0.000428409473
0.0002258430419
0.0002494385515
-0.0002200381293
-0.0001905352406
4.968237151e-05
4.734388775e-05
-4.447627045e-05
-2.131142625e-05
0
0
0
0
0
0
0
0
0
0
0
0
0
0
0
0
0
0.0002329038988
7.481785263e-05
-7.468915753e-05
-0.0002330325939
0.0004509364899
0.0002998901508
-0.0002968997268
-0.0004350281811
0.0003211743591
0.0003413336833
-0.0003129036149
-0.0003014218078
0.0001927306662
0.0001639439986
-0.0001793503627
-0.0001207291228
2.484133938e-05
2.975794177e-05
-2.540931545e-05
-8.085875888e-06
0
0
0
0
0
0
0
0
0
0
-6.441869025e-05
-0.0004523460972
6.415438056e-05
0.0002255864879
0.000227023919
5.963947867e-05
0.0005193389117
-6.176823395e-05
-6.576132961e-05
-0.0003820112166
6.562830868e-05
0.000189955359
0.0001921888786
-6.514715203e-05
0.0002214365238
0.0002235750172
-6.557278522e-05
-0.0003112394621
6.585779961e-05
0.0001543420851
0.0001566123626
-6.583886406e-05
0.0001851221385
0.0001877898875
-6.54324693e-05
-0.0002414461364
6.535110913e-05
0.0002415274966
0.0003029548118
-6.562051451e-05
0.0002327179658
-6.524653631e-05
-1.56236914e-05
1.544771483e-05
-0.0005283907716
6.027306975e-05
0.0005277571805
5.507850033e-05
0.00058629947
-5.150045047e-05
-7.714443356e-06
-0.0001225155117
7.608419966e-06
0.0001226215351
-0.0002636901792
1.068883309e-05
0.0002644640144
-1.146266828e-05
-0.0004521921804
7.450414037e-05
-0.0002755612016
-0.0009111697162
0.0002743459332
0.0009125923245
0.0002695544482
0.001018835691
-0.0002733733314
-8.546976535e-06
-0.0001035677147
8.629339933e-06
0.0001034853513
8.407728795e-06
-0.0001118547225
0.0001115962571
-8.149263337e-06
-0.0003819596859
7.519739272e-05
-0.0002762993067
-0.0007721681168
0.0002762001344
0.0007723217367
0.0008783394885
-0.0002759765043
-7.810133052e-06
-8.579849062e-05
7.850110271e-06
8.57585134e-05
7.659920195e-06
-9.425806896e-05
9.424592111e-05
-7.647772343e-06
-0.0003113688629
7.531948016e-05
-0.0002757421017
-0.0006303052793
0.0002760364585
0.0006314193727
0.0007360858116
-0.0002763603971
-1.490606487e-05
-0.0001368636216
1.490609167e-05
0.0001368635948
1.489237587e-05
-0.0001523960846
-1.519835391e-05
7.614032157e-05
7.656174112e-05
5.10464879e-05
1.275433275e-06
-5.089330042e-05
-1.428620756e-06
-1.459154932e-05
-0.0001021920512
1.467883088e-05
0.0001021047696
1.474713786e-05
-0.0001173159208
0.0001172931443
-1.47243614e-05
-0.0001125806767
8.590864423e-06
0.0001123975411
-0.000121632358
0.000121724481
-7.806566318e-06
6.329286839e-05
-0.0004806228849
-6.381694117e-05
0.0002398934815
0.0002412534761
1.590068337e-05
0.0001206894367
-1.632519494e-05
-0.0002418972831
-8.675100086e-06
-0.0001126732889
8.767712251e-06
-9.465304567e-05
7.68927942e-06
9.462368645e-05
-0.0001031641533
0.0001030060451
-8.388868332e-06
3.389893976e-05
-0.0002057107368
0.0002057396861
-3.392788908e-05
9.052951216e-06
-8.978433054e-06
-0.0001032386715
-8.285220787e-06
-9.466135461e-05
8.293529724e-06
-8.535367468e-06
-0.0001119944551
-0.000103615288
9.100524515e-06
-0.0002076104838
3.390415939e-05
0.0002076052641
-0.0001543640153
1.496014398e-05
7.687745801e-05
7.741878921e-05
-8.529912172e-05
8.525324974e-05
-7.764261068e-06
6.609546066e-05
-0.0003373717225
-6.59612081e-05
0.0001674026326
0.0001698348373
1.730537454e-05
8.453328421e-05
-1.741130137e-05
-0.0001697264791
-1.727765829e-05
-0.0001543695954
1.728323831e-05
-8.275155497e-06
-9.426813425e-05
8.624886998e-05
-0.0001720464928
8.434830618e-06
8.869676148e-06
-0.0003461854853
6.58172126e-05
0.00017211977
0.0001743439633
-0.0001195802661
1.478758568e-05
0.0001195398182
-0.0001347481409
0.0001347319186
-1.488984258e-05
-1.551220906e-06
-5.014608643e-05
4.996468601e-05
-1.853433657e-06
5.134870065e-05
9.988814004e-05
-5.014955745e-05
1.375497413e-05
-0.0001249001401
1.00226942e-05
0.0001011224717
-0.0001361841674
-2.488524846e-07
0.0001381649049
-1.731884935e-06
1.451216089e-05
-7.292627036e-05
-2.75627064e-06
6.117038011e-05
-0.0002414508036
7.482251988e-05
-0.0002713781001
-0.0004875354848
0.0002728201301
0.0004928162724
0.0005968797998
-0.0002747633547
1.547174143e-05
-5.524200793e-05
-5.678568013e-06
4.544883451e-05
-5.31430708e-06
-0.0001106726493
5.304374156e-06
5.505862492e-05
5.562395728e-05
2.972890961e-06
-5.887288114e-05
5.885475672e-05
-2.954766534e-06
1.163381872e-05
-1.37431072e-05
-0.0002615808907
0.0001226979551
-0.0002446555913
1.534280793e-05
-0.0004891809909
6.410321975e-05
0.0002432237117
0.0002451469278
-5.950776809e-05
2.936831485e-06
5.954382756e-05
2.504009175e-06
-6.331733049e-05
6.344892758e-05
-2.635606269e-06
6.550157119e-05
-0.0002673993293
0.0002673764794
-6.547872127e-05
1.721892487e-05
-1.72219393e-05
-0.0001347451264
-1.708944618e-05
-0.0001195951747
1.710435483e-05
-1.736045819e-05
-0.0001523132847
-0.0001368774534
1.72327566e-05
-0.0002764468702
6.558252971e-05
0.0002763659117
-0.000272882516
-4.716249397e-06
0.0002728404181
4.758347305e-06
-0.0002654174099
1.027012943e-05
0.0002658361136
-0.0005665211322
8.07829652e-06
0.000282702608
0.0002756124909
-5.550099936e-06
5.677836765e-06
-6.655213891e-06
6.92569855e-06
-0.0002731530006
-0.0001618923797
0.0001756473538
1.292447143e-05
-0.0002529941594
-1.355280858e-05
0.0001264216446
0.0001272008519
4.431564561e-07
-3.371035507e-05
-0.0001286251811
1.715995984e-06
-2.773405392e-06
-0.000135126758
-0.0001284634233
4.00643973e-06
-0.0002544088433
1.361160715e-05
0.0001267566859
0.0001269650217
6.985701391e-06
-0.0001076468063
0.0001076683261
-7.007221203e-06
-0.0001081542851
7.047783339e-06
0.0001080922031
7.819328387e-06
-8.995017715e-05
8.998506942e-05
-7.854220654e-06
-9.064825745e-05
7.750330552e-06
9.071725529e-05
-6.805548446e-05
-2.529600452e-06
2.848604921e-06
6.773647999e-05
-7.309505499e-05
9.12207998e-05
-3.613583925e-06
1.491046081e-05
-0.0001432972693
0.0001432858556
-1.489904711e-05
2.669589164e-06
-3.365968544e-06
-7.239867561e-05
-3.161931688e-06
-6.813167982e-05
3.238127059e-06
2.324150804e-06
2.188036767e-06
-7.608224231e-05
7.157005474e-05
-7.264785851e-05
2.39117731e-06
-0.0001455846618
1.491496026e-05
7.248839415e-05
7.309176818e-05
-5.280183944e-06
-0.0001019659762
5.308659741e-06
0.0001019375004
-0.0001084752773
-5.33372117e-06
5.399168324e-05
5.450300818e-05
7.043849413e-05
5.898207702e-07
-5.555657347e-05
7.594164064e-06
-0.000116880575
0.0001165159646
-7.229553719e-06
-0.0001171980185
7.611898213e-06
0.0001171802844
7.506823982e-06
-9.877857561e-05
9.881128583e-05
-7.539534195e-06
-9.919069706e-05
7.499870652e-06
9.919765039e-05
-8.152123669e-06
-9.920661577e-05
8.168042382e-06
-2.433675338e-05
-0.0001987622527
2.431422641e-05
0.0001987847797
2.429254363e-05
-0.0002058168618
0.0002058297312
-2.4305413e-05
-2.438297183e-05
-0.000189990323
2.437083624e-05
0.0001900024586
-0.0001967254576
0.0001967343981
-2.434569387e-05
-8.182884781e-06
-9.87478145e-05
-7.831344874e-06
-0.0001081523645
7.829424248e-06
-2.418348213e-05
-0.0002167264701
2.416627035e-05
0.0002167436819
2.409479776e-05
-0.0002236966533
0.0002237155835
-2.411372799e-05
-0.0002076494841
2.427702453e-05
0.0002076650032
-0.0002144356147
0.0002144599232
-2.420779059e-05
-7.878306103e-06
-0.000107599845
7.727536961e-06
-8.085834453e-05
8.085698352e-05
-7.726175946e-06
-7.602840122e-05
3.311437151e-06
7.504111487e-05
-8.135154047e-05
7.701870161e-06
8.137720727e-05
6.759423095e-05
-3.056846004e-06
-6.769931663e-05
6.40065634e-05
-3.329173948e-06
-6.391751666e-05
3.240127208e-06
-1.485732196e-05
-0.0001282918763
1.482544901e-05
0.0001283237493
2.371080842e-06
6.413949173e-05
6.729878632e-05
-2.234155828e-06
-5.923412699e-06
7.636190683e-05
-9.968261315e-05
9.960498402e-05
-0.0001601730752
1.475163046e-07
0.0001600255589
3.539982985e-07
-5.725174595e-05
-3.220776153e-07
5.721982527e-05
7.824004511e-07
-5.880268665e-05
5.867392189e-05
-6.536356958e-07
0.0001489388248
1.402383108e-05
2.681076619e-05
-0.0001897734221
-5.969546959e-05
3.136466931e-07
6.016422335e-05
1.427067208e-06
-6.13632164e-05
6.084441015e-05
-9.082609568e-07
-0.0002639396672
3.847486348e-07
0.0002665142826
1.115789546e-06
-4.075153553e-06
-0.0001374697453
-1.501299576e-06
0.0001387221924
-0.0002787816733
-8.2340222e-06
0.0002732582704
1.37574251e-05
-8.777662237e-06
-0.0002672071317
6.731983598e-06
5.31314312e-06
8.120423625e-06
-0.0001059453588
0.0001063306394
-8.505704172e-06
5.366898458e-06
-5.218527279e-06
-0.0001108409894
0.0001106926183
-5.130926977e-06
-0.0001096802852
5.059776143e-06
0.0001097514361
-7.430311326e-06
-0.0001102681467
7.642084219e-06
0.0001100563738
7.816325971e-06
-8.74928339e-05
8.740755111e-05
-7.731043178e-06
5.345558537e-06
8.723696587e-05
-5.253947042e-06
-8.732857736e-05
-6.262094922e-06
8.629598331e-05
-8.605557334e-05
6.021684952e-06
5.264833135e-06
-5.365516058e-06
-9.414833955e-05
9.424902247e-05
4.693063034e-07
-9.227348042e-05
4.448365683e-06
8.735580843e-05
-7.571557952e-06
-9.226124193e-05
7.567883941e-06
9.226491594e-05
7.628841944e-06
-0.0001143049084
0.0001149018101
-8.225743565e-06
3.685731448e-06
0.0001476959741
-3.438469604e-05
-0.0001169970095
-0.0001115209571
6.773529919e-06
0.0001101143256
-8.226861707e-06
-0.0001171407216
8.169564802e-06
-2.397249747e-05
-0.0002342283032
2.386314452e-05
0.0002343376562
2.382059065e-05
-0.0002419598352
0.0002419198997
-2.378065507e-05
-0.0002257136468
2.405234992e-05
0.0002257560946
-0.000232765712
0.0002327928698
-2.399965529e-05
-8.102126021e-06
-0.0001170053107
7.653822319e-06
-9.634357339e-05
9.636705235e-05
-7.677301275e-06
5.60707603e-06
-5.37355177e-06
-9.632259383e-05
9.608906957e-05
-9.453056138e-05
5.492327528e-06
9.430306699e-05
-7.966811951e-06
-0.0001009742516
8.217596194e-06
0.0001007234673
8.489889032e-05
-6.067858235e-06
-8.509312701e-05
8.306751007e-05
-5.3088326e-06
-8.332411684e-05
5.565439372e-06
-7.679073526e-06
-8.346589573e-05
7.680655199e-06
8.346431406e-05
-1.741699715e-05
8.175361873e-05
-0.0001630624419
1.737427989e-05
-0.0001629607821
-2.453001022e-05
2.445485471e-05
0.0001630359376
2.445072181e-05
-0.0001697768392
0.0001697649889
-2.443887155e-05
-8.612846484e-06
-9.047496499e-05
8.439554022e-06
-2.432142624e-05
-0.0001811075042
2.437541261e-05
0.0001810535179
-0.0001878377767
0.0001878685507
-2.44137458e-05
-0.0001721847238
2.448551823e-05
0.0001721499274
-0.0001789450357
0.0001791208937
-2.449728422e-05
-8.707963366e-06
-8.985506027e-05
-0.0001260016448
0.000125994898
-1.485057509e-05
-3.407976767e-06
-6.323852767e-05
-7.826562381e-06
6.009621298e-05
-0.0001195027795
7.725360837e-06
-1.578037678e-05
-5.362150189e-05
6.806007995e-05
1.341798724e-06
1.996681781e-06
-0.0001337858925
0.0001322858971
-4.96686368e-07
-1.0789693e-05
-9.381861131e-06
-0.0001400015211
-0.0001337422033
3.1714338e-06
0.0001325674512
4.32080369e-06
-7.296712395e-05
-2.851849678e-06
7.149816994e-05
-7.462312239e-05
1.161140443e-05
6.733252165e-05
4.982369116e-08
-5.513085663e-05
-1.040600303e-07
5.518509297e-05
-5.684962975e-05
5.706936603e-05
1.342620221e-07
-6.563065328e-06
-7.293521659e-05
7.949828192e-05
1.066897142e-05
-3.608864848e-05
-0.0001068209377
8.02960731e-06
-1.441789417e-06
-0.0001089280344
6.31749982e-05
1.661383577e-06
-1.152286193e-06
-6.368409559e-05
6.262899379e-05
-1.093194956e-06
-6.208109278e-05
5.45293954e-07
-2.82814725e-06
-6.168780685e-05
2.741818431e-06
6.177413567e-05
-1.468942003e-05
7.874548102e-05
8.568976234e-06
-1.098246754e-06
5.570426872e-05
-0.0001614591075
-1.257001584e-05
0.0001740291234
-6.643121084e-06
-0.0001256347412
6.254626818e-06
0.0001260232355
5.940520814e-06
-0.0001272415486
0.0001275180973
-6.217069538e-06
-7.011592859e-06
-0.000123012115
5.334858436e-06
0.0001246888494
-0.0001243101891
0.0001244456384
-6.778570383e-06
-0.0001272976473
4.994621557e-06
0.0001282435465
4.83280185e-06
-0.0001289683283
0.0001293716194
-5.236093008e-06
1.412956391e-06
-3.10728149e-06
-0.0001320915674
4.929249678e-06
-4.953636368e-06
-0.0001075531176
0.0001075775043
-0.0001359590041
-6.818575159e-06
0.0001427775792
-0.0001067698452
7.592458522e-06
0.0001072978104
-0.0001095294656
0.0001093653282
-7.266173925e-06
-5.03128365e-06
-0.0001090385236
0.0001089388803
-0.0001078334591
5.041884721e-06
0.000107720824
8.962442402e-05
6.30195794e-06
-6.098223499e-06
-8.982815846e-05
8.745958636e-05
-8.773946418e-05
5.625436362e-06
-8.788699194e-05
7.769595255e-06
8.793372265e-05
-3.867755514e-06
4.732393081e-06
8.659494879e-05
5.356267645e-06
-5.215624451e-06
8.948378083e-05
-6.020104782e-06
6.012092367e-06
8.630399572e-05
9.172602692e-07
8.245195008e-05
-9.070981215e-05
6.06766886e-06
8.999841094e-05
-9.178638965e-05
9.183504914e-05
-7.620217447e-06
1.516017162e-05
-9.203929063e-05
7.734842531e-05
-9.073881375e-05
6.330959533e-06
1.992754703e-06
-7.002047378e-05
7.017949292e-05
-2.151773851e-06
-7.027275924e-05
2.577952143e-06
6.96875618e-05
-2.96982728e-06
-7.06256002e-05
3.322668242e-06
-5.300367799e-06
-7.06828358e-05
5.248463525e-06
7.073474008e-05
5.098308237e-06
-7.187853676e-05
7.195567783e-05
-5.175449305e-06
-4.165718937e-06
-7.48713065e-05
4.41390305e-06
-5.212609737e-06
-7.470775827e-05
5.228030009e-06
7.469233799e-05
5.311259496e-06
-7.658124534e-05
7.658143115e-05
-5.311445307e-06
-7.248869789e-05
5.075048335e-06
7.251195779e-05
-7.404859984e-05
7.402049665e-05
-5.184506553e-06
-3.511241974e-06
-7.362160092e-05
5.308717e-05
2.312695291e-06
-5.311220124e-05
-2.287664048e-06
-2.684465614e-07
-5.29350363e-05
2.127551395e-07
5.299072772e-05
-5.464879703e-05
5.476350202e-05
-6.488130313e-08
0.0001142320125
6.836183687e-06
-5.76242271e-06
-0.0001153057735
0.0001157380033
-0.0001160393279
3.98705604e-06
-0.0001145704079
7.18228321e-06
0.0001150169667
1.0144934e-05
1.973450515e-06
0.0001036196188
6.243090691e-06
-4.318729843e-06
0.0001123076517
0.0001578409081
-2.943356052e-06
-0.0001177777417
4.649130763e-06
0.000116071967
-0.0001217325758
0.0001222589065
-7.537923573e-06
-0.0001160614999
1.401781676e-05
0.0001082867738
-0.0001196472514
0.0001191182818
-2.414386411e-06
7.539227047e-06
-0.0001195890122
0.000119542099
-7.492313862e-06
4.300849422e-06
-4.652915807e-06
-0.0001192951851
-0.0001165475238
7.322207637e-06
5.327085077e-06
-5.636389221e-06
-9.910311909e-05
9.941242324e-05
-9.721015856e-05
5.434788477e-06
9.738244611e-05
-9.709656169e-05
7.637585799e-06
9.711279821e-05
-0.0001003450654
0.000100098114
-7.719860629e-06
-1.350836652e-05
-0.0001224870655
0.000135995432
-9.933716956e-05
5.27391915e-06
9.939033549e-05
-4.982944884e-06
-7.928043732e-05
4.784021193e-06
7.947936102e-05
5.383730025e-06
-8.072335285e-05
8.049066881e-05
-5.151045988e-06
-7.685510915e-05
5.306726563e-06
7.685964208e-05
-7.875849751e-05
7.910827829e-05
-5.332725668e-06
-1.226380934e-05
-9.908814188e-05
0.0001113519512
-4.499949657e-06
4.893276709e-06
8.267418301e-05
8.45056773e-05
-5.626891766e-06
-8.164916503e-05
5.194500932e-06
8.183839413e-05
-8.275187382e-05
8.257371297e-05
-4.32178881e-06
-8.145802717e-05
9.00270034e-05
2.542541734e-06
-6.535250452e-05
6.525336702e-05
-2.443404232e-06
2.458278758e-06
-2.569303731e-07
-6.405898727e-05
6.185763888e-05
-6.495040145e-05
-1.484624215e-05
-6.565407024e-05
9.416732846e-06
5.869561615e-05
-6.598047016e-05
2.464106969e-06
6.605890493e-05
-6.174273114e-06
4.348106633e-05
-0.0005287747013
7.265477816e-05
-0.001046725536
0.0002642806847
0.001059414164
0.0002610032374
0.001136287218
-0.0002659415388
1.039201531e-06
1.240687314e-06
-5.635346799e-05
5.407357915e-05
7.566940384e-06
-5.813224169e-05
5.160450284e-05
0.0004577313777
-0.0002696963964
-7.595504114e-05
8.352198152e-05
-1.707966728e-05
-0.0001173256997
-0.0002065128366
3.620069842e-05
0.0001042968982
-0.0002068756896
6.497557391e-05
0.0002067119346
-0.0001300777712
-5.936130655e-07
0.0001333664061
-2.695021833e-06
1.23130725e-05
0.000136553313
-1.371966413e-05
-0.0001351467213
0.0001451864014
-0.0001407406081
9.578037816e-06
-0.0001399102117
-1.48745625e-05
0.0001549322906
-0.000136499866
-8.571231048e-06
0.0001343859829
1.068511416e-05
-6.607961126e-06
7.971818277e-06
-0.0001314416283
5.379907556e-05
-0.0005499821183
0.0005543781135
-5.819507073e-05
1.629596841e-05
-2.060393593e-05
-0.0005622131647
-0.0002658116995
1.202810827e-05
-0.0001233043395
7.25557522e-06
0.0001231545822
-7.10581789e-06
7.167656015e-06
-7.383785778e-06
-0.0001240940593
-6.941398595e-06
-0.0001228904299
6.819713497e-06
-5.72545739e-07
-5.066747998e-05
5.425656069e-07
5.069746011e-05
-5.24042823e-05
5.250645347e-05
-3.706177325e-07
1.680933247e-06
-5.298973985e-05
5.83228681e-05
-7.775208413e-06
-0.0001172471032
-7.662388492e-06
-0.0001106820964
7.671835628e-06
-1.470006981e-05
-0.0001107138763
1.472994385e-05
0.0001106840023
-6.950567716e-06
-0.0001217234067
-0.0001187457474
5.268855141e-06
-0.0001198086452
7.627410984e-06
0.0001197204613
-1.15407067e-06
4.919211959e-05
5.164333677e-05
-1.790430613e-06
-5.170633981e-05
1.511593121e-05
-4.887502553e-06
4.141490811e-05
6.53105612e-05
-5.007366529e-05
5.006461705e-05
3.533486633e-05
-0.0001260245238
0.0001007123516
1.672720806e-06
-7.22725525e-05
6.784356105e-05
-1.644538276e-06
1.626312782e-06
-5.522378243e-05
5.448091475e-05
-7.707959332e-07
-5.535465709e-05
-5.238937648e-07
4.93262405e-05
1.0872702e-06
-1.028407441e-06
-5.886154941e-05
-5.610406195e-07
-5.728593343e-05
5.95228095e-07
-2.988335236e-06
-5.728538627e-05
3.016771836e-06
5.725694967e-05
-0.0002440712838
2.369884933e-05
0.0002441930251
2.30335739e-05
-0.0002510576194
0.0002507503035
-2.272625805e-05
1.507413158e-05
-1.589046408e-05
-0.0002521778269
-6.105196384e-05
6.113506626e-05
-2.91124967e-06
-1.135281929e-06
-6.132112943e-05
-5.962481249e-05
1.016613102e-06
4.637636886e-06
-0.0002699141778
0.0002742609284
-8.984387537e-06
-7.147715965e-06
5.031127839e-06
-0.0002766650852
-0.0001354556295
-2.981198534e-07
-0.0001258045537
-9.514553092e-06
0.0001016087517
4.318725336e-06
-3.511302512e-06
-0.0001266119765
3.956725454e-06
-0.0001282631812
-1.317135218e-05
-0.000157785378
0.0001709567301
-0.0001211594183
2.038674761e-06
0.0001059493913
6.889144448e-05
2.776561687e-06
-6.881940125e-05
-2.746055947e-06
3.111403157e-06
6.852609727e-05
6.687500173e-05
-1.88457769e-06
-1.067523099e-05
0.0001018960308
-7.17135235e-05
-3.621694736e-06
6.465998724e-05
-3.357353391e-06
-7.196975403e-05
-6.814093471e-05
-5.314760406e-06
5.307498062e-06
6.814819705e-05
-7.000504127e-05
7.000119183e-05
-5.29651836e-06
-2.951580449e-06
-7.003872061e-05
-7.652554614e-05
1.425696977e-05
6.445661314e-05
3.280410965e-06
-3.563318779e-06
-7.624263833e-05
3.637523433e-06
-7.643935478e-05
-5.413330513e-05
5.340585578e-05
1.31727012e-06
-1.054476432e-06
1.21718203e-06
-5.429601073e-05
-5.498473712e-05
3.931535076e-06
-2.776485135e-06
-7.915006155e-05
7.799501161e-05
5.389076266e-06
-7.995761135e-05
7.850007016e-05
4.184891516e-06
-7.657576931e-05
7.647302119e-05
4.77067492e-06
-7.705880459e-05
4.870198715e-06
7.491425962e-05
1.274997805e-05
-8.17021204e-05
7.434121861e-05
-0.0001029419188
0.0001156918969
-8.300755958e-05
8.301402984e-05
-7.685543786e-06
-5.201436923e-06
-8.285926949e-05
-5.924774777e-06
-8.144645084e-05
5.722060589e-06
1.05065054e-06
4.643179254e-05
-5.448259412e-06
1.536944205e-05
-5.732337787e-05
4.740219524e-05
-5.629725833e-05
5.208968623e-05
-6.285036574e-07
1.170183862e-06
-5.746670333e-05
4.847316834e-07
-1.234743077e-07
-5.799686472e-05
-7.372231812e-06
0.0001386057798
-0.0001044227818
-5.91963802e-06
-0.0001838537841
0.0001744664858
-0.0001818387176
6.031653295e-05
2.224115544e-07
-6.022529782e-05
1.462063393e-05
-4.412462651e-06
5.010836168e-05
-7.239058799e-07
8.032330114e-06
5.353598592e-05
-5.978073289e-05
5.464436436e-05
-6.046658229e-05
-5.155047663e-06
-0.0001360189178
0.0001378721033
3.30186225e-06
-1.30669774e-05
1.462782327e-05
-0.0001380607119
-0.0001391160015
-1.158390323e-05
1.355407047e-05
-7.016548385e-06
-0.0001050457155
9.850819342e-05
3.317502546e-05
-0.0001067534334
8.713247844e-05
5.830603167e-06
-5.961845838e-06
-0.0001034322135
0.0001035634562
-0.0001038422168
0.0001026562716
-0.0001103806767
-5.047046182e-06
0.0001102091956
6.789213857e-06
-6.455199634e-06
-0.0001107146909
7.174851492e-06
-0.0001112266271
6.258182889e-06
-6.09936535e-06
-0.0001098391028
0.0001101422189
-0.0001103392356
0.0001101549488
-9.344064694e-05
-5.261933603e-06
9.333706449e-05
6.383177433e-06
-6.220047127e-06
-9.360377725e-05
6.412754243e-06
-9.417791636e-05
6.127323009e-06
-6.117980371e-06
-9.228282306e-05
9.272427834e-05
-9.281700246e-05
9.191071042e-05
-0.0001157532284
-1.413805082e-05
9.55065832e-05
7.273515384e-06
-8.030664359e-06
-0.0001149960794
5.964645218e-06
-0.0001156881394
7.705418108e-06
-0.0001120515237
0.0001131283619
-0.0001134536082
0.000105763841
-9.59690083e-05
-5.428400016e-06
9.602385655e-05
6.528331245e-06
-6.523413193e-06
-9.597392636e-05
6.565644372e-06
-9.635990696e-05
6.485006185e-06
-9.460281332e-05
9.532708041e-05
-9.536548741e-05
9.539100792e-05
5.646752416e-06
-5.241902417e-06
-0.0001025060327
0.0001021011827
-0.0001027591485
0.0001024440551
5.487721721e-08
1.667750286e-05
-0.000100404719
8.367233893e-05
-0.000101605652
9.641862684e-05
4.813362265e-06
4.249415152e-05
-4.570043269e-06
7.263012322e-05
-5.214002582e-05
4.268248e-05
-5.258865771e-05
7.012392346e-05
6.185320892e-06
3.035616414e-05
9.574441204e-05
-0.000166697125
0.0001728824459
-0.0001318589451
-0.0001774497251
0.000168067864
-5.197689303e-06
-3.143450937e-05
-0.0001408175264
-0.0001405635399
-4.635670477e-06
-6.738687135e-06
-0.000163145305
0.0001698839921
-0.0001301010241
9.192782756e-05
-7.225360891e-05
7.107448004e-05
-9.492743074e-05
0.0001065388352
-5.566244815e-05
4.857548906e-05
-1.143539271e-07
-5.631889015e-05
-5.768012848e-05
1.838288409e-06
-4.155954562e-06
-6.257832079e-05
5.204485533e-05
8.677781114e-05
-6.203365888e-05
5.677945756e-05
2.128019303e-06
-3.58612623e-05
-0.0001277258645
0.0001247565155
-0.0001261397987
0.0001026719466
0.000122614886
5.929751409e-06
-0.000123209779
-2.560609479e-06
4.01607724e-06
-3.565713804e-05
1.348181665e-05
-0.0001202156523
0.0001087725104
-0.000124372696
0.0001019932503
-0.0001071433101
-3.257634248e-06
0.000105447308
5.547527696e-06
-5.29635135e-06
-0.0001073944865
5.620911438e-06
-0.0001076265014
5.28004786e-06
-0.0001080640265
0.0001078174672
-0.0001078337707
9.774125784e-05
-0.0001086199146
-4.926053773e-06
0.0001085146847
5.962266165e-06
-5.824388476e-06
-0.0001087577923
-0.0001091756228
5.784885193e-06
-0.0001079974328
0.0001083736896
-0.0001084131929
0.0001084895206
-8.875863716e-05
8.851532726e-05
-5.854913594e-06
6.590648966e-06
-8.892024293e-05
-6.429043191e-06
6.712576105e-06
-8.99500856e-05
4.879474501e-06
-8.792188654e-05
8.777480512e-05
8.817917731e-05
0.0001081680141
-1.479469901e-05
-8.736122271e-05
-1.344801717e-05
0.0001216160313
-6.081688425e-06
7.893766697e-05
-8.731934375e-05
7.344190501e-05
1.385692027e-05
-9.121148977e-05
8.342223835e-05
-0.0001132831974
0.0001271401177
-9.181334834e-05
-6.309677427e-06
6.242265015e-06
-6.561457358e-06
-9.149415599e-05
-9.191500598e-05
6.703057757e-06
-9.07292954e-05
9.119020766e-05
-9.104860726e-05
1.447739133e-05
-3.054350936e-06
5.875645253e-05
-7.02159845e-05
8.780477899e-05
-6.959119667e-05
-1.012624421e-05
9.79310232e-05
3.063340251e-06
-8.561755665e-07
6.466783705e-05
6.146319331e-05
7.00728779e-05
-7.085227915e-05
-1.466488546e-06
6.791767171e-05
6.516672232e-05
4.161791002e-06
-7.476033852e-05
-4.272758981e-06
7.625655792e-05
-7.56580857e-05
-0.0001151628896
-4.767870092e-06
0.000114168337
6.303842161e-06
-5.766403656e-06
-0.0001157003282
-0.000116039134
7.037202675e-06
5.486905855e-06
-0.0001155615886
0.000115410244
-0.0001156897418
0.0001146294299
3.786811649e-06
0.0001128160688
0.0001136364188
0.000116099669
6.362538343e-06
-0.0001178130766
-3.582191607e-06
5.874010234e-06
0.0001138078504
-4.87130129e-07
0.0001129769055
-1.42701759e-05
0.0001008719444
-0.000118252732
0.0001098565663
-0.0001194281172
3.495897067e-05
-0.0001194556895
9.851453556e-05
1.212235826e-05
0.0001065087934
-0.0001542095882
0.0001663319465
-0.0001216650039
-9.816386407e-05
-5.429009829e-06
9.795648468e-05
6.521846256e-06
-6.504743519e-06
-9.818096681e-05
6.332133816e-06
-9.891340665e-05
6.510309564e-06
-9.715482375e-05
9.774686392e-05
-9.774129788e-05
9.775264257e-05
-9.970307954e-05
-6.203080278e-06
9.23977933e-05
5.971787008e-06
-6.131655588e-06
-9.954321096e-05
-9.983777564e-05
6.262443477e-06
-9.926747922e-05
9.953919397e-05
-9.940840608e-05
9.861003285e-05
-1.849081366e-06
1.438447386e-05
-7.980766269e-05
6.727227019e-05
-7.919676017e-05
7.457119366e-05
-7.806737489e-05
7.067376427e-05
4.990291299e-06
-7.828699127e-05
-7.971337672e-05
8.313994495e-05
5.24706135e-06
-8.34937296e-05
-4.143471801e-06
4.311679667e-06
8.297173709e-05
-3.202671142e-06
8.173338235e-05
-4.690050675e-06
8.311403955e-05
-8.359902345e-05
8.322065245e-05
-8.397885387e-05
8.296232381e-05
4.618675233e-06
-8.238649811e-05
-5.326084467e-06
-1.465351053e-05
-5.189810736e-06
1.472175525e-06
7.78988663e-05
-8.289702363e-05
6.971568863e-05
-8.260013721e-05
-6.39350422e-05
4.126121833e-06
5.955198999e-05
1.163615418e-06
-5.072014172e-07
-6.45914562e-05
2.038926673e-06
-6.493429852e-05
6.52099983e-07
-6.433156459e-05
-1.27093684e-06
6.477581819e-05
-6.463091962e-05
5.405569788e-05
-3.546316042e-06
1.46096718e-05
-6.738040724e-05
5.631705147e-05
-6.671381468e-05
6.231132307e-05
2.467721174e-06
-6.608286474e-05
8.453463523e-05
-6.745724225e-05
9.395136808e-05
-5.21887935e-05
4.706517093e-05
-0.0001261969272
2.688976678e-06
-1.296793328e-06
2.205412494e-08
-0.0001238142203
6.303718538e-07
-9.139293176e-05
-9.994717375e-06
4.55370668e-06
0.0001058347886
0
8.149829056e-08
-4.938556887e-09
-7.447677167e-05
4.787847706e-06
-2.263998057e-05
-8.086475846e-06
1.87987941e-06
3.855491553e-05
0
0
0
-1.040141924e-05
6.72472916e-07
0
-2.94506392e-08
0
1.192016154e-07
0
0
0
0
0
0
0
0
0
0
0
0
0
0
0
0
0
0
0
0
0
-0.0005884552414
1.346497821e-05
-1.002007025e-05
4.604328656e-06
-0.0005829964792