/*--------------------------------*- C++ -*----------------------------------*\
| =========                 |                                                 |
| \\      /  F ield         | OpenFOAM: The Open Source CFD Toolbox           |
|  \\    /   O peration     | Version:  v2012                                 |
|   \\  /    A nd           | Website:  www.openfoam.com                      |
|    \\/     M anipulation  |                                                 |
\*---------------------------------------------------------------------------*/
FoamFile
{
    version     2.0;
    format      ascii;
    class       volScalarField;
    location    "1.67";
    object      p;
}
// * * * * * * * * * * * * * * * * * * * * * * * * * * * * * * * * * * * * * //

dimensions      [0 2 -2 0 0 0 0];


internalField   nonuniform List<scalar> 
3259
(
192.0193533
12.1291088
-166.4971884
-327.9672807
-463.0623293
-569.1875121
-648.3552734
-704.4232705
-751.7902674
-773.4142778
-785.9751705
-791.8335695
223.2837942
36.62204532
-152.0829576
-322.7321515
-463.4772285
-572.4725183
-660.8125127
-713.6477482
-760.2113969
-779.2731072
-790.4012906
-795.5502081
231.3241843
22.43141951
-179.8683711
-360.3634256
-504.9765473
-609.4594884
-695.3204117
-739.7769921
-779.639367
-793.2991627
-801.1906803
-804.7210755
224.8675614
-38.33178122
-268.7146135
-447.2070282
-583.5499777
-678.5253407
-749.7420345
-779.6538495
-807.9851572
-813.9243259
-816.9522526
-818.1245089
218.1694586
-165.4518697
-446.9052185
-617.949165
-718.0640115
-778.3343087
-822.2320663
-831.3361502
-841.0494033
-837.638109
-834.7038222
-833.0284477
248.673314
-422.5596053
-766.6533456
-882.6113416
-909.9714624
-910.6959914
-908.3635297
-888.8575214
-875.0886212
-861.0438571
-851.3705829
-846.6204464
512.3420951
-1081.702403
-1287.978269
-1230.667966
-1142.816223
-1060.994619
-998.1331601
-944.6549567
-905.6366743
-880.045665
-863.8141106
-856.14926
-2807.15312
-1999.250826
-1601.153285
-1365.745416
-1200.516108
-1073.199243
-989.2798659
-924.9882101
-890.1895565
-868.8751687
-858.8121226
-4204.654376
-2500.848819
-1850.790857
-1512.445998
-1290.161971
-1115.387411
-1011.390728
-928.1871223
-887.8978027
-863.700951
-852.2013644
-3877.93995
-2483.132691
-1866.833195
-1525.329135
-1301.516009
-1112.455848
-1004.220099
-912.2080052
-871.2750686
-846.7009094
-834.9662214
-2908.048592
-2094.033613
-1678.533207
-1422.957037
-1236.302816
-1063.448193
-966.9897305
-877.0644158
-840.1472219
-817.7032034
-806.9071887
-1903.365781
-1567.097779
-1375.360599
-1232.88939
-1111.044854
-978.0423914
-904.4757492
-825.573815
-796.3017221
-777.9118531
-768.9726437
-4504.319223
-2977.036192
-4224.717229
-4557.824303
-3161.849989
-4114.162844
-2070.943235
-3020.37835
-1941.513615
736.6090301
-2620.10233
-891.7610019
-5986.152977
-3830.876783
-4145.960962
-2674.778985
-2151.017542
-6003.082188
-6354.101674
-3971.178013
-2784.830222
-2767.307474
-4393.106509
-5227.804018
-3036.710727
-2381.109722
-2718.494336
-2892.87087
-3526.574585
-1617.894619
-1577.693542
-2135.983549
-6365.892491
-6043.070164
-4110.711857
-5777.779566
-6201.335357
-5278.228935
-5968.202584
-4422.588614
-5837.515038
-5188.489371
-6192.358661
-5870.575922
-4456.496211
-3620.682427
-4333.921093
-3584.549694
-4230.109999
-3549.957054
-5139.027412
-4337.162532
-3723.314644
-2217.861877
-2805.778527
-1573.573089
-1614.520729
-1500.341127
-1568.270232
-7522.142998
-4788.217041
-3454.189562
-2024.841729
-1781.499097
-2239.591934
-2019.430709
-1965.792222
-2259.089046
-3643.118135
-5638.007421
-3889.319012
-2307.19566
-2623.90799
-2469.69823
-2762.869098
-2192.591874
-3459.396919
-2847.190799
-2605.525511
1175.15248
-3356.876721
-1015.173236
871.9001087
-7636.777817
-5398.897029
-7375.022505
-4565.121839
-7214.342821
-5070.871952
-6172.322699
-6198.244859
-4787.839572
-4844.440702
-3054.118282
-3383.370782
-3158.537552
-3362.869428
-3027.005878
-3782.091034
-3413.266412
-3249.19219
-1607.540261
-1876.471169
-1941.095391
-6330.414043
-6316.346973
-5602.328012
-5645.223682
-5546.925886
-4957.760171
-5119.144562
-4687.881202
-4895.570967
-5504.661722
-6068.612373
-5286.537726
-5301.920285
-5163.359516
-5265.232368
-6044.026698
-3914.338549
-3822.455389
-3966.217649
-2976.440855
-2649.159535
-2549.824421
-2668.699376
-2998.018777
-1948.61212
-1518.770728
-6004.490213
-2167.849713
-2321.130182
4595.231722
-2355.030631
-2522.957044
1853.219182
-4172.204374
-1193.157902
1017.261358
-6085.994912
-6870.597308
-6760.604441
-6297.795857
-4560.507129
-4752.41167
-4553.822329
-5492.681982
-5323.152032
-5069.621719
-6365.142327
-6881.05229
-6913.076334
-6135.716134
-5116.093507
-4829.466041
-5288.208125
-5178.604782
-6144.222047
-5423.701304
-5703.304866
-5550.501993
-5842.024849
-4491.717034
-4310.683036
-4172.811142
-3926.690093
-3683.178324
-3939.966696
-4772.866505
-4369.753834
-4611.937427
-4026.532299
-4285.320268
-4718.600359
-2466.205784
-2604.376446
-2301.068286
-1749.455881
-6875.158239
-5798.37153
-6517.931516
-3592.791324
-3655.779296
-1982.929446
-2121.164999
-2132.981958
4033.38886
4300.439096
3852.825521
-2697.051137
-2528.584409
-2485.129719
-2530.838521
-2714.875741
-7651.841439
-6672.328606
-6223.274426
-6999.312951
-6779.16516
-6039.57594
-5332.534196
-6410.339555
-6549.086373
-6452.258584
-6106.045036
-6275.033717
-6716.942578
-6589.902461
-5002.548724
-4816.421873
-4617.971808
-4873.450665
-5069.893341
-4613.279223
-4814.063186
-5129.490806
-5014.255566
-5267.844218
-5064.955981
-3193.751601
-3254.795874
-3223.956273
-3141.794019
-3280.730591
-3630.274013
-3523.448667
-3672.140159
-3327.206881
-3474.385563
-3575.527183
-1814.438911
-1792.309476
-1933.373828
-6938.096516
-6886.583727
-6360.012248
-7049.041105
-7143.570699
-7014.112045
-7102.290495
-7065.164968
-7182.092955
-7105.830842
-6234.965014
-6878.675688
-6954.843884
-5888.822966
-5751.970285
-5470.014292
-5790.683438
-6087.746678
-5926.649294
-3919.884167
-4081.512475
-3723.12447
-3871.637693
-3966.330029
-4359.867164
-4545.548235
-4133.903272
-4303.777194
-2722.684328
-2811.826989
-2876.627118
-2710.803118
-2927.262738
-2856.078582
-1832.153709
-2513.636565
-1922.679206
-1283.749034
-2306.938025
-2360.114504
-1626.492963
-2368.738971
-2113.050025
-1603.03153
-1563.358465
2202.789801
3391.433932
4373.01922
-4762.1488
-1387.915655
1237.48473
-1679.863168
-1314.503595
-3247.511235
-5721.777684
-6466.870217
-6709.846803
-1604.122071
-1744.631001
-1754.345538
-2212.211251
-1947.432548
-1892.548072
-6773.088118
-6861.27314
-6209.346028
-1586.360831
-1683.828144
-1695.234867
-1599.137477
-1556.347808
-7427.724419
-3490.693129
-2000.804182
-2068.788121
-2074.803028
-2303.313104
-2158.524164
-2124.533303
-4695.547813
-4175.229029
-5008.390951
-2440.741473
-2494.872979
-2346.72646
-2092.426817
-1557.164878
-4052.980997
-7528.200855
-7137.279234
-6987.682323
-7511.573678
-7499.092309
-3100.794381
-3132.477801
-3083.474735
-3400.011553
-3392.500058
-3365.436348
-2955.029608
-3092.819162
-3169.155108
-3745.180106
-3693.205262
-3744.102737
-1934.215324
-1911.852084
-1944.296172
-4090.552182
-4154.92712
-3794.795839
-3854.04208
-3879.364769
-4216.597976
-4236.865067
-4117.725011
-4254.983233
-4091.256415
-1947.630341
-2203.297085
-2246.689125
-2345.82857
-2298.975145
-2277.394438
4634.577187
4920.767711
4460.939478
-2409.932569
-2435.144007
-2356.150426
-2541.193626
-2486.667837
-2474.640473
-2606.667348
-1821.350627
-4564.814333
-6340.018307
-6345.992394
-6269.710199
-6310.002766
-6832.125435
-6668.537414
-6700.126821
-6606.048414
-6638.019914
-6797.46291
-5439.943411
-5357.926202
-5411.769221
-5242.241319
-5302.733305
-5384.954295
-6928.776959
-6740.893552
-6722.36312
-6728.327977
-6742.111861
-6940.134849
-5649.925232
-5565.029122
-5614.701022
-5465.210195
-5515.457359
-5602.038773
-6200.605779
-6234.858995
-6098.528122
-6152.465544
-1595.500773
-1756.298639
-1748.763791
-1738.359739
-1600.264012
-7202.419226
-7517.04515
-7186.224974
-6582.906401
-6259.277624
-5435.428856
-7032.593889
-6706.724251
-3535.793102
-3680.973888
-2130.327747
-2118.637448
-2127.138035
4178.256272
-2608.778886
-2543.83677
-2659.946623
-7364.769128
-7256.379392
-7593.184168
-6929.436471
-7228.057509
-7281.032675
-7493.262472
-7469.418213
-6506.706279
-6395.766702
-6427.14419
-6356.951703
-6369.522294
-6469.930102
-6670.513042
-6532.72903
-6570.718324
-6461.277311
-6496.004707
-6629.346419
-4943.18845
-4869.024057
-4928.111562
-4936.367597
-5006.228827
-4666.666802
-4694.947137
-4659.152908
-4754.121666
-5194.977477
-5237.74669
-5195.871789
-5111.870793
-5178.020641
-4989.012687
-5051.203647
-5132.445948
-3231.880243
-3149.555288
-3138.209426
-3163.172407
-3097.501032
-3152.825309
-3317.621437
-3343.851002
-3283.124604
-3591.12458
-3636.067717
-3662.866824
-6915.176734
-6718.169561
-6727.107975
-6710.959384
-6712.020209
-6897.857928
-7081.208123
-7108.255491
-7113.606192
-7365.933593
-7321.709024
-7366.953303
-7390.595984
-7103.32808
-7183.895407
-7312.771887
-7320.417745
-7127.575742
-5847.652562
-5755.322718
-5796.853536
-5662.163335
-5709.320535
-5798.290838
-6032.096575
-5946.69782
-6029.517144
-5837.000371
-5884.002534
-5974.405627
-4005.788852
-4040.860654
-3942.89919
-3910.396148
-3942.393481
-4414.175058
-4446.431726
-4398.024827
-4584.747627
-4507.677443
-4475.161405
-4181.52543
-4215.890596
-4181.572444
-4346.693449
-4295.076442
-4242.943042
-2822.175141
-2804.672023
-2864.402029
-2701.213564
-2750.468618
-2784.832331
-2994.599413
-3038.073651
-2909.623742
-2919.59725
-2931.033905
-1890.535516
276.8786566
267.472698
228.7441092
81.12160892
82.38524382
29.73630475
-119.9992739
-107.2623782
-168.8517767
-305.6457079
-283.1130459
-347.9606604
-458.8991018
-431.1559094
-491.3543918
-573.5997171
-547.4864525
287.0145764
279.9600742
227.23189
42.65319852
74.87019985
-17.92281115
-187.6948496
-130.7477915
-239.2584838
-377.5571533
-317.7480765
-418.5624187
-527.8067128
-472.6488554
-559.3734743
-637.5802608
-586.5151602
304.7998922
289.4381097
218.2442904
-43.76522363
26.18030377
-125.595883
-335.2389618
-215.9700318
-392.0855432
-528.5584985
-407.092724
-565.5356315
-655.3893466
-552.6395548
-679.0444511
-735.7987247
-659.0283716
376.7687171
316.2674751
233.1267148
-211.5920509
-75.46188249
-337.8869615
-609.571995
-388.7895663
-669.7150793
-786.4796683
-582.3693326
-808.5534065
-849.1270937
-697.9961615
-857.1475437
-872.0663338
-766.1718927
658.9126815
421.7362405
475.566614
-640.6791715
-279.6544431
-840.1483641
-1111.261014
-707.7828508
-1137.158729
-1144.925512
-866.3982383
-1137.02047
-1097.992777
-906.8944844
-1083.129887
-1038.0791
-911.6526769
656.3684128
-695.0359688
-215.0038067
-1497.045199
-1478.486535
-1199.070197
-1819.145025
-1576.618275
-1250.615053
-1513.317275
-1357.593486
-1164.877003
-1314.130982
-1201.382696
-1080.522566
-3575.605352
-2915.317374
-2415.079473
-2421.969674
-1920.927364
-1679.137706
-1807.512014
-1552.133651
-1416.034998
-1485.733233
-1320.728555
-1237.487178
-4226.630613
-3463.86872
-3386.469673
-2532.287909
-2006.146352
-1970.488907
-1882.511875
-1606.026382
-1582.142908
-1534.532938
-1356.83089
-1339.033397
-3540.705155
-3060.741758
-3273.089241
-2212.120072
-1834.424314
-1984.539299
-1740.843934
-1519.810884
-1595.316878
-1459.884234
-1305.04744
-1350.853372
-2523.32128
-2293.66744
-2590.689771
-1702.038468
-1508.938122
-1762.436567
-1456.625837
-1324.219478
-1478.055406
-1285.65162
-1179.533481
-1279.11425
-1547.064529
-1555.877466
-1752.318448
-1417.501552
-1265.528277
-1140.542299
-4414.383312
-4927.956488
-5051.480992
-3166.756178
-3594.444848
-3317.208159
-4323.578978
-4730.580709
-4541.55127
-5067.900123
-5072.18477
-4579.908598
-3302.989651
-3523.899119
-3284.587388
-4471.106259
-4247.730337
-3990.442355
-2201.938724
-2258.114032
-2119.138471
-3139.747271
-2986.711885
-2880.594159
-1981.585335
-1845.250058
-1813.274509
2686.756595
3787.865163
4530.420756
1121.531488
-1274.748726
794.4550143
-2275.991005
-2312.797901
-2727.910052
-424.9616425
-981.907245
-1431.185544
-5888.826336
-6113.451051
-6198.683647
-4049.832625
-4609.133802
-4285.072099
-3341.825822
-3038.135548
-3771.442043
-2537.686116
-2827.928353
-2995.320033
-2334.120421
-2604.130796
-2360.178144
-6035.730305
-6179.940919
-6142.399503
-6523.91246
-6500.489253
-6337.310663
-3342.127215
-3441.497172
-4186.871131
-2818.720251
-3142.642186
-3089.977234
-3101.860791
-3149.143304
-2814.46532
-4445.633881
-4503.922179
-4445.073265
-5316.783539
-5263.705627
-5176.113197
-2693.824282
-2967.123236
-3417.987469
-2511.150359
-2734.563849
-2574.99056
-2999.567785
-2878.423381
-2625.3508
-2980.774873
-3030.314448
-2939.296872
-3636.986604
-3490.439372
-3433.230044
-1613.967053
-1664.583594
-1673.784619
-1814.726049
-1859.942896
-1598.277913
-2160.616865
-2076.437373
-2054.542814
-6369.838003
-6547.67151
-6541.527238
-6267.35907
-6327.211668
-6115.463967
-4578.701654
-4865.617113
-4284.192677
-5886.205325
-5534.121313
-5420.336704
-5820.537555
-5809.052782
-6195.713272
-5327.642623
-5418.532521
-5368.474923
-6105.861508
-6068.5587
-5931.222858
-4932.444465
-4786.832816
-4347.940518
-5722.079563
-5414.635953
-5486.828386
-4999.118195
-5085.567517
-5330.144696
-6151.813769
-5808.85544
-5820.766232
-5522.726558
-5572.691234
-5951.856561
-4467.160402
-5054.119202
-4970.097109
-3716.448227
-3833.950071
-3686.379782
-4387.322308
-4329.612765
-4280.981654
-3846.479087
-3603.735657
-3444.041619
-4126.565218
-4033.677522
-4130.503024
-3349.360919
-3599.098003
-3830.038414
-4986.518658
-4817.277384
-4909.531216
-4229.076632
-4328.975599
-4500.52861
-3859.047358
-4169.011792
-3927.754239
-2300.148053
-2330.278513
-2245.231903
-2849.275737
-2760.548716
-2719.58754
-1511.935128
-1563.870557
-5068.10393
-5892.923259
-5421.750667
-1958.986908
-2189.968863
-2396.678846
-1936.856827
-2047.626017
-1866.66313
-2404.690309
-2227.819738
-2090.416432
-2055.987304
-2111.055661
-1971.186905
-2272.127817
-2226.449646
-2216.511843
-4717.820001
-3972.707822
-3236.105918
-5281.311246
-5113.334235
-5461.157371
-3619.816789
-3983.529142
-4451.532775
-2350.714631
-2365.741059
-2318.239135
-2644.805737
-2599.744574
-2578.741508
-2543.560976
-2399.47069
-2335.319967
-2515.241724
-2466.43905
-2641.313276
-2165.067252
-2313.850489
-2434.096944
-3192.142633
-3031.394606
-3269.062974
-2720.38084
-2950.366734
-3104.789479
-2742.60445
-2837.312563
-2689.549317
1612.40845
-2896.676584
-2909.596
-3463.513863
-405.6646307
-1116.789242
-1741.952206
1001.868439
-758.1444884
-167.3950529
-5920.722417
-6363.356112
-5667.460556
-5990.240476
-5065.60501
-4294.518994
-6797.622883
-6565.794577
-7029.305184
-4703.658245
-5107.903563
-5754.810623
-6300.314936
-6273.852529
-6147.798117
-6224.367687
-6359.874429
-6329.618717
-4858.362891
-4800.217624
-4731.400004
-4901.142187
-4976.379456
-4917.294505
-3215.225404
-3122.315226
-3069.285694
-3326.090506
-3293.750696
-3338.488247
-3001.066927
-3048.157082
-3073.955677
-3384.82259
-3433.484749
-3463.704423
-3340.845658
-3442.689214
-3299.357562
-1696.73888
-1708.575205
-1616.586343
-1923.485987
-1784.954993
-1786.25002
-6524.814246
-6528.433545
-6344.33775
-6302.891346
-6498.377068
-6515.409936
-5697.513475
-5654.596515
-5559.561607
-5690.560155
-5786.117742
-5739.936548
-5321.508302
-5393.422158
-5677.965213
-5016.036077
-5198.043187
-5134.297146
-5318.763139
-5261.656753
-5069.83793
-4760.95652
-4919.755164
-4840.285729
-5067.251735
-4995.546346
-4830.202463
-5375.984151
-5168.573927
-5247.496649
-5758.775427
-5787.605606
-6132.215203
-5300.219661
-5536.171504
-5515.479391
-5551.817907
-5548.665602
-5305.752973
-5202.375979
-5411.08113
-5370.192987
-5487.273192
-5451.91051
-5236.711402
-5976.390475
-5682.629351
-5723.150516
-4039.198919
-3883.111152
-3773.289438
-4014.60425
-4058.614283
-4006.730371
-2833.795318
-2802.493875
-2907.421302
-2623.528332
-2712.330534
-2788.895019
-2633.99416
-2673.266243
-2586.960434
-2714.800442
-2732.087298
-2687.128244
-3020.733801
-2963.615817
-2945.021211
-1525.451286
-2221.716388
-2236.69318
-2178.463751
2380.576764
3092.291835
2004.504061
3186.082535
2645.33361
4174.448035
3430.444178
-3572.612525
-3597.190844
-4296.075606
-668.9051744
-1303.61327
-1815.058169
1283.703371
-890.4779191
85.3439541
-6223.546036
-6209.517835
-6063.582312
-6318.341047
-6475.99035
-6450.029333
-4623.373747
-4563.753702
-4502.442984
-4684.690512
-4622.845448
-4685.24209
-4499.380998
-4560.118426
-4613.683088
-5123.569562
-5209.553719
-5153.051109
-6542.281677
-6547.757065
-6369.421835
-5694.875431
-5624.775659
-5970.425235
-5037.953996
-5316.872696
-5392.803204
-5106.874832
-5222.091806
-4943.339812
-5263.419155
-5524.910997
-5543.931846
-5451.83017
-5494.738433
-5227.579866
-6190.631358
-5787.097744
-5751.802947
-5516.238067
-5467.925752
-5376.187398
-5889.599137
-6022.694494
-5966.342729
-4427.666749
-4379.726766
-4439.772201
-4265.20208
-4321.332524
-4367.231172
-4223.916246
-4273.386477
-4218.154139
-3844.259536
-3938.230491
-4025.531326
-3768.112633
-3852.991603
-3763.540333
-4035.119899
-3943.550983
-3853.654325
-4626.252426
-4722.764074
-4933.662689
-4452.675115
-4585.299194
-4495.948953
-4757.742796
-4672.588671
-4533.352182
-4113.287049
-4220.081403
-4127.44442
-4404.906551
-4312.71839
-4199.553605
-4555.411864
-4428.861558
-4528.099064
-2501.017567
-2415.425286
-2382.950023
-2468.67079
-2447.163537
-2535.176256
-2273.344379
-2360.144345
-2390.819041
-6023.053061
-6462.574893
-6864.739491
-2033.22449
-2048.92468
-1992.114586
-2128.066292
-2094.827109
-2078.612559
4320.961572
-2647.004541
-2621.464384
-2667.231985
-2517.809559
-2566.899976
-2582.570898
-2532.030741
-2550.820782
-2502.795972
-6543.417155
-6893.341216
-7025.726737
-6569.175787
-6742.023231
-6393.695413
-7125.762366
-7190.386591
-6863.054148
-5833.404607
-6155.838621
-6378.863687
-5617.302586
-5904.372672
-5609.407471
-6771.781821
-6282.982843
-5962.829613
-6125.37383
-6251.99082
-6238.028412
-6421.594278
-6390.91116
-6250.312003
-4747.148198
-4808.741374
-4880.238267
-4674.971587
-4741.923965
-4682.852126
-5094.4648
-5035.280863
-4957.815945
-3196.287374
-3247.092485
-3279.867251
-3187.704443
-3216.444287
-3167.563046
-3310.035063
-3263.099388
-3235.94706
-3573.038283
-3606.532903
-3557.221014
-3706.124929
-3656.391854
-3622.468126
-3375.771222
-3405.836667
-3357.3625
-3507.647823
-3456.385845
-3425.01939
-3516.085814
-3485.927897
-3540.948462
-1807.860942
-1866.36322
-1884.525382
-1840.684033
-1852.607014
-1801.283502
-1941.283751
-1898.008848
-1886.86546
-6353.654603
-6530.301139
-6534.443248
-6443.110512
-6475.635134
-6283.439035
-6911.936758
-6687.894153
-6657.967938
-6725.274798
-6712.614012
-6946.122733
-5515.489284
-5609.439794
-5563.03941
-5902.778578
-5840.836367
-5739.434244
-3970.096509
-4008.331119
-3957.785533
-4125.757671
-4063.452735
-4024.483606
-3774.738761
-3813.283078
-3758.272729
-3906.634333
-3863.880656
-3824.024686
-2836.663641
-2783.060426
-2763.319998
-2898.69559
-2913.89286
-2880.235091
-2245.605164
-1805.369227
-1717.625974
-1694.382272
-1753.58225
-2038.972366
-1259.110444
-1488.92367
-1478.127135
-1689.260381
-1516.871887
-1474.250203
-1876.757772
-1873.631033
-2018.492311
-1591.220486
-1731.470991
-1752.491795
2850.023397
3282.91181
2477.983731
3721.974898
3613.799782
3216.226698
4522.753349
4076.268268
4053.33216
-3150.776223
-3034.587021
-4369.776862
-722.5527301
-1476.717121
-2116.924362
1136.358637
-300.7582225
197.7804839
-1769.13132
-1879.053183
-1496.345259
-2982.026282
-2335.514008
-2166.913874
-5969.58405
-6043.177115
-5812.878112
-6558.432505
-6285.426068
-6198.394688
-6443.04487
-6366.677159
-6637.83554
-1650.805022
-1656.329631
-1607.684395
-1750.199451
-1702.29302
-1698.460833
-1719.668825
-1709.986695
-1754.537717
-2123.131349
-2100.291168
-2186.799596
-1927.838213
-2014.013811
-2035.123033
-6820.10734
-6561.878267
-6508.982287
-6630.567698
-6600.695869
-6847.164066
-6152.372109
-6370.84559
-6411.876577
-1559.603136
-2258.820925
-2241.722192
-2287.158858
-2145.798862
-2194.148456
-2208.867611
-2168.150713
-2180.144024
-2133.877286
-4540.027233
-4808.852563
-4969.640373
-5255.61344
-4915.208259
-4685.621128
-2457.241817
-2412.310055
-2398.737106
-2450.934681
-2430.871134
-2474.690652
-2333.354575
-2382.096757
-2396.472185
-1985.28996
-2417.162514
-2478.800418
-2137.756032
-2310.898268
-1811.550576
-3561.688154
-2897.24799
-2875.750002
-2999.302215
-3023.404996
-2976.632146
-3118.726874
-3070.234703
-3047.443941
-3119.710282
-3095.715991
-3144.989328
-4164.424767
-4110.937278
-4068.021172
-4198.870755
-4155.926735
-4210.453029
-4048.866302
-4101.886703
-4143.826544
-2384.165736
-2964.578665
-3055.412184
-2509.446345
-2798.258088
-2152.263052
-4423.09111
-3563.289461
-3386.804852
194.2142596
104.0746476
103.0450625
12.02243681
-79.78266871
-78.47267241
-168.9201656
-253.3825744
-250.1093083
-331.7910709
-403.2496266
-399.1216763
-467.2581429
-523.7731371
-519.6851067
-573.1438642
-615.8869378
-612.0348493
-651.78269
-681.8155328
-678.8785206
225.8418385
178.6942248
176.7448408
35.97641255
-13.46903177
-13.07369454
-155.7965573
-202.1482309
-198.0238071
-328.8092727
-367.6998626
-361.0157059
-470.0754761
-500.3327752
-493.2433401
-597.0223701
-642.2971232
-625.9801531
-675.5409519
-702.5576934
-689.6883335
-724.7699998
-742.1247802
-733.5071077
230.6733783
176.4781704
179.9288049
12.28567496
-41.51961937
-29.35276835
-195.1512564
-242.9065524
-227.2576165
-375.5714833
-415.7191725
-400.2716436
-520.6431983
-549.9914293
-534.4303065
-658.3954295
-692.9592968
-664.6796977
-720.0710835
-741.2799676
-719.8894386
-758.0531933
-770.568099
-755.7956406
222.2641421
150.4628571
158.8851995
-62.77150675
-128.9275864
-100.5277665
-303.6617689
-353.5483916
-318.0431853
-480.8755974
-516.9033066
-484.6240459
-611.5720449
-638.3286574
-611.6168754
-750.1558642
-768.0414711
-727.5590954
-783.9748525
-795.729894
-766.6258939
-804.3406687
-809.7902364
-789.4872518
219.3818977
106.9852934
119.3060019
-212.516481
-302.4869111
-248.1003053
-510.711789
-561.5520732
-497.7317338
-676.7137448
-703.3238648
-648.9444004
-760.8716554
-775.2749429
-735.8993148
-875.3824968
-863.7289241
-813.7352906
-863.9684445
-862.6845053
-828.0317825
-860.0065029
-857.1453824
-833.0825899
277.3418274
51.25148251
66.26302723
-527.0965068
-653.3994339
-539.5640522
-877.2413151
-913.747599
-811.4028194
-962.1774254
-967.3366658
-894.1237193
-965.5617411
-961.9764197
-911.6439775
-1023.565884
-973.7940715
-917.7170987
-953.773438
-934.5851403
-898.5783646
-917.6463786
-903.5964894
-880.5582583
560.6460342
255.370753
266.7439344
-1454.738815
-1425.34227
-1281.420384
-1326.572308
-1293.563033
-1209.305724
-1201.684133
-1173.847637
-1121.294728
-1168.976445
-1083.65649
-1030.164091
-1038.83188
-1000.700247
-969.1892074
-969.5371378
-944.6538817
-923.5366473
-3088.239489
-2897.141142
-2659.901912
-2166.027762
-2009.981396
-1874.001364
-1682.689457
-1603.105904
-1532.476469
-1413.711874
-1362.024786
-1319.659243
-1274.535032
-1163.730077
-1129.046515
-1099.261043
-1046.795399
-1027.130093
-1003.883756
-970.1187375
-957.6599108
-4234.225695
-3934.567802
-3898.617857
-2544.574739
-2325.780875
-2286.706489
-1877.892614
-1772.85396
-1748.703437
-1529.660779
-1464.847533
-1449.456501
-1306.659834
-1193.447055
-1185.935956
-1119.929217
-1060.412715
-1058.230311
-1011.970624
-973.5850034
-972.6161249
-3772.795686
-3571.903985
-3662.295331
-2410.378555
-2228.957236
-2286.270187
-1836.780416
-1740.86412
-1764.474848
-1513.52056
-1451.68066
-1461.903702
-1259.744449
-1163.120011
-1185.60216
-1093.305329
-1036.319211
-1053.018205
-989.3464272
-951.7260054
-963.6703994
-2779.284472
-2679.960133
-2798.437803
-1967.898387
-1860.424106
-1967.47108
-1610.095473
-1544.063635
-1604.363629
-1380.939565
-1334.41767
-1371.925885
-1146.390851
-1080.336233
-1127.362569
-1024.374753
-977.7872558
-1010.887881
-938.4236186
-906.1929606
-929.9026901
-1782.358245
-1761.317111
-1868.400552
-1433.567059
-1395.115352
-1512.774927
-1292.418434
-1262.096197
-1336.035241
-1178.743527
-1152.335094
-1201.393795
-1024.700514
-938.4781415
-875.1050336
835.3240028
-3838.312924
-3750.771304
-4055.65138
-3742.894837
-3812.388329
-4053.43572
-2916.128102
-3032.846857
-3165.014866
-1656.431594
-1663.369815
-1581.616063
-6049.348878
-6039.410722
-6202.198
-5801.969921
-5679.655548
-5713.105734
-5104.724449
-5145.936765
-5236.40236
-6182.21019
-6037.491569
-6035.117579
-5743.602909
-5771.11434
-5900.340621
-3482.738939
-3571.34504
-3641.730434
-5089.179366
-5008.638374
-5051.787309
-1502.558711
-1988.333723
-2095.176012
-2147.397101
-4027.79912
-3821.324975
-3490.388108
-2679.455537
-2639.901489
-2721.53992
-2174.858577
-2247.518004
-2272.644954
-3369.55293
-3308.3661
-3394.922994
-2803.363597
-2885.846928
-2932.354241
1444.189591
1594.761867
1279.07877
912.4437416
483.9235816
483.4593722
-5066.072818
-4799.716236
-4384.428423
-5452.788522
-5486.721745
-5589.321353
-5463.451339
-5371.855913
-5406.102614
-5944.366597
-5955.475638
-6090.219757
-6021.807686
-5901.087078
-5914.371882
-3956.269166
-3905.97325
-3867.273021
-2926.419223
-2904.253261
-2952.795
-2633.591355
-2676.68312
-2695.29742
-5957.437589
-5922.050074
-6127.18786
-6166.1933
-6007.40978
-5973.825172
-4705.299256
-4752.650817
-4826.664421
-4664.368607
-4600.764507
-4648.991902
-2559.395645
-2544.305449
-2586.640879
-2414.761043
-2167.821221
-2223.745138
-2033.808841
-2020.315747
-2092.770242
-1687.110235
-1710.746968
-1578.1199
-1610.084506
-1937.129918
-1960.731198
-3149.896807
-2807.79239
-2860.418338
-1973.468554
-1992.692321
-1909.504184
-4410.217459
-4621.865991
-4366.619767
-3944.516541
-3571.067024
-3543.767253
274.5286404
270.7267343
181.8161775
180.057584
227.2145802
84.29723802
131.8935139
131.7984877
131.093044
131.8044281
83.13030289
-20.48120056
-15.11483044
33.8035228
-113.0547335
-64.94507274
-71.02760949
-58.81328064
-61.02257829
-109.6146311
-215.7456899
-207.4961374
-161.445333
-295.844662
-253.1208095
-261.9847871
-240.7939985
-245.7841858
-288.7853313
-387.1725808
-376.0756518
-337.6006986
-447.1274978
-413.2272525
-424.6493587
-397.1369747
-403.6716374
-438.2462192
-520.8112279
-509.1800855
-479.7076488
-562.5094761
-537.3003872
-548.5952974
-521.7435627
-528.0242646
-554.0635018
285.0896117
283.6899293
166.2164242
171.9736374
228.8237737
56.22998207
114.2778578
104.4840652
127.1756849
121.9976492
67.24906225
-76.76267983
-57.20894511
-1.14876316
-164.3243641
-111.7741813
-133.5068815
-80.75285093
-94.29835574
-145.4545883
-288.0206094
-263.0836716
-214.8625986
-352.9702896
-309.176421
-334.1303125
-273.5026703
-289.0330697
-333.1561682
-457.1768542
-434.3545959
-394.7508802
-506.631877
-471.8539393
-493.6480642
-437.9566179
-453.5182251
-488.3927753
-588.0189055
-567.7048708
-538.6236219
-618.252708
-594.2334298
-614.1006412
-561.7478734
-576.8691679
-601.2323976
297.7769588
292.7585755
130.5245485
141.1218628
220.0178623
-16.68367173
61.29492666
42.17310735
92.40194903
77.83501646
6.454032153
-201.8932708
-162.4876804
-91.66036552
-289.137468
-228.437098
-271.8867391
-159.8795292
-191.3380466
-249.6056187
-442.8062253
-394.9691499
-344.5886557
-482.1471939
-440.6680689
-488.0186882
-364.1334406
-399.5221225
-441.8410764
-598.5843552
-554.4076394
-519.9331595
-616.3962237
-586.6159812
-628.3358521
-519.6946124
-550.4772242
-582.0933004
-700.0185867
-667.6459825
-643.5717446
-707.9013451
-689.0796275
-718.9736999
-636.6864785
-661.7925243
-682.4321237
346.7314807
329.1454813
80.2694369
94.44253952
226.4041542
-157.182533
-34.84884041
-70.14542314
20.15061676
-5.312593345
-112.7360079
-446.0200713
-367.6913151
-268.9417646
-525.1703622
-452.9448217
-536.0065193
-322.6505769
-382.3086091
-451.4454126
-718.607238
-635.5105142
-585.1536092
-712.4216521
-677.722349
-757.1942879
-542.3214358
-605.495524
-643.7839465
-825.5344416
-761.9291989
-740.0872529
-794.835861
-779.8554118
-838.7959963
-675.0750571
-725.3791934
-744.4039699
-863.4091636
-817.8722103
-807.3347288
-834.4016819
-826.791439
-868.2386784
-751.9090374
-787.9337637
-799.0853498
574.0926806
486.684795
-137.0080242
28.03851536
314.8718134
-479.2920403
-246.0732378
-367.3798576
-113.749805
-169.4711577
-365.7115999
-974.998533
-796.1576626
-661.3574664
-958.4467789
-892.572698
-1061.455384
-633.1758283
-750.2573774
-823.6395062
-1149.170609
-1025.930558
-1000.628986
-1046.63022
-1039.601337
-1149.295788
-843.6319801
-937.539327
-953.0289142
-1124.90611
-1043.921398
-1046.466353
-1031.741507
-1038.922645
-1111.966529
-901.8861984
-968.6493245
-967.6967762
-1067.995203
-1014.495129
-1023.463413
-995.3916518
-1005.07739
-1052.902429
-911.9931052
-957.763962
-953.0329993
143.3422081
222.8878236
612.3876123
-476.6541645
-152.9876966
-320.4039188
14.91293804
-51.50574631
-325.8128975
-1727.846226
-1576.580684
-1634.456635
-1469.577783
-1521.443015
-1647.666279
-1268.203422
-1393.316763
-1360.172314
-1456.38924
-1376.213608
-1421.201318
-1295.489434
-1334.422368
-1404.78786
-1187.152721
-1261.620487
-1230.956653
-1273.889623
-1224.98461
-1259.096361
-1162.770443
-1192.91791
-1236.353489
-1100.497626
-1147.396837
-1122.374374
-3316.677733
-3117.326808
-3345.958954
-2752.129518
-2922.874045
-3099.466815
-2219.775581
-2127.381879
-2309.658923
-1855.741103
-1978.94887
-2056.007181
-1769.01264
-1881.862313
-1774.376225
-1710.580779
-1662.253856
-1751.69248
-1514.977743
-1584.167524
-1626.391456
-1471.256233
-1532.989737
-1470.344083
-1425.714969
-1396.547679
-1452.863171
-1297.545058
-1345.04079
-1371.003274
-1277.114263
-1314.135864
-1269.815202
-3939.169327
-3947.308609
-4238.429958
-3446.909986
-3684.618247
-3685.984837
-3628.470522
-3669.283432
-3438.449922
-2323.237879
-2337.324378
-2554.073818
-2012.728059
-2159.980306
-2150.779251
-2113.312028
-2147.917017
-2001.035202
-1776.777043
-1783.555669
-1889.177594
-1610.549277
-1691.685765
-1685.925802
-1660.162134
-1681.725063
-1601.403492
-1469.993229
-1472.446986
-1537.990117
-1357.473341
-1412.660853
-1411.164169
-1391.972904
-1405.705021
-1351.198122
-3369.092626
-3473.567945
-3659.432253
-3133.329133
-3298.9179
-3207.762024
-3461.467909
-3385.102852
-3216.922748
-2066.584429
-2154.711436