/*--------------------------------*- C++ -*----------------------------------*\
| =========                 |                                                 |
| \\      /  F ield         | OpenFOAM: The Open Source CFD Toolbox           |
|  \\    /   O peration     | Version:  v2012                                 |
|   \\  /    A nd           | Website:  www.openfoam.com                      |
|    \\/     M anipulation  |                                                 |
\*---------------------------------------------------------------------------*/
FoamFile
{
    version     2.0;
    format      ascii;
    class       volScalarField;
    location    "2.37";
    object      k;
}
// * * * * * * * * * * * * * * * * * * * * * * * * * * * * * * * * * * * * * //

dimensions      [0 2 -2 0 0 0 0];


internalField   nonuniform List<scalar> 
3019
(
43.89413122
54.2042069
47.2426549
42.62853358
39.77281794
38.08087022
36.89935538
36.17718003
35.48067
35.18157173
35.03814336
34.98117616
54.70328318
54.18473412
47.37770839
42.72073663
39.88355024
38.18512963
36.95026496
36.18575563
35.43796363
35.1102586
34.94830298
34.88353295
55.43000976
53.49530269
47.06868001
42.63333205
39.90174495
38.25034202
36.97928932
36.1828636
35.39578931
35.04474662
34.86692798
34.79551372
53.72457118
51.96203112
46.33311494
42.36251654
39.85571993
38.2683011
36.98319996
36.16108809
35.34615093
34.97806558
34.78873245
34.71180671
52.67706689
50.01779245
45.29307838
41.98097027
39.79213782
38.25203814
36.95963091
36.11958701
35.28810755
34.90886977
34.70984688
34.6283502
51.28653174
48.17943663
44.34658606
41.63493136
39.67760855
38.18349063
36.89409957
36.05252619
35.21488735
34.82938826
34.62569631
34.54078003
49.90061788
46.9094231
43.76021319
41.35929921
39.50553305
38.06606236
36.79822448
35.96435073
35.12861309
34.74099015
34.53463012
34.44773542
48.68593731
46.18764811
43.32020905
41.06675074
39.30289
37.9167062
36.67914149
35.85786377
35.02904129
34.64192061
34.43445055
34.34628481
47.56733282
45.52855323
42.90289446
40.77269208
39.08555987
37.74747563
36.54269134
35.73635893
34.91872083
34.53453125
34.3271631
34.23830719
46.52531923
44.91187314
42.5084328
40.48515818
38.86285649
37.5668368
36.39359626
35.6031646
34.79784519
34.41728257
34.21048811
34.12130143
45.54933423
44.33069243
42.13374439
40.2074926
38.64031052
37.38055483
36.23590129
35.46124493
34.67039714
34.29480267
34.08908466
33.99983534
44.637365
43.77941607
41.7759025
39.94021789
38.42104524
37.19235022
36.07287841
35.31314159
34.53519342
34.1638361
33.95901667
33.86978307
43.77526552
43.25334296
41.43266031
39.68270792
38.20662733
37.00462515
35.90698953
35.16085248
34.39767344
34.03171753
33.82806723
33.73894017
42.95209289
42.74846567
41.10208071
39.43403782
37.99764538
36.81883477
35.73997865
35.00602283
34.25370174
33.89130053
33.68828878
33.59918621
42.15857695
42.26157255
40.78250833
39.19333311
37.79420781
36.63584169
35.57308923
34.84980851
34.1117796
33.75470189
33.55265361
33.46360168
41.3919139
41.78998407
40.47244697
38.959747
37.59614538
36.45609629
35.4071562
34.6932379
33.96240166
33.60757952
33.40574097
33.31657783
40.64886624
41.33162184
40.17060242
38.73250805
37.40318363
36.27982473
35.24275977
34.53684288
33.82067879
33.47115631
33.27002768
33.18078119
39.92667261
40.8846256
39.87581713
38.51087959
37.21497215
36.10708821
35.08028708
34.38136552
33.6668826
33.31799424
33.11666867
33.02713658
39.22449477
40.44768998
39.58710474
38.29419272
37.03114082
35.9378617
34.92000888
34.22688167
33.53002765
33.1866068
32.98573132
32.89598085
38.54202623
40.01954133
39.30367356
38.08186969
36.85132791
35.77203607
34.76211403
34.07416101
33.36990235
33.02551591
32.8241675
32.73395823
37.87820108
39.59963819
39.02485878
37.87338554
36.67516906
35.60944955
34.6068079
33.9228507
33.24455062
32.90548634
32.70426133
32.613743
37.23305791
39.18771609
38.75017343
37.66832231
36.50237023
35.45003347
34.45455504
33.77443495
33.07140273
32.73113594
32.52935837
32.43821313
36.60757447
38.7845149
38.47929051
37.46633241
36.33265697
35.29359577
34.30668058
33.62897548
32.96938532
32.6314402
32.42938505
32.33787653
36.00677563
38.39272931
38.21361377
37.26779032
36.16612482
35.14013985
34.1674234
33.49233412
32.74629928
32.40754242
32.20457509
32.11213757
40.29843491
42.96476843
55.64631447
49.48765783
40.54258631
54.19292929
56.11413766
55.67136625
51.94271393
49.90799803
58.11272898
45.93620514
45.2273804
49.66263144
58.40968759
58.20766097
39.40456285
42.07648463
39.44791607
39.48011094
53.67588392
42.83987533
55.901327
55.4327124
56.02200883
55.37731464
54.17964389
39.66205419
58.54445061
58.47146252
50.32184978
50.21151043
73.23528794
40.52612862
40.81684586
48.03764061
56.88685847
45.23050572
39.4147559
59.66587215
73.24090773
45.57349589
56.23186036
80.13880332
40.7252808
43.74195096
39.65886541
40.29721169
72.13890174
76.2830901
40.07100218
72.86587055
63.72391388
54.83023984
48.77749977
39.57174135
43.72256702
40.69246882
51.81654451
42.10047757
39.54324275
44.34470129
76.72461507
79.93220044
81.70315933
69.26715702
78.61395161
39.74573481
39.66865544
69.97766005
62.830953
71.28799659
66.40020224
76.50851484
76.12684668
74.49718451
48.23338935
67.06250855
60.37860693
74.71552489
76.69329673
52.27593611
57.23514578
62.62339254
78.71396797
65.85774862
49.54333501
52.60215332
71.59556198
52.86077575
56.48276198
45.91006751
49.42600407
73.38589797
47.20658876
43.49626609
42.54239126
40.31058891
39.73153941
38.38898573
46.57720667
56.54918616
55.78170944
54.25452516
48.92060443
48.83153176
47.3644939
43.66204021
43.58329806
42.71125421
40.45459326
40.35397216
39.86750246
38.51077482
38.42512016
55.3203364
58.20683631
58.52404082
53.75887443
48.67351484
48.92131991
47.17818547
43.60280799
43.67676462
42.66928729
40.46878545
40.46069752
39.90484325
38.59015249
38.53466272
49.05679506
48.43165113
54.02209926
53.86352706
55.10973644
52.40154992
47.88824796
48.53595224
46.56299621
43.30687067
43.55356783
42.44539558
40.40173525
40.46114377
39.87191693
38.6166722
38.59934759
50.93830716
49.57908097
52.96065667
51.80234622
53.38038041
50.51597042
46.66022894
47.60393413
45.55803999
42.82398513
43.20035667
42.08190257
40.28404782
40.3728302
39.80804483
38.60551459
38.61627096
51.12033691
51.17261184
51.65188842
49.69799349
51.25918487
48.59997692
45.44807247
46.33971436
44.55686134
42.32168421
42.68994629
41.70664359
40.15864875
40.25567181
39.71302431
38.5443883
38.59645346
50.09394085
50.91723465
50.23579925
48.08073026
49.22991964
47.15939567
44.59949634
45.19117648
43.87386114
41.9815116
42.22186186
41.43057444
39.97763385
40.11815484
39.55224415
38.42716302
38.51927236
48.8422286
49.78515332
48.97856284
47.15847392
47.78894801
46.3601273
44.09741397
44.46804733
43.42824458
41.65959007
41.90173164
41.14048311
39.7618726
39.92601637
39.35540737
38.27421313
38.39155719
47.62869262
48.53159059
47.83941751
46.39514209
46.96275001
45.68903139
43.62932179
43.97761771
43.00498863
41.33841205
41.5787741
40.84581187
39.5304362
39.70495878
39.14067837
38.09941733
38.23212045
46.48754491
47.33694416
46.77916255
45.68084887
46.21220938
45.06247207
43.1886307
43.51675821
42.60506285
41.02656093
41.25938466
40.55618399
39.29411947
39.47151789
38.91868401
37.91213622
38.05349934
45.4104683
46.2125593
45.7874071
45.00945096
45.50923467
44.47298253
42.7710754
43.08223118
42.22573673
40.72711272
40.95050817
40.275925
39.05906239
39.23507326
38.69572886
37.71879005
37.86418213
44.38517681
45.14986054
44.86008549
44.37464092
44.8475626
43.91469793
42.37321358
42.66988199
41.86391226
40.43997974
40.65421807
40.00608665
38.82851516
39.00092619
38.4754463
37.52371066
37.67007367
43.40635963
44.13616133
43.98682306
43.77065766
44.22096835
43.38273203
41.99240019
42.27651256
41.51721311
40.16402154
40.36999708
39.7462206
38.60392248
38.77178418
38.259734
37.3295927
37.47503246
42.46953275
43.16842277
43.1546876
43.1925727
43.62388014
42.8728807
41.62628702
41.8995839
41.18363103
39.89797886
40.09663154
39.4954243
38.38566754
38.54876654
38.04936846
37.13798668
37.28143027
41.5674118
42.2411614
42.35437532
42.63640661
43.05163217
42.38176737
41.27285299
41.53681789
40.86145469
39.64075779
39.83289106
39.25281013
38.17366816
38.33209428
37.84455402
36.94974571
37.09060475
40.69463336
41.34648326
41.58113723
42.09887026
42.50037501
41.90657676
40.93031726
41.1862645
40.5491515
39.39135553
39.57771448
39.01752486
37.96760845
38.12161392
37.64517538
36.76526991
36.90327822
39.85076647
40.48081367
40.83260763
41.57760777
41.96710537
41.44508214
40.59712912
40.84619424
40.2453603
39.14884788
39.33011369
38.78876495
37.76707664
37.91697206
37.45096518
36.58469935
36.71976736
39.03543947
39.64437348
40.10531153
41.07017423
41.44949085
40.9953881
40.27197558
40.51513866
39.94890854
38.9124058
39.08920358
38.56579873
37.57164082
37.71776077
37.2615999
36.40803702
36.54018153
38.24589471
38.83573893
39.39809684
40.5755667
40.94536523
40.55602764
39.95371145
40.19180702
39.65875808
38.68125822
38.85415417
38.34793306
37.38084365
37.52352746
37.07670706
36.23518101
36.36448172
37.48067821
38.05241981
38.71078629
40.09310188
40.45372599
40.1257981
39.64143554
39.8751156
39.37407543
38.45475315
38.62422424
38.13457187
37.19426153
37.33382281
36.89592548
36.06596785
36.1925516
36.73903309
37.29333756
38.04212299
39.62231596
39.97442779
39.70384661
39.33440179
39.56421359
39.09415692
38.23230596
38.39878498
37.92517004
37.01147534
37.14822765
36.71888218
35.90017975
36.02421485
36.02044122
36.5580918
37.39146748
39.16112292
39.50620492
39.28981666
39.03206998
39.25840009
38.8184769
38.01345279
38.17727567
37.71928863
36.83213893
36.9663338
36.54527127
35.73768936
35.85926261
35.32343073
35.84697626
36.7576599
38.70769665
39.04732559
38.8838663
38.73395154
38.95718439
38.54657417
37.79778976
37.95925645
37.51654227
36.65593442
36.78780879
36.3748045
35.57829951
35.69756437
34.64371067
35.16110064
36.13660566
38.25934514
38.59708963
38.48304562
38.43875648
38.66027342
38.27742773
37.58473626
37.74437279
37.31642616
36.48250275
36.61235322
36.20716003
35.42178914
35.53891841
33.93795855
34.50515575
35.48809318
37.78591424
38.15976509
38.05955304
38.12652903
38.36956795
37.99291095
37.36056035
37.53315376
37.10631405
36.30161564
36.44009671
36.03265838
35.25960375
35.38336891
39.98135122
39.33359907
39.36941971
48.0424072
47.12807621
42.08811208
55.55263161
58.0047542
58.14397962
48.40799877
40.98114885
40.20929205
39.52239049
40.6962628
57.40376232
57.22126069
52.26266516
55.6852979
58.2812287
58.24698169
58.18582362
58.27154487
55.69261187
50.61585343
49.15518526
58.03651366
56.38012834
57.03047819
56.11678189
58.06686946
39.80343636
39.55233373
41.96913113
42.55820742
46.72597061
44.42292939
40.83430454
41.35725872
57.45206675
56.78307666
47.46741152
58.34599578
57.96257405
58.11298026
57.22435575
57.81294624
58.27458582
40.09667942
39.72679267
39.28730212
45.91123374
47.59961617
62.85478864
41.36480877
39.4835012
39.42831739
39.57447158
41.35886535
40.57796055
44.21011537
43.20188951
39.4489022
53.13843941
48.67831014
49.5461877
47.74410992
52.52865937
39.97567097
40.34582865
43.62332227
43.13694001
44.36096286
40.00906156
39.7881425
57.48407231
57.93415407
55.28593958
55.69850018
57.30233418
56.95698868
58.15520361
57.56830626
55.8977021
55.0458006
51.85409009
52.47097908
50.38277179
51.12728621
54.60929493
41.28100631
46.16614123
45.19659831
58.54536587
58.34267684
58.38467776
58.20962623
58.28868956
58.51219477
51.69338103
57.11149427
56.81875126
49.83765075
43.75681527
44.14506533
41.20061628
48.49445355
45.37154555
40.40059641
40.22568259
41.06928693
40.77954523
40.72908224
47.27138145
43.27529123
43.78256813
51.70736117
42.26500589
43.73204958
40.51957103
41.22320364
47.68302074
39.34233681
39.51600758
39.42467991
41.41793189
47.14586919
45.03774529
54.81568338
50.08328159
42.36514481
39.84753989
41.69436599
41.0980751
43.54333081
42.40768376
39.97731458
43.51503384
42.27910914
39.75381846
52.28027394
52.18072251
54.57244988
48.66240124
50.36511292
50.47696717
39.36018136
39.32591305
39.74553317
42.45797577
39.77260663
40.085758
39.44817176
39.59179037
41.47000074
39.63467985
39.60429106
39.65156522
43.16037173
40.87948606
40.68060938
40.34915003
42.760957
41.56884739
42.2498213
39.70210867
40.13491584
40.02902323
40.63518637
40.33806438
39.68216189
38.04891962
37.32028849
36.86821126
36.49179465
36.17310021
35.88469072
44.78298022
49.73599109
48.92152595
54.2407837
52.39899353
52.33982881
47.32449085
45.92923025
45.85851229
42.6409351
41.80507538
41.77374474
39.82079806
39.30376575
39.26364335
38.16286838
37.4088507
37.36791854
36.92694947
36.52516544
36.5090992
36.18371587
35.87429837
35.88160218
55.05373999
57.54707647
57.52593823
54.0768598
52.31421467
52.38870485
47.31068677
45.95051646
45.98762073
42.72564656
41.87442407
41.87220483
39.89673685
39.38893409
39.37586447
38.23836674
37.46721693
37.4406345
36.96788242
36.54560597
36.53738787
36.18651244
35.85826791
35.86898971
54.88786046
56.47728419
56.99571866
53.17633399
51.56104549
51.83580641
46.93095883
45.64532454
45.75577415
42.58305721
41.78156238
41.81741399
39.89650336
39.41127392
39.41150854
38.26776768
37.49423895
37.48335366
36.98521068
36.55078248
36.5514529
36.17625468
35.8327461
35.84841956
53.46902794
54.39984231
54.8963532
51.49719222
50.0575867
50.47784476
46.0845123
44.98139182
45.18027075
42.27528486
41.55217963
41.61820741
39.83861848
39.39255819
39.39942308
38.26056798
37.48848093
37.49327726
36.97689077
36.53649257
36.54624097
36.14856563
35.79361451
35.81594221
52.36455688
52.56004488
53.00821629
49.52687761
48.29409722
48.73130528
45.03454293
44.12920349
44.33965986
41.88259922
41.27153843
41.34196302
39.77091549
39.34678759
39.3644529
38.20675467
37.44786111
37.47516688
36.93117089
36.48579521
36.51416061
36.09252905
35.73613215
35.76826517
50.93209029
50.76943316
51.21873555
47.79587004
46.78241807
47.11279546
44.16043091
43.42467665
43.57333541
41.56843668
41.03653412
41.09375701
39.63869015
39.23083471
39.26549462
38.09943456
37.36116317
37.4091682
36.849514
36.40704213
36.44904129
36.01389536
35.65939881
35.70057759
49.58038304
49.22366251
49.5525283
46.71619131
45.87897852
46.04184601
43.64838337
42.99899482
43.09902404
41.28699938
40.78561765
40.85075298
39.45697039
39.06617068
39.11053536
37.95657529
37.24270586
37.30526279
36.74121219
36.30466655
36.35803824
35.91552252
35.56562107
35.61516873
48.39859148
48.12251449
48.38612928
46.01842932
45.26889382
45.41734344
43.21363998
42.6062163
42.70299511
40.99296341
40.51733105
40.58510168
39.24948548
38.87456216
38.92416809
37.79125323
37.1019552
37.17461987
36.61278455
36.18346003
36.24576262
35.80056394
35.45671262
35.51362141
47.30001808
47.12809624
47.36856406
45.37069947
44.69906382
44.83814465
42.80223528
42.23067634
42.32277031
40.69999709
40.24593687
40.31359306
39.03011761
38.66915389
38.72130547
37.61276762
36.94616472
37.02556528
36.4694639
36.04803039
36.11699136
35.67237406
35.33531812
35.39820638
46.27540918
46.21188704
46.43464505
44.76348946
44.16303026
44.29416394
42.41303759
41.87401639
41.9614952
40.4147646
39.97888116
40.0449999
38.80705049
38.45798776
38.511009
37.42744083
36.78074865
36.86438662
36.31560675
35.90240181
35.97608256
35.53413286
35.20389509
35.27156602
45.31573721
45.35619048
45.56540014
44.19027209
43.65574964
43.78011561
42.04280534
41.53431
41.61778183
40.13971765
39.71956937
39.78359013
38.58510622
38.24608419
38.29893851
37.23942227
36.60966449
36.69571136
36.15488731
35.74973891
35.8266391
35.38857414
35.06508862
35.13618421
44.41770531
44.54779718
44.74578429
43.64570802
43.17297101
43.29157556
41.6888061
41.20921177
41.2892256
39.87496229
39.46895966
39.53079493
38.3669525
38.03646067
38.08854517
37.05139606
36.43583446
36.52294738
35.99017057
35.59252316
35.67146703
35.23795292
34.92065079
34.99438978
43.56615716
43.78054572
43.9688888
43.12527912
42.71100211
42.8247288
41.34890124
40.89681549
40.97381679
39.61975037
39.22685353
39.28661419
38.15386453
37.83075647
37.88176582
36.86501255
36.26130115
36.3485595
35.82353723
35.43264178
35.5127438
35.08407148
34.77271175
34.8479633
42.75113597
43.0488413
43.22833297
42.62517355
42.26662997
42.37622147
41.02121941
40.5954976
40.66986489
39.37315074
38.99263483
39.05048496
37.94627108
37.6297022
37.67951015
36.68126132
36.08744231
36.17422064
35.65646023
35.27151984
35.35210839
34.92830508
34.62201041
34.69855282
41.96444908
42.35120445
42.52289936
42.14233378
41.83724442
41.94331381
40.70415869
40.30387936
40.37594614
39.1343035
38.76563681
38.82174778
37.74420009
37.43354948
37.48212846
36.50067787
35.91515957
36.00106366
35.48996071
35.11019307
35.19078967
34.77173316
34.47044976
34.54718246
41.20409305
41.67969418
41.84545214
41.6742274
41.42063106
41.52368802
40.39626601
40.02069368
40.09076062
38.90237421
38.54516432
38.5997055
37.54744153
37.24225339
37.28962934
36.3235229
35.74502006
35.8297972
35.32473519
34.94942666
35.02967757
34.61510985
34.31764486
34.39502385
40.46640082
41.02863253
41.18981315
41.21886755
41.01500122
41.11546909
40.09628723
39.74483049
39.81316753
38.6766038
38.3305662
38.38370098
37.35570087
37.0556441
37.10187151
36.14990254
35.57737232
35.66087338
35.16125597
34.78975173
34.86940742
34.45907567
34.16588633
34.24244282
39.74915229
40.3945684
40.55150868
40.77447955
40.6187972
40.71704372
39.80309865
39.4752786
39.54212933
38.45626526
38.12120226
38.1730893
37.16861508
36.87345727
36.91860872
35.9798088
35.4123817
35.49454726
34.99983004
34.63157304
34.71046321
34.30398635
34.01327345
34.09045867
39.05203414
39.7761078
39.92935818
40.3398826
40.23084455
40.32711431
39.51578206
39.21119844
39.27674793
38.24072651
37.91650583
37.96727289
36.98582725
36.69541243
36.73955348
35.81314835
35.25017521
35.33095959
34.84065406
34.47513721
34.55316975
34.15027138
33.8635167
33.9388348
38.37417726
39.17201764
39.32176634
39.91380039
39.85015424
39.94468951
39.23356169
38.95186618
39.01628836
38.02940955
37.71594674
37.76572524
36.8069605
36.52118807
36.56440397
35.64975273
35.0908313
35.17026235
34.68377998
34.32059629
34.39783191
33.997936
33.71205688
33.78883227
37.71457386
38.58203412
38.72834761
39.49588835
39.4760639
39.56899547
38.95581796
38.69669128
38.76012032
37.82181614
37.51906041
37.56795832
36.63166743
36.35048415
36.39284273
35.48955985
34.93413299
35.01259477
34.52907975
34.16780522
34.24465219
33.84717993
33.56575334
33.63947453
37.07259931
38.00613592
38.14970439
39.08589817
39.10804253
39.19959534
38.6820857
38.44522188
38.5077688
37.61754781
37.32547097
37.37357897
36.45966364
36.18305881
36.2246221
35.33237434
34.77939508
34.85814198
34.37588327
34.0162118
34.0942214
33.69712285
33.41444
33.49311045
36.44603941
37.44216738
37.58630503
38.68326377
38.74519176
38.83621024
38.41184111
38.19699133
38.25888635
37.41623328
37.13482952
37.18225135
36.29067204
36.01866308
36.05949616
35.17794999
34.62411168
34.70805251
34.22177928
33.86343801
33.94775967
33.54590009
33.26973565
33.3484369
35.82707773
36.88216482
37.04301023
38.28024452
38.38141542
38.4821007
38.14123955
37.94881809
38.01449739
37.21595596
36.94547538
36.99423806
36.12352768
35.8562394
35.89754082
35.01807299
34.45735768
34.56735461
34.05629299
33.69912217
33.80953547
33.38237312
33.10057181
33.21343657
55.60730007
56.54367277
56.57372204
48.94592251
44.82915826
45.26646098
39.47807631
39.31363516
41.30157135
56.57894998
56.59592059
55.67655428
57.73079468
57.97165946
53.3125652
52.97029478
49.03540526
40.79634426
40.37605339
39.42177889
40.43435765
40.59516096
39.44722716
42.07037955
41.12130723
50.81563985
54.12927543
53.78892614
40.39492968
40.40996189
45.81278364
45.69062711
47.07536349
43.42026293
44.48577865
44.58224162
41.70637622
41.65034329
42.48196501
40.25823273
40.90989719
40.96728053
39.22220934
39.18182181
39.68511976
38.35359203
38.74008919
38.77675613
51.17948012
50.50350594
45.72189018
56.32562961
54.08074302
54.53542398
53.08519025
53.59404441
55.99616792
52.4443239
52.41320043
54.23818459
48.9216613
50.64403583
50.65527856
50.54902939
50.61688575
48.90077338
45.97807814
45.96216613
47.34683028
43.66213973
44.73909716
44.75256065
44.65354582
44.69580477
43.60089249
41.86904212
41.83507273
42.69402189
40.41646463
41.08022869
41.11775376
41.01673275
41.06598343
40.40515614
39.3518152
39.32744512
39.83494454
38.48705459
38.88170159
38.90301822
38.81704818
38.85111934
38.45784524
57.43490216
57.5214873
55.25894746
58.38132923
58.34831305
58.47965354
52.054888
52.19937159
53.958209
48.77783228
50.45406701
50.32254448
50.62191397
50.54921491
48.85123867
45.84164411
45.90217464
47.25835292
43.6351881
44.70067288
44.65575266
44.7546316
44.75168353
43.68330976
41.84226441
41.87267546
42.6999477
40.4844861
41.13581242
41.11210901
41.12075978
41.13020021
40.47411671
39.41238155
39.40017956
39.90805577
38.57183801
38.95942571
38.97608029
38.92764526
38.94426555
38.55492683
48.76962932
48.65440541
55.41345062
55.9448082
54.4047664
54.316117
55.65168855
55.16243814
56.55978165
56.12056318
54.73404337
50.87436128
51.23798655
52.80955167
48.1448163
49.65249117
49.34006476
50.15636221
49.92701786
48.36602476
45.36075579
45.51344795
46.76635934
43.403289
44.39671334
44.27516577
44.58975519
44.50268133
43.48640787
41.67985779
41.7350863
42.51961724
40.42715106
41.0407402
41.00169519
41.09676366
41.07299131
40.44745193
39.40476547
39.40900084
39.88601034
38.6132515
38.99087003
38.99157276
38.98122183
38.98732028
38.60829122
50.58424623
50.10885005
53.46162459
53.92292339
53.22076034
52.34210629
53.60832889
53.06819891
54.65659222
54.13754946
52.87105754
49.17688061
49.62178693
51.01230329
46.98251143
48.25434225
47.87044877
48.99742406
48.63285965
47.29954478
44.55533205
44.77112089
45.82392773
42.95723037
43.8179359
43.6462604
44.13950637
43.98415496
43.08538842
41.41435998
41.48576105
42.18195213
40.31156555
40.86387038
40.81726086
40.95778291
40.91092291
40.34229099
39.37639927
39.3849846
39.82239868
38.61073359
38.98359412
38.97645888
38.9907546
38.98854688
38.61476943
51.22133362
51.2535941
51.66714766
52.10819137
52.02228721
50.19776849
51.41254979
50.87176787
52.51931068
51.96471692
50.72121942
47.47794455
47.87395886
49.0517288
45.72808958
46.75693993
46.42115173
47.48842229
47.1148349
46.02711424
43.74204045
43.92861212
44.78757047
42.43533936
43.14641711
42.9988686
43.47411608
43.30612326
42.55914048
41.14858711
41.20654479
41.78997947
40.19499149
40.67912401
40.63598001
40.7686101
40.72252014
40.22680939
39.2967328
39.3240266
39.74435339
38.56562806
38.9316911
38.90766579
38.9665658
38.95150322
38.58339866
50.39015903
50.66962433
49.9262019
50.33319874
50.58022689
48.41535801
49.42761599
49.04005969
50.35264293
49.86939881
48.80136165
46.24256621
46.493031
47.45464681
44.76269502
45.59354616
45.38676086
46.11260719
45.8352432
44.96229235
43.19944796
43.30253376
44.00035046
42.0602676
42.65926828
42.57006358
42.86613138
42.75306438
42.13824181
40.91455222
40.97662518
41.50043479
40.02714476
40.48634455
40.43101997
40.58936362
40.53929146
40.07414078
39.15298137
39.19320105
39.59675736
38.4603792
38.81481341
38.77830545
38.87986108
38.84879287
38.4913671
49.15781861
49.47610196
48.65674571
48.93505187
49.27653438
47.35757302
48.1841421
47.95198971
48.69944267
48.42262098
47.56125423
45.56841917
45.72223958
46.53607305
44.21909467
44.94700866
44.8109132
45.22731943
45.08547967
44.34261415
42.80080337
42.89952253
43.53767326
41.74050045
42.30145302
42.21218171
42.48064142
42.39101499
41.82129617
40.6525426
40.71945833
41.21397302
39.81784887
40.25476682
40.1936617
40.37373807
40.31488256
39.87265194
38.97276043
39.02017201
39.40684397
38.31490737
38.65654541
38.61269956
38.73957443
38.69889719
38.35415523
47.92495246
48.22588088
47.61418242
47.86535715
48.11645166
46.58115383
47.28122399
47.06586454
47.72418041
47.50062263
46.77032771
44.97940332
45.12295216
45.85227531
43.74361206
44.4161916
44.28885051
44.67713088
44.54558581
43.85969143
42.41606136
42.51055365
43.10856393
41.41805362
41.94776778
41.86117006
42.12338126
42.03520218
41.49821256
40.38144523
40.44939876
40.91927263
39.5890753
40.00657217
39.94353555
40.1317975
40.06937565
39.64729959
38.77299367
38.82412946
39.19536584
38.14459453
38.47424297
38.42627416
38.56760378
38.5213767
38.1888756
46.76648558
47.04957386
46.6614419
46.8925003
47.0373765
45.8551473
46.44259926
46.24199111
46.85440518
46.64668035
46.03222571
44.42716324
44.56210429
45.21537972
43.29647457
43.91819203
43.7981724
44.16346234
44.03992536
43.40582183
42.05007356
42.13979011
42.70297903
41.1034079
41.60692825
41.52412771
41.7754718
41.69070861
41.18102417
40.1115807
40.17857918
40.62781133
39.35326103
39.75420184
39.69134186
39.88039098
39.81724239
39.41241999
38.56392273
38.6166704
38.97446529
37.95975566
38.27881573
38.22878199
38.37766531
38.32845284
38.0068898
45.67405627
45.94153045
45.77754745
45.99286197
46.02977378
45.17363124
45.65954046
45.47140422
46.04470294
45.85060562
45.34019298
43.9060743
44.03369102
44.61722016
42.87350226
43.44771995
43.33391435
43.67979394
43.5629943
42.97720339
41.70219904
41.7875984
42.31882039
40.80078623
41.28148534
41.20245856
41.44229745
41.36142273
40.87524816
39.84815649
39.91325934
40.34501677
39.11749317
39.50445022
39.44287259
39.62872686
39.56641352
39.17617816
38.35190025
38.40493734
38.7513246
37.76744151
38.07733451
38.02660017
38.17849219
38.12796925
37.81590479
44.63709669
44.89205264
44.94644287
45.14987597
45.08609868
44.53023748
44.9230631
44.74522286
45.28604548
45.10331341
44.68785921
43.41153287
43.53290024
44.05162004
42.47098286
43.00075743
42.8923073
43.22152027
43.11048719
42.56986597
41.37005896
41.45174084
41.95286536
40.51066424
40.97053317
40.89486027
41.12431045
41.04701316
40.58207558
39.59317039
39.65609197
40.07258023
38.88562605
39.26067705
39.20084977
39.38170536
39.32097
38.94310674
38.14085601
38.19337911
38.53013901
37.572488
37.87447239
37.8239072
37.97586271
37.92512751
37.62127079
43.64685061
43.8901114
44.15944005
44.35239365
44.20090877
43.9190505
44.22503515
44.0557823
44.5696674
44.39630043
44.06912911
42.93959995
43.05566409
43.51349958
42.08613907
42.5740711
42.47021992
42.78507225
42.67900719
42.18083074
41.05153367
41.12999065
41.60258557
40.23203492
40.67235353
40.59961314
40.81995493
40.745793
40.3006868
39.34687891
39.40765791
39.81030096
38.65948041
39.02414449
38.96617167
39.1414833
39.08258081
38.7154355
37.93305795
37.9846295
38.31317897
37.3779474
37.67313825
37.6232493
37.77349003
37.723215
37.42641465
42.70011853
42.93309815
43.41031368
43.59446052
43.35930067
43.33490463
43.55930683
43.39734058
43.88846147
43.72299995
43.47865109
42.48678497
42.59837375
42.99847886
41.71656149
42.1647443
42.06480912
42.36740735
42.2655939
41.80764602
40.74485788
40.82050708
41.26590272
39.96362861
40.38535113
40.31517888
40.52754554
40.45613062
40.0298378
39.10879656
39.16758749
39.55732918
38.43964194
38.79497399
38.73879284
38.90865495
38.85159022
38.49400527
37.7296214
37.78004414
38.10144645
37.18561489
37.47495825
37.42600467
37.57358934
37.52414642
37.23341331
41.7901382
42.01472611
42.69630812
42.871569
42.55189525
42.77359899
42.92055488
42.76451158
43.23698016
43.07804254
42.91199152
42.0502121
42.15797299
42.50295419
41.36012565
41.77022918
41.6736615
41.9657723
41.86758869
41.44810437
40.44855861
40.52173637
40.94101786
39.70429337
40.10817344
40.04027855
40.2456072
40.17661028
39.76833246
38.87827742
38.93523665
39.31274557
38.22609741
38.57283011
38.51834088
38.68304928
38.62773009
38.27890425
37.53101182
37.58020464
37.89524151
36.99647575
37.2807443
37.2328566
37.3773235
37.32889472
37.0434143
40.91009897
41.12741471
42.01256409
42.18113065
41.77201358
42.23164062
42.30479334
42.1542359
42.60989422
42.45666817
42.36546432
41.62746705
41.73197285
42.02401223
41.01501811
41.38839899
41.29470262
41.57785227
41.48277298
41.10032547
40.1613092
40.23234057
40.62637938
39.4530251
39.83965905
39.77375733
39.97290471
39.90603597
39.51513981
38.65462984
38.70993509
39.07570458
38.0185883
38.35723993
38.30430428
38.46425084
38.41055247
38.06992119
37.33730575
37.38527777
37.69452415
36.81103579
37.09084587
37.04405417
37.18524854
37.13790555
36.85702463
40.05893216
40.26893476
41.35206104
41.51534917
41.01767814
41.70655429
41.70988298
41.56432782
42.00490072
41.85688165
41.83633536
41.21654726
41.31825977
41.55927275
40.67962349
41.01740398
40.92616651
41.20164459
41.10922228
40.762638
39.88191361
39.95108412
40.32057587
39.2088741
39.57872393
39.51456299
39.7083038
39.64329923
39.26929154
38.43717254
38.49099073
38.8453837
37.81671389
38.14765176
38.09613194
38.25172744
38.19951401
37.86667667
37.14837884
37.19517263
37.49904991
36.62948258
36.90531658
36.85960939
36.99753563
36.95128724
36.67449223
39.23677598
39.43972724
40.70950071
40.86853006
40.28524257
41.19578315
41.13543367
40.99469302
41.42015737
41.27722892
41.32221835
40.81580861
40.91512166
41.1067955
40.35257735
40.65571307
40.56658483
40.83548529
40.74534004
40.43362559
39.60932566
39.67688857
40.02239384
38.97099192
39.32441034
39.26176298
39.45079851
39.38741779
39.02992047
38.22527009
38.27775973
38.6210372
37.62004763
37.94352755
37.89328773
38.04494258
37.99407638
37.66875195
36.96401765
37.00969557
37.30850815
36.45184924
36.72407784
36.67941814
36.81417188
36.76899152
36.49588566
38.44100785
38.63755588
40.08350297
40.23858964
39.57300523
40.69806625
40.57821899
40.4411466
40.85494291
40.71612002
40.82133541
40.42385237
40.52107703
40.66495727
40.03268278
40.30199817
40.21469159
40.47793511
40.38973717
40.11203979
39.34260386
39.40877736
39.73075222
38.73858504
39.0758369
39.01450423
39.19945976
39.1374825
38.79621118
38.01830598
38.06961342
38.40195472
37.42813074
37.74432186
37.69523314
37.84334542
37.79368804
37.47568785
36.78393778
36.82857146
37.12253043
36.27805154
36.54694949
36.50328637
36.63501531
36.59085393
36.32114086
37.6699037
37.86030027
39.47230987
39.62378695
38.88088526
40.21250466
40.03461784
39.90045459
40.30493579
40.16944429
40.3326827
40.03964316
40.13502573
40.23258139
39.71898731
39.9552274
39.8695173
40.12780246
40.04131807
39.79687659
39.08097857
39.14594589
39.44477523