/*--------------------------------*- C++ -*----------------------------------*\
| =========                 |                                                 |
| \\      /  F ield         | OpenFOAM: The Open Source CFD Toolbox           |
|  \\    /   O peration     | Version:  v2012                                 |
|   \\  /    A nd           | Website:  www.openfoam.com                      |
|    \\/     M anipulation  |                                                 |
\*---------------------------------------------------------------------------*/
FoamFile
{
    version     2.0;
    format      ascii;
    class       volScalarField;
    location    "1.93";
    object      nut;
}
// * * * * * * * * * * * * * * * * * * * * * * * * * * * * * * * * * * * * * //

dimensions      [0 2 -1 0 0 0 0];


internalField   nonuniform List<scalar> 
3019
(
1.155879568
1.155848159
1.155819087
1.155799437
1.156029053
1.156031633
1.15605707
1.156110805
1.156209685
1.156366645
1.156550142
1.094589053
1.15510936
1.155023331
1.154944332
1.15489735
1.155128509
1.155182536
1.155331682
1.155651786
1.156123177
1.156871404
1.157912654
1.017494839
1.154313189
1.154166247
1.154046339
1.153998208
1.154266648
1.154432816
1.154796168
1.155466763
1.156615621
1.106704725
0.9025844261
0.7916253968
1.1534939
1.15330575
1.153165895
1.153146293
1.15347906
1.153851357
1.154678592
1.155949807
1.073109816
0.8059501194
0.6428473022
0.5493868499
1.152659072
1.152425533
1.152285505
1.152340677
1.15281643
1.153523385
1.155075551
1.154988247
0.8114481048
0.5885434159
0.441068132
0.3463803892
1.151815437
1.151562688
1.151451296
1.151615434
1.152336933
1.153546357
1.156187012
0.9440834321
0.6460586392
0.4480794794
0.3008755347
0.1964896811
1.150966405
1.150704456
1.150654231
1.15104408
1.152031137
1.153975109
1.130112963
0.8076199724
0.5485670229
0.3648295353
0.2166866652
0.09963807017
1.15016287
1.149912171
1.149959589
1.15062244
1.151882067
1.154813896
1.027739457
0.7367967626
0.5080904758
0.3393669467
0.1992173396
0.08215457234
1.14942963
1.149201894
1.149383631
1.150379011
1.15205041
1.156031866
0.9697567309
0.7050510468
0.5113586712
0.3677822247
0.2563076152
0.1828128838
1.148829764
1.148644839
1.148985512
1.150354101
1.152528228
1.15753089
0.9441609051
0.7124838408
0.5402155594
0.4200370625
0.3429612811
0.3417871794
1.148372267
1.148246709
1.148788852
1.150609235
1.153288517
1.159266768
0.9389978428
0.7309287592
0.5784681014
0.4739766895
0.4170577736
0.4688913237
1.148116729
1.148054789
1.148788403
1.151043446
1.154272479
1.161053743
0.9472009942
0.7597173639
0.6187224946
0.5175240496
0.4525020456
0.4628999975
0.1627901441
0.3252370689
0.4559735823
0.4695362243
0.07985580334
0.3211117492
0.3165230593
0.1878295059
0.4016303527
0.4368803093
0.3321351248
0.3890647782
0.2066016054
0.2334408218
0.447494061
0.4721793757
0.4491113686
0.4892415667
0.1335178683
0.1739350507
0.4684703914
0.4522895372
0.07836160043
0.1037004568
0.06563070734
0.1528193683
0.0313743119
0.05956636971
0.2370970918
0.2634675486
0.2691288892
0.2050370486
0.1898860762
0.1735671044
0.2080621194
0.1767763444
0.2026217017
0.4056902644
0.1575505632
0.1325530268
0.1880604593
0.1596277489
0.1051340485
0.1318317692
0.4896385716
0.1056035208
0.07992700232
0.1311152938
0.1069794246
0.07657255415
0.4406780923
0.0535642325
0.07885555746
0.05514437451
0.2369762083
0.1699186466
0.0955768684
0.1025991029
0.06473242153
0.03682332707
0.2482131405
0.2668089701
0.1677424771
0.1519450426
0.0721073004
0.1147564514
0.04160011238
0.01292271042
0.02252676135
0.03821939027
0.03059319897
0.09273410633
0.2608449073
0.2480557977
0.05024186004
0.0419573018
0.09616194691
0.06599196567
0.05747261232
0.04010547187
0.0655163819
0.1083663829
0.03806248568
0.02344352165
0.0147855388
0.05256192063
0.02612785776
0.04204855651
0.02508947577
0.058876941
0.2021461992
0.03121306312
0.2014738006
0.2237534105
0.03492083527
0.03907528798
0.03163036168
0.03442523963
0.2196899271
0.1453266256
0.1437107427
0.1750700492
0.173300404
0.09610911414
0.09427183795
0.1185025452
0.116871849
0.2437191183
0.07173484299
0.0708765676
0.01582372206
0.01264938491
0.1478511665
0.3257757438
0.3137697229
0.3416064159
0.3297550678
0.1511507476
0.2773728079
0.2648739289
0.09403644375
0.1878422476
0.3570608604
0.3454736813
0.06013124445
0.06208548913
0.1373206229
0.118643383
0.2936770863
0.2814294934
0.3097683459
0.2977349768
0.1204642897
0.1016209915
0.03700155358
0.03773084485
0.02137196045
0.02220028394
0.08433974494
0.125934933
0.05593251017
0.0597240224
0.03803496923
0.03871680947
0.1111080417
0.07576837686
0.02075478921
0.02123099245
0.02036056945
0.06446725325
0.03859955679
0.04025413572
0.01504574748
0.0163890743
0.04522640571
0.04435796901
0.06809600419
0.07867090401
0.09576633696
0.05904706429
0.07380533216
0.06900928348
0.06037064761
0.1397969288
0.1284266206
0.103986034
0.1386540842
0.06028502023
0.03876428266
0.04337339043
0.05408730469
0.03345168305
0.03746701737
0.02938548309
0.09561094282
0.08373173185
0.1020237527
0.09808281969
0.03051850326
0.0752911618
0.07307443303
0.08034555917
0.07609378291
0.03643725876
0.1184578024
0.1139966822
0.1256899749
0.1200418722
0.03702664119
0.03275032453
0.10716009
0.1033779826
0.1125694026
0.1084740743
0.03309797538
0.04345280017
0.04268014413
0.04563737791
0.04371835239
0.04125579696
0.04020145485
0.0424237083
0.04152923905
0.06969921143
0.06773388087
0.07238527147
0.07038241168
0.06223685724
0.04836520815
0.06691341106
0.06481174826
0.03603756277
0.03664491223
0.1002608105
0.02137469552
0.02116304463
0.0220308773
0.02155974182
0.02050088787
0.08670449216
0.02285173532
0.033864225
0.04087543048
0.05404831722
0.124131925
0.03740407981
0.02417382517
0.04006249041
0.03708380456
0.02280625129
0.02226677156
0.02373398144
0.02302861398
0.1125075494
0.03894789888
0.03984007273
0.02016029045
0.02064819667
0.07481867791
0.06666997727
0.01927805184
0.02009860093
0.2183889508
0.3813305524
0.3756679288
0.3600858866
0.3723672854
0.2221858101
0.372034138
0.3608568228
0.1913962651
0.1520493462
0.06775347442
0.07156184146
0.07463772141
0.08542283573
0.1658697825
0.04046791544
0.04815797228
0.03720030763
0.0427443726
0.06676130109
0.09417235337
0.09279584298
0.04166735915
0.067422855
0.06377905627
0.09174489369
0.09000412181
0.0641492327
0.03270697878
0.03946574715
0.03515840033
0.02698795679
0.0276163076
0.02277621389
0.04700183607
0.04563495837
0.0498845542
0.02362084617
0.034017217
0.03237385922
0.05248454413
0.05210862247
0.03095816203
0.02868812943
0.02827420194
0.03132713619
0.03061909611
0.03545450326
0.05855081642
0.05793875419
0.06215649561
0.06139479482
0.03831464754
0.03196172968
0.05371156888
0.05319406864
0.05730915751
0.0566877815
0.03396617484
0.06513909398
0.06704990957
0.1503238117
0.1388462044
0.06267287299
0.06453199874
0.09229443251
0.09545559456
0.1806211092
0.02666879828
0.02652341704
0.02803495997
0.0278150514
0.0203328983
0.02625257186
0.02614699705
0.1677512391
0.08765082002
0.09111529204
0.03716470684
0.05643910186
0.05596984285
0.02161150945
0.03595575818
0.03570228248
0.03728215083
0.03632029916
0.02181912487
0.02070343065
0.02048149515
0.0209317866
0.03520922928
0.03498716352
0.03554413842
0.03535973648
0.02105815658
0.02161015408
0.02101071471
0.03157521335
0.02257396214
0.01620263442
0.04021288847
0.03110594783
0.01028946431
0.01144832128
0.01858731435
0.02083161699
0.01217451365
0.01500519036
0.01474978009
0.0464239225
0.04334326039
0.0829065591
0.07432496718
0.04363161193
0.06388323971
0.08914564331
0.08565820146
0.0349199718
0.03208855488
0.03034938804
0.02282483224
0.02931565569
0.04317025138
0.04316762182
0.03803068534
0.04804301418
0.04823584681
0.03083080888
0.03049460928
0.05112939906
0.05112140776
0.02938231596
0.02898764738
0.0301587767
0.02973461347
0.05967225501
0.05908764008
0.03585998301
0.03765388294
0.06081205408
0.0602476748
0.05491244503
0.05436193012
0.03240178506
0.03348907006
0.05605579459
0.05547924541
0.04318313669
0.02537456714
0.02564397454
0.02495167298
0.02515725988
0.0429373747
0.04451589319
0.0265852955
0.02706967911
0.02590948792
0.02621979647
0.04403760163
0.04087363068
0.02373375256
0.02397299416
0.02336712123
0.02359735154
0.04064013059
0.04214382609
0.02455828313
0.02474859417
0.02413696877
0.02437085985
0.04186967268
0.02710818369
0.0269236168
0.06905310055
0.04629250092
0.04661319265
0.04559416936
0.0458743523
0.06833544354
0.02755491849
0.02734889188
0.0250065739
0.02626736411
0.06015497565
0.04184993525
0.04154573904
0.02796957158
0.02937762236
0.05370629952
0.06643167709
0.04489395652
0.04509322032
0.04417621386
0.04412555229
0.06519607958
0.02581798711
0.0258640743
0.03595989726
0.05388179495
0.05357330484
0.05528133521
0.05492076385
0.03654692586
0.0213307233
0.02109116017
0.02190709125
0.02163404539
0.02160749411
0.01692814491
0.02402712847
0.04424542984
0.0396053665
0.0514009026
0.04959090522
0.03413450132
0.02625131616
0.01823557709
0.02346640575
0.02494939362
0.03938433917
0.02301438353
0.02330297479
0.02233292984
0.0230691127
0.03945242614
0.0226407616
0.02241483706
0.02346664035
0.02322132119
0.02037579265
0.03440310537
0.03404158038
0.03482851868
0.03454775483
0.02045418284
0.01982807471
0.03335586608
0.03149131379
0.03392113191
0.03333164592
0.01981292169
1.155460233
1.156124238
1.155985691
1.15640198
1.157460483
1.156665106
1.15788278
1.009645858
1.157609018
0.9733341366
0.8715029546
1.030835529
0.8536777934
1.155746791
1.157154642
1.156271211
1.148316922
0.9320396526
1.157900809
0.8737817447
0.7370960808
0.9406019536
0.7029889234
0.6254333345
0.8105802464
0.607558944
1.156914695
0.9444030366
1.151500094
0.8670239988
0.6838483809
0.8611371034
0.635330263
0.5173257091
0.6759305646
0.4856862943
0.4107085622
0.5671690538
0.3922934455
0.9903155551
0.7466609759
0.8841694892
0.6819712222
0.5215613886
0.6356421973
0.476298636
0.3621759299
0.4726339588
0.3300558749
0.2499098313
0.3652624139
0.2291440399
0.8352518454
0.6245937936
0.707201422
0.567843475
0.4216905096
0.4914565008
0.3801150612
0.2667947999
0.3337702448
0.2323896677
0.1423202687
0.2180351371
0.1192492217
0.7508350225
0.5650901433
0.6039693319
0.5139638333
0.3800039307
0.4065075039
0.3401288661
0.2296426618
0.2518730043
0.1962419504
0.09387185615
0.1248092384
0.08763216651
0.05354274652
0.08463892108
0.7102955064
0.5503690517
0.5576887794
0.5062991168
0.3911412465
0.3780660278
0.3563743769
0.2643796886
0.2319093782
0.206795401
0.1797257269
0.1695965209
0.08610517916
0.07476659937
0.06785332366
0.710130951
0.5701253648
0.5534693859
0.5315936686
0.4333884903
0.4011515632
0.4056483112
0.3368143799
0.2802995088
0.27723975
0.2589200317
0.2343438486
0.2040745116
0.2035640005
0.1788074672
0.7242198529
0.6021551339
0.5771669825
0.5686675534
0.4844363719
0.4464250004
0.4613133236
0.4094775091
0.3562266968
0.3641080486
0.358748518
0.3349288898
0.3572906938
0.3684025528
0.355303892
0.7499757379
0.6390447987
0.6110747545
0.6081385992
0.5294762835
0.4964617814
0.5074503226
0.4564246874
0.4241426349
0.4298956871
0.42990908
0.4169694312
0.4789431026
0.3838763716
0.3954195426
0.6492809403
0.539926148
0.4638756407
0.4484068577
0.4583657657
0.4439412089
0.4520332352
0.3189131769
0.3315835048
0.1562073227
0.1359755552
0.1446488795
0.3450849754
0.333627031
0.3065579747
0.3991648452
0.4101704328
0.4403362934
0.335704276
0.3480224512
0.4782042045
0.03599080649
0.04815670203
0.08332261502
0.07210513781
0.04517358842
0.3097263582
0.2843793371
0.2990973242
0.2649546838
0.266189999
0.3105162391
0.2093885426
0.2513945149
0.2458397822
0.4004723074
0.380765243
0.3837866097
0.3936867668
0.3730726403
0.4114607668
0.3223160827
0.3650795825
0.3782127754
0.4026336535
0.3804838194
0.3728327256
0.2106700326
0.2682191915
0.2642351483
0.2911212179
0.2873975872
0.2297102614
0.4440370183
0.4387405221
0.4398480787
0.475716031
0.4364560864
0.4521260356
0.4136869001
0.4415880772
0.4731170661
0.3681233451
0.3799975721
0.4857939228
0.1388392559
0.2064537452
0.2029423549
0.229584792
0.2251607753
0.1691559177
0.441966361
0.44986205
0.4466657175
0.3020761742
0.3147701826
0.448709767
0.08576920635
0.1480881027
0.1502831276
0.1696053909
0.1657794499
0.09951290563
0.07464720139
0.07401004398
0.0636115877
0.1611363898
0.1416483823
0.1361214439
0.0328926601
0.02727065893
0.02588809115
0.05451504654
0.04812588999
0.05315408454
0.2477734325
0.3441856864
0.3557642616
0.2896917468
0.3350374658
0.2515404936
0.2853171937
0.3214987704
0.2790976903
0.199934108
0.1245988577
0.1294598566
0.1009680502
0.1044947087
0.1954508616
0.1978393633
0.1519744223
0.1584963516
0.131042612
0.1358337248
0.2122329618
0.1807429124
0.237123031
0.2330165569
0.2602737185
0.2563365286
0.1987976519
0.4230713038
0.4138220757
0.4194019423
0.1556418115
0.1268217578
0.1287663479
0.1068223187
0.1081936505
0.1342064049
0.1824562736
0.09655491771
0.09983854729
0.1310084189
0.1333899125
0.1617341849
0.1100975262
0.1769569874
0.1731594426
0.1993801961
0.1957901206
0.1269398988
0.4855860703
0.3520957949
0.364149528
0.1042749729
0.07959140422
0.08051502754
0.0561410333
0.05687868901
0.08112625757
0.1294853948
0.1041283411
0.1055742504
0.08151872093
0.08247499985
0.1083391329
0.1497161912
0.2978605356
0.05259662378
0.03325978218
0.03359617099
0.0778014458
0.05496176237
0.05554288569
0.03447670454
0.03665734023
0.05771914898
0.2118760226
0.1928122837
0.2199352752
0.1263834595
0.16469716
0.1951510039
0.1337291203
0.1560128026
0.115119265
0.09024361204
0.08090122217
0.09268812033
0.04700986056
0.06780799443
0.08061053664
0.05255927097
0.06148035129
0.04285890838
0.2553984429
0.2294150412
0.2258742178
0.2517321885
0.2303218183
0.2740880496
0.1716288803
0.2130381055
0.2283268082
0.1102445211
0.1233813827
0.1566212325
0.08822962451
0.1118984653
0.09898564419
0.128704047
0.118087535
0.1028316543
0.01313445769
0.01092505426
0.01064576619
0.02079602256
0.01857239412
0.02002037064
0.02822527119
0.01813495875
0.03423170138
0.02165660504
0.03169878474
0.01557217446
0.01945406316
0.03292218132
0.1553126882
0.1504477673
0.08794714434
0.2564535221
0.2025820021
0.2072363644
0.1942626766
0.1992104102
0.2523826288
0.09546278932
0.08039940524
0.08490135119
0.0566303635
0.06262230973
0.06556776045
0.121705686
0.1273938025
0.1038291669
0.03389976209
0.03025139638
0.03498814552
0.01810811361
0.02457457226
0.02982595268
0.02105871631
0.02262012545
0.01680918472
0.04721183587
0.04797282877
0.05191371539
0.02892397388
0.03150641874
0.0289426326
0.04718115032
0.04234799179
0.03744343387
0.1136333926
0.1224626151
0.1983992543
0.197184976
0.1057454603
0.1108642339
0.1444173844
0.1500048087
0.2246889887
0.215809366
0.1374796298
0.1426357985
0.1176747777
0.1190912699
0.1469839144
0.1420729409
0.1148889459
0.1162795817
0.1466496661
0.1483373101
0.1769471341
0.1714286224
0.1432958641
0.1449666591
0.07358672935
0.07459006763
0.09755586423
0.09204675084
0.06934014776
0.07164002907
0.09083228385
0.09319897922
0.1201982312
0.1153584939
0.08766642564
0.08903724251
0.1901338753
0.05150397145
0.05222710593
0.07285556597
0.06959147626
0.05006887908
0.05111501449
0.01347883621
0.01335320511
0.2134889919
0.209950748
0.1407765025
0.321773178
0.2659945975
0.2699630487
0.2581936771
0.2620760595
0.3177728875
0.33764277
0.2818492051
0.2859454722
0.2739877957
0.278033485
0.333724412
0.167112739
0.2219614042
0.217314253
0.2731923554
0.2188504336
0.2229429172
0.2108047982
0.2150898535
0.2691513449
0.09817243475
0.1623895416
0.1583006375
0.2447619788
0.240797981
0.1840807268
0.353214431
0.2976300255
0.3015952368
0.2897490994
0.2937707122
0.3493789661
0.06088315797
0.08357520269
0.08247888131
0.08553534385
0.08448399377
0.06141491414
0.1357036916
0.1094668301
0.1108323483
0.1847543712
0.1807981871
0.1121880421
0.2896101609
0.2347669112
0.2387763326
0.2267941759
0.2308171032
0.2855520811
0.3057615745
0.2504582771
0.2543214197
0.2427007412
0.2465828836
0.3017484003
0.1253394103
0.1921735486
0.188515993
0.07770527713
0.07856912715
0.1029091664
0.05760764851
0.05707232405
0.03752119958
0.08252574904
0.05786577139
0.05948065884
0.1008346018
0.1027122774
0.1279157136
0.05827538212
0.0793229728
0.07729104271
0.08163826088
0.08034561037
0.05860053291
0.03824974759
0.05876823849
0.0582105743
0.05992885447
0.05935730438
0.03851204202
0.1097272546
0.08347260365
0.08445333993
0.05384008098
0.05442262226
0.07681024202
0.06128406556
0.04103574138
0.04603641439
0.01313112253
0.01164001459
0.01374192402
0.008590878506
0.009508773657
0.01812914745
0.01663909666
0.01501629812
0.08324383308
0.0912665039
0.06729925792
0.08348701091
0.08536643828
0.07846382863
0.1012766652
0.09282573065
0.08936713217
0.06484908121
0.06150893053
0.05683256213
0.0722728309
0.06668036503
0.06972259874
0.07074887604
0.06910661623
0.07594667777
0.1358600118
0.1048724242
0.1100771915
0.09505722291
0.0991903297
0.1319218549
0.1135652
0.1183206841
0.1117307901
0.1132969405
0.1163496032
0.12539842
0.04032843924
0.04390621108
0.04279382811
0.0462728692
0.04450191331
0.041603567
0.05281062861
0.0495821102
0.05105788186
0.0928312382
0.06833621215
0.07073086912
0.05509638267
0.06105694513
0.08846001091
0.1009196831
0.07563193115
0.07628268273
0.07366829008
0.07416227851
0.09934578373
0.07453369653
0.04906486999
0.04943304729
0.0483145835
0.04871373091
0.07380134325
0.07830455069
0.05075064636
0.05205980723
0.04977728552
0.05017717498
0.07703472148
0.1169308285
0.08662557421
0.08761452549
0.08469454315
0.08566753453
0.1154505666
0.1235390987
0.09092261467
0.09253209377
0.08863231891
0.089697363
0.1217085237
0.1058937219
0.07909649986
0.07997890026
0.0773170683
0.07814999908
0.1045803078
0.1111726561
0.08275701874
0.08371869267
0.08088651087
0.08180289922
0.1098025497
0.07171760959
0.04766563499
0.04798156449
0.04698624474
0.0473123337
0.0710420466
0.09899412194
0.07583959335
0.07664599261
0.06217489677
0.0659335054
0.08945300341
0.04335556479
0.06742646176
0.06461075071
0.07493627081
0.07135079563
0.04823987092
0.1216897816
0.09596563802
0.0986194789
0.08546738426
0.08651242675
0.1139129249
0.03915754585
0.0611537966
0.06052798441
0.06293066281
0.06190647003
0.03942811229
0.07375427418
0.05269878336
0.05332330364
0.04769309391
0.04972085763
0.06855194696
0.275998751
0.2721312512
0.2145749555
0.3831981242
0.3286361044
0.3323350863
0.3210305749
0.3248663215
0.3794495258
0.3624368995
0.343486126
0.3472505144
0.3360127389
0.3397675462
0.3677726954
0.225969022
0.2836418634
0.2798333693
0.368374301
0.3132841441
0.3171661126
0.3054816333
0.3094056933
0.3646404166
0.1951156586
0.2524746711
0.2485588268
0.1235070935
0.1250826166
0.1537846133
0.06859587697
0.0963702185
0.09507322154
0.0999065727
0.09791414054
0.06973022097
0.07892816192
0.105568802
0.1025290549
0.1108417403
0.1084367288
0.08288138547
0.1638269877
0.1357363788
0.1378891474
0.03419342857
0.03268507877
0.03086482977
0.03764733079
0.03547934167
0.03712182413
0.03184951849
0.03421912034
0.03705102201
0.06575853739
0.09169341001
0.09063008177
0.09389507159
0.09277511146
0.06638750635
0.1486499608
0.1205307968
0.121990967
0.1121530187
0.1135308244
0.1404928898
0.06331365822
0.08754626176
0.08650542733
0.0895935476
0.08855266506
0.06391688768
0.09329146281
0.1202179716
0.1188182837
0.1231156274
0.1216783167
0.09440825313
0.1787364965
0.1500394076
0.1517577158
0.1398261101
0.1415851449
0.1696533344
0.0887734886
0.1144151745
0.1128603784
0.1173514511
0.1159728622
0.09017894297
1.155599112
1.155632737
1.156040828
1.155683833
1.155751848
1.156085411
1.15585412
1.155988127
1.156153004
1.156165148
1.156388894
1.156281346
1.156657546
1.156990159
1.156453554
1.157325974
1.116586729
1.156667002
1.054251817
1.018582202
1.054474818
1.154691415
1.154725512
1.155144236
1.154791139
1.154891717
1.15524478
1.155019355
1.155309737
1.155569619
1.155553689
1.155684788
1.15574998
1.156159811
1.156381161
1.156289231
1.157111581
1.157421628
1.157113622
1.122585577
1.047760522
1.10387018
0.9726414734
0.9361613709
0.9832242681
1.153877868
1.153963734
1.154327753
1.154117536
1.154346722
1.154585824
1.154693779
1.15539348
1.155280649
1.155511565
1.155788245
1.155695892
1.156899606
1.157377428
1.157000552
1.025967702
0.9658823732
1.042019072
0.8336808238
0.7997093195
0.8652296269
0.7295558379
0.7134118487
0.7738215653
1.15316557
1.15334145
1.153624793
1.153648686
1.154114692
1.15418476
1.154794415
1.156229634
1.155518876
1.156220341
1.156789224
1.156434992
0.9979648199
0.9224368238
0.9945731256
0.7437865519
0.6970012009
0.7568585673
0.5865444473
0.5579684951
0.6137042914
0.4939396414
0.4794209638
0.5349139295
1.152587582
1.152920937
1.153096637
1.153480898
1.154323866
1.154154593
1.155579789
1.078096375
1.156589349
1.099151884
1.00417577
1.06086695
0.7626381959
0.6981583441
0.7463683316
0.5462756398
0.5044913124
0.5460182657
0.4002446247
0.3716354513
0.4126765248
0.3039692721
0.2880265661
0.3309954699
1.152153255
1.152757643
1.152810304
1.153698212
1.155084402
1.154632834
1.15705042
0.9183052208
1.042682379
0.9028405815
0.8175108526
0.8543094748
0.6153108669
0.5601325961
0.5900891294
0.4217994534
0.380903784
0.4063158069
0.2740418285
0.2437628676
0.2702877403
0.1672644829
0.1487293593
0.1790892567
1.151903244
1.152890022
1.152799327
1.154328356
1.156352263
1.155681939
1.072955502
0.8256408886
0.8951944261
0.7858179137
0.7123925278
0.7322730525
0.5338335767
0.4836764066
0.4978914537
0.3528824394
0.3135773025
0.3249171188
0.2049517564
0.1708777807
0.1833342324
1.151932889
1.153347009
1.153100465
1.155358486
1.15801072
1.15716025
0.9941437915
0.7769878333
0.8108301347
0.7273328941
0.6631580817
0.6710252976
0.5050142138
0.4603508738
0.4619943946
0.3419924955
0.306353999
0.3022851551
1.152254293
1.154131742
1.153736311
1.156720698
1.127275068
1.153223
0.9540267759
0.7670353095
0.7692609208
0.7082891681
0.6532815722
0.6495057759
0.5169886991
0.4785794724
0.4723091512
0.3788665646
0.3500496124
0.3363584565
1.152857869
1.155212167
1.154695918
1.158316209
1.091958881
1.106961152
0.939489056
0.772967594
0.7687697418
0.7150565364
0.6673464235
0.6623985082
0.5493402167
0.5166890189
0.5063312939
0.434153054
0.4114885936
0.3960089995
1.153738741
1.156529505
1.155941181
1.160031971
1.075561991
1.081494658
0.9421191329
0.7919837019
0.7824749329
0.7358638676
0.6937813973
0.6864351239
0.5884281177
0.5592489076
0.5486555223
0.4859595437
0.4663026916
0.454013275
1.157398842
1.073967106
0.8097438091
0.76683067
0.7294693475
0.7187090484
0.6294703211
0.601189604
0.5904349037
0.5274383975
0.5062883538
0.4971149385
0.06434454804
0.06426532572
0.07930919118
0.06067857743
0.05016349883
0.3001350238
0.293931525
0.3089474366
0.193809279
0.2099065469
0.2066939264
0.4233422022
0.4125165107
0.424077009
0.3247763354
0.3392162318
0.3473895035
0.4747402454
0.4624640691
0.4603841264
0.4360884635
0.4443655845
0.4595879814
0.1352342366
0.1614680608
0.1597222404
0.4596477339
0.4556303147
0.4638535396
0.08062930492
0.1049453781
0.1031794288
0.1291178679
0.1274675094
0.1022898814
0.2406972206
0.2984287056
0.2947917533
0.3154580703
0.3171384106
0.2591915656
0.1606031727
0.1624639012
0.1917864613
0.1861628666
0.1569989123
0.1587897265
0.1066392428
0.1324721536
0.130775345
0.158033313
0.1562519073
0.1301792713
0.1014750899
0.09990239551
0.07520731392
0.4087305099
0.1535371502
0.1637763785
0.1780354577
0.1130136612
0.1156663918
0.09881300401
0.05815587259
0.06473950272
0.07074767694
0.04305645403
0.0441907943
0.03848408355
0.2710030953
0.2770790536
0.295657746
0.1682633433
0.1833776835
0.1856652578
0.1369810142
0.1396716859
0.1531707044
0.07777689428
0.08548791479
0.08014595562
0.02506240066
0.02514696832
0.03071440275
0.1161741687
0.1144628111
0.09124831662
0.02131404067
0.023851998
0.02641373393
0.01597218396
0.01685376944
0.01484350104
0.1797843192
0.1845032563
0.202015476
0.2003855935
0.1731649805
0.1761153051
0.01051864964
0.01054667081
0.01258940581
0.1699172678
0.1690747602
0.1451723843
0.1553624594
0.1701721565
0.1704691785
0.09545871911
0.1193998242
0.1176782367
0.1440240958
0.14206319
0.1166079979
0.122134789
0.1476369011
0.1458184515
1.155651719
1.155650086
1.155489953
1.156033696
1.155819697
1.155867057
1.155856039
1.155816636
1.155990441
1.156726236
1.156522792
1.156251864
1.157120068
1.156793205
1.15706467
1.15646154
1.15659144
1.156862638
1.116258139
1.157848684
1.157438255
1.075962276
1.15073443
1.068875047
1.157350532
1.157731193
1.139715892
0.9295903679
0.9903198469
1.048351868
0.9283427052
0.9710319702
0.9032929635
1.083924803
1.034876022
0.9802742271
0.8324216481
0.8869039979
0.9156238614
0.8810153941
0.8231012115
0.9756750894
0.9334051222
1.156149508
1.155937751
1.155603641
1.156772539
1.15632926
1.156616095
1.155962414
1.156112388
1.156483471
1.072516242
1.150102315
1.157287655
1.008789072
1.079868273
0.9990884243
1.157435595
1.157874877
1.08941832
0.8217658061
0.8917155791
0.94736761
0.8022306929
0.8446059854
0.7769388206
0.9910890916
0.9164244508
0.8706455138
0.6728746922
0.73512298
0.7667941479
0.6860502335
0.7089893552
0.6474463504
0.8374494163
0.7726425935
0.7481868578
0.5928734909
0.6526947793
0.6678797493
0.6423418332
0.5824325615
0.763538484
0.7030653112
1.117272031
1.157220032
1.156553622
1.009398329
1.095479454
1.029262441
1.156996443
1.157431377
1.080277843
0.7986147753
0.8571874496
0.9289059108
0.7373019243
0.7937304675
0.7379986838
0.924008858
0.8556099696
0.7962999001
0.5917487187
0.6420336839
0.6870142398
0.5660554679
0.6019146341
0.5525738883
0.7139681058
0.6556626711
0.6189047932
0.4574203761
0.505848156
0.5341575297
0.4595527882
0.4810461506
0.43244968
0.5887140785
0.5331774956
0.511781751
0.3772279204
0.4267783305
0.4414635798
0.4157359753
0.3658100935
0.524377053
0.4686504337
0.8976995979
0.9488557628
1.042850013
0.7885450114
0.8647183375
0.8168148099
0.9678797695
0.9155829712
0.8348610681
0.6229335708
0.6600245332
0.7212458672
0.5529305609
0.6039640946
0.5705606208
0.6879732165
0.6430861178
0.5926399013
0.4347710764
0.4678245004
0.5084471812
0.3957924411
0.4304399871
0.39722424
0.5075170899
0.4664828206
0.4317882313
0.3005604559
0.3344289001
0.3637779125
0.2847852995
0.3080755932
0.2738199292
0.3874055689
0.345948629
0.3233284348
0.2121062371
0.2485182254
0.2647848465
0.2360975864
0.1993519485
0.3192404959
0.275881957
0.7564956681
0.7848900767
0.864799584
0.6479353229
0.7126978545
0.6864262897
0.7759481628
0.741775732
0.675212948
0.5155932221
0.5360656085
0.5893791777
0.4408064379
0.4869186962
0.4670213206
0.5387461296
0.5104715822
0.4645519039
0.3401780006
0.3587804683
0.39866835
0.285821587
0.321285181
0.3021307006
0.3681325765
0.3429841374
0.3078656184
0.2002104872
0.2200723794
0.2513094075
0.1648510204
0.1910638069
0.1704854156
0.242757672
0.2157360885
0.1899172337
0.09934942859
0.1229904823
0.1402363227
0.1099350756
0.08502880023
0.1662102931
0.1352066415
0.6822395951
0.6955952774
0.7658643752
0.5748843539
0.6322991288
0.6207904018
0.6649439357
0.6467882234
0.5877016849
0.4663901141
0.47344234
0.5223059532
0.3853778513
0.4282303816
0.4219978286
0.4509892697
0.4374940764
0.3938003758
0.301966929
0.3056865158
0.3445615498
0.2325262407
0.2683337226
0.2650463204
0.2871091157
0.2758563613
0.2401432926
0.1613142362
0.1631995337
0.1977465137
0.1011378204
0.131576641
0.1292506987
0.1533969612
0.1410795089
0.1098205647
0.06098212585
0.07157537277
0.06592485612
0.651398879
0.6578746095
0.7203337503
0.5510533483
0.6018457525
0.5984103689
0.611680137
0.6055425436
0.5531590715
0.4655200847
0.4613292357
0.504465101
0.383033146
0.4209636824
0.4273657132
0.4188337859
0.4185503103
0.3791843496
0.3235615168
0.3134634066
0.3473905064
0.2503233277
0.2810339434
0.2930299973
0.2664626439
0.2719128084
0.2390137614
0.6587132095
0.6562536054
0.7101826294
0.5639205144
0.6078510677
0.6122739938
0.5992472028
0.6036242121
0.5584655149
0.4962010807
0.4865775986
0.5236729137
0.4205843098
0.4522446523
0.463547647
0.4358032445
0.4428443141
0.4096762808
0.3802354596
0.3647052425
0.3915349619
0.317224188
0.3399090044
0.357315431
0.3071835146
0.3230216641
0.2981290403
0.6795870179
0.6732382209
0.7202765878
0.593402597
0.6313120368
0.6389520352
0.6176542176
0.6241230984
0.5849995153
0.5380609815
0.5273078528
0.5588791401
0.4719296166
0.4983778124
0.51001604
0.4751613592
0.4867293445
0.4592351019
0.4407047513
0.4264351773
0.4479440546
0.3929791306
0.4079469573
0.4231996216
0.3747479972
0.3917175659
0.3750706118
0.366821067
0.3582260512
0.3694185863
0.3444132431
0.3551299526
0.3561949706
0.7098826084
0.7016663547
0.7441854881
0.6296191364
0.6639077656
0.6728342411
0.6468780427
0.6552448578
0.6202941334
0.5797290682
0.5695421946
0.5982882891
0.5189694955
0.5431556001
0.5535566433
0.5213554598
0.5325243418
0.5080894807
0.4876154937
0.4773651079
0.496979996
0.4474716719
0.4605599093
0.4703170158
0.4371263241
0.449617646
0.4368451694
0.3877710865
0.4391928842
0.4353314786
0.4465931786
0.4427697896
0.391584595
0.6823817477
0.6929239217
0.6599682845
0.5642152922
0.5748694978
0.5503220374
0.4789166219
0.4872771304
0.4706444336
0.3232478415
0.3760133792
0.3713701714
0.3843444077
0.3801521442
0.3273781402
0.4029110654
0.4539468872
0.4501447027
0.4468857391
0.4575015211
0.4065610624
0.3398686882
0.3925671086
0.3882836382
0.400672304
0.3965548908
0.3439486188
0.03965796408
0.0518368565
0.05178920404
0.06005784757
0.05515623082
0.04291758757
0.08121878969
0.06589120938
0.07007574332
0.06265002156
0.05468534255
0.06416674277
0.03830259457
0.04623151472
0.05335369426
0.04087434109
0.03323658957
0.2610247721
0.2770746566
0.2830902913
0.3060199276
0.293620681
0.2952321914
0.2261702803
0.2270502312
0.2436358998
0.3846584543
0.3980763327
0.4089312162
0.3897044913
0.3888392065
0.3803184677
0.4122685726
0.4059316536
0.3951651869
0.338561414
0.3343945254
0.323333488
0.3624651573
0.352425307
0.3486394533
0.362718013
0.3550260757
0.369180045
0.3978283375
0.3888266478
0.4029718768
0.3723532069
0.3846512973
0.3837513877
0.4609646446
0.4613510192
0.4761359396
0.4490367364
0.4494474322
0.4529103227
0.4508854338
0.4568823765
0.4410170456
0.4290537756
0.4308917732
0.4276177043
0.4432542061
0.4435304366
0.4275929112
0.467695741
0.4526530207
0.4567980169
0.3721129805
0.4241494526
0.4201978897
0.4317171012
0.4278232162
0.3760496345
0.1647929013
0.1631247696
0.1370063751
0.4554664148
0.4493086927
0.4572350804
0.4394103602