/*--------------------------------*- C++ -*----------------------------------*\
| =========                 |                                                 |
| \\      /  F ield         | OpenFOAM: The Open Source CFD Toolbox           |
|  \\    /   O peration     | Version:  v2012                                 |
|   \\  /    A nd           | Website:  www.openfoam.com                      |
|    \\/     M anipulation  |                                                 |
\*---------------------------------------------------------------------------*/
FoamFile
{
    version     2.0;
    format      ascii;
    class       volScalarField;
    location    "0.23";
    object      omega;
}
// * * * * * * * * * * * * * * * * * * * * * * * * * * * * * * * * * * * * * //

dimensions      [0 0 -1 0 0 0 0];


internalField   nonuniform List<scalar> 
3019
(
977.4535028
167.523761
79.74124317
50.39329944
39.24988445
34.601921
32.28395286
31.38069163
30.85099514
30.6491375
30.54194229
30.48931564
582.8899738
155.4345208
77.89692966
50.01543355
39.22340017
34.66633499
32.30838399
31.36589583
30.79897313
30.58271492
30.46450622
30.40602368
411.2528687
143.7973997
74.56640986
48.99985618
38.92704842
34.6231446
32.28912253
31.33462965
30.74532417
30.51793463
30.39034443
30.32750093
349.5931496
131.1735946
70.16848164
47.54873622
38.48145038
34.48926003
32.23041571
31.28580844
30.68387468
30.44926935
30.31528011
30.24809139
272.6854829
115.305808
64.90515047
45.92975072
38.04367372
34.31390451
32.14028589
31.22093099
30.61551875
30.37701229
30.23743188
30.16741181
208.7050178
99.89184892
60.21283764
44.64208356
37.63624569
34.11393582
32.02843667
31.13732285
30.5346749
30.294616
30.15290969
30.08078832
173.3783714
90.01057246
57.54528617
43.79408348
37.2393691
33.89765072
31.90023881
31.03958643
30.44499677
30.20594011
30.0633526
29.99034213
159.1500351
86.03316017
55.95769921
43.05585063
36.86269026
33.67587265
31.76102114
30.93008734
30.34446966
30.10727699
29.96493836
29.89179494
149.3822342
82.89675327
54.70372885
42.4138428
36.51018073
33.45487373
31.61452848
30.81117028
30.23719396
30.00356896
29.86242024
29.789663
141.4444845
80.27619585
53.68880545
41.86268183
36.18371212
33.23849422
31.46350789
30.68499874
30.12048905
29.88995497
29.7504664
29.67865506
134.8519469
78.04731246
52.83537487
41.39323236
35.88450995
33.0292407
31.31029192
30.553462
30.00073478
29.77474451
29.63746997
29.56685894
129.2712285
76.12261775
52.09535269
40.99003907
35.61218875
32.82869449
31.15674867
30.41830297
29.8737127
29.65091289
29.5158454
29.44670745
124.4664494
74.43697942
51.44079651
40.63717507
35.36430252
32.63750456
31.0041934
30.28094087
29.74799273
29.53013418
29.39760824
29.32995137
120.2663323
72.94149673
50.85364321
40.32218615
35.13727565
32.45543656
30.85343503
30.14257971
29.61521396
29.39982861
29.26945144
29.20336038
116.5451245
71.59934918
50.321138
40.03646339
34.92763345
32.28180081
30.7049491
30.00396489
29.4873791
29.27669705
29.14871553
29.08408406
113.2097054
70.38240532
49.83362776
39.7740574
34.73242401
32.11573114
30.55892669
29.86573491
29.35048292
29.14100282
29.0148723
28.95173541
110.1894175
69.26895352
49.38357178
39.53071179
34.5492902
31.95638719
30.41541873
29.7281385
29.22410588
29.01928735
28.89531918
28.8335113
107.4286511
68.24154434
48.96478099
39.30313633
34.37631807
31.8029989
30.27442196
29.59173342
29.08436708
28.87985767
28.75760342
28.69719001
104.8839904
67.28602798
48.57205683
39.08866161
34.21194238
31.65491103
30.13594507
29.45658912
28.96424276
28.76471633
28.64436237
28.58507437
102.5206759
66.39067766
48.20100591
38.88508089
34.05488047
31.51155674
30.00000757
29.32331087
28.81967649
28.61949177
28.50069844
28.44267
100.3121775
65.54583249
47.84787996
38.69054504
33.90407846
31.3724523
29.86669312
29.19155163
28.71039154
28.51466803
28.39722104
28.34004534
98.23842669
64.74376474
47.50966087
38.50361803
33.7587532
31.23728698
29.73631361
29.06232132
28.55412596
28.35739944
28.24128965
28.18521924
96.28527439
63.97899475
47.18415559
38.32325694
33.61832917
31.10576305
29.60982411
28.93561162
28.46381269
28.26885913
28.15350914
28.09802163
94.45401884
63.25391506
46.87213155
38.14953241
33.48282754
30.97793418
29.48997972
28.81556171
28.26383971
28.06862819
27.95484125
27.90059543
1253.066377
1021.430211
204.4198184
718.1884987
1216.587479
609.580872
197.9255664
201.9920386
533.4154865
706.6372586
401.6048119
838.921356
867.2770534
749.4677212
354.0258111
387.4843902
1978.163259
1056.475305
2215.440066
1530.327594
724.3728111
996.0344004
430.260556
180.4616588
193.6451778
627.4272782
695.4435338
1422.413897
322.5724218
343.208615
728.0569837
660.5261489
6642.52775
3140.632037
1979.787946
765.0655026
5291.338696
4158.231881
1576.431128
5421.158219
6481.574481
4121.407415
5196.132558
6815.132343
3097.604502
3815.103759
2382.014221
2859.388858
6126.075596
6826.07184
2859.65747
6572.442264
5785.319983
184.9938394
94.08071092
1463.085219
3874.461257
3129.958364
5113.979867
3707.525077
2135.009989
1045.723393
6594.822044
6926.535317
7044.807143
5959.881001
6741.980615
1771.602832
2182.324887
6372.106989
5878.341477
6447.968501
5953.355656
6734.709023
6670.504965
6557.328451
4469.121386
5844.564394
5428.990128
6479.559788
6670.573695
4834.259214
5079.809443
5469.913491
6704.02074
5623.368065
4432.585841
4686.743771
6389.226389
5111.28459
5327.470131
4357.13075
4731.948081
6556.198525
80.05089921
55.20510676
50.37273872
41.1297822
39.20133875
35.38226789
851.2194333
555.9002083
605.4009674
158.8249397
91.14125902
93.58845908
78.24220478
54.84396585
55.20128783
50.17665822
41.16546861
41.18960754
39.26286644
35.48296522
35.418493
526.9062732
285.6299876
315.0687088
146.5926355
87.28051121
90.55046482
75.44411595
53.67957182
54.59955228
49.29952518
40.81515841
41.1048448
39.02499745
35.44785511
35.48218508
590.4665399
678.8913868
366.4989366
164.8044643
176.7091494
134.6573903
81.8922023
86.1035828
71.39084358
51.90256471
53.28765004
47.94002453
40.23815295
40.68752038
38.59857902
35.29153256
35.41326033
434.3086707
554.9157367
292.1985426
144.8136476
160.2847327
119.4477216
75.07062139
80.28859493
66.23275999
49.73287638
51.38653378
46.32803264
39.60124018
40.07525325
38.14229599
35.08439148
35.24156277
295.5582046
394.787928
221.8989203
123.087066
139.2513768
103.3918395
68.31208186
73.28741064
61.24495636
47.75709509
49.19019784
44.89966555
39.07558177
39.45912177
37.73764089
34.85446507
35.02722983
219.7857396
270.6957717
179.7412899
107.0187675
118.271173
91.81175931
63.75243651
66.89044018
58.00817452
46.55335288
47.37945034
43.99482509
38.59406231
38.95243844
37.33694749
34.60825069
34.79371571
193.5840887
209.8337582
161.9595865
100.0149469
104.4051732
86.9195009
61.64846932
63.15415697
56.31966011
45.62840383
46.30829189
43.23109697
38.14503844
38.47854286
36.95468376
34.35822294
34.54569036
180.1895316
189.9090741
151.6288209
95.58520928
98.81421352
83.62631082
60.03798877
61.20888528
54.99115391
44.83964702
45.41889588
42.56561841
37.73116127
38.03820599
36.59592314
34.11151206
34.29604783
169.4729319
177.301926
143.286878
91.9599208
94.61393787
80.89054151
58.73605958
59.68849885
53.92487215
44.17570581
44.66236335
41.99230857
37.35323674
37.63324725
36.26279763
33.87198531
34.05084274
160.5895294
167.1019469
136.3940887
88.91713089
91.15090096
78.57300393
57.63947649
58.4454141
53.03665424
43.62001219
44.02747068
41.50371428
37.01188733
37.2644438
35.95673336
33.64229243
33.81355795
153.0721235
158.5959085
130.5856443
86.31506965
88.22961198
76.57911844
56.69024381
57.38988216
52.27146466
43.14831693
43.49513726
41.0855343
36.70586907
36.93215758
35.67784758
33.4241486
33.58662755
146.6095483
151.3674878
125.6051136
84.05417674
85.72095133
74.8388673
55.85407678
56.47156638
51.59751338
42.73825944
43.04071956
40.7214204
36.4312587
36.63444588
35.42417028
33.21818461
33.37151419
140.9738393
145.1304851
121.2671128
82.06205237
83.53320016
73.29969505
55.10771262
55.65974871
50.99486236
42.37374169
42.64331211
40.3979015
36.18279261
36.36687325
35.1922701
33.02392178
33.16855266
135.99478
139.6730893
117.4360496
80.28521739
81.59933475
71.92216149
54.4341053
54.93299349
50.44970196
42.04417056
42.28835726
40.10550559
35.95558599
36.12414606
34.97858278
32.84029704
32.97705977
131.5454737
134.8368824
114.0115663
78.68335194
79.86960059
70.67618724
53.82017981
54.27540787
49.9517299
41.74242587
41.96631141
39.83772725
35.74568142
35.90159764
34.78001208
32.66607183
32.79589992
127.5299435
130.5041343
110.9181838
77.22533348
78.30630773
69.53862215
53.25567643
53.67470027
49.49292551
41.46343428
41.67066781
39.58994924
35.55001515
35.69550535
34.59405002
32.50006324
32.62383067
123.8722756
126.5846483
108.0969558
75.88647336
76.88023069
68.49113554
52.73237196
53.12122292
49.06683861
41.20332772
41.39673575
39.35870112
35.36620832
35.50301168
34.41869567
32.34123709
32.45971274
120.5132831
123.0068536
105.5017241
74.64675203
75.56788406
67.51882746
52.24340773
52.60710443
48.66803712
40.95892588
41.14083311
39.14117327
35.1923307
35.32185378
34.25230038
32.18869655
32.3025357
117.4050914
119.7151218
103.0955822
73.48990398
74.35028978
66.60942131
51.78305037
52.12579462
48.29194666
40.72758323
40.89992793
38.93505769
35.0268169
35.15020245
34.09351906
32.04168513
32.15144257
114.5098403
116.6643717
100.8494437
72.40269686
73.21200342
65.75270858
51.34642768
51.67179751
47.93464913
40.50704762
40.67148376
38.73841066
34.86837194
34.98656681
33.94123482
31.8995551
32.00570617
111.797772
113.8205156
98.74040605
71.3744709
72.14059296
64.94038952
50.92955182
51.2404597
47.5929393
40.29551475
40.45335168
38.54969581
34.71600737
34.8297237
33.79460296
31.76185664
31.86471997
109.2399963
111.1579936
96.74650549
70.39560979
71.12621809
64.16517568
50.52913828
50.82802687
47.26422717
40.0915903
40.24384055
38.36773991
34.56898003
34.67875542
33.65298648
31.6282193
31.72806627
106.8048841
108.6583642
94.84236639
69.45419322
70.16194825
63.41799673
50.14131502
50.43178376
46.9455981
39.89389892
40.04171933
38.1914187
34.42659684
34.53299289
33.51578401
31.49826239
31.59540019
104.3267962
106.3200859
92.89792749
68.48488263
69.25059878
62.64685241
49.73927008
50.05291695
46.61510351
39.68911363
39.84713145
38.00899812
34.27977984
34.39244593
33.37436132
31.36404058
31.46680357
1319.675835
1728.27431
1599.723694
848.2927919
881.8554282
1092.048053
212.7757377
362.7972928
328.2011756
754.1046384
1703.445518
2887.006354
2303.624027
1202.194934
475.7702966
495.5162904
666.4981144
192.7794782
286.2169036
272.8919716
317.6773335
293.9662425
194.4061947
634.6187738
718.6617448
416.5746216
583.7129187
535.7563793
606.5520357
399.6328652
2590.455115
1723.561869
1051.163277
999.1920452
808.3801848
903.7491271
1193.767971
1115.437755
493.5969073
543.9800991
818.1615176
363.0369693
441.9751511
428.8119361
513.2354182
461.9873953
375.6292369
2895.157988
2661.693569
1842.180758
3996.447162
4178.739306
5407.139826
1106.692507
2122.54202
1750.924358
2399.57314
3454.952513
3185.819711
1018.549781
1083.839604
1945.103624
750.7066367
883.9575771
849.2161004
926.4784606
782.9235514
1396.39631
1267.010212
946.4285646
3563.693707
3741.963327
1701.214557
1690.564916
299.8605525
311.0679802
501.3537552
184.4301583
231.3216519
225.1081223
264.6577431
238.4099288
188.8380262
647.1886471
756.4496915
731.5998218
814.8702929
785.3774718
672.8500851
1169.349145
925.3004484
971.6350741
327.1089527
392.1534915
384.7122976
413.5978145
403.6529634
336.7861693
686.8378582
503.7703729
528.4804844
684.9062347
1063.984628
1010.338342
3416.163819
4754.683593
4362.873941
1425.623602
1516.231974
1242.976639
1296.148125
2099.87082
791.4161748
949.9424505
920.2490758
4889.360314
3668.032058
3974.895952
3126.892532
3368.230528
4462.71718
1664.909122
2424.391757
2211.069937
3289.755307
4236.649854
3983.632663
4957.791862
4606.250811
3559.297456
2500.08508
3298.015121
3147.802497
3706.356428
3519.869238
2713.946437
4006.590359
3742.795226
2646.161083
136.4435064
138.0559776
187.5647873
94.674109
112.5672955
111.5911487
2033.903185
1863.843413
1400.454896
3646.417089
2697.101707
2882.264803
2302.175602
2454.664625
3363.294034
1492.23203
1579.803362
2359.810181
1104.767698
1246.813753
1233.644303
1326.224728
1127.074242
3183.871417
3336.734546
1900.525854
2573.126664
2460.576058
2928.251649
2788.735654
2057.599932
34.57415156
33.02918522
32.25868855
31.73778813
31.38328916
31.14451363
927.1953315
787.3687389
814.7440584
164.6587917
132.4846269
134.0936712
79.28363786
69.07135082
69.27553186
50.35114015
46.58823485
46.60760689
39.27820662
37.72425101
37.68601495
34.66617816
33.10678792
33.07455939
32.3047201
31.75456129
31.74990448
31.37670465
31.11733482
31.13428851
563.8939018
442.6222857
458.6842199
152.3235858
124.8970656
126.9128704
77.03851174
67.51567962
68.04297764
49.84131397
46.19568997
46.36219565
39.17226656
37.67004299
37.70311092
34.64473618
33.10548928
33.11088445
32.3034817
31.744634
31.75219555
31.35609587
31.08214295
31.10279397
396.0308869
282.4965487
290.3772579
140.9268425
116.7767558
118.9226603
73.60512981
64.90781687
65.63083959
48.67107188
45.34271455
45.59253909
38.82411017
37.43077497
37.50391998
34.52790109
33.05268988
33.08609225
32.2668665
31.7085384
31.7288189
31.31772981
31.03640093
31.06159184
331.2825985
245.7963257
256.186373
127.4482409
106.5609705
109.3806009
68.88828461
61.36474396
62.32993203
47.14897512
44.19272705
44.49314266
38.36332445
37.10396584
37.18791401
34.35975236
32.94910032
33.00478081
32.18906617
31.64668588
31.6780875
31.26080208
30.97867142
31.00924486
254.0453358
200.9960251
212.0579646
111.1836594
94.3924914
97.4537001
63.61370947
57.43661227
58.39110613
45.55295461
43.03581894
43.30643187
37.94146102
36.77894288
36.86174745
34.16668374
32.8185206
32.88544047
32.086829
31.56255863
31.60656643
31.18444825
30.90700149
30.94487985
197.3387398
163.5288829
171.6017983
96.76523035
83.77136317
86.07547629
59.322068
54.31657098
54.96026811
44.41763539
42.21210452
42.39278342
37.53550806
36.4428725
36.52722466
33.95288615
32.67048285
32.74670959
31.96603576
31.46027056
31.51285939
31.09276425
30.82158028
30.86582696
168.2750839
141.7012606
145.4891953
88.85201745
78.08175983
78.9347819
57.11192182
52.67631743
53.02912681
43.60000468
41.5393802
41.70036737
37.14306296
36.10917741
36.19173828
33.73158496
32.50876169
32.59087655
31.83174911
31.34404231
31.40326932
30.98819827
30.72430624
30.77433312
156.5007368
132.6277332
134.6669637
85.19126448
75.23903501
75.8894683
55.61654132
51.43618023
51.72192203
42.88653436
40.94040373
41.08357851
36.77219029
35.78752065
35.86651705
33.50987702
32.33969522
32.42484664
31.6885109
31.21748631
31.28157158
30.87318681
30.61655285
30.67169908
147.2480138
125.5334382
127.1675192
82.19880567
72.93567443
73.47216177
54.43103474
50.43626294
50.66649234
42.26771593
40.41028315
40.53648917
36.42603507
35.48232781
35.55694861
33.29203255
32.16742852
32.25376148
31.5394306
31.08359245
31.15109309
30.74996979
30.50025559
30.55948807
139.6850775
119.7387136
121.0876564
79.68601653
71.00275475
71.45703209
53.46259987
49.62236024
49.81165775
41.73816215
39.94684048
40.05663524
36.10631745
35.19600316
35.26571982
33.08080061
31.99484423
32.0810303
31.38704709
30.94476471
31.0145275
30.62057736
30.3769223
30.43956897
133.3723166
114.8897031
116.0274359
77.54041129
69.34765689
69.73913154
52.64102895
48.93891242
49.10001006
41.28686005
39.54504151
39.64019244
35.81395975
34.93006812
34.99460484
32.87796661
31.82407064
31.90912268
31.23346629
30.80291375
30.87401349
30.48679494
30.24863949
30.31355314
128.0047767
110.7543133
111.7310652
75.6808741
67.90827888
68.25059601
51.92448339
48.3466857
48.4876834
40.89763987
39.19508509
39.27833645
35.54804485
34.68467025
34.74415186
32.68442245
31.65657626
31.73985041
31.08028624
30.65958621
30.73128527
30.35020706
30.11660684
30.18332482
123.3652081
107.1697175
108.0213171
74.04683621
66.63936594
66.94263907
51.28822081
47.82190347
47.94770048
40.55525088
38.88585901
38.9599021
35.30572176
34.45833329
34.51325749
32.50011848
31.49313629
31.57432536
30.92855158
30.51593635
30.58769625
30.21210264
29.98275731
30.05017929
119.2951693
104.0175624
104.7702805
72.59275697
65.50685957
65.77872357
50.71577804
47.34957618
47.46335041
40.24825985
38.60803547
38.67495565
35.08334855
34.24864587
34.29964404
32.32444802
31.33402557
31.413035
30.77888932
30.37279916
30.44423003
30.07345332
29.84730456
29.91555626
115.6780906
101.2102027
101.8836289
71.28426444
64.48495529
64.73124216
50.19533496
46.91955987
47.02354066
39.96884558
38.35482436
38.41611222
34.87756827
34.05315245
34.10082084
32.15656832
31.17921055
31.2560932
30.6316194
30.23070327
30.3015764
29.93491107
29.7118705
29.77990873
112.4274378
98.68214941
99.29091526
70.09504072
63.55372208
63.77893721
49.71783342
46.52437515
46.62024129
39.71155676
38.12135359
38.17807962
34.68557871
33.86966924
33.91451719
31.99561326
31.0284842
31.10335557
30.4868465
30.08996699
30.16014316
29.79690796
29.57567429
29.64422304
109.4766679
96.38323901
96.93883454
69.00459054
62.69761461
62.90533333
49.27613047
46.15822639
46.24731751
39.47243355
37.90406066
37.95702913
34.50514921
33.69638927
33.73883976
31.84080101
30.88158925
30.95458359
30.34457887
29.95077995
30.02017406
29.65981332
29.44092458
29.50845368
106.773511
94.27377245
94.78527758
67.99635703
61.90405364
62.09719384
48.86430296
45.81631869
45.89976091
39.24835949
37.70015718
37.75001097
34.33445761
33.53179918
33.57220645
31.69144558
30.73825594
30.80951911
30.20479132
29.81332193
29.88186921
29.5239348
29.30581806
29.37380459
104.277017
92.32231671
92.79695401
67.05692311
61.16277662
61.34369667
48.47739366
45.49462884
45.57335482
39.03680645
37.50740311
37.55465369
34.17202587
33.37465879
33.41330559
31.54695896
30.59826092
30.6679287
30.06745268
29.67769951
29.74540459
29.38955407
29.17374028
29.23981723
101.9540311
90.50330715
90.9470349
66.17501722
60.46518762
60.63590499
48.1111509
45.18969392
45.2645249
38.83564638
37.32393058
37.36901608
34.01661818
33.22391949
33.26105279
31.40682265
30.46140213
30.52966543
29.93244506
29.54392898
29.61096086
29.25664231
29.04046156
29.10787075
99.77914894
88.79695872
89.21474202
65.34145059
59.80419527
59.96637068
47.76200403
44.89860037
44.97021133
38.6431318
37.14822385
37.1914888
33.8672495
33.07874714
33.11455275
31.27070298
30.32734103
30.39468749
29.79950387
29.41173496
29.47866406
29.12504936
28.91155122
28.97651347
97.73046738
87.18634537
87.58410252
64.54856989
59.17395894
59.32911029
47.42708602
44.61903031
44.68796027
38.45792331
36.979136
37.02083841
33.72319448
32.93853362
32.9731491
31.13828343
30.19534112
30.26311172
29.66794317
29.28050665
29.34888009
28.99397838
28.77832349
28.84804193
95.78534659
85.65405124
86.04391061
63.78901794
58.56897311
58.71982306
47.10397066
44.34908055
44.4159837
38.27898558
36.81578876
36.85617041
33.58389275
32.80280083
32.83635294
31.00921302
30.0633116
30.13584995
29.53598133
29.14846747
29.22248857
28.86188696
28.6502536
28.72057884
93.91013149
84.17124776
84.59661113
63.0467677
57.97631598
58.14045482
46.78633301
44.08386056
44.15474309
38.10374557
36.65599589
36.69751464
33.447814
32.67014705
32.70420649
30.8756765
29.92184159
30.01661069
29.39378637
29.00566982
29.1023197
28.71832123
28.50060408
28.60111556
206.853666
234.7824951
231.2249332
739.4600499
876.8382302
854.870963
1483.184861
1422.013327
1125.98287
227.1649049
224.2839114
199.1583039
473.9896839
422.6003073
662.4550826
677.9095472
767.3344778
1223.482363
1283.85463
1641.63664
2541.299302
2671.317585
1373.932253
1111.841428
1190.763
714.5967432
633.3430026
648.1187534
2235.061403
2387.726088
69.43520019
69.46524974
80.2712182
55.11864128
61.36150538
61.38423522
46.56371749
46.47356365
50.26931214
41.0622054
43.46923169
43.54062671
37.64735498
37.57852038
39.13119707
35.3255777
36.33247477
36.38699695
738.5095454
760.4306415
885.5811261
572.0180537
662.4297775
645.3324096
706.2925128
685.0936935
587.5298416
129.0784662
130.2167674
160.8153545
92.18442751
108.4182293
107.3713968
110.5559857
109.5179034
92.7608827
68.40425678
68.78391274
78.90165715
55.02145842
61.0116155
60.79700114
61.33819116
61.230095
55.12329001
46.47728813
46.55415506
50.30309572
41.18632816
43.57235503
43.52743334
43.6027407
43.60303244
41.20031516
37.72108192
37.72405699
39.2710368
35.47077089
36.47963869
36.47808679
36.43285772
36.46096107
35.45318268
416.421748
430.1242197
538.7774075
371.2661384
364.7128549
306.9951399
120.9702381
122.9561274
149.4140316
88.38359359
103.3544987
101.9336889
106.1558767
104.7487883
89.44444809
66.30564916
66.92030085
76.27163138
54.03336839
59.68626757
59.22091905
60.43145875
60.17654507
54.43207158
45.81994652
46.05963328
49.58488526
40.96047123
43.23456528
43.0438804
43.44078337
43.32572437
41.02318999
37.5783077
37.61991313
39.11190998
35.46017069
36.42707092
36.40294067
36.47264948
36.45555758
35.47482056
621.6559496
648.5693887
265.762628
274.4715464
381.8501206
169.000993
209.6644261
204.1417641
219.7905552
214.8066259
172.9344132
112.0261612
114.4881334
137.900683
83.39856221
96.96954985
95.06206411
100.3911325
98.74175128
84.80453919
63.25529849
64.11747591
72.54286174
52.394052
57.54973074
56.90497381
58.70957516
58.14938143
52.8583487
44.78846011
45.07347843
48.31618891
40.39671246
42.48144485
42.26754952
42.87259083
42.68437272
40.54745498
37.27041286
37.35286788
38.71431139
35.3352429
36.24789687
36.18905169
36.35333691
36.30309964
35.37820138
475.2344424
516.0488653
223.4345416
234.778707
311.9271359
150.2367787
184.4263811
177.0098927
198.0940367
191.5048114
155.4202662
100.5417114
103.5999002
123.5231487
76.85289274
88.58391668
86.25487636
93.01822798
90.85052732
78.6022929
59.37682354
60.37464943
67.56904541
50.28856283
54.74302724
53.997348
56.21473494
55.48674441
50.84605462
43.59562151
43.89480134
46.73917676
39.75173034
41.6028692
41.39140657
42.04643082
41.82337888
39.91203974
36.9413363
37.02297647
38.25125508
35.13757865
36.00062133
35.934609
36.12817714
36.06564262
35.19194771
324.8264743
358.1182371
180.6225538
190.44497
237.0402787
128.2524662
154.477249
147.4902814
169.4172573
161.8564014
133.6920802
88.63850715
91.43730442
107.182183
69.87121767
79.36944162
77.26953382
83.90982964
81.59652763
71.54350301
55.70185545
56.53475797
62.38397797
48.19095692
51.89829392
51.29453972
53.26452927
52.56008282
48.67264588
42.58014051
42.79182846
45.20684605
39.20021164
40.82506353
40.67037422
41.18379021
40.99464596
39.32656411
36.61152674
36.6955182
37.83946958
34.91386218
35.73089677
35.66072753
35.86759762
35.80006768
34.97246959
233.2512534
249.9855833
150.4067999
156.4274683
187.7706845
110.1469916
129.9946061
125.7161729
140.9819169
135.1544978
113.9643837
80.16424222
81.80496553
94.03824222
64.58777571
72.20294168
70.99536709
75.35564241
73.64186809
65.64518166
53.40105167
53.80209116
58.56476182
46.80828614
49.95999737
49.64405505
50.76069447
50.31127208
47.07522318
41.86607497
42.03659221
44.20254685
38.71158223
40.22791854
40.08687762
40.51965519
40.37218266
38.83108848
36.27496225
36.35872645
37.43570391
34.67047083
35.44656878
35.3747145
35.58977632
35.51831273
34.73247534
197.5407129
202.1355525
136.8369922
139.1559756
164.9516792
101.2896291
117.8552764
116.1910599
122.1741327
119.6483212
102.6599816
76.57652421
77.30506093
87.85580765
62.11697114
68.87346837
68.29434119
70.16202819
69.49274077
62.61764669
52.02343192
52.34133362
56.70395778
45.84625985
48.78037337
48.51737264
49.34308458
49.05545843
46.07280884
41.23108228
41.38298078
43.41243652
38.25403088
39.68319849
39.55500811
39.94908263
39.81454998
38.36521813
35.946489
36.02740503
37.04816101
34.42061783
35.16030587
35.08954677
35.30298066
35.23145554
34.48315334
183.2393661
186.4717612
128.8886837
130.7054434
153.998261
96.60560113
111.7210934
110.3789925
114.620067
113.1327131
97.68023365
74.03329671
74.62135082
84.39023579
60.40629869
66.75321519
66.29289349
67.75061489
67.23813841
60.795831
50.90927209
51.16554119
55.29492402
45.02469897
47.79788904
47.58016077
48.26616532
48.02645793
45.21776035
40.66688773
40.80151268
42.72316767
37.83128187
39.18930651
39.07359279
39.42998492
39.30810311
37.93364307
35.63269913
35.70957234
36.68327091
34.1726522
34.8808176
34.81253206
35.01937175
34.94975385
34.23415965
171.9563203
174.5621786
122.4996209
123.9796373
145.2192037
92.80472484
106.719682
105.6078367
109.1012055
107.8828425
93.68841671
71.92970358
72.42207942
81.53084909
59.03918418
65.03690577
64.65375539
65.85478856
65.43673327
59.35619733
50.00980852
50.2176911
54.17190103
44.33068497
46.98818454
46.80949311
47.37295715
47.17581047
44.49281908
40.17041746
40.2882745
42.12727077
37.44428884
38.74507474
38.64173756
38.96099093
38.85148802
37.53763413
35.33669029
35.40890419
36.34358048
33.93104634
34.61239158
34.54731176
34.7450359
34.67828913
33.99065457
162.667457
164.8362328
117.2125183
118.4483488
138.0036219
89.63179674
102.5481517
101.610289
104.5440588
103.5251965
90.37577178
70.14484252
70.5657052
79.11882863
57.89806208
63.59266307
63.26490924
64.28609288
63.93276593
58.16646716
49.26722263
49.44111692
53.24550834
43.75006327
46.32117648
46.17222653
46.63918598
46.47663691
43.88576046
39.73876394
39.84092449
41.61860482
37.0938078
38.35009708
38.2588095
38.54149179
38.44430439
37.1779922
35.06043632
35.1275722
36.03066704
33.69869423
34.35759948
34.29623264
34.48315639
34.41990067
33.75577383
154.8420079
156.6820318
112.7442085
113.7961476
131.9515376
86.93019044
99.00851406
98.20461012
100.7092803
99.84282105
87.56798782
68.60412631
68.96954173
77.05138718
56.91583463
62.34859024
62.06316334
62.94881056
62.64363308
57.14892457
48.63314906
48.78341741
52.45321847
43.25967554
45.75945084
45.63164447
46.02929647
45.89187838
43.37518682
39.36429055
39.45312364
41.18438627
36.77922932
38.00171527
37.92121611
38.1703911
38.08474218
36.85464687
34.80485704
34.86681908
35.74508679
33.47755307
34.11811164
34.06070532
34.23587417
34.17649584
33.53170591
148.1398321
149.7247892
108.901418
109.8117673
126.7837785
84.59171025
95.95760942
95.25811922
97.42928721
96.68085996
85.1469967
67.25486603
67.57655202
75.25326841
56.05389819
61.2594553
61.00738095
61.78685193
61.51913687
56.25963331
48.07694622
48.20985411
51.75865391
42.83597412
45.27267042
45.16013188
45.50813316
45.38858772
42.93672392
39.03602382
39.11436342
40.80817821
36.49724584
37.69372937
37.62212109
37.84314165
37.76736371
36.56495077
34.56925994
34.62638388
35.48539712
33.26855116
33.89441045
33.84085906
34.00430825
33.94888009
33.31964702
142.3154455
143.700151
105.5456238
106.345014
122.2995789
82.53807398
93.28962608
92.6726804
94.58113003
93.92539831
83.0282156
66.05782148
66.34457553
73.66799657
55.28689542
60.29320435
60.06784033
60.76258204
60.52466897
55.47083214
47.57988951
47.69935556
51.13966811
42.46125371
44.8408603
44.73986284
45.05079456
44.9444473
42.55106273
38.74349478
38.81376079
40.47555114
36.24274055
37.41845385
37.35389153
37.55245184
37.48460661
36.30407668
34.35156249
34.40444861
35.24840347
33.07145247
33.68563056
33.63556711
33.7882397
33.73650562
33.1196458
137.1855854
138.4110858
102.5753301
103.2862843
118.3523253
80.71160722
90.92597296
90.37531419
92.07376366
91.49185621
81.14948358
64.9834484
65.24187264
72.25316749
54.59644183
59.42589806
59.22226617
59.84838906
59.63452309
54.76268685
47.12979242
47.23842513
50.58119884
42.12371208
44.45131931
44.35946771
44.64137909
44.54525339
42.20507859
38.47869313
38.54263784
40.1760725
36.01062332
37.1690736
37.11011707
37.2908736
37.22930224
36.0667927
34.14926854
34.19853056
35.03047095
32.88527794
33.49015929
33.44315538
33.58633124
33.53787204
32.9308508
132.6137607
133.710397
99.91471549
100.5541797
114.8340258
79.06920954
88.80766691
88.3109009
89.83918966
89.31689243
79.46450274
64.00907353
64.24431271
70.97669452
53.96865038
58.639308
58.45350235
59.02345414
58.82922757
54.12035445
46.7180088
46.81774113
50.07225422
41.81554735
44.09562327
44.01121812
44.26964245
44.18173792
41.89015568
38.23586836
38.29475832
39.90262983
35.79671141
36.94036706
36.88592576
37.05239531
36.99583951
35.84867024
33.9600315
34.00623022
34.82837746
32.7088168
33.30626312
33.26189372
33.39686302
33.35124222
32.75207925
128.4976821
129.4886051
97.50676642
98.08765836
111.6639741
77.57776022
86.8898293
86.43738524
87.82600744
87.35254032
77.93799014
63.11712601
63.33318081
69.8139029
53.39262859
57.91918995
57.74815285
58.27166176
58.09364213
53.53227371
46.33798837
46.43030976
49.60431222
41.53126552
43.76769562
43.68946631
43.9284803
43.84734602
41.60032836
38.01087136
38.06562769
39.65021087
35.59773046
36.72842909
36.67769239
36.83248871
36.78001467
35.646217
33.78185338
33.82545339
34.63946733
32.54085608
33.1323287
33.0902263
33.21813255
33.1749553
32.58209974
124.756806
125.6604039
95.30696978
95.83947044
108.7795175
76.21115875
85.13731654
84.72155774
85.99478994
85.56159416
76.54233667
62.29371376
62.49379182
68.74541937
52.85971748
57.25430242
57.0955687
57.58043414
57.41588275
52.98931104
45.98451117
46.0706393
49.17059273
41.26675989
43.46288192
43.38980543
43.6126382
43.53714212
41.33121722
37.80058571
37.85191997
39.4151164
35.41115599
36.53032364
36.48266125
36.62779417
36.57869077
35.45674895
33.61309112
33.65447684
34.4616288
32.38032428
32.9669806
32.92683344
33.04865319
33.00757994
32.41980549
121.3282421
122.1585835
93.2800465
93.77223914
106.1316208
74.94830689
83.52190779
83.13669034
84.31399639
83.91420873
75.25527547
61.52745695
61.71419075
67.75555097
52.36274353
56.63543409
56.48696485
56.9396074
56.78627389
52.4839517
45.65317413
45.73413858
48.76542757
41.01869737
43.17733567
43.10855272
43.31790108
43.24710084
41.07932075
37.6025092
37.65099696
39.19439104
35.23495459
36.34371429
36.29861743
36.43570017
36.38939805
35.2781205
33.45236629
33.49185656
34.2931295
32.22628562
32.80904122
32.770588
32.88714512
32.84788626
32.26422204
118.1620294
118.9304696
91.39760228
91.85612487
103.6815117
73.77211747
82.02093826
81.66126802
82.75834305
82.38649998
74.05885199
60.80899516
60.984578
66.83146755
51.89572758
56.05497364
55.91505832
56.34081014
56.19686158