/*--------------------------------*- C++ -*----------------------------------*\
| =========                 |                                                 |
| \\      /  F ield         | OpenFOAM: The Open Source CFD Toolbox           |
|  \\    /   O peration     | Version:  v2012                                 |
|   \\  /    A nd           | Website:  www.openfoam.com                      |
|    \\/     M anipulation  |                                                 |
\*---------------------------------------------------------------------------*/
FoamFile
{
    version     2.0;
    format      ascii;
    class       volScalarField;
    location    "1";
    object      k;
}
// * * * * * * * * * * * * * * * * * * * * * * * * * * * * * * * * * * * * * //

dimensions      [0 2 -2 0 0 0 0];


internalField   nonuniform List<scalar> 
3019
(
36.90870076
36.90875949
36.90887323
36.90908937
36.9544865
36.9553146
36.95677369
36.95988674
36.96577906
36.97531159
36.98761959
37.00061111
36.7274892
36.72772707
36.72807182
36.72884391
36.77483292
36.7790163
36.78737853
36.82168827
36.84892222
36.8932949
36.95320781
37.00804814
36.54751321
36.54811021
36.54910583
36.5511299
36.59871254
36.60907563
36.6288743
36.68180588
36.74699006
36.8508646
36.96552072
37.05236406
36.36892094
36.36967902
36.37146166
36.37575244
36.42696053
36.44821786
36.49161508
36.57876387
36.71296385
36.8788374
37.04548966
37.17829221
36.19218311
36.19344812
36.19685311
36.20562935
36.2627634
36.30088975
36.38251363
36.52775846
36.73913512
36.97781137
37.2323351
37.46061227
36.01680802
36.0187808
36.02455308
36.03903274
36.10796721
36.17234938
36.31350911
36.53022588
36.81484311
37.16287858
37.59064517
38.0764851
35.84392789
35.84731044
35.85715085
35.88095341
35.96496042
36.06427569
36.28194387
36.56612872
36.94991723
37.45809871
38.21807954
39.50790668
35.67451966
35.67965188
35.69459655
35.73128598
35.83302289
35.97849283
36.28201591
36.63137277
37.13204772
37.84653177
39.10813274
41.99858325
35.51139509
35.51933726
35.54169494
35.59489774
35.71427206
35.9143625
36.29695737
36.71818915
37.33799157
38.24940596
39.94253951
44.2303834
35.35615591
35.36707715
35.39726855
35.46814215
35.61132492
35.86866592
36.32259786
36.81699788
37.54356268
38.6074268
40.5521847
45.24824328
35.21164638
35.22673867
35.26703643
35.35950816
35.52360974
35.83770342
36.35600437
36.91877272
37.73519685
38.91630835
41.03928945
45.57353358
35.07762453
35.09639244
35.14569618
35.25855946
35.448395
35.81726956
36.39352897
37.01775401
37.9127923
39.19531842
41.49026037
45.24192788
44.05348338
45.15454937
45.58032221
45.3036566
41.61074108
40.41623889
44.15382966
43.26773852
40.92618926
44.79823116
44.25648047
45.47044805
47.46967359
48.45602242
41.39178956
44.9394481
44.84207301
45.49324321
43.77754335
45.79386979
44.93514579
45.01572306
38.97389053
41.42433134
48.53666133
50.48181275
44.15576119
48.09677469
48.57807326
49.28871042
44.7915962
49.98859817
48.65636061
50.62780706
50.13915097
45.98798282
47.30144396
45.52205564
46.93995342
45.07317251
48.56984315
47.05563155
41.56019243
43.65253909
45.45295435
42.67718979
40.12639041
44.94808818
42.81814136
38.79555395
44.98347666
36.81144497
39.98030327
37.02591063
39.75759764
43.09897031
41.30070443
43.06788032
47.01664329
43.71080355
44.68167343
49.36333598
49.17701086
49.0103028
47.35597721
43.35936445
56.53987516
46.41097055
54.42632523
41.49098776
43.66124973
40.30710956
44.53100914
44.17460442
61.11879747
57.03921503
49.52914767
57.41129741
58.44590069
52.77194691
57.05419911
49.79284652
45.97071089
51.93827823
45.74793961
57.61350504
52.75707624
46.59335767
55.19185436
60.9317061
49.36265047
45.2000545
49.27764214
50.61598596
48.75385564
52.18906311
45.61195279
48.30553306
50.51707724
46.09027774
45.96962863
47.91298443
47.81747212
41.66992298
41.49512087
43.94595024
43.80128806
44.05178038
38.95631614
38.81105283
43.24044453
45.9332189
44.67491948
46.1155966
45.85184866
46.44244493
46.20013033
44.82166564
44.97346667
44.64372525
40.44923218
46.57758402
46.72540623
46.51808743
41.29630509
41.82326486
45.46447704
42.61941815
45.38161594
45.07852897
45.76067008
45.47901473
42.75986176
42.25535891
36.66880874
37.02028533
33.81472649
34.07747188
40.62559979
44.52980107
40.44979482
41.15007188
37.16044894
37.55816432
43.23941153
39.54534475
33.49183936
33.7397176
32.96610682
38.02477807
54.40640108
54.29329306
49.54786252
50.55087748
59.6278608
59.02114174
58.57385005
52.79015903
53.40014465
51.71382466
52.54942688
58.89296054
55.38415711
53.71888973
53.54134369
53.54708565
53.7291605
55.68494737
55.89709521
50.40619676
51.42994543
59.19129607
59.67446376
43.72304993
49.44667563
48.52018249
50.3195998
49.69730882
44.3418796
47.24093225
46.60833256
48.19852981
47.45891814
50.12648893
52.71407043
52.13981708
53.40319192
52.89758416
50.61741979
46.68976556
51.14329293
50.52947093
51.94302734
51.34521519
47.08158654
40.77222149
40.25865617
41.66458662
40.95247411
39.44010266
38.93915446
40.09591059
39.59000948
45.60123601
45.00782601
46.40453014
45.80444198
43.82687703
42.13043596
44.79221319
44.19785022
36.19998266
36.53050344
42.11343228
34.26266066
34.04332337
34.57942145
34.35419225
33.928828
40.83948867
34.20000716
35.86044627
38.4406088
40.17541897
44.38860888
38.03184983
35.58148465
38.83804923
38.07312016
34.9651577
34.6825847
35.40780938
35.07388711
43.37923434
37.70082017
38.18158628
33.19305882
33.42194825
39.40035026
38.27891262
32.97223307
33.13989735
47.92889877
47.0920266
46.99050027
47.14691969
47.11524059
48.068756
46.94605691
46.78678161
46.7651045
46.5773257
43.41797935
44.0808258
44.40393658
45.39707669
47.40184807
55.75079298
60.7958289
61.61199877
57.73926575
57.81891581
56.60382683
56.44342821
53.38369831
54.48877191
54.07798691
56.25467194
56.01887007
56.58702772
48.82780327
50.06973861
55.3404305
56.79628428
62.75455616
58.81713553
62.86734154
63.23074579
60.24175185
41.97054101
44.3064279
43.75511029
48.18479702
47.93424716
44.94807623
41.53121464
41.2766773
43.29246271
42.92248146
49.20474225
51.54829476
51.1966047
53.69739644
53.33335142
51.64341212
45.9263702
48.8325987
48.53686493
50.84314208
50.49846232
47.88738992
42.69757433
43.23297654
46.45974637
45.58807139
41.99277847
42.5227232
46.37815186
46.90550404
48.20134232
39.80843519
39.65261355
41.05605709
40.85626766
37.35780316
39.42175825
39.29278045
47.50575888
45.64227745
46.19539762
36.76461333
39.15221952
39.01879709
33.90601969
35.7163171
35.6092172
36.05779643
35.84574003
33.99318264
33.05679771
33.00401289
33.58092072
35.34177655
35.24391032
35.52029396
35.42907826
33.65473105
33.19067202
33.11390654
34.07748238
33.35230039
33.01426594
55.35174239
52.373694
51.84941426
55.16835912
62.37259912
63.91640202
56.15484983
61.14403037
65.11595972
60.26738321
58.32385343
55.33019223
54.91976251
53.9729199
56.24905099
55.81892301
55.53566527
64.01293928
63.70846876
58.22261799
64.45527537
66.64528658
60.10473283
63.78320651
63.98017491
46.72942361
46.56012819
43.68456607
44.50640399
47.53458145
47.3583123
42.0495044
41.77929093
42.61290692
42.32110197
52.25593387
51.89891884
49.64702398
51.12509201
52.97436536
52.61484854
49.49049277
49.17537788
46.34036877
47.46070588
50.15306233
49.82444092
40.5950978
37.58099441
37.74280574
37.28898257
37.43859804
40.42789531
41.36896237
38.27767335
38.51782204
37.90254784
38.08265547
41.14793032
39.26065966
36.43521825
36.58953472
36.18244676
36.33353099
39.12969526
39.92562349
36.99941312
37.15086912
36.70807286
36.86652295
39.76611869
40.21256796
40.03423391
45.4048455
43.2310289
43.42946969
42.82224367
43.00330141
45.1982138
40.63017578
40.43525548
38.58993983
38.4926546
43.54336865
41.42039161
41.4914828
38.87212488
39.36361799
42.80520344
44.61356064
42.4279717
42.57772153
42.02785835
42.13486326
44.36808555
39.04209595
38.9444014
36.26710388
38.55475458
38.42198617
38.86283005
38.73946425
36.45197755
34.20526647
34.09615315
34.50737417
34.41020865
33.88269034
33.80667258
34.42816871
37.13940948
36.45854937
38.12376185
37.85124878
35.58836935
36.29845712
34.76768959
35.48996559
35.86016039
38.60515797
35.93248571
36.09969849
35.63902987
35.8573656
38.52869542
34.87329949
34.76640633
35.28788861
35.17283922
33.27380865
34.9653151
34.85405191
35.15461605
35.05065168
33.33577101
33.03103674
34.56393147
34.36060952
34.77590249
34.64743599
33.07355573
36.71401524
36.75177204
36.84027062
36.76734617
36.82954984
36.87989852
36.85262347
36.93354804
36.93648958
36.95685721
37.02010278
36.99426388
37.03535969
36.60031089
36.67924059
36.72767424
36.71299538
36.82722728
36.82169477
36.86593187
36.98131431
36.9388089
37.01743658
37.11182083
37.03520453
37.1363293
36.53552257
36.67738575
36.67267313
36.72774612
36.88905827
36.83637839
36.94520423
37.11629809
37.0055018
37.17240419
37.32746206
37.15056003
37.37054245
36.52660885
36.71941327
36.6829305
36.78970927
37.021894
36.9157119
37.10698087
37.38328709
37.16884876
37.4812983
37.78618013
37.40913299
37.8768684
36.55434445
36.81408335
36.73849564
36.9108032
37.24446573
37.06902811
37.37427957
37.84044302
37.47605134
38.02961198
38.7480136
37.94983407
39.0218479
36.61182197
36.95105941
36.8448903
37.08097703
37.54864019
37.3147504
37.74164114
38.51345155
37.99230229
38.87372452
40.97619518
39.09790935
40.22379733
40.82106535
39.80369273
36.69443861
37.12038716
36.99285919
37.28572022
37.89418662
37.63652872
38.1519039
39.22950201
38.70198212
39.33806882
39.90834009
39.62588828
42.37835518
43.03437936
42.5484978
36.79191988
37.2972604
37.16461708
37.49339336
38.21652141
37.97739233
38.52328017
39.8000561
39.38662012
40.11299733
40.84852977
40.64794536
44.39583947
45.53217599
45.3439439
36.89399882
37.46788926
37.34061873
37.68936438
38.50102431
38.29087743
38.84303309
40.25185085
39.92081779
40.68238926
41.49931889
41.35205038
45.3323682
46.64813671
46.61337787
36.99636669
37.62849233
37.50814543
37.87113264
38.75662141
38.56644329
39.12848194
40.65579517
40.35368617
41.15945617
42.04358271
41.90379547
45.5564385
46.10927966
46.27534865
37.66501902
38.81620195
40.75259937
41.62461945
42.77983194
42.39574437
45.17799199
44.97571122
45.21715778
45.14193592
44.90000969
43.84828124
46.59102355
46.47392972
45.05036063
46.32549331
46.45999824
45.58027521
45.294334
45.51558133
45.35836905
43.29486423
41.28155235
40.52013923
39.96880933
41.0806945
41.19756223
41.03022211
40.269873
43.81527364
41.75483868
42.02410448
41.32831709
41.6580162
43.69514332
41.77589859
41.63755289
40.80450349
44.60910055
42.42165682
42.64329472
42.1073597
42.34508975
44.53051177
46.61647385
46.64763732
45.40633544
47.63040123
47.59983353
47.4923949
48.10751141
48.03733772
48.32924943
42.31599158
42.15873369
41.26580227
44.93363069
42.99511019
43.19229067
42.716209
42.92628912
44.92249464
45.85657973
46.04897519
45.52824284
44.15385531
45.38218474
45.21625993
46.31976057
46.16557305
45.56681942
43.25222468
43.40217985
44.90046083
44.63367187
44.89219151
45.11623108
39.63457017
42.4139968
42.35884854
43.5951378
43.39803442
41.01303314
48.91123747
51.15321124
50.26975178
52.69915278
52.6891915
50.26687129
44.68639535
45.25852073
44.62703094
49.65203612
49.02821341
47.65734738
48.91917072
47.11732331
47.148254
47.01216974
47.09710537
49.02183121
44.93412707
46.40316792
45.93373174
49.83298341
50.00209319
50.48821898
47.77245636
48.30058806
48.92526762
50.68017086
52.34837355
52.63259304
50.64724656
51.11761489
50.27829385
46.19044842
46.60717419
46.46315349
47.37994905
47.26237072
47.12746193
45.55925693
46.49885139
46.59399987
46.81713309
46.28565698
46.43651529
44.22902094
44.38053669
45.20751779
48.29870866
47.08078737
47.59916044
46.59080283
46.74596565
47.17642952
41.98824761
43.97453639
43.78512833
45.04793401
44.8778486
43.27601989
45.40852493
45.58597248
45.79057932
42.53653522
41.16625381
41.31516567
38.15274919
38.30519474
40.27821816
44.81220574
43.92377514
44.08030246
41.46684387
41.61688711
42.95875568
42.28092222
44.54462369
36.64856331
34.24734656
34.35354074
39.83545564
37.87716487
38.01366356
34.53180116
34.87788504
37.3209714
40.42544381
40.17868692
39.55612134
42.46635943
40.7820287
41.20648193
40.1052564
40.62750197
42.21025101
43.9252596
43.49983971
42.73921732
45.75771414
44.15592186
44.91750411
43.09515098
43.87987756
45.23883689
45.8587823
45.6800557
44.53493632
49.49184871
46.71187229
46.95622842
46.33029605
46.62720988
49.48679231
48.42943865
45.83185375
46.22491706
45.12720469
45.68539918
48.20076806
43.61967154
44.62392624
44.29810591
47.3914938
48.38605003
47.00772501
58.46551038
56.26455463
52.9792278
41.75150254
42.74521609
42.21825283
42.54060656
41.62772571
44.88782299
43.01482146
42.51580553
42.80442681
42.54672208
39.83096783
44.41196194
43.71756701
43.88738963
43.39574022
43.57343907
44.29622173
52.01382423
51.38868363
49.23774529
55.45061223
56.0581578
59.06965117
50.03650594
52.61603831
52.18819493
46.93481852
46.09146602
45.3038004
49.03532839
47.21588857
48.42170932
45.27794282
45.95127407
48.08305268
56.92008707
54.2963222
54.83654305
51.00436372
51.65316871
53.66159293
47.14894796
48.43577107
47.69333464
49.24918159
49.82804797
49.65292568
49.0088814
48.47975502
49.04455381
51.84950112
52.23341548
50.66520009
50.40413305
51.26990779
51.71070948
45.41472854
45.56015819
46.21649469
45.84125281
45.12210401
45.26926392
47.67847876
47.80010833
48.01345913
47.71319664
47.43076364
47.55563872
40.23996991
40.4035179
41.82328377
41.29707248
39.75480019
40.01599403
42.72458016
42.9347504
44.09047707
43.65921767
42.37515956
42.54032663
43.23128109
37.06621415
37.21043023
39.10734455
38.65067975
36.78289116
36.94497519
43.79848935
44.31452624
45.70463982
45.54518811
44.27976756
46.0293169
45.91651101
46.03453357
45.67411063
45.79625531
45.94131827
46.36360645
46.37452157
46.48314439
46.15037539
46.26416192
46.28271547
45.39245485
46.01787288
45.86065836
44.86598819
44.335772
44.48167632
44.03443741
44.18945576
44.75672853
40.87443241
43.20340794
42.99053548
46.88194034
46.7459801
46.38466208
46.65995157
46.78866664
46.88493833
46.58745438
46.68971065
46.59071196
41.48255961
43.1853153
43.01481063
43.5168256
43.34816602
41.64279477
45.33248669
44.52836674
44.67829109
44.34956011
44.16292603
42.14620167
45.28246055
44.90016292
45.03537505
44.62316061
44.76281785
45.18140239
45.66827759
45.4246322
45.55012983
45.16773717
45.29722458
45.57441228
43.15019121
44.7055076
44.53010524
40.86835
41.01441214
42.39548104
39.44893894
39.30574895
36.90595766
40.44110571
38.47994378
38.70640733
43.58555456
43.76610656
44.67972676
40.79118393
42.49883489
42.26203568
42.85433831
42.67192373
40.93454395
37.28552833
39.75076622
39.60230512
40.05596183
39.9044785
37.4260792
43.09928174
41.76790378
41.91786761
37.60776177
37.74449249
39.69145647
37.6896504
35.50959826
36.14748022
51.64813905
49.45926258
48.10152734
47.99023617
50.16214018
52.03637881
55.00363381
52.68035202
56.70734046
56.68545497
58.18445745
53.01870203
54.78421945
54.5988606
54.96307255
54.90863907
53.22099788
52.00611517
53.67832526
53.24267967
54.36312359
54.05424212
52.28192126
59.08418663
56.44899386
56.66301547
53.69689974
54.57608951
54.68915021
54.12734698
54.3711717
53.64138885
53.65016384
54.92235536
54.96265287
54.75999766
54.85198936
53.70563549
53.34471286
53.83607481
56.45673362
50.77148822
51.9792448
51.53175107
52.80726331
52.38032057
51.07572562
49.20271398
48.2359571
48.53140357
46.82926622
47.50545389
48.87696236
50.11754323
49.44201964
49.6809803
48.92558076
49.14671087
49.89973652
47.02673511
44.97444727
45.21430812
44.5096458
44.74069622
46.81600142
47.92567587
45.989305
46.33527813
45.45765117
45.71188483
47.68457218
52.52583085
52.59558943
52.85702143
52.06766659
52.33245152
52.33414582
53.24511632
53.62680326
53.87798366
53.11667847
53.37339415
53.07533062
50.94039436
50.47838907
50.73846446
49.9546159
50.20933924
50.73386276
51.74475673
51.53338573
51.80012273
51.00337292
51.26632267
51.54524323
46.2048087
44.07794896
44.28855394
43.65079902
43.85849262
46.00326258
41.97181791
40.56978996
40.71538588
39.01668055
39.40081256
41.07310815
38.8619034
41.26605122
40.95701171
41.99622822
41.64054823
39.48887558
44.22261361
43.16329908
43.3883004
42.06833973
42.2196219
43.51891283
37.84231196
40.36826405
40.21113198
40.72301919
40.53546279
37.99977256
39.25204739
37.33735002
37.47664869
36.39983511
36.65273073
38.48982648
47.79495865
47.7008404
47.78304524
47.06434928
47.42827039
47.48219395
47.30252748
47.3684992
47.02983064
47.14216231
47.61433297
47.64883893
47.5310131
47.5747356
47.13138393
48.20363533
47.96287248
47.88227346
46.8973439
47.15138856
47.22997872
46.97836626
47.06726805
46.84404944
46.94865373
47.13998323
47.01302433
45.99308932
46.13853671
46.70056217
43.61253656
45.18760461
45.01504959
45.56378083
45.36831193
43.82609236
44.78320495
46.00488819
45.77900464
46.41065419
46.21939009
45.13694702
47.28725386
46.89558841
47.03820734
49.27456737
50.04655526
49.4555171
51.0888713
50.56190609
49.6560906
54.55114565
52.25943197
52.84983369
42.87456208
44.51434003
44.34862584
44.84659419
44.67994658
43.05181088
46.33533164
45.70432165
45.84881033
44.82612599
44.97512353
45.7187438
42.17202046
43.85047344
43.68230575
44.18322265
44.01659344
42.34566243
46.55293604
47.35512778
47.20669292
47.64880614
47.50294871
46.7310162
48.10514954
47.91967882
48.03858126
47.17364854
47.30373735
47.61411695
45.82570043
46.74670122
46.58772084
47.05539406
46.9043278
46.02104287
36.86669671
36.86860745
36.95589845
36.87158736
36.87629041
36.95788651
36.88121312
36.88885893
36.96243459
36.89917331
36.91239754
36.97006264
36.92853665
36.94716064
36.98136781
36.96806671
36.98870946
36.9938316
37.00480357
37.0126489
37.00366098
36.68787291
36.6895748
36.77653503
36.69315864
36.69872998
36.78256687
36.70630982
36.70608829
36.81693144
36.78395447
36.79115044
36.82687755
36.81851643
36.8310873
36.85780574
36.87461946
36.893143
36.9063962
36.95045842
36.97008717
36.96832184
37.01335118
37.02387033
37.01554078
36.51462132
36.51911129
36.6029856
36.52751015
36.53995147
36.61762084
36.55709922
36.58168427
36.67125848
36.65214312
36.6677884
36.69502162
36.73073936
36.7580252
36.76985236
36.85265908
36.88543448
36.88174693
36.97809712
37.00678967
36.99186285
37.07427877
37.09090406
37.06737361
36.34695356
36.3562295
36.43557175
36.37250375
36.39715162
36.46624889
36.43253137
36.49679192
36.55545195
36.56130675
36.5931013
36.60574681
36.71484925
36.75839018
36.75350263
36.89612664
36.94303867
36.92164276
37.08005521
37.12276624
37.08373239
37.23069879
37.25752408
37.20236087
36.18789329
36.20509596
36.27822829
36.23411987
36.27773069
36.33409794
36.34316644
36.46695881
36.48254382
36.52450911
36.57894763
36.57778871
36.75152206
36.81505151
36.79645407
37.01586522
37.08580992
37.04105744
37.3029652
37.3752904
37.29459612
37.57553579
37.62672525
37.50810922
36.03823666
36.06751931
36.13405261
36.1157675
36.18780074
36.22872186
36.29382966
36.47760298
36.46722666
36.53620855
36.60709943
36.59647635
36.84343914
36.9309308
36.89540487
37.22634879
37.33742753
37.26150279
37.71804303
37.86247157
37.70998556
38.3262452
38.46982228
38.19453482
35.89800724
35.94497905
36.0039575
36.01856096
36.12740733
36.15391045
36.27957866
36.51269811
36.48373016
36.57973425
36.67295104
36.65348605
36.99089246
37.1125654
37.06234637
37.54856167
37.72575955
37.61674017
38.42105421
38.73765484
38.473357
35.77108688
35.84061772
35.89030976
35.94424187
36.09313757
36.10743639
36.28791768
36.57102647
36.52574057
36.65037183
36.76909848
36.74384354
37.18068368
37.34227358
37.28370162
37.94756194
38.20916863
38.08698749
35.66001861
35.75427536
35.79443361
35.89001384
36.07740702
36.08311388
36.30895929
36.64484766
36.58853102
36.74241862
36.88717907
36.85666927
37.3903229
37.58927608
37.52818713
38.34410723
38.67428692
38.56480002
35.56478673
35.68509475
35.7158917
35.85264208
36.07579887
36.0749991
36.33930278
36.72576063
36.66445423
36.84264701
37.01079063
36.97969101
37.59298986
37.82250188
37.76612428
38.68855279
39.06480988
38.97364404
35.48516358
35.63070682
35.65286478
35.82830033
36.08339153
36.07805687
36.37721568
36.80939386
36.74581719
36.94564677
37.13428828
37.10258579
37.78262835
38.0366648
37.98353001
38.98913407
39.40028075
39.31943679
35.60146255
36.0879794
36.82730069
37.04889598
37.25416289
37.22037461
37.95730702
38.23239596
38.18317743
39.2633503
39.70875047
39.6316867
41.98314967
41.54714987
41.21891272
40.23526782
40.49755043
44.04517689
43.2201516
43.32237586
42.48846853
42.63275763
43.42332675
44.74474714
43.93390835
44.00722836
43.41915686
43.51420406
44.35397784
44.94078715
44.3725281
44.40692157
44.07419936
44.13771904
44.87803993
43.90302799
44.564649
44.45451511
44.43673027
44.46400023
44.92628272
39.18131096
40.6263241
40.48360123
42.48131792
42.35802607
41.28813677
48.69536747
48.23846628
48.17421946
48.53979371
48.50807852
49.20603763
48.60958576
48.7219035
48.74810982
48.48029122
48.3846971
48.49730486
41.69795299
42.72166631
42.59912713
44.34953305
44.23849847
43.52686258
40.34008427
40.19962485
38.63993218
44.95934881
42.90885115
42.16588321
42.33504646
40.87504111
41.10952238
41.62202491
46.64186486
45.83533413
46.15572054
43.46281344
43.86842644
44.18073059
49.43041178
48.55751422
48.55520166
48.02532105
48.16323063
49.32523521
48.82878054
47.7271987
47.88414056
46.44453871
46.71361898
47.6662673
43.99090109
43.50395218
43.23329147
41.48286589
41.34912805
40.15807317
50.96901611
49.67955681
50.36822056
45.57610492
46.09846283
46.43784149
49.49334424
49.58991793
49.460872
49.18470967
49.27699737
49.38666004
46.3522472
45.41373617
45.20329136
45.18943533
45.08747241
44.53807608
44.98649742
45.35302111
45.28143063
40.59328676
41.73923312
41.60549622
43.46270789
43.33895312
42.46842341
42.89337155
43.69307285
43.57627988
36.72493722
36.7570297
36.74783239
36.77886622
36.76652811
36.73684394
36.83342494
36.79879426
36.80850763
36.78648847
36.80712156
36.79123973
36.84231891
36.82266558
36.80598744
36.86882798
36.84373271
36.85937514
36.88050974
36.88398638
36.86098137
36.93133214
36.90545328
36.90644445
36.92183078
36.91046565
36.93107741
36.98116659
36.97405735
36.95225173
37.00881969
36.99259127
37.00167996
36.98631146
36.98799881
37.00056208
37.04894541
37.03472042
37.02249361
37.04257907
37.05813834
37.02195931
37.03077776
36.62274516
36.64350781
36.62460063
36.69080125
36.6652943
36.6488808
36.70979708
36.68578747
36.7071443
36.75146202
36.75140041
36.71931668
36.82246688
36.78695112
36.7890656
36.79399554
36.7870484
36.82056076
36.90506223
36.89300715
36.85717646
36.96250518
36.92785029
36.94339204
36.90977379
36.91670165
36.94849791
37.05200235
37.02659571
36.99519905
37.08010372
37.05477659
37.08342866
37.0146919
37.0321711
37.0549779
37.15713768
37.12042476
37.10177803
37.13453116
37.17341812
37.0780479
37.10323074
36.57962049
36.58491906
36.54696766
36.67355983
36.62766225
36.62837193
36.63694986
36.62992046
36.67185791
36.77995139
36.76738239
36.71938067
36.86703835
36.81662078
36.83382305
36.7941481
36.8034672
36.84958014
37.00209606
36.96982881
36.9181749
37.07235424
37.02130437
37.05923281
36.96383567
36.98954813
37.03555585
37.22693654
37.17001434
37.12207632
37.25582441
37.21488704
37.27875221
37.1188327
37.16244093
37.19881334
37.40649064
37.32537015
37.29257278
37.35081343
37.43787231
37.22106008
37.27953705
36.58806713
36.58207698
36.5249125
36.70344385
36.64145721
36.65225431
36.62938863
36.63375104
36.69104529
36.86367819
36.83653519
36.76845415
36.98283028
36.907873
36.94089001
36.85519939
36.88090221
36.94767481
37.1959074
37.1394871
37.0605747
37.30222939
37.21995312
37.28814345
37.10484373
37.15735977
37.23004078
37.58168736
37.46996893
37.38580706
37.63040926
37.55255819
37.68350611
37.35414161
37.44597513
37.51473345
37.95703117
37.78057741
37.7078519
37.83329073
38.03727376
37.5439105
37.67497193
36.63593751
36.62057334
36.54437139
36.78556761
36.70089277
36.72257545
36.66583154
36.68201356
36.76069869
37.01389928
36.97089747
36.87543155
37.18082052
37.07235115
37.12463166
36.97984004
37.02341897
37.12195029
37.51528833
37.4223096
37.29690254
37.70426431
37.55844027
37.67036629
37.36562268
37.45584452
37.58260358
38.24011861
38.03704151
37.86351313
38.41399659
38.2198902
38.48128417
37.83098561
38.01550211
38.1775126
39.30006353
38.84873099
38.63634433
39.01634782
39.71081726
38.28011569
38.61227656
36.71749116
36.69458578
36.59510145
36.91390049
36.80064842
36.83033372
36.74633812
36.77223532
36.87789961
37.2220716
37.1670159
37.03548034
37.46833327
37.310355
37.37680164
37.18364758
37.24453971
37.38909553
37.9609243
37.84231217
37.64429406
38.33186262
38.06893565
38.21469159
37.7940645
37.92591372
38.15448284
39.33174507
39.0217993
38.6446845
40.01521247
39.46155338
39.9030177
38.75908632
39.11710172
39.5667971
40.48825473
40.34784324
40.63628583
36.82651954
36.79747037
36.67193325
37.07658213
36.93193831
36.96803164
36.86398191
36.89623497
37.03283525
37.46700088
37.40503379
37.23336515
37.8084708
37.59519175
37.66815754
37.45056968
37.52080466
37.72068816
38.45073914
38.33211357
38.05110023
39.06225106
38.66342756
38.80375573
38.36767519
38.51645311
38.88519293
36.94876864
36.91771935
36.76678031
37.25318338
37.07926504
37.11660263
37.00494408
37.04215621
37.20905766
37.70860859
37.64938303
37.44206062
38.13908942
37.87972144
37.94761474
37.73939675
37.81031265
38.05940647
38.87856775
38.77865222
38.43527575
39.67109154
39.18373039
39.29713821
38.93738765
39.06420171
39.53390767
37.07272143
37.0414633
36.86784374
37.42562234
37.22670243
37.26332738
37.15359099
37.19044621
37.38357138
37.93172448
37.87724352
37.64116977
38.43257304
38.13888725
38.20008684
38.01314753
38.07705049
38.36298259
39.2374736
39.15235845
38.7666749
40.14512003
39.60459218
39.69959408
39.40436485
39.50673247
40.0360021
46.64238328
46.11701764
46.13833849
46.06045187
46.08869089
46.62967673
37.19392945
37.16197451
36.96870242
37.58738887
37.36744961
37.40380815
37.29830995
37.33505184
37.55013282
38.13607917
38.08481106
37.82508811
38.69355521
38.37199222
38.4288749
38.2583862
38.31756284
38.63212611
39.55652437
39.47830139
39.05838224
40.55426655
39.9692914
40.05724691
39.79115851
39.88142693
40.45615669
46.16732827
45.95991039
45.91956789
46.02884557
45.99291664
46.22257024
37.43547761
37.47187882
37.70543337
38.48190123
38.53639301
38.87676542
40.14254382
40.23025528
40.85382441
45.05859061
45.18549738
45.12315224
45.29930287
45.24453813
45.13916931
46.37318107
46.08875183
46.05741569
46.1374034
46.11253713
46.41806069
45.36963584
45.40892163
45.352561
45.5139133
45.45908604
45.44329523
42.22008885
41.96040598
42.47389026
41.05888721
41.45047459
41.72771823
40.84493783
41.08294139
40.71959523
40.31837128
40.37567326
40.07813674
41.15050749
40.80184242
40.62933361
40.96047892
41.32386156
43.00465168
43.11570954
43.93228027
42.62414341
42.52986988
41.93761461
43.56212747
42.76407158
42.88919551
43.77613524
43.85768226
44.68113871
42.49594373
43.12935184
43.04999932
43.28254675
43.2069513
42.57080667
42.18835594
42.80132658
42.71348277
42.9690923
42.88585722
42.2677749
44.44500001
43.60424244
43.69267773
46.63325157
46.18445205
46.18787293
46.15875409
46.17168357
46.64321927
44.29334198
44.3358383
44.93959482
43.05836624
43.6865087
43.62669361
43.80000456
43.74461623
43.12720114
42.78573788
43.42740327
43.35645907
43.56267917
43.49675182
42.85789711
44.90431705
44.19452516
44.24725209
45.92244407
45.79932375
45.75223777
45.88279653
45.83902845
45.98643062
44.7778153
44.66883506
44.0280039
43.31441176
43.90235955
43.85255566
43.99200183
43.94853069
43.3520197
44.91218121
44.48854003
44.51057289
44.72066691
44.94623487
44.88617977
45.06664784
45.00118935
44.80569466
40.92373394
40.75303384
39.41056932
41.70270015
41.89864872
42.3992525
41.15153846
42.23862497
42.11197798
50.88157261
50.07659376
50.26217539
49.75032891
49.90907729
50.59650788
52.73104965
51.81262274
51.83489525
51.6418223
51.74925048
52.73651708
48.35950763
48.3007326
48.80953443
47.13392683
47.73287074
47.75491621
47.68003879
47.70763896
47.14356761
47.05976884
47.7895225
47.77526666
47.7746501
47.78624989
47.07272767
49.11241426
48.46416079
48.41424284
50.16501718
50.1497642
50.01737518
50.39861433
50.26821563
50.32790125
47.94702051
48.5008344
48.35994623
48.78325561
48.64193907
48.12307064
48.83281854
48.83332194
48.94527279
52.45509175
51.75943189
51.69382356
51.83045906
51.8037022
52.55117192
50.80575647
50.63999054
50.51389913
50.86979107
50.75073788
50.96180707
46.53477321
46.1720856
46.15415522
46.18734042
46.18125784
46.56651333
48.15615987
48.27092093
48.39137618
47.25400872
47.9364224
47.79350883
48.21923645
48.07840976
47.42706942
42.96581
42.84083848
41.83946672
43.40195483
44.13311486
44.02125123
45.65554629
45.61466117
45.56125977
45.70980033
45.6591314
45.72323045
42.18741188
41.3868299
41.53610666
44.82304857
41.78755908
41.98498816
42.69948118
41.92831108
41.3494756
41.5768448
45.11676768
45.49310101
46.22186599
44.42794249
44.83474045
44.48814624
45.44448925
45.14399542
44.67319888
44.12523888
43.7080731
43.5551722
44.68036983
44.28744488
44.71239826
48.48129252
48.53481635
49.47446191
46.79733764
47.61786071
47.53120944
47.74413237
47.68911397
46.87866608
46.43685284
47.22554083
47.10771469
47.43641529
47.33115381
46.53074625
49.42729362
48.28540998
48.39697762
47.37570002
47.56212705
48.63892591
45.97796044
46.70911362
46.54224364
46.98830074
46.85045018
46.10081509
45.33531778
45.95413027
45.70424406
46.36929348
46.16569215
45.51025614
47.94623366
46.95321445
47.17682639
42.0008906
42.36054572
42.25030867
42.13930333
42.39621908
44.12646047
43.88480467
44.33223386
42.88132589
43.20888948
43.47611699
42.85215462
43.04014728
42.63960568
40.0060345
41.21655026
41.06267614
51.8171206
50.76127657
50.92996057
50.42716157
50.60430381
51.61620236
52.49510853
51.37760806
51.52146078
51.07886292
51.23788786
52.35553471
48.17388942
48.98558978
50.08837007
48.88549686
48.21979203
47.92530705
47.14833148
46.74442855
47.39477867
49.45506877
49.6212485
49.48665118
49.89091152
49.75103056
49.64871349
49.05599655
49.16743183
49.10139749
48.66184397
49.06579014
48.92444788
49.34764889
49.2068551
48.84900977
51.98371732
51.47191213
51.37846598
51.62996789