/*--------------------------------*- C++ -*----------------------------------*\
| =========                 |                                                 |
| \\      /  F ield         | OpenFOAM: The Open Source CFD Toolbox           |
|  \\    /   O peration     | Version:  v2012                                 |
|   \\  /    A nd           | Website:  www.openfoam.com                      |
|    \\/     M anipulation  |                                                 |
\*---------------------------------------------------------------------------*/
FoamFile
{
    version     2.0;
    format      ascii;
    class       surfaceScalarField;
    location    "1";
    object      meshPhi;
}
// * * * * * * * * * * * * * * * * * * * * * * * * * * * * * * * * * * * * * //

dimensions      [0 3 -1 0 0 0 0];
oriented        oriented;


internalField   nonuniform List<scalar> 
5999
(
0
0
0
0
0
0
0
0
0
0
0
0
0
0
0
0
0
0
0
0
0
0
0
0
0
0
0
0
0
0
0
0
0
0
0
0
0
0
0
0
0
0
0
0
0
0
0
0
0
0
0
0
0
0
0
0
0
0
0
0
0
0
0
0
0
0
0
0
0
0
0
-5.838606149e-09
1.758823211e-08
0
0
0
0
0
0
0
0
0
0
0
0
0
0
0
0
0
0
0
0
0
0
0
0
0
0
0
0
0
2.742586718e-08
-1.79671876e-07
-2.454587332e-06
1.138916503e-06
9.398246651e-06
-1.048448189e-05
-2.140943726e-05
1.489359624e-05
1.228113917e-05
-2.779432001e-05
-2.109887165e-05
3.116614826e-05
0
0
0
0
0
0
0
0
0
0
0
0
0
0
0
0
0
0
0
0
0
0
0
0
0
1.315448289e-06
-1.567580094e-07
-6.543619771e-06
1.181652223e-06
4.391455311e-05
-1.068659249e-05
-6.697207542e-05
1.529206984e-05
7.933770858e-05
-3.083838971e-05
-0.0001031883393
3.606662289e-05
5.548670776e-05
-4.988517921e-05
-6.784363038e-05
5.345438638e-05
0
0
0
0
0
0
0
0
0
0
0
0
0
0
0
0
0
0
0
0
0
0
0
-4.38042711e-07
-3.182217074e-08
4.974223244e-05
3.532368173e-06
-7.044152888e-05
-5.331421381e-06
0.0001502589724
1.146777568e-05
-0.0001795462005
-1.397665569e-05
0.0001764709449
1.986577715e-05
-0.0001990486736
-2.094798362e-05
0.0001012324027
2.161680843e-05
-0.0001101150793
-2.118413939e-05
0
0
0
0
0
0
0
0
0
0
0
0
0
0
0
0
0
0
0
0
0
1.289045084e-05
1.444416262e-06
-2.069556705e-05
-6.20732462e-06
0.0001446633621
3.847617874e-05
-0.0001680405482
-5.373066307e-05
0.000267606181
0.0001075932071
-0.0002904096222
-0.0001261748223
0.0002582963943
0.0001617895595
-0.0002761443141
-0.0001661536898
0.0001284099301
0.0001743582176
-0.0001330226743
-0.0001740319176
0
0
0
0
0
0
0
0
0
0
0
0
0
0
0
0
0
0
-3.858883067e-07
-1.929706226e-09
-8.085358204e-08
4.583379498e-05
1.264457333e-05
-5.488043524e-05
-2.858631914e-05
0.0002247038424
0.0001066660562
-0.0002403561044
-0.0001397035991
0.000345281297
0.0002387231937
-0.0003581128398
-0.0002669197103
0.0003034265231
0.0003273058022
-0.0003052674246
-0.0003388776639
0.0001442035691
0.000349596888
-7.806190664e-05
-7.792581233e-05
-0.0001608013928
-0.0001770113454
0
0
0
0
0
0
0
0
0
0
0
0
0
0
0
0
1.617051756e-06
0
-3.463355398e-06
-9.126237972e-07
-1.508441722e-06
7.328068013e-05
2.980024036e-05
-7.548133177e-05
-5.83394984e-05
0.0002731463641
0.0001849353418
-0.0002772053216
-0.0002346579745
0.0003828027722
0.0003785421736
-0.0003854783011
-0.000418398255
0.0003104466325
0.0004910026757
-0.0003105111653
-0.0004959507117
7.553345013e-05
0.0002465109057
-7.604085476e-05
-0.0002460035011
0
0
0
0
0
0
0
0
0
0
0
0
0
0
0
0
4.49885198e-06
0
-5.674664292e-06
-3.216707477e-06
-3.821444091e-06
8.673324819e-05
4.794559968e-05
-8.910200734e-05
-8.83829566e-05
0.0002919768515
0.0002603686041
-0.0002949401829
-0.0003264913666
0.000393971004
0.0005129100138
-0.0003956148241
-0.0005623781464
0.0003109143065
0.0006447016279
-0.0003109963432
-0.0006473626733
7.454525482e-05
0.0003191562869
-7.453308535e-05
-0.0003191684564
0
0
0
0
0
0
0
0
0
0
0
0
0
0
0
0
6.812554946e-06
0
-8.370005508e-06
-5.934333309e-06
-6.891842492e-06
9.49689122e-05
6.621547046e-05
-9.732847286e-05
-0.0001183063087
0.0003021944136
0.0003346867342
-0.0003050658111
-0.0004166523801
0.0003995853826
0.0006446359525
-0.0004011550248
-0.0007040157604
0.0003111244535
0.0007985355204
-0.0003112123325
-0.0008003387563
7.436584734e-05
0.0003952471641
-7.447384905e-05
-0.0001962804007
-0.0001988587617
0
0
0
0
0
0
0
0
0
0
0
0
0
0
0
0
1.006149656e-05
0
-1.199378907e-05
-1.03797141e-05
-1.178530415e-05
0.0001046665235
8.901281571e-05
-0.0001072353931
-0.000153966804
0.000313801208
0.0004170453909
-0.0003168036046
-0.0005150860112
0.0004058824609
0.000783514269
-0.0004074928431
-0.0008518737027
0.0003113056163
0.0009547292958
-0.0003113309157
-0.0009555510683
7.42432112e-05
0.0004729830681
-7.425499477e-05
-0.0002352559145
-0.0002377153701
0
0
0
0
0
0
0
0
0
1.43141057e-05
0
-1.715810939e-05
-1.822208262e-05
0.0001155740204
0.000116884466
-0.0001188136008
-0.0001957902977
0.0003263421004
0.0005071529892
-0.0003299762962
-0.0006211328103
0.0004125704972
0.0009276912769
-0.0004144757874
-0.001003722753
0.0003113723049
0.001110077111
-0.0003114725137
-0.001110073819
7.414126995e-05
0.0005502628406
-7.410590844e-05
-0.0002738390388
-0.0002764591633
0.0003099059745
-0.0003099298732
7.456915359e-05
0.0003856069809
7.429955866e-05
-0.0001916711724
-0.0001938695199
0.0004632715699
7.420795393e-05
-0.0002304630629
-0.0002327732497
0.0005404462809
7.407608915e-05
-0.0002690090469
-0.0002713720531
0.0002365302939
-0.0002363276785
7.53308347e-05
0.0007596945243
-0.0007617521143
0.0003110680845
-8.522301811e-05
8.522694896e-05
0.0003856030501
8.538492548e-05
0.0003191152243
-8.534386284e-05
0.000915859158
-0.0009169256168
0.0003112815899
-8.505708494e-05
8.506169886e-05
0.000463266956
0.0003952401554
-8.52160094e-05
-7.436819492e-05
0.0004247640152
7.437616361e-05
-0.0002111348542
-0.0002136371297
-1.977943889e-05
-0.0001071121893
1.972236851e-05
0.0002136279771
-0.0001064587174
1.969957741e-05
-9.770760119e-05
0.0001962323132
-1.976064572e-05
-9.846364367e-05
0.001071094618
-0.001071218901
0.0003112239524
-8.490104783e-05
8.490921991e-05
0.0005404381088
0.0004729522309
-8.502624772e-05
-7.401890846e-05
0.0005020143048
7.414601562e-05
-0.0002498971647
-0.0002522442473
-9.522574545e-06
-0.0001264827695
9.524667333e-06
0.0001264806767
1.970352603e-05
-0.0001173404887
0.0002352884262
-1.966811598e-05
-0.0001179833475
0.0005502585939
-8.489680112e-05
-3.835899819e-05
0.0002909979181
-0.0002910341054
3.839518542e-05
-9.423231908e-06
-0.0001458954175
9.485930877e-06
0.0001458327185
9.522968459e-06
-0.0001365416041
0.0001365335256
-9.514889968e-06
1.703141598e-05
0.0001395136982
-1.715689978e-05
-6.92994675e-05
-7.008874691e-05
-1.701275887e-05
0.0001560446128
1.699125515e-05
-7.779465432e-05
-7.822845474e-05
0.0001226286344
1.929306932e-05
-1.962398923e-05
-0.0001222977145
0.0001374578391
-0.0001375576657
1.713124264e-05
-9.70786285e-05
1.961914866e-05
0.0001938232299
-9.666417269e-05
-0.0001772258287
1.965911925e-05
0.0001772377712
-1.967106178e-05
7.443078456e-05
0.000357052457
-7.443027833e-05
-0.0003570529633
1.691505865e-05
-1.701442548e-05
-8.829698155e-05
-8.88294803e-05
-8.85752336e-06
-9.708254116e-05
8.861436017e-06
0.0001582906902
-1.708375459e-05
-7.87598785e-05
-7.945981596e-05
0.0001749942218
1.696563011e-05
-8.728223273e-05
-8.776256057e-05
-0.0001166664366
1.964551923e-05
0.0002327522484
-0.000116027805
-0.0001077993158
0.0002162474406
-1.971993945e-05
-0.0001085076242
0.0004346059397
-7.424427275e-05
-0.0002161935641
-0.0002185362978
8.895621067e-06
-8.886319871e-06
-0.000107808617
-8.819913225e-06
-0.0001166677825
8.821259107e-06
-8.863683943e-06
-9.770144061e-05
-0.000107090587
8.874018767e-06
-0.0001359208777
9.54689509e-06
0.0001358969511
-0.0001270636969
0.0001270348596
-9.493737195e-06
0.0005112965469
-7.415083792e-05
-0.000254497213
-0.0002566674045
8.854876523e-06
-8.878244796e-06
-0.0001270403286
-8.823817135e-06
-0.0001359216858
8.824625206e-06
-8.809212578e-06
-0.0001173511894
-0.0001265065889
8.878695895e-06
-0.0001464597482
0.0001464889264
-9.45241009e-06
-0.0002933430394
8.657449381e-06
-8.672023758e-06
-0.0001464451738
-8.840206755e-06
-0.0001365252145
-0.0001459178594
8.679891254e-06
0.0006063041135
-0.0006093304822
0.0003108633373
8.542578701e-05
0.0003098651129
8.63108086e-05
0.0002462181457
-8.601804863e-05
-7.492327952e-05
0.0002727231337
-0.0002726821138
7.488225955e-05
-1.977812496e-05
1.978985424e-05
0.0001374461098
2.035204518e-05
0.0001230455869
-2.076899759e-05
0.000347564756
-0.0003476164577
7.448248627e-05
1.966996885e-05
0.0001749833722
1.974287631e-05
0.0001582915791
-1.974376523e-05
1.972958031e-05
0.0001560579088
0.0001395230924
-1.978751912e-05
0.0002807506992
-7.473298293e-05
-0.0002809409958
3.353138587e-06
7.4476681e-05
-3.202112957e-06
-7.462770663e-05
6.29364397e-05
5.839969608e-06
-4.997515252e-06
-6.377889406e-05
6.502509811e-05
-4.262460256e-06
-6.517785991e-05
4.415222062e-06
0.0002159124547
3.560848532e-05
-2.03996324e-05
-1.987399211e-05
-0.0001034527734
-0.0001077945421
0.0001189961615
-0.0001215223626
2.181927041e-05
-0.00014159099
9.52730572e-06
0.0001415911141
-9.527429818e-06
2.764396088e-05
0.00028349401
-2.765754469e-05
-0.0002834804262
-2.763756739e-05
0.0002910061155
-0.0002910415469
2.767299877e-05
7.056217262e-05
3.966797486e-06
1.306979449e-05
-8.75987646e-05
7.358516593e-05
3.292510554e-06
-7.352453789e-05
-1.709022731e-05
0.0001467213115
1.704613535e-05
-7.292245699e-05
-7.375476259e-05
-4.19209565e-06
4.115409325e-06
7.366185225e-05
4.141095404e-06
7.014558391e-05
-3.724506692e-06
-2.919819966e-06
-1.266103461e-06
7.822375997e-05
-7.403783654e-05
7.451004642e-05
-4.225461074e-06
0.0001492903507
-1.691717187e-05
-7.451816315e-05
-7.494524299e-05
-1.741362641e-05
0.0001301363236
-0.0001301945308
1.74718336e-05
-4.514936111e-06
4.433294199e-06
6.510674002e-05
7.903609871e-06
6.097917366e-05
-5.946343825e-06
-6.952242801e-05
4.306853906e-06
6.935666951e-05
-6.544084881e-05
6.551483859e-05
-4.58892589e-06
0.0001315488338
-1.734784242e-05
-0.0001316146178
-3.863111467e-06
-6.58401976e-05
-6.950811158e-05
3.952481052e-06
-8.861958982e-06
9.251632189e-05
-9.250807044e-05
8.853707533e-06
3.854161941e-06
8.830535959e-05
-3.860615688e-06
-8.829890584e-05
9.314547888e-05
-8.868601815e-06
-9.313883605e-05
-1.696096519e-05
0.0001656433367
1.705830578e-05
-8.254288041e-05
-8.31977969e-05
-3.687227903e-06
3.689595115e-06
8.319546115e-05
-8.319782836e-05
7.877102835e-05
-3.518387149e-06
-7.817246117e-05
3.813246804e-06
8.776745182e-05
-8.772653669e-05
8.37199298e-05
-3.712588158e-06
-8.369456955e-05
0.0001678541284
-1.695744114e-05
-8.36835702e-05
-8.417408223e-05
-8.885462054e-06
0.0001119360064
-0.0001119251591
8.87461475e-06
0.0001125805949
-8.854800863e-06
-0.0001126112561
-8.836745701e-06
0.0001022331303
-0.0001022236764
8.827291855e-06
0.0001028584267
-8.829907277e-06
-0.0001028652651
-8.846816874e-06
0.0001313524716
-0.0001313371625
8.831507726e-06
0.0001319209525
-8.842047241e-06
-0.0001319257221
-8.926411678e-06
0.0001216307512
-0.0001216137904
8.909450924e-06
0.000122231937
-8.937547405e-06
-0.0001222208012
0.0002933746887
-0.0002933875751
-8.898605585e-06
0.0001410543498
-0.0001410357063
8.879962116e-06
-8.923536287e-06
-0.0001415660593
1.251806319e-05
0.0001166448795
-1.190185481e-05
6.330313709e-05
-6.32871513e-05
5.823983816e-06
9.561364079e-06
0.0001222391331
-9.568560196e-06
2.76802058e-05
0.0002450779417
-2.769648592e-05
-0.0002450616616
-2.766924278e-05
0.0002522878045
-0.0002522969625
2.767840075e-05
2.770638234e-05
0.0002352686943
-2.770001331e-05
-0.0002352750633
0.0002426321928
-0.0002426390301
2.768704306e-05
9.570249342e-06
0.0001216218659
2.765449314e-05
0.0002738600172
-2.766557612e-05
-0.0002738489342
0.0002813716547
-0.0002813884642
2.766077038e-05
9.532665833e-06
0.0001410489897
1.975163541e-05
-0.0001132889316
0.0002258195884
-1.970169731e-05
2.771190962e-05
0.0002257902269
-2.770602197e-05
-0.0002257961145
0.0002327670547
-0.0002327516577
2.76909854e-05
-6.845775457e-06
-0.0001166719413
6.863517008e-06
0.0001166541997
-0.0001149704113
6.820232447e-06
0.0001149994945
-6.849315637e-06
8.839460089e-06
0.0001149670513
-8.838536532e-06
-0.0001149679749
9.48747313e-06
0.0001319352841
-9.50180467e-06
2.763073845e-05
0.0002643084077
-2.759271483e-05
-0.0002643464314
0.0002713427834
-0.000271354969
2.766667874e-05
0.0002545148877
-2.765984958e-05
-0.0002545242809
0.0002619264093
-0.0002619604943
2.766482343e-05
9.519522833e-06
0.0001313204219
-8.827776492e-06
0.0001284678441
-0.0001284933001
8.853232508e-06
-6.899889954e-06
-0.0001284232659
6.853281326e-06
0.0001284698745
6.784348678e-06
-0.0001270488
0.0001270553846
-6.790933264e-06
-6.02014034e-06
6.006198732e-06
0.000135935171
-0.0001359212294
-2.207590046e-06
0.000134198162
-5.038820762e-06
-0.0001269517512
8.835931143e-06
0.000134146987
-8.840890002e-06
-0.0001341420282
-8.849026314e-06
0.000119153579
-0.0001191218008
8.817248143e-06
-6.828054076e-06
-0.0001191424768
6.86254321e-06
0.0001191079876
-0.000117348465
0.0001173708308
-6.868141237e-06
-0.0001264688433
6.754797106e-06
0.0001264983948
-0.0001246584082
6.693593647e-06
0.0001246852144
-6.720399844e-06
8.903437566e-06
0.0001246900539
-8.903042754e-06
-0.0001246904488
-8.831654542e-06
0.0001385941183
-0.0001386052953
8.842831528e-06
-6.235738275e-06
6.21165531e-06
0.0001385007097
-0.0001384766268
0.0001364567223
-6.164567788e-06
-0.0001363122949
8.34098324e-06
0.0001440720141
-2.012310546e-05
-0.0001322898919
8.924654995e-06
0.0001438379072
-8.867123291e-06
-0.0001438954389
-4.295567465e-06
7.584063513e-05
3.421934577e-06
-7.496700225e-05
7.678495258e-05
-1.054238932e-05
-7.053813073e-05
-4.033584977e-06
6.433220325e-05
-6.449402305e-05
4.195404781e-06
6.517856219e-05
-4.398036228e-06
-6.481411094e-05
-2.927630522e-06
7.109527211e-05
2.25015889e-06
-7.041780048e-05
7.162801447e-05
-2.994739206e-06
-7.156090579e-05
3.79543935e-06
7.176057836e-05
-3.928003235e-06
6.100150677e-06
7.191797917e-05
-6.125493787e-06
-7.189263606e-05
-6.164691756e-06
7.376565314e-05
-7.374645212e-05
6.14549073e-06
6.49549089e-06
6.939840114e-05
-6.24025696e-06
-6.965363507e-05
7.141540214e-05
-7.141025499e-05
6.095003532e-06
3.618892605e-06
7.127181885e-05
4.344103055e-06
7.672329441e-05
-4.282444878e-06
6.174291026e-06
7.662010462e-05
-6.179159203e-06
-7.661523644e-05
-6.204301043e-06
7.819329741e-05
-7.819805384e-05
6.209057474e-06
7.454983229e-05
-6.150118389e-06
-7.456440566e-05
7.583226607e-05
-7.582163037e-05
6.163655322e-06
4.342190205e-06
7.584254798e-05
-6.739436292e-05
3.935224928e-06
6.762120146e-05
-4.16206347e-06
6.245850226e-06
6.76701803e-05
-6.207667795e-06
-6.770836273e-05
6.904998526e-05
-6.895384614e-05
6.399351767e-06
-2.884340326e-06
6.683938843e-05
-6.657601313e-05
2.620965031e-06
-3.363416783e-06
-6.691528646e-05
4.013892724e-06
9.107018312e-05
-4.709743903e-06
-9.037433194e-05
6.063113265e-06
9.094003922e-05
-6.086074097e-06
-9.091707839e-05
-6.242983099e-06
9.237380021e-05
-9.233477816e-05
6.203961049e-06
6.088945835e-06
8.831036045e-05
-6.102581225e-06
-8.829672506e-05
9.02584604e-05
-9.027277378e-05
6.077426645e-06
4.031697056e-06
9.030185317e-05
-9.03196575e-05
6.221444213e-06
9.564452953e-05
-6.196563374e-06
-9.566941037e-05
-6.159194291e-06
9.712607202e-05
-9.715128158e-05
6.184403846e-06
9.307649074e-05
-6.253480522e-06
-9.306599332e-05
9.504009302e-05
-9.504848432e-05
6.229835519e-06
3.600060299e-06
8.120778084e-05
-3.628262899e-06
-8.117957824e-05
6.211971835e-06
8.122060751e-05
-6.196905393e-06
-8.123567395e-05
-6.174349784e-06
8.322146071e-05
-8.323192231e-05
6.18481139e-06
7.875364797e-05
-6.199929605e-06
-7.875801941e-05
8.074718022e-05
-8.074749801e-05
6.21228962e-06
3.559929731e-06
8.066693266e-05
-8.062680209e-05
3.868047599e-06
8.609523869e-05
-3.857856181e-06
-8.61054301e-05
6.142252983e-06
8.609215606e-05
-6.135081318e-06
-8.609932772e-05
8.777580378e-05
-8.779573666e-05
6.108878713e-06
8.371857927e-05
-6.181011256e-06
-8.37119178e-05
8.528028588e-05
-8.530378231e-05
6.165749406e-06
3.781472593e-06
8.528340084e-05
-8.519682583e-05
6.026544895e-06
0.0001101124089
-6.031517465e-06
-0.0001101074364
-6.073879016e-06
0.0001119365994
-0.0001119295491
6.066828738e-06
6.000376311e-06
0.0001077800723
-5.963670398e-06
-0.0001078167783
0.0001095924278
-0.0001095771806
6.011297686e-06
6.15083223e-06
-6.161190831e-06
-0.0001149600527
-6.247840423e-06
-0.0001166470088
6.22290795e-06
0.0001126242838
-6.102025472e-06
-0.0001125961373
0.0001144523267
-0.0001144419251
6.140430619e-06
6.14666514e-06
0.0001004456875
-6.170923835e-06
-0.0001004214289
-6.168542261e-06
0.0001022565151
-0.0001022514059
6.163433038e-06
9.773203467e-05
-6.147860687e-06
-9.774336827e-05
9.982252923e-05
-9.981690027e-05
6.141036178e-06
6.186489418e-06
0.0001052157893
-6.153365386e-06
-0.0001052489134
0.0001070347863
-0.0001070973469
6.062936866e-06
0.0001028745275
-6.172745126e-06
-0.0001028703246
0.0001046521262
-0.000104654806
6.189169264e-06
-0.0001313183113
-7.025666738e-06
6.981699945e-06
0.0001313622781
-0.0001292214967
0.000129264214
-6.942607182e-06
0.0001293087417
-8.852133394e-06
-0.0001292843848
5.806328894e-06
-5.779448451e-06
-0.0001292483772
-5.859287624e-06
5.864183664e-06
-0.0001313232073
5.580384142e-06
-5.58283709e-06
-0.0001270463471
5.641767036e-06
-0.000128258704
0.0001319535682
-7.242195809e-06
-0.0001305706601
0.0001334947417
-0.0001335068918
8.848081219e-06
-2.413124842e-05
0.0001336760387
-0.0001117523803
0.0001319377115
-7.009809995e-06
-0.0001216564833
-6.654685963e-06
6.690549466e-06
0.0001216206198
-0.0001197150369
0.0001196913774
-6.804394585e-06
0.0001197349916
-8.84911593e-06
-0.000119734902
6.266115421e-06
-6.174917926e-06
-0.0001198062344
-4.512746689e-06
-1.984977453e-06
-0.0001151587592
-6.263542995e-06
-0.0001173327625
-0.0001191539535
6.277592171e-06
5.477808147e-06
-5.502518092e-06
-0.0001246336982
5.554261242e-06
-0.0001264427204
0.0001222371376
-5.393022771e-06
-0.0001213568615
0.0001240524708
5.455386412e-06
-0.0001240300491
0.0001240591961
-0.0001240572433
8.901484833e-06
6.671037412e-06
0.0001240750271
0.0001222305628
-6.648111163e-06
-6.408321265e-06
6.386269541e-06
0.0001409842987
-0.000140962247
0.0001391279734
-6.286701569e-06
-0.0001390770101
0.0001391978779
-8.846728836e-06
-0.0001391828036
0.000142886267
-0.0001428956179
8.934005857e-06
6.659308039e-06
0.0001427938449
-0.0001411121697
0.0001415001284
-6.371874968e-06
-0.0001415365747
1.968853957e-05
-0.0001034358342
0.0002062854646
-1.967974332e-05
2.775369564e-05
0.0002062694866
-2.774803754e-05
-0.0002062751447
-2.773802545e-05
0.0002136452261
-0.0002136485627
2.7741362e-05
0.0001962549724
2.775282805e-05
-2.774949761e-05
-0.0001962583029
0.0002038535278
-0.0002038377967
2.773796453e-05
-0.0001016286142
1.97003195e-05
0.0002038499645
0.0002162278981
-2.77346903e-05
-0.0002162312332
0.0002231798708
-0.0002231883153
2.772035406e-05
-0.0001112208221
1.971730254e-05
0.0002231911613
-8.888794374e-06
0.0001095808977
-0.0001095777539
8.885650579e-06
-6.825423958e-06
6.822975202e-06
0.0001095948766
6.827826122e-06
0.0001077802328
-6.82798659e-06
6.817427423e-06
0.000107045185
6.803676765e-06
0.0001052101361
-6.79802351e-06
8.828467268e-06
0.0001052629777
-8.838020042e-06
-0.000105253425
7.487042084e-05
-3.198576775e-06
-7.487395703e-05
1.682306791e-06
7.068470932e-05
-5.929722162e-05
9.990773088e-06
-9.758953769e-05
7.268931912e-05
3.111074196e-06
-7.250788276e-05
7.279116632e-05
4.013562125e-06
-4.768540911e-06
4.702015131e-06
7.28576921e-05
-4.825183793e-06
7.371849513e-05
7.783261446e-05
-1.405922712e-05
-6.503949081e-05
-4.607373294e-06
4.661368721e-06
7.777861904e-05
-4.601483653e-06
7.821787033e-05
-4.857815994e-06
7.454267862e-05
-7.490871296e-05
-4.878668786e-06
7.492956575e-05
-4.263753188e-06
6.285721829e-06
6.56005501e-05
-6.195108136e-06
-6.56911638e-05
6.731721933e-05
-6.729308671e-05
6.221717606e-06
3.767309631e-06
6.700730372e-05
-6.724820825e-05
-2.959489503e-06
6.634458629e-05
3.634141148e-06
1.305584963e-05
-8.393819903e-05
-6.55608559e-05
3.354799446e-06
3.860624573e-06
-6.337796307e-05
6.827230127e-05
2.771126215e-06
-6.718280291e-05
3.6795205e-06
6.854526182e-05
0.0001130454456
1.197555029e-05
-0.0001250209959
1.669787125e-05
4.673071708e-06
9.167450267e-05
1.422988917e-06
9.233236573e-05
-7.705748339e-05
-4.85015115e-06
4.838228128e-06
8.831728261e-05
-8.883917378e-05
-4.854460612e-06
8.884348324e-05
-3.913979006e-06
-8.878581046e-05
-4.21466492e-06
4.206318162e-06
9.672783924e-05
-9.671949248e-05
-4.208279209e-06
9.717197024e-05
-9.717835596e-05
-3.530790068e-06
9.311037176e-05
-8.815659277e-05
-4.156690052e-06
9.380561669e-05
-9.317971671e-05
8.255513336e-05
3.729247389e-06
-8.259478563e-05
-4.729791269e-06
4.721512127e-06
8.25634125e-05
-4.758907338e-06
8.322457722e-05
-4.589949385e-06
7.875949408e-05
-7.941225007e-05
-4.625099145e-06
7.944739983e-05
-3.601863053e-06
-7.932877416e-05
8.730974756e-05
3.787005551e-06
-8.728350631e-05
-4.823237437e-06
4.807170422e-06
8.732581457e-05
8.778244251e-05
-4.757428171e-06
8.371845063e-05
-8.418142925e-05
-4.772187893e-06
8.419618897e-05
-3.723141513e-06
-8.417087589e-05
-6.819460091e-06
6.816066532e-06
0.000111939993
0.0001101161197
-6.82913478e-06
0.0001100882059
-8.893522638e-06
-0.0001100834776
0.0001144316821
-0.0001144280693
8.835847258e-06
6.812941663e-06
0.0001144596175
0.0001126070482
-6.802224439e-06
-6.829087205e-06
6.823110749e-06
0.0001022624916
6.84468435e-06
0.0001004321925
-6.831189286e-06
8.857136089e-06
0.0001004180844
-8.845778964e-06
-0.0001004294415
-4.439617903e-06
4.413133486e-06
0.0001016196019
-0.0001015931175
-4.484306386e-06
0.000102242706
-0.0001021980175
-4.356431746e-06
9.771670499e-05
-9.756855245e-05
-4.32641803e-06
9.848656713e-05
-9.851658085e-05
1.423010227e-05
0.0001313102046
-0.0001455403068
-4.489879038e-06
0.0001028259927
-0.0001028204201
0.0001034438123
-4.529337197e-06
-0.0001034043541
0.000104649883
-0.0001046619476
8.840531917e-06
6.8097301e-06
0.0001046460728
0.0001028624761
-6.817035877e-06
0.0001278848591
-0.0001278534595
6.82188174e-06
-7.521914096e-06
0.0001279108379
7.495935294e-06
-7.543584302e-06
0.0001284915447
0.0001353940611
5.980724269e-06
-0.0001353685866
-7.288070607e-06
7.260171083e-06
0.0001354219606
-7.290914573e-06
0.000135938015
-7.251502092e-06
7.273157685e-06
0.0001341765064
-0.0001348303694
0.0001348390383
-0.0001338884658
-6.670523788e-06
5.573626213e-06
0.0001464181975
-0.0001453212999
0.0001469223218
-0.0001469005287
0.000137872525
6.1874988e-06
-0.0001378483685
-7.434304563e-06
7.366445305e-06
0.0001379403843
-7.477516918e-06
0.0001385439221
-7.326347856e-06
0.0001364921556
-0.0001371916566
0.000137231754
-0.0001371687256
2.234067653e-06
-2.598852158e-05
0.0001455408629
-0.000121786409
0.0001459166805
-0.0001381089866
-7.925150552e-06
7.97199459e-06
0.0001440251701
-0.0001788899936
0.0001449763215
-0.0001990130991
7.512502844e-05
-7.490167064e-05
9.586587855e-05
-0.0001064082679
-3.858563959e-06
6.422906677e-05
4.183431476e-06
-4.294926875e-06
6.408222515e-05
2.502823772e-06
-1.300470895e-05
6.556892814e-05
-2.51870363e-06
6.480055701e-05
-5.977902961e-05
-4.394073712e-06
6.429172366e-05
-8.34120607e-05
6.601327804e-05
7.074127447e-05
-6.680880879e-05
7.208040231e-05
-7.196406732e-05
-4.806169701e-06
4.883180494e-06
7.664628361e-05
-7.752420655e-05
7.737940557e-05
7.520346546e-05
-4.899586383e-06
7.522438305e-05
7.582614209e-05
-2.305168658e-06
-1.688793391e-06
-6.258205108e-05
6.698831132e-05
-5.623763035e-05
6.664978685e-05
-9.695690732e-06
-5.838386879e-05
-9.363388976e-05
-6.763521414e-05
6.795131785e-05
2.59402294e-06
-6.745811086e-05
-6.601005691e-05
-4.754664127e-06
4.852060712e-06
9.097278654e-05
-9.140594852e-05
9.13243561e-05
-8.414014213e-05
8.94656991e-05
-8.934798105e-05
-4.884528381e-06
8.949576686e-05
9.02693855e-05
-4.199886483e-06
4.195452039e-06
9.564185488e-05
-9.563742044e-05
9.623055213e-05
-9.622412045e-05
-4.18067629e-06
9.441829328e-05
-9.439430704e-05
9.50481638e-05
-9.503338805e-05
-4.712297462e-06
4.701637518e-06
8.121844078e-05
-8.18137513e-05
8.182296597e-05
-8.171276681e-05
8.0137731e-05
-8.017966432e-05
-4.635466013e-06
8.014809787e-05
8.073310417e-05
-4.824878916e-06
4.830004528e-06
8.609011307e-05
-8.682191437e-05
8.680420588e-05
-8.6892765e-05
8.465930104e-05
-8.460096996e-05
-4.802578779e-06
8.468969193e-05
8.531082658e-05
-0.0001106536356
-6.018814981e-06
0.0001106409331
4.833626157e-06
-4.860305724e-06
-0.000110626956
4.789273289e-06
-0.0001100630835
4.905201776e-06
-4.951641661e-06
-0.0001118831092
0.0001112213264
-0.0001111764303
0.0001112693401
-0.0001084404812
-5.997237679e-06
0.0001084740485
3.985229593e-06
-4.78596179e-06
-0.000107639749
-1.764290613e-06
-0.000102067258
4.753504991e-06
-0.0001095414123
0.0001090870264
-0.0001091194832
0.0001091010864
-0.0001154780566
-6.192835014e-06
0.0001155097008
5.019798921e-06
-5.025573552e-06
-0.000115472282
5.014624699e-06
-0.0001149548785
5.095113981e-06
-5.160824154e-06
-0.0001165812986
0.0001159972993
-0.0001159277589
0.0001160273723
-0.0001132832099
-6.109250256e-06
0.0001132904347
4.977629603e-06
-4.95987102e-06
-0.0001133009685
-0.0001125701494
4.96643825e-06
-0.0001143937387
0.0001139031735
-0.0001138966063
0.0001139343539
-4.405131877e-06
0.0001004301607
4.360316304e-06
-0.0001003853452
0.0001010152107
-0.0001010072091
-0.0001010441942
-6.17674468e-06
0.0001010500151
5.454682625e-06
-5.483666112e-06
5.463414502e-06
5.512321958e-06
-5.521021878e-06
0.0001016482578
0.0001016349461
-4.353186802e-06
9.91827946e-05
-9.915602583e-05
9.978858509e-05
-9.978145559e-05
-5.639251316e-06
0.0001052628753
4.590821335e-06
-0.0001042144453
0.000105867537
-9.7276686e-05
-0.0001057969475
-6.110423922e-06
0.000105754006
5.581358414e-06
-5.510768933e-06
5.595320334e-06
-1.937992524e-05
-8.948171224e-05
0.0001064195104
0.0001063720233
-0.0001034414796
-6.173866809e-06
0.0001034426012
5.565353737e-06
-5.563021035e-06
5.594560896e-06
-0.0001046540466
0.000104043747
-0.0001040122071
0.0001040590494
-4.569952671e-06
-0.0001039715916
-0.0001046331779
0.0001306972888
6.975950973e-06
-0.0001306915399
-7.587181482e-06
7.57686206e-06
0.0001307076083
-7.577472464e-06
0.0001313525691
-7.562000337e-06
0.00012928263
-0.0001300457995
0.0001300606612
-0.0001300124557
-5.796100994e-06
-0.0001299958032
-0.0001306234572
-5.538730334e-06
0.0001275105481
-0.0001275546549
-0.0001277504228
-1.800996642e-05
0.0001326089667
-0.0001218411961
0.0001641799278
-0.0001821898942
0.0001331115204
6.937159033e-06
-7.370609615e-06
7.500122556e-06
0.0001329820074
0.0001335785868
-7.557291547e-06
0.0001319175306
-0.0001325363158
0.0001324791468
-0.0001484495502
2.190906492e-05
0.0001203655674
1.612251502e-05
-0.0001645720652
6.428150189e-06
-0.0001101118696
0.000120998188
-0.0001010741005
-0.0001179827934
-6.254042821e-06
0.0001179732932
5.157205542e-06
-5.200026175e-06
-0.0001179399728
-0.0001173363811
5.199012249e-06
-0.0001179248156
0.0001185421752
-0.0001185431891
0.0001185657245
-5.528235284e-06
0.0001252855897
-0.0001252598725
0.00012588855
-0.000125862524
-5.396355966e-06
0.0001228489651
-0.0001228456319
0.0001234625492
-0.0001234035188
0.0001403326944
6.337008433e-06
-0.0001402834333
-7.608525245e-06
7.565552506e-06
0.0001403756671
-7.622974064e-06
0.0001409987475
-7.521550662e-06
0.0001391720072
-0.0001397305286
0.0001397745304
-0.0001396802217
0.0001419978048
6.339461085e-06
-0.0001416779578
-7.890060418e-06
7.709950616e-06
0.0001421779146
0.0001428757791
-7.680446689e-06
0.0001415576011
-0.0001418689093
0.0001418984132
-0.0001419013232
0
0
0
0
0
0
0
0
0
0
0
0
0
0
0
0
0
0
0
1.689110396e-08
0
3.966348647e-06
-6.259405601e-06
7.563474148e-07
-1.792088749e-06
0
0
0
6.826926904e-06
2.166564563e-06
1.645254652e-05
-1.348938024e-05
5.71432298e-06
-1.334895207e-05
0
0
0
1.91290241e-05
5.6005046e-06
0
0
0
0
0
0
0
0
0
2.918526343e-07
0
8.319574576e-06
-3.014025413e-05
1.45284766e-05
-4.435236107e-06
0
-3.643994774e-07
1.306109409e-05
2.4874669e-05
3.001565002e-05
-7.539196681e-05
5.253109917e-05
-2.413623607e-05
-6.49849499e-06
-1.715007041e-05
3.585126799e-05
5.717547329e-05
5.125196981e-05
-6.69998212e-05
5.144819096e-05
-4.663566961e-05
-2.380951923e-05
-2.406944291e-05
5.51580453e-05
4.323190246e-05
0
0
0
-3.440372998e-08
-2.655855646e-05
1.387233723e-05
1.362451121e-07
0
-1.017232274e-06
7.142415729e-08
3.161576141e-05
1.616357993e-07
-0.0001286595113
0.0001006105794
-1.646411103e-07
-6.663574448e-06
-5.034856959e-05
2.282098889e-07
0.0001211414084
1.505061915e-06
-0.0001801084995
0.000153700974
-8.576998075e-07
-2.553128015e-05
-0.0001004899243
2.393924608e-06
0.0001525305533
6.050026328e-06
-0.0001276557194
0.0001137479437
-4.719315471e-06
-4.572395831e-05
-8.294573387e-05
7.409641795e-06
9.106504995e-05
4.333184752e-07
-3.15139704e-06
6.62407455e-06
-2.584862866e-05
-0.0001054385429
8.44242377e-05
1.605062839e-05
2.133084241e-06
-4.406436436e-05
-3.751957187e-05
0.0001206108167
-8.70900132e-05
-0.0002470424849
0.0002229189219
6.745903419e-05
9.10754859e-06
-0.0001576309721
-0.0001014763197
0.0002386900613
-0.0001212249773
-0.0002748553371
0.0002509008806
0.0001156753696
1.82998929e-05
-0.0002053980881
-0.000125095388
0.0002387443748
-0.0001319065373
-0.0001679178519
0.0001598608172
0.0001305192954
2.176371351e-05
-0.0001400890745
-0.0001329865926
0.0001235761613
8.594379039e-06
-2.12475017e-05
3.614412516e-05
-8.728156681e-05
-0.0001769046184
0.0001640476917
6.178061998e-05
2.510590243e-05
-0.0001262067932
-0.0001167326098
0.0002097077039
-0.0002029044157
-0.000330188211
0.0003130318732
0.0001752225997
8.807770251e-05
-0.000270448571
-0.0002283228375
0.0003295810407
-0.0002874981786
-0.0003280451096
0.0003212106074
0.0002710033538
0.0001575732058
-0.0002986725057
-0.0002989611083
0.0002990156831
-0.0002995182455
-0.0001921250508
0.0001861307212
0.0003052670396
0.0001743586826
-0.0001755769901
-0.0002943534748
0.0001390387984
2.610397268e-05
-5.188753061e-05
6.895444144e-05
-0.0001676665955
-0.0002243223761
0.0002172384647
0.0001241994647
7.65942134e-05
-0.0001932275139
-0.0002135920273
0.0002656922764
-0.0003464493375
-0.0003717402569
0.000364816484
0.0003048325567
0.000205802886
-0.0003420664366
-0.0003838497553
0.0003773644939
-0.000454781417
-0.0003432864207
0.0003405841217