/*--------------------------------*- C++ -*----------------------------------*\
| =========                 |                                                 |
| \\      /  F ield         | OpenFOAM: The Open Source CFD Toolbox           |
|  \\    /   O peration     | Version:  v2012                                 |
|   \\  /    A nd           | Website:  www.openfoam.com                      |
|    \\/     M anipulation  |                                                 |
\*---------------------------------------------------------------------------*/
FoamFile
{
    version     2.0;
    format      ascii;
    class       volScalarField;
    location    "1";
    object      nut;
}
// * * * * * * * * * * * * * * * * * * * * * * * * * * * * * * * * * * * * * //

dimensions      [0 2 -1 0 0 0 0];


internalField   nonuniform List<scalar> 
3019
(
1.15588089
1.155850655
1.155821265
1.155799898
1.156027594
1.156027705
1.156046244
1.156089899
1.156170396
1.156302605
1.156466791
1.15665517
1.155119862
1.155031538
1.154949096
1.154895213
1.155119921
1.155157007
1.155269754
1.155552636
1.155934929
1.156557118
1.157399728
1.099884356
1.154323578
1.154176726
1.154049849
1.153989477
1.154240222
1.154363995
1.154637609
1.155208225
1.156143349
1.157640571
0.9847321758
0.8547330627
1.153513474
1.153318392
1.153163773
1.153116608
1.153414991
1.153700348
1.154350904
1.155394589
1.157346436
0.8912526845
0.7005897569
0.5924450194
1.152674755
1.152435781
1.152271836
1.152284479
1.152684925
1.153232355
1.154459794
1.156359552
0.9104259749
0.6503428706
0.4801325278
0.3731799441
1.151837525
1.151572173
1.151421603
1.151505061
1.152086526
1.153034726
1.155154261
1.069626716
0.7243535606
0.4948518802
0.327866815
0.2115167568
1.150991402
1.150706875
1.150594801
1.150824803
1.151675954
1.153153256
1.156404849
0.9213745974
0.6158058882
0.4025943782
0.2360969456
0.1072294601
1.150184289
1.149900101
1.149855795
1.150308275
1.151379345
1.153616714
1.158088729
0.8398432804
0.5702407517
0.3761406645
0.2196295965
0.08988435341
1.149433106
1.149156666
1.149208786
1.149925126
1.1512629
1.154408521
1.100253269
0.8030297981
0.5729285553
0.4078754593
0.286367353
0.2082123729
1.148794847
1.148542576
1.14871204
1.149713424
1.15141456
1.155481052
1.070836231
0.8054386722
0.6022196162
0.4652939077
0.3837696144
0.3946754537
1.148271757
1.148054746
1.148370712
1.149719671
1.151811986
1.156777215
1.060243175
0.8208812713
0.6399415782
0.5204878893
0.4608634368
0.5288363164
1.147914397
1.147738954
1.148197123
1.149880672
1.152396223
1.158238047
1.063143451
0.8467128197
0.6778659958
0.5607463587
0.4910275207
0.4872466458
0.1843909945
0.377183077
0.5159723022
0.4947513483
0.08714789044
0.3597155002
0.3647602882
0.2139189009
0.4455536467
0.4962300042
0.3821578831
0.4437856663
0.2162486906
0.246860398
0.4872791185
0.5192895618
0.5088513639
0.5298607737
0.1361822469
0.1798613804
0.5137004441
0.4749058648
0.07795699243
0.1044328549
0.07133506291
0.1739092471
0.0338441044
0.06459098252
0.2511182047
0.2822447075
0.3116469268
0.2178231402
0.1994433503
0.2025420532
0.221452606
0.1829976065
0.2117758025
0.462430671
0.1631803793
0.1357622686
0.1973571508
0.1654689706
0.1059498924
0.1343700955
0.5215152127
0.1068161432
0.07982673413
0.1342031339
0.1082813886
0.07610596285
0.4728770554
0.05273787374
0.07870654632
0.05434105301
0.2639551002
0.1923886197
0.1047387304
0.1136821304
0.07089703417
0.03990016544
0.2866594357
0.2863323207
0.1917062827
0.1719908757
0.07899775177
0.1278358414
0.042066031
0.01355722869
0.02352665681
0.0409446831
0.03301663818
0.09288250598
0.2701321585
0.256074331
0.05164456806
0.04241830261
0.10601764
0.06811311358
0.06135454156
0.04028494898
0.06756526029
0.1199001122
0.04120227409
0.0245468294
0.01548489329
0.05524627469
0.02739100195
0.04563163118
0.02617318863
0.06402188508
0.2138485314
0.03085751529
0.2130276358
0.2401637719
0.03478195427
0.0391978605
0.03129916492
0.03425380638
0.2355592997
0.1497032521
0.1479334542
0.1826576391
0.1806726037
0.09676135785
0.09482944238
0.1206244511
0.1188705483
0.2513218423
0.07129316957
0.07040694005
0.01677439824
0.01337209007
0.1515922896
0.3424866798
0.3289772029
0.3604402615
0.3469847753
0.1551339459
0.2883955878
0.2745782055
0.09424774069
0.1952493478
0.3781529387
0.3648577158
0.05995210726
0.0619968211
0.1409486592
0.1202616829
0.3065142159
0.2928969731
0.3244907002
0.3110376049
0.1221992684
0.1025874513
0.03632201785
0.03706024423
0.02094335639
0.02176343181
0.08444485281
0.1286077151
0.05561631398
0.05953243817
0.0373725388
0.03806708493
0.1126873552
0.07548278943
0.02030533866
0.02079721236
0.01988345368
0.06382216201
0.03878392021
0.04056907379
0.01580961702
0.01720283906
0.04609979269
0.04513979769
0.07063572221
0.08472291401
0.1050006426
0.06335870656
0.07931750999
0.07171713021
0.06178245714
0.1485676215
0.1356144093
0.1150392064
0.1525679896
0.06169250197
0.04041756878
0.04650250253
0.05798351403
0.03492742002
0.0392535329
0.02897258782
0.09830481498
0.08548057865
0.1053722469
0.1010073817
0.0301359832
0.07637112596
0.07396513057
0.0818352635
0.07724373193
0.03639844424
0.1240251731
0.1188957414
0.1324420546
0.125861866
0.03702525404
0.03247926809
0.1111344185
0.106888739
0.1172669167
0.1126199091
0.03284496975
0.04298925118
0.04219011125
0.04523716309
0.04326387605
0.04072933755
0.03964887899
0.04192672006
0.04100726464
0.07032383514
0.06822037713
0.07321955016
0.07105925586
0.06241406518
0.04803906401
0.06733933594
0.06511552296
0.0353438178
0.03595944205
0.1011452114
0.02086761423
0.02066597927
0.02151606748
0.02105408729
0.02002313922
0.08691660969
0.02237401268
0.03322202156
0.04026327995
0.05366961848
0.1266704077
0.03681388441
0.02362997554
0.0395082517
0.03649548269
0.02228338186
0.02175202843
0.02319866523
0.02250524814
0.1141854787
0.03830476219
0.03921559087
0.01969932567
0.02019574255
0.07449608668
0.06607491129
0.01881222557
0.01963294563
0.2295842141
0.4126284851
0.3998650148
0.4135357743
0.4169539353
0.2339160158
0.3955747439
0.3825149735
0.1992124203
0.1571012674
0.06796980288
0.07198484474
0.07522635389
0.08662419319
0.1723797923
0.04078181759
0.049377516
0.03772737926
0.04334402447
0.06905825286
0.09900991142
0.09735695155
0.0419215547
0.06913397388
0.06519298062
0.09621804
0.09411475269
0.06595972836
0.03510288755
0.04214543512
0.0367106363
0.02810911706
0.02886081231
0.02373274187
0.04841202269
0.04688782705
0.05319082734
0.02316868344
0.03365081037
0.03197420705
0.05281478979
0.05241589164
0.03059533216
0.02820395541
0.0277779172
0.03091655286
0.03018886632
0.03535350044
0.05942312045
0.05875087367
0.06341835729
0.06257640764
0.0383919243
0.03164678684
0.05414097584
0.05358573982
0.05806075115
0.0573823226
0.03376591722
0.06520395643
0.06722247938
0.155202832
0.1426112832
0.06261060632
0.06456456914
0.09400813776
0.09744395011
0.1889070426
0.02614311179
0.02600055367
0.02753228393
0.02730952643
0.01986763675
0.0257223391
0.0256205712
0.174470447
0.08900105483
0.09272816203
0.03648450159
0.0559589827
0.05547725418
0.02119145184
0.03510698037
0.03486301817
0.03641083536
0.03545980909
0.02140086279
0.02017490842
0.01996144114
0.02048750511
0.03439583218
0.03417914544
0.03471496437
0.03453780878
0.02061784869
0.0210692094
0.0204778089
0.03082919538
0.02202975934
0.01579214663
0.04052622257
0.0310060438
0.01061041014
0.01185351199
0.01879130475
0.02114212963
0.01257233322
0.01543879746
0.0148984631
0.04745326617
0.04399028947
0.08608874969
0.07665133891
0.04397572213
0.06566519177
0.09310633053
0.08915257474
0.03588942231
0.03279451323
0.03164803271
0.02328778325
0.02970720142
0.04549653408
0.04506371631
0.03930745546
0.04810563218
0.0483134787
0.03047003225
0.0301027431
0.0513538602
0.05134712436
0.02891963902
0.02851132024
0.02972014613
0.02928156577
0.0606625754
0.06001551973
0.03578036336
0.03769073652
0.06192794309
0.06129971678
0.05544419175
0.05484844117
0.03211248894
0.03325785674
0.05669164663
0.05606352304
0.04270984548
0.02484311398
0.02511471567
0.0244223389
0.02462712502
0.04245611114
0.04408829954
0.02605527195
0.02653414481
0.02537934943
0.02569109531
0.04359428578
0.04033583475
0.02320301526
0.02344527596
0.02283642029
0.02306887588
0.04009949503
0.04163786386
0.02403050372
0.02422031977
0.02360743468
0.02384385584
0.04135800291
0.02658878149
0.02640515749
0.06963162998
0.04605678505
0.04639187329
0.04532445982
0.04561513445
0.06886069324
0.02704315476
0.02683594658
0.02448464789
0.02575452344
0.06024199196
0.0414557576
0.04113883181
0.02742859723
0.02883657578
0.05355297296
0.06683492861
0.04459198017
0.04479716021
0.04384283352
0.04378758119
0.06551656864
0.02528528588
0.02533595508
0.03526668397
0.05332345961
0.05301114986
0.05476285061
0.05439591726
0.03586064342
0.02082676995
0.02058921438
0.02139665899
0.02112367278
0.02116402332
0.016653682
0.02349310491
0.0434529607
0.03873589283
0.05079181324
0.04897908109
0.03330141011
0.02568190805
0.0178212657
0.02295614042
0.02439184747
0.03881502867
0.02248730933
0.02277569666
0.02182027264
0.02254507699
0.03888680448
0.02212145875
0.02189573258
0.02293752548
0.02269442105
0.01991690153
0.0336119571
0.03325921892
0.03402779526
0.03375246915
0.01999782495
0.01935934821
0.03257285816
0.03075691938
0.03313463631
0.03256414513
0.01934722753
1.155252815
1.15579091
1.155822435
1.156018603
1.156897742
1.15638416
1.157228991
1.103791018
1.157184037
1.061878998
0.9430938436
1.115087249
0.9220488388
1.155283231
1.156423054
1.155861012
1.156909821
1.03290159
1.157198118
0.9662443451
0.8064943197
1.029297438
0.766393776
0.6760008391
0.8771194117
0.6553499311
1.156035383
1.058618641
1.156750324
0.9719865644
0.7588010766
0.9553356237
0.7021910151
0.5652841185
0.7393101052
0.5288477748
0.4434414811
0.6128353044
0.42270709
1.116013598
0.8390665616
0.9948286026
0.7657269785
0.5779547641
0.7052721303
0.5252290549
0.3953031613
0.5162885628
0.3591419598
0.2696103747
0.3942850267
0.246632948
0.9523371721
0.7038904634
0.7971656326
0.6371587865
0.4678081093
0.5447093548
0.4191313161
0.2911342184
0.3635701257
0.2527620272
0.1537965938
0.2351912967
0.1283227493
0.8560632907
0.6365655017
0.6808350836
0.576781344
0.422048649
0.4507147241
0.3765667058
0.252464622
0.2747748706
0.2157545899
0.1028790055
0.1352092137
0.09484644829
0.05760517924
0.0909281677
0.8093420847
0.6197202499
0.6281920026
0.5681539568
0.4349650905
0.4201743157
0.3956103533
0.2935723298
0.2556267635
0.2286875238
0.1987578385
0.1872125158
0.09457525875
0.08160636242
0.07385495832
0.8037432095
0.638283688
0.6222471658
0.5934823899
0.4810767423
0.4455655111
0.4500825529
0.3754623458
0.3120625701
0.3102176337
0.2906896203
0.2623680472
0.2336223987
0.2340000815
0.203681644
0.8147568379
0.6695534515
0.6452546871
0.6304188631
0.5337623518
0.494763286
0.5079428684
0.4527651942
0.3967668366
0.4064273801
0.4018698982
0.3759681888
0.4106637763
0.4209790061
0.4098490939
0.8376252439
0.704453713
0.6781114796
0.668064557
0.576846262
0.5456521104
0.5518871036
0.4961890757
0.4673196322
0.4729194252
0.4742259734
0.4622174019
0.5393319744
0.4053146716
0.4184492825
0.7139685937
0.5862413156
0.5014927639
0.4848382397
0.4907044254
0.4811250193
0.4750973032
0.3323280636
0.3464414591
0.1762856395
0.1522826054
0.1628349755
0.4007238497
0.3910998689
0.3563092795
0.4227446545
0.4355541705
0.5004776432
0.3510499712
0.3648590949
0.504415944
0.03902275025
0.05186581145
0.09035333208
0.07707815645
0.04857204622
0.3483324119
0.319651207
0.3348840631
0.3057770861
0.3011200239
0.3506898868
0.2351287175
0.2839361169
0.2832295839
0.4458351102
0.4254002633
0.4271892651
0.4493229304
0.4188497167
0.459572034
0.3637486494
0.4106810636
0.4325077339
0.4562537877
0.4333057245
0.4268353392
0.2208307378
0.2833431599
0.278780578
0.3098691208
0.3055120531
0.2425560829
0.4848380755
0.4815711672
0.4814569754
0.5300122098
0.4807655534
0.4926973377
0.46071435
0.4879683248
0.5296861533
0.3875046396
0.400919371
0.5382644403
0.1419065491
0.2139685779
0.2100942162
0.2395802226
0.2346547638
0.1746067932
0.4802387487
0.4838346891
0.4871330558
0.3136572444
0.3277197901
0.4716336527
0.08562154276
0.1505033742
0.1527042978
0.1736787112
0.1695405593
0.1000082276
0.0818871706
0.07989954751
0.06916083021
0.1718629728
0.1624476642
0.1520816802
0.03547509091
0.0292628658
0.02774526751
0.05885002649
0.05151768928
0.05782783229
0.2636055972
0.4057846303
0.4106702245
0.3433432565
0.3976112027
0.2679944718
0.3313001525
0.3779201754
0.327427085
0.2118605127
0.1295520041
0.1350250674
0.1034841438
0.1073784795
0.205849867
0.2365624139
0.1610259058
0.168776983
0.1368223112
0.1422852493
0.2263992228
0.1873727661
0.2480297867
0.2434319935
0.2742538597
0.2697676642
0.2074870604
0.4821091705
0.4396807534
0.4520007117
0.1610673112
0.1302562099
0.1323778786
0.1085740809
0.1100476409
0.1375585193
0.1909824729
0.09864438508
0.1022418963
0.1348198479
0.1374145223
0.1678003582
0.1112080926
0.1816568542
0.1775351299
0.2061699803
0.2022224122
0.1291212342
0.5127388184
0.3694371014
0.3830218453
0.1054043449
0.07974352735
0.0807121014
0.05546230316
0.05622341729
0.08108281321
0.1324384342
0.1056885347
0.1072361114
0.08176932863
0.08277542683
0.1097300937
0.1520898553
0.3089874378
0.05176008848
0.03249038392
0.03282701907
0.07760372327
0.05425056523
0.05484789228
0.03370480513
0.03585947379
0.05694830148
0.2363568083
0.2142126354
0.2440947983
0.140769227
0.1828832772
0.2186172135
0.1464922378
0.1728112748
0.1276100218
0.09917401687
0.08856697713
0.1022272407
0.05113306499
0.07375711845
0.0882888235
0.05701851886
0.06682185225
0.04653616112
0.297792911
0.2658753972
0.2598254467
0.3008006072
0.2681699974
0.3232871269
0.1958983283
0.2470329362
0.2752850485
0.1229580978
0.1376567251
0.1775863114
0.0968654885
0.1242695203
0.1096703719
0.1440265512
0.1310741872
0.1134679977
0.01377390361
0.01132095113
0.01112384525
0.02160712638
0.0192561944
0.02093129117
0.03002664911
0.01931793918
0.03664922897
0.02299481251
0.03378660692
0.01645146214
0.02070817857
0.03532926954
0.1582512882
0.1530341112
0.087885124
0.2653013614
0.2080530782
0.2131092822
0.1990281022
0.2043690561
0.2608231276
0.1038294767
0.08699476151
0.09346220782
0.05982643807
0.06667279063
0.0708710237
0.1351872968
0.1435725303
0.1131212303
0.03615856426
0.03239499994
0.03779908906
0.01904478041
0.02596827415
0.03192338518
0.02252402509
0.0241093503
0.01764216876
0.04922946016
0.05058494469
0.05468363821
0.0302576107
0.03304444366
0.03023377645
0.05133895709
0.04521178866
0.03998500539
0.1174650311
0.1271743126
0.2100897804
0.2078682028
0.1087638873
0.1144205773
0.1521885731
0.1587154767
0.2453136914
0.2307770739
0.1441732426
0.1501201496
0.1202886729
0.1218281717
0.1515263023
0.1461372699
0.1172686155
0.1187755586
0.1519993325
0.1538745833
0.1847675619
0.1785763683
0.1482823132
0.1501322054
0.07346748002
0.07450657343
0.09828525788
0.09249954958
0.06908163395
0.07144320212
0.09160991694
0.09410839277
0.1224495598
0.1172440541
0.08826350161
0.08971286279
0.1945732569
0.05072038254
0.05145792709
0.07245702539
0.06907796524
0.04926434017
0.05032684776
0.01430194718
0.01409849713
0.221735302
0.2178298859
0.1439903434
0.3379742449
0.2779377034
0.2823724389
0.2692450763
0.2735677724
0.3334731733
0.3559272646
0.2957352284
0.3003592312
0.2868823659
0.2914309358
0.3514797978
0.1723994221
0.231074636
0.2259495725
0.2837699789
0.2258109561
0.2302943301
0.2170117359
0.2216886004
0.2792985738
0.0985962982
0.1658751529
0.1614700945
0.2566369416
0.2521720733
0.1910779709
0.3737327628
0.3136244067
0.3181419825
0.3046702245
0.3092309761
0.3693288543
0.06074040547
0.08424442
0.08307970155
0.08632659709
0.08520710313
0.06129327706
0.1391863678
0.1114162734
0.1128876904
0.1901403655
0.1858339626
0.1134205538
0.3019867359
0.2433017845
0.2477222089
0.2345278362
0.238949633
0.2974728785
0.3200050926
0.2606515935
0.264940263
0.2520590278
0.256355723
0.3155189623
0.1274068985
0.198253485
0.1942488827
0.07776563163
0.07866858036
0.1039530502
0.05716825543
0.05661622356
0.03684967239
0.08254670628
0.05723746738
0.05890082624
0.1021812342
0.1041768837
0.1307417212
0.05802501064
0.07974969951
0.07762249354
0.08219209199
0.08082585313
0.05836164361
0.03758969684
0.058371537
0.05779442126
0.05957700191
0.05898389164
0.03785925743
0.1112119043
0.08382838531
0.08486342893
0.05310170636
0.05369897063
0.07657040819
0.06057392362
0.0401873148
0.04520723825
0.01359566462
0.01195691316
0.01440755557
0.008970921361
0.009807452506
0.01899052708
0.01716080565
0.01558328059
0.09094717054
0.1006074063
0.06971914911
0.09036962504
0.09306305044
0.08485237146
0.1125201953
0.1019993259
0.09717000063
0.06962412146
0.06588504192
0.06079763049
0.07773911647
0.07149739066
0.07481533745
0.07375887424
0.07427303342
0.08226226866
0.144278992
0.1099584778
0.1158431028
0.09895389542
0.1035784569
0.1396658527
0.1275179167
0.125268502
0.1257585443
0.1195437326
0.1230519992
0.1431719556
0.04239323142
0.04621248258
0.04455827305
0.04958135763
0.04755833051
0.04445687599
0.05641092883
0.05304498667
0.05483274821
0.09529500282
0.06931041194
0.07186162744
0.05532545686
0.06160390271
0.09057866819
0.1041443827
0.0771643764
0.07786399264
0.07501869279
0.07555289525
0.1023976091
0.07554511287
0.04898760321
0.04937892659
0.04819263527
0.04861491805
0.07475148798
0.0796372881
0.05077709929
0.05214612598
0.04974468997
0.05016935397
0.07826419351
0.1222621809
0.08938777397
0.09050799673
0.08721028863
0.08830458164
0.1205607054
0.1299367119
0.09428669098
0.09611617497
0.0916648518
0.09289548743
0.1278031352
0.1097105331
0.08097444018
0.08194860541
0.07902068311
0.0799200292
0.1082311461
0.1156779983
0.08504216061
0.08611652981
0.08295893602
0.08397800474
0.1141227951
0.07249839782
0.04750430802
0.04783855076
0.04678667671
0.04712965102
0.07176915899
0.09980558892
0.07581370889
0.07665357375
0.06167703726
0.06556367602
0.08979028874
0.04277417939
0.06735677095
0.06443811818
0.07516227337
0.07143509768
0.04774499442
0.1240589071
0.09703009359
0.09983298311
0.08593607503
0.0870416665
0.1156919619
0.03851840786
0.06085076842
0.0602004203
0.0626960141
0.0616356088
0.0387959128
0.0733876126
0.05193652109
0.05257524264
0.04686655794
0.04891384657
0.06800822215
0.2923084583
0.2878466892
0.2252501017
0.408279926
0.3494519374
0.3538752659
0.3405422617
0.3450053423
0.4040704637
0.4153376984
0.3668373457
0.3711621001
0.358255812
0.3625963406
0.4214180847
0.238250665
0.3011432674
0.2967382337
0.3912403438
0.3315704387
0.3360623697
0.3225912402
0.327097115
0.3868907576
0.2033619723
0.2653734306
0.2609363434
0.1266382477
0.1283587365
0.1590212295
0.06885905353
0.09793710392
0.09654101887
0.101738464
0.09959814909
0.07005662951
0.07975497197
0.1078142198
0.1045530499
0.1134836235
0.1108928069
0.08393139796
0.1701117538
0.139972561
0.1423278285
0.03657788142
0.03479151988
0.03283182678
0.0400429944
0.03778336917
0.03962299535
0.03326844573
0.03585261553
0.03887340985
0.06585787197
0.09290667472
0.09176582498
0.09527291414
0.09406825646
0.06652211296
0.1533553268
0.123393813
0.1249853072
0.1143113904
0.115800084
0.1444109517
0.06328381533
0.08846861538
0.08735787698
0.0906561244
0.08954238852
0.06391673399
0.09508825538
0.1237148573
0.1221777484
0.1269071495
0.1253227162
0.09630407224
0.186781563
0.1557696163
0.1576862075
0.1444538139
0.1463921813
0.1765924707
0.09020250884
0.1173591268
0.1156687559
0.1205682508
0.1190601302
0.09171899422
1.155586
1.155612111
1.156034356
1.155654034
1.155706685
1.156069367
1.155787385
1.155895674
1.156124059
1.156040417
1.156225768
1.156229847
1.156451572
1.156711265
1.156386254
1.15701805
1.157316926
1.15654947
1.137674609
1.092259896
1.132356285
1.15467309
1.154697733
1.155128832
1.154747121
1.154825485
1.155204574
1.154931754
1.155132262
1.155487117
1.155425393
1.155530685
1.155631378
1.155917187
1.156099249
1.156071449
1.156709189
1.156976081
1.156757855
1.157793271
1.138209257
1.157636002
1.051714914
1.008675173
1.058453473
1.15383029
1.153894813
1.154283755
1.154012718
1.154189499
1.154483445
1.154445676
1.155004332
1.155057135
1.155194617
1.155418063
1.15539336
1.156328441
1.15671357
1.156464126
1.12872502
1.063511329
1.1425524
0.9095069707
0.8695566346
0.9409294231
0.7874551642
0.7688206034
0.8342103347
1.153066158
1.153199144
1.153525073
1.153435273
1.153796384
1.153959656
1.154336721
1.155460599
1.155056137
1.155560485
1.156023757
1.155784393
1.110436934
1.029185737
1.104247002
0.8223675626
0.7678344888
0.8340321505
0.639033028
0.605921902
0.6666336307
0.5324989364
0.5160860582
0.5759953055
1.152412714
1.152660845
1.152901318
1.15309103
1.153743927
1.153724924
1.15473284
1.156728449
1.155699164
1.156732558
1.124403817
1.157081328
0.8552837788
0.7816455096
0.8347109888
0.6034332432
0.555175222
0.6009876247
0.4356074335
0.4031939371
0.4478088659
0.3273646059
0.309742124
0.3560330836
1.15188956
1.152318197
1.152464179
1.153042621
1.154134759
1.153884064
1.15572937
1.045508903
1.157177486
1.025689153
0.9288216189
0.9703050983
0.6906878459
0.6266639491
0.658881709
0.4657023701
0.4195365829
0.4470635981
0.2983274348
0.2643666705
0.293240568
0.1800333173
0.1598138958
0.1923262046
1.151482461
1.152207214
1.152244656
1.153324918
1.154976844
1.154509765
1.157229807
0.9447234252
1.021435025
0.8966035812
0.8096193997
0.8323767474
0.5991704629
0.5408168289
0.5565476339
0.3898421469
0.3452471967
0.3576197262
0.2237964399
0.1861532826
0.199545766
1.151270368
1.152359353
1.152272017
1.153949296
1.156199798
1.155567782
1.125665186
0.8888364343
0.9275481181
0.8286058972
0.7523886928
0.7617185961
0.5667560146
0.5149462382
0.5167160992
0.3795048708
0.3390843616
0.334188441
1.151307822
1.152777758
1.152564605
1.154871964
1.157657981
1.156932288
1.082820255
0.8724834189
0.8799978624
0.804089766
0.7384263141
0.7360091886
0.5783882553
0.534010064
0.5275997787
0.4209069133
0.3887494932
0.3733135263
1.151583329
1.153453092
1.153125544
1.15603744
1.159283682
1.158506267
1.063571005
0.8747784024
0.8734988774
0.8071074436
0.7500100807
0.745667295
0.6113540839
0.573604654
0.5630639767
0.4801268601
0.4552627345
0.4388823661
1.152092961
1.154352186
1.153926868
1.15737862
1.16098434
1.160203448
1.060448987
0.8901413012
0.883703841
0.8249902597
0.7740385436
0.7673287936
0.6494681896
0.6155153987
0.6053194914
0.5320320921
0.5103685911
0.4985628254
1.154907428
1.161963717
0.9070925551
0.8529981401
0.8067188528
0.7969696747
0.6877229396
0.6544965612
0.6446999123
0.569227058
0.5453264741
0.5378273143
0.06984051928
0.06962716417
0.08635545442
0.06492079021
0.05366907026
0.3462662503
0.3369790566
0.3539752766
0.220007825
0.2390539744
0.2366311317
0.4815617259
0.4671084387
0.4789719543
0.371882238
0.3878109235
0.3989556334
0.5240396974
0.5100777369
0.5061572442
0.4910719851
0.4985830222
0.5189852646
0.1380279679
0.1658612437
0.1639534673
0.5038385446
0.4983347053
0.5073713947
0.08029942366
0.1053754578
0.1035182412
0.1309878334
0.1292227736
0.1029402559
0.255319153
0.3185230445
0.314198104
0.3450829932
0.3403492724
0.2770649426
0.1675974753
0.1696896606
0.2016217915
0.1952020779
0.1635515603
0.1655600201
0.1075448018
0.1345761023
0.1327581642
0.162113673
0.1601754269
0.1325956126
0.1017269561
0.1000776717
0.07469710393
0.4274230185
0.1727975597
0.1842738102
0.2012381649
0.1237370431
0.1272095305
0.1085577631
0.06350059478
0.07087037991
0.07762603679
0.04666552818
0.04799963416
0.04171889547
0.2910774034
0.3361700823
0.3495764972
0.1910445162
0.2090131664
0.2154762131
0.1545205896
0.1569888476
0.1730272348
0.08560172964
0.09432472774
0.08793263842
0.02689925477
0.02694691461
0.03309021525
0.1172113967
0.1153997784
0.09132733555
0.02233075209
0.02502053208
0.02757661004
0.01680723396
0.01776009594
0.01560228852
0.1890661491
0.1943355323
0.2139415394
0.2116578118
0.1817040014
0.1849930192
0.01112536436
0.01116471406
0.01340640317
0.175230356
0.1742583734
0.1487155289
0.1596664698
0.1756332101
0.1758444451
0.09574149348
0.1206327904
0.1188057443
0.1469551816
0.1448474025
0.1181007715
0.1239808371
0.1508465353
0.1488852603
1.155407078
1.155454333
1.155325428
1.155765644
1.155591572
1.155581471
1.155717108
1.155637305
1.155778521
1.156285868
1.156167506
1.155944317
1.156666145
1.156391424
1.156570101
1.156214274
1.156273853
1.156499565
1.157627064
1.157252082
1.156935134
1.157944625
1.157568353
1.158006395
1.156957446
1.157211409
1.157506884
1.010641224
1.076369577
1.142339929
1.004475485
1.053641163
0.9798979018
1.157904769
1.1247685
1.060895877
0.8976165523
0.9562884493
0.9895539303
0.9480199791
0.8852946781
1.049151556
1.004401244
1.155607559
1.155487596
1.155218559
1.156169077
1.15580502
1.155988293
1.155609326
1.155681101
1.155983898
1.157476612
1.157034651
1.156583299
1.113221867
1.15757097
1.10599169
1.156816438
1.157130496
1.157621239
0.9057626958
0.9827561093
1.046737535
0.8780395996
0.9277359605
0.8532489295
1.087604502
1.00653862
0.9530249828
0.731130574
0.7990472498
0.8362715886
0.7417925652
0.768479945
0.7014980612
0.9084702296
0.8378648717
0.8093226311
0.6385777581
0.7031787157
0.7206383412
0.690580822
0.6262236999
0.8209803364
0.7558505534
1.156672715
1.156331753
1.155777098
1.12393425
1.15695434
1.145656722
1.156238268
1.156557632
1.157168923
0.8928179809
0.9578125652
1.039535967
0.8181464183
0.8840219173
0.8219912204
1.027460056
0.9525868109
0.883601546
0.6514999966
0.7070613282
0.7594460346
0.6187228354
0.6603742302
0.6060484769
0.7838413224
0.7195832291
0.6767088124
0.4964786076
0.5491765578
0.5817876179
0.4962898294
0.5207610434
0.468045709
0.6376580019
0.577343067
0.5528347378
0.4058780622
0.4592966578
0.4758250599
0.446778277
0.3931144836
0.5637194448
0.5037497103
1.01720882
1.068816952
1.157166248
0.8876781675
0.976245897
0.9228643101
1.086085958
1.032493083
0.9396776846
0.6965455376
0.737430575
0.8102954807
0.6139031828
0.6720224202
0.6361694034
0.7661108041
0.7163255018
0.6576963833
0.478210357
0.5148887544
0.5621031616
0.4319689704
0.4715693814
0.4358202735
0.5564569483
0.5113643077
0.471576144
0.3259715586
0.362766485
0.3957780658
0.3072882937
0.3332513736
0.2961431477
0.4192048176
0.3742728038
0.3489492165
0.2279230928
0.2671084877
0.285136141
0.2533922963
0.2138652516
0.3429491931
0.2963586483
0.8598679944
0.8917384602
0.9849557232
0.7305316297
0.8066430085
0.7770782771
0.8783856078
0.8400350319
0.7615552647
0.576222889
0.5993607614
0.6616882081
0.4890934377
0.5419841648
0.5199405005
0.6002562984
0.5680021866
0.5142289013
0.3741884047
0.3944191228
0.4399380466
0.3123680739
0.3516039321
0.3314948605
0.4030796751
0.3754466256
0.3357145783
0.2178449257
0.2389373191
0.2735207009
0.1779844785
0.2067163802
0.1846589481
0.2626047812
0.2335077709
0.2048798412
0.1065668746
0.1318853163
0.1511026945
0.1178383945
0.09099333853
0.1781537563
0.1449201815
0.7746638688
0.7902089049
0.8735675136
0.647748989
0.7153234004
0.7020466915
0.7526249224
0.7319920359
0.6623758084
0.521533546
0.5293790818
0.5861825895
0.427708581
0.4769226054
0.4701958731
0.5018921373
0.487154831
0.4369447291
0.3333194765
0.3369496287
0.3810664393
0.2549714566
0.2950878303
0.2920179497
0.3151009401
0.3029361324
0.262608129
0.1771109717
0.1780789684
0.2166190408
0.1096866128
0.1437106267
0.1412024685
0.1664986946
0.1535244215
0.1191705115
0.06561048893
0.07700557461
0.07084352189
0.7389491079
0.7459358362
0.8199457053
0.6203519242
0.6798792206
0.6762702368
0.6916145959
0.6843791475
0.6229235123
0.5207510625
0.5160367138
0.5660520417
0.4263544561
0.469468051
0.4766401164
0.4668678666
0.466731648
0.4217185781
0.3593117837
0.3476810993
0.3860064046
0.2774124148
0.3114777986
0.3252894875
0.2941553523
0.3007871203
0.2643076829
0.7425119454
0.7405949588
0.8046743912
0.6320651949
0.6834681673
0.6876607926
0.6762671605
0.6796506068
0.6266799807
0.5526092575
0.5425112875
0.5853170533
0.4675702278
0.5032553857
0.5151881873
0.4856001703
0.4931546715
0.4555840435
0.4219953408
0.4050996882
0.4350291971
0.353754777
0.3779805535
0.3970975961
0.3413181038
0.3591466956
0.3323606367
0.7610580131
0.7553102217
0.8116589568
0.6611041303
0.7056522456
0.7128542974
0.6927651033
0.6988707036
0.6529247889
0.5949306759
0.5842772835
0.6208203625
0.5211643318
0.551119144
0.5627650879
0.527322278
0.5392690438
0.5081297648
0.4853696651
0.4708434865
0.4944012181
0.4358796938
0.4511547804
0.466707719
0.415978678
0.4341474896
0.4170799642
0.4195859837
0.409336091
0.4215491316
0.3971070823
0.408327543
0.4094338832
0.788786281
0.7812658632
0.8326788026
0.6956382882
0.7362079648
0.7444841748
0.7203173486
0.7281384808
0.6868495359
0.6348447301
0.6253055384
0.6588220643
0.5671551921
0.5947989482
0.6044910982
0.5739397549
0.584693407
0.5568566694
0.5297459436
0.5206439925
0.5423848697
0.4888716956
0.5024694477
0.5108613905
0.4805132733
0.4924644915
0.4793870615
0.4097290216
0.4651775382
0.4608575021
0.4734893606
0.4691902753
0.4140717698
0.7533860003
0.7630675652
0.7237791194
0.6142121542
0.6237887612
0.5954002952
0.5177135007
0.524084223
0.506275586
0.3371504592
0.3936639759
0.3884807862
0.4030073551
0.3983456653
0.3417591896
0.42706612
0.4817453675
0.4774720452
0.4899692739
0.4857163545
0.4313091627
0.35570851
0.412247364
0.4074365032
0.421389269
0.4167393871
0.3602836642
0.04259135494
0.05621573093
0.05614100995
0.06462893863
0.05968658942
0.04614598519
0.08818608571
0.07147688531
0.07601554469
0.0672597213
0.0585832239
0.06880334538
0.04102019346
0.04950090424
0.05751012629
0.0437009431
0.03540914725
0.2993887931
0.3180043403
0.3268157014
0.347682077
0.3338915783
0.3330585048
0.2599435382
0.2594909419
0.2790212859
0.4372815528
0.4516481596
0.4656879991
0.437039986
0.438962182
0.4297154477
0.4634377106
0.4568604375
0.4420529103
0.3817056508
0.3800337779
0.3675740804
0.4106045827
0.3996160086
0.3924502924
0.4157038822
0.4050861018
0.4204073588
0.4532558006
0.4420028206
0.4583612862
0.4240503584
0.4380633333
0.4370267453
0.5120397241
0.5106648312
0.5278683299
0.4929723277
0.49549677
0.5004835766
0.4931476577
0.5007813479
0.4825535937
0.4768189469
0.4816126471
0.4787883526
0.4922602294
0.4934988446
0.4737221419
0.5260460203
0.506139211
0.509059201
0.3920076549
0.4481484208
0.4436496282
0.4567529546
0.4523609599
0.3964584364
0.1695080746
0.167673925
0.1399342971
0.4932951086
0.4886216601
0.4973910087
0.475103653
0.4797638294
0.4815219945
0.4994378945