/*--------------------------------*- C++ -*----------------------------------*\
| =========                 |                                                 |
| \\      /  F ield         | OpenFOAM: The Open Source CFD Toolbox           |
|  \\    /   O peration     | Version:  v2012                                 |
|   \\  /    A nd           | Website:  www.openfoam.com                      |
|    \\/     M anipulation  |                                                 |
\*---------------------------------------------------------------------------*/
FoamFile
{
    version     2.0;
    format      ascii;
    class       volScalarField;
    location    "1";
    object      omega;
}
// * * * * * * * * * * * * * * * * * * * * * * * * * * * * * * * * * * * * * //

dimensions      [0 0 -1 0 0 0 0];


internalField   nonuniform List<scalar> 
3019
(
31.93123192
31.93211798
31.93302837
31.93380569
31.96678583
31.96749908
31.96824857
31.96973415
31.97260473
31.97719303
31.98329592
31.98931891
31.79539234
31.79802963
31.80059793
31.80275016
31.83637668
31.83897606
31.84310713
31.86500303
31.87802469
31.89924157
31.92778338
31.95578129
31.66141098
31.66595669
31.67030076
31.67371162
31.70805509
31.71363262
31.72326453
31.75341473
31.78411231
31.83273421
31.89469476
31.95438118
31.52882196
31.5348123
31.54058643
31.54559753
31.5818338
31.59244765
31.61223763
31.65910955
31.72167185
31.81707327
31.93940218
32.06595987
31.39843478
31.40604338
31.41346682
31.42073855
31.45938896
31.47751587
31.51475159
31.58858194
31.70501472
31.89188009
32.16421033
32.50565524
31.2690004
31.27791868
31.28702204
31.29732899
31.34136751
31.37143102
31.43606906
31.54724791
31.74987102
32.12192014
32.80112282
34.04826615
31.14178597
31.15242571
31.16401257
31.17846724
31.22836793
31.27448628
31.37477666
31.54004853
31.8820425
32.58633376
34.32489081
40.24071052
31.01635104
31.02847965
31.04267223
31.06235673
31.12182187
31.18756202
31.32921942
31.56529093
32.08928385
33.26795678
36.86247433
55.81340794
30.89470358
30.90904688
30.92709992
30.95410035
31.02182139
31.11061799
31.29689052
31.61515216
32.32917481
33.9513265
38.97127787
66.95822427
30.77673616
30.79300488
30.81474498
30.84955034
30.92832605
31.04219308
31.27419106
31.67650929
32.55711128
34.48828754
40.15895198
72.85685723
30.66490677
30.68384918
30.71049799
30.75489535
30.84150032
30.98064429
31.25805209
31.7382515
32.75244136
34.89742456
41.03760322
82.13863783
30.55770065
30.57872377
30.60946198
30.6627986
30.76059631
30.92392765
31.24558982
31.79391457
32.92034596
35.2423565
41.95037545
92.85221001
66.35604705
71.96268827
80.92837595
91.5685359
53.33333056
39.92225003
61.8012618
58.36817206
40.85304953
67.53431098
62.3614927
75.98436798
219.5142707
196.2891691
41.77633385
75.45615518
68.44717694
85.85886231
321.4629244
254.6064624
76.42980717
94.78872844
499.9409201
396.6599531
161.3716105
190.8420194
101.7274055
155.7612084
193.4470395
174.6311237
69.41448164
229.4916791
243.9608067
196.6788464
226.4103
251.3037394
223.3562259
77.18594732
287.6568472
332.0007318
246.1012584
284.3773753
392.262715
324.8679621
87.15556755
399.5387638
502.6685715
334.9257717
395.4339886
509.7570873
95.12721361
698.0077572
507.9666831
681.3616701
38.56181078
57.81168233
49.65201637
62.06666404
128.0199491
88.67876899
68.95266833
172.3987563
151.4395278
148.6152973
131.198285
63.43682192
1344.074395
227.1036133
534.0348732
60.13798972
93.24225193
433.9580326
164.8489739
172.5069602
1183.450647
1344.684052
173.6643167
842.8817064
673.7036138
1309.96683
844.4309823
177.2112911
129.0337995
384.6196446
184.5715169
591.9797491
414.611192
137.8932428
561.0738889
854.9945111
230.8299718
1464.798902
231.3204198
210.7561251
1401.699722
1331.426319
1457.289768
1410.223802
214.4558814
307.8775984
310.7453204
262.3103236
264.6636576
430.6463231
437.5763458
364.3204162
368.4788933
175.2803496
546.424242
551.2390228
105.2639813
208.4761966
294.7044312
134.6493143
139.3769789
128.8492155
133.1474278
288.9223592
155.943671
162.5901997
429.1798602
238.5543641
123.5621926
127.4965155
688.8215774
674.6033767
322.5605501
354.389005
148.0571327
153.9057523
141.0230557
146.2170941
349.9191305
411.895981
1009.547677
998.9217853
1614.580101
1565.813341
481.0903026
346.245177
727.3008928
691.2210073
994.3249813
986.6309541
383.7112999
523.8988258
1649.410528
1622.319233
1657.966838
595.7926975
1402.808194
1338.292645
353.3339098
384.5004439
1293.451821
1307.518969
829.2383543
296.6932971
318.3102599
270.954611
290.3998911
821.1840095
896.4382395
361.5787155
394.805714
326.435571
352.1653568
902.6209927
527.4089851
246.4839976
265.2924926
767.9582254
801.0967301
1509.117867
502.9934256
567.6164487
477.5413004
492.0166028
1471.393161
618.5705874
630.1392589
588.9701792
614.4047802
1377.160205
425.0271868
438.5339328
403.2192953
420.2828531
1367.105266
1437.525176
460.1931031
472.7296007
442.9469864
455.9159708
1433.448924
948.4282786
954.2201948
921.0256297
946.5743215
968.3462838
982.099758
956.3331101
965.4389246
648.4463756
659.7416769
633.7724014
644.5950133
702.1955212
877.0036808
665.1715906
678.7605812
1024.223893
1015.880708
416.3660515
1641.905983
1647.312374
1607.144125
1631.711305
1694.480952
469.8697846
1528.559389
1079.417946
954.7311805
748.5691181
350.4260363
1033.084404
1505.777464
983.0363924
1043.228294
1569.113608
1594.452895
1526.286492
1558.475911
379.9014974
984.2332392
973.6328188
1684.984521
1654.900689
528.8915434
579.3259783
1752.702409
1687.973775
208.7639124
114.1269406
117.515908
109.5323788
112.9986711
205.495788
118.6780947
122.3135952
234.7499439
296.4796305
638.7833642
612.3625876
590.2710192
524.0692585
274.9849471
1367.050227
1231.245187
1633.084513
1332.115936
837.2484593
571.6985907
579.7575552
1273.418858
788.1620115
829.5062811
584.658261
595.2187991
857.9026799
218.3426035
240.9723881
500.406105
634.3184647
1134.633058
821.3059807
1298.589442
1348.553554
859.4263325
1811.520327
1316.652628
1368.450208
912.3352986
914.4983641
1469.115484
1472.531566
1485.952924
1400.300444
1421.798388
1391.792655
867.4787585
871.4186105
846.7169245
852.2916771
1345.163418
1451.217479
901.9526881
905.7795057
875.6886721
880.0351751
1418.216766
654.8310358
643.1327279
299.3485736
319.6666517
670.6975214
658.6077127
493.3418847
481.3588118
255.1590542
1522.712197
1525.068045
1491.196923
1496.044531
1880.334517
1532.588389
1533.641859
272.2854197
512.8285
498.1808828
1007.677554
699.6592437
703.3296378
1599.98569
1017.356569
1021.403742
990.3040146
1010.883616
1588.402438
1638.510422
1653.388283
1639.092732
1027.501715
1031.152472
1023.198341
1025.805617
1632.310507
1575.316443
1617.062973
1105.363989
1513.965717
2090.549608
1365.825356
1689.144682
588.8317016
783.8973155
1202.199172
1302.086323
812.8398835
1176.494744
1536.327633
1270.036566
1325.834727
642.7110677
716.4879739
1227.334477
856.6037725
599.5180209
622.9283386
1246.662414
1211.813204
724.2032494
1254.465758
1592.664569
804.5531631
1295.948761
1281.87539
971.391945
963.7088746
1433.689525
1478.483334
925.6282052
922.3167389
1454.012077
1465.35799
1433.805431
1445.315537
861.4196402
864.7583006
1387.549464
1356.436534
855.4194233
858.3212338
892.6181663
896.5683771
1443.063752
1427.052448
884.664061
888.7140554
950.4857098
1512.732841
1502.816366
1526.839125
1520.217972
952.2279413
938.3206611
1469.095138
1451.632314
1493.440482
1482.328994
943.8835753
973.3444194
1570.279459
1560.635703
1584.418499
1575.002231
975.8151624
958.8778046
1539.685291
1533.87195
1554.936966
1546.16448
961.5096449
1512.388523
1516.15206
652.0721332
938.6462571
936.1439109
944.7932492
942.7419634
656.3717511
1502.419971
1506.757191
1576.087187
1494.597821
722.8075837
999.1468979
1008.572217
1417.211553
1365.058677
799.3058289
667.5186398
951.4709044
950.4558175
958.6026946
962.2560122
677.2040489
1544.063854
1537.119926
1028.36728
723.0355055
724.7906576
709.6568132
712.1759536
1016.48978
1642.370207
1656.020114
1612.745905
1628.987961
1600.956955
2029.981873
1465.458433
854.7037735
941.2084426
750.5887153
772.8043879
1068.674547
1413.386305
1950.910231
1545.99009
1470.169918
994.5930558
1597.900629
1585.009628
1633.299018
1590.474303
990.7909878
1576.446647
1587.816539
1538.434852
1549.845186
1670.63178
1040.264183
1047.951607
1033.114716
1038.461854
1666.969837
1706.206035
1061.126761
1117.16681
1049.533249
1063.97499
1709.472619
31.78006993
31.79794174
31.87364211
31.80515094
31.83474954
31.89242796
31.84557573
31.88503957
31.91928717
31.89686997
31.93837466
31.94836751
31.94873236
31.68081204
31.71783929
31.77516489
31.73367079
31.79065565
31.81969811
31.81450143
31.89029366
31.87826085
31.91663353
31.99836855
31.94224959
32.01709865
31.604156
31.67417267
31.70318813
31.70357374
31.81499126
31.79046697
31.86034133
32.02140029
31.90728154
32.08217577
32.28254392
32.03134578
32.3180736
31.55491877
31.67580294
31.6684092
31.73006268
31.94896096
31.83694168
32.04518526
32.42308491
32.08923692
32.5852932
33.22920959
32.39330157
33.36946711
31.53886856
31.74506002
31.6868116
31.84008129
32.24950849
32.00726854
32.44580795
33.35141057
32.59206297
33.82286078
36.44227571
33.58692685
37.51163299
31.55519573
31.87649047
31.77314129
32.02878015
32.7223429
32.35588172
33.08048507
34.99814473
33.70610394
36.19656363
47.87346745
37.65449781
44.29187457
51.24049607
42.28733701
31.60045313
32.05309432
31.92022209
32.26915834
33.26860515
32.86450598
33.79307401
36.6955314
35.47041123
37.50288596
39.89503834
39.02295948
58.18975997
66.31787955
62.93465115
31.66129028
32.23386793
32.09889251
32.50372427
33.73357393
33.3926318
34.36964199
37.79289857
37.01873944
39.33495405
42.36190624
41.89276161
67.68578736
80.34613268
79.20372838
31.7245335
32.39748213
32.27593456
32.70896337
34.099607
33.83211392
34.80576125
38.53500255
37.99267707
40.40794406
43.75560071
43.42572106
73.82146911
98.40908342
95.41959452
31.78431467
32.5395613
32.43243807
32.88397275
34.40077913
34.17655759
35.16420819
39.19435887
38.68933076
41.29891745
45.0579316
44.65053736
83.35588776
113.7616842
110.5877118
32.56870282
34.46628224
39.34746893
42.29667298
47.72813359
46.07154362
95.09208259
135.335279
130.5188989
78.3120865
77.07118026
65.50493516
94.3787632
90.87167462
71.12332405
109.5826826
106.6687025
79.70512902
129.0253175
124.7483809
89.92255219
82.83292349
55.37743152
46.21359125
43.48820486
54.29133618
43.11528907
42.75001457
39.63653497
60.29185588
46.62231283
47.21179642
45.64032017
46.41018763
59.84530025
44.3795574
44.03480823
40.60992162
65.00563263
48.18855309
48.86098709
47.40146789
47.98385235
64.27622676
102.1722452
99.37840291
74.858113
215.6873708
167.9935861
170.3576169
155.2510663
157.2354911
199.2497935
45.86287254
45.32383053
41.47561173
72.30143299
50.24615625
51.29791798
49.10655062
49.94319914
71.33613019
118.3381437
114.8584442
84.58341185
311.1474107
212.0974265
215.2189658
193.3371631
196.7382733
260.9681937
51.63202667
52.71325415
80.19558857
142.3007842
136.9834623
95.65948236
462.9041815
281.8142585
277.3913319
251.0102562
255.9743498
410.0965904
165.970574
232.0503025
213.5494511
306.6347097
286.3096058
185.2902309
109.9100932
131.189482
119.1070999
201.9073859
193.7776244
151.1191731
185.5771321
104.9926304
108.3971191
100.8818799
103.9405883
182.9210538
70.31490848
89.37718992
82.91639021
235.216005
385.9615567
373.9173767
461.6403498
449.8162785
237.6745166
201.9086342
325.092868
311.8469836
370.1680384
359.2615197
222.078032
246.5163396
187.9095846
190.8670788
172.7594612
175.1965746
227.1344624
78.45515847
105.75594
103.0839082
290.6681233
355.3431888
350.787577
407.3626096
403.2847623
328.6420792
252.8960272
477.2779245
465.5543585
345.5782182
340.1821355
281.1461788
377.5646775
242.0747435
246.6279679
218.4989975
221.9232187
335.1580408
88.56073169
123.3930547
119.5508295
403.5558045
516.2331688
511.883162
687.9041622
681.3032111
496.7540786
338.3625456
415.5964056
411.058382
507.119779
502.7686199
391.4947507
277.9996215
144.1632191
708.0467671
1054.076389
1046.501989
513.3188712
698.189313
693.074282
1024.536443
972.6267944
655.3482796
41.34894114
40.68045775
38.06883105
55.40877781
44.07304595
45.33072848
41.57875279
43.5723045
54.30721498
72.00603142
69.35836367
60.28481431
114.9551121
80.39979006
85.93169872
72.34387902
78.30275951
108.7482659
82.70706555
81.08774266
68.16029714
164.5337394
96.69968078
99.84895254
93.81796382
95.95258444
161.5019941
141.4581095
91.10800789
93.22357971
87.19109342
90.38661388
139.1774371
64.62041303
75.79465758
74.0494774
266.7575705
343.1554201
274.8198384
823.9601484
713.659506
475.342157
67.14450378
93.89662033
70.24400748
83.6593077
64.68869971
153.3309984
94.81959683
75.02791239
270.4839076
278.0211663
453.2162671
167.4019375
210.1269897
205.9384236
218.0382556
213.2095724
169.8324153
253.3063128
237.3424226
169.94021
453.7092393
488.639127
753.121285
181.0360518
279.061523
258.8286166
160.4534373
147.0187656
119.7479808
298.0548203
195.2063903
211.2344375
146.0445787
160.9556479
266.0767828
568.4869658
409.6594977
426.4974641
322.67346
337.329371
438.8214589
144.5459124
184.1301516
173.3015591
419.266748
391.8090608
236.3414612
235.7690149
445.7339308
428.6340355
340.6924715
329.1009583
206.5322966
218.4104868
355.6131975
344.4621499
377.5478394
373.9706307
305.0064179
313.6862542
384.7756183
381.1328228
313.6755798
310.6433
259.8587038
267.1865101
319.8679777
316.7584103
547.724924
542.2812518
425.5295725
446.4570116
575.4756788
560.1091894
466.3750562
456.2265824
360.0705232
372.3789493
480.0983282
474.1831361
222.1851131
730.7952404
723.1233812
539.7315766
559.5225571
746.6433333
734.1007203
127.9612573
145.4411642
206.1225226
209.0860394
307.5190079
136.1917886
165.2043262
163.0277153
169.637682
167.4036927
137.7661592
130.2614637
156.8109482
154.758501
160.8686377
158.7482873
131.6795894
263.2981845
199.1472266
202.9685556
158.1068877
196.3402165
193.1514175
202.9127007
199.3312046
160.2468925
414.5635602
260.4573812
266.2445675
182.6780667
185.3733424
242.7525364
124.8484377
149.1869435
147.3711139
152.9110843
150.9865255
126.1496669
682.9483487
512.6192963
517.7535526
504.0952275
508.7388777
679.4023221
325.6963121
399.6576565
395.7764652
233.2464229
237.6472277
371.5922756
149.9485082
184.5451443
181.7978907
190.2680779
187.3316032
151.8841066
142.7110963
174.2733724
171.9260384
179.1950781
176.6967558
144.4427046
338.6801793
225.4967048
229.2425296
525.5322839
521.356963
407.8329685
690.0497251
694.2488651
1001.527429
489.9178602
672.2859264
657.1454053
426.5514595
420.1134167
341.7403898
702.9931314
532.902759
544.4560431
521.3924755
527.9489431
701.394639
991.9081947
680.9957089
685.227125
672.3393348
676.531802
988.5581955
387.5419813
498.2549005
493.9450142
708.2213426
702.8904287
518.365481
622.2091644
883.6021623
799.5949679
498.8599027
394.806265
294.7502811
364.0102039
491.3608879
444.9457582
651.2910193
541.0338765
552.0614001
563.4322271
834.5548991
303.581297
400.3065276
388.76197
420.3787346
410.4329369
310.6014609
277.4061219
350.3058107
335.5725375
377.5574165
364.5469798
283.7576752
801.0451248
518.0987767
538.2745948
372.1740704
496.3336215
472.0967317
546.995616
524.9274159
384.0694615
335.1225247
438.4370729
428.8975243
458.0750197
445.7626835
343.0728979
383.6384154
393.8292763
535.8181067
253.1470914
301.7234348
291.913548
322.8484351
311.5081704
258.274533
516.3199803
695.9409958
675.3451779
846.4325263
771.1435769
539.6078717
481.2313629
640.7363339
638.0481994
652.1785296
650.4940771
487.3134927
622.4987073
918.0781324
915.6600041
923.5777531
920.3079634
626.2885554
601.7994462
905.7095745
888.5660682
913.8191675
911.1515539
609.2769892
429.6163414
588.3980224
584.0038818
597.0358246
592.6357449
434.0895787
409.7773104
568.7632337
560.5506427
579.4661468
574.5531417
415.2897387
464.3163508
623.3867003
619.1498221
632.1714003
628.244756
468.7547403
447.3171863
605.9745585
601.5119611
614.8026405
610.4732165
451.6647459
637.3217903
927.8726667
925.792133
932.9749854
930.5923484
640.9892944
420.5357472
535.1247228
531.1609608
632.5965429
600.9549029
457.4337462
908.5365039
612.6488939
635.6022315
558.740793
582.9144158
827.0788605
356.4646397
444.8444548
434.6088742
489.5306158
485.0507074
376.1619401
982.4474598
663.3977696
667.9543395
649.5312306
657.663055
979.4787599
534.8593039
718.9035622
712.8193197
776.6696916
749.3324142
565.9584278
163.5086406
165.7161336
212.1332904
115.2747081
135.7218699
134.1777697
138.9035453
137.2978716
116.3901717
110.696607
129.7968528
128.3774365
132.6733901
131.2057798
111.8399652
202.3231932
159.2692837
161.3619953
119.8683741
142.2062496
140.5393254
145.6281523
143.8938648
121.0782334
230.862502
177.6364089
180.1704727
363.1848209
359.4499135
293.6750164
633.3595123
461.3941275
466.2789985
447.8520615
455.5136049
625.5809432
561.5098826
426.7051998
437.8543205
408.9634499
416.7934006
537.7838106
277.9775812
335.034153
330.4919904
226.8940934
258.6881851
245.6070447
281.9282892
270.4115688
233.4355348
478.2774803
355.447265
368.8104374
651.0165117
479.129623
483.2804135
470.7171455
474.9736868
647.1804482
302.1436073
370.3939488
366.8336012
392.1405018
388.3859317
316.5877882
666.3950371
495.6613513
500.0385455
487.3716248
491.5726972
662.5129256
489.5760876
382.7764006
386.377172
375.4619526
379.0449979
485.2444462
257.5476335
307.6317446
304.6466906
326.5656148
323.1302173
269.6271067
508.0313288
398.321822
402.7684095
390.2801421
393.9549513
501.7613119
31.90303164
31.90396423
31.96782022
31.90538541
31.9080013
31.96857177
31.9100326
31.91365775
31.97099334
31.91858413
31.92490478
31.97466554
31.93262697
31.9415586
31.9801171
31.95115815
31.96074352
31.98638066
31.96854587
31.9749141
31.99120231
31.77338524
31.77418104
31.8376046
31.77592563
31.77859379
31.8407386
31.78223276
31.77652421
31.86269315
31.83585431
31.83918084
31.86732228
31.85220952
31.85806697
31.88194447
31.8789025
31.88755896
31.90503184
31.91455621
31.92422371
31.93432285
31.94907309
31.95626036
31.96055903
31.64644022
31.64856181
31.71056117
31.65260623
31.65853745
31.71775306
31.66636593
31.67233512
31.74843684
31.72811108
31.73551598
31.75976501
31.76497097
31.7779839
31.79506527
31.82288981
31.84002659
31.84805529
31.89679748
31.91633821
31.91227052
31.96610282
31.98168765
31.96668504
31.52200185
31.52641042
31.58628504
31.53406576
31.54555875
31.60097382
31.56144191
31.58635781
31.64820374
31.63945741
31.65428139
31.67177809
31.71229363
31.7357045
31.74225765
31.82412215
31.85820472
31.84546301
31.97284323
32.01250634
31.97298106
32.12150979
32.16280144
32.08578241
31.40185183
31.41001633
31.46689808
31.42346869
31.44348571
31.49286036
31.47322496
31.52594617
31.56750904
31.57558666
31.60188206
31.61211561
31.7078536
31.75453385
31.74380396
31.93202772
32.00506393
31.952479
32.27286292
32.37259001
32.2469464
32.68215364
32.83254671
32.5448297
31.28619088
31.29996506
31.35373166
31.32214443
31.35491801
31.39719406
31.40339823
31.49151011
31.51394413
31.54233261
31.58730841
31.58656488
31.77452002
31.8594561
31.8235074
32.21342846
32.37576424
32.25512236
33.0740832
33.40006312
33.05156064
34.7076776
35.41973851
34.25900318
31.17547028
31.19662731
31.2467993
31.23019403
31.27976765
31.31537864
31.35036657
31.48262957
31.48627886
31.54289189
31.6148785
31.60425847
31.92623775
32.07317299
32.01179437
32.74057095
33.08088069
32.8737872
34.88572492
36.0023566
35.13910813
31.07096984
31.10194543
31.14742805
31.1488919
31.21704193
31.24648934
31.31191829
31.49761242
31.4845279
31.57489475
31.68092263
31.66283731
32.14573274
32.37072582
32.29493725
33.44436637
34.02969175
33.79309804
30.97348767
31.01575747
31.05633598
31.07705007
31.16413276
31.18861342
31.28504764
31.52842544
31.50448334
31.63042895
31.772427
31.74844721
32.38910765
32.68631242
32.60977936
34.1011444
34.86810817
34.68176153
30.88338103
30.93762113
30.9731164
31.01339181
31.11904311
31.13923519
31.26612105
31.5647232
31.53664933
31.69296057
31.86723296
31.84328578
32.61008197
32.96230982
32.89714479
34.60100241
35.47052243
35.33647611
30.80060792
30.86640909
30.89698817
30.95642145
31.0799985
31.09631929
31.25226835
31.60101389
31.57253296
31.75543967
31.95751026
31.93353101
32.80092683
33.19422365
33.13605417
34.99181138
35.9333458
35.82173887
30.82624778
31.05775067
31.60627774
31.81385872
32.0378363
32.01417848
32.96209245
33.3894979
33.3390103
35.32853037
36.3440343
36.23580829
58.38700696
54.82410899
50.74714663
46.35097059
49.02505795
61.26662568
54.8106796
55.16516532
52.64672595
53.06585178
58.90573487
66.64453241
58.17218261
58.73354588
55.52249667
55.90563285
62.96018496
74.31365537
63.47161722
64.27630253
59.31967846
59.95360644
69.40056227
318.0734213
268.6863308
271.141049
65.03700164
65.89771625
77.76357592
487.9401267
385.5387672
391.0769806
324.3149902
327.7907206
401.0883439
190.7235196
151.4441957
153.3243481
140.6612168
142.5244079
177.5974873
290.037697
287.1235839
241.7799657
248.3595038
295.8375757
292.9288413
387.7263457
317.4535863
320.8776454
273.5705893
276.1877981
328.2677437
396.5525542
401.6842537
517.2882233
105.1870088
57.12642297
51.66370907
52.19716576
46.47669753
47.53232765
51.40014384
124.3761215
106.0691667
108.7558004
81.58537647
86.77510351
95.09112265
169.8187877
136.8383162
138.8972143
124.2449484
125.9993289
154.7901352
146.0556026
121.1781893
122.7177069
111.0353291
113.1415421
134.1029829
106.1239142
96.32326405
86.33483989
353.9149524
358.3120231
439.7158082
358.4894986
289.2701338
304.7845845
171.7454324
188.9171421
209.6301637
261.7779251
255.1767931
231.1887264
232.3784284
271.1937931
266.9649928
243.3501896
199.1948392
178.8634441
257.8858844
258.7392016
299.4850398
281.7529409
258.2257711
257.5084507
423.9884431
346.0023843
350.1976818
295.7548513
299.2042134
359.5948008
345.9677525
289.6524787
292.6836398
31.78527976
31.81175461
31.80734319
31.8220795
31.81619614
31.79078659
31.87062359
31.8428577
31.84737125
31.81435447
31.83545755
31.82786506
31.85216328
31.84273491
31.82339524
31.88753919
31.86419257
31.87149936
31.85871417
31.87204148
31.86088856
31.89386724
31.88187824
31.87067412
31.91286846
31.89604368
31.90570867
31.91150492
31.91655786
31.90433411
31.93760316
31.92591806
31.92458535
31.94244679
31.9330678
31.94190316
31.95949408
31.95663209
31.94692529
31.96298094
31.96679368
31.96589491
31.96214335
31.69133403
31.71259297
31.70361172
31.73480592
31.72273321
31.70350515
31.76661546
31.74386728
31.75402734
31.75136468
31.76343973
31.74809519
31.79763515
31.77943477
31.77043398
31.80625235
31.79161602
31.80708812
31.83929623
31.83731395
31.81553241
31.88181817
31.85908148
31.8640678
31.86222024
31.85782657
31.87850427
31.94403356
31.92583032
31.90321642
31.96728912
31.94655577
31.97111825
31.92685088
31.93343814
31.9517825
32.0410723
32.00342598
31.98780904
32.01793257
32.05578082
31.97545419
31.99227542
31.62486676
31.63877406
31.62112117
31.68085288
31.65869298
31.64810714
31.6863322
31.67150469
31.69101517
31.73756243
31.73513477
31.70569013
31.8005468
31.76662361
31.77370552
31.76375114
31.76387741
31.79325614
31.91010066
31.88008118
31.83846164
31.97109244
31.92425012
31.9636444
31.87516124
31.8945683
31.93329511
32.14296493
32.07030062
32.01911042
32.15861714
32.11548186
32.21223262
32.00294533
32.05452327
32.0968993
32.39482109
32.24543969
32.21950857
32.28974014
32.42389963
32.10983553
32.18298431
31.58909463
31.59405347
31.56410115
31.67009009
31.62875207
31.62972127
31.63849389
31.6318672
31.66786438
31.79309299
31.77039203
31.71627122
31.90444427
31.83284931
31.86547678
31.7874281
31.80788677
31.86660661
32.15516162
32.07540211
31.98544219
32.28706435
32.17572764
32.28008929
32.01829516
32.08588048
32.1754097
32.76114384
32.55045195
32.40966238
32.81776614
32.67838812
32.98623996
32.31979587
32.49396107
32.61917991
33.6822257
33.11428695
33.03594303
33.30387949
33.78872807
32.63362853
32.88058439
31.59555176
31.59010796
31.53883559
31.72123249
31.65022227
31.66416665
31.63290861
31.63965025
31.7019988
31.95264851
31.90395281
31.80509459
32.15824639
32.02024195
32.08703238
31.90832432
31.95863866
32.07607803
32.6846845
32.52039362
32.32203965
33.05256689
32.76241225
32.98189636
32.41012423
32.56842481
32.79961103
34.42676072
33.86603697
33.4134827
35.00711816
34.36063025
35.28904002
33.29763105
33.83298681
34.34067198
39.32173521
36.78893609
36.06703344
37.91707429
41.93944203
34.69017154
35.78129852
31.64352716
31.62873466
31.54851694
31.83984038
31.72496204
31.74963683
31.68148736
31.701196
31.80385118
32.21344585
32.14362486
31.97745683
32.59590978
32.34582371
32.43982155
32.1677059
32.25105268
32.46960451
33.54311632
33.31049068
32.90977763
34.54121566
33.83602627
34.15806115
33.23935388
33.52010618
34.0971684
38.06174365
36.96235449
35.5321419
42.38118805
38.91548863
40.98414053
36.16159684
37.67061183
40.09314162
47.46640365
46.23173667
48.11303521
31.72487069
31.70247191
31.58712028
32.00715318
31.8409764
31.87410353
31.77990869
31.8083649
31.96124709
32.53282227
32.45265007
32.20779023
33.13596203
32.75545043
32.85895583
32.54790884
32.6485073
32.9975904
34.48107245
34.26301984
33.62308075
36.32606446
35.12595802
35.40807847
34.49711152
34.81849564
35.9167739
31.82002744
31.79582619
31.6452519
32.18934235
31.97523425
32.00887752
31.90791171
31.94203629
32.14488262
32.83081997
32.75935466
32.44670158
33.6259126
33.14427327
33.23250861
32.95646445
33.05291172
33.51311146
35.19436629
35.03707656
34.23932653
37.56091031
36.10100873
36.29096435
35.66263366
35.89501141
37.31033462
31.91321081
31.88937932
31.70774249
32.3568946
32.10358509
32.13535263
32.04100642
32.07351349
32.31809443
33.0829735
33.02192304
32.65866217
34.01336057
33.4649304
33.53784356
33.31377366
33.39272595
33.92674137
35.71272578
35.59284568
34.70415233
38.35691336
36.76423571
36.9072365
36.46002313
36.6197965
38.18766198
97.43518335
86.34499727
87.13734659
84.8700811
85.60860566
96.4154854
31.99809952
31.9748591
31.76700124
32.50218678
32.21761071
32.24751465
32.1626803
32.19411985
32.47206325
33.29483034
33.24045642
32.83856667
34.32573233
33.72721936
33.79117652
33.60201858
33.67065641
34.25694369
36.14170728
36.0336365
35.07476883
39.01429484
37.29496733
37.42851495
37.0373491
37.17202123
38.86373963
112.677711
98.80079457
99.6394063
97.21199544
98.02615071
111.6293687
32.27018601
32.29848689
32.60340174
33.84510632
33.90454011
34.53638082
37.54660888
37.68471076
39.5374411
133.6453485
114.7818956
116.1528545
112.4031666
113.5810982
132.0788751
108.5854833
95.67035813
96.46096803
94.16387078
94.93717208
107.6213183
127.547232
110.1496955
111.3119729
108.0091893
109.0827684
126.1319892
67.46061707
60.96582261
65.00859771
52.19781473
55.06201036
61.25403563
48.28639635
51.07794173
48.11733014
46.64566422
47.52130553
45.04146345
56.8777827
52.47720309
49.56335388
54.49245181
60.60080215
54.13241864
54.47497958
60.76545216
50.557872
50.29667383
47.0200417
59.36166283
53.43431716
53.79537466
57.17114242
57.65909369
65.80182627
48.40004769
52.22419832
51.91782095
52.89971175
52.55421927
48.62366776
47.59056524
51.07676246
50.81413236
51.62400217
51.34543036
47.78500135
63.59252426
56.29888571
56.72620573
101.2619381
89.53200146
90.37627396
87.91079083
88.72981476
100.315655
61.99747939
62.74469638
73.33166102
50.57313278
55.49431009
55.00604039
56.54303599
56.00651619
50.9077555
49.36627256
53.66707248
53.27576235
54.53336599
54.09220109
49.64309573
70.35789954
60.60539391
61.30126442
117.1468044
102.1967759
103.1269607
100.4542961
101.332857
115.9930686
264.1633173
266.4029905
314.6334017
52.08761434
57.67496999
57.09533059
58.87121694
58.26409219
52.36150712
78.69798016
66.72219715
67.61545423
140.5159599
119.4652337
120.5960466
117.242412
118.6787168
138.7823433
373.3049745
380.5056389
474.625397
309.1340778
300.9589707
277.5010714
405.4897452
331.2779922
334.9810754
226.1971597
205.0785265
207.0233727
202.5112509
203.6910736
220.2040866
300.5484347
245.5249957
250.4482957
234.8204036
240.5365473
293.7010683
147.7888293
149.6054696
188.1185539
106.1166387
124.3108709
123.0039311
126.9995773
125.6334876
107.2398645
102.2572986
119.0606079
117.5265999
121.7322408
120.4414362
102.9604712
179.6973867
144.2074613
145.9831325
381.6168317
309.2636124
312.93386
303.2643412
306.2476485
377.5157082
457.7045489
354.2132278
357.7082595
347.2734696
350.7391298
453.7761351
239.722662
284.1995052
281.2147414
320.9511275
261.5504588
264.7663728
254.4453719
258.346407
316.5910004
366.5583104
297.4130896
300.4991993
291.5762136
294.5607795
362.8925515
104.8607328
92.67532522
93.44416441
91.14623075
91.94062813
103.9694727
301.6917667
298.7492339
250.5690548
473.3840726
368.2861178
371.8354199
361.2179826
364.7323325
469.4279965
310.3501603
313.9085972
382.8922301
331.7078823
278.7071268
281.4450429
122.0787865
105.9718655
107.0038329
104.0359275
105.0129689
120.8025345
279.3470393
321.9570441
315.9971165
121.9203317
50.35583725
51.06731994
56.35625692
52.96940472
48.59272843
49.54742375
99.59488738
103.0993597
120.0222867
82.53562859
89.28625075
86.21955909
94.23121659
91.77843373
84.21405674
82.91546006
78.66324289
75.24860591
101.7083288
91.27104423
95.64459979
132.466716
134.7667201
167.3711037
97.62637319
112.6237269
111.0924425
115.9716537
114.2461546
98.59682893
94.51346032
107.4076913
106.3441115
109.7267546
108.4969834
95.15951622
158.2105756
127.914426
130.1067023
118.1872778
119.7416159
143.7828011
91.89598088
103.284238
102.094582
105.3579063
104.2941952
92.51150558
88.47631914
98.0292757
96.15233778
100.9290982
99.48366364
89.40259911
136.7020796
114.9330617
116.6626448
74.05338703
80.53352062
77.4960181
72.36799037
77.01175859
125.5965269
111.0656608
122.0738267
86.74514325
94.32160103
108.6218919
79.99955917
86.83412011
78.91247572
445.5247867
362.5467893
368.0715544
247.8327902
213.2770633
216.1159486
208.7874063
211.1189748
242.7057216
271.6334759
225.7081329
230.2639578
218.7654699
222.2740832
265.0892859
248.7524309
269.6531733
328.8187763
233.0177955
217.9730596
201.6975652
235.9165195
208.6996048
225.7752863
408.7416933
323.6908925
327.8304737
316.0530581
320.9281393
399.3925547
278.1284244
274.8402659
233.9627686
441.2412508
340.2219506
343.7936747
332.2746531
336.4289311
435.8136264