/*--------------------------------*- C++ -*----------------------------------*\
| =========                 |                                                 |
| \\      /  F ield         | OpenFOAM: The Open Source CFD Toolbox           |
|  \\    /   O peration     | Version:  v2012                                 |
|   \\  /    A nd           | Website:  www.openfoam.com                      |
|    \\/     M anipulation  |                                                 |
\*---------------------------------------------------------------------------*/
FoamFile
{
    version     2.0;
    format      ascii;
    class       volScalarField;
    location    "1";
    object      p;
}
// * * * * * * * * * * * * * * * * * * * * * * * * * * * * * * * * * * * * * //

dimensions      [0 2 -2 0 0 0 0];


internalField   nonuniform List<scalar> 
3019
(
883.659393
882.0523848
878.3187149
870.9998972
861.1256668
840.6835466
808.2553339
757.8706002
684.1255403
580.9860381
445.2271281
279.3696828
884.6651268
883.497607
880.6352601
874.8878922
864.9534216
847.2415162
818.1394646
776.9955572
709.8462543
612.8627722
480.6030048
312.9944419
887.0639752
886.8587093
886.0249912
883.7173432
876.1872808
864.6702644
843.6656444
807.3280248
749.4069019
658.9757542
525.0338468
344.326162
890.0902812
891.2475454
893.3073975
895.5752083
893.0214032
890.2265981
881.9657215
857.3053236
817.1904136
742.0663034
614.0193081
415.0290175
892.3058479
895.0246443
900.4795007
908.0800279
911.9480091
920.5161267
928.658476
924.3292465
911.6615606
869.251931
768.4143118
555.632363
892.1673495
896.44915
905.3062734
918.8559781
928.8886781
950.7391417
977.8927852
998.320347
1025.995729
1041.877331
1017.302198
839.9284844
888.1862414
893.8494996
905.5925587
924.2509764
941.9705172
975.2268321
1020.684882
1066.464176
1136.373785
1228.317146
1360.113599
1476.719712
879.0763022
885.7366017
899.5262872
921.7688699
946.0266852
987.9361882
1046.397748
1112.960796
1214.135835
1362.951169
1628.065317
2185.626763
863.8605817
871.0045869
885.760209
909.6670878
938.7776546
984.836437
1049.150186
1126.955512
1238.594279
1392.04425
1623.718327
1922.92491
842.0160189
849.0822896
863.6204594
887.1019164
918.8954681
964.4244184
1027.133443
1105.097943
1208.103769
1338.478767
1501.760248
1660.223791
813.5381206
820.0085959
833.2261879
854.3022128
886.7740545
927.6956589
983.0621705
1054.197206
1140.843002
1243.777634
1363.423679
1478.901563
778.8979706
784.3475398
795.4486899
812.2049333
844.4951369
877.2354487
921.3023082
981.2429113
1048.522035
1125.950112
1217.338756
1330.054904
1968.275664
1686.635288
1498.603671
1349.417418
2143.402925
1535.24328
1669.281635
1886.345011
1398.391297
1486.445184
1643.818069
1586.044032
1624.101364
1720.181049
1255.358705
1334.171068
1466.58823
1423.018948
1467.961017
1526.082744
1314.542336
1258.343969
1326.831492
1398.2478
2439.24323
2043.999612
2922.634984
2518.317362
1733.024003
1826.496018
1773.895697
1830.939743
1737.344053
2008.442362
1846.605825
1535.536622
1611.265696
1562.840683
1618.875682
1537.612771
1730.56762
1625.870408
1403.109731
1464.494488
1404.915888
1468.469381
1408.050532
1532.677383
1471.692391
1321.69654
1246.589681
1327.753196
1403.067717
1332.947995
1643.566078
1924.403045
2070.153968
2153.871001
2471.590228
2775.243433
1806.783574
1842.680464
2008.877724
2043.566475
2403.991697
2112.270224
2148.416452
3799.866621
3304.615354
2074.046315
2879.810863
1360.549317
1326.804464
1295.414984
2478.052065
2182.870164
2234.263699
2191.751406
2498.980841
2000.120432
2159.653999
2178.542129
2842.172802
3241.589306
3648.032207
2561.881784
3145.062503
2767.93774
3188.080835
2552.430153
1785.630798
1843.710199
1779.218517
1923.961387
1903.514606
1988.312421
1847.752807
1894.835454
1901.677723
1577.652944
1571.904037
1682.374153
1674.768039
1441.307659
1436.995778
1501.132597
1497.09989
1284.297149
1369.42551
1365.302217
2784.693491
3750.644894
1494.122665
1470.877884
1445.287798
1507.326536
1479.702163
1498.46905
1365.843525
1336.762495
1364.936885
1565.316397
1547.268077
1516.951028
1545.844764
1558.655295
1551.561979
1432.847891
1402.455992
1375.259418
1436.883452
1411.269562
1437.122542
1458.180375
1473.714713
1480.484767
1422.535371
1441.905115
1421.992793
1518.739001
1525.800454
1541.074586
1482.343959
1489.923254
1481.763485
1387.662313
1397.5102
1418.115108
1367.681372
1346.963044
2077.990984
2055.566359
3722.463995
3639.220047
2330.309406
2290.008678
2299.886356
2324.51029
2217.345572
2503.055411
2365.077881
2342.999986
2060.551167
2082.524995
2023.160542
2186.047778
2105.511436
2083.684207
2781.59612
2728.286155
2559.670213
2881.907419
2785.661385
1814.3641
1813.076253
1796.821991
1840.404899
1819.787779
1822.839413
1773.950149
1759.43614
1792.870697
1778.54078
1934.342693
1949.319352
1915.134072
2006.634608
1962.301804
1945.378391
1869.081891
1870.409844
1847.319051
1905.115541
1878.703504
1877.7335
1602.480187
1586.143323
1628.273948
1607.188717
1560.554904
1548.827216
1579.889055
1564.278817
1722.928968
1698.450926
1753.632555
1731.039949
1657.461941
1634.45662
1690.272378
1665.799228
1453.172446
1469.465403
1454.268992
1475.509104
1456.153826
1484.01455
1480.280775
1452.246832
1425.419173
1443.068238
1448.79871
1510.170026
1520.922037
1513.924963
1524.433562
1513.336288
1543.950641
1528.599084
1491.416023
1485.040485
1506.427155
1494.362518
1485.38132
1493.079162
1505.377828
1380.64318
1392.04667
1382.721652
1351.990316
1373.241503
1378.376886
1665.175896
1640.762446
1603.51345
1693.02763
1653.691581
1679.221092
1591.63373
1557.921262
1576.076411
1600.464222
1606.188105
1626.304493
1632.813788
1654.938934
1646.05158
2118.875542
2420.760371
2486.906356
2217.937606
2225.453149
2236.537997
2202.657619
2013.099129
2026.567685
2009.96559
2171.016133
2142.143042
2131.006973
2980.67977
2792.66079
2868.336969
3077.972963
3087.777487
3231.943787
2547.606695
2611.571699
2621.398425
1802.208226
1800.518984
1802.322752
1842.222052
1836.081341
1838.013698
1776.90073
1773.759235
1800.144471
1794.592674
1914.722907
1918.386786
1907.99921
1994.818996
1979.863125
1974.337079
1852.194829
1853.491666
1847.638063
1898.903238
1891.573532
1889.403309
1584.125335
1600.69796
1594.177543
1556.708663
1562.938378
1578.360975
1694.511053
1718.035233
1703.441861
1714.329133
1705.58474
1769.441424
1761.562692
1643.270416
1696.920854
1688.336676
1653.58847
1662.869551
1686.598542
1476.53293
1471.222241
1467.968177
1427.402344
1423.376478
1418.139508
1434.099041
1429.303434
1434.365727
1336.312892
1330.150957
1404.353231
1401.216133
1395.147933
1413.189509
1407.544071
1411.911046
1347.833256
1344.416371
1359.871261
1343.546518
1351.179526
2097.879068
2029.081249
4164.695794
4055.837801
3538.184288
3397.693567
3898.00635
3699.673756
3830.244034
2373.942549
2253.31856
2069.020778
2045.815464
2032.014104
2106.445097
2116.221027
2092.291492
2871.782049
2968.16378
2981.261574
3260.676868
3133.190718
2697.625991
2687.436685
2776.715732
1814.419085
1808.516825
1808.409057
1830.983105
1829.168467
1821.826229
1782.684665
1779.70138
1789.591382
1785.887265
1939.644332
1928.887791
1924.889737
1959.087879
1965.127242
1951.565601
1869.240375
1860.854336
1859.577244
1884.272585
1884.80093
1877.402474
1597.616429
1599.671579
1603.592992
1588.074979
1594.520639
1592.15833
1620.346795
1619.22802
1629.108898
1606.778168
1611.354924
1612.908609
1556.992816
1559.393166
1562.106943
1552.085638
1556.133161
1553.142206
1573.96232
1574.48186
1581.006084
1564.916938
1568.947797
1568.705081
1732.030948
1723.23492
1714.82836
1719.338444
1727.747312
1702.307921
1710.812873
1706.652874
1750.883447
1740.860982
1663.225683
1655.645134
1649.298702
1652.460367
1660.374158
1635.855671
1637.800824
1640.162699
1682.113894
1685.483174
1693.86964
1668.896092
1677.170259
1673.968686
1679.963924
1671.670338
1458.015839
1454.082279
1449.287588
1463.943585
1459.144969
1463.798128
1468.132864
1461.169687
1483.222647
1482.154944
1449.825738
1440.690243
1435.440641
1435.34211
1435.14339
1444.639381
1440.665364
1445.949872
1512.679826
1517.188248
1527.621806
1516.223859
1538.723083
1541.246391
1546.92144
1531.521899
1536.164724
1533.667322
1488.718827
1486.556193
1500.93328
1497.353413
1383.809908
1381.301666
1377.704883
1389.886829
1385.33968
1387.596618
1375.758885
1368.97596
1364.867718
1374.59017
1371.837146
1377.027312
797.6554125
754.7694651
729.8069789
736.7028504
670.889817
640.8848218
643.8991502
548.2427946
517.3368713
510.1991924
381.5529343
357.3668892
333.2555335
843.116012
811.6078463
766.6159031
797.6253138
741.6478318
685.3710016
717.4045116
624.9158692
563.1664557
586.6177161
447.201386
393.8024572
392.44435
906.3165207
893.0708493
829.8094329
885.6596871
850.4258854
765.0776903
833.0963853
757.4630258
652.0995917
722.1880681
575.6610579
471.994439
511.083225
979.7976068
993.6073622
917.0491833
996.4712617
998.6285152
883.8391328
995.8434523
965.3292567
801.5907125
944.6598757
820.3914534
622.8510527
747.856172
1050.909546
1094.592874
1019.714622
1110.490398
1163.719223
1039.347207
1183.786429
1249.340982
1031.180081
1270.580224
1295.786034
911.6361445
1263.533546
1104.16477
1172.671632
1117.393382
1199.30959
1297.209258
1202.300929
1338.418023
1506.192102
1323.130109
1585.003756
2034.440068
1464.330411
1766.347603
1833.953401
1324.74332
1126.395747
1206.077539
1185.748817
1236.975512
1348.815852
1318.802729
1394.515953
1569.385418
1543.185424
1650.138499
1753.057509
1730.395739
2197.920772
2328.780931
2322.967777
1113.463673
1190.554233
1207.738852
1219.499605
1318.868502
1347.900863
1356.897871
1487.275289
1556.696392
1597.542579
1661.016498
1697.03275
1880.938606
1906.178828
1953.951366
1069.271542
1136.023362
1180.167324
1160.369799
1240.622417
1302.769267
1269.963851
1365.193851
1458.575303
1467.621105
1506.340136
1544.779524
1634.742191
1646.268059
1685.596607
1001.107039
1054.334779
1117.781468
1073.409451
1135.049247
1216.348072
1157.229558
1229.394563
1332.468698
1328.085402
1357.152873
1394.054386
1459.840836
1472.752193
1500.521554
1030.823857
1105.490226
1192.886573
1177.901754
1198.085624
1242.98199
1310.113234
1327.49557
1356.832137
2007.578689
2066.650869
2016.350378
1698.994912
1740.815971
1714.361544
1510.172773
1540.441728
1519.098559
1366.343466
1393.862214
1368.280358
2738.057623
2050.120846
1874.459317
1238.01757
1800.338281
1583.710413
1622.817145
1567.513305
1752.311197
1673.86025
1609.162139
1764.955308
1699.45829
1782.957066
1431.053742
1468.435347
1433.120948
1549.742349
1502.926359
1445.500825
1585.679782
1524.646096
1572.192466
1596.371233
1633.392828
1610.014639
1637.453657
1630.668552
1617.81808
1710.716075
1697.53507
1706.886093
1282.086366
1319.984536
1292.157856
1390.853897
1349.673698
1293.328802
1425.069114
1369.722925
1409.454292
1437.639105
1463.787307
1441.26865
1478.562949
1468.209402
1460.434368
1520.13499
1510.792455
1516.731979
1272.497662
1210.202329
1251.940143
1285.526179
1317.388641
1289.426437
1341.798808
1326.361761
1310.542574
1384.163859
1374.595726
1383.406061
2364.423218
2363.370392
2493.947102
2027.328655
2087.588784
2084.029181
2928.644417
3096.927006
3096.143525
2556.358233
2657.876914
2601.359867
1770.699611
1747.416326
1706.336697
1809.737408
1761.826726
1783.508079
1743.393894
1755.888201
1790.776348
1816.331796
1818.3172
1839.318207
1753.192014
1769.130077
1755.105104
1977.01999
1965.244381
2010.422665
1846.569263
1870.40726
1863.461072
1545.113721
1539.399696
1529.664378
1605.344551
1593.3022
1598.970317
1540.508828
1551.044737
1584.4902
1612.868758
1615.043585
1621.558277
1540.258435
1544.925583
1542.095103
1710.859204
1725.757551
1747.166808
1628.175665
1635.02611
1632.1549
1416.732756
1402.594228
1393.561371
1452.730794
1444.919023
1453.696211
1386.741597
1402.836721
1428.977604
1465.205372
1469.521714
1472.477153
1413.211153
1418.512658
1413.06849
1528.159043
1530.748558
1535.557375
1475.386564
1478.363778
1474.946852
1304.982815
1274.393753
1321.895816
1326.974163
1333.025014
1398.008433
1402.765046
1408.084486
1338.920781
1341.924913
1336.964295
1727.958494
1749.16617
1653.734455
2036.021274
1834.770434
1789.122733
1812.557862
1844.827342
2063.95318
2255.060481
2305.004793
2184.75242
2670.253813
2415.755994
2319.246894
2499.877205
2436.657139
2724.91465
1825.507276
1863.663713
1842.333992
1900.333041
1887.158208
1829.237966
1987.192032
1911.515314
1923.487634
2171.560893
2118.020314
2018.551899
2275.979524
2159.104536
2223.288475
2065.20568
2129.350774
2193.668635
3807.988129
3995.504001
3976.47158
3368.889199
3505.359216
3423.542079
1801.098381
2462.646603
2436.036536
2520.21626
1891.939348
3490.059029
2772.924418
2565.992514
1346.077835
1336.39144
1346.763824
1316.661401
1326.398716
1336.362343
1305.435632
1316.091527
1306.214071
2220.878187
2324.382439
2295.93914
2508.615438
2452.455167
2443.029747
2128.627672
2110.417335
2190.705439
2968.459286
3048.128437
2898.882317
3517.389647
3224.676905
3038.588375
3305.988725
3298.47285
3582.150529
2629.13464
2630.263931
2567.398619
3090.94743
3010.128046
3052.444982
2685.828049
2765.631364
2872.999652
1794.264536
1811.636345
1802.600201
1761.467211
1774.194736
1789.445096
1916.929125
1952.186026
1949.007754
1881.697569
1878.899124
1906.721879
1579.790778
1585.346505
1582.844574
1566.909236
1568.989614
1574.332896
1686.320318
1693.743179
1689.188268
1667.947539
1671.451034
1678.904496
1445.353607
1449.93679
1445.696814
1432.92967
1436.871704
1440.892529
1504.195456
1508.015118
1505.425894
1493.123304
1495.993723
1500.183978
1294.645177
1373.69645
1377.656205
1373.653929
1361.158728
1366.331947
1369.973529
3130.162594
3358.775993
1484.565619
1476.240629
1482.301301
1462.238829
1469.323373
1477.789768
1452.892874
1461.03211
1453.708788
1497.922993
1504.498825
1513.863589
1486.459961
1495.344852
1488.704457
1507.673905
1501.677297
1492.907056
1356.279361
1365.421378
1374.952329
1346.13035
1355.795586
1346.571335
1378.560256
1365.025435
1355.549496
1559.822663
1549.435706
1554.993403
1536.898197
1543.336204
1553.728094
1523.44406
1533.244051
1526.785345
1550.311305
1547.604551
1543.030046
1556.503135
1552.059332
1554.535233
1547.044077
1549.513399
1554.164452
1419.890306
1411.29052
1420.676614
1393.542242
1402.35285
1411.129481
1384.323229
1393.441068
1384.475961
1428.464443
1436.636901
1444.790689
1419.808817
1428.317735
1419.929061
1449.756792
1436.837976
1428.452868
1462.897239
1466.374837
1461.801978
1476.484262
1473.9803
1478.660307
1417.889584
1423.780076
1427.841382
1521.163073
1525.957966
1523.202852
1531.006194
1528.483501
1523.519114
1538.295569
1533.417619
1536.071179
1484.473361
1481.568269
1478.956724
1487.533315
1484.422953
1487.007805
1478.295927
1481.488326
1484.78028
1391.64719
1397.1632
1392.82245
1341.460636
1344.291635
1352.226447
3871.039237
3958.02595
3779.674809
4183.230125
4209.079467
3537.662197
3634.010688
3757.994925
2311.55111
2272.619538
2260.909118
2286.441619
2281.085302
2320.134142
2210.887098
2244.773337
2250.853898
2453.02377
2455.742315
2508.038368
2362.196629
2407.380014
2407.856701
2390.819678
2400.779483
2353.99741
2060.985858
2055.125204
2076.669853
2017.42537
2035.216701
2041.156615
2156.962257
2150.228404
2179.328871
2099.386576
2123.713095
2130.263614
2770.395772
2697.770695
2701.855971
2671.488936
2685.335161
2751.698017
2563.943452
2622.924005
2610.661312
1806.887473
1807.747538
1814.012812
1799.029038
1801.722589
1801.234267
1833.562091
1834.845193
1841.398466
1820.966128
1827.979809
1826.664103
1769.359452
1774.694168
1778.575024
1766.288566
1770.703307
1764.588408
1788.307314
1791.765994
1796.311445
1782.508559
1786.830875
1783.343305
1937.224664
1933.757811
1945.341826
1912.379275
1922.808587
1925.872181
1991.050464
1986.138106
2001.314673
1957.911033
1971.584254
1976.254286
1862.299733
1862.04206
1870.103317
1847.780996
1854.503591
1854.591158
1895.840573
1894.202286
1902.776134
1878.229701
1886.20608
1887.137957
1746.874101
1753.867357
1760.948246
1736.229293
1745.15867
1739.167221
1450.074302
1454.57047
1458.962695
1430.256061
1432.962818
1428.995215
1512.606424
1510.518827
1507.283638
1518.826506
1514.117098
1514.616945
1509.73013
1512.107904
1516.587918
1488.253417
1491.966905
1489.17609
1496.436157
1494.489974
1490.866569
1503.160388
1498.61949
1500.402803
1378.064773
1381.918431
1386.550572
1357.608893
1362.424491
1356.804723
1657.206035
1643.830404
1651.203421
1628.073866
1636.036649
1648.971793
1610.882981
1623.318593
1615.625021
1679.854682
1688.347178
1701.488138
1662.057439
1675.188487
1666.717372
1693.182282
1684.170023
1670.692098
1580.078854
1586.920803
1598.722715
1564.44588
1575.489519
1568.82931
1587.259276
1581.716725
1570.577273
1602.499206
1608.65597
1606.17671
1612.351857
1610.752278
1604.562798
1623.975494
1617.327427
1619.295252
1639.572967
1637.538702
1630.601354
1652.242157
1644.829535
1647.235051
1639.485035
1642.092643
1649.305928
2922.35366
2963.384038
3033.074195
2820.852479
2892.727507
2854.814951
2960.337232
2928.755365
2847.760646
1589.83753
1587.656046
1582.056124
1598.794458
1593.22073
1595.355213
1588.801226
1590.935234
1596.630055
1558.902862
1563.852298
1561.434274
1567.628608
1565.931342
1561.083606
1576.493394
1571.081695
1572.7966
1702.407161
1698.084275
1690.451324
1713.167855
1705.664353
1710.257982
1696.712665
1701.074812
1708.375307
1656.633123
1664.03685
1660.335508
1670.776949
1667.464925
1659.833021
1682.790389
1675.125215
1678.687824
842.4955728
828.5991854
826.3524129
810.9998797
788.5324382
785.551196
761.2890972
728.2103032
724.3298196
688.4300656
641.1626993
636.5302647
585.797711
521.9691486
517.1955186
449.6912459
369.4625967
365.6215219
282.1760473
189.5300097
187.9512011
869.6452685
863.3591424
857.2162193
854.8042015
843.6643464
834.4231285
829.1772825
809.1428207
790.6130364
782.4675727
768.5200161
763.2318608
717.0005303
696.0298223
689.3285446
620.9668938
591.1518239
583.6950403
488.2820836
448.6034221
441.772347
317.9192645
269.8219049
265.4383397
884.0117682
881.1421048
871.3747305
876.5898373
870.1704283
855.6621385
861.3486753
850.8343884
818.0243982
818.099021
807.0034998
795.4028914
763.7223495
745.5026125
730.3962636
676.0807298
647.4271001
630.1053936
542.45647
501.1259617
484.2945464
357.5696829
304.0449113
292.8595619
902.6145913
903.9645727
892.0981916
905.0697111
905.3323316
886.9382979
904.6208301
908.6525622
863.7495811
872.5523022
866.2730726
849.6128372
838.4119033
825.1564895
802.3893697
769.5271682
744.6490211
715.8025482
645.4579032
602.8526977
571.4591883
441.8081413
376.9860982
353.5771391
921.1333485
927.9919419
915.9807613
935.9838086
944.5639863
924.7980573
953.3114466
974.2831573
924.5174928
942.5800944
943.3077949
923.0469066
939.340746
934.8632055
904.6115227
908.2918826
893.5536053
851.1502699
820.5260675
782.7495408
728.2989395
608.6098187
526.0213573
478.1268881
937.3281576
949.4433603
939.1953673
964.0893274
981.283944
963.7425773
1001.007296
1037.528723
990.541191
1016.548107
1026.159166
1005.765053
1054.938936
1064.29171
1031.536542
1089.47049
1095.042449
1042.110667
1096.463796
1084.803037
995.3642992
952.6332342
850.6312375
741.464804
946.4660388
963.0720487
957.422675
983.3832779
1007.516055
996.1526396
1036.084119
1084.392866
1050.998384
1080.711577
1098.684537
1082.558057
1160.073494
1183.799434
1156.570638
1269.91518
1305.648702
1257.00531
1445.416978
1506.516711
1398.918528
945.1586506
964.6760758
965.3964691
988.5228257
1016.886331
1014.613109
1050.882578
1103.48057
1091.732145
1119.772811
1143.308732
1135.495444
1225.618448
1258.24414
1245.309961
1380.68089
1433.065337
1413.724661
931.609162
951.9691147
960.0724407
976.7819322
1006.094567
1014.082276
1041.129457
1090.636865
1103.104276
1124.387977
1149.30534
1152.194572
1234.684782
1267.533842
1271.955025
1384.375153
1430.835781
1441.15132
905.3215878
924.6271629
940.0248925
947.9559582
975.2713922
993.0624679
1007.597899
1049.009263
1082.550996
1094.854761
1117.821022
1128.789684
1194.216798
1222.518953
1237.735264
1317.587808
1352.915038
1376.43522
867.5098632
884.0904042
905.8870001
903.9744885
927.0521077
953.1195977
954.1015085
984.6670273
1034.731956
1037.745541
1057.020701
1074.498255
1119.744789
1142.394203
1164.920304
1216.199206
1242.85123
1272.349563
859.6988375
897.5794238
965.8806377
960.2480428
975.0901551
997.1961471
1022.498259
1039.330925
1066.837102
1093.480035
1113.004493
1147.269153
2275.983359
2189.824965
2073.222975
956.8488428
1088.524281
1695.740039
1675.376515
1650.270084
1847.276306
1816.083018
1849.967686
1506.888694
1493.536535
1473.408371
1625.960103
1602.365697
1619.202854
1353.357778
1339.527452
1320.147083
1453.716223
1434.387232
1447.212474
1471.416688
1467.669661
1464.386616
1300.380755
1280.150347
1294.397043
1331.58953
1326.416416
1320.958745
1393.323295
1388.889581
1393.339993
1745.572437
1736.613525
1723.70859
1820.980845
1805.138515
1811.351232
1742.152569
1748.182309
1743.0636
1724.487094
1729.375525
1735.905072
1407.906902
1402.787635
1398.488833
1460.379129
1457.099936
1461.019411
1315.727325
1310.364699
1316.113511
1255.294006
1963.261776
1909.807057
1878.78463
1975.97899
1987.926797
2084.516408
2540.632811
2477.834624
2421.01472
2648.307646
2667.514587
2785.924071
1860.168276
1856.418489
1838.041909
2005.30151
1974.950121
1977.483155
2081.964976
2074.859331
2038.486993
2363.900263
2308.405517
2339.710941
3046.7335
2944.583365
2801.762118
1355.555919
1351.377527
1356.136025
3339.951055
3260.997864
3174.318982
3482.640834
3497.237669
3646.1009
1788.577755
1795.176653
1790.515738
1773.488308
1776.87689
1782.562661
3902.350356
3772.07285
3631.86077
1491.215036
1487.347878
1490.119731
1503.351639
1498.57282
1495.428305
1369.353941
1364.678672
1360.512614
1428.379823
1424.564882
1428.704563
1441.396236
1436.883996
1433.029104
785.0676417
776.0221907
789.1802505
744.4448556
760.8194527
770.5697085
746.6954546
753.0938227
735.868436
717.1096333
705.5846248
725.6819647
658.3981805
682.7347981
694.8752252
665.507129
673.2558253
648.0643238
614.9726704
601.9307991
630.9621599
535.4522694
569.5266612
582.6949005
551.3032943
559.4280167
524.7296745
470.1771642
458.423847
497.7442521
371.4528738
415.52414
426.7194122
400.9171616
407.4174086
363.0593215
283.7218771
276.2630618
324.203516
225.6013804
231.5805517
218.6938781
221.748837
834.1402417
819.9230368
830.0287666
794.9909871
808.2667696
823.68226
781.7602989
794.2969092
779.997772
781.5241968
762.5453504
779.7817213
720.6485244
742.8796896
762.9208473
708.9425707
724.8941315
701.9299373
690.0690401
667.3227657
695.4601506
601.1932923
635.889857
659.2838364
597.9730913
615.5405173
580.6904135
544.3348061
521.0205817
562.8733229
426.2145899
475.3778258
497.8207819
440.2778658
456.3435883
408.5568637
333.9774797
317.6203102
373.4554429
258.8786452
272.0932032
238.9965526
247.9703055
903.1499227
884.1012679
888.8740098
870.5942458
878.1033183
898.7708214
840.5068007
858.6828341
849.5018562
876.3153465
849.8178619
861.256794
819.4665786
835.9873663
864.6863254
785.0808015
809.4348166
791.0116149
812.2241602
776.7489267
799.8551697
718.0487554
749.6461713
787.224437
685.8984427
715.9428037
683.0363711
680.6408796
639.0468345
681.3614621
535.4450545
590.5340824
632.0166464
524.1230159
554.8164282
501.1732549
438.2496505
404.9138421
473.5216211
330.0806028
357.594063
288.0173868
307.1432154
985.0396832
964.1556346
961.1455821
967.2964849
966.3219381
989.7028257
920.7535504
943.4182695
942.1061398
998.3247339
966.5244175
967.8343232
958.2044712
963.6104574
999.578262
895.4587848
928.3670416
919.6855339
989.5114984
939.4972637
950.3491672
905.123836
924.780278
979.6191562
828.856104
874.6707226
850.7163966
915.4516772
844.8136147
879.048937
743.4615064
800.338772
875.0382711
680.1214327
735.8419171
678.2695331
654.4436212
583.8981105
671.868386
479.0914248
538.6469724
390.6638434
430.581651
1064.924457
1045.968871
1034.141271
1070.442205
1058.077318
1079.487
1012.915962
1035.775563
1045.372583
1127.176527
1096.243219
1083.179019
1123.409591
1109.715264
1144.915374
1036.002478
1073.330854
1081.844693
1205.096951
1150.865432
1137.262429
1173.808974
1163.487356
1227.12304
1038.657946
1099.401594
1101.808286
1289.13206
1184.404427
1180.56702
1147.184369
1174.178409
1299.716513
961.6398694
1061.097138
1019.737636
1171.299177
990.2807072
1091.153697
829.101369
1111.273199
612.7100017
706.8712214
1125.399512
1113.079742
1093.341123
1156.737938
1134.130565
1148.151507
1099.492047
1117.780008
1138.171385
1228.517578
1207.92318
1181.203042
1270.243329
1237.412091
1260.906802
1178.515648
1209.757032
1238.27415
1385.743087
1349.324958
1307.238649
1454.619399
1397.66888
1440.765516
1288.52746
1346.083299
1392.45776
1681.298847
1603.500061
1522.084359
1822.003762
1704.297351
1806.370105
1436.831764
1576.344065
1647.826142
1638.444061
1659.291316
1824.564228
1151.079069
1148.33385
1124.080847
1202.474939
1174.373886
1177.559079
1159.661157
1168.585673
1195.891755
1270.678189
1266.44886
1233.010876
1344.572364
1303.38941
1307.723323
1279.932098
1294.405303
1334.889376
1445.918241
1443.270127
1390.843991
1573.035393
1503.548523
1503.700624
1472.928316
1493.836392
1565.103134
1137.690303
1144.445613
1119.83331
1198.46175
1170.596098
1163.342718
1179.033864
1175.857526
1204.233137
1250.380435
1260.253624
1228.259308
1332.063295
1294.758593
1283.427185
1308.220818
1303.163512
1341.962011
1397.665
1416.052852
1372.402289
1513.918036
1463.19762
1441.158947
1495.785169
1481.775601
1537.528611
1090.526224
1105.002993
1082.846908
1152.612522
1128.236141
1112.761994
1153.775
1141.979422
1167.409739
1185.871799
1205.129124
1178.212459
1263.278223
1233.456959
1212.601783
1269.234741
1252.443245
1284.105568
1300.606444
1327.527709
1294.638319
1397.200924
1361.807283
1332.431395
1416.530541
1389.944945
1428.405845
1659.257041
1651.777
1639.978933
1677.913842
1665.796077
1672.407137
1018.197351
1038.274723
1020.058018
1076.873664
1057.208696
1035.936758
1095.681853
1077.095691
1097.992894
1093.191233
1118.506695
1097.2942
1163.490583
1140.555898
1113.721445
1190.071457
1165.990545
1190.581273
1180.316784
1212.181782
1187.355285
1264.691309
1237.975561
1204.362641
1301.976383
1270.492224
1299.000176
1481.817701
1474.341089
1465.979942
1493.178655
1484.481647
1491.100035
1013.71723
990.3952251
1006.197
1085.808472
1056.731416
1074.755311
1169.546969
1133.460012
1155.075409
1337.406585
1327.899714
1318.759784
1347.485022
1338.686724
1347.225489
1520.006917
1512.772161
1503.66704
1533.341112
1523.786298
1530.121658
1375.632942
1366.461026
1357.954755
1384.915874
1376.658952
1384.851788
2494.178231
2330.755741
2442.942773
2002.512287
2175.755774
2277.53166
1981.456479
2072.377658
1938.114358
1395.413554
1270.661792
1119.058817
1695.30566
1458.366547
1578.747759
1259.389383
1484.49228
1728.343445
1701.35445
1723.367429
1629.837115
1653.368804
1629.23746
1815.468385
1785.750044
1756.489956
1535.345743
1514.173206
1527.984631
1484.473322
1499.389944
1519.935917
1459.476941
1479.242856
1463.481531
1566.175098
1584.371273
1606.771562
1540.955556
1562.391355
1543.631197
1595.337006
1579.422116
1557.09267
1608.426836
1601.555151
1590.544007
1626.282183
1614.870401
1620.814897
1377.527147
1358.627269
1372.218523
1331.915432
1345.001965
1364.008989
1306.380159
1325.862199
1311.61537
1407.407427
1420.837583
1440.035464
1382.894205
1401.828467
1387.297001
1428.192469
1415.296691
1396.382508
1446.256641
1438.282633
1430.314572
1456.111076
1447.998115
1455.006219
1475.12503
1471.701916
1474.954182
1253.511811
1266.357193
1286.641144
1223.916244
1245.608448
1232.385529
1273.556663
1259.314532
1237.704174
1296.530686
1287.257968
1275.795566
1307.628621
1298.302958
1307.162276
1336.400287
1331.728852
1336.608599
1315.877791
1322.146896
1314.328289
1388.362641
1383.649448
1379.173339
2404.75807
2400.361941
2362.593198
2479.663929
2444.212391
2448.526749
2045.966163
2049.222188
2030.823604
2090.827819
2069.55852
2065.813735
1762.689526
1749.569477
1758.066559
1733.502432
1741.170379
1754.736633
1714.622789
1727.812541
1719.783996
1794.604607
1799.199968
1815.584341
1768.717922
1783.528977
1777.486351
1797.029389
1790.259984
1776.163359
1825.197724
1823.492144
1817.022357
1837.976514
1831.240702
1832.226376
1758.763469
1753.314032
1747.47526
1764.397023
1758.929042
1764.035128
1749.560001
1754.038268
1759.790762
1979.475943
1981.327073
1966.986255
2013.121474
1996.735514
1994.31057
1854.165794
1853.325051
1845.943347
1869.968236
1861.768504
1862.068354
1561.838581
1554.904988
1544.974295
1577.628003
1567.171855
1573.025375
1715.542137
1722.582105
1717.336516
1733.342954
1727.820402
1720.578245
1741.317428
1734.769851
1740.554295
1411.647804
1407.742936
1412.524333
1457.417766
1452.978014
1449.53607
1411.620315
1402.94156
1394.877484
1420.640014
1412.701198
1420.370983
1299.87181
1304.770209
1310.158735
1264.664564
1964.25872
1939.075055
2001.304015
2081.234033
1989.51365
1981.955709
2576.911617
2530.604488
2607.893867
2392.880223
2456.699798
2490.657081
2368.98036
2415.188245
2354.594676
2524.813217
2553.227955
2439.08733
2766.187166
2652.069917
2618.081864
1897.992905
1876.337021
1879.313735
1867.902231
1872.365304
1893.870137
1833.325043
1852.145317
1846.2843
1961.342832
1968.825907
1997.995497
1917.041024
1941.905261
1933.703671
1949.094515
1947.123187
1921.545678
2157.996589
2114.580743
2124.482311
2083.781121
2100.379339
2140.095252
2029.528111
2063.74246
2048.519435
2238.153754
2273.511852
2320.947611
2182.621283
2227.058679
2195.435735
2279.427214
2255.26704
2204.980696
1986.253413
2199.200581
2283.688395
2317.803209
2512.507284
3292.573339
3108.025332
3245.117894
2725.10993
2928.823387
3045.904145
2693.711692
2805.044905
2646.529573
1351.564894
1346.255494
1341.80898
2253.537189
2253.437586
2222.33693
2322.001534
2287.772034
2287.622531
2135.451688
2138.308546
2114.021986
2192.417553
2164.371169
2161.755571
3403.475617
3341.860908
3433.865353
3107.155937
3183.40933
3083.86254
3620.780275
3481.748932
3460.110919
1799.512724
1797.252503
1791.321101
1809.69768
1803.745378
1805.386258
1765.488334
1771.19928
1767.04172
1779.337917
1775.263969
1769.823403
1785.961669
1780.67782
1784.500155
1928.12166
1929.29668
1917.774304
1953.674821
1940.93429