/*--------------------------------*- C++ -*----------------------------------*\
| =========                 |                                                 |
| \\      /  F ield         | OpenFOAM: The Open Source CFD Toolbox           |
|  \\    /   O peration     | Version:  v2012                                 |
|   \\  /    A nd           | Website:  www.openfoam.com                      |
|    \\/     M anipulation  |                                                 |
\*---------------------------------------------------------------------------*/
FoamFile
{
    version     2.0;
    format      ascii;
    class       surfaceScalarField;
    location    "1";
    object      phi;
}
// * * * * * * * * * * * * * * * * * * * * * * * * * * * * * * * * * * * * * //

dimensions      [0 3 -1 0 0 0 0];
oriented        oriented;


internalField   nonuniform List<scalar> 
5999
(
0.0004679199411
0.9161820801
0.0006101512136
0.9165577687
0.0007577248669
0.9165024263
0.0003723873027
0.9165045143
0.0005308232252
0.4583370975
0.0003852898217
0.4582899033
0.0004883262123
-0.0004782294665
-0.0006130388084
0.4582586041
0.0007044346825
-0.0007939158123
0.4582030886
0.0009258272351
-0.001068314701
0.4581780804
0.001220234256
-0.001387943151
0.4581614691
0.001561474049
-0.001728612441
0.4581791554
0.001884457063
-0.002024818189
0.4582326765
0.002123641679
0.001289742155
0.9148923379
0.002100586567
0.9157469243
0.002514767744
0.9160882452
0.0008782683795
0.9167840141
0.001356999647
0.457966955
0.001054624451
-0.4581433111
-0.4581066708
-0.001296204654
0.4578068273
0.001596048219
-0.4579316421
-0.00196255644
0.4574959676
0.001123857014
0.001274373865
-0.2288937265
-0.001349944508
0.2287818887
0.0014617823
-0.001924159842
-0.2288274673
0.2286831871
0.002068440043
-0.002621992339
-0.2287899825
0.2286141291
0.002797845785
-0.003376588616
-0.2288215173
0.2286427851
0.003555320747
-0.004020033602
-0.2289396
0.2287980254
0.00416159648
0.001652728711
0.9132396092
0.004363535488
0.9130361175
0.00739883563
0.913052945
0.003223455867
0.9142390226
0.006720371226
-0.4578381579
0.4575575859
0.003504027801
-0.4574988183
-0.003618980814
0.4579901856
0.003127613508
-0.456899173
-0.003396578694
0.4564499372
0.001857822113
0.001987992386
-0.2282366971
-0.002279692343
0.2279980676
0.002518321818
-0.2279708965
-0.003359021669
0.2276515697
0.003678348514
-0.2277852936
-0.004779786946
0.2272179164
0.005348632038
-0.2275946815
-0.007362692006
0.2269278506
0.008037124958
-0.228008211
-0.009855845119
0.2275399314
0.01032957058
0.0006690227133
0.9125705865
0.00147337977
0.9122317605
0.002962033142
0.9115642917
0.003657311347
0.9108992012
0.002644543193
-0.4566659417
0.4560924781
0.004230774944
-0.4593514628
-0.005610277959
0.456100932
0.008860808762
-0.4576565486
-0.01035956364
0.4589259717
0.002858910839
0.006231229729
-0.2271148445
-0.00300884731
0.2268162026
0.003307489163
-0.226256825
-0.004696121864
0.2251707441
0.005786406039
-0.2242073245
-0.009654680765
0.2228245899
0.01105586734
-0.223929578
-0.01525329999
0.222620818
0.01658068235
-0.2254507738
-0.02006345161
0.2245329919
0.02099002116
0.0002632698272
0.9123073167
0.000623121767
0.9118719086
0.001235123855
0.9109522896
0.001802873211
0.9094014067
0.0009300451857
-0.4556703301
0.4547441973
0.002729006032
-0.4544519586
-0.00333590511
0.4535921993
0.004195664377
-0.4525076768
-0.005345388704
0.4513846989
0.003371690013
0.003096676591
-0.2271245454
-0.005435792676
0.2250417355
0.007519072396
-0.2216048991
-0.01379698631
0.2220594117
0.013364972
-0.2178099963
-0.01540924752
0.2160107568
0.01724028312
-0.2180313176
-0.02269106787
0.2163592358
0.02438680962
-0.2211529708
-0.02898047233
0.219825759
0.03031613414
-7.538005246e-05
0.9123826967
-9.817875399e-06
0.9118063464
0.0003815307474
0.910560941
0.0006110350086
0.90862733
0.0005445724316
-0.4537247908
0.4532575778
0.001078247969
-0.4528511992
-0.002220599301
0.4518624925
0.003209306051
-0.4501991829
-0.004044669169
0.4488153192
0.002708793632
0.002719739329
-0.2210145491
-0.004200385579
0.2195998389
0.005627663827
-0.213033479
-0.01100707008
0.2110572252
0.0130219556
-0.2122845593
-0.02128340922
0.2087745473
0.02483480629
-0.2133320526
-0.03066550023
0.21316862
0.03085114486
-0.2156266923
-0.03427300509
0.2153691945
0.03453478933
-0.0005846747078
0.9129673714
-0.001004660825
0.9122263325
-0.001204969912
0.91076125
6.338956317e-05
0.9081389931
-0.0007800226267
-0.4530223911
0.4526028462
0.0004829344257
-0.4506145498
-0.0008504850987
0.4500757394
0.001389295522
-0.4481171574
-0.002575302569
0.447378925
0.001606967114
0.00170703648
-0.2154263749
-0.003819544215
0.2140219307
0.005248976813
-0.204827338
-0.01041820818
0.2040969646
0.01119727142
-0.2029675388
-0.01642526601
0.2015569716
0.01787686129
-0.2059363363
-0.02258427276
0.2038173339
0.02471668794
-0.2081059386
-0.03976122949
0.1055778077
0.09981400584
0.01905392322
0.0234214314
-0.001141231963
0.9141086034
-0.002206650144
0.9132917507
-0.003036553699
0.9115911536
-0.001515215652
0.908827655
-0.002209999941
-0.4525320855
0.4524872543
-0.00147038445
-0.449787694
0.001473368551
0.4496208796
-0.001306554173
-0.4456597581
0.00105432092
0.4448666888
-0.0001518280137
-0.000105156188
-0.2105445433
-0.001384510853
0.2097327674
0.002227026684
-0.199553386
-0.005388191415
0.1985657171
0.006429641865
-0.1983156267
-0.009775483509
0.1973250817
0.01080856018
-0.2010047987
-0.01303438613
0.2006802806
0.01336391679
-0.09207565109
-0.008685066587
0.09194301394
0.008817703736
-0.001706780614
0.915815384
-0.003334951833
0.9149199219
-0.005025574376
0.9132817762
-0.002924632324
0.9103530421
-0.00362632916
-0.4527263169
0.4529572225
-0.003155537942
-0.4496912573
0.003433592383
0.4499566232
-0.003698958202
-0.4444716107
0.003962437433
0.4443845552
-0.001767579669
-0.002099588333
-0.207551683
0.001017478368
0.2069090264
-0.0003320156676
-0.195681372
-0.002196624537
0.1948830142
0.003064068366
-0.1957702497
-0.005104232396
0.1954732512
0.005452342875
-0.2018025957
-0.004949414592
0.2025668044
0.004187949034
-0.09562473277
-0.000228196162
0.09623354726
-0.0003806183219
-0.002236248261
0.9180516323
-0.004591647798
0.9172753215
-0.006906636712
0.9155967651
-0.00433685967
0.912828514
-0.005045248902
-0.4534768864
0.4539954629
-0.004855436178
-0.4503681286
0.00546384654
0.4510671919
-0.006162909868
-0.4445330898
0.006878372151
0.4448749387
-0.003389730646
-0.003816106793
-0.2052997185
0.002857266961
0.2047915353
-0.002294633413
-0.1928799692
0.0002666865726
0.1923204195
0.0003777001824
-0.1950866031
-0.001587239214
0.1951322562
0.001602535599
-0.2052648847
-5.060087046e-05
0.2062335374
-0.0009161607082
-0.09927899418
0.00203229171
0.09960355535
-0.001161103515
-0.001195749356
-0.002836865387
0.9208884977
-0.005684207004
0.9201226631
-0.008718395844
0.9186309539
-0.005681766349
0.9161516094
-0.006359724904
-0.4547791092
0.4555627583
-0.006465415494
-0.4518935933
0.007420423362
0.4528324387
-0.008359268785
-0.4455485269
0.009460942817
0.4463885557
-0.00501092739
-0.005265946928
-0.2034108912
0.004348280409
0.2029815434
-0.003851409777
-0.1908810579
0.002112340513
0.190467671
-0.00159791057
-0.1955848928
0.0009006018113
0.1958290989
-0.001074838068
-0.209138834
0.003142212437
0.2101019748
-0.00410450623
-0.1015278302
0.003366199664
0.101753348
-0.001780918865
-0.001810798618
-0.003370582589
-0.006789455004
-0.01039398103
-0.006868826441
-0.4565548633
-0.007850003653
-0.4540129983
0.008999613422
-0.01025641977
-0.4470542592
0.0116523115
-0.006021127972
-0.006891606244
-0.201725738
0.005273668858
0.2012916497
-0.004757435206
-0.1893907143
0.003092569389
0.1890820392
-0.002666280285
-0.1968327113
0.002382282777
0.1972758654
-0.002747500119
-0.2130395809
0.005484377463
0.2140532318
-0.006497931445
-0.1032471682
0.004653674579
0.103471787
-0.002419862223
-0.002458431117
-0.000729094503
7.356742017e-05
-0.09496920569
0.001832595963
-0.09893802939
-0.001069988195
-0.001103572564
0.00321643392
-0.1012887861
-0.001715582818
-0.001739895196
0.004482449902
-0.1030285653
-0.002332658511
-0.002368394366
-0.01042976899
0.01096595439
-0.09261183649
-0.001038124755
9.927425431e-05
-0.2043239202
0.09971350382
-0.09937847383
0.001497565974
-0.09637428851
-0.0007462012032
0.09689229356
0.002446062892
-0.003404888502
-0.2081789179
0.1019305017
-0.1016874015
0.002973333754
0.001716753309
0.1000290422
0.100498976
0.002582766784
-0.1002177103
-0.001420393373
-0.001443639098
0.04986687813
-0.001035286269
-0.04961680737
0.001893979044
-0.001108763532
-0.04901749536
-0.0008126447398
0.001559230724
0.04907221833
-0.0008013089553
0.004922460858
-0.005956040007
-0.2120057291
0.1037153023
-0.103488213
0.004255360623
0.003135600154
0.1021611012
0.102400088
0.003824805061
-0.1021871871
-0.002003196321
-0.002034509624
0.02540089945
-0.001017236634
-0.02546518828
0.00108152546
-0.04994724244
-0.00099033373
0.002041789346
0.04996679145
-0.001071004625
0.004417066812
0.10395191
0.05216766162
0.00260971522
-0.002680825667
-0.05209655117
0.02720406643
-0.002036837396
-0.02695436677
0.001787137733
-0.02637220608
-0.001021047146
0.001180204814
0.02621304841
-0.04362539048
0.0007373613569
0.04423484772
-0.000675777822
-0.000671040778
0.04721781498
0.001427623803
-0.04682348023
-0.0009778019376
-0.0008441566152
-0.005251704239
-0.04022673435
0.04020668058
0.00527175801
0.0004281830226
-0.001044552216
-0.04300902128
-0.0007772083619
-0.04895626004
0.001516255989
-0.0008002829461
-0.001388327253
-0.04820241587
0.001293989656
0.04829675347
-0.09775282348
0.001123622297
0.09817900879
-0.001549807605
-0.04802103644
0.04806978523
-0.0006861111481
-0.0007509648943
0.0245872249
-0.0007868317279
-0.02457760154
0.001390124149
0.04744889393
-0.0008882460005
-0.0007329571017
0.001356539348
-0.04797188208
-0.0006862103071
-0.0007194833996
-0.0009957974311
-0.04997149253
0.001988659904
-0.0009686123778
-0.001095044834
0.001881633551
0.05001110748
-0.0009308180724
0.00274753576
0.1007778389
-0.001500886916
-0.001525511819
-0.02527418998
0.02533808797
-0.001158942821
0.02478358599
-0.0009380887756
-0.02484129465
0.02457286494
-0.0007982847746
-0.001246616316
-0.02506285993
-0.001061598037
-0.02650188669
0.001191278653
-0.001026531626
0.001099239096
0.02532819198
0.003983599695
0.1026098464
-0.002078801923
-0.002114556137
-0.02559329186
0.02545026476
-0.0008835045253
0.02698086137
-0.0008261571414
-0.02721630227
0.02476004006
-0.0009667877913
-0.0008756667891
-0.0257348617
-0.001472709016
0.001523850393
0.02715292505
-0.002725410515
-0.02772402105
0.02753255413
-0.001281242098
0.0267143323
-0.0007545180696
-0.002282652881
-0.02747820557
-0.006652214401
0.006033735162
-0.2011810392
-0.09583711415
-0.001266268864
-0.09390282401
-0.008455604283
0.09367336171
0.09294708175
-0.004074836325
0.003497410463
-0.09236965589
0.04397380157
-0.04345751481
-8.810373083e-05
-0.04118545694
-0.005243254301
0.041177007
0.0008502293527
-0.001310930763
-0.09729212207
-0.04811719227
0.00127131574
-0.04705984453
0.001147819654
0.04730214902
-0.04675779384
0.001125573111
0.0002491515093
0.04446201142
-0.002915309801
0.09359320935
0.002269182204
-0.02036798235
-4.801015821e-05
0.02026753895
0.0001484535638
-0.003442709004
-0.01630446054
0.01613954747
0.003607622074
0.001298648506
0.01868892991
-0.00152985428
-0.01845772414
-0.02925742632
-0.09505071469
0.04645282969
0.04499657941
0.01637102521
0.0164877067
-0.006267312225
0.007091816531
-0.04105123865
-0.001143365041
-0.02502093426
0.001291165372
0.02487313393
-0.05130897871
0.002712632764
0.05135255853
-0.002756212583
0.05152985185
0.002862478197
-0.002920456492
-0.05147187355
0.00499211802
-0.01958945043
0.02767823731
-0.0130809049
-0.0001174569312
-0.02044547451
0.000194949091
0.04560520906
0.001186655002
-0.04521080719
-0.0007903717905
-0.0007906850804
0.02251400298
-0.02282127716
0.0001898172472
-0.02147953572
0.003331114311
0.02314053943
0.02284986519
-0.0249133596
0.002064121581
-6.271765261e-07
0.0002661608827
0.02219983194
0.001271767303
0.04596828211
-0.0008027384967
-0.0008321018641
0.04110911697
-0.002063769085
0.001497554648
-0.04054290253
0.01919165722
-0.01874843983
0.0008554311225
-0.01746584267
-0.002968688858
0.01699182252
-0.003433811384
-0.02072183059
0.002676106257
-0.001978724801
0.001322742591
0.01984763943
-0.00116166156
0.04174126618
0.0005295123514
0.01928740093
-0.00257719582
-0.003391703977
-0.01963155784
0.02448048527
0.0007565893476
-0.0008559852077
-0.02438108941
-0.02105650361
7.584953361e-05
0.02099054323
-9.889152771e-06
0.0007922464398
0.0245243595
-0.0008361206713
0.0477797467
0.001341143807
-0.04769188838
-0.0007399469233
-0.0006890552051
0.02150759888
-0.02154157881
6.845021899e-05
-3.447028531e-05
0.0006590082163
0.02214234433
4.851264117e-05
-0.02111456701
7.67524136e-05
-1.868901671e-05
7.39719053e-05
0.02145065144
-1.70244636e-05
0.00133854358
0.04785746169
-0.0007235413723
-0.0006927171914
0.02520986476
0.0008985912823
-0.0008803705002
-0.02522808554
0.0009683888951
0.02513296643
-0.0008914905582
0.02453805201
0.0008737751431
-0.000868683289
-0.02454314387
0.0008805504209
0.02453828964
-0.0008807880509
0.02473046682
0.001337385237
-0.001399736636
-0.02466811542
0.001589203293
0.02504584635
-0.001904582827
0.02638181269
0.0012499731
-0.001466591768
-0.02616519402
0.001142428317
0.026435972
-0.001196587632
0.0029051213
-0.002955173987
0.02475046361
0.001089202129
-0.0008106535604
-0.02502901217
0.0244915676
-0.0008844690315
-0.04308216459
-0.01800688296
0.03915435021
-0.004625282865
0.004791910077
-0.01647108775
-0.02574934333
0.001106203843
0.02578556781
-0.05061897299
0.002020823074
0.05066734641
-0.002069196494
0.05079448316
0.002131122112
-0.002172914646
-0.05075269063
-0.05041122859
0.001891131061
0.0504652972
-0.001945199672
0.00199305322
-0.002042915325
-0.05056911089
-0.02563102544
0.001131655202
-0.0511672473
0.00251410156
0.05120405839
-0.002550912653
0.002656467642
-0.00269049712
-0.05127494924
-0.02518462252
0.00125289039
-0.05002854136
-0.0009205063028
0.001906790244
0.05001064631
-0.05018202214
0.001759483821
0.0502433751
-0.001820836778
0.001855697025
-0.001911226118
-0.0503556995
0.02393656454
-0.0003324494511
-0.02421008223
0.0006059671438
-0.0003205260196
-0.02499153642
0.0005780914698
0.02473397097
-0.02499514
0.0009675767068
0.02493838734
-0.0009108240492
-0.02504014618
0.001389916993
0.02523943248
-0.050963079
0.002360339567
0.05100208942
-0.002399349981
0.002470229736
-0.002511200764
-0.05112627627
0.002170699219
0.0508360379
-0.002212253963
0.002297232198
-0.002340372697
-0.0509199385
-0.02497845546
0.001275694521
0.02501110875
0.001051089813
-0.0009024805192
-0.02515971805
0.02446107918
-8.174149151e-05
-0.02473243952
0.0003531018261
-0.02544831646
-0.0001313148551
0.000371619818
0.0252080115
0.02285348304
-0.02300229972
0.0001593107029
-1.04940211e-05
-0.02636448007
0.002250476704
0.02409061609
2.338727294e-05
-0.02709358402
0.001629999052
0.02738534023
-0.001921755268
0.02500419145
0.001253479675
-0.001442115135
-0.02481555599
0.0231779068
-0.002165392574
-0.02312983079
0.002117316565
-0.0003905260364
0.0006726544583
0.02365443612
-0.0001235881291
-0.02569012528
0.0003653969456
-0.0001079761901
-0.0264201121
0.0003544780817
0.02617361021
-0.02615242693
0.0009982546197
0.02601522799
-0.0008610556731
0.02587593176
0.001021073924
-0.000739824067
-0.02615718161
0.0223701886
-0.02248528098
9.534575009e-05
1.974662671e-05
9.297323978e-05
0.02271413302
4.637678013e-05
-0.01949867741
0.004434496034
0.01501208664
5.209473339e-05
-0.0244642918
0.002574774426
0.02535388787
-0.003464370501
0.01838913333
0.001242591652
-0.01975009062
0.0001183656388
0.004079133759
0.01420113264
0.0001088669297
0.01674523841
-0.0008912035335
0.0005630261351
-0.01641706101
-0.0001994993985
0.01726512334
-0.0003203855302
0.02079431335
0.0004816554369
-0.02146521055
0.0001892417682
5.935144214e-05
0.02058988013
0.0001450817763
-0.02383172692
0.0004443601217
0.02344671824
-0.02307085918
0.0009229242948
0.02304925647
-0.0009013215827
0.02278606781
0.0008740267836
-0.0007773799849
-0.02288271461
-0.02195616176
0.001139824169
0.02239134983
-0.001575012231
0.0009887422462
-0.001065933489
-0.02299366794
-0.02424033684
0.0008902653549
-0.02064308619
0.004063078796
0.02065914115
-0.02308878387
0.001509000972
0.02369837391
-0.002118591015
0.02544003446
0.001267018978
-0.001599229493
-0.02510782395
0.0008958803724
0.02270788071
-0.0008176932766
0.001292302197
-0.001610846285
-0.02277023978
-0.02132020816
0.001919713625
-0.0006365916508
-0.02149006263
0.0009149422992
0.02121171198
-0.02090733826
0.0006778738402
0.02105947941
-0.000830014988
0.001008416366
-0.00144400555
-0.02152057258
0.02154659021
0.001268071098
-0.00117542833
-0.02163923298
0.02101178848
-0.0001017899155
-0.02026873739
0.001411303551
0.01885142284
6.010991513e-06
-0.0228426074
0.001519732083
0.02323934435
-0.001916469037
0.02661931551
0.002120198709
-0.003140062903
-0.02559945132
-0.02316916764
0.0006057387405
0.02301898494
-0.0004555560385
0.001036489593
-0.001086907994
-0.022792189
-0.02072713434
0.0004114759519
4.692099647e-05
-0.02662827496
0.0004963988619
0.02642328323
-0.0002914071241
0.02579987803
0.000473059553
-0.0002611236733
-0.02601181391
0.001567647592
0.02701535492
-0.001963687005
0.0005553105657
-0.0003546124438
-0.02682897309
-0.02173301274
5.286123409e-05
0.02169024695
-1.009544398e-05
-0.02510054038
0.0006235435136
0.02493177413
-0.0004547772671
0.02443109752
0.0006017449803
-0.0004402163754
-0.02459262612
0.0009947506932
0.02549879315
-0.001053509378
0.0006452889532
-0.0004815334254
-0.02526429591
-0.02179459156
5.48017219e-05
6.777105717e-06
-0.0212859825
2.642493239e-05
0.02120939246
5.0165112e-05
-0.02379579041
0.0005823258142
0.02363415849
-0.0004206938923
0.0005916501254
-0.0004387272452
-0.02332209052
0.0006000109773
0.02427263948
-0.0004415529385
0.0005850333483
-0.0004237811364
-0.02395704262
-0.02135609873
3.329949913e-05
3.681672697e-05
-0.02651510148
0.000336581941
0.02628629739
-0.0001077778546
0.02561682886
0.0002866696424
-6.205051343e-05
-0.02584144799
-0.02736805697
0.002059650024
0.02746394928
-0.002155542335
0.0004086710404
-0.0001446976218
-0.0267790749
-0.02473264364
0.02451536818
-0.0001032505601
0.02382331089
-8.527767411e-05
-0.02407048267
0.00028760052
0.0253915069
-6.227855923e-05
0.0003163830673
-0.0001001683811
-0.02494885833
-0.02485447338
0.0004818631774
0.02461104878
-0.0002384385801
0.02386836595
0.0005092398739
-0.0002584288013
-0.02411917703
0.0004650480981
0.02556897956
-0.0002341496203
0.0004747905052
-0.0002341316949
-0.02509513219
-0.02285844704
0.002036576292
0.02291942325
-0.002097552496
0.003281617313
-0.004552862032
-0.02609681225
0.0005352301479
0.02361372816
-0.0002805923538
0.001200418737
-0.0009770776064
-0.02308178817
-0.0004886657212
0.02285344884
-0.02345174722
0.001086964107
-7.911952588e-05
0.0003633102061
0.0241768885
0.001067015273
0.02486713736
-0.0009230438786
-0.02198589451
0.02187032418
3.645080753e-05
0.02101793934
-0.02151796305
1.135798498e-05
-0.02237836795
0.0222790912
-3.203810775e-05
-0.02210869132
4.105531498e-05
0.001495964644
0.01952450041
-2.5257059e-06
0.001890257809
-0.002524554376
-0.02645928745
-0.03106438124
0.004713977002
-1.407583477e-05
0.002233739939
0.02211567354
-0.002217386295
0.027708599
-0.02762469129
0.002133478585
-0.004470273931
0.003316061978
0.02433211876
0.001388535215
0.02530783379
-0.001692177552
-0.02191551079
0.02192309144
-0.004477854584
0.02406819424
-0.02629095242
5.371891837e-06
0.0235425461
-0.0001097612408
-0.001467455949
-0.02261344741
-0.02277084586
0.02267096207
-8.092393694e-06
-0.02247673587
-2.522020344e-05
0.0007686565615
0.02329847147
1.066201939e-06
0.0001144301742
-0.02287880309
-6.472951536e-06
0.000999305745
-0.0008716597173
-0.02628007296
-0.02667919528
0.0003735133576
0.001142185559
0.02733507
0.02188352243
-0.022013695
0.0001454363448
-1.526376718e-05
0.0001063776803
0.02225687298
6.937940761e-06
0.001032424917
0.0255932464
-0.0007497395594
0.002026439205
-0.002284622763
-0.02420610824
-0.02102134566
0.00144566531
7.700294918e-05
0.0001837401015
0.02173202852
-3.224619716e-05
-0.04924722577
-0.00090845704
0.001722347283
0.04931388595
-0.04960630044
0.00148969798
0.04968348964
-0.001566887181
0.04991949957
0.001598402496
-0.001675268031
-0.04984263404
0.001318044002
-0.04928062796
0.04936507435
-0.001402490388
0.001445793153
-0.00152828894
-0.04952380465
-0.0008663703275
-0.04918847905
0.00168139875
0.001632977979
0.04999400816
-0.001707486571
0.001732462121
-0.001791509171
-0.05012297509
-0.0009720068727
-0.05004029835
0.001882355147
0.02540497392
0.0008772216937
-0.0009009739312
-0.02538122168
0.02706634094
-0.02731366995
0.0006560000477
-0.02724444862
0.001706667661
0.02759743098
-0.026248631
0.002285799691
-0.02357689578
0.001676114263
0.02393735781
-0.02460561316
0.001003415718
0.02471730898
-0.001115111537
0.0001223979603
0.02017004644
-2.490544718e-05
0.02347948677
0.00399936805
0.000199382488
-0.01350258175
0.0004216768533
-0.0001258851939
-0.02053575854
0.0002161692233
0.0001883485333
-0.02313551089
0.02301433171
-0.02336638057
0.0005403973991
0.02266743526
0.0005367136982
0.004356299832
-0.02927268804
3.028612967e-06
0.02594955408
-0.0247122846
0.003119030353
0.02606693442
0.001946741241
0.02233492895
0.0005986671887
-0.0004633686201
0.02202687873
0.0007714188464
0.02185886128
-0.01979815025
0.0001012974464
0.02006200173
-0.0003651489264
0.0005056211974
-0.0007630775018
-0.02064988195
-0.02139512119
0.001173129658
-0.003889804934
0.02066169394
0.002515511931
-0.01773097701
0.02498123816
-0.01114006609
-0.002482172606
-0.01782600022
-0.01720832696
0.0003140412291
0.0008018015495
-0.01836115464
0.0003510261363
-0.0203554725
0.001525716214
0.01456158011
-0.01450766678
-5.391333654e-05
0.02999243354
-0.02114148299
0.005710629569
0.02555803952
0.004437206028
-2.812004595e-06
0.02270263582
-0.02288190117
0.0002551148799
-9.132383354e-05
0.02249067311
0.0003032865429
0.02091237449
-1.315508999e-05
0.02217591476
-0.0222352583
0.0001005581705
-4.121463033e-05
0.02213532154
9.118551585e-05
-5.059229691e-05
0.02345294987
0.002112851215
-7.761567054e-06
0.02274199755
0.000723611245
-1.265892843e-05
1.872771237e-05
-0.02162479557
6.448904539e-05
0.02439624182
-0.02459202146
0.0002145073589
0.02423043558
0.0002342564544
0.02573566417
0.0009902784718
-0.0001844383097
0.02541372389
0.0005063785881
0.02190319634
5.470968216e-05
7.979025871e-05
-0.02116110499
-3.325228085e-05
0.02304733346
-0.02320597805
0.0002384348499
0.000242184701
0.02406427473
0.0002401327543
-7.743557476e-05
0.02390151031
0.0002402000003
0.02140111252
-2.789665363e-05
0.02603370639
-0.02629690341
0.0005498666618
0.0005893194852
0.02681360339
0.0009829200593
0.0253169101
-0.0008948562435
0.0009453891047
-0.0009036131273
-0.02503691598
-0.02524831751
0.0005731641523
0.0005514813065
0.0257698256
0.02406622809
-0.02426368899
0.0007067007747
-0.02485114438
0.0006761123924
0.02465689516
-0.02456505175
0.0008505789245
0.02455326026
-0.000838787437
0.0216368876
-0.02170612156
4.305779746e-05
2.617616343e-05
0.02156195515
4.57131221e-05
2.921933657e-05
0.02203881133
2.803743436e-05
6.847278196e-05
0.02197073948
2.850876519e-05
3.956308766e-05
-0.01484584598
0.01480634144
3.950454259e-05
0.02148204466
5.589386372e-05
2.40166239e-05
8.281853013e-05
0.02138003543
1.919069839e-05
0.0009632542598
-0.001011365507
-0.02455750191
-0.02356351492
0.001187037883
0.0007292319812
0.02387222626
0.0003714412601
-0.0001342008004
-0.02496967998
0.0249948301
0.0006605833007
-0.02528397214
0.02468941814
0.0006585137899
0.0002950703892
-0.02329450303
-2.867081463e-06
0.02699060034
-0.02739713649
0.0007016065443
0.0266560431
0.000493867939
0.02781993128
-0.02778899519
0.002219540617
-0.0007865782856
0.00120937307
9.534782009e-06
0.02312261752
-0.02394658878
0.0008131791992
1.079206979e-05
0.0003301604321
-1.174003361e-05
8.804350706e-05
-0.02259812571
2.480123038e-05
0.02574180234
-0.02603861841
0.0003848595756
0.025445805
0.0003913430981
0.02634008118
0.0004089351622
-8.485714199e-05
0.00038631991
3.11501629e-05
0.02624235286
-0.03097719791
0.004720216833
1.462822421e-05
0.002278886533
1.687753893e-05
0.0219992688
-0.02206487761
0.004500104845
-0.01496993335
0.005992004235
4.215328798e-05
0.000347637939
7.231787554e-05
0.01414403982
5.709281765e-05
0.01471817919
-0.001019986386
-0.01413211474
0.01505245498
-0.0001857307592
0.0179359919
-0.02120125929
0.002028674934
0.01571890668
0.001260568707
0.0009565165204
0.01517566137
0.000840483671
-0.008126413422
0.002100815499
0.001805855454
0.0002084207635
-4.606516024e-05
0.0001001867484
0.02280757438
-0.02176806575
0.003023570162
-0.005530492934
0.003625782711
0.0008862910622
0.0217629272
0.001150242586
0.00191457508
-0.02127293918
0.019397554
0.0006999568437
0.003198058024
0.0005102409629
0.00222051898
0.01232780428
0.000908929793
0.001187738188
-3.461386042e-05
0.0006909298352
-0.0187610996
0.0003653310998
0.0005346644864
0.02105381052
-0.02167171922
0.00202921225
-0.00438208407
0.004294411594
-3.832800149e-05
0.0001395859326
4.565422126e-05
0.02217251617
0.0004577428737
0.0009122729074
0.02230514431
-0.02238415269
9.988115414e-05
-2.087277208e-05
9.692641936e-05
-2.70404135e-05
0.02249892022
0.0002502547686
-7.17744174e-06
0.0001283110981
-1.35435645e-05
0.0247833264
-0.0249650809
0.0002346157266
-2.625301669e-05
0.0002175579573
3.919835928e-05
6.942503057e-05
3.917974794e-05
0.0251661206
0.0003170283178
0.0002558414288
0.02337121239
-0.02355620869
0.0002114212283
-6.112992706e-05
0.0002263642694
-1.284245912e-05
6.833545839e-05
-2.3321667e-05
0.02373785339
0.0002319923774
0.0002149442011
-8.918929689e-05
0.0260676306
0.0003078560947
-0.02266925459
0.02259125295
-1.118765818e-05
-0.02276018077
-1.685167557e-05
-0.02250078556
0.02241795225
2.078279112e-05
6.470169787e-05
2.5765698e-05
0.0002908843037
-0.0007331168897
0.02711012096
0.001086945206
-0.02389345538
0.02313816637
2.217211887e-05
-0.02608635724
3.735951957e-05
-0.02288880899
-1.606940311e-05
0.0002725421987
-2.318481417e-05
0.0006035882621
-0.0001040743917
0.02429669165
0.0003227509191
-0.02200336119
0.02192290221
-2.361541477e-05
-0.0220876753
-1.893645115e-05
-0.021837437
0.021733093
1.906632603e-05
9.598528218e-05
-1.052007114e-05
0.0003221942673
-6.761087401e-05
0.02516488192
0.000294235851
-0.02233559244
0.02224472044
2.326112289e-05
2.00812564e-05
-0.02216961104
-1.823263583e-05
9.206575987e-05
-1.695636079e-05
0.0003080893574
0.02177203646
3.54583829e-05
-0.02184036541
3.287056685e-05
4.155206573e-05
2.436283368e-05
-0.0002446154171
0.02436644779
0.0004892164095
-0.02436494986
0.02416188651
-0.02456793005
-0.02395492709
0.02374221141
0.000250017212
0.0004972879717
0.02190997438
3.460850999e-05
2.615658823e-05
3.116504947e-05
3.844391434e-05
0.01927755874
0.001422591428
-0.02072506518
2.49150073e-05
0.004405631233
2.608152505e-05
-0.004378884699
0.02407516664
0.003223141305
-0.02169108038
0.02171782692
-0.02236604145
-0.03066688553
2.766626261e-05
0.005857282827
0.003835637222
-0.0003414416139
0.02335079082
0.0006043789586
-0.02351751292
0.02325888984
-0.0229053068
-0.0004378122523
0.0005135853541
-0.0001600023171
0.0007825879951
0.02119015778
2.987532818e-05
2.728035467e-05
0.0006072776894
-0.02386055114
-0.0001984737756
0.02372109882
-0.02404910801
0.0009352868766
0.02344032202
0.001367740911
0.02437351743
0.0006792109148
-0.0004253714456
0.0007497808629
-0.000109034082
0.02173690446
2.43856299e-05
2.046764044e-05
0.02218509394
0.0001368565526
-4.285928919e-05
-5.779817877e-05
0.01500563178
0.00452069457
-1.825940967e-06
0.0150434499
-3.781812578e-05
0.006061820388
-0.02208275172
0.02656057009
-0.02456175424
0.004063004529
0.003485551905
0.02344766658
0.002226395379
-0.004553616393
0.003439528739
-0.01496144592
0.03093178984
0.005952747527
-0.01496150978
6.38604653e-08
-0.01945394671
1.458234162e-05
0.004637597899
3.239513459e-06
-0.0001950947278
0.02317210291
0.0005655379162
-0.02161320564
0.02141109343
7.017479025e-06
1.01261199e-05
-0.02093084881
9.446147262e-06
0.0004761321111
4.112516509e-06
0.00103478761
0.02257392335
0.0001105425832
-1.350386529e-05
0.0001181388862
-2.095140785e-05
0.02302318625
0.0002787212951
-3.436076738e-06
0.000149084332
-4.701164219e-06
0.0001235868801
-0.02213841429
1.132400954e-06
0.02454885196
-0.02485230516
0.0004270400816
0.02423696658
0.0004573217223
0.02515029345
0.0004018892247
-0.0001139243392
0.0004119126335
4.534357119e-06
0.0005378823063
-0.02150375322
-5.547475379e-05
0.02285190067
-0.02346504979
0.001151031428
0.002232688373
0.02389400622
0.0005267004582
-0.000271711305
0.0007006677385
-4.343599701e-05
-0.002058507699
0.002272768314
-0.2284509577
0.003020448304
0.2280503836
-0.2283204915
-0.002750340342
-0.2289262116
-0.0017466803
0.228748732
0.003298165263
-0.2282486135
0.004229172808
0.2278360375
-0.2281691547
-0.003896055578
-0.2288758123
-0.002426676426
0.2286804964
0.004551832614
-0.2281079429
0.005948840204
0.227610054
-0.2281245695
-0.005430995864
-0.2288726401
-0.003182032481
0.228678084
0.006438920905
-0.2280803911
0.007833579573
0.2278752228
-0.2283018663
-0.007402264597
-0.228936319
-0.003886604412
0.2288028898
0.008193911862
-0.2283645391
-0.002812454072
0.00313116934
-0.2274335598
0.004271113744
0.2266290483
-0.2270355439
-0.003864618093
-0.003059751757
0.2277511137
0.004915369488
-0.2269000572
0.008193001277
0.2245709694
-0.2257292954
-0.007022947919
-0.004369503813
0.2274259391
0.009403611682
-0.2254036365
0.01310707126
0.2238295441
-0.2250397868
-0.01187984704
-0.006678571468
0.2269328381
0.01428289648
-0.2250890766
0.01738052646
0.2249125626
-0.2258433293
-0.01643882446
-0.009297281033
0.227323254
0.01820110533
-0.2262630039
-0.01025150748
0.0115862399
-0.2284592778
0.008338546235
0.2246875549
-0.2239605022
-0.009053014548
-0.004079546366
0.2260133332
0.009249787844
-0.22249812
0.01406636609
0.2182783139
-0.2200407163
-0.01227591177
-0.008291699813
0.2232241738
0.01588736609
-0.2196019453
0.02116632112
0.2176966677
-0.2193810758
-0.01945615277
-0.0138798313
0.2224758662
0.02280423965
-0.2196461846
0.0271975093
0.2201057343
-0.2214506799