/*--------------------------------*- C++ -*----------------------------------*\
| =========                 |                                                 |
| \\      /  F ield         | OpenFOAM: The Open Source CFD Toolbox           |
|  \\    /   O peration     | Version:  v2012                                 |
|   \\  /    A nd           | Website:  www.openfoam.com                      |
|    \\/     M anipulation  |                                                 |
\*---------------------------------------------------------------------------*/
FoamFile
{
    version     2.0;
    format      ascii;
    class       pointVectorField;
    location    "1";
    object      pointDisplacement;
}
// * * * * * * * * * * * * * * * * * * * * * * * * * * * * * * * * * * * * * //

dimensions      [0 1 0 0 0 0 0];


internalField   nonuniform List<vector> 
6506
(
(0 0 0)
(0 0 0)
(0 0 0)
(0 0 0)
(0 0 0)
(0 0 0)
(0 0 0)
(0 0 0)
(0 0 0)
(0 0 0)
(0 0 0)
(0 0 0)
(0 0 0)
(0 0 0)
(0 0 0)
(0 0 0)
(0 0 0)
(0 0 0)
(0 0 0)
(0 0 0)
(0 0 0)
(0 0 0)
(0 0 0)
(0 0 0)
(0 0 0)
(0 0 0)
(0 0 0)
(0 0 0)
(0 0 0)
(0 0 0)
(0 0 0)
(0 0 0)
(0 0 0)
(0 0 0)
(0 0 0)
(0 0 0)
(0 0 0)
(0 0 0)
(0 0 0)
(0 0 0)
(0 0 0)
(0 0 0)
(0 0 0)
(0 0 0)
(0 0 0)
(0 0 0)
(0 0 0)
(0 0 0)
(0 0 0)
(0 0 0)
(0 0 0)
(0 0 0)
(0 0 0)
(0 0 0)
(0 0 0)
(0 0 0)
(0 0 0)
(0 0 0)
(0 0 0)
(0 0 0)
(0 0 0)
(0 0 0)
(0 0 0)
(0 0 0)
(0 0 0)
(0 0 0)
(0 0 0)
(0 0 0)
(0 0 0)
(0 0 0)
(0 0 0)
(0 0 0)
(0 0 0)
(0 0 0)
(0 0 0)
(0 0 0)
(0 0 0)
(0 0 0)
(-4.757880074e-07 4.6344134e-08 2.775557562e-17)
(0 0 0)
(0 0 0)
(0 0 0)
(0 0 0)
(0 0 0)
(0 0 0)
(0 0 0)
(0 0 0)
(0 0 0)
(0 0 0)
(0 0 0)
(0 0 0)
(0 0 0)
(0 0 0)
(0 0 0)
(0 0 0)
(0 0 0)
(0 0 0)
(0 0 0)
(0 0 0)
(0 0 0)
(0 0 0)
(0 0 0)
(0 0 0)
(0 0 0)
(0 0 0)
(0 0 0)
(0 0 0)
(-2.964129725e-05 -8.363165132e-06 4.996003611e-16)
(-0.0001705814734 -5.241400821e-05 3.080868893e-15)
(-2.230636053e-06 -4.989425922e-07 4.163336342e-17)
(-0.0003238551836 -9.898065611e-05 8.007483565e-15)
(-0.0008040397563 -0.0003378811485 1.992850329e-14)
(-0.0009539699929 -0.000457278889 2.699229729e-14)
(-0.0004450343872 -0.0001550268103 1.255939797e-14)
(-0.0005414455104 -0.0003263454855 2.646494135e-14)
(-0.0009484474258 -0.0007896188862 4.662936703e-14)
(-0.0007908515846 -0.0008727627109 5.152822613e-14)
(-0.0004660399567 -0.0003714033942 3.011479954e-14)
(0 0 0)
(0 0 0)
(0 0 0)
(0 0 0)
(0 0 0)
(0 0 0)
(0 0 0)
(0 0 0)
(0 0 0)
(0 0 0)
(0 0 0)
(0 0 0)
(0 0 0)
(0 0 0)
(0 0 0)
(0 0 0)
(0 0 0)
(0 0 0)
(0 0 0)
(0 0 0)
(0 0 0)
(0 0 0)
(-8.278352438e-05 -3.674031894e-05 1.026956298e-15)
(-0.0004521928923 -0.0002138275542 6.022959909e-15)
(-0.0001071204677 -4.406213318e-05 1.429412144e-15)
(-0.001527728734 -0.0007826641242 2.539635169e-14)
(-0.002442751438 -0.001439178684 4.06341627e-14)
(-0.003115236207 -0.002000909065 5.65658631e-14)
(-0.002099716311 -0.001172300831 3.806677196e-14)
(-0.00325988004 -0.002500602611 8.142098107e-14)
(-0.004309694999 -0.003809198659 1.079553114e-13)
(-0.004331102512 -0.004380797235 1.241923231e-13)
(-0.003347199603 -0.002936086257 9.564571357e-14)
(-0.002607438184 -0.004021196813 1.30867539e-13)
(-0.003235100234 -0.005774114557 1.63508096e-13)
(-0.002548071043 -0.006094146647 1.724037579e-13)
(-0.00207368723 -0.00427446224 1.390138005e-13)
(0 0 0)
(0 0 0)
(0 0 0)
(0 0 0)
(0 0 0)
(0 0 0)
(0 0 0)
(0 0 0)
(0 0 0)
(0 0 0)
(0 0 0)
(0 0 0)
(0 0 0)
(0 0 0)
(0 0 0)
(0 0 0)
(0 0 0)
(0 0 0)
(0 0 0)
(-3.56166974e-05 -2.03117316e-05 3.747002708e-16)
(0 0 0)
(-0.001515691055 -0.0009348833151 1.891542478e-14)
(-0.002252554781 -0.001518051207 2.808864252e-14)
(-0.003524179252 -0.002531391616 4.692080058e-14)
(-0.002587983653 -0.001701137334 3.447242491e-14)
(-0.005908288066 -0.004847042069 9.864331574e-14)
(-0.007168513478 -0.006434227009 1.198208199e-13)
(-0.008011412215 -0.007848617956 1.463135169e-13)
(-0.00674164048 -0.006035163241 1.229710778e-13)
(-0.007654442734 -0.009464277912 1.931649285e-13)
(-0.008722917574 -0.01181174887 2.204902927e-13)
(-0.008326195666 -0.01292591091 2.412514633e-13)
(-0.007379124836 -0.01045766102 2.134264987e-13)
(-0.005049888671 -0.01272229966 2.591121762e-13)
(-0.005572281889 -0.01539220217 2.866457072e-13)
(-0.004273330131 -0.01590905161 2.959299472e-13)
(-0.003893585706 -0.01321234523 2.68798872e-13)
(0 0 0)
(0 0 0)
(0 0 0)
(0 0 0)
(0 0 0)
(0 0 0)
(0 0 0)
(0 0 0)
(0 0 0)
(0 0 0)
(0 0 0)
(0 0 0)
(0 0 0)
(0 0 0)
(0 0 0)
(0 0 0)
(0 0 0)
(-0.0001646167513 -0.0001121275588 1.637578961e-15)
(-0.0003743598997 -0.0002722922702 3.73312492e-15)
(-0.001329621919 -0.001016809913 1.393329896e-14)
(-0.0008939130409 -0.0006402366673 9.36750677e-15)
(-0.005252452505 -0.004449836355 6.535050279e-14)
(-0.006213517991 -0.00562024873 7.731315588e-14)
(-0.008008827727 -0.007718205476 1.063177324e-13)
(-0.006943696473 -0.006267437211 9.217626662e-14)
(-0.0109580358 -0.01233280388 1.822708651e-13)
(-0.01210101314 -0.01454874623 2.011169009e-13)
(-0.01275237795 -0.01672261319 2.314121117e-13)
(-0.01165742987 -0.01431299537 2.118721865e-13)
(-0.01151474715 -0.01956229781 2.904343432e-13)
(-0.01222599242 -0.02212566092 3.072264665e-13)
(-0.01128426431 -0.02341667042 3.251982017e-13)
(-0.01066554362 -0.02077452129 3.083505673e-13)
(-0.006708355596 -0.02326031146 3.44474449e-13)
(-0.006933562978 -0.02554195821 3.540084892e-13)
(-0.005205899236 -0.02581136549 3.573807916e-13)
(-0.005070166332 -0.02366322855 3.500533197e-13)
(0 0 0)
(0 0 0)
(0 0 0)
(0 0 0)
(0 0 0)
(0 0 0)
(0 0 0)
(0 0 0)
(0 0 0)
(0 0 0)
(0 0 0)
(0 0 0)
(0 0 0)
(0 0 0)
(-1.566843047e-05 -1.367976745e-05 1.387778781e-16)
(-4.275484267e-07 -3.552210601e-07 0)
(0 0 0)
(-0.001175259193 -0.001017713088 1.169897512e-14)
(-0.001483362896 -0.001352967254 1.476596623e-14)
(-0.003077344325 -0.002950588026 3.223810108e-14)
(-0.002625502197 -0.002390098731 2.750577544e-14)
(-0.008525010905 -0.009176644876 1.060262989e-13)
(-0.009278980286 -0.01051915314 1.153799278e-13)
(-0.0112702069 -0.01361056514 1.494637747e-13)
(-0.01067835363 -0.01224469698 1.416922135e-13)
(-0.01475719311 -0.0211012746 2.448596881e-13)
(-0.01536489357 -0.02312957587 2.547129174e-13)
(-0.01576853513 -0.02587973942 2.850913949e-13)
(-0.01521964076 -0.02373163037 2.754879658e-13)
(-0.01372554477 -0.02939339695 3.411715355e-13)
(-0.01400929239 -0.03154739433 3.473055177e-13)
(-0.01260176162 -0.03238235443 3.563260798e-13)
(-0.01242954371 -0.03039783154 3.528011217e-13)
(-0.007238656309 -0.03095577031 0)
(-0.007343331052 -0.03268409065 0)
(-0.006444527626 -0.03268608996 0)
(-0.005496673984 -0.03264995294 0)
(-0.005436902853 -0.03179455276 0)
(-0.005412450702 -0.03095923603 0)
(0 0 0)
(0 0 0)
(0 0 0)
(0 0 0)
(0 0 0)
(0 0 0)
(0 0 0)
(0 0 0)
(0 0 0)
(0 0 0)
(0 0 0)
(0 0 0)
(0 0 0)
(0 0 0)
(-0.0001411808074 -0.000147151784 1.276756478e-15)
(-8.045491099e-05 -8.044964777e-05 7.21644966e-16)
(-6.581913031e-05 -6.303352781e-05 5.828670879e-16)
(-0.002131356108 -0.002240215657 2.120525977e-14)
(-0.002210421391 -0.002425602299 2.199629368e-14)
(-0.004092681617 -0.004720452456 4.282685317e-14)
(-0.003984632867 -0.004402161868 4.171663015e-14)
(-0.01071852056 -0.01399422323 1.330879851e-13)
(-0.01088917985 -0.0148405048 1.351280199e-13)
(-0.01296478409 -0.01881760201 1.715294573e-13)
(-0.01278309149 -0.01777496663 1.692257445e-13)
(-0.01659337119 -0.02872998958 2.740863092e-13)
(-0.01676264314 -0.0302835149 2.76584311e-13)
(-0.01698369979 -0.03342626511 3.053252096e-13)
(-0.01683200625 -0.03175481947 3.029937412e-13)
(-0.01444601147 -0.03728661267 3.554517791e-13)
(-0.01451474974 -0.03905257747 3.563260798e-13)
(-0.01286019293 -0.03940823428 0)
(-0.01282490467 -0.03771688045 3.592959263e-13)
(-0.007502780134 -0.03780087858 0)
(-0.007524428225 -0.03865801202 0)
(-0.006637917794 -0.03867011075 0)
(-0.006616373727 -0.03781432613 0)
(0 0 0)
(0 0 0)
(0 0 0)
(0 0 0)
(0 0 0)
(0 0 0)
(0 0 0)
(0 0 0)
(0 0 0)
(0 0 0)
(0 0 0)
(0 0 0)
(0 0 0)
(0 0 0)
(-0.0002317565724 -0.0002807209277 2.095545959e-15)
(-0.0002093225565 -0.0002447142237 1.90125693e-15)
(-0.0001836353579 -0.000206928462 1.665334537e-15)
(-0.002626354586 -0.003247293799 2.611799665e-14)
(-0.002715745799 -0.003483712067 2.700617507e-14)
(-0.004735929453 -0.006384957257 4.955758026e-14)
(-0.004624108765 -0.006009122016 4.83779683e-14)
(-0.01156783855 -0.01775584107 1.433991814e-13)
(-0.01170717402 -0.01863910484 1.450783937e-13)
(-0.01376483698 -0.02332996885 1.817435091e-13)
(-0.01362840271 -0.02227157079 1.800365412e-13)
(-0.01724990564 -0.03504018818 2.837036162e-13)
(-0.01735304586 -0.03654164736 2.851052727e-13)
(-0.01747386394 -0.04005279202 3.125000259e-13)
(-0.01738662906 -0.03845172379 3.113481695e-13)
(-0.01466467189 -0.04422832472 3.577138585e-13)
(-0.01470375197 -0.0459263931 3.579220254e-13)
(-0.01298650849 -0.0461353135 0)
(-0.01295606079 -0.04445770882 0)
(-0.007642703823 -0.04455968102 0)
(-0.007658444469 -0.04539905675 0)
(-0.006774243418 -0.04541590253 0)
(-0.006758386128 -0.04457652907 0)
(0 0 0)
(0 0 0)
(0 0 0)
(0 0 0)
(0 0 0)
(0 0 0)
(0 0 0)
(0 0 0)
(0 0 0)
(0 0 0)
(0 0 0)
(0 0 0)
(0 0 0)
(0 0 0)
(-0.0003418729704 -0.0004717700347 3.094746681e-15)
(-0.0003082211399 -0.0004123282609 2.789435349e-15)
(-0.0002782591481 -0.0003605192396 2.525757381e-15)
(-0.002938286891 -0.004177178385 2.922662112e-14)
(-0.003028432097 -0.004445343879 3.011479954e-14)
(-0.005123223564 -0.007902453623 5.358213873e-14)
(-0.005012308589 -0.007488201894 5.243028234e-14)
(-0.01205015773 -0.02124569179 1.491445856e-13)
(-0.01218551799 -0.02217682472 1.507682867e-13)
(-0.01423381846 -0.02756436805 1.875305466e-13)
(-0.01410169659 -0.02645887626 1.858790899e-13)
(-0.01761343323 -0.04100083138 2.884498196e-13)
(-0.01771241592 -0.04253487993 2.897543316e-13)
(-0.01778040358 -0.04643958547 3.163580509e-13)
(-0.01769705433 -0.04481409914 3.152894612e-13)
(-0.01481171066 -0.0509965557 3.583938701e-13)
(-0.01484758473 -0.05268875568 3.585604036e-13)
(-0.01310545865 -0.05283166827 0)
(-0.01307599142 -0.05115847865 0)
(-0.007766091843 -0.05126022803 0)
(-0.007781263518 -0.05209634757 0)
(-0.006898263999 -0.05211297551 0)
(-0.006890599643 -0.05169487837 0)
(-0.006882942093 -0.05127713115 0)
(0 0 0)
(0 0 0)
(0 0 0)
(0 0 0)
(0 0 0)
(0 0 0)
(0 0 0)
(0 0 0)
(0 0 0)
(0 0 0)
(0 0 0)
(0 0 0)
(0 0 0)
(0 0 0)
(-0.0004895914764 -0.0007582667874 4.440892099e-15)
(-0.0004495757749 -0.0006773219395 4.066191828e-15)
(-0.0004108725576 -0.0006016722245 3.719247132e-15)
(-0.003310317942 -0.005318134751 3.291811268e-14)
(-0.003409640308 -0.005635174018 3.390343561e-14)
(-0.005587295636 -0.009701584282 5.841160888e-14)
(-0.005467151405 -0.009228198212 5.716260798e-14)
(-0.01259993838 -0.02507465985 1.556810236e-13)
(-0.01274289455 -0.02607986199 1.573879915e-13)
(-0.01477584773 -0.0321624597 1.942196404e-13)
(-0.01463716659 -0.03098400236 1.925126725e-13)
(-0.0180118354 -0.04721282955 2.936817456e-13)
(-0.01811357227 -0.04879966443 2.950140132e-13)
(-0.01811587761 -0.05304178462 3.206462873e-13)
(-0.0180312136 -0.05137531728 3.195776976e-13)
(-0.0149512019 -0.05776317226 3.589351039e-13)
(-0.01498433278 -0.05945236603 3.590461262e-13)
(-0.01322161467 -0.05952834966 0)
(-0.01319286728 -0.05785417364 0)
(-0.007886229172 -0.05795562622 0)
(-0.007900910517 -0.05879253322 0)
(-0.007019428115 -0.05880917054 0)
(-0.00701199024 -0.05839071893 0)
(-0.007004514997 -0.05797234584 0)
(0 0 0)
(0 0 0)
(0 0 0)
(0 0 0)
(0 0 0)
(0 0 0)
(0 0 0)
(0 0 0)
(0 0 0)
(0 0 0)
(0 0 0)
(0 0 0)
(0 0 0)
(0 0 0)
(-0.0006187877684 -0.001062760689 5.606626274e-15)
(-0.0006399275595 -0.00107205419 5.800915304e-15)
(-0.0005841598374 -0.0009540010631 5.287437155e-15)
(-0.003734348601 -0.006688562396 3.712308239e-14)
(-0.003861323913 -0.007093846761 3.838596108e-14)
(-0.00612737102 -0.01182369574 6.401823516e-14)
(-0.00597653927 -0.01124425068 6.245004514e-14)
(-0.01319903041 -0.02924511911 1.62786451e-13)
(-0.01337261934 -0.03038056122 1.648403636e-13)
(-0.01538338285 -0.03715075532 2.016858902e-13)
(-0.01521659299 -0.03584445716 1.996319776e-13)
(-0.01843169838 -0.05366214531 2.991634718e-13)
(-0.01854896687 -0.05533845765 3.007039062e-13)
(-0.01847350699 -0.05985348729 3.252259573e-13)
(-0.01837822474 -0.05811865623 3.239908342e-13)
(-0.01507940552 -0.06450718705 3.59254293e-13)
(-0.01510974553 -0.06618722263 3.592820486e-13)
(-0.01333528262 -0.06622309576 0)
(-0.01330689272 -0.06454930174 0)
(-0.008001136779 -0.06465011483 0)
(-0.008015077871 -0.06548695843 0)
(-0.007135263574 -0.06550336883 0)
(-0.007128212242 -0.06508479302 0)
(-0.007121128077 -0.06466652901 0)
(-0.006742308725 -0.04373583744 0)
(-0.007626743819 -0.04371902601 0)
(-0.006875284542 -0.05085938394 0)
(-0.006867617918 -0.05044117016 0)
(-0.007750919412 -0.0504240696 0)
(-0.006997042021 -0.0575540894 0)
(-0.006989565265 -0.05713563855 0)
(-0.007871471578 -0.0571187985 0)
(-0.007114045425 -0.06424834277 0)
(-0.007106922379 -0.06383007952 0)
(-0.007987122462 -0.06381350603 0)
(-0.006592439116 -0.03695762106 0)
(-0.00747907233 -0.03694383576 0)
(-0.0008715334388 -0.03101425249 0)
(-0.000890259258 -0.03184532426 0)
(-0.01304640452 -0.04948513577 0)
(-0.01477645309 -0.04930796787 3.582550923e-13)
(-0.008634807902 -0.05040715211 0)
(-0.008649864447 -0.05124335169 0)
(-0.008527371447 -0.04454282617 0)
(-0.008543032819 -0.04538212565 0)
(-0.0131639232 -0.05617988476 0)
(-0.01491751884 -0.05607307592 3.588379593e-13)
(-0.00875423403 -0.0571019807 0)
(-0.008768875737 -0.05793884957 0)
(-0.008664881354 -0.05207951314 0)
(-0.007826629508 -0.05460704285 0)
(-0.006944175835 -0.05462373796 0)
(-0.006936500893 -0.05420509648 0)
(-0.006928867857 -0.05378660978 0)
(-0.007811554059 -0.05376987125 0)
(-0.004298143795 -0.05467375854 0)
(-0.004294869722 -0.0544644074 0)
(-0.004292280711 -0.05425508183 0)
(-0.004733088387 -0.05424678132 0)
(-0.0047404134 -0.0546654296 0)
(-0.004236402872 -0.05132747277 0)
(-0.00467759007 -0.05131908709 0)
(-0.004685594526 -0.05173667197 0)
(-0.004244715351 -0.05174489607 0)
(-0.004240458884 -0.05153603079 0)
(-0.01327854623 -0.06287574026 0)
(-0.01504726715 -0.06282062962 3.591710263e-13)
(-0.00886883815 -0.06379686417 0)
(-0.00888273658 -0.06463351412 0)
(-0.008783401558 -0.05877575959 0)
(-0.007944496295 -0.06130369097 0)
(-0.007063640527 -0.06132054948 0)
(-0.00705635742 -0.06090205597 0)
(-0.007049033164 -0.06048344657 0)
(-0.007930086362 -0.0604667398 0)
(-0.004426548107 -0.06137024062 0)
(-0.004421479996 -0.06116104106 0)
(-0.004643238893 -0.06115676721 0)
(-0.004647658446 -0.06136601829 0)
(-0.004367411019 -0.05802184273 0)
(-0.004805453389 -0.05801375159 0)
(-0.004813356324 -0.05843211636 0)
(-0.00437566464 -0.05844023958 0)
(-0.004371867185 -0.05823097641 0)
(-0.008896600666 -0.06547039811 0)
(-0.008056312638 -0.06799722841 0)
(-0.007616366608 -0.06800543436 0)
(-0.007609507412 -0.06758673813 0)
(-0.008049493079 -0.06757857029 0)
(-0.00452412318 -0.06806389944 0)
(-0.00452467673 -0.06785416269 0)
(-0.004755927572 -0.06784915971 0)
(-0.004757395945 -0.06805866265 0)
(-0.00447576101 -0.06471634219 0)
(-0.004703621317 -0.06471159962 0)
(-0.004708733167 -0.06492044827 0)
(-0.004482364381 -0.06492508404 0)
(-0.004040044105 -0.04125880837 0)
(-0.004048632579 -0.04168042317 0)
(-0.003606205288 -0.041688444 0)
(-0.003601905538 -0.04147755309 0)
(-0.003597872232 -0.04126716264 0)
(-0.004106759537 -0.04462728079 0)
(-0.003662641355 -0.04463595684 0)
(-0.003658741511 -0.04442622891 0)
(-0.003655996757 -0.04421589508 0)
(-0.004099019249 -0.04420727923 0)
(-0.003953132259 -0.037839447 0)
(-0.003966684062 -0.03827087357 0)
(-0.003521276595 -0.03827025528 0)
(-0.003507733939 -0.03783969901 0)
(-0.003588892523 -0.04084403074 0)
(-0.0040310863 -0.04083600277 0)
(-0.004232153966 -0.05111899629 0)
(-0.004228168911 -0.05091008683 0)
(-0.004669585615 -0.05090150221 0)
(-0.004173681818 -0.04798038924 0)
(-0.004614246164 -0.04797197678 0)
(-0.004622264986 -0.0483903004 0)
(-0.004181816528 -0.04839867172 0)
(-0.007704958108 -0.04791276357 0)
(-0.007720344605 -0.04874992913 0)
(-0.006836728281 -0.04876684132 0)
(-0.006821225898 -0.04792971692 0)
(-0.003742578134 -0.04840686391 0)
(-0.00373857677 -0.04819791587 0)
(-0.003733962704 -0.04798886306 0)
(-0.004014678968 -0.05133174593 0)
(-0.004010309531 -0.0511232718 0)
(-0.00411487805 -0.04504673045 0)
(-0.003670826073 -0.04505521074 0)
(-0.003666040497 -0.04484553893 0)
(-0.003729679235 -0.04777960934 0)
(-0.003725059984 -0.04757008988 0)
(-0.004165344386 -0.04756168286 0)
(-0.004363073766 -0.05781282343 0)
(-0.004358543619 -0.05760388568 0)
(-0.004797321704 -0.05759562464 0)
(-0.004748095147 -0.05508442101 0)
(-0.004305284232 -0.05509291606 0)
(-0.004300970629 -0.05488331286 0)
(-0.007841672124 -0.05544452626 0)
(-0.006959377757 -0.05546141274 0)
(-0.006951778308 -0.05504265311 0)
(-0.004076080943 -0.05488780318 0)
(-0.004073642164 -0.05467820241 0)
(-0.004149656979 -0.05802584421 0)
(-0.004144682832 -0.0578168762 0)
(-0.004019053048 -0.05154025887 0)
(-0.004072038463 -0.054468741 0)
(-0.004469604772 -0.06450759164 0)
(-0.004698704628 -0.06450278607 0)
(-0.004651998724 -0.06157519311 0)
(-0.004431611573 -0.06157940138 0)
(-0.007958777486 -0.06214002231 0)
(-0.007078110831 -0.06215660487 0)
(-0.007070918341 -0.06173877082 0)
(-0.004209774157 -0.06158363786 0)
(-0.004203391004 -0.06137461945 0)
(-0.004242078482 -0.06472150915 0)
(-0.004233770501 -0.06451291713 0)
(-0.004154439745 -0.05823497154 0)
(-0.00419700947 -0.06116548433 0)
(-0.00476123455 -0.06826804171 0)
(-0.004528512384 -0.06827319 0)
(-0.008063129928 -0.06841576987 0)
(-0.007623183898 -0.06842397583 0)
(-0.004291576915 -0.0682786925 0)
(-0.004285451996 -0.06806955238 0)
(-0.004251101118 -0.06493004837 0)
(-0.004288044533 -0.06785965929 0)
(-0.01292506529 -0.04277793664 0)
(-0.01462119686 -0.0425187955 3.573946694e-13)
(-0.008511529598 -0.04370224665 0)
(-0.008389258488 -0.03778713051 0)
(-0.008410494191 -0.0386430592 0)
(-0.007577990577 -0.04119616 0)
(-0.006692992093 -0.04121200221 0)
(-0.006675525299 -0.04036586886 0)
(-0.007560600335 -0.04034996292 0)
(-0.004473091406 -0.04082787346 0)
(-0.004482051965 -0.04125062066 0)
(-0.004396305959 -0.03783360614 0)
(-0.0044101657 -0.03826626673 0)
(-0.00680563441 -0.04709201082 0)
(-0.007689523657 -0.04707513221 0)
(-0.004606180899 -0.04755326511 0)
(-0.004549152049 -0.04461887167 0)
(-0.004557270562 -0.04503832133 0)
(-0.004541100712 -0.04419887616 0)
(-0.004490601936 -0.04167225565 0)
(-0.007594307014 -0.04203714259 0)
(-0.006709552554 -0.04205353238 0)
(-0.002312951292 -0.04297720188 0)
(-0.002331772502 -0.04318737864 0)
(-0.002135920165 -0.04319095418 0)
(-0.00211516138 -0.04298034835 0)
(-0.002166502871 -0.0378327011 0)
(-0.002177858378 -0.03805559533 0)
(-0.0019539772 -0.0380541426 0)
(-0.001941041594 -0.03782820049 0)
(-0.002221798561 -0.03958737642 0)
(-0.001999458966 -0.03958879105 0)
(-0.001993265088 -0.03937370511 0)
(-0.002218835258 -0.03937260494 0)
(-0.003758717554 -0.03434674498 0)
(-0.003842835942 -0.03523926832 0)
(-0.003389606339 -0.03523563992 0)
(-0.002922177644 -0.03522010162 0)
(-0.002879442905 -0.03477770377 0)
(-0.0028378055 -0.03434213024 0)
(-0.003490256004 -0.03740319277 0)
(-0.003940306748 -0.03741176596 0)
(-0.00453016526 -0.06638858009 0)
(-0.004745535784 -0.06638481944 0)
(-0.004750460034 -0.06659402181 0)
(-0.004536448835 -0.06659767823 0)
(-0.006272002962 -0.06635696099 0)
(-0.00627908637 -0.06677518611 0)
(-0.005841625704 -0.06678318815 0)
(-0.005834387528 -0.06636500493 0)
(-0.006300255809 -0.06802970748 0)
(-0.005862950667 -0.06803770649 0)
(-0.005855858941 -0.06761905368 0)
(-0.006293242601 -0.06761109203 0)
(-0.00225508387 -0.04129128946 0)
(-0.002227845112 -0.04150768682 0)
(-0.001952595857 -0.04156451449 0)
(-0.002053709516 -0.04129252584 0)
(-0.002093268029 -0.04277120373 0)
(-0.002292879194 -0.04276790516 0)
(-0.004074658295 -0.04294465182 0)
(-0.003633112742 -0.0429528111 0)
(-0.003628519083 -0.04274200758 0)
(-0.003624034725 -0.04253182427 0)
(-0.004066001058 -0.04252350123 0)
(-0.00251516763 -0.04276365991 0)
(-0.00253117493 -0.04297334685 0)
(-0.002475460989 -0.04128736532 0)
(-0.002462662187 -0.04150165764 0)
(-0.002257122498 -0.04466951454 0)
(-0.002242837239 -0.044471774 0)
(-0.002478025065 -0.04445280866 0)
(-0.00247326977 -0.04466309387 0)
(-0.002546002948 -0.04318379575 0)
(-0.004083166814 -0.04336615537 0)
(-0.003641937495 -0.04337477525 0)
(-0.003637656397 -0.04316404344 0)
(-0.004001838888 -0.03955931622 0)
(-0.003559360909 -0.03956633065 0)
(-0.003547606273 -0.03913491346 0)
(-0.003990062858 -0.03912819895 0)
(-0.002443468139 -0.03936930983 0)
(-0.002446762882 -0.03958432379 0)
(-0.002394128155 -0.03784187378 0)
(-0.002401978495 -0.03805793413 0)
(-0.002266731307 -0.04107719456 0)
(-0.002481927224 -0.04107405575 0)
(-0.002447639319 -0.03979878968 0)
(-0.002219718071 -0.03980179868 0)
(-0.004012173531 -0.03998691812 0)
(-0.003569650602 -0.03999422125 0)
(-0.00199602787 -0.03980456593 0)
(-0.002062671677 -0.04107875544 0)
(-0.004204147544 -0.0496549208 0)
(-0.003981856732 -0.04965924389 0)
(-0.003978745852 -0.04945008405 0)
(-0.004200353113 -0.04944581315 0)
(-0.002469023593 -0.04801155756 0)
(-0.002664347149 -0.0480079923 0)
(-0.002675577366 -0.04821664417 0)
(-0.002481008103 -0.04822019476 0)
(-0.004207710201 -0.04986411075 0)
(-0.003985205544 -0.04986843799 0)
(-0.004140207128 -0.04630513829 0)
(-0.003698110005 -0.04631373614 0)
(-0.00369332378 -0.04610383097 0)
(-0.003688982311 -0.04589399494 0)
(-0.004131736417 -0.04588557879 0)
(-0.002370158093 -0.04634014543 0)
(-0.00235744618 -0.04613070557 0)
(-0.002558920827 -0.04612682621 0)
(-0.002571072096 -0.04633623808 0)
(-0.002481496535 -0.0448723098 0)
(-0.002272323223 -0.04487672784 0)
(-0.002457134774 -0.0478028407 0)
(-0.002653110019 -0.04779918498 0)
(-0.002582951305 -0.04654546077 0)
(-0.002382732516 -0.0465493157 0)
(-0.004148628372 -0.04672415421 0)
(-0.003707121485 -0.04673270169 0)
(-0.00370249435 -0.04652337686 0)
(-0.004331588674 -0.05634807658 0)
(-0.004109009386 -0.05635236638 0)
(-0.00410385725 -0.05614324624 0)
(-0.004326758494 -0.05613891128 0)
(-0.004335869011 -0.05655736926 0)
(-0.004114110114 -0.0565616431 0)
(-0.004269820094 -0.05299976876 0)
(-0.004050220716 -0.05300388392 0)
(-0.004045768439 -0.05279475017 0)
(-0.00426563534 -0.05279059091 0)
(-0.004274044486 -0.05320898474 0)
(-0.004054647289 -0.05321309596 0)
(-0.004463955497 -0.06304210895 0)
(-0.004249016553 -0.06304586121 0)
(-0.004246440826 -0.06283641869 0)
(-0.004460932638 -0.06283267514 0)
(-0.004464888067 -0.06325166122 0)
(-0.004247304348 -0.06325562049 0)
(-0.004388721118 -0.05969639677 0)
(-0.004157942356 -0.05970127388 0)
(-0.004157166066 -0.05949175748 0)
(-0.0043861617 -0.05948699283 0)
(-0.004392274379 -0.05990570358 0)
(-0.004161130135 -0.05991058781 0)
(-0.006307306385 -0.06844824441 0)
(-0.005870156768 -0.0684562404 0)
(-0.004316526563 -0.06639219037 0)
(-0.004307394518 -0.06618322542 0)
(-0.004523506914 -0.06617941145 0)
(-0.004325108873 -0.06660108822 0)
(-0.00203314784 -0.03605205545 0)
(-0.002078954247 -0.03650019681 0)
(-0.001611606784 -0.03648583547 0)
(-0.001550624731 -0.03603457031 0)
(-0.001925876677 -0.03760162846 0)
(-0.002152079031 -0.03760623484 0)
(-0.004613661349 -0.05969190547 0)
(-0.00461742068 -0.05990120828 0)
(-0.006154146444 -0.05966284089 0)
(-0.006161703986 -0.06008144576 0)
(-0.005722186405 -0.06008968228 0)
(-0.005714551856 -0.05967111781 0)
(-0.006184179941 -0.06133714748 0)
(-0.005745012289 -0.0613453772 0)
(-0.005737417377 -0.06092685085 0)
(-0.006176701672 -0.06091861887 0)
(-0.006123887978 -0.05798896653 0)
(-0.006131479865 -0.05840733735 0)
(-0.005691651991 -0.0584156188 0)
(-0.005683982342 -0.0579972495 0)
(-0.005706956189 -0.05925255258 0)
(-0.006146628538 -0.05924427415 0)
(-0.004610174186 -0.05948259736 0)
(-0.006242945273 -0.0646828299 0)
(-0.006250223842 -0.06510109012 0)
(-0.005811948186 -0.06510918581 0)
(-0.005804475967 -0.06469096824 0)
(-0.005826945872 -0.06594635892 0)
(-0.006264794593 -0.06593831044 0)
(-0.004740376735 -0.06617554385 0)
(-0.004772587624 -0.05633981125 0)
(-0.004780847294 -0.05675851914 0)
(-0.004340607281 -0.05676680861 0)
(-0.006093275046 -0.05631486569 0)
(-0.006100990382 -0.05673358417 0)
(-0.005660813334 -0.05674191131 0)
(-0.005653020237 -0.05632319434 0)
(-0.005676277593 -0.05757907535 0)
(-0.006116260235 -0.05757075199 0)
(-0.003508545512 -0.05803702892 0)
(-0.003497900023 -0.05782844346 0)
(-0.003712096339 -0.05782470565 0)
(-0.003720219959 -0.05803341794 0)
(-0.00346597144 -0.05720249248 0)
(-0.003687364855 -0.05719822574 0)
(-0.0036956143 -0.05740720785 0)
(-0.003476593493 -0.05741127286 0)
(-0.004349592407 -0.05718561908 0)
(-0.004354050085 -0.05739483052 0)
(-0.004134551797 -0.05739894371 0)
(-0.004129472779 -0.05718978326 0)
(-0.004681150406 -0.06303815724 0)
(-0.004683706693 -0.06324760014 0)
(-0.006213751719 -0.06300971274 0)
(-0.006220917426 -0.06342816964 0)
(-0.005782372627 -0.06343642614 0)
(-0.00577505064 -0.06301793338 0)
(-0.005797044898 -0.06427286656 0)
(-0.006235669727 -0.0642647252 0)
(-0.006191613279 -0.0617553658 0)
(-0.00575256227 -0.06176359325 0)
(-0.005767572371 -0.06259940477 0)
(-0.00620639085 -0.06259122074 0)
(-0.004677701368 -0.0628288095 0)
(-0.004446804342 -0.06220540558 0)
(-0.004229042525 -0.06220940721 0)
(-0.004222585176 -0.06200097368 0)
(-0.004441730402 -0.06199690625 0)
(-0.003580151607 -0.06222097658 0)
(-0.003566291844 -0.06201311486 0)
(-0.003784294723 -0.06200910854 0)
(-0.003795700227 -0.06221717357 0)
(-0.003526825306 -0.06138816618 0)
(-0.00375119863 -0.0613837248 0)
(-0.00376216208 -0.06159245965 0)
(-0.003539921814 -0.06159678176 0)
(-0.003569353589 -0.06473614806 0)
(-0.003553632394 -0.06452797248 0)
(-0.003757502978 -0.06452389094 0)
(-0.00377182521 -0.06473213262 0)
(-0.003507521881 -0.06391579414 0)
(-0.003740116234 -0.06389707371 0)
(-0.003735814657 -0.06410668887 0)
(-0.003522361194 -0.06411282377 0)
(-0.004459985923 -0.06388019548 0)
(-0.004460931884 -0.06408943632 0)
(-0.004223411687 -0.0640948724 0)
(-0.0042249013 -0.0638854675 0)
(-0.00438145547 -0.05885880101 0)
(-0.004162259699 -0.05886286943 0)
(-0.004161481789 -0.05865346974 0)
(-0.004379150291 -0.05864946992 0)
(-0.003526765141 -0.05887367262 0)
(-0.003532066068 -0.05866384355 0)
(-0.00373632957 -0.05866076566 0)
(-0.003731385592 -0.05887054889 0)
(-0.003727823222 -0.05824237372 0)
(-0.003518743005 -0.05824577866 0)
(-0.003513728041 -0.06117951172 0)
(-0.00374024922 -0.06117491189 0)
(-0.003474380302 -0.06055347165 0)
(-0.003707450779 -0.06054843328 0)
(-0.003718349643 -0.06075724717 0)
(-0.003487500895 -0.06076212565 0)
(-0.004406316922 -0.06053336377 0)
(-0.004411350796 -0.06074260289 0)
(-0.00418426973 -0.06074721362 0)
(-0.004177950406 -0.06053807728 0)
(-0.004502940777 -0.06555211151 0)
(-0.004279259536 -0.06555653943 0)
(-0.004269824975 -0.06534761926 0)
(-0.004496042881 -0.06534302532 0)
(-0.003634844155 -0.06556883857 0)
(-0.003618473754 -0.06536048114 0)
(-0.003817288828 -0.06535684799 0)
(-0.003832528547 -0.0655652663 0)
(-0.003786832613 -0.06494020539 0)
(-0.003585705627 -0.0649439613 0)
(-0.00376521279 -0.06723092537 0)
(-0.003937707883 -0.06723173255 0)
(-0.003915971394 -0.06744285366 0)
(-0.003781352979 -0.06742244541 0)
(-0.004543681787 -0.0672239928 0)
(-0.004538154593 -0.06743378738 0)
(-0.004319692161 -0.06743776374 0)
(-0.004332788201 -0.06722735522 0)
(-0.002366725393 -0.04381583794 0)
(-0.002190499123 -0.04381537559 0)
(-0.002172315143 -0.04360876484 0)
(-0.002361948457 -0.04360601038 0)
(-0.002344297582 -0.04402841163 0)
(-0.002207087206 -0.04400832606 0)
(-0.002203276025 -0.03871555738 0)
(-0.001981143236 -0.03871760588 0)
(-0.001972412833 -0.03849609313 0)
(-0.00219510549 -0.03849463273 0)
(-0.001523956732 -0.03849491568 0)
(-0.001539614067 -0.03871340765 0)
(-0.001486153589 -0.03781109791 0)
(-0.001503368886 -0.03804309947 0)
(-0.001554362179 -0.0389315478 0)
(-0.001393133507 -0.03890725406 0)
(-0.002210172301 -0.03893716026 0)
(-0.00198697542 -0.0389380937 0)
(-0.00223156063 -0.04214213678 0)
(-0.002025042895 -0.04214650318 0)
(-0.002000429821 -0.04193951182 0)
(-0.002214843968 -0.0419327748 0)
(-0.002251734033 -0.04235104258 0)
(-0.002048486303 -0.0423551509 0)
(-0.002467646331 -0.04213633965 0)
(-0.002482585264 -0.04234589179 0)
(-0.003167947288 -0.04211964751 0)
(-0.003173600888 -0.04233035262 0)
(-0.0029465897 -0.04233515647 0)
(-0.002939229115 -0.04212467903 0)
(-0.003191634799 -0.04296104685 0)
(-0.002970993408 -0.04296518227 0)
(-0.002962866865 -0.04275471973 0)
(-0.003185604053 -0.04275034907 0)
(-0.003153306257 -0.0412752134 0)
(-0.003156021885 -0.04148604955 0)
(-0.002928879775 -0.04149052144 0)
(-0.002928563948 -0.04127868178 0)
(-0.002933402278 -0.04191366612 0)
(-0.003162970434 -0.04190854028 0)
(-0.002456611377 -0.04192612815 0)
(-0.002563916001 -0.04381367551 0)
(-0.002541065142 -0.04402629633 0)
(-0.003207447167 -0.0438029105 0)
(-0.003206766285 -0.04401369991 0)
(-0.002981763088 -0.04401815354 0)
(-0.002987519675 -0.04380695425 0)
(-0.003204872466 -0.04464552071 0)
(-0.002965289197 -0.0446510747 0)
(-0.002966749647 -0.04444097025 0)
(-0.003203785343 -0.04443562139 0)
(-0.003197387655 -0.04317225567 0)
(-0.002978560497 -0.04317627802 0)
(-0.002988316122 -0.04359670714 0)
(-0.003205963564 -0.04359282442 0)
(-0.002566242849 -0.04360332084 0)
(-0.002224271749 -0.04044334639 0)
(-0.002457217491 -0.04043789425 0)
(-0.002468281612 -0.04065020556 0)
(-0.002241937957 -0.04065453356 0)
(-0.003136209138 -0.04042668854 0)
(-0.003141217265 -0.04063960382 0)
(-0.002918786287 -0.0406437196 0)
(-0.002912987588 -0.04043075357 0)
(-0.002927301811 -0.04106718336 0)
(-0.003149918794 -0.04106363184 0)
(-0.001990225665 -0.04044981954 0)
(-0.001973983498 -0.04023905586 0)
(-0.002213608493 -0.04023144736 0)
(-0.002017534511 -0.04065902609 0)
(-0.002518155389 -0.04884588867 0)
(-0.002705526688 -0.04884302261 0)
(-0.002704513264 -0.04905331284 0)
(-0.00253021809 -0.04905374644 0)
(-0.003317119116 -0.04883338439 0)
(-0.003314641495 -0.04904358641 0)
(-0.003101892311 -0.04904733497 0)
(-0.003107828078 -0.04883694901 0)
(-0.003289472384 -0.0496736039 0)