/*--------------------------------*- C++ -*----------------------------------*\
| =========                 |                                                 |
| \\      /  F ield         | OpenFOAM: The Open Source CFD Toolbox           |
|  \\    /   O peration     | Version:  v2012                                 |
|   \\  /    A nd           | Website:  www.openfoam.com                      |
|    \\/     M anipulation  |                                                 |
\*---------------------------------------------------------------------------*/
FoamFile
{
    version     2.0;
    format      ascii;
    class       volVectorField;
    location    "1";
    object      U;
}
// * * * * * * * * * * * * * * * * * * * * * * * * * * * * * * * * * * * * * //

dimensions      [0 1 -1 0 0 0 0];


internalField   nonuniform List<vector> 
3019
(
(99.99836706 0.003916456427 -4.24124249e-21)
(99.99791776 0.01297725471 3.916567633e-25)
(99.99663964 0.02672173289 -4.230701647e-21)
(99.99451727 0.04817336905 -4.199443516e-21)
(99.99980169 0.03731469461 4.043390629e-21)
(99.99732649 0.06027502252 0)
(99.99596157 0.09546041267 0)
(99.9956034 0.1431694928 -6.99997355e-21)
(99.99449138 0.2050290574 8.105787949e-22)
(99.99386065 0.2782192974 -5.190276481e-21)
(99.99434089 0.3528631001 7.166074665e-22)
(99.99613893 0.4127938578 0)
(99.98543906 0.01046596317 1.700064113e-20)
(99.9801744 0.03512401178 4.24347346e-21)
(99.96829043 0.07298693924 2.961896166e-20)
(99.9479487 0.132443861 -1.268486349e-20)
(99.95199005 0.176474491 4.075327475e-21)
(99.92121396 0.2880362252 -5.3906401e-23)
(99.88181064 0.456506673 0)
(99.86149189 0.6055729346 -7.081481734e-21)
(99.82050806 0.8773946125 -6.505629142e-21)
(99.7925027 1.209145041 -1.115405494e-20)
(99.79608968 1.55977208 -4.512354156e-21)
(99.84660094 1.849728114 -8.345138885e-21)
(99.96100895 0.01355469786 -1.696278294e-20)
(99.94612086 0.04650650595 -3.407722244e-20)
(99.91375842 0.09910996157 -7.631299805e-20)
(99.85966002 0.1843072472 1.015079657e-19)
(99.83436479 0.2780065575 -8.382055269e-21)
(99.7421276 0.4671823627 -8.122884253e-21)
(99.62028964 0.7561564804 -1.408311434e-20)
(99.55542084 1.066994315 0)
(99.42346652 1.587133949 2.700067424e-20)
(99.33122605 2.242002394 1.176462709e-20)
(99.35650239 2.947188364 7.502395951e-20)
(99.5431057 3.575163436 0)
(99.93254568 0.01109448568 -8.557950265e-21)
(99.90399543 0.04060941455 5.989213696e-20)
(99.84294925 0.09460513246 -1.713785037e-20)
(99.74322551 0.1858524186 0)
(99.6650011 0.3173413357 0)
(99.48489215 0.5602123906 -6.587410555e-20)
(99.23601535 0.9448600645 -1.316799267e-19)
(99.04388676 1.406791893 3.085607958e-20)
(98.73386936 2.167241667 -5.855167421e-20)
(98.50736879 3.147286831 -3.27917198e-19)
(98.48342718 4.327678963 -2.267935442e-20)
(98.85690251 5.50460815 0)
(99.91340477 0.001769873382 0)
(99.86896164 0.0129995043 0)
(99.77476178 0.05190196214 8.670301626e-21)
(99.62008394 0.1275384627 1.307754688e-20)
(99.47716809 0.2781291806 2.161882036e-20)
(99.18087375 0.5375531085 0)
(98.76729636 0.9537062411 0)
(98.37383056 1.531779495 0)
(97.81424148 2.459591001 -8.164439249e-19)
(97.27694212 3.782618898 -1.081698699e-18)
(96.98709553 5.598470516 -3.995298618e-19)
(97.47005777 7.763568206 1.942312091e-19)
(99.91846018 -0.01485955515 0)
(99.85777219 -0.03781015516 0)
(99.73069975 -0.03400012566 -1.735700145e-20)
(99.51821936 0.005662352569 3.541449423e-20)
(99.30203465 0.1474145315 0)
(98.87857509 0.3734868798 0)
(98.27204927 0.7576128765 2.771017561e-20)
(97.6533688 1.355194725 2.910990446e-19)
(96.73581239 2.309748923 6.410200311e-19)
(95.645052 3.826488987 0)
(94.56401383 6.352008315 1.23531265e-18)
(94.51520697 10.37461399 5.213629237e-19)
(99.96202076 -0.03837192574 4.249161287e-21)
(99.88676121 -0.1099854941 -4.281899018e-21)
(99.73146989 -0.1599017071 8.7413567e-21)
(99.46852453 -0.1797789896 -3.195669163e-20)
(99.17150895 -0.07600538495 6.75051656e-23)
(98.63449096 0.06672807001 2.740273262e-20)
(97.85394106 0.3446391442 -6.654766964e-20)
(97.01493254 0.8373820364 1.449113637e-18)
(95.69832962 1.637665621 0)
(93.87523088 2.991502569 0)
(91.21080199 5.534751925 -2.026045651e-18)
(87.70912315 11.8037263 -1.971904544e-19)
(100.0563588 -0.06735897895 -4.249611458e-21)
(99.97011876 -0.1989604852 4.283437933e-21)
(99.79455955 -0.31683524 -5.440435274e-21)
(99.49552247 -0.4144233176 -3.664319253e-21)
(99.13047022 -0.3766157887 1.563429713e-20)
(98.50756896 -0.3576480787 9.330545608e-21)
(97.61606106 -0.2623038204 -4.196493162e-20)
(96.59702341 0.0285606527 0)
(94.98958625 0.4654001362 -3.848965745e-19)
(92.62661313 1.168311541 -8.491573309e-19)
(88.65487381 2.221952487 9.439015986e-19)
(80.75668074 4.105805942 0)
(100.2103838 -0.09967771723 -2.050991269e-21)
(100.118068 -0.2980953402 -1.54162011e-21)
(99.93246911 -0.4921792447 -5.285790263e-22)
(99.61579036 -0.6780215364 1.60307231e-21)
(99.20188571 -0.725685924 -3.050314948e-23)
(98.53772581 -0.8530171844 0)
(97.61281064 -0.9728940197 -3.718112802e-20)
(96.50338333 -0.9414401549 -6.972726739e-19)
(94.81307764 -0.9414051455 -4.095643012e-19)
(92.43301242 -0.9957825234 7.940548376e-19)
(88.86502428 -1.520329039 0)
(84.23140892 -3.562907772 -1.080071333e-18)
(100.4283799 -0.1327780771 4.041576251e-21)
(100.3354129 -0.3995386565 6.137390841e-23)
(100.1508904 -0.6711910763 0)
(99.83645685 -0.9476093298 2.09375112e-22)
(99.397602 -1.089728407 -2.149087791e-21)
(98.73928975 -1.36587779 2.295006892e-21)
(97.85238381 -1.695635209 -2.482651227e-21)
(96.75469865 -1.912047075 8.58809236e-20)
(95.16528676 -2.278338037 -3.916358188e-19)
(93.0519914 -2.832355166 1.727406361e-18)
(90.24526766 -3.921943044 -2.579213637e-20)
(87.35051096 -5.704211613 2.306165648e-19)
(100.7095821 -0.1641991094 -1.990409909e-21)
(100.6210364 -0.4955624006 2.008461017e-21)
(100.4476575 -0.8395323655 1.959749589e-21)
(100.1554997 -1.201267038 -1.835695399e-21)
(99.71269228 -1.43654691 -2.12064781e-21)
(99.10142644 -1.845621476 0)
(98.30458111 -2.354664101 2.479527803e-21)
(97.28693218 -2.776812611 0)
(95.87626996 -3.401143168 0)
(94.06309754 -4.235647929 0)
(91.73725724 -5.502352095 -7.979921995e-19)
(89.38791263 -6.996464404 2.00746073e-19)
(101.0484501 -0.1917987751 7.296082799e-21)
(100.9687271 -0.5793571564 0)
(100.8140538 -0.9830549119 -1.955909608e-21)
(100.5575878 -1.426830089 0)
(100.1251432 -1.740360741 0)
(99.59740014 -2.25323427 -6.307330792e-21)
(98.92416121 -2.899952582 -7.37427007e-20)
(98.02825397 -3.477059292 -6.263605414e-19)
(96.8246256 -4.274677886 3.443803573e-19)
(95.28410381 -5.290503346 -2.32176441e-20)
(93.25318986 -6.714332763 7.109411731e-19)
(91.03072281 -8.241330043 -7.20217243e-19)
(83.67788852 -3.104395902 -1.129599176e-18)
(87.05016687 -5.504970423 1.130156616e-20)
(89.16648926 -6.853468792 0)
(90.82091228 -8.072877025 0)
(81.11608106 5.620539989 -1.173268964e-18)
(89.8741271 -3.4241789 -9.541633373e-19)
(87.37805876 -5.18438106 1.854935119e-18)
(84.81992457 -3.057695731 2.156936755e-18)
(91.36600266 -5.153592095 6.152024411e-22)
(89.42831321 -6.619119482 1.611984481e-18)
(87.66932136 -5.397864204 -9.063387678e-19)
(88.18761955 -6.242981434 8.741090792e-19)
(87.35850077 -7.227651828 1.579154994e-18)
(86.24752476 -6.687058955 -8.25281025e-19)
(92.86366847 -6.43420376 -7.522328414e-19)
(91.06782158 -7.858844771 0)
(89.64499192 -6.771453021 -1.596557549e-18)
(90.01154083 -7.433560257 -7.657862254e-19)
(89.03404326 -8.126370304 -1.123096229e-18)
(88.45945674 -7.684772269 0)
(91.27624286 -8.022571998 9.69780572e-21)
(91.81085717 -8.745243518 -5.594082639e-19)
(90.30451556 -9.59374248 -2.621585941e-19)
(89.70527939 -8.876147282 5.472201e-19)
(77.08078845 -5.187691419 0)
(82.23564867 -6.306165342 1.012425703e-18)
(70.20753101 5.677506236 0)
(76.03584829 -4.637561955 0)
(86.09470574 -6.595601183 0)
(84.97116511 -6.118032772 4.685886285e-21)
(86.02946583 -4.82230442 0)
(84.80625634 -6.317246149 -8.983644486e-19)
(85.96379145 -6.73138038 0)
(82.68910739 -6.311578248 0)
(84.61931564 -6.288640534 -9.069895262e-19)
(88.35509531 -7.630736063 -3.8395218e-21)
(87.50389342 -7.282543141 1.901357331e-19)
(88.44787373 -6.405343401 -1.273852494e-18)
(87.32488993 -7.383047656 -6.009490014e-19)
(88.21947594 -7.716913813 -6.088192644e-19)
(86.03899987 -6.784946213 6.285635482e-19)
(87.25218752 -7.351917896 -6.063227243e-19)
(89.65883564 -8.829154666 5.470108549e-19)
(89.06917428 -8.164809598 5.638553981e-19)
(90.21204878 -7.586971088 7.672347266e-19)
(88.91612116 -8.194622011 -1.534882211e-22)
(89.43484891 -8.871290249 -5.56447934e-19)
(88.26943624 -7.748395602 6.086906465e-19)
(88.88537956 -8.157353986 -5.812804197e-19)
(90.34508714 -9.650490249 -5.242373468e-19)
(91.92784112 -8.838373884 0)
(89.97280846 -9.680407737 5.367304232e-19)
(89.47974947 -8.917443677 5.624939532e-19)
(89.9441044 -9.625999227 0)
(88.62297685 -0.7117226691 1.006251772e-18)
(84.36171413 -2.569968795 -1.080167914e-18)
(82.34624825 3.921504444 0)
(81.36476245 0.004700141344 0)
(76.7941047 -3.635900993 0)
(72.33623496 5.548890337 0)
(85.63792549 -4.562811287 0)
(84.77738308 -6.076522345 -5.275671243e-21)
(82.74709144 -5.856475062 -1.987959534e-18)
(82.30020226 -5.794596411 -1.025546567e-18)
(77.66760946 -4.213089451 0)
(81.8975731 -1.017783466 -1.231243089e-18)
(80.00136155 -8.950147501 -1.082105627e-18)
(55.9410946 7.790789068 0)
(64.31037413 -7.906652745 0)
(78.95181129 17.77924802 -1.571651423e-18)
(70.53648775 7.90666927 0)
(90.05083501 -9.225081998 -5.67063968e-19)
(90.90792485 -8.941953705 -6.327219513e-19)
(91.24052196 -9.228756758 -6.257602247e-19)
(75.81959132 -10.65502578 0)
(79.57932027 -9.173350384 2.20111623e-18)
(79.75138767 -6.060365707 8.530914302e-19)
(79.74499767 -8.855239242 -2.878698395e-18)
(75.88898886 -9.714054245 0)
(81.83430808 -7.746992742 0)
(80.13680737 -8.678514188 0)
(80.47831542 -6.172843635 -1.411118693e-18)
(71.68693866 -0.2987364129 0)
(65.43453551 -6.322384179 0)
(58.70817809 7.491674049 0)
(75.05463036 -9.657932361 1.141182754e-18)
(66.83188134 -7.297277986 3.632858217e-19)
(72.71313516 -1.810443483 0)
(65.98695201 -8.883224405 -3.6751634e-19)
(75.02514215 -10.53568967 0)
(85.38192521 -6.417265439 -1.65432246e-21)
(83.64974567 -6.772773982 -4.316061062e-18)
(85.45606738 -6.452195992 -2.146022164e-21)
(83.70086716 -6.26296709 1.142731613e-20)
(82.97146758 -7.02477675 -1.908143947e-18)
(81.97463355 -7.637846212 -1.880365093e-18)
(83.60140802 -6.766077606 -9.583110206e-19)
(83.06556368 -6.947842463 -3.550916734e-21)
(83.96390879 -6.252919021 6.959932905e-19)
(87.78689784 -7.530993097 6.032528448e-19)
(87.84616753 -7.558181439 -6.01491961e-19)
(86.60950995 -7.094494535 -1.870969284e-18)
(86.69232562 -7.139810651 6.433224474e-22)
(89.17094371 -8.500214719 0)
(89.20710642 -8.54173203 -2.957224888e-19)
(88.59281901 -7.925024708 -2.841962009e-19)
(88.63313761 -7.953550074 0)
(91.35712043 -9.327977675 6.21925537e-19)
(89.7692129 -9.20348956 -5.939682786e-19)
(89.80073415 -9.249385648 0)
(67.04656576 24.79566003 0)
(56.29978097 10.77116231 3.268197151e-18)
(88.76135283 -7.914275489 0)
(89.31993577 -7.617295037 6.827315261e-19)
(89.61025489 -7.828792535 -6.751051495e-19)
(88.90394015 -7.357554142 5.976772821e-22)
(89.21958154 -7.550489517 -6.891668438e-19)
(88.71806321 -7.887289983 0)
(90.48916664 -8.57865155 -1.296078202e-18)
(90.80185093 -8.848827757 0)
(90.01295656 -9.177033855 1.131008596e-18)
(88.02253187 -7.479249254 -7.720238281e-19)
(88.44383273 -7.105988918 -7.032441976e-19)
(88.79358865 -7.294026567 -6.978166114e-19)
(87.6629683 -7.839883745 0)
(87.54253453 -7.767000052 6.780277288e-19)
(88.06733203 -7.646252518 -6.076515891e-19)
(89.38323154 -8.506368009 5.65470135e-19)
(90.08870976 -8.230136632 -1.320022494e-18)
(90.38703814 -8.489820447 -6.491513364e-19)
(89.70492516 -7.904810216 1.342230868e-18)
(89.99137973 -8.145926088 -6.64762004e-19)
(89.34286313 -8.462916947 0)
(89.01372335 -8.322813963 5.953197431e-19)
(87.95722084 -8.358171626 -5.830840533e-21)
(87.92380277 -8.200771329 0)
(87.45311224 -8.853308128 1.438131137e-18)
(87.39160794 -8.713325674 0)
(89.31466324 -8.721827401 -2.753506226e-19)
(88.41708884 -7.821848126 3.013594183e-19)
(87.82816606 -7.945853487 0)
(87.70754784 -7.867592852 1.398242785e-18)
(87.91716069 -8.166874747 -1.311977121e-18)
(87.87485121 -8.100360283 1.284487426e-18)
(88.78722892 -8.061919817 0)
(89.61756957 -9.044524357 5.727974149e-19)
(87.67479367 -9.028545033 -7.228351925e-19)
(87.49152894 -8.912499951 -1.444483011e-18)
(87.77550178 -9.43038717 2.269856398e-19)
(89.91455026 -9.474152341 0)
(80.87574816 -8.364477284 8.487346171e-19)
(81.14494405 -8.242527249 2.25900193e-18)
(57.86780403 -0.9068315996 8.831080231e-19)
(59.24390241 -3.177233515 -8.807698187e-19)
(77.68866063 -10.00160287 2.003866301e-20)
(78.20910148 -9.748081353 -1.116016114e-18)
(78.40456553 -9.333227705 1.905611097e-18)
(78.43523282 -7.579702994 -9.644304778e-19)
(79.85164387 -7.567994032 9.084316604e-19)
(76.0861965 -7.257569756 5.353785884e-19)
(77.89850328 -7.546740413 -8.028610868e-21)
(77.87113205 -9.483883414 9.586948275e-19)
(81.33016135 -8.096175292 4.911223747e-19)
(81.53368457 -7.3114294 9.81341084e-20)
(82.220107 -7.12490352 -5.555650215e-19)
(80.26060841 -7.535577238 -8.774120838e-19)
(81.2640459 -7.372575241 -2.02318463e-19)
(81.05750089 -8.202772503 -2.42684871e-19)
(71.9893862 -9.360351388 0)
(73.02837067 -6.292040714 1.594262168e-20)
(75.36073745 -7.088301401 0)
(70.44822821 -10.50921173 4.890483948e-20)
(71.81125238 -10.63826269 0)
(83.9537042 -6.791382837 2.518081684e-19)
(84.70319605 -6.643617721 0)
(84.85304952 -6.690238847 1.382659954e-18)
(84.38919457 -6.606596692 1.551113074e-18)
(84.6302756 -6.633208956 3.87801591e-19)
(83.8789333 -6.809209265 -2.427965561e-18)
(85.10316223 -6.861209592 -6.956715574e-19)
(85.27061183 -7.020749517 -7.100568748e-19)
(84.89329302 -6.720679001 -1.450126459e-18)
(85.05041541 -6.820672501 -1.384117944e-18)
(82.60694871 -7.241942676 9.575064854e-19)
(83.09551708 -6.851549546 -1.296716978e-21)
(83.5016422 -6.728151827 -2.233097148e-18)
(82.4153 -7.066135255 -7.313672536e-19)
(82.94153227 -6.901567687 0)
(82.47701246 -7.333863763 -9.562637838e-19)
(83.37126986 -6.854686243 -1.912325612e-18)
(84.03385136 -6.622622121 -6.187613298e-23)
(84.30687831 -6.603562934 -7.693238677e-19)
(83.62013298 -6.694742881 1.49661175e-18)
(83.93494186 -6.63349564 0)
(83.27136545 -6.867651703 -9.603581038e-19)
(86.76663279 -7.68558597 2.028623237e-18)
(86.92271407 -7.740507074 0)
(86.54429553 -7.687631599 6.460071881e-19)
(86.72210396 -7.678757166 -6.713501725e-19)
(87.15912934 -7.779277816 -1.416501974e-18)
(87.26057221 -7.856046695 -1.448653848e-18)
(86.98245049 -7.752980446 0)
(87.12680445 -7.767591708 -1.406039113e-18)
(85.68491863 -7.310368207 -1.463630708e-18)
(85.9580832 -7.434109728 0)
(85.33783354 -7.085749236 7.169471844e-19)
(85.59384688 -7.262547694 1.454425182e-18)
(86.38955377 -7.594041047 0)
(86.5044183 -7.667749225 6.531516317e-19)
(86.04847415 -7.469557136 0)
(86.31191868 -7.564728553 -7.614027101e-19)
(88.11681623 -8.550770866 0)
(87.99103186 -8.422030974 -5.524186005e-21)
(89.05093674 -8.368869032 5.957111185e-19)
(87.05473498 -8.38947548 1.550139917e-18)
(87.21344023 -8.504465162 -3.943445106e-19)
(87.02111733 -8.130532146 1.532073104e-18)
(87.01481496 -8.311112398 1.548438653e-18)
(87.20754433 -8.531697005 -1.641532365e-18)
(89.28917493 -8.670634506 0)
(87.49803194 -8.669592222 0)
(88.11227253 -8.589249051 3.582573867e-19)
(87.7571283 -8.035056022 1.212170701e-18)
(87.85885487 -7.981576074 -1.354213088e-18)
(88.46290491 -7.852503945 0)
(87.43249991 -7.995460712 1.483590509e-18)
(86.91018044 -8.015277483 0)
(87.30394029 -7.88604945 0)
(87.40388988 -7.965574406 7.548848651e-19)
(87.00219887 -8.052197797 -7.554476781e-19)
(87.02660655 -8.100716281 0)
(86.91424141 -8.018306979 -7.327301374e-19)
(86.98339751 -8.040947533 -1.505972945e-18)
(88.75119597 -8.033840274 0)
(87.85347664 -8.084335496 1.27465551e-18)
(87.77425865 -8.051601787 -1.230706865e-18)
(87.79758759 -9.114400678 3.661237652e-19)
(87.72095973 -9.049268054 7.267512217e-19)
(89.66023051 -9.083002995 -5.794561838e-19)
(89.88896526 -9.41220102 -7.483503987e-20)
(87.75911083 -9.356556406 5.871639324e-19)
(87.80168711 -9.144319589 -1.471304515e-18)
(86.88985567 -7.029650436 -8.051234572e-19)
(87.35253346 -6.550573 7.379761172e-19)
(87.78859583 -6.776312428 0)
(86.74679772 -6.207112518 -5.979094125e-21)
(87.20276694 -6.468305045 0)
(86.72762222 -6.951171944 8.168004378e-19)
(87.92734822 -6.846337892 0)
(88.32030037 -7.042757284 7.120877693e-19)
(87.90161671 -7.4310316 7.705230512e-19)
(87.53482115 -7.444067568 -5.991886071e-19)
(87.06785059 -7.640881375 -6.343468623e-19)
(86.86903984 -7.610253686 -4.698850806e-19)
(86.80781497 -7.58780893 6.320228028e-19)
(86.61005793 -7.515317659 -5.266428527e-19)
(87.02056449 -7.275765746 0)
(80.35075248 -8.706226791 -5.525407865e-19)
(76.52628851 -10.5150912 9.949921464e-19)
(75.47014242 -10.92399728 0)
(79.13712803 -9.352786113 0)
(79.32660103 -9.016016674 -9.711033708e-19)
(79.41656531 -8.547027109 9.034813351e-19)
(79.83201895 -8.423703071 0)
(81.70170829 -7.876855358 0)
(81.85717249 -7.653946868 7.926108138e-19)
(82.03942469 -7.562595487 0)
(80.21692307 -8.288188917 -1.829050909e-18)
(80.56514784 -8.152319635 0)
(80.48480408 -8.493123456 0)
(69.59713628 -3.963712466 1.401589276e-18)
(72.19960383 -5.761235108 -7.789306756e-21)
(70.77669883 -9.100223332 1.240389299e-18)
(67.5567234 -9.691359192 0)
(67.10786246 -11.90860586 0)
(65.15392093 -10.52543464 0)
(74.79475474 -11.10525639 0)
(73.9215609 -11.3669061 0)
(74.10309925 -10.58684567 -1.237757373e-18)
(83.85984359 -6.74685153 6.901606054e-18)
(84.22272945 -6.754123403 5.695653248e-18)
(84.17118124 -6.772929708 -6.075880655e-18)
(84.01088437 -6.744106525 1.71253616e-18)
(84.0832411 -6.752870591 8.61045196e-19)
(83.71237615 -6.787173431 4.813158697e-19)
(84.32976223 -7.001723483 -2.664785831e-18)
(84.35748584 -7.079274717 -8.900780703e-19)
(84.15094883 -6.794517212 -2.057573051e-18)
(84.17635986 -6.813901478 2.532724956e-21)
(82.84783588 -7.106094363 2.86019699e-18)
(83.11543026 -7.032430314 -8.15587633e-19)
(83.23595544 -6.969426789 8.22254328e-19)
(82.21460136 -7.482027599 0)
(82.39002556 -7.405125116 0)
(82.14196196 -7.540822881 9.562464564e-19)
(83.55097766 -6.781664009 -3.046710458e-21)
(83.87553146 -6.757614999 8.441855111e-19)
(83.944754 -6.743300704 -8.519991896e-19)
(83.34044346 -6.908482979 0)
(83.42813841 -6.863294159 -1.654798367e-18)
(83.13072421 -6.898746751 1.910508603e-18)
(87.29287723 -7.703460194 0)
(87.12404273 -7.652686196 -1.278870047e-18)
(87.59998248 -7.471343684 6.016814045e-19)
(88.01495873 -7.618046239 6.034762763e-19)
(87.50185841 -7.751251302 5.233972011e-22)
(87.35074839 -7.717679247 0)
(86.18042943 -7.352515274 7.06572135e-19)
(85.91438555 -7.226639239 7.018775541e-19)
(86.35931046 -6.973890791 6.258639885e-19)
(84.98530564 -7.524565474 -2.653508344e-18)
(85.0760564 -7.558465549 8.872241056e-19)
(84.40615743 -7.181438568 -1.780270954e-18)
(84.49176312 -7.277435584 -2.67524722e-18)
(85.34973459 -7.720553298 0)
(85.16528087 -7.589167418 1.770494291e-18)
(85.25240291 -7.616633354 2.211094142e-18)
(86.9405926 -7.237997305 6.205579761e-19)
(86.52927729 -7.48676542 1.072009352e-18)
(86.26902124 -7.389232605 -7.131879373e-19)
(87.93902999 -8.295903609 -1.346895252e-18)
(88.45268667 -8.312575823 1.291997803e-18)
(88.47747673 -8.365444676 -1.305097101e-18)
(87.4211955 -8.804683304 -7.165329038e-19)
(88.48650311 -8.864465663 -8.8643738e-23)
(88.52170753 -8.907038474 -1.82241117e-18)
(88.44745916 -8.769197768 4.523585563e-21)
(88.45475341 -8.82174031 0)
(87.38747695 -8.759686357 7.000522577e-19)
(88.14748874 -9.615675004 -1.326016144e-18)
(88.16832018 -9.644893214 -1.352640341e-18)
(87.61454684 -9.003190346 -1.446217435e-18)
(88.65849794 -9.039703145 1.243388406e-18)
(88.70794334 -9.070262591 -6.242481631e-19)
(88.55991085 -8.954461717 1.838260727e-18)
(88.60629551 -9.001274415 -6.180994727e-19)
(87.54751811 -8.966403483 0)
(88.25031353 -9.573863689 -4.637313085e-18)
(88.15253745 -9.592628799 7.905377149e-20)
(88.86697596 -9.513599901 0)
(88.4094015 -9.543079545 -4.099585922e-18)
(87.41631772 -9.470923087 2.120959868e-17)
(80.62399795 -8.501999721 -3.284971206e-18)
(81.30743714 -8.059909128 0)
(49.67848525 -0.09326268278 0)
(51.72478195 -3.586113451 3.939570107e-18)
(59.80615159 -11.50522093 0)
(62.13776566 -12.08767284 0)
(54.38245102 -6.568225208 -5.961800086e-18)
(57.1512233 -10.11746085 0)
(54.73961385 -11.0719746 7.190292404e-18)
(77.12422962 -10.26989966 -2.134629855e-18)
(78.68647366 -9.528483826 -2.241054978e-18)
(81.4249745 -7.841342083 -8.692937776e-19)
(81.6549803 -7.751121247 4.116303832e-18)
(81.51929756 -8.004167731 -2.952706051e-18)
(80.78506528 -8.33169078 2.918023741e-18)
(80.87565007 -8.029583275 -1.831408269e-18)
(81.15797737 -7.924863641 6.899050273e-19)
(70.24207496 -12.22172197 0)
(68.80877557 -12.27146064 0)
(69.01643443 -10.20979744 -2.520932685e-18)
(64.35385005 -12.37667481 0)
(66.24281447 -12.66678723 0)
(73.03890351 -10.64451397 0)
(72.8723525 -11.68571686 0)
(71.62058655 -12.00453302 0)
(84.31223072 -6.768737327 -2.214372627e-19)
(84.36962137 -6.763197276 -2.180488897e-18)
(84.00149674 -6.759280269 0)
(83.78968644 -6.804398537 -3.375529958e-18)
(84.16221873 -6.763725515 2.604703741e-18)
(84.24429824 -6.770261479 0)
(84.27830535 -6.898914914 2.654076667e-18)
(84.30480525 -6.942838988 1.773822762e-18)
(84.21450448 -6.836148712 4.378177734e-18)
(84.2484757 -6.864318732 8.818682644e-19)
(82.8604349 -7.159312015 -8.125218136e-19)
(82.98956498 -7.09220333 -8.178968061e-19)
(82.72346035 -7.170823505 1.912059339e-18)
(82.31872171 -7.438695267 9.621091966e-19)
(82.56164034 -7.323243964 -1.614266931e-18)
(82.71974724 -7.238342591 0)
(83.69624501 -6.805434636 0)
(83.79209183 -6.78276898 -1.682201987e-18)
(83.473675 -6.819745635 1.9119993e-18)
(83.19279007 -6.875333752 9.590352076e-19)
(83.51126883 -6.835877759 0)
(83.60005894 -6.820235418 1.672919196e-18)
(86.81273705 -7.701537706 0)
(86.11299717 -7.701621125 -8.047400737e-19)
(86.07952055 -7.684652845 1.603657699e-18)
(86.22215856 -7.745998583 0)
(86.16087863 -7.726158429 -3.220098441e-18)
(86.86487596 -7.721820191 1.36995031e-18)
(86.60668258 -7.69056713 -1.968286187e-18)
(85.95566267 -7.722275876 7.803326204e-19)
(85.90134793 -7.743049663 -1.497785919e-18)
(86.05191707 -7.680815579 -2.39539679e-18)
(86.01347847 -7.695642267 0)
(86.67020436 -7.683001777 6.629733452e-19)
(87.18963785 -7.799193136 -1.427351032e-18)
(86.46576519 -7.769821154 8.08604696e-19)
(86.44895563 -7.750241216 2.42301715e-18)
(86.51979474 -7.834799305 1.627056361e-18)
(86.48759871 -7.798948497 0)
(87.22261341 -7.825522706 0)
(87.0386326 -7.759682137 0)
(86.34951297 -7.754161346 2.413382709e-18)
(86.28838176 -7.75431499 -8.026482952e-19)
(86.43004558 -7.742275721 1.611722191e-18)
(86.3981821 -7.746560712 0)
(87.08731283 -7.762905307 0)
(84.79980323 -7.445633778 -8.877656704e-19)
(84.89283477 -7.487681223 -8.88962806e-19)
(85.77588975 -7.354897119 0)
(85.44493713 -7.430029003 0)
(85.35145919 -7.386995311 1.541315332e-18)
(85.6314576 -7.505355065 1.559362621e-18)
(85.53858346 -7.469214817 7.798720191e-19)
(85.86711152 -7.396067405 0)
(84.60069891 -7.344898342 -5.344803542e-21)
(84.70484308 -7.39756847 0)
(85.48104409 -7.69167852 -9.28604789e-19)
(85.54081684 -7.702660397 -2.144371921e-18)
(86.46429726 -7.631711435 -1.451517942e-18)
(86.13581399 -7.695103777 3.593473205e-18)
(86.05539971 -7.661168477 -4.064818086e-19)
(85.89886934 -7.748612766 -3.454417796e-18)
(85.93364879 -7.729627546 4.559508366e-18)
(86.48037161 -7.645494074 -6.804511965e-19)
(86.13789599 -7.502587286 7.526960835e-19)
(85.81350541 -7.570050227 7.898146821e-19)
(85.72322818 -7.538980109 -1.567114833e-18)
(85.98716324 -7.629760231 -1.430876144e-21)
(85.9012475 -7.600236035 0)
(86.22595495 -7.534015055 -7.608824661e-19)
(85.33591085 -7.644053367 -8.865099984e-19)
(85.41841664 -7.668352164 8.956152039e-19)
(88.0820715 -8.514963713 -1.127371452e-21)
(88.59082894 -8.512097446 -6.690740744e-19)
(88.62587206 -8.553022877 -6.704499227e-19)
(88.5105172 -8.419617711 -1.316620886e-18)
(88.55043976 -8.46893899 0)
(88.03758239 -8.474408889 6.940759582e-19)
(87.11801652 -8.442986524 -1.550938002e-18)
(87.17486378 -8.478010395 3.859568212e-19)
(87.01300159 -8.173124687 7.683547494e-19)
(87.0055556 -8.230902954 -7.729074105e-19)
(87.19185958 -8.545291889 2.307703492e-21)
(86.81415664 -8.570849164 0)
(87.67596849 -8.632072949 -2.154490906e-18)
(88.56747761 -8.660519743 1.814180449e-18)
(88.49105631 -8.706645376 0)
(88.64261428 -8.592741346 0)
(88.65442087 -8.644858933 -6.465903355e-19)
(88.11643573 -8.630797558 2.475310532e-18)
(87.09486164 -7.996146218 -9.355400687e-18)
(86.36795484 -7.953392743 2.208594373e-17)
(86.66684812 -7.943712066 9.938174449e-19)
(86.97804395 -8.010363803 -6.433876579e-19)
(87.34813224 -7.912762132 -7.378732124e-19)
(86.60857896 -7.890630161 -2.11750836e-21)
(86.56323835 -7.86650468 -1.632000022e-18)
(86.65767553 -7.933439314 -4.302187154e-19)
(86.64848994 -7.910384843 8.264664574e-19)
(87.38952878 -7.937584246 -1.491149982e-18)
(87.01737538 -8.064639605 -7.580879122e-19)
(87.02580027 -8.079700547 0)
(86.94023127 -8.023203553 -7.459602374e-19)
(86.96333481 -8.031025582 0)
(87.78108324 -9.091083649 -3.641396684e-19)
(88.81141862 -9.154367164 -1.28094703e-18)
(88.83323503 -9.187710324 6.466879179e-19)
(88.74955907 -9.097420456 1.260602891e-18)
(88.78359434 -9.124804689 6.356522062e-19)
(87.75530278 -9.069623001 -1.45290631e-18)
(87.78100123 -9.258983928 0)
(88.8636101 -9.344247896 0)
(88.84765813 -9.426787752 -7.739358102e-19)
(88.84851388 -9.227456846 6.514699092e-19)
(88.85660982 -9.279018116 5.267485841e-21)
(87.79336357 -9.192146707 -1.479421755e-18)
(99.6540019 0.959541585 -1.428212873e-20)
(99.58103464 1.291527223 6.713242672e-21)
(99.85891948 0.7938034467 6.711160974e-21)
(99.55260692 1.417389271 -2.009382205e-20)
(99.50093313 1.837330101 -6.149180017e-21)
(99.83673768 1.111159701 -3.640678647e-22)
(99.48344778 1.988545254 -6.065234871e-21)
(99.49514916 2.449618812 2.016748166e-20)
(99.84157731 1.462295771 4.511534012e-21)
(99.50465067 2.59967404 -3.769154418e-20)
(99.61144208 3.013247349 0)
(99.89077588 1.777850917 -1.630817167e-21)
(99.65138037 3.129248177 -2.25581139e-20)
(99.18873712 1.337681144 -1.529900457e-20)
(98.99455914 1.845437583 -1.482956462e-20)
(99.45751887 1.44366038 0)
(98.93081972 2.042312176 5.45991177e-20)
(98.78212267 2.69866663 0)
(99.34966514 2.068932189 1.249635338e-20)
(98.74895771 2.939346349 3.866095456e-21)
(98.72567211 3.717029316 0)
(99.34055455 2.771785119 -6.218947219e-20)
(98.74980326 3.985996378 2.253029114e-20)
(98.95824692 4.765774517 0)
(99.48509579 3.43664544 -7.375832978e-21)
(99.07531023 4.996213296 0)
(98.55260306 1.525943201 5.053563451e-19)
(98.18342302 2.171369626 -2.652685775e-21)
(98.80921916 1.955571972 4.504686952e-20)
(98.06352541 2.422451338 2.676539556e-19)
(97.72291434 3.313760355 2.577986295e-19)
(98.55164213 2.880760937 -1.154514868e-19)
(97.62515287 3.661122049 2.902523868e-21)
(97.44048929 4.858704406 -4.753461287e-19)
(98.46056374 4.020788946 0)
(97.4358241 5.304374273 0)
(97.7052897 6.708738432 3.652281084e-19)
(98.71754315 5.232379964 0)
(97.91574214 7.161993005 1.234244563e-20)
(97.82979603 1.432541324 -5.040258958e-19)
(97.23019599 2.109657306 2.960821936e-19)
(97.95616992 2.193329055 7.894303888e-19)
(97.01324165 2.390460442 0)
(96.32269317 3.447722075 -6.094444955e-19)
(97.40100167 3.408709473 2.624739993e-19)
(96.08407244 3.894405927 2.924345021e-19)
(95.43241334 5.569362799 7.171004585e-20)
(97.01364044 5.097611376 0)
(95.27092448 6.258812993 0)
(95.23819176 8.765516715 1.256475434e-18)
(97.23791683 7.223029865 -3.568717286e-19)
(95.48838164 9.707550197 0)
(97.15907965 0.9974429131 -4.766750656e-19)
(96.27823097 1.600747993 6.754013852e-19)
(96.98364132 2.028173885 0)
(95.94007567 1.857507194 1.39317416e-20)
(94.75692661 2.861451361 0)
(95.93034039 3.374596675 6.336292092e-19)
(94.29729128 3.299910204 1.841098313e-19)
(92.6925799 5.108424157 -7.533638298e-19)
(94.80128293 5.594950239 -1.150225097e-18)
(92.08763856 5.954978372 3.920453133e-19)
(90.32869568 9.900953433 1.091408385e-18)
(94.30168449 9.225158807 5.339523724e-20)
(89.97883436 11.96933021 0)
(96.6742624 0.25252577 0)
(95.56207045 0.6298285235 0)
(96.06654675 1.397725176 3.495687891e-19)
(95.12266108 0.7929688672 7.619162691e-19)
(93.5146251 1.42262174 8.16095474e-19)
(94.39304803 2.578847353 0)
(92.84915924 1.691284214 2.089397794e-19)
(90.23072122 2.761478705 1.817666266e-18)
(91.97767712 4.713907072 1.236395319e-18)
(89.0463459 3.236038551 -9.165006492e-19)
(82.66217929 5.163816323 1.169058389e-18)
(88.59139881 9.580268677 3.924593061e-19)
(84.92739975 10.09685353 0)
(82.57274098 15.63523637 0)
(88.33630563 15.5364448 0)
(96.49440921 -0.6902603347 -1.757650682e-19)
(95.28073638 -0.6198048713 -1.164117856e-18)
(95.44528052 0.3335280195 1.514376562e-18)
(94.80458664 -0.5869766902 -4.074621696e-19)
(93.08484969 -0.4908111898 0)
(93.31920629 0.9635910903 8.569282049e-19)
(92.38497063 -0.4710013741 5.55172477e-20)
(89.73683686 -0.565384871 9.330567062e-19)
(89.89319772 1.9197079 -4.893450042e-19)
(88.47485477 1.185389761 -9.566219688e-19)
(87.018349 1.290228956 0)
(87.18322819 2.532463639 2.65598051e-19)
(80.71640711 2.616155192 -1.218077072e-18)
(78.9462903 2.501557697 0)
(78.9050186 4.279084543 0)
(96.6633538 -1.675555402 0)
(95.49029734 -1.883348913 -5.891870089e-19)
(95.28737996 -0.9441104971 -1.928446181e-19)
(95.03916897 -1.961212278 3.984150061e-19)
(93.46213997 -2.270579192 0)
(93.11618096 -0.9623374392 -2.173774475e-19)
(92.84838544 -2.416192925 0)
(90.69351143 -3.084870779 -2.702889662e-18)
(89.89923399 -1.29139847 9.270898017e-19)
(89.16995937 -2.234937754 9.726994859e-19)
(88.16296318 -2.603131001 -2.201316794e-18)
(87.74529759 -1.832338759 -5.028155054e-19)
(84.7421169 -3.945696718 1.054875843e-18)
(84.30875764 -4.516519146 -5.480725557e-19)
(83.72389373 -4.182207881 8.136540881e-19)
(97.13140519 -2.574045204 -5.980805158e-19)