/*--------------------------------*- C++ -*----------------------------------*\
| =========                 |                                                 |
| \\      /  F ield         | OpenFOAM: The Open Source CFD Toolbox           |
|  \\    /   O peration     | Version:  v2012                                 |
|   \\  /    A nd           | Website:  www.openfoam.com                      |
|    \\/     M anipulation  |                                                 |
\*---------------------------------------------------------------------------*/
FoamFile
{
    version     2.0;
    format      ascii;
    class       surfaceVectorField;
    location    "1";
    object      Uf;
}
// * * * * * * * * * * * * * * * * * * * * * * * * * * * * * * * * * * * * * //

dimensions      [0 1 -1 0 0 0 0];


internalField   nonuniform List<vector> 
5999
(
(99.99814218 0.007916943166 -2.146732272e-21)
(99.99258561 0.007187135745 6.366008716e-21)
(99.99727804 0.01867251091 -2.115286612e-21)
(99.98993167 0.0240434186 2.161144772e-21)
(99.99557761 0.03588860265 -4.215072142e-21)
(99.98388717 0.04984663924 1.275369328e-20)
(99.99803994 0.04022193721 1.295864506e-21)
(99.97319756 0.09029408333 -8.350262594e-21)
(99.9886867 0.08884642369 -1.39973825e-21)
(99.99716918 0.07253334316 2.021853812e-21)
(99.99901819 0.04324195691 9.947420719e-22)
(99.98687548 0.1189463475 2.005420762e-21)
(99.9970022 0.06731229319 9.763664962e-22)
(99.99777984 0.05327614774 -1.014890755e-21)
(99.99631957 0.08477478329 9.763266185e-22)
(99.9800184 0.1897964493 1.939814156e-21)
(99.9960171 0.106141455 0)
(99.99583768 0.1294067987 -3.500094415e-21)
(99.97442919 0.2847279364 -3.500076198e-21)
(99.99531582 0.1567564388 -9.05995056e-22)
(99.99475983 0.1877593988 3.048281276e-21)
(99.96789967 0.408569807 3.295556103e-21)
(99.99428595 0.2221247509 4.052786527e-22)
(99.99397078 0.2590507441 -2.595239369e-21)
(99.96419863 0.5557304695 3.73985445e-22)
(99.99389155 0.2973554171 -2.575781231e-21)
(99.99413212 0.3353127707 4.090676386e-22)
(99.96693406 0.7065075599 -1.679942069e-21)
(99.99474723 0.3706802716 2.340178276e-21)
(99.99564669 0.4012240721 1.917042361e-21)
(99.97822029 0.8267015494 -8.268938725e-22)
(99.99675852 0.4245792456 0)
(99.98280607 0.02208760178 1.062264328e-20)
(99.97182515 0.01200554777 3.085044838e-22)
(99.97422937 0.05254404181 1.693152165e-20)
(99.96137866 0.04079922172 -1.487483203e-20)
(99.95811882 0.1008575671 8.838051408e-21)
(99.93866962 0.08601615817 -2.29978501e-20)
(99.95064222 0.1582363385 -1.507445024e-21)
(99.90004877 0.1583072781 4.426864165e-20)
(99.91625838 0.1999366567 -9.733243836e-21)
(99.92723092 0.202542164 -2.090600458e-21)
(99.94455215 0.1994109948 4.0993909e-21)
(99.96576433 0.142112636 2.037581284e-21)
(99.94683573 0.232826722 1.978868829e-21)
(99.92916476 0.2558030576 2.0196988e-21)
(99.88130639 0.3370305015 -4.09156417e-21)
(99.91213777 0.3258513001 -2.686117739e-23)
(99.91950395 0.3703193802 1.940118585e-21)
(99.89243714 0.4114635494 -2.204860985e-23)
(99.82423409 0.5367035784 0)
(99.88238311 0.4782134881 0)
(99.85106749 0.548432386 -2.407830786e-21)
(99.89192721 0.5457895979 -4.719887472e-21)
(99.87716736 0.576913733 -6.891103374e-23)
(99.84300269 0.6662577163 -1.06146043e-20)
(99.86812785 0.629143796 -3.649012e-21)
(99.83971399 0.8385485962 2.933823427e-23)
(99.86274549 0.7889266653 -2.370610787e-21)
(99.79740561 0.9688158208 -1.292928225e-20)
(99.83305946 0.9083107316 -3.155127471e-21)
(99.81462008 1.162833447 -5.759500695e-21)
(99.84606489 1.083769371 -5.453554986e-21)
(99.76904125 1.33917951 6.70985372e-22)
(99.81355616 1.245048965 -6.89794943e-21)
(99.81883229 1.511871124 -2.140134918e-23)
(99.85731059 1.393161577 -4.366881727e-21)
(99.77905417 1.732522328 -6.698689322e-21)
(99.82807347 1.595364412 -3.260961317e-21)
(99.86868475 1.810973082 -4.988233187e-21)
(99.90856601 1.64656875 -7.406634204e-21)
(99.84670142 2.059090678 -6.849644879e-22)
(99.88948136 1.876853536 -4.172838924e-21)
(99.95356526 0.02934526982 -2.551832315e-20)
(99.94411639 0.01231702901 -1.275422216e-20)
(99.92993577 0.07137421554 -5.519205086e-20)
(99.92178016 0.04354807616 1.174617552e-20)
(99.88672824 0.1398745481 1.109062742e-20)
(99.87435059 0.09684935353 -4.671439985e-20)
(99.84274196 0.2391512677 2.818178932e-20)
(99.79675264 0.185077275 5.074580391e-20)
(99.78915925 0.2614881478 -4.385355333e-20)
(99.8663671 0.2532955288 -8.368768289e-21)
(99.79417371 0.2887680218 -6.200408395e-20)
(99.81286095 0.3163666479 -4.19066501e-21)
(99.79219193 0.4265873339 -8.147665155e-21)
(99.76676733 0.4132641067 -4.059631367e-21)
(99.68151765 0.4967984092 2.849981765e-20)
(99.71359118 0.5317834154 7.991973737e-21)
(99.69378106 0.6865238419 -7.040250012e-21)
(99.65268458 0.6762127041 5.207964591e-21)
(99.53029164 0.81207086 -4.012987395e-20)
(99.61802432 0.8207086257 2.790730933e-21)
(99.55559885 0.8813762657 -1.743245821e-20)
(99.60459164 1.013264768 -7.141468098e-21)
(99.57237693 1.013242473 0)
(99.50025524 1.116765049 7.415216654e-21)
(99.53967311 1.124753427 -7.104440449e-21)
(99.48795069 1.502257844 3.448307434e-21)
(99.44049196 1.515702856 1.350104907e-20)
(99.35037514 1.668064993 6.683479034e-21)
(99.41024062 1.662760739 1.675827163e-20)
(99.40721513 2.11542392 2.858796683e-21)
(99.34044069 2.155918217 1.213028288e-20)
(99.24518585 2.364175428 3.002174998e-20)
(99.32945604 2.32904651 5.877590621e-21)
(99.43068999 2.773871301 1.886421923e-20)
(99.34853641 2.860369984 6.439085613e-21)
(99.27019086 3.121247925 -1.258729686e-21)
(99.37401611 3.032337556 2.818289072e-20)
(99.59739058 3.352471343 -1.126561398e-20)
(99.51410439 3.507147733 -3.689338371e-21)
(99.47889902 3.804622455 -5.780755326e-21)
(99.58294563 3.635166812 0)
(99.9182721 0.02545723937 2.562426288e-20)
(99.92012511 0.006427406881 -4.278330644e-21)
(99.87347826 0.06661971921 2.157869577e-20)
(99.88299501 0.02679446812 2.993571061e-20)
(99.7931148 0.1409061401 -8.573392684e-21)
(99.80438141 0.07323513592 -4.226567954e-21)
(99.6910849 0.2697056993 0)
(99.67695164 0.1566630655 6.545031004e-21)
(99.62793453 0.2672097427 1.986950154e-20)
(99.70850873 0.3084916695 -5.794992189e-20)
(99.61604131 0.3092630621 1.493867462e-20)
(99.62397687 0.3681074552 0)
(99.55261964 0.5433556598 2.113462691e-22)
(99.53400152 0.4912196031 -3.286872432e-20)
(99.4092518 0.5628320037 -3.284661262e-20)
(99.42746809 0.6444751518 6.658148293e-20)
(99.33727059 0.9063283465 -9.883252268e-20)
(99.30317003 0.833407982 3.680247902e-20)
(99.12250984 0.959008343 -6.614767706e-20)
(99.20558703 1.055819644 -3.294747157e-20)
(99.1185559 1.074856374 -5.406278577e-20)
(99.11625971 1.372233045 7.773537137e-21)
(99.08111156 1.330090544 1.543342928e-20)
(98.96623698 1.434860276 3.908891139e-20)
(99.00544818 1.49047132 7.708647491e-21)
(98.83213895 2.10491002 -2.097591417e-21)
(98.77147878 2.061266328 -6.841827072e-21)
(98.62855264 2.220280244 9.557174424e-20)
(98.69989721 2.2790324 3.050842054e-20)
(98.62796365 3.043593979 -1.625103898e-19)
(98.52947352 3.01386122 -2.21812433e-19)
(98.37347677 3.243478152 -4.459574074e-20)
(98.49158524 3.287026013 -1.09439811e-19)
(98.61692139 4.157083491 -1.531628103e-22)
(98.471981 4.17387319 -1.13346173e-20)
(98.33148833 4.495869433 8.698901112e-22)
(98.50800542 4.481422565 1.648730025e-19)
(98.96698256 5.250496628 0)
(98.78714402 5.368713217 0)
(98.728074 5.769233122 -1.412181555e-19)
(98.94320554 5.626844394 6.969341688e-20)
(99.89118476 0.007369537215 0)
(99.91319434 -0.006547557142 0)
(99.8218648 0.03176822892 4.334840893e-21)
(99.86005064 -0.01240511083 0)
(99.69742383 0.09126078534 1.102534505e-20)
(99.74839089 0.008960664161 -3.532107479e-21)
(99.52488282 0.2339524852 1.816859163e-20)
(99.56209774 0.06662219704 2.423945437e-20)
(99.4649133 0.1928980149 -7.291730358e-21)
(99.52381974 0.2896692564 2.572149313e-20)
(99.43002991 0.2481739721 2.0688116e-21)
(99.4100103 0.334044642 -1.05090042e-20)
(99.25718811 0.5514745273 0)
(99.26185783 0.4640317194 -2.160552783e-20)
(99.10221951 0.5058781166 -1.775834852e-20)
(99.08535732 0.6295329748 4.406972082e-21)
(98.88687236 0.9634378857 0)
(98.87855184 0.8393540706 4.406500258e-21)
(98.64126972 0.91779858 -4.558817838e-21)
(98.68116158 1.106389737 2.195061228e-20)
(98.58229905 1.096269985 5.687431162e-21)
(98.46278381 1.528871649 2.517008324e-19)
(98.44180817 1.439930443 0)
(98.28196181 1.525820847 -3.449162498e-20)
(98.30489996 1.631926807 0)
(97.93908191 2.44098241 -2.732646707e-19)
(97.88448554 2.327455902 -2.149698475e-20)
(97.68557519 2.461201424 -6.890716029e-19)
(97.74318511 2.604159095 -4.066466439e-19)
(97.45083002 3.721927376 -5.398767293e-19)
(97.3388795 3.595033492 -4.089430383e-19)
(97.08944218 3.826638977 -4.027890245e-19)
(97.22185664 3.984618976 -6.085525017e-19)
(97.21201195 5.451388883 -1.997221448e-19)
(97.00031231 5.346197206 -1.994075968e-19)
(96.73399137 5.731715814 1.644831684e-20)
(96.99734164 5.859994862 2.597118114e-20)
(97.695326 7.462569749 1.015127479e-19)
(97.35368367 7.491996282 -8.305781615e-20)
(97.20453387 8.076663371 -9.645190536e-20)
(97.63022549 8.016992589 1.78824688e-19)
(99.8881204 -0.02613808015 0)
(99.93787252 -0.02661813078 2.124817898e-21)
(99.79424452 -0.03585974009 -8.677335415e-21)
(99.86930359 -0.07391063554 -2.14160637e-21)
(99.62447474 -0.0135164593 9.025069828e-21)
(99.72748471 -0.09697547457 -4.303455035e-21)
(99.37408296 0.09573927867 1.180299578e-20)
(99.48857715 -0.0870354935 3.523381118e-21)
(99.32409376 0.03411971795 -2.44526257e-23)
(99.34826566 0.182825365 -8.742829035e-21)
(99.25695711 0.09555270113 -8.85924184e-21)
(99.20572606 0.1928040812 0)
(98.95118479 0.4238610896 -1.775791014e-20)
(98.99403879 0.3089521816 0)
(98.81070674 0.3055555657 -1.212884844e-22)
(98.73986099 0.4590328723 -8.661986651e-23)
(98.3929021 0.8198023257 9.186840048e-21)
(98.43659082 0.6540039701 1.376898556e-20)
(98.15549212 0.6685547048 1.859310508e-20)
(98.12513074 0.9395310132 8.652882128e-21)
(98.03218579 0.8753901389 -2.730479049e-20)
(97.74113316 1.393810565 -1.061785424e-19)
(97.7533983 1.266823066 9.334404063e-20)
(97.56678008 1.306079324 1.455240532e-19)
(97.5474756 1.454896015 2.967271131e-19)
(96.87159693 2.349887039 3.214397437e-19)
(96.85931334 2.168955002 3.21542143e-19)
(96.59880584 2.251853161 -1.210839729e-20)
(96.60585907 2.466338179 -1.825787767e-21)
(95.86719569 3.860364772 1.453391895e-19)
(95.78952145 3.619151811 3.180196617e-19)
(95.41497939 3.770350518 0)
(95.50546377 4.105230275 1.601321944e-19)
(94.91774945 6.305193321 6.145104891e-19)
(94.68251811 5.970633049 3.351804889e-20)
(94.17913781 6.351031144 -6.11008013e-21)
(94.47032999 6.77117054 7.622980279e-19)
(95.01121774 10.03995142 2.600120669e-19)
(94.40778738 9.790375518 2.725877167e-19)
(93.92738171 10.69157644 2.864402203e-19)
(94.74649346 10.9579926 2.323626871e-20)
(99.92439329 -0.07368357675 -1.611123486e-23)
(100.0073931 -0.05286662433 8.302524164e-23)
(99.80912448 -0.1339810051 2.22899428e-21)
(99.92624633 -0.15448123 -1.005948317e-22)
(99.60002854 -0.1686380052 -1.16618185e-20)
(99.76033267 -0.2384003653 1.772656161e-21)
(99.27058207 -0.1115584801 -1.052287289e-20)
(99.47853859 -0.2972314508 -1.771370351e-20)
(99.2479783 -0.2037659857 -1.512505059e-20)
(99.20563283 -0.0161017741 -8.263847999e-21)
(99.14634836 -0.1467398441 -3.305742739e-21)
(99.0497898 -0.04856616012 3.375739201e-23)
(98.68894266 0.1523013947 1.343951994e-20)
(98.78128803 0.025281366 1.369945851e-20)
(98.59273863 -0.03341537622 6.759715691e-21)
(98.45702802 0.1273320003 2.335173215e-20)
(97.94847901 0.4622456706 -2.834808134e-20)
(98.06673681 0.2661992533 -2.372882273e-20)
(97.77979787 0.20234459 -3.326904962e-20)
(97.64250492 0.4960794028 -9.812370343e-20)
(97.57399971 0.3986854769 2.804158108e-20)
(97.08675463 0.9173646173 4.863801062e-19)
(97.14899574 0.7671860419 6.91534766e-19)
(96.94934523 0.7487706537 -7.270211783e-21)
(96.86805732 0.9196108452 2.996148191e-19)
(95.81823639 1.747479534 6.962142311e-21)
(95.8817843 1.518008217 1.741673027e-19)
(95.58803845 1.511370087 -1.828645645e-19)
(95.49922613 1.774775976 0)
(94.08497767 3.145991475 9.223748067e-20)
(94.13514065 2.784221463 0)
(93.67741975 2.805280079 0)
(93.59053823 3.229324253 0)
(91.64149501 5.744587391 -8.139992149e-19)
(91.5972208 5.118775509 -3.780984418e-19)
(90.78335028 5.235606059 -1.456565722e-18)
(90.7969556 6.043042177 -6.280632141e-19)
(88.84324103 11.88786924 -9.737439112e-20)
(88.15527275 10.69823212 1.001435928e-19)
(86.29717531 11.98268777 1.107302208e-18)
(86.56800381 11.19266177 -6.791771901e-19)
(87.9236546 13.31869494 3.26681965e-19)
(86.95536047 13.38995584 -6.457771502e-20)
(100.0132391 -0.1325250018 1.688138424e-23)
(100.1324095 -0.08351865615 -3.15029439e-21)
(99.8823404 -0.256232865 -5.784298543e-22)
(100.0429659 -0.2485294452 1.370833039e-21)
(99.64503895 -0.3641276781 -4.533895756e-21)
(99.86218354 -0.4045127707 -2.984360276e-21)
(99.25216863 -0.3863637778 9.341131345e-21)
(99.55401288 -0.5462330504 -1.030417321e-21)
(99.26566068 -0.5016974954 9.829887364e-22)
(99.14171006 -0.2970048003 4.583041932e-21)
(99.1319315 -0.4585247938 9.485194373e-21)
(98.98939194 -0.3758751096 6.700150832e-21)
(98.52970985 -0.2455103436 -2.278806049e-21)
(98.67794011 -0.3649925584 3.546786504e-21)
(98.50398656 -0.4785128172 2.340282357e-21)
(98.30238314 -0.3375418467 7.100089036e-21)
(97.66083571 -0.101334883 -2.101231006e-20)
(97.85657377 -0.2899486625 -1.858289218e-20)
(97.59906455 -0.4363311601 -3.780004003e-21)
(97.3496252 -0.1553137033 -2.311779136e-19)
(97.32230417 -0.2896217101 1.996689294e-19)
(96.63559938 0.140530592 0)
(96.75738705 -0.007557561485 -2.005848195e-21)
(96.56860957 -0.08816894491 3.465171962e-19)
(96.41977083 0.07291069607 0)
(95.0558595 0.6292888726 1.88929821e-19)
(95.21690238 0.4000242652 5.621727595e-19)
(94.93993951 0.29337499 -1.921635096e-19)
(94.73921161 0.540178942 -3.920525213e-19)
(92.73709662 1.429775394 -3.20142957e-19)
(92.9747919 1.067131663 5.665008666e-21)
(92.54979807 0.895970259 -4.247576568e-19)
(92.23677301 1.283282418 -4.004176602e-19)
(88.84758677 2.727772164 1.609955691e-20)
(89.27972981 2.074865322 2.293369936e-19)
(88.569868 1.703403755 -6.525316497e-21)
(87.92227706 2.382958343 6.061184438e-19)
(80.932066 4.863110655 -5.864718181e-19)
(81.551576 4.014915259 0)
(80.74604352 3.356593854 -6.123653979e-19)
(79.83277366 4.231479231 0)
(100.1642253 -0.1982035842 -1.796302818e-21)
(100.3193771 -0.1162281422 9.951899111e-22)
(100.0252689 -0.393081743 -1.047736103e-21)
(100.2268245 -0.3488184545 -7.382230479e-22)
(99.77412748 -0.5835853449 5.372618285e-22)
(100.0419317 -0.5816894009 -2.642768527e-22)
(99.33987124 -0.7021879009 6.076093378e-22)
(99.726577 -0.8128273368 8.958714081e-22)
(99.39468232 -0.8307123026 5.344135164e-22)
(99.18433964 -0.6330427119 1.560224018e-21)
(99.23491945 -0.8104600241 -1.524953857e-23)
(99.05119486 -0.7556949294 -1.525170753e-23)
(98.51943196 -0.7261711129 -2.336402706e-21)
(98.71911464 -0.8201422115 0)
(98.57758978 -0.9817577498 -1.147612753e-21)
(98.32284086 -0.8816328953 -1.219167296e-21)
(97.59797379 -0.7916194168 -1.300775855e-21)
(97.86004983 -0.9425673753 -1.981978296e-20)
(97.65869856 -1.15564628 2.630628568e-21)
(97.31147761 -0.9298152647 -1.248709179e-20)
(97.33245808 -1.080996082 1.450421808e-20)
(96.50147952 -0.8158035819 -4.366712087e-19)
(96.67418103 -0.9363436314 -3.516819706e-19)
(96.52208853 -1.065368328 3.53489036e-19)
(96.31486571 -0.9429743756 -3.460356982e-19)
(94.81555859 -0.763965618 -4.085138969e-19)
(95.04971523 -0.9415371477 -3.014499049e-19)
(94.84260984 -1.115801919 -2.045881208e-19)
(94.55521145 -0.9398546249 -2.095193868e-19)
(92.41073871 -0.733538125 4.24826453e-19)
(92.77688393 -0.9781868032 2.849902954e-19)
(92.48418816 -1.246434028 4.246955915e-19)
(92.0574827 -1.023642459 6.890430187e-20)
(88.75120549 -1.116494303 5.02875307e-19)
(89.38709119 -1.403707102 4.679566052e-19)
(89.02281401 -1.878027217 4.866176947e-19)
(88.30602533 -1.678877629 -2.509720659e-19)
(83.95620994 -3.333886238 -1.104815512e-18)
(84.52545142 -3.314438764 5.413161495e-19)
(84.48694726 -3.754410768 -1.200143184e-20)
(83.97769325 -3.869650357 -1.329362276e-19)
(100.3818962 -0.2655284824 2.051467376e-21)
(100.5698559 -0.1484879935 1.005281153e-21)
(100.2431513 -0.5332490736 3.068685026e-23)
(100.4793777 -0.4475460156 1.061870756e-21)
(99.99366743 -0.8079197665 1.046917477e-22)
(100.3010572 -0.755350368 9.797469966e-22)
(99.54390565 -1.03051151 -1.508429377e-21)
(99.99784636 -1.074428996 -8.566819768e-22)
(99.63968895 -1.160364934 7.036051244e-22)
(99.34880726 -0.9924730547 -1.074606325e-21)
(99.4624855 -1.169057547 -5.426911518e-22)
(99.24748201 -1.150940477 -1.074538696e-21)
(98.67858397 -1.238174809 4.001937131e-24)
(98.9183201 -1.292223764 1.147540423e-21)
(98.82101703 -1.489193611 1.147550593e-21)
(98.53189544 -1.443131454 1.147529319e-21)
(97.77871049 -1.516965633 1.985691219e-20)
(98.08788765 -1.609324109 -1.244217939e-21)
(97.95440588 -1.866236294 -1.652229921e-23)
(97.54195596 -1.719306324 -2.781339548e-20)
(97.60704331 -1.867046022 3.232577976e-20)
(96.70923389 -1.793889983 4.297570961e-20)
(96.91827666 -1.869573468 3.492642866e-19)
(96.80959383 -2.026412786 -3.002209277e-19)
(96.57473724 -1.95496941 4.254047751e-20)
(95.10249436 -2.119928208 2.982843771e-21)
(95.3846534 -2.228285501 -1.962515386e-19)
(95.24076241 -2.429937703 4.027443432e-19)
(94.92952372 -2.333581044 -3.990978081e-19)
(92.95103762 -2.624385027 8.641708144e-19)
(93.34852384 -2.746069978 4.209518167e-19)
(93.16625977 -3.02654307 8.635143024e-19)
(92.7381401 -2.933562795 4.470761605e-19)
(90.06086283 -3.673101483 -4.899849775e-19)
(90.63152274 -3.746089608 -1.721297238e-20)
(90.43291567 -4.146078051 -1.264308374e-21)
(89.86038555 -4.12962847 4.368147434e-19)
(87.19979162 -5.604577004 1.209673779e-19)
(87.50988544 -5.550289871 -3.376433633e-19)
(87.49438453 -5.798631421 8.954193808e-19)
(87.1462846 -5.822005077 -9.50498982e-19)
(87.24585099 -5.893017684 5.8689593e-19)
(100.6653105 -0.329410341 8.967220713e-24)
(100.8806159 -0.1779957687 2.651838012e-21)
(100.5343469 -0.6658160829 1.984105264e-21)
(100.7967751 -0.5374336727 1.004849404e-21)
(100.3015717 -1.018035879 6.193576542e-23)
(100.633426 -0.9112239206 -5.991948222e-23)
(99.86030862 -1.343080703 -2.025656993e-21)
(100.3624084 -1.313963991 -9.185089194e-22)
(99.99148331 -1.465640557 -4.918847864e-22)
(99.63418781 -1.342469658 -5.285310983e-22)
(99.8059672 -1.503768034 -1.052863771e-21)
(99.57231559 -1.525127553 8.729729208e-23)
(99.00211403 -1.729080044 0)
(99.26668503 -1.735426525 1.059555276e-21)
(99.21877507 -1.953007666 2.105091308e-21)
(98.91420717 -1.965054246 1.144499572e-21)
(98.18055358 -2.195777149 2.464433587e-21)
(98.51511777 -2.22083145 2.376215691e-21)
(98.45152903 -2.499147638 3.701408525e-20)
(98.00488152 -2.438668215 -2.206476213e-19)
(98.10549939 -2.570573505 8.077192697e-22)
(97.20938227 -2.67549255 -2.988284435e-19)
(97.43402283 -2.705721135 0)
(97.37122077 -2.872835391 -4.105242692e-20)
(97.12532842 -2.850703571 3.556161692e-19)
(95.77459355 -3.272297877 -1.966543768e-19)
(96.06896388 -3.317320403 0)
(95.9856459 -3.52241944 -3.750587611e-19)
(95.67114774 -3.491400482 0)
(93.92535099 -4.078251064 -3.996700671e-19)
(94.31459542 -4.114559591 3.026555102e-19)
(94.20737222 -4.38248524 -3.890291262e-19)
(93.80013527 -4.368398464 5.02077688e-19)
(91.55137843 -5.327956504 -3.986743387e-19)
(92.05335439 -5.317554571 1.229347405e-18)
(91.9226221 -5.666017764 -3.990023318e-19)
(91.42167136 -5.700854138 -3.989977534e-19)
(89.2770101 -6.924958074 1.003712594e-19)
(89.51644892 -6.882153028 -6.973987545e-19)
(89.49461062 -7.068068752 -1.926132638e-19)
(89.22913439 -7.08091082 5.112860855e-19)
(89.30172219 -7.134767277 -8.137473946e-19)
(101.0085941 -0.3851978782 3.648546966e-21)
(100.8914003 -0.7811623299 -9.778305554e-22)
(100.6858 -1.198248222 -9.777986724e-22)
(100.2692856 -1.618818766 0)
(100.0234089 -1.655675842 7.506620986e-24)
(100.0043987 -1.846756113 2.000353324e-21)
(99.46664008 -2.15682053 -1.06245806e-21)
(99.74053941 -2.113793823 -1.153165913e-21)
(99.43842979 -2.40570962 1.140151795e-21)
(98.76117373 -2.771745768 -1.430695122e-21)
(99.10103922 -2.729997918 -3.278184289e-20)
(98.64910492 -3.034073877 1.699605353e-19)
(98.77543971 -3.142407712 -2.177514929e-19)
(97.92740269 -3.398280407 -3.534494986e-19)
(98.15372714 -3.386072506 -6.13166883e-19)
(98.13289268 -3.550893725 2.833652845e-20)
(97.88987778 -3.572291262 3.563695384e-19)
(96.6972069 -4.177537945 9.021143077e-19)
(96.98861101 -4.168565708 5.187251399e-19)
(96.95698719 -4.363803406 -7.080167882e-21)
(96.65061432 -4.387393828 1.770321373e-19)
(95.12303008 -5.173254573 -1.510076888e-23)
(95.49866052 -5.14624339 -1.147698032e-20)
(95.45036411 -5.398164467 3.416239537e-19)
(95.05930798 -5.444290136 7.669248427e-20)
(93.05803494 -6.574231468 -2.076477089e-20)
(93.5349075 -6.512028414 -3.653623943e-19)
(93.45490637 -6.845354503 5.305512223e-19)
(92.96343393 -6.922926062 7.6176145e-20)
(90.92570716 -8.157087361 -3.600549134e-19)
(91.15339012 -8.131402135 -3.561193356e-19)
(91.13810381 -8.326876978 8.484549001e-20)
(90.8669581 -8.318855399 -2.398335201e-19)
(90.9372428 -8.385956825 -6.497013862e-19)
(84.01954372 -2.842275922 -1.104888148e-18)
(83.37217826 -3.435814228 -5.787936368e-19)
(83.38789468 -2.82486442 -5.649882448e-19)
(87.21407156 -5.344242303 9.32394627e-19)
(86.89154739 -5.399192593 -4.647613011e-19)
(86.84118335 -5.629642375 3.533010499e-21)
(86.94471093 -5.702725667 -5.121526991e-19)
(89.29740593 -6.734385232 8.055712286e-19)
(89.05144811 -6.781329784 4.105079945e-19)
(89.00549212 -6.941474437 -4.49020122e-19)
(89.08094155 -6.99543996 -4.47055231e-19)
(90.94428179 -7.965215139 0)
(90.71792229 -7.99003732 0)
(90.65868539 -8.148504602 4.166413116e-19)
(90.72730688 -8.214298644 -4.145834538e-19)
(81.88926644 5.397218795 -6.111466182e-21)
(80.20831042 5.94533137 -5.866693396e-19)
(81.43606692 6.333525535 -5.843860177e-19)
(90.28783508 -3.254244212 -1.839421971e-18)
(89.45804676 -3.630731327 -3.747994882e-19)
(89.69526768 -3.145144519 -1.754072192e-20)
(87.52348766 -5.291119773 4.742306618e-19)
(87.22536483 -5.07060293 4.587425368e-19)
(87.55917653 -5.033096494 4.65516786e-19)
(84.59278608 -2.814091822 5.409821063e-19)
(85.12645829 -2.849177442 4.532266137e-20)
(85.03854998 -3.266610776 5.506619466e-19)
(91.69475331 -4.97061334 -4.112364981e-19)
(91.03946258 -5.354178913 6.323523018e-19)
(91.17970735 -4.965951623 -4.199098275e-19)
(89.5365139 -6.695280256 7.831009589e-21)
(89.31610876 -6.541782683 3.931862615e-19)
(89.57032376 -6.505781351 -2.141762082e-21)
(87.84334686 -5.252684563 -4.540613268e-19)
(87.80892701 -5.498473213 -9.028321058e-19)
(88.31784245 -6.324149434 -1.99636853e-19)
(88.33302005 -6.105347129 4.372301303e-19)
(88.05272479 -6.157717122 -4.463790527e-19)
(88.00460485 -6.351736973 -6.700534054e-19)
(88.09609097 -6.410165006 -1.811329657e-19)
(87.43118727 -7.255075202 8.852418653e-19)
(87.28791872 -7.30986727 1.279872672e-19)
(87.28290648 -7.19771746 3.919892088e-19)
(87.43755923 -7.149057535 4.012126801e-19)
(87.23761283 -7.293449337 9.327472457e-19)
(86.17093997 -6.64132673 -4.126733332e-19)
(86.10889597 -6.747411496 1.425501799e-19)
(86.34155906 -6.606894819 -4.125337466e-19)
(86.32607479 -6.732777508 -4.10163857e-19)
(86.1603842 -6.785377715 -2.756870327e-19)
(93.15282488 -6.238174203 -3.728098528e-19)
(92.56722991 -6.636764872 9.304459392e-20)
(92.67273267 -6.286841044 1.421784809e-21)
(91.17192369 -7.9406948 4.848315782e-21)
(90.96543117 -7.777949427 3.656589635e-19)
(91.20104001 -7.750326449 3.565284171e-19)
(89.78502319 -6.660911652 -7.986685145e-19)
(89.74987072 -6.847192907 -4.026326695e-19)
(90.11156978 -7.510296051 9.267392592e-22)
(90.13675955 -7.32894303 -3.788300711e-19)
(89.90997628 -7.359164457 -2.805254594e-19)
(89.85552119 -7.509220604 -6.86982573e-19)
(89.92179415 -7.566997745 -2.525182835e-19)
(89.0516209 -8.145602597 -2.790663239e-19)
(88.9600953 -8.142044328 -8.536295672e-19)
(89.01613589 -8.109219617 -5.624770234e-19)
(89.09520791 -8.108711335 -8.360697279e-19)
(88.40723514 -7.657747894 -1.920122854e-21)
(88.33271941 -7.723475524 4.064704341e-19)
(88.54394623 -7.631437762 7.360858706e-19)
(88.51053488 -7.712018093 4.248621624e-19)
(88.36602593 -7.744771944 4.054562049e-19)
(91.40826082 -7.91186159 3.550562628e-19)
(91.38277983 -8.105047153 3.554122096e-19)
(91.8737158 -8.791982665 -2.796566043e-19)
(91.85256333 -8.675142277 -3.16162846e-19)
(91.74886719 -8.811741236 -6.067388776e-22)
(91.74334016 -8.709189977 -5.641823582e-19)
(90.32468346 -9.622110204 -3.931921673e-19)
(90.12638953 -9.61018164 -1.325980228e-19)
(90.28613951 -9.565525745 -9.752706903e-20)
(90.42977098 -9.571184693 2.63481155e-19)
(89.68211294 -8.852674707 5.471155772e-19)
(89.59384575 -8.896078602 5.547685169e-19)
(89.79077056 -8.852764898 -3.690448766e-21)
(89.7287905 -8.898218747 5.473640231e-19)
(76.56017532 -4.913148682 0)
(77.37428409 -4.700685039 0)
(77.57216141 -5.394267484 6.093333337e-19)
(76.65259849 -5.717248097 7.340445798e-21)
(77.02493919 -5.804508689 7.203784022e-19)
(82.46209701 -6.308857187 5.059118584e-19)
(82.2679261 -6.051464379 -9.051559649e-21)
(81.97502142 -6.293308898 5.065873917e-19)
(82.14415644 -6.575242478 8.96417804e-20)
(82.29458975 -6.554353212 8.252011172e-19)
(71.27442992 5.626812426 0)
(70.36141764 6.789944869 0)
(70.26863242 4.58602865 0)
(68.92759997 5.798893328 0)
(76.41463803 -4.147493105 0)
(75.72206162 -5.255050674 0)
(75.49739126 -4.291780928 6.85728613e-19)
(86.00738103 -6.690548309 0)
(86.01949343 -6.551527491 0)
(86.18832037 -6.516398434 0)
(85.95839682 -6.653836577 0)
(84.88867379 -6.215752864 -4.482717095e-19)
(84.87399884 -6.097276497 -2.920971314e-22)
(85.04759683 -6.022410737 -8.455020334e-19)
(85.06172143 -6.142049659 4.377072581e-19)
(85.83326078 -4.692582475 0)
(86.22081637 -4.639027077 0)
(86.21032408 -4.943726401 2.433528066e-19)
(85.86891516 -5.033944983 0)
(84.71270067 -6.302949854 -9.026730241e-19)
(84.89354108 -6.334919625 -8.936286639e-19)
(84.68124395 -6.400325803 1.114274248e-18)
(84.73993851 -6.39973118 -7.698219366e-19)
(86.00342804 -6.758242662 3.142897354e-19)
(85.90038994 -6.772039886 3.176497423e-19)
(85.92463294 -6.710585178 0)
(82.7181573 -6.083710816 -9.962293356e-19)
(82.88147926 -6.305055744 -5.758017084e-22)
(82.58426777 -6.536837472 -4.801299677e-19)
(82.71148015 -6.51346628 1.548171978e-21)
(84.69832363 -6.181579557 -4.56525166e-19)
(84.518429 -6.278222648 -4.579576302e-19)
(84.49697084 -6.380783555 -3.0263005e-19)
(84.55942885 -6.378984639 -1.241231537e-18)
(88.2644045 -7.691490356 -4.07823541e-19)
(88.30154828 -7.604439065 4.752225072e-19)
(88.43815965 -7.575620548 -3.733763078e-19)
(88.23111183 -7.670475618 4.033129953e-19)
(87.38520009 -7.345431156 -3.357242405e-19)
(87.58189884 -7.206575631 9.485569307e-20)
(87.57353935 -7.30806648 -2.95827632e-19)
(87.43305691 -7.360017058 6.402900528e-20)
(88.58864163 -6.272058263 -1.059970851e-18)
(88.57275866 -6.483003945 -3.197266167e-19)
(88.27258602 -6.509560631 4.780716388e-20)
(88.36024524 -6.564113858 3.587959784e-20)
(87.29066589 -7.36754953 -6.036390467e-19)
(87.35876641 -7.391561676 -3.006505282e-19)
(87.26877011 -7.415714199 -7.030744861e-21)
(88.24566179 -7.732700967 -3.800262386e-23)
(88.15237632 -7.742779132 -3.032845937e-19)
(88.19299955 -7.706293862 -1.115301215e-21)
(86.07590918 -6.806126974 3.144717257e-19)
(85.97537765 -6.821095855 -1.868664589e-21)
(87.19599199 -7.391987252 -3.062433854e-19)
(87.21215993 -7.342106647 1.952338712e-21)
(89.54835054 -8.850053042 2.762468823e-21)
(89.63611038 -8.806255266 2.769400718e-21)
(89.74398734 -8.806728829 -4.783409744e-21)
(88.99295595 -8.179438049 2.829514473e-19)
(89.13194359 -8.146639406 5.588579527e-19)
(89.0867541 -8.18421153 -1.381231235e-21)
(90.33692803 -7.482877402 3.839000991e-19)
(90.31203911 -7.665957733 4.781689329e-19)
(90.05486931 -7.661156626 6.841277312e-19)
(90.12060427 -7.721251458 6.824510836e-19)
(88.90065524 -8.176005394 -2.903976513e-19)
(88.93148463 -8.214711391 -7.663193649e-23)
(88.81523801 -8.205445688 3.015891584e-19)
(89.45714952 -8.894397884 3.961480829e-21)
(89.2689673 -8.886397712 -2.803989205e-19)
(89.4131138 -8.847770619 -5.554614812e-19)
(88.29343425 -7.759050658 6.077740198e-19)
(88.20168595 -7.768772878 -3.294443825e-19)
(88.78764722 -8.168601591 -2.924064801e-19)
(88.86962297 -8.140297493 -2.916044989e-19)
(90.16078696 -9.666528643 8.631443469e-22)
(90.47325653 -9.627503878 1.595862474e-21)
(90.36847972 -9.677664829 2.682135939e-19)
(91.86763255 -8.896565944 -2.804725828e-19)
(89.95941763 -9.653269923 2.686172002e-19)
(89.99391767 -9.705874267 -8.23097887e-19)
(89.65177224 -9.68502347 5.496274603e-19)
(89.50260979 -8.939857066 8.470598818e-19)
(89.31228623 -8.932492339 -4.651568954e-21)
(89.63411282 -9.634625349 2.406090842e-19)
(89.93561388 -9.597190355 -3.049872835e-19)
(89.18528289 -0.6339714687 9.693108275e-19)
(88.00142177 -0.8234736742 9.514736513e-22)
(88.55975114 -0.2593965033 2.165544719e-20)
(84.12950607 -2.282443047 -5.402601034e-19)
(84.70753992 -2.359569382 -5.402002078e-19)
(82.51089042 4.542058606 5.841856529e-19)
(83.00787883 3.789208844 0)
(82.31087682 3.290296505 6.12541082e-19)
(81.64423647 -0.5085076332 -6.174362789e-19)
(81.99390972 0.2157283458 -5.881210351e-19)
(80.67603864 -0.2697475867 -1.657860218e-19)
(81.17160741 0.6138948205 0)
(77.23602729 -3.92506652 0)
(76.35255997 -3.271883871 -6.838439083e-19)
(77.173293 -3.22875192 0)
(72.48821706 6.478001698 -7.120181369e-19)
(73.25275744 5.438252678 0)
(72.34573575 4.644457878 -7.257953411e-19)
(85.84478672 -4.365267537 0)
(85.46475414 -4.794693973 -1.277889422e-19)
(85.42315644 -4.418367241 -5.22344571e-19)
(84.67243484 -6.059776349 -6.815802333e-21)
(84.85166559 -5.973892011 -5.469173587e-21)
(82.52310927 -5.825528237 -1.50703694e-18)
(82.80062519 -5.637364216 -4.928551817e-19)
(82.94717937 -5.881698948 -2.290326727e-20)
(82.05238076 -5.754551498 -1.038707451e-18)
(82.36504382 -5.556675829 4.359617925e-21)
(77.97589191 -3.816280163 -6.149888488e-19)
(78.08303542 -4.437342675 0)
(82.44335023 -0.766186068 -4.547715951e-20)