/*--------------------------------*- C++ -*----------------------------------*\
| =========                 |                                                 |
| \\      /  F ield         | OpenFOAM: The Open Source CFD Toolbox           |
|  \\    /   O peration     | Version:  v2012                                 |
|   \\  /    A nd           | Website:  www.openfoam.com                      |
|    \\/     M anipulation  |                                                 |
\*---------------------------------------------------------------------------*/
FoamFile
{
    version     2.0;
    format      ascii;
    class       surfaceVectorField;
    location    "3.13";
    object      Uf;
}
// * * * * * * * * * * * * * * * * * * * * * * * * * * * * * * * * * * * * * //

dimensions      [0 1 -1 0 0 0 0];


internalField   nonuniform List<vector> 
6464
(
(99.98343483 0.7825707666 2.534828491e-22)
(99.99810657 0.3992316183 0)
(99.9995892 0.407922852 1.555857431e-22)
(100.0008633 0.816724382 -3.619510187e-24)
(100.0011957 0.4070438368 7.070901492e-22)
(100.0026735 0.3964210118 5.592771804e-23)
(100.0178116 0.7760480986 -4.660072646e-22)
(100.0038084 0.3773725967 -7.770093577e-22)
(100.0046305 0.351966716 9.27201649e-23)
(100.0279062 0.6754069053 1.546620688e-21)
(100.0051533 0.3221436796 3.905546656e-22)
(100.0053598 0.2898583176 0)
(100.0307496 0.5471025289 0)
(100.0053102 0.2569853321 0)
(100.0052286 0.2248470764 7.236912815e-22)
(100.0280799 0.4196963852 1.505046363e-21)
(100.0054373 0.194831873 -3.671266152e-21)
(100.0053559 0.1653897638 -1.357601789e-21)
(100.0243729 0.303682696 2.98977637e-21)
(100.0046851 0.1393425273 2.989553269e-21)
(100.0035201 0.1171237463 -8.605983596e-22)
(100.0149291 0.2126789243 -5.82755425e-23)
(100.0008376 0.1011766146 1.667498638e-21)
(100.009854 0.1006322212 -7.540667204e-21)
(100.0553197 0.2459708253 5.88294216e-22)
(100.0193217 0.2178144054 -2.70092227e-21)
(100.0031406 0.1015198018 -1.593758916e-21)
(100.0071396 0.05911390227 -9.556472551e-22)
(100.0388293 0.1529789278 1.513281704e-20)
(100.0060402 0.02790137079 -7.683983354e-21)
(100.0293273 0.08264910662 -1.613665419e-20)
(100.0262944 0.02632147884 1.508949073e-21)
(99.89458366 1.726646192 -1.681315668e-22)
(99.92700787 1.563022076 -4.084773283e-21)
(99.87906479 1.957725463 -7.443534393e-20)
(99.91576095 1.777818597 -7.838158908e-22)
(99.98202929 1.840918253 -5.969011538e-23)
(100.0066248 1.644696079 -4.679443099e-22)
(99.98666437 2.067631298 -1.905287135e-22)
(100.0042619 1.862071185 -3.872770249e-22)
(100.0716403 1.792792723 -1.738042043e-22)
(100.0668969 1.57379232 -2.029650189e-22)
(100.0930447 1.983592608 -9.331529897e-23)
(100.0908088 1.76462357 1.525897917e-21)
(100.1368957 1.593231286 2.005528117e-21)
(100.1043614 1.37626202 3.485130818e-21)
(100.1647717 1.73697522 3.498148671e-21)
(100.1456131 1.528458497 4.825921411e-22)
(100.1611994 1.308381072 -5.955227265e-21)
(100.1145695 1.116503826 -5.584129098e-21)
(100.1876579 1.407755079 -2.00192822e-21)
(100.1605183 1.23008282 -1.987203593e-21)
(100.1518588 1.01487243 -4.885661087e-21)
(100.1009601 0.8585002428 4.524944633e-22)
(100.1694137 1.077733528 -1.32654397e-21)
(100.1452743 0.941585158 5.419991319e-21)
(100.0983244 0.6022350001 -1.282989976e-20)
(100.1556275 0.8175682721 -1.28289029e-20)
(100.220787 0.8898560887 1.300266799e-20)
(100.1367599 0.686516958 -2.639387916e-20)
(100.1172644 0.5722551435 1.143748529e-20)
(100.1636984 0.6140275821 -1.648085354e-20)
(100.0967379 0.4748078173 2.315456876e-20)
(100.0725188 0.4180885767 2.574937949e-20)
(100.0932591 0.2936177994 2.24444072e-20)
(100.2098453 0.4612665301 -2.373782861e-22)
(100.158813 0.5109577689 4.664456988e-20)
(100.0935035 0.4052327895 2.559566184e-21)
(100.0688341 0.1730492466 -7.155721373e-22)
(100.1519716 0.2858342741 3.22886413e-20)
(100.0562022 0.08007636707 -7.496851281e-21)
(100.1169829 0.154371663 -1.712426953e-20)
(100.1018266 0.04897391155 7.683737846e-21)
(99.70702693 3.219998305 5.149326177e-20)
(99.61403667 3.392984563 -4.271901124e-21)
(99.63992722 3.677217244 3.71307447e-21)
(99.68565668 3.478431204 -1.821448081e-19)
(99.98239676 3.414486665 0)
(99.94424442 3.642567519 6.399350003e-22)
(99.99317366 3.899522694 0)
(100.0326321 3.644965777 -3.170618001e-20)
(100.2678928 3.254565588 3.778999476e-22)
(100.2748622 3.51281766 0)
(100.3585542 3.698876231 0)
(100.343317 3.424727103 7.568481508e-20)
(100.452614 2.819704859 8.593067179e-21)
(100.4986241 3.072222848 1.415424391e-21)
(100.5864166 3.188367404 7.726903747e-21)
(100.5318807 2.929451684 1.142170134e-20)
(100.5116472 2.25964288 -5.587696511e-21)
(100.5802024 2.478363863 -1.290090583e-20)
(100.6575307 2.539657892 -4.541983565e-21)
(100.5798971 2.32240172 5.171322527e-21)
(100.5445376 1.872587096 -1.652501369e-20)
(100.4720582 1.69872549 -1.117400309e-20)
(100.6046786 1.897554925 -1.118907168e-20)
(100.5280415 1.730620745 6.034006628e-21)
(100.3909141 1.161115726 -5.071155326e-20)
(100.5185013 1.414448478 -2.658218153e-20)
(100.610992 1.410860331 -7.685889963e-20)
(100.4575925 1.180306087 -3.572363412e-20)
(100.2943845 0.7957939879 -5.899632124e-20)
(100.3971937 0.9766124198 2.323300618e-20)
(100.4586981 0.9574071872 -2.799068597e-20)
(100.3394343 0.8017033942 -2.449891064e-20)
(100.2612026 0.4492894923 1.030828655e-20)
(100.448106 0.6185350604 -2.537969971e-20)
(100.4131072 0.7436566708 -1.864302401e-22)
(100.3084987 0.6626610815 -1.459412631e-20)
(100.1942107 0.2636932321 1.510237077e-20)
(100.326601 0.3796606467 2.696919098e-20)
(100.1576857 0.1216012229 -1.931450323e-21)
(100.2510425 0.2039073843 -3.90832584e-21)
(100.2165079 0.0642692921 0)
(99.37208272 5.258336684 -1.73407412e-20)
(99.17349199 5.452497323 -1.748371611e-20)
(99.27422716 5.869180043 2.100395933e-20)
(99.38084739 5.614349337 1.473054327e-19)
(100.12044 5.51502896 -2.496250533e-20)
(100.0502977 5.811162405 -8.478568513e-20)
(100.2108787 6.12038212 7.359818864e-22)
(100.2645887 5.775735787 7.318537574e-22)
(100.7852712 5.107003027 2.416371751e-19)
(100.8072557 5.431853129 5.542319947e-21)
(100.9990088 5.602973419 7.182543549e-19)
(100.9458967 5.255610544 3.066482469e-19)
(101.143979 4.30826805 -2.611971945e-19)
(101.2290505 4.612251006 -2.411689562e-21)
(101.3958128 4.678961517 4.067593529e-20)
(101.2821499 4.371829979 -1.832381434e-20)
(101.221019 3.350676251 8.378031143e-20)
(101.3375654 3.612297693 4.450892983e-20)
(101.4616532 3.606866297 -3.399931783e-19)
(101.3252553 3.35521533 2.403211666e-19)
(101.2298155 2.647472311 0)
(101.1111275 2.453604912 4.440553547e-20)
(101.3131342 2.617705781 0)
(101.1824401 2.43277907 0)
(100.8799897 1.630197167 2.844186105e-20)
(101.0954041 1.908773137 1.836251765e-20)
(101.1947891 1.809414343 -1.674473657e-20)
(100.9579402 1.573173339 3.571508082e-20)
(100.6575281 1.092890779 -3.284261113e-20)
(100.8273715 1.285847381 -1.46720931e-20)
(100.8872728 1.197190698 -1.482267017e-20)
(100.7071194 1.041014931 -7.086289772e-21)
(100.4985214 0.5441868488 -8.93806184e-21)
(100.7458564 0.6894318171 -1.93454784e-20)
(100.7643971 0.8799720047 -2.539429339e-21)
(100.6256145 0.8414494383 4.792603264e-21)
(100.3707522 0.3165710927 7.778894237e-21)
(100.5412145 0.4175747561 1.185838393e-20)
(100.2991536 0.1447814675 -1.976525836e-21)
(100.4130669 0.2211353466 -3.498479979e-21)
(100.3530499 0.06902924816 -5.050046074e-22)
(98.95603741 8.067475742 -4.630650532e-19)
(98.56596247 8.340499491 -1.405695924e-20)
(98.82718794 8.955171491 3.563612591e-20)
(99.06500194 8.581031496 3.531424525e-20)
(100.7176233 8.214295679 2.169695215e-19)
(100.6047909 8.667856884 1.275872289e-20)
(100.9934101 9.030378807 3.001565144e-19)
(101.052814 8.492956229 1.244491103e-19)
(101.952513 7.163144397 4.682859016e-22)
(102.0418148 7.60418634 -4.496200863e-19)
(102.4029542 7.694039902 -7.778398019e-20)
(102.2514895 7.24122131 -2.768928602e-21)
(102.4165028 5.718599856 -1.418179105e-18)
(102.5964304 6.076479628 2.577200912e-20)
(102.8653498 6.030970461 -1.370082836e-21)
(102.6350357 5.68657061 8.124589576e-20)
(102.3655187 4.296689468 6.485104708e-19)
(102.568423 4.575899282 -1.695883797e-20)
(102.7282475 4.481152383 4.472641257e-19)
(102.5001804 4.222041514 5.687162295e-19)
(102.2139444 3.227614485 4.103167677e-20)
(102.0258589 3.018507705 -3.803380947e-21)
(102.3031448 3.11788806 1.804712857e-20)
(102.1018887 2.932000005 2.21904378e-20)
(101.5497853 1.937546888 -9.3323816e-20)
(101.8617837 2.210502787 -5.92212228e-20)
(101.9376094 2.003259313 -3.329322749e-20)
(101.6155639 1.797538941 -1.721175076e-20)
(101.1423842 1.264417073 1.149998057e-20)
(101.3849783 1.44717129 3.459655524e-20)
(101.4175026 1.2896596 -3.906705326e-21)
(101.1784765 1.154164431 -3.798368068e-21)
(100.7747624 0.5619585758 2.026879235e-21)
(101.0753919 0.6485642693 0)
(101.1775648 0.911530305 -1.32443975e-22)
(101.0214493 0.9119220012 -1.039386554e-20)
(100.5710139 0.31941821 4.454314368e-22)
(100.7699517 0.3859815121 2.026696504e-21)
(100.4559509 0.1439189141 -2.034091963e-21)
(100.5786079 0.1985533714 -2.036475791e-21)
(100.4887946 0.06104083564 -2.054015301e-21)
(98.02037044 12.38839172 -1.006020315e-19)
(97.24963168 12.77423412 7.294796844e-20)
(97.57336338 13.93459414 0)
(98.49195259 13.29708183 0)
(102.3595027 11.9826668 0)
(102.1847372 12.84098622 1.061898317e-20)
(103.0709442 13.19320668 4.964238141e-22)
(103.0815994 12.19788204 -8.910897091e-20)
(104.3272167 9.251257539 8.891818812e-19)
(104.5979378 9.882970462 2.317136328e-19)
(105.2038619 9.733453682 -5.428836298e-19)
(104.8100658 9.128527839 1.284733405e-19)
(104.5229014 6.768665919 -6.803192276e-20)
(104.8766171 7.150231848 -3.98188494e-20)
(105.1875389 6.919170826 0)
(104.7835127 6.581256137 0)
(104.0037886 4.836193133 -4.13020067e-19)
(104.3304356 5.091488522 1.59203838e-19)
(104.483979 4.869032173 6.687831631e-19)
(104.1409038 4.654839383 1.637587039e-19)
(103.516185 3.470856757 -3.531985998e-20)
(103.2355343 3.279367378 0)
(103.5808772 3.273337141 -1.599216269e-21)
(103.2966071 3.112571384 -1.612647266e-20)
(102.3496851 1.995878854 2.706038386e-20)
(102.7638858 2.220711083 -2.709807475e-22)
(102.7720852 1.905498117 1.666522161e-20)
(102.369199 1.770670401 1.240073852e-20)
(101.6988806 1.265089946 -1.635227481e-20)
(102.0115633 1.402817937 -8.365290745e-21)
(101.9843726 1.183976194 -8.366911403e-21)
(101.6936379 1.099315839 1.283406826e-20)
(101.054368 0.4791286987 0)
(101.3944549 0.4856132598 1.365771129e-21)
(101.5905184 0.779894232 -1.130579427e-20)
(101.4420458 0.854923551 2.796295662e-20)
(100.7635573 0.2630076924 -5.14835126e-22)
(100.9737448 0.2748702065 -1.612356366e-21)
(100.6003958 0.1153214798 -2.066727849e-21)
(100.7178799 0.1322071043 -2.348887614e-21)
(100.5975588 0.03934886753 2.619044544e-21)
(92.75101795 21.08979857 -1.855110385e-19)
(94.0187528 20.85077087 -2.569040662e-21)
(93.04356658 22.76556059 -7.81769776e-20)
(94.63703641 22.16520184 -3.49114454e-20)
(106.7259964 19.2117929 3.326678829e-19)
(106.9173993 17.63205055 9.836185217e-20)
(108.4665002 17.32256838 9.821422472e-20)
(107.4794248 20.05861187 -3.178170886e-20)
(109.4013285 18.91788741 6.495120537e-20)
(109.0121239 19.62868465 -3.538500538e-19)
(109.3305517 11.59299017 -2.292943561e-19)
(108.5973923 10.77188488 -8.56651897e-20)
(109.9904133 10.86867026 -2.395812154e-19)
(109.12031 10.2526208 0)
(107.4959277 6.945348653 9.873691749e-20)
(108.1049383 7.266167608 0)
(108.3506837 6.761872437 6.14361225e-20)
(107.7169999 6.535102003 0)
(106.0667877 4.640201203 0)
(106.5318115 4.800122399 -8.485772565e-19)
(106.6028357 4.432334614 -6.594956449e-19)
(106.1402149 4.330159298 -1.905187039e-19)
(104.9942278 3.127241103 1.517350305e-20)
(104.6269459 3.023049187 -1.660774973e-19)
(104.9780725 2.85557411 -4.319927806e-19)
(104.6226692 2.778441801 3.075804526e-20)
(103.1900522 1.724323478 4.430567247e-21)
(103.7090353 1.840067479 -1.004610792e-20)
(103.5826896 1.446749018 -2.633892355e-21)
(103.1194756 1.423167994 -4.684131362e-21)
(102.2548878 1.039280082 4.659621751e-21)
(102.6173742 1.096969496 -2.103882156e-23)
(102.5077873 0.8356516934 -7.47295601e-21)
(102.1837432 0.8287198603 9.449749638e-21)
(101.2904765 0.2888833471 -1.727902648e-22)
(101.6273694 0.202077393 -3.101531376e-22)
(101.9548756 0.4794174025 8.29882096e-22)
(101.8289752 0.5925310241 6.838249438e-21)
(100.9132557 0.1440769756 -3.457023205e-21)
(101.1102151 0.08543562696 -2.44311199e-22)
(100.7038214 0.05726134437 2.564015532e-21)
(100.7997099 0.02420775198 -2.358219423e-21)
(100.6515561 0.004582906247 4.532552695e-22)
(122.3472877 23.25091693 -3.91961962e-19)
(120.6638788 22.14638076 -3.926853905e-19)
(123.0915063 21.4286045 -9.125597571e-21)
(121.4290994 20.70998688 -3.91514024e-19)
(116.3328917 10.1546117 2.287506483e-20)
(114.8200145 9.705665495 3.153160614e-19)
(116.3847995 8.706344073 3.161129733e-19)
(114.957588 8.57904901 3.081383614e-19)
(110.8908217 5.479358601 -3.140948109e-19)
(111.7370224 5.536062245 -7.037764564e-20)
(111.6735771 4.803019519 3.291353119e-20)
(110.8795218 4.86594783 1.090469494e-19)
(108.1420933 3.411100749 4.844127332e-19)
(108.7090504 3.393017685 5.169518918e-19)
(108.6039942 2.933757925 -2.575891963e-19)
(108.0799707 3.016367228 1.806999559e-20)
(106.3679406 2.075814499 -4.314801081e-19)
(105.9476685 2.093799048 2.83477795e-19)
(106.2314399 1.75767944 -5.064302721e-19)
(105.843757 1.806890663 -6.171396285e-22)
(103.9247381 1.076236229 -5.140422819e-21)
(104.5061655 1.034750592 -3.035556329e-20)
(104.1967829 0.6242570013 8.307663074e-21)
(103.7269037 0.7457240259 1.209181343e-21)
(102.7111972 0.5773431677 -2.002840393e-21)
(103.0898579 0.5283140282 1.431211585e-20)
(102.8700444 0.2707336671 5.259026428e-21)
(102.5591612 0.3596701133 1.040505094e-20)
(101.4308413 0.002515551825 -3.288763349e-22)
(101.7318541 -0.1821845088 -1.096285572e-21)
(102.1785605 0.02545736388 -1.116993306e-21)
(102.1136012 0.2015732967 -1.31217684e-21)
(100.9841099 -0.03235554219 1.10855196e-21)
(101.1429985 -0.1663344036 1.36842184e-21)
(100.7375274 -0.02695077639 -4.418874173e-21)
(100.7945582 -0.1166014257 1.689605399e-21)
(100.6261174 -0.04076772253 -2.192769481e-21)
(136.0703935 7.986499787 -1.545056728e-20)
(134.3802399 8.801089895 1.143736945e-18)
(134.9117136 6.583226088 -3.765908528e-20)
(133.5015648 7.433480761 -1.086766998e-18)
(121.4830393 3.553207789 3.64594094e-19)
(119.8711476 4.119169926 3.595588878e-19)
(120.464551 2.270528266 3.602815653e-19)
(119.1789678 2.956256968 3.508064549e-19)
(113.4216123 2.106458627 7.917400363e-20)
(114.2536005 1.743686811 -1.713966828e-19)
(113.7492543 1.058057695 -1.611660253e-19)
(113.0440615 1.473855021 0)
(109.6162829 1.148430919 -7.813371832e-20)
(110.1493037 0.8950709008 5.079550525e-19)
(109.8104798 0.4708335682 3.877567769e-19)
(109.3491812 0.7515536388 2.409675562e-19)
(107.2455418 0.3978302142 2.312339291e-19)
(106.8436719 0.5639570701 6.104594017e-20)
(106.9669412 0.1146729627 4.061673936e-20)
(106.6157831 0.2913050601 2.480725128e-19)
(104.3804014 0.1069357177 8.248341613e-21)
(104.9457722 -0.1132998238 -5.209763687e-20)
(104.4583097 -0.4568521697 -2.588987653e-21)
(104.0421333 -0.1947288174 -1.315317297e-21)
(102.9601451 -0.0767768498 5.98948702e-22)
(103.3152226 -0.2432500217 7.31717871e-21)
(102.98646 -0.4528756898 5.98985035e-21)
(102.7212177 -0.2713012459 1.316711162e-21)
(101.434412 -0.3467671422 5.804771987e-22)
(101.6640118 -0.6254394513 1.033154156e-23)
(102.2007418 -0.5251993842 3.871306453e-22)
(102.214746 -0.3119417413 -5.930230414e-21)
(100.9466781 -0.2462335169 2.10117578e-21)
(101.0480547 -0.4540801251 -2.336745399e-21)
(100.6775716 -0.1283987766 4.174374727e-21)
(100.6833296 -0.2763487877 2.361164539e-21)
(100.5049695 -0.09238538303 2.073225919e-21)
(133.7226852 -8.340118922 5.811655241e-19)
(133.1425555 -7.108632047 -3.380633789e-20)
(132.3383228 -8.657865686 5.135771542e-19)
(131.8595986 -7.483099909 0)
(121.4015627 -4.487075006 4.464896122e-19)
(120.4566823 -3.302434372 -7.602738804e-19)
(119.9382853 -4.994063325 -3.565581818e-19)
(119.2494766 -3.928778748 -3.666680792e-19)
(113.9051443 -2.203540862 2.393676113e-19)
(114.4556504 -2.861721322 3.276644866e-19)
(113.68098 -3.252167743 9.97336443e-19)
(113.2454083 -2.621199198 -1.768527853e-19)
(109.938892 -1.642804922 5.662248556e-19)
(110.3095656 -2.070237953 2.830871352e-19)
(109.8125012 -2.338967714 3.065942654e-21)
(109.4920952 -1.925102919 1.995416454e-20)
(107.3377711 -1.577186784 3.376678934e-19)
(107.0243293 -1.292005357 -3.769756023e-19)
(106.9502977 -1.760538068 5.605067549e-20)
(106.6870677 -1.489919365 1.644058612e-19)
(104.4230564 -1.041587969 2.20190147e-20)
(104.8899319 -1.414798959 9.809823761e-21)
(104.2732466 -1.620618463 6.25582469e-20)
(103.9650856 -1.253131866 1.756169657e-21)
(102.9311698 -0.8424330302 0)
(103.2202079 -1.1075614 -2.125434818e-20)
(102.8080314 -1.230152355 0)
(102.6169088 -0.9763020153 0)
(101.2769701 -0.7249034322 -2.905434814e-21)
(101.4102861 -1.073050264 -7.639668577e-21)
(101.994885 -1.105655086 2.321937348e-21)
(102.0924747 -0.8823863272 -3.796776109e-22)
(100.783882 -0.4768685622 -2.100292384e-21)
(100.8140884 -0.744762265 -1.642356729e-21)
(100.5099586 -0.237607949 2.604906393e-22)
(100.4576324 -0.4382835391 -1.417447262e-21)
(100.280823 -0.1449132384 2.460126522e-22)
(125.065571 -17.35944636 0)
(125.1398915 -16.35920759 4.353570923e-19)
(124.0150096 -17.06933433 0)
(124.0854456 -16.16478104 0)
(117.5570236 -10.38032646 3.87452389e-19)
(117.3219482 -9.180108544 1.385211298e-18)
(116.2117452 -10.24354097 3.75246379e-19)
(116.0901391 -9.22170853 6.555987664e-19)
(112.3700222 -6.030900908 6.853599277e-19)
(112.5760143 -6.756095477 1.143143528e-19)
(111.759417 -6.806860649 5.857125948e-19)
(111.6232067 -6.154354524 6.776002983e-19)
(109.0388546 -4.264424298 -5.315289e-19)
(109.2220271 -4.75373887 1.108841514e-18)
(108.6545392 -4.824700774 -5.321823783e-19)
(108.5245984 -4.378405554 2.120302801e-19)
(106.6241148 -3.435023521 -1.993047931e-19)
(106.435657 -3.08889895 2.099465254e-19)
(106.1814186 -3.486921846 -2.032087312e-19)
(106.0335304 -3.171494709 -2.995821728e-19)
(104.0151055 -2.171002743 4.059666616e-20)
(104.3267082 -2.636710931 0)
(103.6602153 -2.672862573 -2.007296596e-20)
(103.4856979 -2.256736613 2.003433054e-20)
(102.6085266 -1.603094418 -1.426995803e-20)
(102.8015959 -1.933384084 6.318851533e-21)
(102.3471359 -1.950040009 -6.725212736e-22)
(102.2444098 -1.653777502 -1.48041984e-20)
(100.9562747 -1.084396452 -6.429609627e-21)
(100.9851664 -1.476324585 -1.007794071e-21)
(101.5726999 -1.638922838 -1.913569095e-21)
(101.74419 -1.431523415 -5.579351803e-21)
(100.4936794 -0.6983834496 -1.191975343e-21)
(100.4500782 -1.006720321 5.318374728e-22)
(100.2325741 -0.3429434454 -1.439208586e-21)
(100.1224129 -0.5861324267 4.628477804e-22)
(99.95734154 -0.1931149494 2.460164267e-22)
(115.8504755 -20.64974243 -8.310624005e-19)
(116.2113394 -19.9639191 -8.182229826e-19)
(115.121788 -20.09927723 -3.01400396e-19)
(115.48436 -19.49255656 1.903475405e-19)
(112.3303109 -13.34028546 6.29556952e-19)
(112.5606297 -12.42565877 -4.340956114e-19)
(111.313456 -12.83570523 -4.739921406e-19)
(111.5613978 -12.07200773 -3.826508583e-19)
(109.5994331 -8.579283741 4.415093174e-19)
(109.5222385 -9.195223286 -1.04855976e-18)
(108.8140337 -8.987152008 -1.288490578e-18)
(108.9138351 -8.453979086 1.563513258e-19)
(107.2598034 -6.201102045 -2.514123605e-19)
(107.2673904 -6.65252321 1.131905312e-18)
(106.7421508 -6.550351839 4.058569372e-19)
(106.7581435 -6.150848082 -4.305966675e-19)
(105.2922419 -4.844125869 -5.323466607e-19)
(105.2273383 -4.501356328 -1.724289184e-19)
(104.8598167 -4.771894816 -1.793789447e-19)
(104.8169314 -4.464858551 -3.581418228e-19)
(103.22549 -3.109972124 -1.892923963e-20)
(103.3700783 -3.593343878 1.418166986e-21)
(102.6824637 -3.063904124 1.866719016e-20)
(102.0279818 -2.26021952 -3.581674324e-21)
(102.1142074 -2.613036034 5.642816128e-22)
(101.6481218 -2.222443791 -1.935771415e-20)
(100.495162 -1.3875247 4.187718193e-21)
(101.2069261 -1.902013518 -1.376728607e-23)
(100.0895351 -0.888712832 1.933976437e-21)
(99.85504759 -0.4342681698 1.93375711e-21)
(137.0898333 9.538596118 -7.492857717e-19)
(135.411218 10.35575545 4.096244576e-19)
(136.2806844 12.05218183 -3.19811538e-19)
(138.3582924 10.72575579 2.581652487e-18)
(138.0976674 11.69173961 -2.051152995e-18)
(121.3951786 24.87026765 0)
(123.288948 26.2868638 8.173104843e-19)
(124.2958042 24.10187206 0)
(135.1204203 -7.892207214 1.012498753e-18)
(134.5357942 -6.661827946 3.99696938e-19)
(135.9886729 -6.084828181 -2.133066038e-20)
(136.4283058 -7.933889283 2.433085438e-19)
(136.7463699 -7.230896173 1.006520466e-18)
(137.6001274 7.044052903 3.17930019e-19)
(138.9329168 8.03853968 -7.581456426e-19)
(138.7788418 9.003880561 7.81464404e-19)
(126.1557322 -17.61297711 -1.518736071e-21)
(126.2332286 -16.59778805 4.335317854e-19)
(127.3690285 -16.79476549 -1.51739319e-21)
(127.0945727 -18.04269169 1.261105252e-20)
(127.4898914 -17.72739708 5.271329451e-19)
(134.1723078 -9.559409144 9.864386146e-19)
(135.4474159 -9.673503762 1.091121242e-18)
(135.800089 -9.019290552 -1.029166673e-18)
(116.6107964 -21.15947847 5.584720364e-19)
(116.9694179 -20.48538948 5.707120548e-19)
(117.7748319 -20.96352355 1.516754795e-18)
(117.3939096 -21.72158716 -6.222905323e-19)
(126.0072583 -18.64201458 -4.300920019e-19)
(124.9448951 -18.33104555 0)
(116.2050361 -21.87387777 2.540040259e-19)
(115.4564364 -21.2913034 -7.9809069e-19)
(92.50161122 19.65076499 8.060667083e-22)
(91.16423643 21.28226746 2.971811242e-20)
(119.6324592 23.74130334 0)
(118.4811989 25.1032706 0)
(120.020246 26.78248047 -8.104221158e-19)
(105.4329385 19.47540204 1.846689211e-19)
(105.5193184 20.33008244 2.017170078e-19)
(106.5276214 20.38314645 1.374293512e-19)
(144.4149077 28.98412766 0)
(143.3661431 29.33238153 8.509425584e-19)
(143.7386733 30.13755198 0)
(144.7707654 30.04148276 5.510486513e-19)
(124.3699928 40.78383597 3.904988278e-20)
(122.7260995 42.49725002 1.007325588e-18)
(124.5785946 44.55814552 1.959142761e-18)
(126.3801661 42.27333307 -1.380063478e-19)
(132.8497778 9.521946136 1.255684649e-19)
(133.5831276 11.00338388 1.163062117e-18)
(122.3078919 4.931220927 0)
(120.6589957 5.538774868 0)
(121.2292925 7.007495032 -3.893897307e-19)
(123.2842464 6.664671364 -8.688101495e-19)
(116.1056325 11.50136342 -5.894672242e-19)
(117.9012398 12.18153022 8.19792346e-21)
(118.0456029 10.38411614 5.730989945e-20)
(148.0102827 -2.363341493 1.025047284e-18)
(147.7991241 -1.838668488 -2.480171367e-21)
(148.2445726 -1.601011859 0)
(148.4696399 -2.116006779 1.101472096e-18)
(150.0817267 11.45790116 7.027475687e-19)
(149.5666351 10.94250032 -4.239909036e-19)
(150.5733623 10.96342078 2.741857737e-19)
(150.0813497 10.47169579 4.241157438e-19)
(132.5545312 -5.921762239 -3.980017231e-20)
(133.8365888 -5.446609821 -3.384781807e-20)
(122.8321336 -3.817855836 4.359911801e-19)
(121.8774484 -2.596503198 -7.944554787e-19)
(123.2246146 -1.724327148 -8.054386075e-19)
(124.5333974 -3.029973036 -4.086957103e-19)
(124.2537862 4.263190928 3.23825589e-19)
(122.9949819 2.722416644 0)
(135.7230462 -19.27292174 0)
(135.9385176 -18.86760898 0)
(136.1867306 -18.97826049 -4.188704597e-19)
(136.0217185 -19.35068429 0)
(142.6045454 -12.60904942 -5.068161196e-19)
(142.2242522 -12.68011685 2.417252174e-18)
(142.5749688 -13.11542488 -9.893360786e-19)
(142.2054181 -13.14342226 1.696935076e-20)
(125.160691 -15.41477885 4.35308333e-19)
(126.2530419 -15.56261052 -4.54075619e-19)
(118.9765576 -10.4114737 -6.478365094e-19)
(118.7274589 -9.18370074 3.766502235e-19)
(120.1890413 -9.064940739 -7.378931095e-19)
(120.58349 -10.48498184 -3.454745828e-19)
(123.8944508 -5.213731193 -3.248563162e-20)
(122.1634813 -5.755027805 8.364320889e-19)
(123.4180093 -25.27840421 -3.457921489e-19)
(123.7004408 -24.80160329 0)
(124.1494563 -25.07696247 0)
(123.8105524 -25.56674072 9.088980552e-20)
(129.3858841 -23.08157836 0)
(128.8935116 -22.87467515 -4.151505208e-19)
(128.6244207 -23.43480747 -5.184619598e-19)
(128.9350021 -23.74465836 0)
(129.1883781 -23.59309461 0)
(107.2221007 -31.08097139 -2.679413454e-19)
(108.471747 -31.17294433 -8.589000887e-20)
(109.1314181 -31.09706994 -3.414338479e-19)
(108.4700882 -31.17763403 -3.097988935e-19)
(112.1593352 -26.13077302 -1.722128384e-22)
(112.62343 -25.81785907 9.66242324e-20)
(112.8432938 -26.22367132 -1.950602537e-20)
(112.4659855 -26.53126885 -4.069955249e-19)
(117.7125323 -26.26876262 2.740158054e-19)
(117.3219511 -25.92685663 -3.828706117e-21)
(117.3603435 -26.66394639 -8.055781593e-19)
(117.0088582 -26.31272216 -1.268618356e-20)
(149.5246431 11.92160665 -5.757641436e-19)
(150.0403229 12.46194385 2.779088086e-19)
(150.5822697 11.9776789 5.6845481e-19)
(144.3648982 27.85554488 0)
(145.5331841 28.76097174 5.576898859e-19)
(145.2712303 27.81643815 5.557370618e-19)
(131.7912596 19.20092712 0)
(131.6002508 17.19200538 5.192530548e-19)
(133.6478958 16.95077461 -3.340550993e-20)
(134.5235748 18.72523872 0)
(133.8439162 19.56126407 6.745370297e-19)
(142.6323156 27.81862753 1.268794501e-18)
(144.8251901 27.05763792 7.378757142e-19)
(143.98293 25.67323937 1.752683227e-19)
(142.2542836 26.02892798 0)
(149.0062849 11.40177415 -1.680359441e-18)
(148.4194221 11.84777169 -8.347513428e-19)
(148.9411576 12.36982576 -1.397495454e-18)
(142.6129663 -12.14401459 -1.990241883e-18)
(142.9943831 -12.05852672 -1.007153104e-20)
(142.9768789 -12.56561205 -1.592781378e-18)
(147.5597812 -2.584291048 5.021229617e-19)
(148.2154822 -2.87315443 -7.714168724e-20)
(147.7584072 -3.114396641 -9.520794422e-19)
(136.961426 -0.007831472886 -5.435618007e-21)
(136.3332494 -0.5846126587 -3.45354119e-19)
(137.6250027 -0.6287643881 -1.269011014e-21)
(136.9250951 -1.06359383 -5.494843441e-19)
(147.3549543 -2.073129373 -5.068257276e-19)
(147.1142504 -2.803429338 4.987861796e-19)
(146.9022011 -2.313402351 -4.924286036e-19)
(142.2345414 -12.20526192 9.125655656e-19)
(142.2267917 -11.73700481 -1.938732265e-18)
(142.6169656 -11.66618629 -4.836945338e-19)
(149.0674615 10.44771395 7.925538568e-21)
(148.4941579 10.86735027 2.918011347e-19)
(147.1194195 -1.583744644 -6.580459013e-21)
(147.5756466 -1.329544082 5.036616856e-19)
(136.4913517 0.7346765376 3.374243791e-19)
(137.1754585 1.060468142 -9.899612811e-21)
(137.7720519 0.5053078449 5.434730902e-19)
(129.650926 -22.51239114 0)
(130.1505405 -22.70567601 -4.462051578e-19)
(129.6997799 -23.39145565 0)
(129.9542551 -23.23134594 0)
(135.3649856 -19.21813029 0)
(135.5823239 -19.64021384 0)
(135.3201569 -19.56120082 0)
(130.9230745 -13.73690756 -1.130924364e-18)
(129.6580874 -13.75100757 1.642107541e-20)
(129.7554589 -14.86753885 5.120772127e-19)
(130.7976366 -15.22037678 -1.188582109e-18)
(131.2186864 -14.7608109 6.190325455e-19)
(135.4754306 -18.57406536 0)
(135.0783887 -19.45354894 0)
(134.6404947 -19.16130638 1.25948784e-19)
(134.7917182 -18.46150081 4.964581222e-19)
(129.1610292 -22.30310495 -4.146035144e-19)
(129.3407084 -21.72006275 4.18384462e-19)
(129.9164842 -21.9318855 4.464774407e-19)
(141.8511624 -12.73009227 2.850543096e-18)
(141.8493656 -12.27019683 9.485028358e-19)
(136.2226601 -18.61724332 -5.571166826e-19)
(135.6160336 -17.85744035 5.208038109e-19)
(136.4113262 -18.10826957 0)
(136.2295278 -17.78011975 5.496393683e-19)
(130.7526274 -12.58415439 -6.439110836e-19)
(132.059583 -12.4794894 -1.946447679e-18)
(132.0228176 -14.043631 -7.947330726e-19)
(132.4368918 -13.5349897 -7.673621999e-19)
(118.0179897 -25.87194887 4.171666875e-21)
(118.4181697 -26.20587768 5.423878716e-19)
(118.0678829 -26.61069519 2.671500756e-19)
(122.9753677 -24.99709483 -6.781775637e-19)
(123.0788421 -25.75743097 -8.587144083e-20)
(122.690654 -25.4612745 -3.456835728e-19)
(106.1908851 -31.03433782 -1.800742067e-19)
(107.3673701 -31.11994228 0)
(104.45077 -30.80818216 -9.536806693e-20)
(105.6672933 -30.93195226 1.576198109e-19)
(103.9132849 -30.56365416 -2.443406728e-18)
(111.7818713 -26.41145353 -1.926859959e-19)
(108.968088 -31.06307074 0)
(147.7107773 50.94041516 -1.918703854e-18)
(146.4619063 53.04260677 3.076376833e-18)
(145.9959889 53.68761017 -1.088264755e-17)
(146.7206063 55.310169 2.936549563e-18)
(121.9369168 62.05639259 1.103823338e-20)
(119.4516152 63.65183677 1.36013953e-20)
(121.3568867 66.96811442 -7.156306177e-19)
(124.1751679 64.47231718 -7.097931578e-19)
(122.6695859 -26.73617882 5.073032195e-18)
(123.9314932 -26.73338166 5.124266195e-18)
(122.779756 -26.61799014 4.167694403e-18)
(116.7463473 -25.5795069 3.553426256e-18)
(116.5416405 -19.32740529 2.843052277e-19)
(117.3007172 -19.76495464 -5.723300585e-21)
(113.444782 -13.79338398 7.712316071e-19)
(113.669378 -12.86071013 -3.217975389e-19)
(114.8745872 -13.23363757 1.139183436e-18)
(114.6635792 -14.3641506 2.412520399e-19)
(119.1885343 -11.78212223 -5.613910619e-19)
(117.6642165 -11.55276515 -9.376644159e-19)
(105.3893516 -29.98419296 3.90351491e-20)
(107.473563 -30.33339308 2.064222098e-19)
(105.2848618 -29.85971572 0)
(98.11766369 -28.09665934 -4.187860225e-18)
(114.3187181 -29.33177026 -4.10907551e-19)
(114.8173846 -28.94113488 -1.732773625e-19)
(115.0379398 -29.33863997 -5.462965663e-19)
(114.3654618 -29.65423006 -2.761883954e-19)
(114.5980546 -29.71202686 -1.088209303e-18)
(117.2823427 -29.08513112 4.619690269e-19)
(117.1151358 -28.91208986 -6.728345592e-19)
(117.021483 -29.25592785 -6.786022857e-19)
(116.9503 -29.11151949 -4.972893602e-21)
(122.6853596 39.03158827 -9.698421096e-19)
(125.8143095 38.79147285 -1.109848585e-19)
(124.0906382 37.5320292 6.195518142e-19)
(142.7835026 30.10200511 8.501760879e-19)
(140.8037635 28.03708382 6.747108289e-19)
(141.0409334 29.9144761 5.950930979e-19)
(129.6806351 19.17940633 -4.634950573e-19)
(129.5974705 21.19291175 -7.14441478e-19)
(132.418583 21.13228062 -6.748885104e-19)
(131.5762796 21.83736992 0)
(117.5980826 -28.83726394 1.496249849e-18)
(117.6668421 -29.05610864 9.273463879e-19)
(117.374768 -29.23153773 4.60802433e-19)
(120.0732589 -28.69454473 0)
(120.0124171 -28.54660893 0)
(119.7156816 -28.89430938 0)
(119.7437261 -28.7577195 -2.519081783e-19)
(121.3328496 -19.975346 3.439888465e-19)
(120.4030376 -19.57522174 -5.146742746e-22)
(121.0311313 -20.84331391 7.130263151e-19)