/*--------------------------------*- C++ -*----------------------------------*\
| =========                 |                                                 |
| \\      /  F ield         | OpenFOAM: The Open Source CFD Toolbox           |
|  \\    /   O peration     | Version:  v2012                                 |
|   \\  /    A nd           | Website:  www.openfoam.com                      |
|    \\/     M anipulation  |                                                 |
\*---------------------------------------------------------------------------*/
FoamFile
{
    version     2.0;
    format      ascii;
    class       surfaceVectorField;
    location    "0.5";
    object      Uf;
}
// * * * * * * * * * * * * * * * * * * * * * * * * * * * * * * * * * * * * * //

dimensions      [0 1 -1 0 0 0 0];


internalField   nonuniform List<vector> 
5975
(
(104.1685658 -28.77596472 -4.172395516e-19)
(103.4831368 -29.03991644 -1.694693824e-19)
(103.4679951 -28.41714988 -3.931111658e-19)
(104.1724786 -28.26580856 -4.997906317e-22)
(103.2706387 -28.88884771 -1.660064582e-19)
(107.4495586 -19.30037388 -3.120290257e-19)
(108.1487905 -18.77702168 -2.353716695e-20)
(106.5546389 -17.84029482 2.194504091e-19)
(107.4090811 -17.43029714 -1.782826922e-19)
(106.8749459 -18.99274284 -3.432859265e-20)
(108.196659 -18.10688674 -3.534179018e-19)
(107.628597 -12.58631245 -1.231043159e-19)
(107.2025688 -13.17357588 -1.18305666e-19)
(106.5717972 -12.47514921 -3.202861081e-20)
(106.9395535 -12.00605984 -1.117013533e-19)
(106.0420257 -8.660134698 5.737520821e-20)
(105.8871003 -9.12279047 1.306294662e-19)
(105.3487249 -8.724868586 1.571579702e-19)
(105.4907312 -8.338840983 8.359911008e-20)
(104.3324964 -6.070120009 1.381303448e-20)
(104.2944346 -6.412814361 -1.319762443e-19)
(103.8709995 -6.189896563 1.258433754e-19)
(103.9150223 -5.893317037 5.172868907e-21)
(102.8763603 -4.619237715 -5.159832359e-22)
(102.8765179 -4.372320013 3.156398345e-20)
(102.5560119 -4.491719387 8.096699236e-20)
(102.5689476 -4.272078683 1.912208093e-20)
(101.6434099 -3.097292512 -1.473155149e-20)
(101.6492057 -3.457902625 1.027989167e-20)
(101.2011762 -3.283393905 -3.127237403e-20)
(101.2441957 -2.98494034 -3.175707392e-20)
(100.9182519 -2.291311187 2.423076968e-22)
(100.906586 -2.570718551 0)
(100.5759291 -2.441343289 -1.062953219e-20)
(100.6144927 -2.204930294 0)
(99.77548516 -1.372722072 5.67769591e-21)
(99.66594303 -1.716720066 -9.23319353e-21)
(100.0884034 -1.963362754 0)
(100.29984 -1.898125238 0)
(99.49580203 -0.8834017681 6.721889299e-21)
(99.35355561 -1.167262698 1.389596034e-20)
(99.33366484 -0.4323415947 -2.340850287e-21)
(99.15900216 -0.6824108598 1.044436361e-21)
(99.05909289 -0.2248844543 6.026889458e-21)
(96.87768289 -19.18623199 -4.10928127e-21)
(95.93694388 -18.72316502 3.887072234e-20)
(96.8260703 -17.87661929 5.458472533e-21)
(97.43656276 -18.42985337 5.459727566e-21)
(95.95650318 -18.24370011 -1.514466645e-19)
(102.0013084 -15.41826573 9.119571673e-20)
(102.8166387 -15.42520254 1.698252915e-19)
(101.9844204 -14.47998833 2.180062919e-20)
(102.6067153 -14.52443451 5.147427798e-20)
(103.8680295 -11.64334094 -1.054868737e-19)
(103.4373912 -11.88191714 -7.419526589e-20)
(103.1388465 -11.25165995 -1.56140595e-20)
(103.4844005 -11.06511047 -2.56876744e-20)
(103.4459081 -8.586885127 7.402889773e-21)
(103.2325609 -8.862118378 -5.49688788e-20)
(102.8833725 -8.453868737 -5.510675629e-20)
(103.0622492 -8.222190501 -1.065751371e-19)
(102.5354222 -6.328856258 1.715831676e-19)
(102.4345274 -6.569831574 2.70669734e-19)
(102.1182758 -6.31378741 5.195803659e-20)
(102.2097827 -6.103761993 5.312174612e-20)
(101.5444203 -4.912933955 -5.574263404e-20)
(101.5953457 -4.71346406 -4.195899995e-20)
(101.2812927 -4.748254375 -5.388107424e-20)
(101.3341976 -4.576044916 2.812820793e-20)
(100.747256 -3.414926737 -4.368935384e-20)
(100.6741402 -3.733321591 -2.262325827e-20)
(100.2909218 -3.496212927 -4.082753503e-20)
(100.3894809 -3.244892181 -1.696023117e-20)
(100.2198563 -2.556465129 -2.72964653e-20)
(100.149577 -2.812840339 9.928622994e-21)
(99.85648866 -2.640295969 -2.897862824e-20)
(99.93371648 -2.424592802 -1.5031506e-20)
(99.2531971 -1.503340595 -6.516873329e-22)
(99.09725691 -1.824865494 -2.64536216e-20)
(99.46130265 -2.133315339 -7.008907111e-21)
(99.68243891 -2.086620117 -4.055569465e-21)
(99.02576555 -0.9679324995 9.098737759e-21)
(98.84955768 -1.246953466 1.715419704e-20)
(98.89225778 -0.4740285332 9.087561781e-21)
(98.69323905 -0.7310209144 3.551158573e-22)
(98.61205359 -0.2409196266 2.211480773e-21)
(98.04970519 -12.34087763 2.11043871e-20)
(97.71935343 -11.56791678 -4.411355269e-20)
(98.32553062 -11.39918534 -2.466329925e-20)
(98.55449166 -11.85894268 -3.114537186e-20)
(100.4648091 -11.83839223 1.917858536e-20)
(100.0936355 -11.5851742 1.225812713e-20)
(100.1800495 -11.08594293 -1.659264793e-21)
(100.4681637 -11.26619725 -1.023822673e-20)
(101.4274815 -9.937865105 1.937527593e-20)
(101.1350438 -9.960259863 3.544183433e-21)
(100.9969544 -9.49960743 -5.506469778e-20)
(101.2301588 -9.47270746 1.133746502e-20)
(101.4282004 -7.884908443 4.383121316e-20)
(101.2403586 -8.012596554 3.548626552e-20)
(101.0180978 -7.661024318 -7.005765796e-20)
(101.1740683 -7.548967474 0)
(100.9712925 -6.128070109 -7.065509015e-22)
(100.8559609 -6.277140922 8.869229912e-20)
(100.6258882 -6.02952307 2.872458269e-20)
(100.7270537 -5.897973779 4.145387446e-20)
(100.3183213 -4.890157963 -1.211867686e-20)
(100.3930741 -4.747455118 1.375659654e-22)
(100.1111878 -4.716935557 -1.177924977e-20)
(100.1845727 -4.588060584 -1.026839969e-20)
(99.84318325 -3.532304407 3.282825496e-21)
(99.7245392 -3.787101783 6.135803543e-21)
(99.41246499 -3.530013515 0)
(99.54229259 -3.326415969 2.658075964e-21)
(99.49677038 -2.69179866 -1.235726937e-20)
(99.38845876 -2.910490434 2.655720852e-21)
(99.13624652 -2.713904108 4.184837963e-21)
(99.23957945 -2.525129617 0)
(98.70309745 -1.568163945 -7.943850059e-21)
(98.51790565 -1.858925047 -1.145093195e-20)
(98.82788007 -2.199044838 -8.584805368e-22)
(99.04648497 -2.175092577 -1.144983864e-20)
(98.52548014 -1.012871342 8.82845522e-21)
(98.32780098 -1.280444118 1.76066984e-20)
(98.42030606 -0.4970750649 -5.901675594e-21)
(98.20703167 -0.7527560276 -1.000705043e-20)
(98.14333545 -0.248120495 -6.260583533e-21)
(98.94223455 -9.275790114 7.006022172e-22)
(98.81980217 -8.836954456 -4.206376466e-20)
(99.0984045 -8.730402008 2.528872713e-20)
(99.1169593 -8.990036185 1.535876414e-20)
(99.66042904 -9.210065824 -3.199096715e-20)
(99.53422615 -8.98984766 0)
(99.55300126 -8.695147197 0)
(99.65460556 -8.861558218 0)
(100.0168154 -8.263944747 7.564367303e-20)
(99.86749086 -8.204844753 -6.652672591e-20)
(99.7706376 -7.885415772 8.010126513e-20)
(99.89372633 -7.924811431 7.57078585e-20)
(99.98820032 -6.955280015 8.887252894e-20)
(99.85682404 -6.997107351 -2.752206929e-20)
(99.7026583 -6.719110994 1.359855484e-19)
(99.81200043 -6.677623144 -6.88997263e-21)
(99.70761678 -5.668654038 -1.913293314e-21)
(99.60856136 -5.750464622 -8.815338163e-20)
(99.43848814 -5.534478749 1.364305237e-20)
(99.52574031 -5.459100455 -6.666646476e-21)
(99.26256487 -4.648882577 0)
(99.34143182 -4.556150601 0)
(99.10395753 -4.485605955 0)
(99.17936178 -4.396115295 0)
(99.00477232 -3.49503663 -1.447937445e-20)
(98.86720468 -3.685491502 -1.446553604e-20)
(98.61886767 -3.432378146 5.356902826e-21)
(98.75788406 -3.272703813 -4.032937714e-20)
(98.79061513 -2.709688928 2.62146059e-20)
(98.66349906 -2.887959105 -3.685275173e-21)
(98.44968233 -2.683431785 2.509277748e-21)
(98.56657718 -2.524162316 1.242966531e-20)
(98.15053943 -1.575690917 1.447573912e-20)
(97.95158903 -1.833204443 2.386881712e-20)
(98.21330327 -2.178262144 2.951996063e-20)
(98.42124702 -2.183300019 -1.239162159e-20)
(98.01640595 -1.023099684 -1.840822918e-21)
(97.80940763 -1.274398903 -8.088522358e-21)
(97.93609486 -0.503099783 -1.035397618e-20)
(97.71806502 -0.7509189497 -1.15377039e-20)
(97.66893789 -0.2477093569 1.17390142e-21)
(99.43304319 -7.409242466 6.677445491e-20)
(99.42993744 -7.149825701 -1.445922939e-19)
(99.50735544 -7.047061092 1.196483142e-19)
(99.45097644 -7.224861923 7.764584925e-20)
(99.32046957 -7.403443649 3.876058781e-23)
(99.30817164 -7.238698223 -8.162162757e-21)
(99.25903788 -7.040339581 4.488874563e-20)
(99.26767383 -7.171178698 -5.991545118e-22)
(99.18858269 -6.869146615 -7.300483419e-20)
(99.13097666 -6.795114603 -6.897782371e-21)
(99.0337714 -6.568557098 -3.480245528e-21)
(99.08150452 -6.624483501 -1.206487287e-20)
(98.99047066 -6.031652902 -7.960681471e-20)
(98.91661609 -6.02790204 3.442144855e-20)
(98.79279658 -5.815011653 3.42385429e-20)
(98.85561135 -5.812260111 5.055033808e-20)
(98.73187021 -5.115654044 -8.767709432e-22)
(98.65985146 -5.154079109 7.507168955e-21)
(98.52765832 -4.973923338 -4.187112056e-22)
(98.59241353 -4.936626812 -4.186224845e-22)
(98.39902992 -4.300796198 0)
(98.46853472 -4.243039228 0)
(98.27507652 -4.153907448 0)
(98.34262998 -4.094831745 0)
(98.25765011 -3.347131125 1.973706924e-20)
(98.11962352 -3.481994088 0)
(97.91975253 -3.243381557 0)
(98.05432498 -3.122278938 0)
(98.12968243 -2.637666709 -1.955077957e-20)
(97.99785016 -2.778026421 0)
(97.8168981 -2.575361574 0)
(97.93689062 -2.445046051 0)
(97.61573293 -1.538565024 -1.886627593e-21)
(97.41511822 -1.761981309 1.852398774e-20)
(97.63622652 -2.095999329 1.232384001e-20)
(97.82819795 -2.127071054 1.23441935e-20)
(97.51599736 -1.004965116 -1.850691287e-20)
(97.30920819 -1.23615996 -1.733347461e-20)
(97.45532997 -0.4948287825 2.024455593e-23)
(97.24003514 -0.730266827 -1.170001074e-21)
(97.20245146 -0.2415546598 1.173812394e-21)
(99.65139871 -6.121764979 -4.305401573e-20)
(99.70837561 -5.944896024 -2.708477129e-20)
(99.68022018 -5.855490673 -5.229603487e-20)
(99.58988883 -5.983374709 1.543366602e-20)
(99.10124238 -6.102337139 -1.385210071e-20)
(99.14518477 -5.978722523 1.340927909e-20)
(99.05499568 -5.832298169 8.466913493e-21)
(99.01190407 -5.935826181 1.693615296e-20)
(98.65170323 -5.767280126 -7.526368694e-20)
(98.65109864 -5.697116103 -2.293409264e-20)
(98.54685328 -5.530317615 -7.056285929e-20)
(98.54533124 -5.586637547 -3.803019635e-20)
(98.29379073 -5.210935095 1.374819959e-20)
(98.26397524 -5.188714388 -1.033495107e-21)
(98.15427848 -5.024793845 1.655535684e-23)
(98.17982429 -5.040051204 -1.565155188e-23)
(97.99458901 -4.552178896 0)
(97.95011082 -4.564760173 0)
(97.84025607 -4.414797715 0)
(97.88135271 -4.400446695 0)
(97.70535758 -3.90398172 0)
(97.76066219 -3.871516238 0)
(97.60455766 -3.774793391 0)
(97.65890201 -3.737785691 0)
(97.6062005 -3.126350802 0)
(97.48055814 -3.218341232 0)
(97.31639487 -3.000196395 0)
(97.43735633 -2.909823271 0)
(97.52780879 -2.500515325 0)
(97.40175548 -2.608101114 0)
(97.24856478 -2.416414986 0)
(97.36320042 -2.310826711 0)
(97.11074737 -1.467487591 0)
(96.91677146 -1.659427485 0)
(97.10698328 -1.972822479 0)
(97.2801743 -2.023143434 0)
(97.03621926 -0.9638623738 0)
(96.83610321 -1.174086504 0)
(96.99034504 -0.4765413515 0)
(96.78340715 -0.6956974575 0)
(96.75443844 -0.2308730544 0)
(99.73582332 -5.150834894 -7.328868e-21)
(99.8180557 -5.021182324 -1.879362197e-20)
(99.74945366 -4.942594237 -7.964280205e-21)
(99.63593544 -5.041139035 -7.97128028e-21)
(98.93735279 -5.122532811 4.428298848e-21)
(99.01771925 -5.027572152 2.061248858e-21)
(98.90598114 -4.914298973 5.167291511e-21)
(98.82863283 -4.996727603 -2.854667051e-21)
(98.28762636 -4.89549195 0)
(98.32603499 -4.833481105 9.521125158e-22)
(98.21655413 -4.705769267 0)
(98.18032084 -4.757831933 0)
(97.79838808 -4.507358399 0)
(97.80205015 -4.478310272 0)
(97.69719568 -4.347817569 0)
(97.69355895 -4.370601232 0)
(97.43520666 -4.01802493 0)
(97.41493206 -4.016267581 0)
(97.31705726 -3.891754577 0)
(97.33711257 -3.8905068 0)
(97.15031002 -3.500168361 0)
(97.19028296 -3.483412325 0)
(97.06333974 -3.387642286 0)
(97.10390188 -3.365050191 0)
(97.04930068 -2.868395639 0)
(96.94247985 -2.929697584 0)
(96.80355611 -2.733946536 0)
(96.90647139 -2.668085638 0)
(96.99292572 -2.325664726 0)
(96.87898209 -2.407040353 0)
(96.74721431 -2.23065297 0)
(96.85150384 -2.145463701 0)
(96.6430915 -1.374461107 0)
(96.46247623 -1.539237445 0)
(96.62992229 -1.827721002 0)
(96.78406219 -1.888405302 0)
(96.58489173 -0.9072202555 0)
(96.39717767 -1.097266524 0)
(96.54920976 -0.4504563372 0)
(96.35434703 -0.6517890575 0)
(96.33128025 -0.2167891115 0)
(99.78751322 -4.382848785 0)
(99.87967318 -4.285374525 0)
(99.79722708 -4.2153765 0)
(99.66950182 -4.295714008 0)
(98.83091118 -4.355853692 0)
(98.93617504 -4.279418164 0)
(98.80913473 -4.188954542 0)
(98.70881037 -4.256238834 0)
(98.03490694 -4.190772281 0)
(98.09983828 -4.136858961 0)
(97.98300272 -4.035194974 0)
(97.92243252 -4.081612197 0)
(97.43481001 -3.905565296 0)
(97.46337334 -3.875194763 0)
(97.3589569 -3.769530829 0)
(97.33306979 -3.794456828 0)
(97.0045088 -3.532915069 0)
(97.00435129 -3.523809886 0)
(96.9125012 -3.420100249 0)
(96.91466565 -3.425875003 0)
(96.70356865 -3.115350988 0)
(96.72867913 -3.107803897 0)
(96.62475825 -3.017893714 0)
(96.65171448 -3.004737761 0)
(96.57744216 -2.599298572 0)
(96.49216282 -2.640543838 0)
(96.36945878 -2.466382903 0)
(96.45303278 -2.419131268 0)
(96.52349864 -2.133125809 0)
(96.42481694 -2.194504596 0)
(96.30873756 -2.034880251 0)
(96.40008963 -1.9658767 0)
(96.21646246 -1.269904612 0)
(96.05325695 -1.411502376 0)
(96.20423266 -1.673552942 0)
(96.34057015 -1.737492738 0)
(96.16717607 -0.842047376 0)
(95.99524906 -1.012787422 0)
(96.13727951 -0.4191925072 0)
(95.9571393 -0.6028992004 0)
(95.93749128 -0.2009483901 0)
(99.81737823 -3.762928853 -1.641666984e-35)
(99.91476429 -3.687874549 1.576990971e-36)
(99.8215703 -3.626586336 -3.185850057e-35)
(99.68607339 -3.692336613 -1.641859445e-35)
(98.75096619 -3.736668759 0)
(98.87263051 -3.674361435 0)
(98.73353325 -3.600194932 0)
(98.61751907 -3.655805443 0)
(97.84736344 -3.610205569 0)
(97.93100202 -3.563825555 0)
(97.80776364 -3.481068933 0)
(97.72972162 -3.521675585 0)
(97.15933197 -3.392711825 0)
(97.20657683 -3.363628234 0)
(97.10076827 -3.276799453 0)
(97.05781211 -3.301293129 0)
(96.66694687 -3.102131675 0)
(96.68317659 -3.0896739 0)
(96.59400245 -3.002799092 0)
(96.58127526 -3.012030279 0)
(96.34107556 -2.761947449 0)
(96.35251728 -2.759998142 0)
(96.26730203 -2.678151868 0)
(96.28145259 -2.671244465 0)
(96.17782107 -2.336673088 0)
(96.11444483 -2.365011394 0)
(96.00112899 -2.211103179 0)
(96.06597552 -2.176932393 0)
(96.11390977 -1.937057885 0)
(96.0316549 -1.983767061 0)
(95.92673883 -1.840797189 0)
(96.00393384 -1.784533906 0)
(95.83113462 -1.161401648 0)
(95.68728022 -1.283395823 0)
(95.82683916 -1.51923383 0)
(95.94688772 -1.582692673 0)
(95.78494458 -0.7731462487 0)
(95.63050118 -0.926039787 0)
(95.75745228 -0.3857731073 0)
(95.59324012 -0.5522756647 0)
(95.5750754 -0.1844733943 0)
(99.82831808 -3.254286978 -1.367297255e-35)
(99.92894688 -3.194688333 0)
(99.82895189 -3.141157795 0)
(99.6884677 -3.195363128 0)
(98.68585499 -3.227450363 0)
(98.81926507 -3.176067348 0)
(98.67128418 -3.114207433 0)
(98.54389213 -3.160554262 0)
(97.70238016 -3.126523283 0)
(97.79962841 -3.086819423 0)
(97.67108898 -3.018325791 0)
(97.58011477 -3.053505408 0)
(96.94463065 -2.955475037 0)
(97.00613358 -2.928790917 0)
(96.89825762 -2.856571711 0)
(96.84203702 -2.87942007 0)
(96.39763863 -2.723970568 0)
(96.4271656 -2.71041063 0)
(96.33881341 -2.637177923 0)
(96.31379736 -2.647781252 0)
(96.04435563 -2.443633171 0)
(96.04395574 -2.445160338 0)
(95.97343347 -2.371705883 0)
(95.97659931 -2.36855193 0)
(95.8380846 -2.090272176 0)
(95.79528679 -2.109458489 0)
(95.6875779 -1.974537077 0)
(95.73477417 -1.949233782 0)
(95.75726126 -1.746768346 0)
(95.69138227 -1.782840492 0)
(95.59421501 -1.655664217 0)
(95.65716626 -1.609266579 0)
(95.48537135 -1.054237967 0)
(95.3614739 -1.159836035 0)
(95.49343613 -1.370741326 0)
(95.59895088 -1.431383113 0)
(95.43805895 -0.7041813886 0)
(95.30165842 -0.8408919575 0)
(95.41046104 -0.3520686147 0)
(95.26248381 -0.5022743562 0)
(95.24434253 -0.1681414036 0)
(99.82711557 -2.830204554 -2.034915382e-35)
(99.92980231 -2.781970479 -8.295480454e-37)
(99.82546813 -2.735207504 -2.034915382e-35)
(99.68170909 -2.780216532 -2.034681314e-35)
(98.63083287 -2.803091102 0)
(98.77292283 -2.760310413 0)
(98.61831505 -2.708100095 0)
(98.48238634 -2.746983081 0)
(97.58658645 -2.720064126 0)
(97.69404 -2.686128768 0)
(97.561154 -2.628730783 0)
(97.46035922 -2.659052218 0)
(96.77321645 -2.582062134 0)
(96.84578092 -2.558152595 0)
(96.73567809 -2.497487284 0)
(96.66900887 -2.518187535 0)
(96.17914388 -2.39407062 0)
(96.21949357 -2.380653726 0)
(96.13093025 -2.318550129 0)
(96.09576373 -2.329322172 0)
(95.79858083 -2.160445013 0)
(95.78803236 -2.163807004 0)
(95.72902753 -2.098598904 0)
(95.72263538 -2.097625778 0)
(95.54839472 -1.864154745 0)
(95.52421663 -1.877085388 0)
(95.41960052 -1.759261729 0)
(95.45055869 -1.739975141 0)
(95.44668016 -1.567818869 0)
(95.39642364 -1.596198202 0)
(95.30445825 -1.483632638 0)
(95.35371762 -1.444793222 0)
(95.17635128 -0.951930539 0)
(95.07211704 -1.043943458 0)
(95.19925721 -1.231762063 0)
(95.29200672 -1.288145852 0)
(95.12506628 -0.6376666746 0)
(95.00643929 -0.7599122084 0)
(95.09561515 -0.3193753393 0)
(94.96349759 -0.4544900463 0)
(94.94432169 -0.1524781768 0)
(99.81813744 -2.473061902 1.709853124e-35)
(99.92214853 -2.433543419 0)
(99.81503767 -2.392693043 0)
(99.66915048 -2.430244005 0)
(98.58322992 -2.446136013 0)
(98.7318968 -2.410289251 0)
(98.57227805 -2.365876222 0)
(98.42977158 -2.398631837 0)
(97.49169128 -2.376282207 0)
(97.60701531 -2.347309864 0)
(97.47055711 -2.298783029 0)
(97.36211981 -2.324814682 0)
(96.63349619 -2.262572589 0)
(96.71478467 -2.241485 0)
(96.60253143 -2.19013739 0)
(96.52751467 -2.208526147 0)
(95.99912531 -2.107360806 0)
(96.04835818 -2.094766406 0)
(95.95903684 -2.041841271 0)
(95.91543317 -2.052095371 0)
(95.59269602 -1.910692819 0)
(95.57343916 -1.914837274 0)
(95.52356349 -1.857410599 0)
(95.50886362 -1.857605231 0)
(95.30017237 -1.659909159 0)
(95.29258416 -1.668808191 0)
(95.1893475 -1.566069678 0)
(95.20558471 -1.550827526 0)
(95.17576884 -1.40322733 0)
(95.14003015 -1.426103002 0)
(95.05142215 -1.326797026 0)
(95.08787076 -1.293727434 0)
(94.9007757 -0.8566610945 0)
(94.81532195 -0.9375135862 0)
(94.93963919 -1.104346953 0)
(95.02127152 -1.155697377 0)
(94.84371623 -0.5752255186 0)
(94.74205902 -0.6846977424 0)
(94.81125833 -0.2885432377 0)
(94.69420326 -0.4099438007 0)
(94.67326449 -0.1378253881 0)
(99.80425641 -2.170478164 6.413522889e-36)
(99.90914407 -2.137859346 7.079661445e-37)
(99.80026204 -2.102229506 6.413522889e-36)
(99.65302702 -2.133607717 6.414274778e-36)
(98.54138048 -2.144103387 0)
(98.69512923 -2.11398373 0)
(98.5316742 -2.076033799 0)
(98.38399502 -2.103652157 0)
(97.41232448 -2.084297733 0)
(97.53386503 -2.059629385 0)
(97.39445163 -2.0183694 0)
(97.27993782 -2.04060555 0)
(96.51758606 -1.988948805 0)
(96.60586669 -1.970594017 0)
(96.49163961 -1.926906893 0)
(96.40986051 -1.942976656 0)
(95.84878444 -1.858939781 0)
(95.9053797 -1.847536834 0)
(95.81504021 -1.80227726 0)
(95.76436559 -1.81161874 0)
(95.41845965 -1.691925053 0)
(95.39170319 -1.696183544 0)
(95.3491716 -1.645956975 0)
(95.32725003 -1.646654492 0)
(95.08627996 -1.477669824 0)
(95.09336178 -1.484122599 0)
(94.99035533 -1.394590395 0)
(94.99337516 -1.382004256 0)
(94.93884443 -1.25433338 0)
(94.91637092 -1.273325243 0)
(94.82978668 -1.185899098 0)
(94.8544618 -1.157225792 0)
(94.65520284 -0.7696421656 0)
(94.58726178 -0.8413914132 0)
(94.7102167 -0.9894041136 0)
(94.78222767 -1.035399587 0)
(94.59133205 -0.517823295 0)
(94.50548691 -0.6161322612 0)
(94.55515905 -0.260093478 0)
(94.4520913 -0.3692265169 0)
(94.42891878 -0.1243861659 0)
(99.78740329 -1.913348861 5.401965649e-36)
(99.89290464 -1.886331542 0)
(99.78288833 -1.855336067 0)
(99.6348336 -1.881524684 0)
(98.50413642 -1.887749393 0)
(98.66186869 -1.862449799 0)
(98.49544119 -1.829949762 0)
(98.34363026 -1.85319226 0)
(97.34482358 -1.835793659 0)
(97.47136688 -1.814884814 0)
(97.32948299 -1.779684106 0)
(97.21005516 -1.79855252 0)
(96.41995386 -1.754636189 0)
(96.51391467 -1.738858452 0)
(96.3979136 -1.701564953 0)
(96.31059367 -1.715393376 0)
(95.72170389 -1.64434287 0)
(95.7844503 -1.634310725 0)
(95.69298602 -1.595518413 0)
(95.63634521 -1.603735704 0)
(95.2696155 -1.50140889 0)
(95.23638525 -1.505365773 0)
(95.19981997 -1.461714794 0)
(95.17161819 -1.462479817 0)
(94.90086545 -1.316681413 0)
(94.92088521 -1.321797607 0)
(94.81733419 -1.243795484 0)
(94.80855931 -1.232872853 0)
(94.73093632 -1.121401352 0)
(94.72045295 -1.13770946 0)
(94.63492023 -1.060837709 0)
(94.64890954 -1.035493753 0)
(94.43623187 -0.6914034832 0)
(94.38436335 -0.7558110011 0)
(94.5070075 -0.8870999323 0)
(94.57072279 -0.927682064 0)
(94.36505396 -0.4659499294 0)
(94.29369609 -0.554611601 0)
(94.32478366 -0.234306875 0)
(94.23449794 -0.3326265209 0)
(94.20881116 -0.1122651575 0)
(99.76886711 -1.694804673 0)
(99.87484349 -1.672422013 0)
(99.76407756 -1.645543485 0)
(99.6155507 -1.667322806 0)
(98.47063637 -1.670077143 0)
(98.63152436 -1.648889972 0)
(98.46276187 -1.62103716 0)
(98.30761252 -1.640506239 0)
(97.2865864 -1.624340504 0)
(97.41721138 -1.606733174 0)
(97.27323744 -1.576647257 0)
(97.14978561 -1.592521266 0)
(96.33662213 -1.554337432 0)
(96.43524581 -1.540950629 0)
(96.31766019 -1.509052567 0)
(96.22576025 -1.520762883 0)
(95.61311901 -1.459679005 0)
(95.68103442 -1.451081811 0)
(95.58841652 -1.417785479 0)
(95.52671776 -1.424781833 0)
(95.14135144 -1.336478709 0)
(95.1025249 -1.339882953 0)
(95.07082751 -1.302181086 0)
(95.03716304 -1.302732215 0)
(94.7391702 -1.175752272 0)
(94.77058812 -1.180312173 0)
(94.66596738 -1.112369617 0)
(94.64670512 -1.102382747 0)
(94.54776938 -1.004074714 0)
(94.54804552 -1.018598528 0)
(94.46284616 -0.9510502003 0)
(94.46722154 -0.9281919447 0)
(94.24060308 -0.6220242946 0)
(94.2032799 -0.6805976777 0)
(94.32641346 -0.7971509499 0)
(94.38302195 -0.8324281061 0)
(94.16198646 -0.4197653708 0)
(94.10369428 -0.5001850414 0)
(94.11746392 -0.2112931487 0)
(94.03867005 -0.3002123621 0)
(94.0103226 -0.1014944947 0)
(99.74949591 -1.50944691 0)
(99.85589702 -1.490971329 0)
(99.74459053 -1.467765858 0)
(99.5958033 -1.48575001 0)
(98.44017858 -1.48559418 0)
(98.60359118 -1.467969433 0)
(98.43296931 -1.444124972 0)
(98.27509762 -1.46029573 0)
(97.23567461 -1.444824575 0)
(97.36966814 -1.430146955 0)
(97.22390901 -1.404435437 0)
(97.09712655 -1.417623668 0)
(96.26462037 -1.383694362 0)
(96.36710898 -1.372522342 0)
(96.24811059 -1.345231606 0)
(96.15239268 -1.354949349 0)
(95.51937084 -1.301555765 0)
(95.59165756 -1.294405872 0)
(95.49790019 -1.265819823 0)
(95.4318903 -1.271552047 0)
(95.02986142 -1.194639948 0)
(94.98618266 -1.197331076 0)
(94.95847446 -1.165004348 0)
(94.92004757 -1.165147383 0)
(94.59723759 -1.053468591 0)
(94.63869846 -1.058031579 0)
(94.5326445 -0.9988677809 0)
(94.50407458 -0.9892678063 0)
(94.38561184 -0.9016207875 0)
(94.39549729 -0.9150475242 0)
(94.3100891 -0.8557022704 0)
(94.30586671 -0.8346483867 0)
(94.06524516 -0.5612986379 0)
(94.04095556 -0.6153578481 0)
(94.16519551 -0.7190126725 0)
(94.21574685 -0.7491765389 0)
(93.97928735 -0.37921346 0)
(93.93264367 -0.4526967255 0)
(93.93050518 -0.1910474369 0)
(93.86191673 -0.2719194713 0)
(93.83085285 -0.09206178924 0)
(99.72982726 -1.352989552 0)
(99.83665296 -1.337875207 0)
(99.72490397 -1.317965468 0)
(99.57597815 -1.332634829 0)
(98.4121922 -1.32995956 0)
(98.57764105 -1.315471423 0)
(98.40552474 -1.295130883 0)
(98.24541302 -1.308374427 0)
(97.19061192 -1.293178145 0)
(97.32741381 -1.28113669 0)
(97.18011796 -1.259218936 0)
(97.05055169 -1.269966936 0)
(96.20167959 -1.239155805 0)
(96.30740132 -1.23005064 0)
(96.18714062 -1.206743016 0)
(96.08821341 -1.214575388 0)
(95.43759817 -1.16709058 0)
(95.51360618 -1.161384966 0)
(95.41874398 -1.1368729 0)
(95.34903835 -1.141316167 0)
(94.93209055 -1.073666766 0)
(94.8841883 -1.075529584 0)
(94.85976094 -1.048078544 0)
(94.81716985 -1.047666321 0)
(94.47177282 -0.9483941446 0)
(94.52208892 -0.9533745303 0)
(94.41434099 -0.9018776859 0)
(94.37751619 -0.8922344103 0)
(94.24123191 -0.8131483484 0)
(94.25967172 -0.8260198836 0)
(94.17362863 -0.7738689881 0)
(94.1617533 -0.7540515604 0)
(93.90732557 -0.508867797 0)
(93.89460377 -0.5595855668 0)
(94.020455 -0.6520253023 0)
(94.0658852 -0.6772963216 0)
(93.81425594 -0.3441140006 0)
(93.77787413 -0.4118728306 0)
(93.76129639 -0.1734974793 0)
(93.7016485 -0.2476039887 0)
(93.66786951 -0.08392731427 0)
(99.71018122 -1.22196052 0)
(99.8174409 -1.209775846 0)
(99.70529724 -1.192827401 0)
(99.55630028 -1.204577304 0)
(98.38621783 -1.199692335 0)
(98.55332313 -1.187990958 0)
(98.37999392 -1.170742728 0)
(98.21802119 -1.181366099 0)
(97.15024362 -1.166126411 0)
(97.28940628 -1.15647621 0)
(97.14077185 -1.137879844 0)
(97.00885953 -1.146394478 0)
(96.14601231 -1.117810578 0)
(96.25445787 -1.110640806 0)
(96.13305533 -1.090804677 0)
(96.0314125 -1.096849415 0)
(95.36549884 -1.0538483 0)
(95.44468988 -1.049571502 0)
(95.34875444 -1.028604643 0)
(95.27586685 -1.03174841 0)
(94.84549439 -0.9715937643 0)
(94.7939115 -0.9725398657 0)
(94.77215176 -0.9495254824 0)
(94.72592413 -0.948432721 0)
(94.35999356 -0.8591616414 0)
(94.41813866 -0.864879047 0)
(94.30848442 -0.8201007435 0)
(94.26433098 -0.810050407 0)
(94.11180078 -0.7377250135 0)
(94.13783551 -0.7504848806 0)
(94.0508056 -0.7046223461 0)
(94.03214379 -0.6855588633 0)
(93.76418878 -0.464295696 0)
(93.76165264 -0.5127540751 0)
(93.88957458 -0.5955090215 0)
(93.93071521 -0.6161204905 0)
(93.66430158 -0.3142188026 0)
(93.63688388 -0.377380871 0)
(93.60729086 -0.1585315467 0)
(93.55539555 -0.2270846238 0)
(93.5189365 -0.07703861662 0)
(99.69074778 -1.113513365 -7.83874117e-37)
(99.79844309 -1.103928576 -6.80728074e-38)
(99.68593735 -1.08965948 -1.519755896e-36)
(99.53691153 -1.098807142 -7.837839509e-37)
(98.36189731 -1.091964835 0)
(98.53036553 -1.082767955 0)
(98.35604232 -1.068283833 0)
(98.19250365 -1.07653433 0)
(97.1136473 -1.061003331 0)
(97.25481523 -1.053546525 0)
(97.10499877 -1.037891018 0)
(96.97108877 -1.044338906 0)
(96.09617418 -1.017258427 0)
(96.20693446 -1.011916967 0)
(96.08448429 -0.9951348322 0)
(95.98052471 -0.9994713734 0)
(95.30118647 -0.95978958 0)
(95.38311958 -0.9569269679 0)
(95.28614143 -0.9390703036 0)
(95.21049429 -0.9409089887 0)
(94.76794494 -0.8868315453 0)
(94.71308954 -0.8868156184 0)
(94.69359095 -0.8679190179 0)
(94.64407881 -0.8660724502 0)
(94.25949096 -0.7845902358 0)
(94.3246292 -0.7913641595 0)
(94.21276189 -0.7525083825 0)
(94.16214755 -0.7416178558 0)
(93.99480677 -0.6744353514 0)
(94.02757088 -0.6874811455 0)
(93.93924416 -0.6470854942 0)
(93.91459861 -0.6283309338 0)
(93.63352795 -0.4271348788 0)
(93.63983267 -0.4743097796 0)
(93.77020399 -0.5487565803 0)
(93.80783436 -0.5648704394 0)
(93.52714028 -0.289262257 0)
(93.50736649 -0.3488790839 0)
(93.46623119 -0.1460301194 0)
(93.42085078 -0.2101650232 0)
(93.38175597 -0.07133477681 0)
(99.67162664 -1.025406528 0)
(99.77974665 -1.018172908 0)
(99.6668974 -1.006342889 0)
(99.5178792 -1.013137916 0)
(98.33894963 -1.004521853 0)
(98.50855688 -0.997598432 0)
(98.33339961 -0.9856108964 0)
(98.16852776 -0.991689496 0)
(97.08007847 -0.9756609509 0)
(97.22296747 -0.9702343519 0)
(97.07208378 -0.9572057838 0)
(96.93645534 -0.9617228324 0)
(96.05098157 -0.935538494 0)
(96.16372278 -0.9319353063 0)
(96.04028763 -0.9178558877 0)
(95.9343398 -0.9205500507 0)
(95.24312052 -0.8832073524 0)
(95.32742129 -0.8817392909 0)
(95.22941952 -0.8666153143 0)
(95.15138055 -0.867152264 0)
(94.69781793 -0.8179569769 0)
(94.64006124 -0.8170395422 0)
(94.62248114 -0.8018951348 0)
(94.57005433 -0.799240404 0)
(94.16801375 -0.7237196511 0)
(94.23932935 -0.7316439625 0)
(94.12506173 -0.6980696295 0)
(94.06878979 -0.6859185939 0)
(93.88799823 -0.6224580893 0)
(93.92670346 -0.6361341857 0)
(93.83683931 -0.6004502381 0)
(93.80690367 -0.5816720122 0)
(93.51269708 -0.3969281232 0)
(93.52681272 -0.4439252807 0)
(93.66015611 -0.511281065 0)
(93.69487051 -0.5231970181 0)
(93.40009297 -0.2689651341 0)
(93.38715819 -0.3260487949 0)
(93.3353957 -0.1358499174 0)
(93.29580931 -0.1966883452 0)
(93.25413871 -0.06677477856 0)
(99.65282225 -0.9558689826 0)
(99.76135703 -0.9508060682 0)
(99.64816646 -0.941217823 0)
(99.49919311 -0.9458504201 0)
(98.31713844 -0.935561252 0)
(98.48770716 -0.9307361368 0)
(98.31183563 -0.9210370104 0)
(98.14581015 -0.9250917111 0)
(97.04890069 -0.908363664 0)
(97.193286 -0.9048462518 0)
(97.04141159 -0.8941915596 0)
(96.90428589 -0.8968748606 0)
(96.0094097 -0.8710350901 0)
(96.123862 -0.8691092097 0)
(95.99947235 -0.8574417411 0)
(95.89180396 -0.858531908 0)
(95.18993582 -0.822627178 0)
(95.27628359 -0.8225546842 0)
(95.17724879 -0.8098384875 0)
(95.09713902 -0.8090503467 0)
(94.63353837 -0.7635037495 0)
(94.5733355 -0.7615989233 0)
(94.5570615 -0.7498139519 0)
(94.50225935 -0.7461817344 0)
(94.08368344 -0.6753836631 0)
(94.1602992 -0.6844645265 0)
(94.04378348 -0.6555469468 0)
(93.98242253 -0.6419882894 0)
(93.78933212 -0.5809184383 0)
(93.8332464 -0.5955826444 0)
(93.74142212 -0.5639403393 0)
(93.70703012 -0.544579175 0)
(93.4012495 -0.3733705814 0)
(93.42136566 -0.4204690647 0)
(93.55751408 -0.4820216604 0)
(93.59033876 -0.4892185183 0)
(93.28275096 -0.2531528419 0)
(93.27422578 -0.3085611855 0)
(93.21447034 -0.1279469576 0)
(93.17819745 -0.1864211459 0)
(93.13394548 -0.06326299703 0)
(99.63430141 -0.9035544383 -2.863109451e-36)
(99.74326113 -0.9005343984 0)
(99.6297099 -0.8930459842 -2.369387028e-36)
(99.48080972 -0.8956471692 0)
(98.29622997 -0.8837068826 0)
(98.46761824 -0.8808655127 0)
(98.29111421 -0.8732911789 0)
(98.12408211 -0.8754201883 0)
(97.01954605 -0.8577638553 0)
(97.16525236 -0.8560781624 0)
(97.01242827 -0.8475961113 0)
(96.87397825 -0.8485020065 0)
(95.97054645 -0.8224767074 0)
(96.08649673 -0.8221997281 0)
(95.96115449 -0.8127079213 0)
(95.85197725 -0.812202947 0)
(95.14036943 -0.7769038589 0)
(95.22850894 -0.7782563245 0)
(95.12841178 -0.7676892368 0)
(95.04647772 -0.765528343 0)
(94.57338266 -0.7226138642 0)
(94.51100114 -0.7194571054 0)