/*--------------------------------*- C++ -*----------------------------------*\
| =========                 |                                                 |
| \\      /  F ield         | OpenFOAM: The Open Source CFD Toolbox           |
|  \\    /   O peration     | Version:  v2012                                 |
|   \\  /    A nd           | Website:  www.openfoam.com                      |
|    \\/     M anipulation  |                                                 |
\*---------------------------------------------------------------------------*/
FoamFile
{
    version     2.0;
    format      ascii;
    class       volScalarField;
    location    "1.32";
    object      omega;
}
// * * * * * * * * * * * * * * * * * * * * * * * * * * * * * * * * * * * * * //

dimensions      [0 0 -1 0 0 0 0];


internalField   nonuniform List<scalar> 
3259
(
31.98614159
31.98763086
31.98509829
31.98061648
31.97586396
31.97164789
31.9697657
31.96795459
31.93455428
31.93327772
31.93217884
31.93117199
31.94340719
31.95105683
31.94214379
31.92145922
31.89844712
31.8797663
31.85170117
31.84277971
31.80555
31.80203832
31.79882468
31.79584891
31.93036502
31.94553799
31.92713623
31.8816427
31.83188811
31.78918876
31.74278857
31.72336187
31.68062473
31.67408255
31.66845425
31.66348688
32.03384597
32.05095543
31.99518236
31.9067131
31.8115413
31.72808257
31.65155964
31.61445299
31.56059578
31.54963767
31.54109927
31.53402197
32.51081122
32.49069058
32.29282976
32.06790338
31.87448965
31.71605673
31.58820412
31.52006875
31.44713551
31.42914395
31.41664892
31.40712191
34.44975937
34.08802461
33.18136778
32.52241627
32.09286348
31.77774978
31.55714933
31.4440118
31.34183826
31.3116
31.29377239
31.28133527
44.70986195
41.6828708
35.61576034
33.53622017
32.55271403
31.95493704
31.56784932
31.38900359
31.24416913
31.19779522
31.17246424
31.15639595
66.85855721
41.3194607
35.38956527
33.32686146
32.26944575
31.62405743
31.35220897
31.15515024
31.08723408
31.05226097
31.03200459
123.070247
49.86980893
38.00350621
34.37895904
32.70309491
31.72699361
31.33148364
31.0743965
30.98177084
30.93489541
30.9097037
154.0221949
57.47941942
40.76758809
35.56995773
33.20538648
31.85997256
31.3251796
31.00164638
30.88190315
30.82171945
30.79109563
155.0768386
62.10152855
43.15408219
36.70728389
33.70869619
31.99951828
31.32777009
30.93684185
30.79025185
30.71584265
30.67905331
144.4655384
64.14628766
44.88903595
37.63998318
34.14036995
32.12367334
31.33372302
30.87861115
30.7055407
30.61748592
30.57454949
143.7282831
74.77120294
183.9524455
149.1594735
183.1413239
185.6203829
166.8497629
181.1961847
164.469558
43.98737736
68.7972262
41.54626393
397.7783657
145.3530095
116.7070552
53.86920358
44.58344789
1309.652282
920.0566764
152.2118187
65.14071217
57.04821301
776.3403236
1044.257998
155.9904569
71.53070166
67.27203901
456.4178196
593.1525159
1717.189024
301.4939287
349.8548031
894.3298078
417.8602229
113.2972825
341.2519879
635.6959333
1054.858691
1311.982904
168.9594203
930.0074965
824.3996855
656.9573915
926.4222347
166.6040347
618.1216438
760.5475691
186.4680466
588.7222308
471.2571588
816.6859243
608.2714187
186.9708075
359.9428472
440.8458873
2548.43993
2958.28773
296.4915278
1515.972772
2219.226605
386.4032842
4869.893071
146.1787524
73.70975566
72.44560891
5257.95242
656.7146392
727.3716569
122.9832941
303.4056341
104.8937316
743.1806603
940.7675213
173.0240708
365.214339
312.087815
456.7034471
375.0104113
175.3581858
68.00730778
128.0115448
65.45942077
69.19774185
2977.164401
281.240855
2118.291116
298.1939428
1564.46173
253.9852573
1066.268457
1051.727274
885.5523216
904.1863734
1756.866989
4033.977941
508.1963786
2097.860022
1167.819566
4544.396356
2484.827762
528.1368755
553.8461317
626.7213517
4650.914457
632.1452486
600.4825541
1109.390057
1119.434352
867.1362998
309.1156198
300.8807286
311.7030967
310.5424477
861.7475625
781.9260277
274.5036183
252.0558401
296.9069414
281.1428545
797.2849047
653.2518936
4720.518389
664.8448515
1104.956075
818.4246859
401.4314895
994.4337599
1631.128065
5493.88356
532.1468345
2668.334276
1657.844229
2249.546381
920.0207115
2622.259932
3795.239354
125.9813846
314.8925419
114.4766695
132.7455171
1231.01911
2908.466475
3051.212708
985.8406755
824.386226
2260.297701
1670.248286
3777.329519
3747.55607
1000.783078
775.8643384
2616.744106
2893.327056
449.9518081
204.0913256
172.5687762
242.9750164
214.8617315
469.5062535
1080.485362
3703.69816
3780.705899
1252.825802
1582.336183
1460.415388
719.78646
535.1453434
283.5474545
293.2482024
737.4485846
306.8748235
311.1685474
296.6357402
304.4808512
725.0611604
389.3660022
789.8376362
640.8299923
4532.352207
1325.443682
1594.224577
1191.719851
4820.899068
4896.071823
1139.15438
1477.900873
5471.628181
1075.755801
436.2005764
1075.379251
3722.405035
2489.480802
834.7903289
4464.067531
5238.659751
3036.360132
900.0110592
564.314954
1449.158441
988.315631
511.1121266
327.9954145
886.2928507
3216.895314
4077.709756
1171.813789
1001.777984
3089.163962
3223.331235
2469.460156
2345.658787
842.905257
4131.046684
4045.027279
2946.189623
4022.772581
4005.231945
975.8548591
3889.934792
2539.245146
2618.576354
2967.01876
1585.435977
753.5374229
811.7694842
3343.073079
942.1577571
1062.751561
835.5341683
907.4648941
3122.815257
3265.467446
894.5793697
1051.656006
1886.628156
1971.731586
736.0931415
2770.300845
2789.977291
3523.719435
1924.779411
1607.774109
2696.655376
1904.628448
510.542067
1361.643723
1803.295648
3570.873825
3653.210471
1088.241978
1204.920424
3706.734481
3545.472275
1380.022931
1607.241734
1105.451785
1285.773198
4964.683876
2524.137114
2750.448035
1714.111167
2419.6682
5311.472237
1176.392626
5155.179884
4401.907161
5134.601996
1257.563097
5440.44565
62.32231546
41.95374573
36.46518906
5335.732555
5310.89614
73.87543954
5563.384514
304.4796983
256.6992309
158.5928301
271.876978
196.2153486
391.2231436
1405.281912
267.683421
292.3923837
52.25731286
60.88251344
112.7743909
348.0715356
651.7615243
946.6807576
771.0663845
854.9148158
2778.782266
612.5001519
540.6935454
327.240691
1027.316975
1309.251353
482.8013882
4193.583648
3475.100967
5442.700016
4820.428467
751.872731
2355.291239
4696.962602
3203.178589
3633.940443
5185.583955
1362.257461
1103.434929
664.2794662
161.2856933
128.9032842
219.6212604
807.4447415
2113.922644
1503.107851
88.52464094
110.0496204
256.4236873
2438.515814
1600.476532
1239.667409
3137.896832
2493.093586
1922.248943
3582.960643
3260.403896
5204.435522
4911.958768
3471.311081
685.7135714
736.4732599
1461.505225
4702.267937
2404.884047
2693.97134
4009.402393
2288.038891
2706.693117
4590.775383
4536.311811
2822.315742
2993.905435
4688.954367
4582.405066
4778.690806
706.4208558
1409.629502
1181.116758
5442.18452
5237.858636
5149.802956
3924.669077
3623.278463
2018.558366
1113.417822
1087.845093
1280.548138
3060.215843
5240.527078
4427.836265
5294.408468
5058.238457
3515.72592
177.1048132
243.5063977
740.3170324
3130.814389
3052.779753
3218.264331
3194.100266
2978.209211
1946.02911
1926.639441
1966.963322
1949.628928
2988.57989
3819.926196
2160.105205
2174.91605
2076.856202
2136.519055
3885.684144
2734.161244
1764.213526
1595.002644
1911.964505
1859.954896
2808.713692
3691.874595
2207.008988
2220.502313
2189.921897
2197.016168
3735.004938
3307.980288
3242.364873
3387.51972
3243.126285
5608.501147
5805.319254
5384.130432
3978.261099
5665.301608
2027.545258
2867.806542
1996.944705
2662.450838
1999.683385
786.9254744
2800.540129
1997.050855
4873.269014
5079.80473
5414.321044
3961.825698
4601.077982
908.9553414
5084.573601
5371.449691
4998.684533
2293.294075
1656.664201
2332.067433
1235.598759
1782.917797
2370.748598
2606.935408
2407.243035
3352.333755
2118.580948
2004.868802
2882.545992
2092.479294
3143.938624
3134.466022
1988.560834
1970.676257
2015.334351
1988.291053
3155.281693
2429.693827
1467.311166
1490.489998
4081.74973
4071.685401
3455.380297
4509.67727
4339.560578
4162.75043
4069.947053
4264.44012
3196.48025
1743.240335
1941.381436
1527.864615
1601.565356
2723.110405
4949.247665
4143.844219
2195.015126
5301.13181
5061.11801
5042.313524
3143.743718
4931.387979
4770.286224
1829.676914
2056.750202
3951.117194
1888.24781
1307.879018
1286.135109
1437.307048
1391.054695
1994.110663
2928.506525
2748.24366
1802.101171
2636.046217
2757.269822
2483.346769
2609.566341
1769.697532
2638.894536
2594.769436
3310.358917
2474.098905
3620.299083
2252.471508
2264.264552
2227.419356
2238.261584
3613.698606
3550.883224
2481.283078
2860.313627
2289.744662
2344.572178
3553.081375
4555.386996
4413.531297
4774.486343
3207.96169
3797.22828
2596.686082
4336.175944
4395.027661
4325.628535
4334.822616
2656.592365
1906.804447
3654.457745
3081.075734
4257.565619
4400.809969
2197.273291
4950.770041
3124.943486
3354.440943
2300.59564
2786.328696
5043.295478
5050.62857
4884.515576
3670.400964
4255.637623
5405.206538
5225.382039
31.9215554
31.93839789
31.9278401
31.94036756
31.95061209
31.94126105
31.93180501
31.94624243
31.92537516
31.89719325
31.92800492
31.88816979
31.85500328
31.90463475
31.84531407
31.81689823
31.88429696
31.97080382
31.92385509
31.98422836
32.00651383
31.94495787
32.00085391
31.97986044
31.93430513
31.96543444
31.91272546
31.89415919
31.89272123
31.83127838
31.84382516
31.81012092
31.75549803
31.79785817
32.26914176
32.02027864
32.30422862
32.33968822
32.0488107
32.29768388
32.22746992
32.01113934
32.18344439
32.06246792
31.9297185
32.01794035
31.88727355
31.83548169
31.8470838
31.74318282
31.74618542
33.49316027
32.46366569
33.56850956
33.59857413
32.48016448
33.37685287
33.01580781
32.33682198
32.86022419
32.5048684
32.12196633
32.39426842
32.10309878
31.92024757
32.01952479
31.81504749
31.75055412
41.94031152
34.31692906
41.97777117
39.76076617
34.15957837
37.8807143
35.38725196
33.35692926
34.75925709
33.54955483
32.66049614
33.26030752
32.58788883
32.18656167
32.41311493
32.00912942
31.84861861
59.40981954
57.47747776
44.64639386
47.08055619
41.79722352
39.36950635
39.49383196
35.64474151
33.90703938
34.92050334
33.44138457
32.75229095
33.1015389
32.36312018
32.07946684
88.07920319
63.75179233
53.72783997
47.63469309
38.87792172
36.28717269
37.43083622
34.69713764
33.70838356
34.11080249
32.87623138
32.47532738
139.0822398
87.58373345
78.99802366
55.77581055
42.45369446
39.67823864
40.25684869
36.14871399
35.01510751
35.28399378
33.49127748
33.02075972
156.9708175
100.7729781
97.25288396
61.13368282
45.44852845
43.16609737
42.71650021
37.5600096
36.47626352
36.44553738
34.12541369
33.65041792
151.8725065
103.2579456
103.2263028
63.67537818
47.60725358
45.99780669
44.58756968
38.71713484
37.84255592
37.43388912
34.69067688
34.27483833
140.2446213
106.0095325
107.0248157
47.94650379
38.96352243
34.80594456
132.5199229
177.6230671
199.8896145
84.37091713
98.4980285
84.09281461
181.4245575
255.7827815
258.4208635
206.7856997
224.8932779
159.2235296
184.2191915
241.9819369
240.1712996
258.4037017
257.1234036
186.7315776
168.7244909
196.6992138
193.2804747
220.3484338
216.2918021
179.4656909
189.602103
186.4785582
162.6200829
1163.907838
1255.909703
1241.755584
59.21996899
1564.021009
1073.311125
61.40060819
66.04200729
76.16790587
43.40953125
55.86605265
49.66125418
379.4120463
432.0881295
460.9742223
181.2742565
212.089991
175.7869223
76.46754706
66.09475244
95.10059206
50.67963418
59.01810704
63.73580003
49.91277525
54.34358076
47.5143441
1299.214053
1986.760767
1993.214715
1305.840974
1331.179737
945.1911706
95.76585018
89.723321
143.0797184
62.75664626
76.07305281
79.20795824
68.25105907
72.40082446
59.99263219
792.4354451
965.6223286
937.2201916
1408.611672
1396.686478
1033.320921
103.0162494
101.5373139
157.044793
70.45525765
85.35539711
86.42918997
81.79043231
83.82065292
68.97918686
472.2118741
603.4938697
577.7054174
860.6252055
797.6394872
570.6030114
1151.63489
1249.858163
1977.051723
320.2756164
518.8985915
464.4269653
411.8879314
399.8098532
342.8732167
859.8030422
1233.729082
1279.717582
503.7794057
534.6417433
436.9425155
144.6097417
169.3880413
125.3578981
361.0426364
278.4384696
256.3295619
394.735313
376.8784683
560.4933131
1063.657121
1427.647748
1420.148164
1989.713987
1982.291562
1306.798095
246.5161959
254.2614392
170.9043548
914.7358769
472.9737877
483.4114846
509.6514282
513.4827268
843.0124763
715.8578311
426.4892069
410.52783
482.6529936
480.3382205
883.9348048
160.5525137
229.9879376
243.247449
643.5207444
972.2591557
884.6661735
913.0290261
893.2539694
746.6964065
250.0498787
244.5650167
185.7273597
570.8997385
430.897709
440.1544605
269.487238
279.5510437
517.5236284
788.8956599
499.0668924
505.3514474
449.6098691
458.9724209
679.9100875
187.1218911
255.9327245
252.0065697
368.3085528
440.0026688
425.8075577
554.4251266
532.1239422
427.0327902
447.8546082
1061.470573
518.2449747
1017.881627
612.061265
108.1860984
103.0613104
150.3538734
73.4892617
87.55905783
87.42586597
87.10817915
87.47514605
73.01565581
687.162223
1033.573654
884.6602459
816.5937361
799.3104698
707.0726514
186.9137847
118.1900353
93.87419297
235.4857513
215.1318779
281.4755266
92.79783851
110.7365615
135.5661744
763.6563611
881.4532453
850.9895206
1255.467943
1166.963327
903.1992896
204.5356895
200.72269
171.1330341
340.0926418
246.6952257
241.1386641
233.2775412
239.3425056
332.0453855
418.1265084
256.2936655
266.1278823
243.3691813
253.3045405
406.0578459
177.2212778
212.3970009
208.2395219
99.68048484
110.531247
124.8072207
142.9491844
66.4879011
91.43659712
78.82741505
102.7573508
98.7143718
67.80895072
400.1318328
599.2641192
338.562059
720.4341012
301.4698439
225.7833361
1071.112537
914.9619657
1509.406554
200.6354922
284.1390337
368.8224687
1430.611145
1482.99722
1090.909066
1033.700302
1402.299729
1428.710365
1108.411155
1088.814547
872.0742973
923.958822
1171.802093
1134.536201
658.6576172
630.0542501
489.9872514
1849.816041
1217.01385
1308.797906
908.4982397
939.978023
1239.762523
1421.112516
1525.87649
2804.507021
547.7308744
775.1393998
742.2209088
576.4480233
697.5439833
665.3039087
842.5229095
779.2140771
601.5995259
874.4533424
913.8019959
664.8289277
568.4619126
776.0115411
821.1858584
1463.044165
1458.092298
1102.325939
1135.099738
1498.8843
1473.789033
516.6996403
516.3681193
899.3233903
306.9199823
386.8301935
388.431516
379.9388212
383.6396648
304.2950322
311.8780498
389.4762569
388.4882254
389.8944972
389.8788555
311.5993007
848.6123936
515.4114494
516.3247969
454.6236722
440.4007422
733.2207024
267.7542176
334.6687434
342.4140681
313.2293802
322.9393872
259.8299594
292.2036361
368.0077486
374.289669
352.9813507
358.771746
286.9150491
859.6032952
480.2890658
466.7208153
1127.311737
1011.95681
597.298877
679.2157288
798.4172435
781.7370766
947.3039982
673.2778269
674.844763
615.5439765
643.0438179
907.7169705
413.349654
510.8410144
491.3142881
1049.274125
1513.738819
1373.564149
3063.629395
2714.522068
1497.874131
634.6238159
1841.620882
3407.878838
3048.649466
113.4322811
155.2322454
209.3205578
145.7493082
104.4986196
301.3939545
166.0734591
244.0028897
283.8410457
384.4422081
124.8978817
184.3126928
154.6400974
215.8725224
205.251108
130.9293458
1851.515357
1946.808101
1275.101142
964.4915471
1345.838501
1366.952294
1025.874872
996.5415793
809.6126032
2077.757011
1318.718897
1380.158389
1182.678185
1245.473406
1834.043211
1018.71824
1376.355739
1345.419037
1088.213206
1171.551767
821.1292659
320.3850949
296.4575508
401.6982218
194.1287205
233.0467346
247.0060824
203.5075356
218.4675765
182.9592607
234.2959592
288.7921526
300.2973981
261.8175437
274.7286633
224.241025
535.9188037
359.1348486
339.8221659
1442.466133
1435.760813
1072.603822
1289.928784
1941.364861
1842.884549
1534.110914
1106.901816
1137.802586
1055.357728
1079.873551
1496.723065
732.9731789
874.4940957
857.2612953
412.3531611
421.5047401
552.5506763
286.5874177
342.6717178
337.3361129
353.4386558
348.2436279
290.2934938
483.7929386
492.2788747
775.6504379
308.5639583
380.7653055
377.0456559
386.5952702
384.0232528
310.2447661
299.2942954
363.6501601
358.7574738
372.8501564
368.5167847
302.2632534
696.5004995
467.1793989
476.0918593
472.8808171
456.0826581
379.2768406
745.4798885
564.4794002
588.6763729
519.4553879
541.3750926
670.0308165
756.0366129
1196.049221
2104.171711
1223.200027
1927.247092
1718.067694
2557.238803
2183.928826
1337.344493
512.7532955
3385.879064
1773.866454
1983.213851
1435.251127
1595.225949
2970.376859
861.2550738
1089.574163
1023.491212
749.5070531
1106.192061
1369.989133
806.2612644
1006.582137
681.0811103
1521.066701
1777.307997
1159.504216
424.4132702
579.125415
717.6301269
412.7265287
500.4288098
384.4594145
1101.378606
710.4931289
609.0120821
1124.848466
1524.631289
1675.506511
1376.672636
1396.986651
1020.705837
1419.042347
1445.535522
2394.247145
855.5842664
1069.786714
1049.986992
1290.005146
1226.543186
950.0414216
1091.902261
1146.130692
1696.44398
771.4582349
898.0968218
870.3082388
973.2155302
932.9852736
791.6229243
976.9255702
1305.26115
1221.960825
1502.951513
1408.951659
1022.093544
855.5546139
1064.963949
1019.628196
1158.026755
1111.397415
884.7493918
2936.771877
1611.332845
1700.4846
1772.188828
2012.317878
3733.839952
931.7408025
1252.27506
1153.794012
1518.528061
1370.194788
995.8337009
696.9657884
964.35891
1020.293226
671.3564523
712.8372679
535.4975591
1516.080271
1031.968545
968.4337137
1204.07499
1146.890455
1717.01334
1095.046176
1452.878627
1448.224003
1680.938966
1557.593191
1163.089289
1466.788475
2601.419815
2326.769949
2877.534047
2720.993504
1535.349352
1148.939137
1663.963651
1582.662706
2000.242133
1785.807915
1207.142943
1792.586825
1657.492923
1112.813799
1364.718836
2260.345175
1971.234697
51.91357698
46.89204582
49.1699289
39.73929444
42.15533672
45.87696976
37.53735462
39.76753943
37.92980533
87.17935069
86.73653493
73.84954272
293.414984
221.3323484
226.6139848
210.6334606
215.6800754
264.9672917
241.692813
345.8181019
406.6889616
229.5843077
296.0976734
209.124846
900.5439162
370.3018646
330.6321105
624.1991057
1099.858045
2203.364912
285.784939
425.5160756
363.850398
466.6139661
464.0452469
294.4987091
72.58712585
65.56517409
58.22095371
87.43638108
74.30229767
79.85758329
373.2206294
399.5485667
363.1531359
759.2197595
539.1957848
478.1512499
648.2978688
579.3919906
818.5937462
796.6048986
942.0760177
897.1722089
1069.645754
1000.34057
824.4950166
2333.551566
1386.141065
1555.887859
587.719942
480.4720121
499.1259611
446.9006565
462.605867
563.0576213
1157.105448
771.9221281
705.8181881
887.7950811
833.5376654
1199.481107
460.6131289
583.2983722
615.2840232
853.1368269
1264.449381
949.5178163
990.4809196
869.8489316
900.1135376
1181.147848
695.7806882
763.8298887
765.5311558
150.5948645
174.0402435
189.0104522
241.8673605
192.7111774
175.5616902
967.0753832
922.6941521
784.4770872
1879.880773
1208.016872
1303.331974
1055.986916
1122.03404
1673.934343
93.66318821
103.9607977
97.93515915
129.1111646
120.3612964
99.34713864
184.0835163
140.4856398
177.1161183
704.261232
792.8038459
778.5450998
841.5980474
819.5347008
718.6895665
1342.92843
988.9018293
1035.827584
838.0214579
819.7793782
692.512489
1338.001708
993.0993107
1025.264627
927.1489448
956.062912
1251.646923
187.3141725
235.3589087
211.5305814
307.9046989
274.7443328
211.6736104
509.4911357
350.8821964
442.5775853
31.96080637
31.96385046
31.98741437
31.96434367
31.96224087
31.9867302
31.95741283
31.95064669
31.98306696
31.94332492
31.93582828
31.97816077
31.92884749
31.92287995
31.97375512
31.91870897
31.91334596
31.97080614
31.90985978
31.90740949
31.96885711
31.93504107
31.93954622
31.94630154
31.94409966
31.94365225
31.95065184
31.93413179
31.92824779
31.93852358
31.90822493
31.90042679
31.91624119
31.87899814
31.87208059
31.89385102
31.81048858
31.80415736
31.85713832
31.79537732
31.7884586
31.84688021
31.78360276
31.78128616
31.83965933
31.93838544
31.94657839
31.93677405
31.95516474
31.95286676
31.94383855
31.93256999
31.92141838
31.91730669
31.88188836
31.86538366
31.86863539
31.8213044
31.80676289
31.81942487
31.74096337
31.71333667
31.7558392
31.69395117
31.67957361
31.73216774
31.66914338
31.66305177
31.7169846
32.09194836
32.11552588
32.03829205
32.10147375
32.09290112
32.04183115
32.04077206
32.01704767
31.97421418
31.93474202
31.90457569
31.88290928
31.81653365
31.78974823
31.7876275
31.71379332
31.65368103
31.67803161
31.61562526
31.58765227
31.63101649
31.56712959
31.55378033
31.602394
32.71539324
32.79000548
32.50266179
32.66879358
32.61668337
32.45451847
32.43253513
32.36475245
32.23580448
32.16230443
32.09549983
32.01635595
31.91189468
31.85898272
31.83038336
31.75786954
31.63566546
31.63473471
31.56846136
31.51848526
31.54966614
31.48136146
31.45599171
31.49909966
35.56098095
35.70790693
34.39389269
34.79990234
34.4502137
33.87970022
33.5792803
33.33286409
32.99378784
32.74661386
32.58507736
32.39939453
32.18137629
32.07528554
32.00486899
31.90697272
31.66970438
31.64525834
31.55895532
31.47608807
31.49290443
31.415253
31.37109026
31.40853683
47.76004837
48.06657165
45.36438152
36.64667133
35.7232631
34.91981363
33.98246853
33.58700567
33.23131284
32.7163278
32.50653982
32.37765087
32.18542415
31.77962562
31.71427443
31.58892419
31.46275137
31.4634295
31.36892975
31.30111302
31.33197355
73.79727273
66.99593204
62.17496127
43.30648813
40.50489916
39.06836784
36.10155444
35.26115241
34.7026556
33.5767937
33.19813818
33.00261798
32.58828405
31.96610429
31.86182886
31.67108183
31.47402721
31.46579271
31.33974197
31.24440107
31.27017211
128.6621528
108.5440119
103.993182
51.94381683
46.71043268
45.15854041
38.83893169
37.41824878
36.75413914
34.68396717
34.08910771
33.84804412
33.07758251
32.21214546
32.08194474
31.79128334
31.51157751
31.48927779
31.32595674
31.1991166
31.22095484
155.4541074
131.0943709
129.5830736
58.85666274
52.09222151
50.93306604
41.57087794
39.62347786
38.97383672
35.86841633
35.05332042
34.81489358
33.5894582
32.4782954
32.34347882
31.93042777
31.56619658
31.53631099
31.3259855
31.16336591
31.18194619
154.2140484
133.0085805
133.4022683
62.70750974
55.5627448
54.90349174
43.76719684
41.47694982
40.95661763
36.9595647
35.9583086
35.75191023
34.04877535
32.72383384
32.60492459
32.06475632
31.6248095
31.5940552
31.33244477
31.13495258
31.15083031
143.172854
126.3644139
127.4516496
64.23329816
57.30031092
57.11015245
45.26379069
42.82648089
42.48266859
37.86193079
36.72321635
36.53010429
32.82805017
31.64949723
31.12441328
48.15920729
99.12176284
93.97944327
109.8488745
127.7700471
125.544313
149.8257923
133.7254242
133.8678917
156.5664511
307.8149229
349.0066641
341.7680745
509.3768887
494.3275828
611.6399845
930.6250356
701.0261056
698.4567685
670.6198198
674.8397832
830.8959046
677.8984909
535.0244615
520.4312092
694.3538235
688.0505517
917.8139654
377.4833306
385.6217053
486.180223
808.9354163
661.0070157
666.1747093
332.6815685
128.2932302
129.2759449
147.4881435
143.6498465
122.4529938
113.2273588
356.5545904
305.7549172
310.8301753
274.5974214
279.5082739
317.7182589
443.2722691
361.2071311
368.8760207
318.3348859
323.9186624
384.4772192
64.91743483
72.74492763
74.43249657
75.50251187
75.67558239
69.39028117
413.2905331
303.1493806
255.6164405
690.7796265
692.0680878
873.8255338
857.8826391
688.3608418
689.3216398
606.811434
594.1358054
766.156305
814.7843314
629.944531
617.2417971
760.6975479
749.0703533
638.5491504
1047.652656
847.6828548
871.1232665
721.0631697
739.5304049
843.3779704
415.7132032
406.2834035
430.2584966
490.7064677
435.6881996
422.6972898
618.9702472
626.5906283
748.6565904
716.3071747
604.1966598
611.8194373
774.2533022
687.1991436
706.3126456
58.06892774
54.06646122
56.54432666
300.3197295
265.2029582
270.458469
160.3468647
183.1949978
180.3854652
54.47160844
61.1631158
57.74104674
100.5912043
92.79855943
97.06714477
333.548404
387.9008726
377.3378453
145.6863131
159.6423468
139.3909001
229.7366117
196.637467
208.4499376
31.92254887
31.92982213
31.93351348
31.93348837
31.92838336
31.93927279
31.93623069
31.93699062
31.94930407
31.94204984
31.94361816
31.939966
31.93917442
31.9402459
31.93193427
31.93682119
31.93729104
31.94871184
31.94194567
31.93846469
31.91629287
31.92049435
31.92740806
31.90492439
31.91407285
31.9073896
31.93285409
31.92211221
31.91499232
31.87669518
31.88700426
31.89683069
31.8691071
31.87884039
31.86646776
31.9096761
31.89329226
31.88569402
31.83462326
31.85224298
31.86115503
31.83731688
31.84509117
31.82588331
31.88842916
31.86611636
31.86016996
31.94695121
31.93087493
32.00006995
31.96399577
31.95600747
31.97524853
31.97062416
32.00660899
31.94151543
31.95280666
31.95529568
31.9971584
31.97125379
31.97543262
31.95417876
31.96330496
31.99248911
31.94051533
31.94881336
31.94114796
31.94956584
31.93062905
31.94368062
31.90088233
31.91689233
31.93235024
31.90722887
31.90985339
31.89572845
31.87217827
31.86698537
31.88488354
31.83022259
31.84943443
31.85223887
31.8571539
31.84970935
31.83502079
31.78976503
31.79719399
31.81333357
31.76690453
31.78172319
31.77254505
31.80860885
31.79396713
31.78161746
32.17297284
32.07076348
32.34518414
32.19412723
32.19700877
32.19560157
32.19780059
32.3505595
32.04513511
32.12273982
32.11913626
32.27603888
32.1850864
32.20283611
32.12587992
32.1483848
32.26661972
32.02454011
32.08689626
32.06528664
32.14491881
32.06685326
32.10048938
31.9976518
32.03209346
32.10533931
31.95230979
31.99168585
31.96363282
31.97291527
31.92909843
31.96341669
31.86047442
31.89472148
31.92925458
31.85953592
31.87455564
31.84458769
31.80931893
31.79624689
31.82757158
31.74023075
31.76750781
31.77466996
31.76490625
31.76477917
31.74013235
33.05829014
32.66115998
33.68159263
33.10542139
33.12961513
33.03545937
33.0794848
33.67767859
32.49454592
32.7899383
32.76365093
33.24700168
32.94670283
33.03258369
32.70559829
32.79494718
33.16984563
32.37928658
32.59071909
32.5142028
32.73471751
32.51968923
32.62079361
32.32937839
32.42049121
32.61978677
32.17773423
32.29909075
32.23061959
32.29157692
32.16655181
32.24471736
32.02437666
32.0936816
32.19500698
31.96766362
32.0317525
31.96953633
31.9446866
31.89741306
31.95953486
31.78556857
31.83929225
31.87702658
31.78890356
31.81039585
31.76564262
37.37172964
35.3557511
42.03936826
37.51877502
37.65582892
36.65831922
37.17366025
40.70485594
34.30308338
35.60617255
35.34239665
36.85738951
35.67250584
36.27874235
34.49854547
34.94235083
36.17550222
33.55270388
34.22205472
33.88490993
34.27598475
33.74813663
34.1114887
33.1639551
33.43188238
33.88628122
32.81608031
33.1208872
32.9251158
33.00778504
32.74242787
32.93768962
32.42333302
32.57239106
32.78546403
32.28792072
32.43826494
32.30329929
32.26189357
32.16315644
32.28786708
31.94551348
32.04950508
32.12861342
31.92321618
31.98103314
31.89480169
59.64432948
53.50080906
53.37652879
51.85357711
52.72605302
59.2447183
45.01139793
48.07102197
47.68205073
37.79552861
36.67397107
37.97177791
34.94118512
35.69586706
36.56983081
34.35892247
35.01588893
34.44943155
34.33157216
33.87687888
34.34468994
33.17561546
33.49631247
33.84405774
32.97528693
33.24957711
32.96339268
32.81663957
32.65563477
32.89623768
32.25574188
32.44307321
32.57395411
32.22070607
32.32456741
32.16387275
77.67462965
72.14451481
79.90267569
59.59835793
64.50975871
68.855842
43.57323318
42.0006753
45.47297937
37.89788516
39.60948148
40.83036657
37.46532041
38.56729573
37.16346084
36.30553391
35.66620123
36.62414851
34.31736584
34.92013196
35.41237504
34.15732071
34.58301006
34.03301713
33.6270294
33.39575453
33.81624576
32.73168317
33.03764619
33.22064751
32.72028506
32.87675747
32.60179022
116.5608616
112.6781207
134.1319064
84.72975018
96.35284881
99.56610506
89.31659974
93.02249731
82.34360545
49.62633481
48.21434613
53.99366992
41.46145972
44.26563312
45.43668127
41.95303409
43.18066765
40.67784586
38.55333332
37.86843661
39.40109722
35.74064817
36.68638091
37.21245395
35.78886242
36.29888607
35.40860763
34.57536278
34.32461876
34.96780178
33.33026094
33.78482695
33.98525313
33.40015415
33.59264131
33.17500723
133.0864125
132.2098584
156.3369787
99.7721416
113.5708028
114.6360828
110.9256916
112.4702991
98.64126021
54.05300505
53.17191313
60.17569813
44.70994125
48.25221088
49.09086412
46.40413509
47.42174067
44.06250191
40.60007851
40.0320974
42.06021484
37.18738233
38.44817023
38.92006824
37.58711009
38.08475645
36.86345199
35.53054024
35.29657835
36.15737663
33.96895531
34.57501542
34.76590065
34.18197161
34.37462936
33.80711055
131.7337051
132.2453374
152.9242579
56.59691752
56.17304152
63.36688686
47.04736512
50.92983583
51.48984058
49.75620371
50.48040855
46.68176487
42.18613131
41.80611969
44.09701203
38.45935215
39.96430915
40.27212589
39.22649818
39.66029999
38.17916779
36.35986382
36.17238378
37.21376834
34.55877949
35.29659315
35.45349725
34.94972069
35.11852661
34.414617
51.8747891
52.21984589
48.30841148
40.55287951
40.84170703
39.21426599
35.59477789
35.75632232
34.93337849
185.1862948
161.453268
154.471958
172.3765284
166.2229808
192.8088349
257.1331257
218.6090074
216.9729976
220.7756238
219.7338095
257.8223866
213.2089308
182.5151507
177.0217363
191.5536476
186.9203585
219.2734027
240.4667805
213.8837291
215.3782438
258.2315186
221.9015245
221.4191599
222.1093901
222.1173465
257.7036434
51.82153794
47.0129351
46.2793362
43.03854399
53.57017849
48.7532649
49.86376409
45.85939141
46.84419872
51.25932132
72.6943298
81.41944638
85.52222089
72.98859496
77.33316358
70.1723494
102.9404549
88.64233054
83.12395365
93.91133018
107.1995866
109.294321
102.337654
104.9944088
92.07728756
146.9426664
123.0014195
119.9596304
102.6595569
116.1303397
116.364559
115.2466601
115.8811294
102.2005578
156.9138073
133.9031762
133.5620473
839.3093307
726.8702623
742.9489656
694.9385126
711.2669116
815.6994737
367.0872866
358.145849
313.7510989
499.7395173
418.1662193
431.2950269
393.9333423
404.5509168
480.6087931
152.7444749
137.4840239
129.2960231
149.6620695
142.1716437
161.4379921
586.8298584
483.1128157
468.1227173
249.6229718
211.3261087
208.6668574
215.3396047
213.2461348
251.9745943
699.1561464
700.913914
925.3203658
485.0254645
539.5643367
557.3729554
529.4313538
536.3431836
484.6926999
837.4547422
678.4165154
681.5920965
559.9113379
545.754286
696.792339
481.4218082
515.2056075
523.6354678