/*--------------------------------*- C++ -*----------------------------------*\
| =========                 |                                                 |
| \\      /  F ield         | OpenFOAM: The Open Source CFD Toolbox           |
|  \\    /   O peration     | Version:  v2012                                 |
|   \\  /    A nd           | Website:  www.openfoam.com                      |
|    \\/     M anipulation  |                                                 |
\*---------------------------------------------------------------------------*/
FoamFile
{
    version     2.0;
    format      ascii;
    class       surfaceScalarField;
    location    "1.47";
    object      phi;
}
// * * * * * * * * * * * * * * * * * * * * * * * * * * * * * * * * * * * * * //

dimensions      [0 3 -1 0 0 0 0];
oriented        oriented;


internalField   nonuniform List<scalar> 
6464
(
0.4583294428
0.002278671107
-0.002230077874
0.4584269505
0.002138127381
-0.002012840507
0.4584831009
0.001859739557
-0.001698841355
0.4585006737
0.001533167602
-0.001359969627
0.4584895827
0.001205386962
-0.001057440592
0.4584828583
0.000889582251
-0.0008231147806
0.4584493063
0.0007238084857
-0.0005912108907
0.458458879
0.0004823318559
-0.001817923787
0.9186036807
0.0002915242821
-0.0004272812192
-0.001137681642
0.9186697579
-3.110173208e-05
0.9157434201
0.9137688983
-0.004592341564
-0.2291478844
0.2290933836
0.004646855437
-0.004494863972
-0.2293201341
0.2293838627
0.004431135357
-0.004025448071
-0.2294214643
0.2295764473
0.003870465055
-0.003337248791
-0.2294597357
0.229656383
0.003140601524
-0.00259872378
-0.2294392007
0.2296302232
0.002407701238
-0.001940805979
-0.2293878535
0.2295472798
0.001781379683
-0.4588497828
-0.002615946703
0.4602447446
0.00122098491
4.752160432e-05
0.4608780884
-0.001697157688
-0.4592284523
-0.002017081273
0.9179687321
0.0007521522762
0.001899877654
-0.001243529915
0.9178962065
0.0002318663159
0.9142680239
0.9140007646
-0.2290341173
-0.01338255631
0.2289931346
0.01342245636
-0.2303316953
-0.01265862265
0.2308778714
0.01210640729
-0.2308423654
-0.009827366303
0.2317405716
0.008923137226
-0.2305058669
-0.006271117888
0.2309729373
0.00580387057
-0.2304262378
-0.004713584447
0.2307786371
0.004361185198
-0.003123765738
-0.2302559392
0.2309201522
0.002459552725
-0.4628180833
0.0007530191843
0.461575514
0.000489550108
-0.4599194351
-0.0007030248765
0.4598388365
0.0007836235458
-0.0004444139514
0.9194698869
-0.0006524014354
-0.0004043394641
0.001231531278
0.9162202613
0.0005658887895
0.9149336663
0.9145666534
-0.2286697605
-0.02741110727
0.228461763
0.02761461352
-0.2330480844
-0.02664857045
0.2338977713
0.02578419113
-0.2357340678
-0.02175722827
0.2374417344
0.02003010872
-0.2351357817
-0.0142373648
0.2371140212
0.01224454675
-0.2343953391
-0.002048523069
0.2386640199
-0.002220947939
-0.003081090147
-0.2317460787
0.2317409464
0.003086222504
-0.4614697667
-0.004531336423
0.4625574424
0.00344366067
-0.4604787829
-0.002347129
0.4613617649
0.001464147056
0.002181982983
0.9191150483
-0.0009888809319
-0.0008382634544
0.001574799638
0.9168274446
0.0007167684314
0.9157916976
0.9152834218
-0.2273586422
-0.03890172031
0.2267756541
0.03947875753
-0.2364881051
-0.03920534487
0.2374625131
0.03821248047
-0.2433810354
-0.03223755104
0.245711871
0.02987756803
-0.2509873004
-0.01552457307
0.2501734362
0.01630447322
-0.2387347222
-0.01214090524
0.2411360948
0.009722208269
-0.004538551469
-0.2330365518
0.2335342675
0.00404083576
-0.464068763
-0.005126376454
0.4654868403
0.00370829907
-0.4621678132
-0.00273370103
0.4629820664
0.001919447784
0.002783839362
0.9205766678
-0.002462950165
-0.001782508623
0.001459931347
0.9181513526
0.0006461536658
0.9166054752
0.9159295755
-0.2240526528
-0.04352509033
0.2228661187
0.04471048587
-0.2414747068
-0.04291459707
0.2415820983
0.0427967804
-0.258456884
-0.03284958523
0.2563749171
0.03490050756
-0.255296169
-0.02959892139
0.2584133833
0.02644073321
-0.2495439219
-0.01680989895
0.2526205424
0.01370127766
-0.004976131296
-0.2367245865
0.2382387494
0.003458154973
-0.4666725964
-0.005079853425
0.4678405883
0.003911861525
-0.463390838
-0.003076814058
0.4637368674
0.002730784702
0.002038700066
0.9223535188
-0.001797516449
-0.002018034626
0.001033490935
0.9191565618
0.0003823037648
0.9172566624
0.9163118792
-0.0312256987
-0.1087824521
0.108209276
0.0317988748
-0.02522880328
-0.250667187
0.04771294321
-0.02562910949
0.1264941013
0.1273180553
-0.04057204557
-0.2604534321
0.2633598531
0.03764565605
-0.2681200599
-0.02711222052
0.2702032619
0.02498688106
-0.2610103967
-0.01813184369
0.2640004274
0.01509706558
-0.007074386186
-0.2444767221
0.2465885519
0.004945565227
-0.4689705061
-0.003958106776
0.4695419867
0.003386626159
-0.4645212383
-0.002434058755
0.4652843157
0.001670981425
0.0006795535759
0.9234685708
-0.0007724412525
-0.001022164363
0.0001356891457
0.9197004262
-3.195030516e-05
0.9174243019
0.9162799289
-0.03221745049
-0.1402224199
0.1431218131
0.02931805735
-0.03522139882
-0.2721415715
0.2752559619
0.03209587862
-0.2788759804
-0.02341190338
0.2815893425
0.02065496951
-0.2723914033
-0.01291135394
0.2747046629
0.01054926359
-0.006425068243
-0.2520605148
0.2538756389
0.004582005423
-0.4704770478
-0.001802503106
0.4712026969
0.001076854096
-0.4658635011
-0.0005950928694
0.4663187727
0.0001398212535
-0.00137899011
0.9237430714
0.0008161353916
0.0002883540922
-0.001124945696
0.9194463818
-0.0006077179425
0.9169070741
0.915672211
-0.01432966557
-0.1562536969
0.1567912309
0.01379213148
-0.0194105942
-0.281696688
0.2826926878
0.01840733454
-0.2875004268
-0.01470301792
0.2888841445
0.01326936038
-0.2803766493
-0.008491037317
0.2818441565
0.006961830432
-0.002666034244
-0.2577492032
0.2588757886
0.00150555287
-0.4721766411
0.001080312313
0.4729449212
-0.001848592473
-0.4664714655
0.00211692963
0.4664972154
-0.002142679456
-0.003813127499
0.9227587742
0.002624737252
0.002172687533
-0.002637070037
0.9182703243
-0.001352408341
0.9156224124
0.9143198027
0.003931530306
-0.1540838855
0.1530621545
-0.00290979937
-0.0012558057
-0.2831878297
0.2824677201
0.001967139857
-0.2917969659
-0.002211091099
0.2921433374
0.001808538181
-0.2850351445
5.982796531e-05
0.2856441778
-0.0007372801092
0.002280792002
-0.2602648383
0.2604904451
-0.002543362938
-0.472763802
0.00510847564
0.4721493762
-0.004494049907
-0.4661805709
0.004236366077
0.4663877596
-0.004443554716
-0.00645812261
0.9204848243
0.004660076657
0.004071995774
-0.004247400856
0.9160596026
-0.002143374102
0.9135183857
0.9121764286
0.01371128801
-0.1441814677
0.1427890441
-0.01231886436
0.01253407711
-0.2793995473
0.2784226065
-0.01157397377
-0.2928019135
0.01143621099
0.2904890965
-0.009186307671
-0.2862770776
0.00834229188
0.2858807527
-0.008021037252
0.006805390233
-0.2588447397
0.2582460268
-0.006243043472
-0.4712189628
0.008910541496
0.4700120953
-0.007703673974
-0.4664773965
0.006610331002
0.4654750156
-0.005607950034
-0.008884403009
0.9171329467
0.006317835006
0.005918445636
-0.005796881089
0.9129720807
-0.002857584883
0.9105790895
0.9093188437
0.01700687495
-0.1333900688
0.1320438881
-0.01566069416
0.02043783466
-0.2750854886
0.2744200393
-0.01980411072
-0.2889767043
0.01538479782
0.2916332145
-0.01811895249
-0.2838058286
0.01808335955
0.2828577064
-0.01721057736
0.01070367608
-0.2539836848
0.2522127278
-0.0089631308
-0.4685737271
0.01207748769
-0.01041191923
-0.4644206388
0.008937202264
-0.007654371624
-0.01105045408
0.006620387486
-0.007146059462
-0.003480400459
0.1595220414
0.01704965862
-0.1586750961
-0.008656122607
-0.009240481311
-0.1413738289
-0.03560360127
0.1447599797
0.1563368045
-0.002063911688
-0.1574447899
0.001774423638
0.001397473529
0.1599935573
-0.007124686855
-0.007676494629
0.145332276
-0.01299659207
-0.1468039457
0.007303690607
0.007164571159
0.1551503546
0.00274428352
0.002373696634
0.1338548749
-0.01680927178
-0.1351834396
0.01813783643
0.0151942891
0.1438492749
0.01857594355
0.1322858063
-0.1052876614
0.103945097
0.03270406533
-0.1377832927
-0.03629460154
-0.1233642634
-0.02688814718
0.1250236073
0.04295918972
0.009607774935
-0.04264768985
-0.009919274804
0.02622793754
-0.0720225821
-0.02850023478
0.07429487934
0.01621737003
-0.1554214083
0.2830781476
0.02401252203
-0.2806704218
-0.02642042617
-0.2699200937
-0.03906127879
0.2737579163
0.04896495804
0.0008569715186
-0.04906249251
-0.0007594370473
-0.04583623633
0.003630339875
-0.002998777346
0.0452046738
-0.001172606991
-0.1549751902
0.2838707963
0.005575463393
-0.2848810089
-0.004565275676
-0.02090158533
0.2845690683
0.03929240607
-0.004234824173
-0.03965339476
0.004595812856
-0.04248185769
-0.001666398202
0.00121505759
0.0429331983
-0.01160225178
-0.145575808
0.2754363562
-0.009458272542
-0.2778790842
0.01189963582
0.0003454320003
0.2822694609
0.0705424931
-0.01095162924
-0.07105520302
0.01146433916
-0.07438375227
-0.01007559187
0.07390021805
0.00535090038
0.005208225707
0.00803873866
0.03066547043
-0.007771370307
-0.03093283878
0.06386130481
-0.01121335636
-0.06430267815
0.0116547297
-0.06709430104
-0.01149524856
0.01187978835
0.06670976125
0.00419896764
-0.04621994446
-0.003815259516
0.009210591511
-0.009421848833
0.04317044704
-0.1536785639
0.02500014518
0.1557845938
-0.01330098618
-0.01380518886
-0.08394743787
-0.00880187967
0.08465777668
0.01730213237
0.04467518129
0.004377944239
-0.04485415789
-0.001482863742
-0.04201526756
0.001016273612
0.0001951712551
-4.125217923e-05
0.04881103896
-0.07944724843
0.002341425401
-0.002285394131
0.07939121716
-0.04748567627
0.0472910096
0.0003898379306
0.0418586043
-0.001716266526
-0.04162520152
0.04433594825
0.003969572915
0.0008710343438
-0.0474997391
0.003068148668
-0.07960158402
-0.002913813074
-0.009889540215
-0.07489797128
0.005221850727
0.005181908495
-0.004101548141
0.004286922898
0.03910703132
-0.1511568324
-0.009871100644
0.1497094172
0.005777659771
0.00554085602
-0.07814303106
0.004086502985
0.07760359949
-0.007648619558
0.07416443092
-0.009416491913
-0.07463747922
0.04207566887
-0.001883462773
0.004076749958
-0.007378635783
-0.03966248163
-0.03941348777
-0.008644340545
-0.1524874121
0.00510674505
0.004868175243
-0.01141483048
-0.06756106174
0.01188159118
-0.01118159641
0.01159020272
0.07013388679
-0.02916807782
-0.007376497621
0.006910850363
-0.02948189198
0.00835255283
0.01145785813
-0.007376595347
0.03156741596
0.01350274346
-0.0449209569
-0.0001492025204
0.02052974017
-0.036731485
-0.02265071787
0.03885246271
0.04532048787
-0.007703947809
-0.0374425019
-0.0001740381614
-0.01554850433
-0.1346508363
0.2679055302
-0.01882651565
-0.2694078852
0.02031822639
0.01473104173
0.2732367558
0.03830945457
-0.007333771023
-0.03077076419
-0.000204919359
0.06499857075
-0.01315740738
-0.06560363455
0.006912816864
0.006849654316
-0.0334476646
-0.006603153416
0.006699660626
0.03335115739
-0.07192957813
0.07378185592
0.02437565976
-0.009910689487
0.01854218509
-0.08297115854
0.02734809589
-0.1510796806
-0.01477607693
-0.01517090228
-0.00665129424
-0.03359780698
0.006801436617
-0.03561555663
-0.006842722905
0.007300422341
0.03515785719
-0.1395061886
-0.01601952287
0.0174805029
0.1380452085
-0.07058203854
0.07009521092
-0.01069476878
0.06714107526
-0.01097302253
-0.06758288321
0.07371166171
-0.009622822656
-0.01056065384
-0.07097301394
-0.01557516643
-0.1409719455
0.01704092338
0.02190115256
-0.05216841093
-0.02056857228
0.05083583064
0.02625533685
-0.06984522612
-0.02843269284
0.04050389736
-0.1230867056
-0.02117195092
-0.02235561989
0.06249831104
0.06361206804
-0.05590447485
0.05492781938
0.02287780803
0.03233048207
-0.0007630661057
-0.08044014685
0.02336563383
0.08227485244
-0.012464986
-0.01273535342
-0.04302913604
0.05878619378
0.01657342433
-0.03648098226
0.03818573022
0.01882499221
0.01538558251
-0.04491197509
0.02444468476
-0.07853051084
-0.01305558511
-0.01329873565
-0.04125544923
0.002636734223
-0.002620847874
0.04123956288
0.002320209168
-0.0415739371
-0.00200172129
-0.03999264239
-0.003208166499
0.003125362024
0.04007544687
-0.003445399016
-0.04030570514
0.003758461763
-0.006173134131
0.03654690981
-0.03558981606
0.005216040383
-0.00969656687
0.02197688223
0.03304017251
-0.07243375093
-0.01069163384
0.01109602445
0.07202936032
-0.03844478956
0.03661330633
-0.007865083636
0.03656155246
-0.006377689167
-0.03635699742
-0.03412822451
0.03816613725
-0.003804947317
-0.0002329654226
-0.006898551687
-0.03925018568
-0.01054101571
-0.07287984561
0.005527489997
0.005459620389
0.06298027261
-0.01281030039
-0.06349500401
0.01332503179
-0.01310905396
0.06444045084
0.00684159041
0.006825583461
0.01868385741
0.02855539105
-0.008929793893
-0.04419577802
0.006370048667
-0.006129331873
0.04395506122
0.006802709148
-0.04424230716
-0.006756180003
-0.0397837645
-0.0009461868439
0.0008401515565
0.03988979979
-0.001303066568
-0.03997055632
0.001489858384
0.04061048983
-0.001014550546
-0.04089900586
0.0815293112
-0.0001839259058
-0.08184036569
0.0004949803978
-0.08261639013
0.001795120517
-0.001579314255
0.08240058387
0.08022720292
-0.002468409849
-0.0805736158
0.002814822732
-0.0007883610397
0.001097305201
0.08122036704
0.04059095798
-0.0009266549934
0.04197596404
0.002474618659
-0.04213037353
0.08307191231
0.005531692019
-0.08312612251
-0.005477481816
-0.08304534918
0.008002322246
-0.00808139177
0.0831244187
0.00250338157
-0.08279618923
-0.002323582465
0.00475277329
-0.004687641476
0.08300678049
0.04209213241
0.002520565856
-0.03830234797
-0.00462861888
0.004814551525
0.03811641532
-0.001866052092
-0.03218406656
-7.81058549e-05
-0.00465749221
-0.03852958506
0.004884729305
0.00616435464
0.03672021501
-0.006323017187
0.006938961606
0.03509028265
-0.006621099345
-0.03540814491
0.0688160205
-0.01132384139
-0.06925546569
0.01176328657
-0.03611666418
0.007440069165
0.005486096302
0.03722516815
0.01892574177
-0.0002418843557
-0.01271090745
0.01308138568
0.03761649998
-0.0398299709
0.002213470919
0.03447580447
-0.006976289294
-0.03452955495
0.007030039769
-0.0320550224
-0.006940545058
0.006585678759
0.0324098887
-0.005872295426
-0.01101905658
0.01082661802
0.006064733992
-0.007648471253
-0.03297828672
0.008571735569
-0.03011966365
-0.007649924779
0.00636008704
0.03140950139
0.0288678168
-0.04756738464
-0.0270460604
0.02245151565
0.02329411259
0.01994194889
-0.0348622878
-0.02181114609
0.02963038338
-0.0587847604
-0.0314782535
0.06063263052
-0.05228651767
0.03149797641
0.02416835912
0.02548799893
-0.04615854322
0.003940261257
-0.005867641389
0.04808592335
-0.04163850867
0.04087676703
0.0009087824061
-0.0001470407619
0.03973720206
0.0006176311262
-0.03999477877
-0.0003600544172
0.04317717954
0.002736097026
-0.04381638067
-0.002096895898
-0.04073490834
-0.003677395023
0.003825646373
0.04058665699
-0.04280645246
0.003525448328
0.04319226752
-0.003911263388
0.03802217528
0.006962646386
-0.006010594435
-0.03897422723
-0.0376615372
0.03778056676
1.52979842e-05
-0.0001343275505
0.04343631892
-0.003554041486
-0.03965507945
-0.0002271979851
0.04310485176
-0.002960270787
-0.04344387998
0.003299299013
-0.04448530792
0.006127792457
-0.007050831222
0.04540834668
-0.04045903489
-0.02830479767
0.05712062174
0.01164321082
0.001893860624
-0.04333975708
-0.0001926122132
0.04347619047
0.006739002409
-0.04341248373
0.08206750245
0.01248398329
-0.08166191041
-0.01288957532
-0.07990518292
0.01517003138
-0.01584378929
0.08057894083
0.008874828835
-0.08290431218
-0.009015865824
0.01156147199
-0.01190486704
0.0824108975
0.04343828379
0.006407955344
-0.04077544228
-0.001106484588
0.0007242063437
0.04115772052
-0.03724075908
0.03731948496
0.0001843958524
-0.0002631217343
0.000149588131
-0.03752783291
-0.0002832924199
0.04537235882
-0.002716791826
-0.04743651331
0.004780946322
0.003676819602
0.03869283089
-0.004347475216
0.002568881002
0.04192380359
-0.003504769165
-0.04098791543
0.03915477679
-0.004226734722
-0.03911692468
0.00418888261
0.07608892915
0.004547204594
-0.00855745732
-0.07673616863
-0.007183424019
0.07518851323
-0.07562097805
0.007615888839
-0.0769139165
-0.0062978572
0.006725392463
0.07648638124
0.04005304982
-0.003183072061
-0.04031537678
0.07862589283
-0.004415495014
-0.07907189984
0.004861502026
-0.002992231389
0.003349100654
0.07987033365
-0.00593673719
-0.07735999921
0.0063828199
-0.0048294068
0.005235820918
0.07821947871
0.04000660675
-0.003161723423
-0.01135984584
0.0117377113
0.06843815505
0.03482042986
-0.006572870115
0.06684576382
0.006648682953
-0.0128097012
-0.06733603982
-0.03755409005
-0.009347596993
0.01877440297
0.02812728407
-0.04242961519
0.01993444763
-0.0203637123
0.04285887985
-0.03250328795
0.04272263867
0.02739714926
0.02026427553
-0.04161447273
-0.02107941799
-0.02891610696
-0.002271253997
0.03137458027
-0.0001872193212
-0.006135653477
-0.02255414487
-0.0002263086124
0.03355211314
-0.007281167512
-0.03372019791
0.007449252278
-0.007471581753
0.008007694492
0.03393969173
0.01945136648
-0.01918110089
-0.0002702655888
0.01287580379
-0.01518565329
0.002722987386
-0.01245957279
0.01161020261
0.002314149617
0.006595269733
-0.03141128663
0.03272942668
-0.007913409783
0.009262418839
0.03327433703
-0.008148837162
-0.03438791871
0.03426400287
-0.006757605876
-0.03458967712
0.007083280119
-0.0409319769
0.02007473209
-0.02093506362
0.02770514422
-0.0001748108647
0.03232242963
-0.03154983167
-0.000772597959
0.0464831382
0.01315919472
-0.04540692823
-0.01423540469
-0.04301509482
0.01402964073
-0.01482441386
0.04380986795
0.04814735802
0.0120235301
-0.04611747032
-0.0140534178
0.01231014324
-0.01259357349
0.04676656846
0.01428042098
-0.04232317257
-0.01497234323
-0.03967748581
0.01525682551
-0.01614962301
0.04057028331
-0.04261867245
0.04390262761
0.01865049247
-0.03829082959
0.0374020544
0.001209953881
-0.0003211786907
0.02666162665
-0.02656979158
-9.183506743e-05
0.004474607281
-0.04373255574
-0.006900594759
0.002547279438
-0.001950002879
0.04257990298
0.03942035202
0.0005469848763
-0.0002301348358
0.0006669931205
-0.03878223544
-0.0001755872715
0.0004096122384
-0.03800528624
0.03940711209
-0.001811438088
0.001056629326
-0.002188665578
-0.0416744162
-0.003432674132
-0.04059225725
0.003290023047
0.0379160741
-0.03650198467
-0.0003574601023
-0.03449129903
0.03546536621
-0.0005644549409
0.03589834035
-0.03547875957
0.006543065604
0.04183845894
-0.0003969365129
-0.002167679025
-0.03218049308
-0.0001431269242
-0.003516738022
0.004401354986
0.04222023479
0.05136836065
-0.007712300486
-0.0002197412453
-0.003592855261
-0.03658011
-0.03777452145
-0.007031867675
0.007590339218
0.0372160499
-0.00546647748
-0.03632437099
0.004016327028
0.03788736099
-0.006080991918
-0.03727284655
0.03617326104
-0.005973533244
-0.03628165921
0.006081931406
-0.03718544992
-0.005850527856
0.006286987333
0.03674899044
0.03407759352
-0.006929692595
-0.0332835544
0.03730391732
-0.005858204361
-0.03765857187
0.006212858918
-0.03842841759
-0.00535766746
0.005221630092
0.03856445496
-0.005803356109
-0.03742821381
0.006046120004
-0.005656815013
0.005657794784
0.03730293755
0.03615982818
-0.004353488663
0.007300687162
0.03220131092
-0.007541594184
-0.0319604039
0.03249634467
-0.007080176045
-0.03274741773
0.007331249103
-0.007321784624
0.007671076391
0.03320282138
-0.002303834104
-0.04698355489
0.0450615272
0.00422586179
-0.008444300179
0.008897390147
-0.04091212486
0.006239585396
-0.04387076023
-0.006854133083
0.02825604545
-0.03645493961
-0.0002454060115
-0.04313031464
0.04097846652
-0.0001519859843
-4.875222691e-05
0.04198703806
0.006332389838
-0.04471929539
-0.003600132502
0.0103431598
-0.01114215871
0.04894635693
0.005182707987
-0.04811293572
-0.0002000869025
0.0093734278
-0.008425241632
0.04103885189
-0.04336303817
0.007951072787
-0.008220058997
0.04363202438
-0.04364701912
0.04400859812
0.0090118488
0.006089944855
-0.04789079176
-0.03667016735
0.03696659924
2.923843909e-05
-0.0003256703314
0.0002562889879
-0.03707271393
-0.0004243341415
-0.0009870532209
-0.04043054299
0.0006421539281
-0.003218148365
0.005790442105
0.04280006508
0.02582451671
-0.02550134114
-0.000323175561
-0.000559631728
-0.03603336981
-7.716580945e-05
0.03955518762
-0.005896245977
-0.04028910851
0.006630166865
-0.03819749197
-0.005166244543
0.004376364332
0.03898737219
-0.00519010295
-0.03802127441
0.004782959764
-0.006280505667
0.007441738187
0.0383939551
0.02308947463
-0.02270768193
-0.0003817927057
0.04196624827
-0.04058906665
0.001191699381
0.001970401284
0.03760475867
-0.006592784004
-0.03889319034
0.007288482369
-0.004279083026
0.003659946962
0.04258538434
-0.02065247224
-0.0002825913838
-0.03590693437
-0.0065373555
0.006285387476
0.03615890239
-0.02726776223
0.03038961374
-0.002997907163
-0.0001239443438
-0.00960175748
-0.04246200139
-0.005989508912
-0.02112347183
-0.0001547814861
-0.00693492349
-0.0361923996
0.007220388723
-0.03002217811
-0.0002312247827
0.02968327267
-0.1372016273
0.03772413255
-0.2666685383
-0.04097978856
-0.2570368115
-0.04324070052
0.2596931356
-0.02515151162
0.02804825528
-0.002661537655
-0.0002352060062
-0.0195929969
-0.005374362676
-0.0001841520431
0.02156589641
0.2667628687
-0.01928511687
-0.0003078800334
0.0667570701
-0.01111124339
-0.02094082884
-0.1296035026
0.01121474845
-0.01687000272
-0.1296076376
0.01817556182
0.01951168048
-0.01994645783
-0.0185111776
0.01894595496
-0.01936032536
-0.01138455883
0.01748891408
0.01325597011
-0.008276061128
0.00940184701
-0.01214484246
0.0263139783
-0.03009371642
-0.03605023279
0.02100074644
-0.02727272374
-0.0219327052
0.0282046825
-0.02268786189
0.02126101238
0.02093852999
-0.1294313083
0.03182465547
-0.03405450367
0.1316611565
-0.1260791117
0.1279842958
0.03859871329
0.02435938084
-0.07003362212
0.01055871805
-0.04170656953
-0.0108629445
0.04201079598
-0.04494709234
0.04542424834
0.01183298723
0.04715632902
0.01097640952
-0.04610920844
0.03134478525
-0.006962230568
-0.03156301336
0.007180458683
-0.007019622678
0.007417074288
0.03209889306
0.031316096
-0.008462382075
0.006575019426
0.06634743132
-0.01267984034
0.06505082466
-0.01266310486
-0.06554512718
0.06547296005
-0.01141168851
-0.06590901004
0.01184773849
0.04757582058
0.009923668234
0.007700744487
-0.04501537377
0.008193925713
-0.04328966455
-0.008267299326
-0.02614982951
0.005408400829
0.007842098546
-0.02916940748
-0.008154583055
0.03522117023
-0.02710204821
-0.0002770234745
0.01742389355
-0.006879409445
0.007012586674
-0.0597085967
0.01552793219
-0.0007402923967
-0.03339777573
-0.003806883975
-0.0002378421925
-0.03264219882
0.03280631537
-0.007497887568
0.004770598478
-0.03083124791
-0.006581549391
-0.02573726149
-0.0002629042229
-0.0333379721
0.03335353051
-0.006956103458
0.03413240017
-0.006908859661
-0.0341998298
0.03304963257
-0.006572457862
-0.03315383685
0.006676662134
0.01603175039
-0.07912502129
-0.01681191202
-0.07622834106
0.01834310031
-0.01940722528
0.07729246603
-0.07907317937
0.08057941397
0.02185939923
-0.006666023329
0.006983830371
0.03394619583
0.0333123869
-0.007687974646
-0.007254402361
-0.033732041
-0.06495762221
0.02463711315
-0.02577656696
0.06609707603
-0.06131673679
0.06239146015
0.02855566003
0.01851214355
-0.03505117693
0.01456467229
0.04487290523
-0.0006513837428
-0.04545231211
0.04513559384
0.01488139056
-0.0444960298
0.01561714202
-0.03024052576
0.03046761098
-0.0002270852284
0.01005678257
-0.04003677659
-0.0002605317404
0.007179034835
-0.0356293802
-0.007139470698
0.03329305093
-0.032196444
0.006082427903
0.002968275263
0.03554081605
0.02211632273
-0.0001394405
-0.006388252193
0.02856838507
-6.381015162e-05
0.03406922151
-0.007417301189
-0.006021878346
0.03545326222
-0.03558435787
0.006152974
-0.005925815262
0.006131032701
0.0359680436
0.03749958171
-0.006644088396
-0.007567470578
0.04608282387
-0.0003492160474
-0.03951301848
0.03856770562
-0.006622157715
-0.03855403018
-0.004763935617
-0.007371893934
0.005832555139
0.03009472985
-0.03200203316
0.03231396054
-0.007683821309
-0.008125511692
-0.03318045
0.03521125365
-0.001797003345
-0.000233800304
-0.03052541348
-0.002337836215
-0.0003172003087
-0.03669836495
-0.003721717324
0.002377906712
-0.03469096734
-0.004385304317
-0.02965346723
-0.0001526926205
-0.02365356282
-0.006581368617
-0.0002904820343
-0.02345115936
-0.0002024034682
-0.004273275384
0.004422676209
0.03900537597
0.04212850871
-0.004483788142
0.03912013688
-0.005870372441
-0.03984254844
0.02507351878
-0.0003152218681
-0.03210940634
0.03950473539
-0.007150368096
-0.0002449609552
-0.003748637531
-0.0003125135319
0.03014242729
-0.02893111121
-0.004927044375
0.03240793401
0.03362416758
-0.006141323258
0.008632453265
-0.002861368491
0.00505553325
-0.007676523283
0.01374125728
0.002190036775
0.006442416491
0.007370626369
-0.03305414154
-0.007294771544
0.0396444925
-0.03198344208
-0.00029042405
0.02686075008
-0.02033909801
-0.000161565029
-0.004955416208
-0.0001672757953
-0.006600056366
-0.03140461683
0.01788311406
-0.0186290817
0.03215058447
-0.02944497303
0.03030907295
0.02013664653
0.02561827094
-0.03180758058
-0.04665044619
0.04281332537
0.004025167289
-0.0001880464656
-0.05466740562
0.008347622685
-0.0003306632576
-0.04155271128
0.04117339513
0.0004669259867
-8.760983463e-05
0.001443502451
-0.0001828883648
0.0006575257868
0.04042466853
-0.000205427286
-0.04581044525
0.04487609142
0.001591879615
-0.04694644815
0.00204478531
-0.04404891017
0.04336522655
0.001301314741
-0.0005562473105
0.00138342856
-0.0001263575474
-7.702284777e-05
0.03831872694
-0.0004611373327
-0.04319348568
0.04402713812
-0.0009106752895
-0.04260514418
-0.0005730435208
-0.04488353595
0.04493863026
-0.003609135794
0.0009643342237
-0.001820732049
-0.0003720182796
0.009308271479
0.04781711017
-4.7599121e-06
-0.04673970076
0.04850556032
0.007542411921
-0.04380862272
0.008712132777
-0.04814251436
0.003089926834
-0.004722282852
0.005085328814
-0.0002449297626
0.0001082176991
0.03731729413
-0.0001060268638
-0.04112745407
0.0415240155
-0.0002883437266
-0.04071761432
-0.0002254439013
-0.04206327869
-0.0003922773546
-0.0002468676088
-0.0002923955834
-0.0004574063889
-0.04126329704
0.04239048195
-0.0007490381027
-0.0003781468065
3.78762071e-05
-0.0001277781169
-0.04583425793
0.05349931773
-0.007345829953
-0.000319229849
-0.003288663072
-0.0001551129098
-0.01776573192
-0.000225963145
0.01917733601
-0.0004029330381
-0.007622241947
-0.0003024702526
-0.008664365352
-0.0003418383707
0.03550892457
-0.055258752
-0.0006138848712
0.03672190929
-0.001212984721
0.01987219245
0.04308281306
-0.0003601743905
-0.03736793083
0.05545014361
0.02500060027
0.02513178095
-0.03510256252
-0.03514410881
0.03542535143
-0.000281242616
0.02075678824
-0.0004507534448
-0.001764348381
-0.0002588470759
-0.02215878147
-0.0003953633941
-0.00603280776
-0.0002530872459
-0.02937507029
-0.00748898538
-0.009051435787
-0.01179520168
-0.03300968983
-0.007660973712
-0.000261313361
-0.0002643659164
-0.005116191729
-0.0001883538796
-0.04376841462
0.06009952648
0.01599131777
-0.01354139818
0.0149085774
-0.0002183246159
-0.01184534438
-0.04606591256
0.01179378662
0.04337464984
-0.04516321165
0.05978884303
-0.04800805499
0.008407162143
-0.0004358837444
0.01266443295
-0.0005729614603
0.002920228589
0.03465654604
-0.0001747202196
-0.03968626513
0.03848073893
0.004125754791
-0.04067800731
0.002201696054
-0.03861061659
0.01060483762
-0.008297390572
0.008167512913
-0.0002106361149
0.0005002213725
0.03908221007
-0.0001620794206
-0.0427050126
0.04205912616
0.001146107817
0.001207198827
-0.04143298152
0.001421967337
-0.000561027671
0.001187172305
-0.0002610530489
-0.001255401746
0.0001032015351
0.0405593123
-0.03985347287
-0.002270724116
0.04086879525
-0.03893580423
-0.002729106732
-0.03595654546
-0.0002805504136
-0.0002648888019
-0.0003879777116
0.0239378798
-0.04978759654
-0.009629042834
0.02418912669
-0.0002512468891
0.03117682688
-0.0004446345826
-0.007684160085
-0.0002649775055
-0.02501509965
-0.007043161973
-0.0001222314615
-0.02464811828
-0.0003669813651
-0.009737373794
0.03645761616
-0.04300843811
0.04000053863
-0.00672947431
-0.00578210834
-0.03858384178
-0.003944817716
0.007165655814
-0.005748958964
0.04411103724
-0.03625450261
-0.0002661954063
-0.009396254724
0.02131084796
-0.007809585021
0.02161896696
-0.0003081189969
-0.02788726249
0.03106150084
-0.0002059630841
-0.0001858676277
0.003015463954
-0.005270613438
0.03187606446
-0.0002922154371
-0.000362111123
-0.03666136192
-0.006631150491
0.03636281981
0.009359512
-0.0074531683
0.003889673072
0.04289307562
-0.001721221491
-0.04490559363
0.04351312193
0.005282144771
0.00548872064
-0.04616845248
-0.04271528781
0.007804055243
-0.005354633688
0.006152467804
-0.003373682925
-0.03925452837
-0.000574094163
2.716654689e-06
-0.003179505202
-0.04736492595
0.005825135759
0.04054988264
-0.04331615921
-0.000413228625
0.03714981383
-0.000200063698
0.04891026419
-0.0002635798717
0.005951478013
-0.0003573730375
0.007532908989
-0.05793118953
0.01010914219
-0.0002908883841
0.02879137049
-6.679829031e-05
0.02918751061
-0.0003961401148
0.01229517297
0.0001494350639
0.03708928483
-0.0002721206566
-0.0395798446
0.03997195052
-0.0002426708582
-0.03905471887
-0.0004958872887
-0.04029020176
-0.0001711235667
-0.0001168936879
-0.0002013575575
-0.0001003227817
-0.007507798886
0.03354765674
-0.000215341146
-0.0376396292
0.03733305868
-0.00720122837
-0.009641652609
-0.03831337914
-0.00130097146
0.002232740206
-0.003213060661
-0.0002529728682
-0.03924985325
0.04713760277
-0.007789857937
-9.789158469e-05
-0.003880839243
-0.0001577603541
-0.006359776932
-0.000204215661
-0.03396794337
-0.007082800904
-0.009538022529
0.0005130901119
-0.03917246187
-0.00192969489
0.03520879488
-0.03448050472
-0.0002152000503
0.03674099612
-0.000340501858
0.03354648212
-0.0003992539624
-0.0006359593121
-0.0002980632819
-0.002203662516
0.009902147161
-0.04128185875
-0.007513478747
0.03517851096
-0.04872752316
0.03588562471
0.04070567851
-0.0003047354322
-0.007805185374
-0.0002166592692
-0.006501659791
-0.004047401422
0.03465493372
-0.0002179185653
-0.03503311739
0.03657389972
-0.005588183754
-0.03275777277
-0.005273251783
-0.03626207771
-0.008207088036
0.03486740827
0.007540107644
-0.00722828563
-0.0002669600204
-0.03537090009
0.04313793306
-0.007536898496
-0.0002301344743
-0.004004979607
-0.0003044196417
-0.03159765784
-0.007149623843
0.02087840924
-0.009338134018