/*--------------------------------*- C++ -*----------------------------------*\
| =========                 |                                                 |
| \\      /  F ield         | OpenFOAM: The Open Source CFD Toolbox           |
|  \\    /   O peration     | Version:  v2012                                 |
|   \\  /    A nd           | Website:  www.openfoam.com                      |
|    \\/     M anipulation  |                                                 |
\*---------------------------------------------------------------------------*/
FoamFile
{
    version     2.0;
    format      ascii;
    class       pointVectorField;
    location    "0.22";
    object      pointDisplacement;
}
// * * * * * * * * * * * * * * * * * * * * * * * * * * * * * * * * * * * * * //

dimensions      [0 1 0 0 0 0 0];


internalField   nonuniform List<vector> 
6506
(
(0 0 0)
(0 0 0)
(0 0 0)
(0 0 0)
(0 0 0)
(0 0 0)
(0 0 0)
(0 0 0)
(0 0 0)
(0 0 0)
(0 0 0)
(0 0 0)
(0 0 0)
(0 0 0)
(0 0 0)
(0 0 0)
(0 0 0)
(0 0 0)
(0 0 0)
(0 0 0)
(0 0 0)
(0 0 0)
(0 0 0)
(0 0 0)
(0 0 0)
(0 0 0)
(0 0 0)
(0 0 0)
(0 0 0)
(0 0 0)
(0 0 0)
(0 0 0)
(0 0 0)
(0 0 0)
(0 0 0)
(0 0 0)
(0 0 0)
(0 0 0)
(0 0 0)
(0 0 0)
(0 0 0)
(0 0 0)
(0 0 0)
(0 0 0)
(0 0 0)
(0 0 0)
(0 0 0)
(0 0 0)
(0 0 0)
(0 0 0)
(0 0 0)
(0 0 0)
(0 0 0)
(0 0 0)
(0 0 0)
(0 0 0)
(0 0 0)
(0 0 0)
(0 0 0)
(0 0 0)
(0 0 0)
(0 0 0)
(0 0 0)
(0 0 0)
(0 0 0)
(0 0 0)
(0 0 0)
(0 0 0)
(0 0 0)
(0 0 0)
(0 0 0)
(0 0 0)
(0 0 0)
(0 0 0)
(0 0 0)
(0 0 0)
(0 0 0)
(0 0 0)
(-9.863889807e-07 1.126147695e-05 2.775557562e-17)
(0 0 0)
(0 0 0)
(0 0 0)
(0 0 0)
(0 0 0)
(0 0 0)
(0 0 0)
(0 0 0)
(0 0 0)
(0 0 0)
(0 0 0)
(0 0 0)
(0 0 0)
(0 0 0)
(0 0 0)
(0 0 0)
(0 0 0)
(0 0 0)
(0 0 0)
(0 0 0)
(0 0 0)
(0 0 0)
(0 0 0)
(0 0 0)
(0 0 0)
(0 0 0)
(0 0 0)
(0 0 0)
(-6.144899482e-05 0.0001632421506 4.996003611e-16)
(-0.0003535176356 0.001024063757 3.080868893e-15)
(-4.624531977e-06 1.377275779e-05 4.163336342e-17)
(-0.0006704893173 0.002739172927 8.021361353e-15)
(-0.00166141849 0.006623264536 1.995625887e-14)
(-0.001967647623 0.008972219425 2.702005286e-14)
(-0.0009203658559 0.004294762504 1.257327575e-14)
(-0.001112402116 0.009050611356 2.650657471e-14)
(-0.001936104676 0.01550134504 4.668487819e-14)
(-0.001602703793 0.01712721752 5.158373728e-14)
(-0.0009530845828 0.01029949839 3.015643291e-14)
(0 0 0)
(0 0 0)
(0 0 0)
(0 0 0)
(0 0 0)
(0 0 0)
(0 0 0)
(0 0 0)
(0 0 0)
(0 0 0)
(0 0 0)
(0 0 0)
(0 0 0)
(0 0 0)
(0 0 0)
(0 0 0)
(0 0 0)
(0 0 0)
(0 0 0)
(0 0 0)
(0 0 0)
(0 0 0)
(-0.0001716144101 0.0003032903648 1.026956298e-15)
(-0.0009370648417 0.001767188445 6.022959909e-15)
(-0.0002220574201 0.0004320896751 1.415534356e-15)
(-0.003159408764 0.007708994656 2.541022948e-14)
(-0.005045023099 0.0119590913 4.068967385e-14)
(-0.006421093833 0.01665808003 5.663525204e-14)
(-0.004335398463 0.01156721491 3.810840532e-14)
(-0.006677138922 0.02476559134 8.151812558e-14)
(-0.008798369788 0.03182609723 1.080940892e-13)
(-0.008798601995 0.03661390494 1.243449788e-13)
(-0.00682730201 0.02909315274 9.575673587e-14)
(-0.005195930984 0.03979362665 1.310479503e-13)
(-0.006394275152 0.04816491798 1.63702385e-13)
(-0.004935188319 0.05076216743 1.726119248e-13)
(-0.004062598716 0.04225046776 1.391942117e-13)
(0 0 0)
(0 0 0)
(0 0 0)
(0 0 0)
(0 0 0)
(0 0 0)
(0 0 0)
(0 0 0)
(0 0 0)
(0 0 0)
(0 0 0)
(0 0 0)
(0 0 0)
(0 0 0)
(0 0 0)
(0 0 0)
(0 0 0)
(0 0 0)
(0 0 0)
(-7.383924149e-05 9.508540435e-05 3.747002708e-16)
(0 0 0)
(-0.003138755753 0.005016499818 1.894318036e-14)
(-0.004662556612 0.00717834851 2.81163981e-14)
(-0.00728550942 0.01201156957 4.697631173e-14)
(-0.005353517123 0.009150815922 3.451405828e-14)
(-0.01215121903 0.02626858922 9.876821583e-14)
(-0.01472520726 0.03078726703 1.199595978e-13)
(-0.01640535627 0.03762789899 1.464939281e-13)
(-0.01382453885 0.03277191717 1.231237334e-13)
(-0.01549297562 0.05153075262 1.934147287e-13)
(-0.01762059562 0.05675705096 2.207817262e-13)
(-0.01670691871 0.06208278962 2.415567746e-13)
(-0.01483925206 0.05692524877 2.136901767e-13)
(-0.00979455011 0.0689824741 2.594313653e-13)
(-0.01077179174 0.07359425851 2.869926519e-13)
(-0.008028882314 0.07589148749 2.963046475e-13)
(-0.007347017235 0.07148943865 2.69131939e-13)
(0 0 0)
(0 0 0)
(0 0 0)
(0 0 0)
(0 0 0)
(0 0 0)
(0 0 0)
(0 0 0)
(0 0 0)
(0 0 0)
(0 0 0)
(0 0 0)
(0 0 0)
(0 0 0)
(0 0 0)
(0 0 0)
(0 0 0)
(-0.0003412628118 0.0003700410009 1.637578961e-15)
(-0.0007760238315 0.0008056230134 3.73312492e-15)
(-0.002755183918 0.003014072678 1.396105453e-14)
(-0.001852584408 0.002115912068 9.381384558e-15)
(-0.01085621699 0.01482784625 6.543376951e-14)
(-0.01283871658 0.01681337209 7.741030039e-14)
(-0.01652201936 0.0231673057 1.064565103e-13)
(-0.0143294862 0.0209518541 9.228728892e-14)
(-0.02245715482 0.04164358585 1.824929097e-13)
(-0.02479247593 0.04402599718 2.013667011e-13)
(-0.02604653692 0.05070780327 2.316896675e-13)
(-0.02381463937 0.04847329599 2.121358644e-13)
(-0.0232062427 0.06655177559 2.907951657e-13)
(-0.02465403593 0.06745807159 3.076150445e-13)
(-0.02261877969 0.07137260095 3.256006575e-13)
(-0.02136171337 0.07061351293 3.087391454e-13)
(-0.01297700217 0.07861213784 3.449046604e-13)
(-0.01346130133 0.0774017263 3.544525784e-13)
(-0.009864659729 0.07801028558 3.578248808e-13)
(-0.009552866298 0.07975840204 3.504835311e-13)
(0 0 0)
(0 0 0)
(0 0 0)
(0 0 0)
(0 0 0)
(0 0 0)
(0 0 0)
(0 0 0)
(0 0 0)
(0 0 0)
(0 0 0)
(0 0 0)
(0 0 0)
(0 0 0)
(-3.248370828e-05 2.379040277e-05 1.387778781e-16)
(-8.863934705e-07 6.868340579e-07 1.387778781e-17)
(0 0 0)
(-0.002435799317 0.002191404512 1.171285291e-14)
(-0.003074237814 0.002624087126 1.47937218e-14)
(-0.006374826648 0.005740529742 3.227973444e-14)
(-0.005439041172 0.005160917314 2.753353101e-14)
(-0.01761147622 0.02004195583 1.061650767e-13)
(-0.01917042872 0.02071326496 1.155187057e-13)
(-0.02325274075 0.02690586289 1.496580637e-13)
(-0.02202600481 0.0268573482 1.41858747e-13)
(-0.03025561697 0.04665652139 2.451649994e-13)
(-0.03152360814 0.04610527127 2.550321065e-13)
(-0.03227624773 0.05163745175 2.854660952e-13)
(-0.03112373551 0.05252468179 2.758349105e-13)
(-0.02779830739 0.0649731554 3.416017469e-13)
(-0.02843036945 0.06278827204 3.477496069e-13)
(-0.02548195646 0.06432207616 3.56770169e-13)
(-0.02506701319 0.06712951663 3.532452109e-13)
(-0.01428374366 0.06814150647 0)
(-0.01457541835 0.06456440446 0)
(-0.01271289822 0.06452138516 0)
(-0.01074708092 0.06455527488 0)
(-0.01058621736 0.06632535088 0)
(-0.01049941463 0.06805533521 0)
(0 0 0)
(0 0 0)
(0 0 0)
(0 0 0)
(0 0 0)
(0 0 0)
(0 0 0)
(0 0 0)
(0 0 0)
(0 0 0)
(0 0 0)
(0 0 0)
(0 0 0)
(0 0 0)
(-0.0002926927116 0.00016471137 1.276756478e-15)
(-0.00016679775 0.000100934051 7.21644966e-16)
(-0.0001364551074 8.834226815e-05 5.967448757e-16)
(-0.004417277206 0.003153891846 2.123301535e-14)
(-0.004581357718 0.003057835854 2.202404925e-14)
(-0.008480012667 0.005975360153 4.289624211e-14)
(-0.008255284821 0.006221776286 4.175826351e-14)
(-0.02216245771 0.02005867635 1.332545185e-13)
(-0.02252466084 0.01906463678 1.353084311e-13)
(-0.02679594458 0.0242820078 1.717376241e-13)
(-0.02640542367 0.02558752634 1.694200336e-13)
(-0.03414440524 0.04168779226 2.744193761e-13)
(-0.03453351439 0.03939913131 2.769312557e-13)
(-0.03494366687 0.04351059216 3.057137876e-13)
(-0.03458169474 0.04610654153 3.033684415e-13)
(-0.02952028372 0.05391486641 3.558958683e-13)
(-0.02973244089 0.05058057536 3.56770169e-13)
(-0.02629895156 0.05086846165 0)
(-0.02615269587 0.05437041041 3.597400156e-13)
(-0.01512716483 0.05396768891 0)
(-0.0152091003 0.05219237212 0)
(-0.013372492 0.05212895532 0)
(-0.01329083044 0.05390148141 0)
(0 0 0)
(0 0 0)
(0 0 0)
(0 0 0)
(0 0 0)
(0 0 0)
(0 0 0)
(0 0 0)
(0 0 0)
(0 0 0)
(0 0 0)
(0 0 0)
(0 0 0)
(0 0 0)
(-0.0004804785773 0.0001891745343 2.109423747e-15)
(-0.0004339662094 0.0001891797414 1.90125693e-15)
(-0.0003807102666 0.0001820459218 1.665334537e-15)
(-0.005444290216 0.002874865067 2.615963002e-14)
(-0.005629979099 0.002711797054 2.704780844e-14)
(-0.009817434523 0.004997736252 4.961309141e-14)
(-0.009584346417 0.005347102062 4.844735724e-14)
(-0.0239598292 0.01607973247 1.435795927e-13)
(-0.02425996062 0.01486795369 1.45258805e-13)
(-0.02851853325 0.01871299926 1.819655537e-13)
(-0.02821786633 0.02027387306 1.802585858e-13)
(-0.03566785773 0.03218799657 2.840644386e-13)
(-0.03592633927 0.02959350414 2.854660952e-13)
(-0.03616657941 0.0324478443 3.129024817e-13)
(-0.03593178582 0.03533436412 3.117367475e-13)
(-0.03025669641 0.04037082954 3.581579477e-13)
(-0.03040950243 0.03693449229 3.583799923e-13)
(-0.02685168503 0.03693327719 0)
(-0.026716026 0.04040849076 0)
(-0.01570947082 0.03996735242 0)
(-0.0157783961 0.03822857975 0)
(-0.01394677889 0.03815542544 0)
(-0.01387761198 0.03989418837 0)
(0 0 0)
(0 0 0)
(0 0 0)
(0 0 0)
(0 0 0)
(0 0 0)
(0 0 0)
(0 0 0)
(0 0 0)
(0 0 0)
(0 0 0)
(0 0 0)
(0 0 0)
(0 0 0)
(-0.0007087943322 0.0001595207496 3.094746681e-15)
(-0.0006390186409 0.0001707559839 2.789435349e-15)
(-0.0005768951946 0.0001784761929 2.525757381e-15)
(-0.006092734633 0.00208814079 2.926825449e-14)
(-0.006280198516 0.001861879204 3.015643291e-14)
(-0.01062661731 0.003338539233 5.365152767e-14)
(-0.01039491096 0.003771567185 5.248579349e-14)
(-0.02500774212 0.01097397535 1.493388746e-13)
(-0.02530163146 0.009641507199 1.50948698e-13)
(-0.02956833335 0.01208250706 1.87766469e-13)
(-0.02927407321 0.01376639568 1.861288901e-13)
(-0.03660478811 0.02159812894 2.888106421e-13)
(-0.03685778276 0.01890486714 2.901151541e-13)
(-0.0370248349 0.02064658627 3.167605067e-13)
(-0.03679528841 0.02361437461 3.156780393e-13)
(-0.03084919317 0.02660479863 3.588379593e-13)
(-0.03099572988 0.02315800045 3.58990615e-13)
(-0.02738782613 0.02306144496 0)
(-0.02725438991 0.02652755155 0)
(-0.0162549899 0.02608702451 0)
(-0.01632259525 0.02435497507 0)
(-0.01449345858 0.02428232418 0)
(-0.01445949157 0.02514842295 0)
(-0.0144255538 0.02601379684 0)
(0 0 0)
(0 0 0)
(0 0 0)
(0 0 0)
(0 0 0)
(0 0 0)
(0 0 0)
(0 0 0)
(0 0 0)
(0 0 0)
(0 0 0)
(0 0 0)
(0 0 0)
(0 0 0)
(-0.00101511283 5.727725743e-05 4.440892099e-15)
(-0.0009321286074 9.188408612e-05 4.080069615e-15)
(-0.0008518701245 0.0001198857546 3.719247132e-15)
(-0.006866745808 0.001082913153 3.295974604e-14)
(-0.007073535036 0.0007885517285 3.394506898e-14)
(-0.01159733804 0.001388180546 5.848099782e-14)
(-0.0113458449 0.001909188154 5.723199692e-14)
(-0.02620404509 0.005459014135 1.558891904e-13)
(-0.02651606605 0.004003146819 1.575822806e-13)
(-0.03078073417 0.005032443229 1.944555628e-13)
(-0.03046991148 0.006841846345 1.927624727e-13)
(-0.0376271067 0.01067053975 2.940425681e-13)
(-0.0378893282 0.007875914589 2.953748357e-13)
(-0.03795509444 0.008561884454 3.210626209e-13)
(-0.03771970915 0.01161385341 3.199662757e-13)
(-0.03142771674 0.01279043293 3.593930709e-13)
(-0.0315689248 0.009328679059 3.594902154e-13)
(-0.02791819102 0.009188815038 0)
(-0.02778620385 0.01265699688 0)
(-0.01679354982 0.01221722598 0)
(-0.01686017311 0.01048352349 0)
(-0.01503418079 0.01041091876 0)
(-0.01500066779 0.01127776189 0)
(-0.01496708075 0.01214444068 0)
(0 0 0)
(0 0 0)
(0 0 0)
(0 0 0)
(0 0 0)
(0 0 0)
(0 0 0)
(0 0 0)
(0 0 0)
(0 0 0)
(0 0 0)
(0 0 0)
(0 0 0)
(0 0 0)
(-0.001283087767 -0.000143928242 5.606626274e-15)
(-0.001326911001 -9.285047176e-05 5.800915304e-15)
(-0.001211242161 -3.372716321e-05 5.301314943e-15)
(-0.007749962506 -0.000209455427 3.716471575e-14)
(-0.008014577105 -0.0005861927935 3.844147223e-14)
(-0.01272895562 -0.0009438735454 6.40876241e-14)
(-0.01241283054 -0.0003197198381 6.253331186e-14)
(-0.02751295922 -0.0005588736982 1.6298074e-13)
(-0.02789180092 -0.002151472037 1.650346526e-13)
(-0.03214277618 -0.002537376768 2.019356904e-13)
(-0.03176965782 -0.0005910297669 1.998817778e-13)
(-0.03870861359 -0.0006579934003 2.99538172e-13)
(-0.03900745444 -0.003557409688 3.010647287e-13)
(-0.03894477187 -0.003851690676 3.256284131e-13)
(-0.03868359529 -0.0007151802863 3.2439329e-13)
(-0.03198364217 -0.001064999376 3.596983822e-13)
(-0.03211905138 -0.004532488609 3.597261378e-13)
(-0.02844331611 -0.004679911953 0)
(-0.02831208631 -0.00121250628 0)
(-0.01732123274 -0.0016509138 0)
(-0.01738631925 -0.003384516941 0)
(-0.01556377397 -0.003456579269 0)
(-0.01553105663 -0.002589462031 0)
(-0.01549828475 -0.001722992371 0)
(-0.01380793192 0.04163567345 0)
(-0.01564003562 0.0417087667 0)
(-0.01439161603 0.02687917073 0)
(-0.01435763928 0.02774551112 0)
(-0.0161873813 0.02781915449 0)
(-0.01493350345 0.01301087785 0)
(-0.01489990991 0.01387771773 0)
(-0.01672677194 0.0139507609 0)
(-0.01546551936 -0.0008566837942 0)
(-0.01543266694 9.782616608e-06 0)
(-0.01725600464 8.21995965e-05 0)
(-0.01320417511 0.05567581159 0)
(-0.01504096491 0.05574272882 0)
(-0.001091569243 0.06774491457 0)
(-0.00116632158 0.06602347946 0)
(-0.02712069906 0.02999397056 0)
(-0.03070406213 0.03005021787 3.586991815e-13)
(-0.01801834768 0.02789244389 0)
(-0.01808571791 0.02616022362 0)
(-0.01754205452 0.04004054571 0)
(-0.01761081222 0.03830192762 0)
(-0.02765380424 0.01612540411 0)
(-0.0312854191 0.01624992517 3.592820486e-13)
(-0.01855540912 0.014023795 0)
(-0.01862194863 0.0122901698 0)
(-0.01815300434 0.02442808065 0)
(-0.01652520353 0.01915397804 0)
(-0.01469720093 0.01908121155 0)
(-0.01466318844 0.01994843789 0)
(-0.01462926949 0.02081534531 0)
(-0.01645775208 0.02088821183 0)
(-0.009215944393 0.01886310373 0)
(-0.009200104371 0.01929680428 0)
(-0.009185685124 0.01973048146 0)
(-0.01009881983 0.01976674908 0)
(-0.01013210745 0.0188994935 0)
(-0.008943260112 0.02579500181 0)
(-0.009857177622 0.02583146235 0)
(-0.009891827267 0.02496643986 0)
(-0.008978541092 0.02493032748 0)
(-0.008960686254 0.02536297869 0)
(-0.02818095654 0.002254419394 0)
(-0.03184439884 0.002400915194 3.596151155e-13)
(-0.01908248021 0.0001548238178 0)
(-0.01914746993 -0.001578379866 0)
(-0.01868824975 0.01055645431 0)
(-0.01705911222 0.005281491055 0)
(-0.01523442806 0.005208455058 0)
(-0.01520123398 0.006075391721 0)
(-0.01516794961 0.00694256676 0)
(-0.01699304947 0.007015296835 0)
(-0.009771683008 0.004991416612 0)
(-0.009752131729 0.005424725445 0)
(-0.01021150185 0.005443173987 0)
(-0.01022971134 0.005009730359 0)
(-0.009504303349 0.01192780429 0)
(-0.01041171651 0.01196351843 0)
(-0.01044618951 0.01109687537 0)
(-0.009539504465 0.01106110993 0)
(-0.009522583634 0.01149460554 0)
(-0.01921239861 -0.003312070046 0)
(-0.01758034793 -0.008584811307 0)
(-0.01666899474 -0.00862084572 0)
(-0.01663667037 -0.007753470614 0)
(-0.01754810734 -0.007717513494 0)
(-0.01026341152 -0.008875753267 0)
(-0.01025548687 -0.008441088066 0)
(-0.01073449579 -0.008420717959 0)
(-0.01074660039 -0.008854811196 0)
(-0.01001839728 -0.001940641604 0)
(-0.01049039118 -0.001920957817 0)
(-0.01051001793 -0.002353537556 0)
(-0.01004111031 -0.002372935509 0)
(-0.008100840695 0.04665198412 0)
(-0.008136874918 0.04577863563 0)
(-0.007220371765 0.04574287752 0)
(-0.007202339614 0.04617972461 0)
(-0.007184881269 0.0466155461 0)
(-0.008384793383 0.03967432343 0)
(-0.007464814503 0.03963713436 0)
(-0.007447661389 0.04007158867 0)
(-0.007432875781 0.04050734855 0)
(-0.008350586647 0.04054436546 0)
(-0.007772833507 0.05373422937 0)
(-0.007819577717 0.05284076243 0)
(-0.006896525019 0.05282277846 0)
(-0.006849837406 0.05371444224 0)
(-0.007147970663 0.04749202159 0)
(-0.008063989594 0.04752778437 0)
(-0.008925437762 0.02622684761 0)
(-0.008908143464 0.0266596021 0)
(-0.009822527977 0.02669648484 0)
(-0.008668510187 0.03272851069 0)
(-0.009581135788 0.03276499979 0)
(-0.009615847159 0.03189844702 0)
(-0.008703459932 0.0318620482 0)
(-0.01598351293 0.03302139146 0)
(-0.0160516087 0.03128718365 0)
(-0.01422120611 0.03121391699 0)
(-0.01415287196 0.03294803452 0)
(-0.007793572597 0.03182607292 0)
(-0.007776242834 0.03225890665 0)
(-0.007757638827 0.03269193101 0)
(-0.008483962481 0.02577655619 0)
(-0.008465890453 0.02620839192 0)
(-0.008419760049 0.03880544145 0)
(-0.0074999099 0.03876866095 0)
(-0.007480923695 0.03920296064 0)
(-0.007739711231 0.033125386 0)
(-0.007721076294 0.03355937718 0)
(-0.008633121999 0.03359584289 0)
(-0.009486274434 0.01236077117 0)
(-0.00946784931 0.01279356072 0)
(-0.01037677976 0.01282965875 0)
(-0.01016614917 0.01803154229 0)
(-0.009248871539 0.01799478487 0)
(-0.00923086638 0.01842896279 0)
(-0.01659260042 0.01741909666 0)
(-0.01476493623 0.01734594046 0)
(-0.01473107508 0.01821341492 0)
(-0.008765017633 0.01840993024 0)
(-0.00875089781 0.0188441842 0)
(-0.009053220787 0.0119100934 0)
(-0.009033874244 0.01234292646 0)
(-0.008502045812 0.02534464025 0)
(-0.008738514564 0.01927818553 0)
(-0.009996610472 -0.001508310339 0)
(-0.01047117039 -0.001488442376 0)
(-0.01024775325 0.004576441316 0)
(-0.009791222985 0.004558187995 0)
(-0.01712488137 0.003548964188 0)
(-0.01530057717 0.003476508224 0)
(-0.0152675994 0.004342082183 0)
(-0.009331688536 0.004539813497 0)
(-0.009309419903 0.004972690034 0)
(-0.009534356233 -0.001961456704 0)
(-0.009508117189 -0.001529547042 0)
(-0.009072177618 0.01147692193 0)
(-0.009287149579 0.005405808519 0)
(-0.0107636115 -0.009288545178 0)
(-0.01028155983 -0.009309280035 0)
(-0.01761257876 -0.009451867496 0)
(-0.01670122558 -0.009487901909 0)
(-0.009790792166 -0.009330931166 0)
(-0.009769053414 -0.00889779124 0)
(-0.009562073987 -0.002393226049 0)
(-0.009765347436 -0.008462713857 0)
(-0.026579138 0.0438881724 0)
(-0.03009500261 0.04379432596 3.578387586e-13)
(-0.01747286745 0.04178180866 0)
(-0.01696363532 0.05403452227 0)
(-0.01704466408 0.05226168427 0)
(-0.01542988146 0.04693483886 0)
(-0.01359656831 0.04686372977 0)
(-0.01352377361 0.04861643173 0)
(-0.01535724265 0.0486876762 0)
(-0.008979613157 0.04756374901 0)
(-0.009016467438 0.04668806991 0)
(-0.008690977749 0.05376550215 0)
(-0.00873841348 0.05286949127 0)
(-0.014084328 0.03468335366 0)
(-0.01591529763 0.03475656252 0)
(-0.009546311389 0.03363235472 0)
(-0.009301207671 0.03971088467 0)
(-0.009336174337 0.0388420027 0)
(-0.009266356605 0.04058090072 0)
(-0.009052422745 0.0458146779 0)
(-0.01550006946 0.04519276116 0)
(-0.01366728569 0.04512052787 0)
(-0.004596080958 0.04301622392 0)
(-0.004644175303 0.04258148489 0)
(-0.004238461612 0.04256560401 0)
(-0.004186333438 0.04300114839 0)
(-0.004070077309 0.05367093165 0)
(-0.004103250413 0.05320951506 0)
(-0.003639234561 0.05320284201 0)
(-0.003602655158 0.05367050642 0)
(-0.004260562828 0.05003707794 0)
(-0.003799865647 0.05002452949 0)
(-0.003777726815 0.05046998806 0)
(-0.004245132375 0.05048202459 0)
(-0.007218873982 0.06096380992 0)
(-0.007431798497 0.05911785604 0)
(-0.00649240565 0.05910577163 0)
(-0.005523072624 0.05911775416 0)
(-0.005415377544 0.06003269481 0)
(-0.005310251662 0.06093354078 0)
(-0.006794737289 0.05461826605 0)
(-0.00772775641 0.05461996578 0)
(-0.01020346977 -0.00540369732 0)
(-0.01064962334 -0.005386588605 0)
(-0.01066887662 -0.005819909458 0)
(-0.01022553549 -0.005836743385 0)
(-0.01381174394 -0.005262832486 0)
(-0.01384451257 -0.006129221604 0)
(-0.01293830103 -0.006164725934 0)
(-0.01290521348 -0.005298430351 0)
(-0.0139426444 -0.008728073292 0)
(-0.01303675502 -0.008763564626 0)
(-0.01300395065 -0.007896289554 0)
(-0.01391000436 -0.007860872264 0)
(-0.004403240205 0.04650746781 0)
(-0.004356152705 0.04605784548 0)
(-0.003788206668 0.04592817506 0)
(-0.003985981965 0.04649619554 0)
(-0.004131917284 0.04343361562 0)
(-0.004545432441 0.04344908514 0)
(-0.008245490371 0.0431598774 0)
(-0.007330820444 0.04312387055 0)
(-0.007312183003 0.04356052381 0)
(-0.007293798894 0.04399589653 0)
(-0.008209333726 0.04403226096 0)
(-0.005005901169 0.04346749732 0)
(-0.005048143009 0.04303365163 0)
(-0.004859761966 0.04652513188 0)
(-0.004842507599 0.04608049643 0)
(-0.004553583815 0.03950679901 0)
(-0.004515427309 0.03991596243 0)
(-0.005001990987 0.03996543726 0)
(-0.005001232004 0.03952945373 0)
(-0.00508797396 0.04259817593 0)
(-0.008281354091 0.04228675599 0)
(-0.007367359424 0.0422498083 0)
(-0.00734937281 0.04268632647 0)
(-0.00794815892 0.05017221997 0)
(-0.007031507192 0.05013854528 0)
(-0.006988487689 0.05103207049 0)
(-0.007905108054 0.05106512274 0)
(-0.004710500636 0.05049856919 0)
(-0.004726628426 0.05005313437 0)
(-0.004542186052 0.05366176844 0)
(-0.004567799747 0.05321436222 0)
(-0.004418117117 0.04695164433 0)
(-0.004863935748 0.04696745685 0)
(-0.004737721009 0.04960873073 0)
(-0.004265525831 0.04959263681 0)
(-0.007988070723 0.04928653982 0)
(-0.007071338331 0.0492522649 0)
(-0.003802088273 0.04957722689 0)
(-0.003995308166 0.04693958347 0)
(-0.008804073649 0.02925966638 0)
(-0.008343603364 0.02924109278 0)
(-0.008328109805 0.02967440395 0)
(-0.008787165813 0.02969283982 0)
(-0.005137264224 0.03259018817 0)
(-0.005541882553 0.03260602487 0)
(-0.005574179989 0.03217411757 0)
(-0.005171124159 0.03215834389 0)
(-0.008820504734 0.02882631236 0)
(-0.008359591473 0.0288077209 0)
(-0.008526680076 0.03619871568 0)
(-0.007610886091 0.03616177609 0)
(-0.007591888447 0.03659655936 0)
(-0.007573815471 0.03703121857 0)
(-0.008490978792 0.03706781003 0)
(-0.004860089595 0.03604960951 0)
(-0.004824687531 0.03648308571 0)
(-0.005242039293 0.03649983939 0)
(-0.005276278314 0.03606639696 0)
(-0.005027329729 0.03909624761 0)
(-0.004594047183 0.03907804462 0)
(-0.005103599143 0.03302220166 0)
(-0.005509564068 0.03303825402 0)
(-0.005309945357 0.03563333481 0)
(-0.004895195077 0.03561668606 0)
(-0.008562255336 0.03533074565 0)
(-0.007647682329 0.03529393598 0)
(-0.007629039473 0.03572752348 0)
(-0.009357672372 0.01539483076 0)
(-0.008896602834 0.01537631367 0)
(-0.008876880861 0.01580945427 0)
(-0.009338615642 0.01582807887 0)
(-0.009375595162 0.01496129489 0)
(-0.008916225044 0.01494284635 0)
(-0.00908484332 0.02233091796 0)
(-0.008629941548 0.02231289167 0)
(-0.008611669317 0.02274609075 0)
(-0.009067123575 0.02276421999 0)
(-0.009102646856 0.02189753863 0)
(-0.008648163897 0.02187952923 0)
(-0.009921516616 0.001528391597 0)
(-0.009476257049 0.001511318943 0)
(-0.009461860272 0.00194523905 0)
(-0.009906193615 0.001962274343 0)
(-0.009932512996 0.001094172986 0)
(-0.009481781567 0.001076556929 0)
(-0.009620894412 0.008458517392 0)
(-0.009142858357 0.008438428544 0)
(-0.009132187391 0.008872579608 0)
(-0.009606533101 0.008892358257 0)
(-0.009637311082 0.008024920777 0)
(-0.009158517939 0.00800480139 0)
(-0.01397535849 -0.009595109988 0)
(-0.01306979127 -0.009630588328 0)
(-0.009760898588 -0.005420419518 0)
(-0.009732935691 -0.004987772666 0)
(-0.01018062435 -0.00497052136 0)
(-0.009787719356 -0.005852951094 0)
(-0.003716704708 0.05735522782 0)
(-0.003831013684 0.05642851764 0)
(-0.002861899906 0.05643806465 0)
(-0.002716007048 0.05737059194 0)
(-0.00356142867 0.05413937981 0)
(-0.004030391143 0.05413961789 0)
(-0.01008684786 0.008477554169 0)
(-0.0101036914 0.008043974772 0)
(-0.01327796587 0.008604416066 0)
(-0.01331173349 0.00773726052 0)
(-0.0124012695 0.007701181302 0)
(-0.01236734405 0.00856824981 0)
(-0.01341262388 0.005136019263 0)
(-0.01250288477 0.005099969283 0)
(-0.01246904311 0.005966960498 0)
(-0.01337902385 0.006003020224 0)
(-0.01314286034 0.01207190742 0)
(-0.01317668901 0.01120523837 0)
(-0.01226558394 0.01116905263 0)
(-0.01223159419 0.01203571518 0)
(-0.01233349914 0.009435321566 0)
(-0.01324428204 0.00947149432 0)
(-0.01007056811 0.008911156307 0)
(-0.0136791157 -0.00179475717 0)
(-0.01371229029 -0.002661210586 0)
(-0.01280439388 -0.002696944221 0)
(-0.01277081983 -0.00183058759 0)
(-0.01287168424 -0.004431184518 0)
(-0.01377869794 -0.00439556716 0)
(-0.01062988032 -0.004953126162 0)
(-0.01027120498 0.01543103375 0)
(-0.01030643208 0.01456369506 0)
(-0.00939447328 0.01452747487 0)
(-0.01300701045 0.01553985279 0)
(-0.01304110998 0.01467246862 0)
(-0.01212928329 0.01463617309 0)
(-0.01209502268 0.01550355076 0)
(-0.01219754015 0.01290197178 0)
(-0.01310896413 0.01293825106 0)
(-0.007725117665 0.01185918504 0)
(-0.007694034845 0.01229098 0)
(-0.008137756074 0.0123079906 0)
(-0.008163618267 0.01187582372 0)
(-0.007600794303 0.01358676854 0)
(-0.008059407334 0.01360518655 0)
(-0.008085541945 0.01317246595 0)
(-0.007631836988 0.01315456861 0)
(-0.009431208198 0.01365995498 0)
(-0.009449494981 0.01322659515 0)
(-0.008994802615 0.0132085773 0)
(-0.008975230422 0.01364180462 0)
(-0.01037144263 0.001545975166 0)
(-0.01038579914 0.001112053435 0)
(-0.01354624976 0.001671211078 0)
(-0.01357919897 0.0008043452102 0)
(-0.01267075176 0.0007682666691 0)
(-0.01263747714 0.001635200084 0)
(-0.01273733607 -0.0009644693342 0)
(-0.0136459541 -0.0009286259193 0)
(-0.01344611739 0.004269659383 0)
(-0.0125366199 0.00423361915 0)
(-0.0126038771 0.002502201045 0)
(-0.01351289459 0.002538141244 0)
(-0.01035524018 0.001979661095 0)
(-0.009849783898 0.003261565311 0)
(-0.009398685227 0.003243853769 0)
(-0.009376288135 0.00367551504 0)
(-0.009830250824 0.003693422778 0)
(-0.008054477245 0.003191811768 0)
(-0.008016764731 0.00362196788 0)
(-0.008468362757 0.003639699564 0)
(-0.00850099806 0.003209015969 0)
(-0.007907946502 0.004915353294 0)
(-0.008372727298 0.004934262098 0)
(-0.008404475497 0.004502171292 0)
(-0.007944109916 0.004483601925 0)
(-0.008140889441 -0.002020890656 0)
(-0.008099305873 -0.001590164638 0)
(-0.008521614033 -0.001572888343 0)
(-0.008560301366 -0.002003811857 0)
(-0.007977271572 -0.0003235307949 0)
(-0.00845847134 -0.0002746756806 0)
(-0.008458623623 -0.0007092510277 0)
(-0.008016545503 -0.0007311970349 0)
(-0.009949540288 -0.0002085619781 0)
(-0.00996055095 -0.0006421346343 0)
(-0.009468568675 -0.0006636734142 0)
(-0.009462598202 -0.0002296554395 0)
(-0.009569609013 0.01019396797 0)
(-0.00911554162 0.01017605601 0)
(-0.009104872345 0.01060996513 0)
(-0.009555777716 0.01062766887 0)
(-0.007799062018 0.01012618121 0)
(-0.007800971455 0.01056124308 0)
(-0.008224137278 0.01057645649 0)
(-0.008222965572 0.01014150505 0)
(-0.008188412645 0.01144312973 0)
(-0.007755279202 0.01142703023 0)
(-0.007871779838 0.005347185204 0)
(-0.008341004818 0.005366515286 0)
(-0.007763160592 0.006642837468 0)
(-0.008245938833 0.006663359615 0)
(-0.00827755661 0.006231102204 0)
(-0.007799375581 0.006211007507 0)
(-0.009693559987 0.0067248166 0)
(-0.009713042029 0.006291424302 0)
(-0.009242657255 0.006272047438 0)
(-0.009220515796 0.006705171121 0)
(-0.01011087207 -0.003671445891 0)
(-0.009647524906 -0.003690296868 0)
(-0.009618937037 -0.003257755897 0)
(-0.0100875338 -0.003238451155 0)
(-0.008312623225 -0.003743657605 0)
(-0.008269686429 -0.00331258281 0)
(-0.008681537361 -0.00329645437 0)
(-0.008722133656 -0.003727704244 0)
(-0.008600401284 -0.002434355703 0)
(-0.008183764647 -0.002450838524 0)
(-0.008654679022 -0.007182391307 0)
(-0.009012178637 -0.007176603087 0)
(-0.008976265373 -0.007615053347 0)
(-0.008696410475 -0.00757858363 0)
(-0.01026761456 -0.007134353573 0)
(-0.01026523473 -0.007569353744 0)
(-0.009812683071 -0.007587043222 0)
(-0.009830721396 -0.00715044338 0)
(-0.004743791664 0.04128062915 0)
(-0.004378574777 0.04127396494 0)
(-0.004331955217 0.04170134161 0)
(-0.004724816626 0.04171525198 0)
(-0.004706508589 0.04083913877 0)
(-0.004421296278 0.04087482768 0)
(-0.00418446931 0.05184296315 0)
(-0.003724228114 0.05182911006 0)
(-0.003696554814 0.05228777733 0)
(-0.004157981671 0.05230043589 0)
(-0.002767160192 0.05227082024 0)
(-0.002809057641 0.0518187126 0)
(-0.002659242772 0.05368627307 0)
(-0.002704953146 0.05320623665 0)
(-0.00284905567 0.05136729473 0)
(-0.002513887794 0.05141066543 0)
(-0.004208345613 0.05138402978 0)
(-0.00374585105 0.05137244143 0)
(-0.004391294409 0.04474322404 0)
(-0.003963512829 0.04472524293 0)
(-0.003903553679 0.04515313027 0)
(-0.004347596599 0.04517636561 0)
(-0.004442135954 0.04431117733 0)
(-0.004021119702 0.04429387248 0)
(-0.004880288334 0.044765449 0)
(-0.00492031035 0.04433183647 0)
(-0.006330812694 0.04483033065 0)
(-0.006351642414 0.04439392717 0)
(-0.005881410804 0.04437415312 0)
(-0.005857053514 0.04481001096 0)
(-0.006416293935 0.04308770814 0)
(-0.005959233657 0.04306959478 0)
(-0.005933289706 0.04350538862 0)
(-0.006394682965 0.04352408011 0)
(-0.006263947373 0.04657963347 0)
(-0.006278694349 0.04614283136 0)
(-0.005808177068 0.04612373957 0)
(-0.005798359838 0.04656272507 0)
(-0.005835851478 0.0452470448 0)
(-0.006311368013 0.04526759673 0)
(-0.004848328088 0.0452005968 0)
(-0.005152339796 0.0412936395 0)
(-0.005114182071 0.04085203316 0)
(-0.006485475459 0.04134378278 0)
(-0.006493181764 0.04090693062 0)
(-0.0060270962 0.04088796919 0)
(-0.006029890642 0.04132589028 0)
(-0.006516585417 0.03959751504 0)
(-0.0060203329 0.03957564267 0)
(-0.006014271734 0.04001110909 0)
(-0.006505253741 0.04003244618 0)
(-0.006437351132 0.04265026509 0)
(-0.005984045633 0.04263246453 0)
(-0.00602244728 0.04176162364 0)
(-0.006473314073 0.04177908381 0)
(-0.005148063261 0.04172966193 0)
(-0.004302711468 0.04826334286 0)
(-0.004785213324 0.04828471705 0)
(-0.004817324838 0.04784521905 0)
(-0.004348455986 0.04782645997 0)
(-0.00619181532 0.04833730738 0)
(-0.006211403012 0.04789629581 0)
(-0.005750633291 0.04787814578 0)
(-0.005729405088 0.04831922831 0)
(-0.005786596313 0.04700096248 0)
(-0.006247775901 0.04701795124 0)
(-0.003817973517 0.04823980519 0)
(-0.003775198385 0.04867587206 0)
(-0.004271448506 0.04870200382 0)
(-0.003883614979 0.04780744386 0)
(-0.005275168393 0.03086331381 0)
(-0.005663337362 0.0308773576 0)
(-0.005670332942 0.03044152551 0)
(-0.005309156653 0.03043308815 0)
(-0.006930334534 0.03092378437 0)
(-0.006934292018 0.03048807176 0)
(-0.006493570171 0.03047110146 0)
(-0.00649677111 0.03090734484 0)
(-0.006909383864 0.02918138645 0)
(-0.006405574888 0.0291594513 0)
(-0.006431868824 0.02959598078 0)
(-0.006916650984 0.02961642242 0)
(-0.0068582073 0.03265653881 0)
(-0.006879232348 0.03222369279 0)
(-0.006441097431 0.03220698819 0)
(-0.006416804101 0.03263946036 0)
(-0.006484328101 0.03134182779 0)
(-0.006917330985 0.03135816404 0)
(-0.005239972759 0.03129607228 0)
(-0.005637305627 0.03131072772 0)
(-0.006968744029 0.02744714897 0)
(-0.006992876412 0.02701426694 0)
(-0.006494320281 0.02699270501 0)
(-0.006466003003 0.02742533757 0)
(-0.007067547261 0.02571805205 0)
(-0.006581756779 0.0256974084 0)
(-0.006552244783 0.02612846 0)