/*--------------------------------*- C++ -*----------------------------------*\
| =========                 |                                                 |
| \\      /  F ield         | OpenFOAM: The Open Source CFD Toolbox           |
|  \\    /   O peration     | Version:  v2012                                 |
|   \\  /    A nd           | Website:  www.openfoam.com                      |
|    \\/     M anipulation  |                                                 |
\*---------------------------------------------------------------------------*/
FoamFile
{
    version     2.0;
    format      ascii;
    class       volScalarField;
    location    "0.27";
    object      p;
}
// * * * * * * * * * * * * * * * * * * * * * * * * * * * * * * * * * * * * * //

dimensions      [0 2 -2 0 0 0 0];


internalField   nonuniform List<scalar> 
3019
(
-698.0669018
-997.5258718
-1104.126846
-1114.370025
-1084.424907
-1031.24261
-944.9884702
-897.1630811
-832.8115786
-812.3625737
-798.6550852
-791.978358
281.5836836
-404.2297875
-686.4955051
-817.0058677
-868.879467
-868.9236691
-828.3195224
-804.5433829
-760.0150961
-748.1178853
-739.6418328
-735.5556403
270.5387574
-150.3423319
-429.9888318
-597.3099797
-688.1747644
-722.2345238
-715.4697619
-712.3279428
-685.4427799
-681.2371729
-677.6867986
-676.0123724
207.8168482
-64.22813346
-288.903993
-448.5885674
-547.1229986
-597.8763436
-613.6816984
-625.2628425
-612.5573839
-614.6365343
-615.2591331
-615.6086283
146.2835473
-42.11511634
-213.8866654
-348.0426666
-439.1391739
-496.3533929
-524.9417269
-545.7405099
-543.7661545
-550.5149447
-554.340536
-556.1960734
99.81548587
-38.99685393
-169.6023223
-275.8993068
-355.3920737
-413.2578866
-448.3852263
-474.5176914
-480.2337384
-490.161159
-496.2906804
-499.192416
69.94208868
-36.70290659
-136.0958471
-222.0639984
-292.1097858
-346.68243
-383.6525263
-412.0255354
-422.5152123
-434.3455229
-441.9273378
-445.5447646
54.90925226
-30.19332896
-110.6845237
-182.4820403
-243.3560038
-293.0180546
-329.340457
-357.6856254
-370.7650936
-383.4610816
-391.7827671
-395.7563883
44.14441232
-25.56785221
-92.00111807
-152.360167
-204.9497635
-249.2138845
-283.4990718
-310.5541134
-324.7208111
-337.5049544
-346.0180593
-350.0929844
35.87480043
-22.14953508
-77.65291314
-128.7072651
-174.0491286
-213.1088491
-244.5181726
-269.6676128
-283.8884987
-296.2381056
-304.5649951
-308.5590729
29.37661632
-19.43649956
-66.22335826
-109.6237426
-148.6976403
-182.9365401
-211.1976357
-234.1122458
-247.7211261
-259.3124815
-267.2086051
-271.0011035
24.17450857
-17.16474701
-56.84231129
-93.86794997
-127.5316404
-157.4023198
-182.5091828
-203.0861795
-215.6842297
-226.3335527
-233.6487833
-237.1648547
19.96509349
-15.18770588
-48.95913826
-80.60841168
-109.5897068
-135.5456885
-157.6292645
-175.8986409
-187.2697477
-196.8903814
-203.5430946
-206.7415863
16.52917991
-13.42080985
-42.20704263
-69.2668848
-94.17547834
-116.6394136
-135.8940962
-151.9598212
-162.0071539
-170.5776216
-176.5352089
-179.399184
13.69317524
-11.81287753
-36.33139807
-59.430054
-80.77507733
-100.126653
-116.7698934
-130.7718387
-139.4687666
-147.008333
-152.2705157
-154.7991151
11.32368206
-10.33118387
-31.1482685
-50.79139313
-68.99661831
-85.56891847
-99.8164321
-111.9067113
-119.2695144
-125.82062
-130.4066501
-132.6087552
9.320139921
-8.953803109
-26.52135837
-43.11842227
-58.53557283
-72.61626043
-84.67024668
-94.99877219
-101.0646496
-106.6813812
-110.6211007
-112.5108491
7.605115678
-7.664386538
-22.34520207
-36.22823632
-49.14674044
-60.97648916
-71.02697024
-79.73086125
-84.54539739
-89.28525309
-92.61317572
-94.20716048
6.117612515
-6.449884805
-18.535745
-29.97415318
-40.63156587
-50.39626111
-58.62449006
-65.82536553
-69.42877377
-73.3495423
-76.10046976
-77.41494971
4.808503037
-5.299135674
-15.02380958
-24.23572215
-32.83104365
-40.71548208
-47.20564256
-53.03211842
-55.47714973
-58.62960546
-60.83668354
-61.88863445
3.637073346
-4.201676588
-11.74937935
-18.90750535
-25.60098733
-31.7737648
-36.57684248
-41.12693122
-42.39713652
-44.8417757
-46.52923291
-47.32572772
2.569446526
-3.147683264
-8.659597792
-13.8951841
-18.80507778
-23.35392865
-26.58910002
-29.88348478
-30.23568206
-31.96015423
-33.15376488
-33.72423837
1.57747036
-2.128066473
-5.707103918
-9.113793356
-12.32257789
-15.32277124
-17.05302326
-19.20853927
-18.03719477
-19.06761962
-19.76759826
-20.04336715
0.6401748688
-1.13474542
-2.848969959
-4.486705772
-6.042403014
-7.52502971
-7.726059395
-8.711478583
-8.711713166
-9.197019187
-9.528013746
-9.771389042
-742.3894651
-791.9546362
-1106.264865
363.1269381
-694.7245658
227.0633205
-410.4188622
-992.0854837
390.3902626
378.7279467
-986.0300268
-1.821851282
-71.22907011
-129.6141543
-462.7325906
-841.5132395
-1095.502279
-389.3268744
-1146.121342
-1153.43897
-1216.951868
-303.8634153
279.8563404
-91.83840267
-292.9515486
-869.6453337
-1126.906163
-1104.095069
-110.4182831
-358.2332535
-62.2948143
433.3835287
-1329.374233
-1354.92734
393.0548009
177.8126564
-1088.473345
-910.0617846
-941.0953776
-910.4378669
-1084.504744
-686.0726696
-861.249052
-441.2361143
-482.1372465
-639.2910628
-286.1567768
-431.8019243
-343.5815849
-1093.445371
-1307.841949
-1318.559692
-1096.159056
-1134.562891
-1233.900009
-890.8175499
-862.7338475
-698.9787441
-1478.798734
-1471.675203
-1360.128201
-1367.014437
-677.0084113
-690.1785402
-512.5697441
-520.0870416
-620.9695845
-104.2339998
-238.1537386
-1473.447302
-1327.38161
-1414.85343
-922.2762479
-916.1732235
-904.9688266
-1026.853921
-721.9140047
-694.4523336
-685.6151342
-845.6439347
-783.6157637
-787.1168669
-451.7813439
-505.1527588
-497.4717891
-329.9646789
-338.4757988
-381.4286722
-1254.611857
-1264.424785
-1318.862271
-1118.641169
-1185.587324
-1188.859267
-1232.028887
-1210.515423
-1198.957551
-1157.722609
-1142.261813
-1090.646121
-433.6839168
-551.8025051
-787.5132842
-515.8863433
-729.4623308
-1089.543669
-775.1847215
-865.5859417
-1117.167597
-884.1715244
-916.492553
-1094.278854
-921.2899486
-914.8092034
-1046.263332
333.0300322
70.29664291
-51.15655759
-191.9861984
-422.9679506
-634.6717595
-480.8314609
-612.6842602
-793.5181723
-645.0305558
-714.5870664
-861.1017377
-729.4831116
-754.1543975
-872.7941874
303.6034377
368.8808176
226.3701759
-5.789115076
-58.20986799
-77.08025597
-263.6986919
-372.5485527
-316.3397947
-445.9055881
-563.5540544
-480.1212168
-559.6138722
-671.6262672
-578.8529127
-617.8531227
-717.6136452
217.1576183
277.6374913
160.466161
6.835907692
1.112167816
-44.73248696
-186.2629356
-238.7711891
-228.6564235
-338.9514973
-414.8556456
-369.9040612
-444.681953
-527.6491128
-463.6714056
-507.9308082
-587.9999596
150.2402099
198.8737777
109.8785751
-1.692510642
5.68006717
-39.12398607
-146.2330494
-174.0070689
-179.1294729
-266.8904748
-318.4864201
-292.1263021
-356.104798
-420.343856
-374.1387776
-419.6578217
-484.1760674
103.6469132
136.4015423
75.82319043
-9.51769855
-4.141233312
-37.68012683
-118.7138172
-138.8231275
-143.8860669
-213.0631971
-252.046228
-233.9516223
-289.9241932
-337.7070875
-306.3703536
-349.394239
-400.4845149
80.06027292
95.73367601
57.98713876
-9.457832956
-9.988935617
-31.64563314
-95.87531347
-112.3306149
-116.2814029
-173.6443336
-202.0194176
-191.3410864
-239.8332675
-276.1158369
-254.4380418
-293.6237989
-334.269025
64.69140206
76.02371957
46.56262916
-8.476045879
-9.131215275
-26.58370892
-79.31294521
-91.24603057
-96.19328641
-144.1812643
-165.5031072
-159.1902908
-200.958453
-229.2130051
-213.7542215
-248.6899921
-281.508284
52.89733462
61.45800179
37.75289384
-7.906428215
-8.311522549
-22.92375407
-66.80433564
-75.87316916
-80.92259772
-121.3637593
-137.9502656
-134.1315035
-170.0513396
-192.5846961
-181.1893081
-211.9887763
-238.8452817
43.66120847
50.38312745
30.86484642
-7.463644907
-7.789677493
-20.0656537
-56.95384257
-64.13235697
-68.86147867
-103.1473624
-116.4392508
-114.0426258
-144.9347199
-163.2971207
-154.5978126
-181.5703573
-203.8726154
36.24595158
41.6580891
25.37211963
-7.044155463
-7.358894776
-17.70068608
-48.9266477
-54.80040523
-59.02950599
-88.22500533
-99.14754059
-97.54555094
-124.1221319
-139.3747615
-132.4884851
-156.0034584
-174.7828542
30.20025592
34.61942803
20.93719846
-6.605949269
-6.937234625
-15.65968419
-42.20825447
-47.13970976
-50.81187493
-75.73978655
-84.90174843
-83.72423906
-106.5844492
-119.4635149
-113.8145711
-134.2402562
-150.2514767
25.22215914
28.86582172
17.32583708
-6.135784164
-6.491502014
-13.84601598
-36.46559196
-40.6914106
-43.80435508
-65.10741141
-72.92647745
-71.94714988
-91.58879822
-102.6209289
-97.82244308
-115.5003182
-129.3074953
21.07819772
24.11585679
14.35386482
-5.635305798
-6.013268477
-12.2019758
-31.47215657
-35.15420102
-37.72915255
-55.91671635
-62.68790243
-61.76641931
-78.60244203
-88.17142282
-83.95945335
-99.19495924
-111.2242596
17.58831635
20.15042357
11.87833064
-5.111742108
-5.506247013
-10.691131
-27.06714292
-30.32092547
-32.38732293
-47.86726104
-53.80722373
-52.8526273
-67.22512664
-75.62061946
-71.80721952
-84.86740078
-95.45081154
14.61423411
16.80101298
9.791281088
-4.573385065
-4.978209722
-9.289334132
-23.1328932
-26.04322376
-27.63214263
-40.73334416
-46.00531128
-44.95685258
-57.1487541
-64.59426126
-61.04156465
-72.15637643
-81.55696931
12.04889766
13.93822478
8.01039405
-4.027683253
-4.437387613
-7.979245076
-19.5802812
-22.21198853
-23.35186823
-34.34065866
-39.0716478
-37.88592712
-48.13020018
-54.80337272
-51.40498509
-60.76841334
-69.20170115
9.807385615
11.46108288
6.470998941
-3.480483087
-3.890829636
-6.747108222
-16.33858387
-18.74315404
-19.45768225
-28.54976957
-32.8413427
-31.48492214
-39.9723692
-46.01686506
-42.68756658
-50.45615295
-58.10317299
7.821376942
9.289326591
5.121407357
-2.936069983
-3.343983725
-5.581426654
-13.35021098
-15.56979207
-15.87730958
-23.24727898
-27.18239097
-25.62794049
-32.51677996
-38.04822708
-34.72205835
-41.03469564
-48.0271608
6.034197759
7.357945976
3.918971567
-2.397098642
-2.800743293
-4.471582135
-10.56561783
-12.63675629
-12.54869098
-18.33559904
-21.98628454
-20.20639866
-25.6256374
-30.74629441
-27.36276998
-32.34443137
-38.80329907
4.398519909
5.61276144
2.828260888
-1.864982306
-2.263397306
-3.407627398
-7.941341092
-9.896119651
-9.417418975
-13.72831528
-17.15843172
-15.12345395
-19.17062209
-23.97574007
-20.47012976
-24.20335548
-30.26620734
2.874678322
4.008456693
1.81967512
-1.340168011
-1.733081871
-2.380155113
-5.438382506
-7.305648541
-6.434690672
-9.347586117
-12.61474818
-10.29172894
-13.0363952
-17.61124275
-13.91996572
-16.46639408
-22.23899829
1.431461565
2.507408384
0.868379529
-0.8246709267
-1.210190812
-1.382491563
-3.023178682
-4.827528673
-3.558061328
-5.124783663
-8.279569059
-5.633942507
-7.119632684
-11.54062375
-7.600182383
-8.99504704
-14.58054715
-0.1827135316
1.084034889
-0.2968408949
-0.5699863323
-0.6951370132
-0.6564673823
-0.9213000175
-2.427424426
-1.011302383
-1.284306735
-4.084675423
-1.376028307
-1.653587653
-5.661596515
-1.747819053
-2.067411448
-7.151294564
-790.8167377
-778.80645
-729.266548
-817.9611099
-909.6353358
-888.3213522
-1470.375518
-1460.051639
-1020.355396
227.6523845
464.9587164
-652.6716822
-498.8714173
-573.1189067
102.9967914
26.75297722
159.5961758
-620.8432785
-436.7555824
-195.9573119
-886.2785184
-535.4988894
-703.2965673
424.3095293
444.9206508
-1137.27955
-1139.661809
-892.8288429
-1226.554234
-1256.308633
-1468.880507
-1467.248968
59.87635647
128.0299269
62.87166904
-145.0621901
-87.06403545
-11.44587941
-279.6187515
-483.9465094
-352.0020303
-578.190695
-508.1353222
-381.8996493
-815.6234386
-646.0659229
-704.6626692
-1088.264607
-1040.525026
-1045.956184
-232.9859423
-291.929784
-279.2675478
-480.3139453
-451.7566992
-316.0048853
-1201.91268
-1193.868625
-1135.044776
-1195.822822
-1293.813937
-1308.903977
-1308.041607
-1300.56835
-1206.171753
-1396.178274
-1400.445587
-253.8370567
-169.138127
-222.8772531
-139.012646
-180.1757553
51.65498675
-64.6179702
146.4527224
135.9414229
334.6975212
-138.5941533
-12.68388653
21.11052135
-139.4342392
-67.79071682
-203.3673219
-953.5841581
-932.0749396
-844.5521851
-1112.778625
-1021.289768
-1039.249299
-985.8406305
-1002.903097
-1098.259744
-181.401208
-83.43358697
-9.818530201
-270.3156203
-170.6687936
-264.4974498
112.3355645
-65.6999712
-172.165072
442.2595965
560.1297396
537.7472337
-1411.147872
-1406.674279
-1343.924506
196.2470243
124.8169668
319.3563228
261.2773016
334.5970455
122.729678
191.3667377
248.3029378
-1031.275388
-1034.801655
-1082.745947
-920.5070253
-973.4608401
-954.24315
-993.229685
-985.4531359
-931.1280696
-528.6204215
-510.4148007
-464.7906786
-629.5973952
-554.7815488
-580.2177014
-333.8568008
-311.8623493
-260.3776104
-409.0036498
-359.1009923
-381.9334087
-1308.661115
-1259.502333
-1258.57476
-1217.536765
-1411.560863
-1470.228544
-1386.534671
-1402.155082
-1229.137776
-881.446107
-829.6905587
-840.9748462
-801.9292464
-817.6445636
-871.7211214
-714.1848887
-763.3400347
-744.8647057
-1363.120576
-1415.636947
-1414.764935
-1419.430769
-1417.775501
-1368.723573
-1466.920205
-1467.160479
-51.07208146
-97.39132776
-150.3130386
-122.0441173
-77.7482403
-209.7713522
-163.7978488
-190.1414222
-1071.944073
-1038.805735
-1002.081633
-969.7526771
-941.2420654
-918.3258805
-607.0182445
-641.480722
-728.3729802
-814.3764451
-872.7943748
-1037.309891
-984.3055227
-1004.064141
-1113.244585
-1034.457476
-1037.113307
-1109.530187
-1027.461851
-1020.826592
-1073.117945
-908.2059284
-904.3109599
-971.3085517
-886.7570316
-868.3893849
-919.9282941
-851.2046384
-837.653111
-877.2050146
312.6655185
195.0685113
157.662289
-315.6569381
-409.0675042
-496.4273231
-608.1747005
-654.9023283
-729.1707837
-754.644693
-777.1846669
-835.7040284
-819.5714449
-826.8276999
-873.479964
-756.5479144
-774.5758553
-838.5182915
-770.8243807
-764.7596448
-816.3327815
-757.7614645
-751.3074976
-793.3947852
259.9753403
154.4797301
152.9023139
-118.6538372
-196.1400658
-233.2705109
-386.2702724
-436.2324774
-480.3214257
-554.0798401
-583.9929818
-626.3311178
-649.2646074
-663.5728479
-701.159988
-626.4000667
-656.9309201
-713.8082111
-662.96403
-666.4463996
-714.6177654
-667.626396
-667.5141062
-708.888136
191.0707258
129.1898856
138.1005281
-55.14312506
-112.5569754
-126.2554346
-265.6005346
-309.5734639
-334.960308
-419.9937174
-449.4243746
-478.5040698
-517.4658422
-533.8784968
-563.368454
-519.458111
-555.559121
-604.1822599
-567.6935183
-577.3278578
-620.6212045
-584.1765791
-588.7725263
-627.7600085
133.0932979
92.16695321
101.4793289
-40.26249451
-82.88412987
-87.74054046
-200.9608395
-236.2568632
-251.3396588
-327.9848069
-353.6022326
-374.8951581
-415.9918592
-432.8167866
-455.8830003
-432.179364
-469.7267452
-510.8840814
-485.1846374
-498.3994002
-536.6539432
-508.6998745
-516.5686751
-552.1674203
90.77754972
59.55601081
66.75662467
-38.76429678
-70.6983949
-73.16164981
-160.6723214
-188.0363858
-198.8199162
-260.7749421
-282.0782639
-298.0226257
-337.9203304
-353.9578885
-371.7092278
-361.7043576
-397.5092105
-431.9545985
-414.5877147
-429.6272509
-462.7424107
-441.8929909
-451.65674
-483.5310508
65.15350324
40.04927584
43.41682339
-35.03892473
-59.30255577
-62.53288078
-128.9262395
-150.720804
-158.9977294
-211.0587409
-229.3729265
-241.0993006
-278.7504073
-293.3733026
-307.115843
-305.0891151
-337.8749931
-366.2475329
-355.3269783
-370.6794816
-399.0210877
-383.6107797
-394.1783817
-422.3409664
51.96169785
31.55609183
33.40863865
-28.88258097
-48.59354992
-50.92504623
-105.4991387
-123.5272339
-129.5697332
-174.2057335
-189.865664
-198.7696294
-232.9138188
-245.9344512
-256.7808326
-259.0559534
-288.6977893
-312.0942947
-305.4791745
-320.239202
-344.4962879
-333.0176768
-343.6446817
-368.4432874
41.87950305
25.10647705
26.56160577
-24.62538536
-40.89007523
-42.6103989
-88.07498564
-103.1392997
-107.7438369
-145.9285452
-159.3133238
-166.2794788
-196.6090046
-208.0573252
-216.7814123
-221.2530438
-247.742618
-267.3315075
-263.2318382
-277.0053537
-297.8126092
-289.152995
-299.3713143
-321.128944
34.10677939
20.10756219
21.24418788
-21.41825416
-35.00896377
-36.35056142
-74.56303463
-87.25561744
-90.89209335
-123.5654134
-135.0209674
-140.6154831
-167.2525901
-177.2528725
-184.3977731
-189.7674575
-213.1982039
-229.752627
-227.2218734
-239.8199942
-257.7370221
-251.062837
-260.6045303
-279.6927521
27.96863916
16.17453877
17.07428641
-18.83438761
-30.2925601
-31.3863618
-63.71176872
-74.47296226
-77.43261208
-105.4109125
-115.2310917
-119.8281099
-143.0569522
-151.7580963
-157.7094569
-163.2040705
-183.8043866
-197.9261905
-196.332172
-207.6768858
-223.1868325
-217.887058
-226.614139
-243.3830064
23.03854329
13.04281843
13.76123642
-16.64692943
-26.36374244
-27.28622057
-54.7478535
-63.91025874
-66.37786221
-90.34513471
-98.77248123
-102.6233241
-122.7748128
-130.3235682
-135.3553069
-140.5297332
-158.5587428
-170.7156748
-169.6396916
-179.7364356
-193.2388436
-188.8798331
-196.7389686
-211.5055832
19.04113564
10.53616714
11.11206388
-14.72870849
-22.99703916
-23.79482479
-47.17658442
-54.9954975
-57.09335991
-77.61171137
-84.84434336
-88.12327087
-105.5218432
-112.0525894
-116.3631878
-120.9658959
-136.6847019
-147.241806
-146.4061119
-155.3058874
-167.1310984
-163.4021341
-170.3919716
-183.439327
15.76980574
8.519929987
8.984320148
-13.00544254
-20.04950888
-20.75288876
-40.6641448
-47.33857263
-49.15138967
-66.68011158
-72.87973694
-75.71129323
-90.65360157
-96.28505112
-100.0214766
-103.9194999
-117.5720659
-126.8156285
-126.036676
-133.8137364
-144.2331124
-140.9121304
-147.061648
-158.636635
13.06148942
6.886624015
7.263999878
-11.43161722
-17.42584742
-18.05541245
-34.97670248
-40.66419976
-42.25271946
-57.16822975
-62.46737529
-64.94327405
-77.69154974
-82.52667667
-85.80045089
-88.92611463
-100.734408
-108.8952407
-108.0473853
-114.7847322
-124.0262433
-120.948305
-126.302695
-136.6234999
10.79185764
5.552439092
5.861751764
-9.977767905
-15.05959206
-15.62986685
-29.94396552
-34.77048994
-36.17965559
-48.79050533
-53.29791052
-55.4876572
-66.26828221
-70.39519487
-73.29306068
-75.6160243
-85.77704897
-93.04218362
-92.03886408
-97.81964883
-106.0741413
-103.1157269
-107.7269938
-116.9835687
8.866962812
4.45254288
4.708535566
-8.623749522
-12.90268169
-13.42445678
-25.43864252
-29.50564565
-30.76986779
-41.32874402
-45.13365373
-47.09152776
-56.09629537
-59.58949256
-62.18090792
-63.68670425
-72.37637426
-78.89980259
-77.67892902
-82.58073127
-90.01045448
-87.07451664
-90.99532112
-99.35548687
7.213965414
3.536056595
3.750359535
-7.354163219
-10.91803773
-11.39980916
-21.36127253
-24.75066448
-25.8972406
-34.6099949
-37.78536467
-39.55493374
-46.94257048
-49.86346044
-52.20561967
-52.87707902
-60.27864201
-66.17574034
-64.68776165
-68.77654811
-75.522307
-72.52831476
-75.80943982
-83.42035206
5.775332871
2.762629923
2.944473825
-6.156635632
-9.075982538
-9.5245742
-17.63234376
-20.4103349
-21.4611278
-28.49551972
-31.10115055
-32.71722295
-38.62010122
-41.01958647
-43.15686268
-43.00884628
-49.27453621
-54.65816894
-52.80753154
-56.1498938
-62.33722986
-59.21429768
-61.90119495
-68.90009519
4.504175723
2.099629797
2.256576093
-5.020169905
-7.351216677
-7.772672146
-14.18512179
-16.40480674
-17.37873717
-22.86909858
-24.95396643
-26.44675025
-30.97570726
-32.89939894
-34.8696344
-33.91457148
-39.04845687
-44.08824785
-41.8002829
-44.47145626
-50.21060514
-46.90096978
-49.05116355
-55.5309182
3.36163784
1.520332677
1.658578344
-3.934477109
-5.721292062
-6.121013792
-10.96156941
-12.66457466
-13.57822299
-17.62829103
-19.23090865
-20.62763593
-23.86621486
-25.34959537
-27.19178955
-25.3781328
-29.4349226
-34.16465273
-31.5164719
-33.5376463
-38.92890132
-35.34131608
-36.95807844
-43.1429742
2.315337672
1.002776373
1.127425344
-2.889869736
-4.165980457
-4.548846004
-7.910329481
-9.12805133
-9.99621418
-12.68130913
-13.83022546
-15.15534858
-17.15956811
-18.22738071
-19.97479393
-17.26726582
-20.33425869
-24.83150467
-21.77970322
-23.18303778
-28.30053072
-24.43144194
-25.50583806
-31.30301593
1.338482555
0.5286522313
0.6440554949
-1.877727539
-2.667388676
-3.037537153
-4.985488148
-5.740060112
-6.575852889
-7.945536343
-8.660276672
-9.935708354
-10.73781377
-11.40669324
-13.09010375
-9.432544909
-11.60877671
-15.91149492
-12.44749717
-13.246493
-18.15852937
-13.95552209
-14.70547242
-20.06436374
0.3955081335
0.06733891137
0.1931104774
-0.902666107
-1.220546891
-1.570254278
-2.154694305
-2.459649642
-3.265725791
-3.35487001
-3.646566001
-4.883624998
-4.500752738
-4.778479925
-6.417517635
-2.197192073
-3.779577859
-7.202730544
-4.067593556
-4.358529874
-8.234744661
-4.719903794
-5.19513371
-9.113119993
-1224.478686
-1206.211212
-1082.410039
312.4613945
406.9857268
444.766807
-682.8961388
-639.4796812
-644.720106
-964.5225957
-854.5296227
-890.8116749
-1410.923232
-1413.829178
-185.8408126
-253.4970458
-200.3994103
-1159.666368
-1211.765446
-1206.829274
119.6774089
74.72679027
-1058.065252
-1058.451079
-1110.394589
1.825101042
-55.91347976
-122.5672957
195.0905511
154.1248833
-1227.253071
-1348.802722
-1368.359027
-1307.606311
-1328.448957
-1220.135336
-1186.095942
-1264.789324
-1286.231478
-1222.130618
-1243.520867
-1172.369833
-1125.942638
-1179.04729
-1200.672492
-1134.826856
-1157.13434
-1108.749395
-476.5680196
-557.4776845
-518.9434412
-628.6160534
-594.1389659
-515.5561391
-758.7477805
-675.1666404
-706.9097178
-602.5975241
-727.4980072
-652.1160639
-836.9648255
-789.6596569
-673.3850339
-1068.228594
-921.4112918
-957.0613781
-812.1547405
-903.5961747
-874.4303514
-943.6121933
-926.192971
-841.8527554
-1116.924793
-1017.962911
-1027.793439
-898.3393315
-965.8017962
-956.7151191
-974.8892285
-971.8766639
-908.9281863
-1102.649409
-1036.552264
-1032.778028
-920.8288626
-969.9060175
-973.3625603
-957.8975999
-964.9172573
-918.7305036
-1060.378908
-1012.229892
-1001.831694
236.1768433
219.7562859
327.0836099
47.38811366
89.47643762
-5.719745324
-279.9627808
-337.8518889
-246.1888801
-482.4094868
-415.8408793
-356.5995526
-572.5989916
-487.111865
-552.504202
-531.0392573
-589.0324446
-539.9681395
-667.0601824
-631.067981
-574.7240346
-764.4874306
-694.1379185
-727.1954191
-672.5180546
-722.6554148
-697.3883004
-760.3783307
-743.6019233
-695.6354099
-850.2308889
-795.2852565
-809.311163
-740.727343
-782.6133146
-773.194241
-792.3592234
-789.0221666
-748.9343553
-873.9761347
-831.0219433
-831.8332548
331.2267199
351.0308723
145.9115143
151.8778563
245.0820115
-16.95318615
66.0975829
69.41041844
43.01342917
57.5771673
-33.9328912
-144.0244759
-166.8970279
-94.7722998
-293.7222684
-233.2245053
-206.2971997
-307.2586991
-266.4824203
-329.7527305
-364.2454537
-397.8339935
-348.6067024
-480.6247702
-441.6609225
-407.4096234
-524.6390892
-480.4785017
-519.6732336
-510.3883609
-545.4450144
-515.1417045
-594.1215031
-571.7129849
-536.842411
-651.0280048
-609.6931829
-631.3959403
-594.7380122
-628.0929391
-612.8395019
-649.4054407
-640.0644017
-607.4815331
-710.8765042
-674.5527037
-682.6614312
236.2054485
255.9267315
110.864627
120.109398
175.4441187
5.846790624
63.27815235
58.65337087
70.28214654
67.07035758
4.444304108
-93.99828962
-102.0632133
-48.8865118
-200.7589352
-152.7916931
-141.281786
-184.5415703
-166.9782763
-218.0462821
-268.293682
-287.5413879
-245.7226837
-361.6325198
-326.1815577
-305.0770204
-376.9881962
-350.008585
-386.8642771
-397.8874132
-422.6800532
-393.8409587
-470.4618108
-448.1703259
-422.8033464
-504.8159497
-475.3710884
-498.0039998
-480.2692903
-506.1969434
-489.7058857
-533.0966147
-520.5050437
-494.9108889
-576.7285063
-547.7573463
-559.7639661
165.3486498
181.5814689
74.68458826
83.19115977
120.9632694
0.989529173
41.33124808
35.78132998
53.08945102
47.12342087
3.335600934
-75.94923023
-79.13656914
-39.16375641
-154.3667285
-117.5016381
-111.7577152
-131.8726299
-124.0856215
-163.5104776
-210.2919103
-222.6805505
-189.4876145
-282.7506019
-253.8059542
-239.5834232
-286.238049
-269.2600542
-299.8597935
-315.2730643
-333.7938108
-309.4315274
-375.9470003
-355.8675002
-336.5170592
-399.0019886
-376.6941655
-397.3633842
-390.6973378
-411.0499594
-394.3037768
-440.0672728
-426.2602977
-405.8396953
-470.8089131
-447.9594248
-461.5916925
113.0536752
123.9793674
47.8194878
53.21419554
82.77417497
-8.218250945
22.03084239
18.82433306
30.62357801
25.99301145
-6.386921457
-65.55193471
-68.23735288
-38.23557763
-125.2498999
-97.23513716
-92.55667484
-106.6254588
-101.8668933
-131.8953231
-168.0074506
-177.7562376
-152.1423144
-225.053694
-202.0427095
-191.0746976
-226.3389097
-213.8528649
-238.0709145
-253.7260643
-267.3490466
-246.8205172
-304.7261408
-286.6463238
-272.3816714
-318.6029643
-302.0161525
-320.6190224
-321.7446032
-337.3317842
-321.6111203
-365.4478882
-351.9174347
-336.0710048
-386.7048886
-368.7713111
-382.4345369
84.21933261
89.28726608
35.35734921
37.51600023
61.32919549
-9.858569559
13.71370598
12.86945837
16.40853167
14.75991256
-10.17692013
-53.46763803
-56.25559715
-33.27179323
-100.9032332
-78.8505492
-74.91859078
-87.76424856
-83.13464693
-106.3786685
-136.0778796
-143.1063047
-122.3415735
-182.3967925
-163.1399462
-155.2126785
-180.9862766
-171.7044529
-191.8286821
-208.2803953
-218.4587155
-200.843742
-251.1464357
-235.2281317
-224.4471008
-259.1160894
-246.7597495
-263.2168593
-268.2666227
-280.4450061
-266.2159022
-306.4446639
-293.8428047
-281.3269296
-321.1507576
-307.0997549
-319.9518583
68.18149129
71.98782928
28.11543291
29.78236371
49.16481254
-8.661875703
10.52342134
9.788686711
12.0788377
11.29370269
-8.875441666
-44.45618585
-46.44437868
-27.6845677
-83.00145426
-64.90807218
-62.0539711
-71.30929605
-67.98385386
-86.96800125
-112.6539118
-117.902649
-100.6814139
-150.8217051
-134.6273229
-128.6603393
-147.8554272
-141.0106722
-157.9133282
-173.6665134
-181.5140808
-166.4578322
-209.8252361
-195.9737623
-187.5932945
-214.3498129
-204.8766019
-219.227733
-225.9763926
-235.6807345
-223.0618422
-259.0772575
-247.6816479
-237.6248634
-269.4913342
-258.2930406
-269.9820677
55.57289565
58.42388539
22.45257675
23.73856172
39.75159142
-8.03025007
7.827656932
7.246319082
9.096764549
8.444203506
-8.164113529
-37.77159919
-39.28126879
-23.74674967
-69.63981123
-54.59292656
-52.41077559
-59.39726319
-56.91626468
-72.65604374
-94.73773394
-98.81262603
-84.38992396
-126.5723285
-112.8816612
-108.2257095
-123.0698754
-117.8202662
-132.0911183
-146.5115838
-152.7348001
-139.8628077
-177.1641593
-165.1727382
-158.4889657
-179.6917988
-172.2294184
-184.6642947
-191.8956293
-199.7728741
-188.6998795
-220.5234753
-210.3780981
-202.1660202
-228.0765238
-219.0065706
-229.4458849
45.77685435
48.01403977
18.02713951
19.03685272
32.4393719
-7.569625473
5.704199344
5.251427319
6.699752078
6.186380793
-7.677899183
-32.53334828
-33.73886604
-20.72502381
-59.21975712
-46.5791772
-44.83728503
-50.35575439
-48.41549182
-61.60862992
-80.54089887
-83.81052293
-71.637232
-107.3509831
-95.72104682
-91.97500936
-103.8278618
-99.66614966
-111.77531
-124.6470794
-129.7051116
-118.6838663
-150.7616105
-140.4014861
-134.9481129
-152.1494483
-146.1281169
-156.8751156
-163.9296695
-170.4376059
-160.7762825
-188.6847792
-179.7388877
-172.9246348
-194.3369088
-186.870757
-196.0940425
37.95722076
39.75924237
14.5209144
15.32437966
26.63531874
-7.149767308
4.055086023
3.705899041
4.826577887
4.428253695
-7.254503992
-28.24628718
-29.24714963
-18.25652346
-50.79450345
-40.09908393
-38.66039383
-43.1814626
-41.60429852
-52.75012041
-68.95511339
-71.65029744
-61.31657308
-91.69923951
-81.78220937
-78.69099475
-88.41240613
-85.01913962
-95.33622162
-106.6419392
-110.8400508
-101.3889797
-128.9839751
-120.0416352
-115.5039162
-129.7486443
-124.7853556
-134.0635182
-140.5957162
-146.0583851
-137.6587471
-162.0145282
-154.1760366
-148.4380277
-166.4033284
-160.1611265
-168.253793
31.60110764
33.07268547
11.72042859
12.36329391
21.96058274
-6.718323132
2.790294948
2.525448196
3.379446948
3.074607414
-6.828699037
-24.62045544
-25.47599731
-16.14569211
-43.78558723
-34.69360404
-33.47398
-37.28289646
-35.96201046
-45.42780137
-59.27454728
-61.5447591
-52.73965784
-78.66808879
-70.190853
-67.58691968
-75.73477502
-72.9042333
-81.71923525
-91.53192075
-95.07862374
-86.96697218
-110.7059389
-102.9943245
-99.15457905
-111.158153
-106.992064
-114.9953484
-120.8384746
-125.4885065
-118.2062684
-139.3812869
-132.5462316
-127.6507293
-142.9278323
-137.6359555
-144.7004111
26.38046623
27.59381352
9.4740447
9.990791494
18.16234655
-6.25638865
1.837256912
1.639987392
2.279003431
2.049936541
-6.374972076
-21.4776297
-22.22522887
-14.28176996
-37.82364579
-30.07576142
-29.02051305
-32.29978081
-31.16796943
-39.23108968
-51.02899418
-52.97571259
-45.45974699
-67.61677817
-60.36391362
-58.13237958
-65.08534262
-62.67966345
-70.2210135
-78.64501396
-81.6874084
-74.72693561
-95.13154633
-88.49118199
-85.1943621
-95.46323825
-91.91150002
-98.80613135
-103.8896814
-107.897818
-101.6024046
-119.9463433
-114.0120211
-109.7856446
-122.9352664
-118.3932018
-124.5331233
22.04666014
23.05831119
7.661159231
8.079357494
15.04541512
-5.762911966
1.131823504
0.9875199727
1.457248294
1.288135071
-5.88893893
-18.70187528
-19.36622188
-12.59933859
-32.65995728
-26.0555707
-25.12758457
-28.00017679
-27.01250806
-33.88651062
-43.89258118
-45.58679587
-39.17249625
-58.09718398
-51.89698984
-49.95694888
-55.98056284
-53.90352984
-60.35275449
-67.50083277
-70.14468333
-64.18159117
-81.68442119
-75.98079947
-73.11459313
-82.0148314
-78.94565555
-84.87206808
-89.18082494
-92.67374045
-87.25043438
-103.0781254
-97.9492806
-94.26229709
-105.7040078
-101.7618459
-107.0745305
18.4076219
19.2609654
6.186594958
6.527861402
12.45707959
-5.244334736
0.6193770749
0.5160400446
0.8544738605
0.7319785819
-5.375878197
-16.21390299
-16.81228496
-11.05781836
-28.12023326
-22.50166242
-21.67435799
-24.22692768
-23.35208623
-29.2042408
-37.63026229
-39.12424692
-33.66273977
-49.78598212
-44.50020432
-42.79169398
-48.07973013
-46.26188169
-51.76484083
-57.74361879
-60.06884133
-54.97699766
-69.93672553
-65.05692884
-62.53589138
-70.34179353
-67.65744127
-72.73366173
-76.27810581
-79.35431699