/*--------------------------------*- C++ -*----------------------------------*\
| =========                 |                                                 |
| \\      /  F ield         | OpenFOAM: The Open Source CFD Toolbox           |
|  \\    /   O peration     | Version:  v2012                                 |
|   \\  /    A nd           | Website:  www.openfoam.com                      |
|    \\/     M anipulation  |                                                 |
\*---------------------------------------------------------------------------*/
FoamFile
{
    version     2.0;
    format      ascii;
    class       volScalarField;
    location    "1.2";
    object      nut;
}
// * * * * * * * * * * * * * * * * * * * * * * * * * * * * * * * * * * * * * //

dimensions      [0 2 -1 0 0 0 0];


internalField   nonuniform List<scalar> 
3019
(
0.0575772706
0.2079249905
0.2749238993
0.3463230012
0.4286229498
0.5471806622
0.7389186425
0.966819818
1.15823374
1.152240417
1.149378228
1.148547392
0.1142537566
0.3092771215
0.3856929249
0.4513289184
0.5246059829
0.6366260965
0.8115324762
1.01347318
1.159550394
1.153143269
1.149947991
1.149000164
0.1605832802
0.4226386032
0.5934499695
0.617904847
0.6685831166
0.7645679923
0.9211479937
1.09406063
1.16080783
1.154096837
1.150677381
1.149644583
0.1749884541
0.4334001342
0.6919665708
0.8735089645
0.8671019693
0.9325741181
1.066133915
1.169085122
1.161940618
1.155051481
1.151481794
1.150396386
0.183585071
0.4405536502
0.7013405581
0.9178943227
1.057834971
1.130613534
1.165062517
1.170266389
1.162865025
1.155911232
1.152255297
1.151144779
0.1972449191
0.4512223274
0.713958259
0.9270507593
1.062962528
1.133492168
1.166402411
1.171047875
1.163557952
1.156640218
1.152990198
1.151872467
0.215400562
0.4652626583
0.7263596496
0.9345015742
1.066611674
1.135318142
1.167142267
1.171442487
1.163987334
1.157171425
1.153568769
1.152459317
0.2300061859
0.4764599967
0.7351376206
0.9403480564
1.069250777
1.136413356
1.167423074
1.171521464
1.164256668
1.157613343
1.154081816
1.152981853
0.2421483148
0.4862145893
0.7413478699
0.944779009
1.071158031
1.137002575
1.167361186
1.171360606
1.164317893
1.157865345
1.15441716
1.153330592
0.252960804
0.4949123055
0.7460859625
0.9477905187
1.072452299
1.137223746
1.167051462
1.171026894
1.164307004
1.158080048
1.154714276
1.15363292
0.262756397
0.5027742512
0.7500397783
0.9495714143
1.073154735
1.137144126
1.166560795
1.17057293
1.164143025
1.158123966
1.154835887
1.153758452
0.2717270866
0.5099635706
0.7535119385
0.9504943927
1.073299089
1.136795385
1.165932491
1.170035772
1.16397958
1.158187882
1.154967508
1.153883471
0.2800482273
0.5166147637
0.7566355832
0.9508874037
1.072976729
1.136208631
1.16519854
1.169442134
1.163685557
1.158086253
1.15492634
1.153835896
0.2878601317
0.5228317095
0.7594739656
0.9509538924
1.072304751
1.135427174
1.164387645
1.168811704
1.163447387
1.158057995
1.154947703
1.153841754
0.2952710504
0.52866862
0.7620550887
0.9508050864
1.07139059
1.134500967
1.163526497
1.168160567
1.163075716
1.157854705
1.15479062
1.153672719
0.3023326701
0.5341619044
0.76439023
0.9505036047
1.070319683
1.133477838
1.162638633
1.167501101
1.162810515
1.15777546
1.15474575
1.153607434
0.309064772
0.5393138852
0.7664789567
0.9500872515
1.069156198
1.132399093
1.161744154
1.166844124
1.162395406
1.157507193
1.154514368
1.153362251
0.3154490822
0.544104491
0.7683201202
0.9495860133
1.067949657
1.131299062
1.16085984
1.16619893
1.16213504
1.157404194
1.154433596
1.15325823
0.3214509607
0.5485328554
0.7699377599
0.949039396
1.066743853
1.130207661
1.160000186
1.165573287
1.161711542
1.157111931
1.154171436
1.152982075
0.3270722421
0.552625462
0.7713971101
0.9485022139
1.065581461
1.12915242
1.159178782
1.164977055
1.161467942
1.156990157
1.154061995
1.152847237
0.3323816578
0.5564756491
0.7727938466
0.9480378403
1.064504806
1.128160534
1.158409882
1.164415019
1.16109356
1.156731363
1.153822901
1.152593918
0.3374902326
0.5602035949
0.7742300753
0.947710659
1.063558163
1.127264288
1.157712326
1.163905095
1.160831526
1.156557399
1.153653753
1.152396404
0.3425079456
0.5639233495
0.7757949099
0.9475821787
1.062789342
1.126499221
1.157117788
1.163457179
1.160629937
1.156418342
1.153514178
1.152240566
0.3475015619
0.5676958764
0.777534477
0.9476966866
1.062241224
1.125898613
1.156708347
1.163147691
1.160368628
1.156222144
1.153301622
1.151985845
0.04297453917
0.05395297041
0.1829963537
0.08449849149
0.04415954893
0.1085042853
0.2501026801
0.1862103247
0.1164905454
0.08647838615
0.144085687
0.06864329131
0.06580268831
0.08187877297
0.1607392726
0.1479322923
0.02974937477
0.05209689919
0.02706021783
0.03568134216
0.09299869528
0.05576582017
0.1552766937
0.3523838186
0.2817363042
0.109485085
0.09749991589
0.03829012834
0.1999047072
0.1671988934
0.08516993618
0.09385693177
0.007671149434
0.01826468343
0.03165598026
0.07739427002
0.01128574592
0.01272986177
0.03543553831
0.01152578007
0.0114502942
0.01293914772
0.01137894317
0.01203142781
0.01853088658
0.01399781138
0.02674594194
0.02078019433
0.01196081203
0.008021591578
0.02055098082
0.01116626898
0.01140491694
0.1898693521
0.2402469328
0.03728390882
0.01369074052
0.01821116024
0.01099307799
0.01466492704
0.02760598743
0.05437384878
0.01172881766
0.008383248352
0.008482829949
0.01190825541
0.01186512237
0.03442251242
0.0290316988
0.01128478811
0.01106100866
0.01135568006
0.01141548239
0.007947107486
0.0114072555
0.01167552088
0.01207183129
0.01180587135
0.011541335
0.01182280512
0.01172753669
0.01169801533
0.01187711621
0.01189039873
0.01186788821
0.01207314795
0.01255404695
0.01219243761
0.0115117638
0.01110111701
0.01120501052
0.01214982359
0.01150258943
0.01144312226
0.2566039601
0.3086902825
0.3271669366
0.3864931086
0.4093137476
0.4893382531
0.0686240057
0.1218677396
0.1139696619
0.2749519787
0.3348175509
0.2581380885
0.3519774066
0.4027602736
0.3277915658
0.4193691998
0.4765363886
0.4065189833
0.4972421792
0.5699264741
0.5084907062
0.1268264068
0.2405886101
0.2151566655
0.4182512032
0.5211316884
0.3703221192
0.5293228552
0.5574091528
0.4353164774
0.5690026275
0.609923739
0.5042570311
0.6281661243
0.6902212301
0.5962718211
0.1034120888
0.09119487915
0.1725069414
0.3661931524
0.357000643
0.431408287
0.6263707259
0.5916576752
0.689781056
0.8045639919
0.6093268793
0.7965356788
0.8033038307
0.6521324
0.811864473
0.8601152221
0.7300750356
0.1135769205
0.1063118793
0.1812312094
0.37276579
0.3681463595
0.4386416608
0.6352075931
0.6285276541
0.6987242596
0.8681800022
0.8611163849
0.9155677841
1.028127349
0.8616437196
1.056249588
1.077538199
0.9115011367
0.1267141343
0.1162258371
0.1931856322
0.3818295749
0.3744830929
0.4480418878
0.647224694
0.637817108
0.7105573108
0.8782893769
0.8706296239
0.9248633843
1.034655231
1.029944032
1.061842885
1.119853183
1.117292262
0.1461884755
0.1311060856
0.2109351964
0.3962488096
0.3851090263
0.4617885929
0.6609888791
0.6507447726
0.7236560555
0.8875319509
0.8808192267
0.9328053848
1.039422937
1.035990517
1.065808687
1.122241875
1.120546784
0.1642489606
0.1512103446
0.226706912
0.4093198308
0.400008702
0.4738232534
0.6708010874
0.6637773217
0.7332277155
0.8947894091
0.8895144575
0.9390201543
1.042954045
1.040405148
1.068667666
1.123781296
1.122694679
0.1788604028
0.1681051586
0.2392542344
0.420163121
0.4121628419
0.4838854467
0.6780732147
0.6727993655
0.7399720525
0.9002819182
0.8963303302
0.9438053565
1.045592765
1.04368894
1.070740924
1.124722808
1.124065025
0.191352429
0.1821649052
0.2503630796
0.4297984026
0.4226748261
0.4928239311
0.6840008622
0.6796513454
0.7449934098
0.9040291484
0.9013766337
0.9471654877
1.047481342
1.046134085
1.072184521
1.125229578
1.124886171
0.2022868519
0.1942122265
0.260392968
0.4384842708
0.4320534367
0.5008778694
0.6891509108
0.6853498289
0.7491043233
0.9063659647
0.9047262642
0.9492219331
1.048635339
1.047838964
1.073033835
1.125381503
1.125299674
0.2120985149
0.2048354261
0.2695522165
0.4464157058
0.4405316688
0.5082218207
0.693761119
0.6903493152
0.7526803429
0.9078017648
0.9067919877
0.950324104
1.049097613
1.048812495
1.073311173
1.125209968
1.125368627
0.2210506479
0.2144099919
0.278021469
0.4537621096
0.4483029444
0.5149963427
0.6979539387
0.6948461003
0.7558832597
0.9087163411
0.9080695297
0.9508258259
1.048993757
1.049119116
1.073094727
1.124745112
1.125120302
0.2293435943
0.2231803475
0.2859482799
0.4606482972
0.4555242325
0.5213141269
0.7018030107
0.6989475965
0.7587893763
0.9093156416
0.9088914326
0.9509608003
1.048477873
1.048898157
1.072499344
1.124035097
1.124588979
0.237128108
0.2313350211
0.2934531356
0.4671705169
0.462308384
0.5272428928
0.7053477905
0.7027179802
0.7614332623
0.9096985723
0.9094300402
0.9508586004
1.047682191
1.048301249
1.071636818
1.123138852
1.123826716
0.2444931436
0.2390073233
0.30059875
0.473377176
0.4687538506
0.5328201318
0.7086057825
0.7061900841
0.7638294695
0.9099147248
0.9097677624
0.9505910543
1.04670549
1.047452289
1.070598355
1.122114046
1.122893126
0.2515038173
0.2462788982
0.3074136318
0.479250929
0.4748793241
0.5380593217
0.7115784814
0.7093772588
0.7659802961
0.9099913296
0.9099470409
0.9502006222
1.045618202
1.046442243
1.06945294
1.121010421
1.121844262
0.2581782084
0.2532055472
0.313888577
0.4847575267
0.4806651544
0.5429405559
0.7142578551
0.712277196
0.7678825528
0.9099480096
0.9099916964
0.949717498
1.04447224
1.045335907
1.068252958
1.119868982
1.120727642
0.2644939713
0.2597921813
0.3199888283
0.4898556953
0.4860719404
0.5474598758
0.716652607
0.7148831512
0.7695515785
0.9098156511
0.9099223813
0.9491776254
1.043312738
1.044182378
1.067042945
1.118724626
1.119582335
0.2704386172
0.2660129963
0.325703137
0.4945659645
0.4910684793
0.551629873
0.7188147744
0.7172128675
0.7710423148
0.9096472368
0.9097751924
0.9486323206
1.042185327
1.043026579
1.065865749
1.117609228
1.118442307
0.2760573719
0.2718651484
0.3310862584
0.4989671702
0.4956915646
0.5555301714
0.7208391967
0.7193304636
0.7724450434
0.909511733
0.9096081923
0.9481436612
1.041136407
1.041914441
1.064763633
1.11655327
1.117338886
0.281451101
0.2774063076
0.3362490483
0.5031857574
0.5000325499
0.559280644
0.7228379889
0.7213377358
0.7738626752
0.9094821254
0.9094923737
0.9477763224
1.040213473
1.040892517
1.063780176
1.115590678
1.116302889
0.2867469333
0.2827371289
0.3413258248
0.5073586994
0.504219997
0.5630097127
0.724918588
0.7233460592
0.7753930519
0.9096288451
0.9095001902
0.947593891
1.039466767
1.040008761
1.062962624
1.114759844
1.11536952
0.2920730138
0.2879605122
0.3464529778
0.5116272158
0.5083703695
0.5668539493
0.7271901137
0.7254522044
0.7771366334
0.9100293065
0.9096987157
0.9476680891
1.03895679
1.039313621
1.062368587
1.114108109
1.114577883
0.2978857241
0.2931423043
0.3520781445
0.5163949503
0.5125488754
0.5711863304
0.7299196625
0.7277067304
0.7793239693
0.9108328599
0.9101317638
0.948130348
1.038780253
1.038851019
1.062088025
1.113712963
1.113963798
0.0407700482
0.03354766961
0.03523207446
0.07086953259
0.06707471254
0.0500389423
0.1663830052
0.146552422
0.1558057779
0.07900643405
0.0315042141
0.02030204261
0.02736321213
0.04518023065
0.1450227337
0.1393404615
0.09612557396
0.2165471298
0.1831972881
0.2205688305
0.1599500763
0.175592919
0.2094215331
0.09799740912
0.08469551441
0.1409513627
0.1189937443
0.1265814811
0.1145715457
0.1394641381
0.02303659406
0.03211014172
0.05333402009
0.05627508371
0.07191958021
0.06249118853
0.04692672985
0.05023203189
0.1277845217
0.1252634425
0.07231968066
0.1558677398
0.1398280279
0.1441214986
0.13201025
0.1351365274
0.1517857498
0.02027449777
0.02269168281
0.03159993544
0.01373468269
0.01318233149
0.01200310476
0.04900286987
0.02948346252
0.03428606018
0.02505054636
0.01588668319
0.01778987548
0.05534738314
0.0513265542
0.02976166044
0.08899938599
0.06941976509
0.07336157529
0.06525120689
0.08457851252
0.0407480549
0.04430454575
0.05910939497
0.0156860136
0.01476438162
0.03600332169
0.03566825008
0.2261199272
0.2198445133
0.1328001158
0.346878353
0.2874884797
0.2930407361
0.2435555955
0.2808227288
0.3281260681
0.1058825823
0.0856601946
0.0894970579
0.07754753747
0.08147549387
0.1013259324
0.04629850987
0.06303154475
0.05910905144
0.186167877
0.1652609619
0.176475428
0.1494737907
0.1566056858
0.1751567423
0.09246562125
0.1354011683
0.1293583601
0.08966404086
0.05642801154
0.05931578736
0.01622208827
0.01139088706
0.01210470231
0.04147287751
0.03959306826
0.0468137214
0.04502982868
0.02952944088
0.07410767747
0.05953303434
0.06164853668
0.01143354377
0.01462432909
0.01323186171
0.01826473873
0.01632323296
0.01200655608
0.03376877531
0.02516572215
0.02744952449
0.01689936762
0.01274995585
0.01353909912
0.01178342752
0.01202437998
0.0152446917
0.02501848997
0.01693968856
0.018363871
0.01458683745
0.01569245428
0.0224673417
0.01320697365
0.01429343998
0.02262353106
0.209851195
0.1965361795
0.1769258741
0.2248707724
0.2088823454
0.2231285524
0.02948888266
0.03149355594
0.03921243249
0.0147154081
0.02245780829
0.02031977767
0.02700722559
0.02497639522
0.01633932375
0.03622592417
0.03452762703
0.02528646428
0.05043979763
0.04322298036
0.04322544596
0.04033734803
0.04910548184
0.01825939724
0.01715629883
0.03258199642
0.02415783551
0.02631643453
0.02015193067
0.02216849674
0.03043819524
0.5189820127
0.6115878087
0.7120037726
0.8172005632
0.936132279
1.076315246
0.06133571302
0.07851808091
0.07482640943
0.2252551938
0.2449499186
0.2255422724
0.2965241574
0.3143632335
0.2924745367
0.3678514139
0.3867276114
0.3657188098
0.4498567003
0.4740090984
0.453261453
0.6000024512
0.6899123318
0.6453795985
0.7711009022
0.8684308248
0.84171395
0.9701464443
1.095657743
1.067997279
0.1184930615
0.1554401706
0.1504121195
0.3532406388
0.3717237012
0.3281743273
0.4264523868
0.4414423384
0.4022851808
0.4858576103
0.5026317585
0.4684186186
0.5567737544
0.577249846
0.5469927539
0.7134879345
0.7924820843
0.7384478514
0.8619855239
0.9483612752
0.9055233911
1.029064549
1.147502996
1.101303998
0.1654321867
0.2355192315
0.2312670619
0.4261929399
0.4926005114
0.4893702596
0.6703736399
0.6647133385
0.5968685022
0.6719765808
0.6788745751
0.6279899054
0.7124832445
0.7283098987
0.6863361694
0.8686640628
0.9256511537
0.8546086269
0.9885480961
1.056162914
0.9995755662
1.121552874
1.166635618
1.165956352
0.177115735
0.2438212342
0.2424685448
0.4351829415
0.5012442401
0.4994019085
0.694102589
0.7546845504
0.7524646192
0.9109682566
0.9422279587
0.8624550645
0.9258673475
0.9325358948
0.8756218452
1.063423831
1.099041025
1.005918665
1.155763651
1.168772636
1.125144282
1.169651079
1.167768619
1.167266356
0.1863347598
0.2505232667
0.2483474281
0.4427149272
0.5097814078
0.5073222591
0.7041950827
0.7647105367
0.7619371824
0.9202380951
0.9623022611
0.9601578336
1.059290621
1.082648674
1.08140304
1.132889374
1.15624441
1.155221697
1.165817557
1.170156987
1.169575748
1.170726482
1.168607141
1.168251727
0.2016721237
0.2636162388
0.2597608132
0.4546369965
0.5220928869
0.5187148947
0.7173485363
0.7769901078
0.7738767323
0.9290880861
0.9699933425
0.9682518628
1.063991506
1.086620168
1.085759162
1.134943622
1.157645213
1.157041526
1.166838232
1.170908537
1.170591734
1.171302686
1.169127965
1.168928009
0.2196646544
0.2797045466
0.2758807431
0.4682680872
0.5346826636
0.5319773504
0.7288522129
0.7875472988
0.7851917211
0.9360998829
0.9759221034
0.9745782685
1.067352629
1.089384659
1.088783246
1.136195652
1.158387038
1.158085078
1.167332596
1.171217655
1.171108439
1.171526851
1.169365566
1.169305701
0.2331919498
0.2922950068
0.2893006949
0.4790133558
0.5444050882
0.5421062268
0.73688618
0.7952576329
0.79358034
0.9415892397
0.9805264573
0.9794842332
1.069789261
1.091317406
1.090897665
1.136894068
1.158661685
1.158573098
1.167428594
1.171194878
1.171239277
1.171474541
1.169373169
1.169423241
0.2449627383
0.3034493794
0.3007732295
0.4884793914
0.5529070778
0.5508756699
0.7426354035
0.8005680929
0.7994215205
0.9456632383
0.9839891145
0.9832302629
1.07153771
1.09264255
1.092360799
1.137197604
1.158603264
1.158667749
1.167232573
1.1709322
1.171087003
1.171218222
1.169202712
1.169337533
0.2554991305
0.3135135597
0.3110869768
0.49694999
0.5604988713
0.5586744945
0.7471322705
0.8043245289
0.8034852302
0.9483381731
0.9863092505
0.9858339584
1.072683274
1.093461148
1.093302033
1.137188734
1.158297939
1.158477635
1.166825699
1.170497998
1.170731772
1.170817559
1.168908903
1.169099486
0.2650702639
0.3226998292
0.3204743097
0.5046298585
0.5673690813
0.5657110699
0.7509467078
0.8072431528
0.8065670611
0.9498681947
0.9875938191
0.9873566745
1.07324071
1.093799549
1.093758941
1.136904418
1.157796869
1.158069581
1.166261764
1.169940049
1.170231089
1.170317164
1.168525371
1.168757657
0.2738636107
0.3311955188
0.3291275626
0.5116730494
0.5736545587
0.5721313861
0.7543229311
0.8096915264
0.8091125504
0.9506327771
0.9881032669
0.9880329659
1.073258
1.093688553
1.093755188
1.136373559
1.157134291
1.157483795
1.165576912
1.169291804
1.169624657
1.169747818
1.168085336
1.168340708
0.2820453556
0.3391435885
0.3372014813
0.5182074134
0.5794656404
0.5780522431
0.7573711107
0.8118292848
0.8113193019
0.9509295688
0.9881013675
0.988138179
1.072837228
1.093198182
1.093351473
1.135636345
1.156342778
1.156752539
1.164801006
1.168579472
1.168941553
1.169132866
1.167601596
1.167876969
0.2897491448
0.3466434922
0.3448070601
0.5243259187
0.5848815923
0.5835616256
0.7601434338
0.8137231112
0.8132706446
0.9509343013
0.9877735615
0.9878788549
1.072095421
1.092418892
1.092635854
1.134741853
1.155456522
1.15590935
1.163961866
1.167825349
1.1682059
1.168489419
1.167096614
1.167377525
0.2970691034
0.3537543529
0.3520099078
0.5300742962
0.5899447821
0.5887106369
0.7626624706
0.8154000071
0.8150002715
0.9507427012
0.9872344468
0.9873846021
1.071134966
1.091437396
1.091697513
1.133739019
1.154508374
1.154988225
1.163084711
1.167048494
1.167438255
1.167832411
1.166572701
1.166862278
0.3040479733
0.3605197345
0.3588593441
0.5354835296
0.5946716038
0.5935213435
0.7649364013
0.8168712837
0.8165225142
0.950409572
0.9865550157
0.986735221
1.070035624
1.090325709
1.090612525
1.13267087
1.153527336
1.154020196
1.162191497
1.166265081
1.166656239
1.167172422
1.166048908
1.166333071
0.3106963426
0.3669494035
0.3653737896
0.5405468664
0.5990547592
0.5979921715
0.7669628342
0.8181393651
0.8178412353
0.9499690559
0.9857815478
0.9859816677
1.06885709
1.089140125
1.089440869
1.131573391
1.152537956
1.153031963
1.161300777
1.165488888
1.165874416
1.166520926
1.165523519
1.165808415
0.3169882313
0.3730152959
0.3715349701
0.5452467732
0.6030742331
0.6021039077
0.7687443228
0.8192129319
0.81896133
0.9494521203
0.984952466
0.9851626988
1.067646682
1.087925885
1.088229913
1.130477301
1.15156089
1.152045815
1.160428519
1.164732064
1.165105582
1.165885115
1.165012912
1.165284214
0.322893133
0.3786823659
0.3773021423
0.5495856151
0.606740818
0.6058540893
0.7703146456
0.8201293489
0.8199115146
0.9489022342
0.9841126329
0.9843207883
1.066447795
1.086723617
1.087020945
1.129410616
1.150615102
1.151080506
1.159589661
1.164006339
1.164360305
1.165277071
1.164519959
1.164781531
0.3284306059
0.3839751624
0.3826807027
0.5536071581
0.6101260138
0.6093002034
0.7717487044
0.8209604217
0.8207557975
0.9483771805
0.9833155946
0.983507735
1.06530286
1.085571976
1.08585307
1.128400133
1.14972231
1.150154908
1.158799882
1.163324301
1.163649789
1.164702748
1.164049992
1.164290993
0.3336874956
0.388988506
0.3877480486
0.5574171848
0.613342409
0.6125466682
0.7731460992
0.8217968536
0.8215820829
0.9479411594
0.9826186647
0.9827803533
1.064254445
1.084509657
1.084764648
1.127476741
1.14890587
1.149290068
1.158077127
1.162699714
1.162983944
1.164179399
1.163630344
1.163837994
0.3387902325
0.3938541457
0.3926228836
0.5611398522
0.6165266363
0.6157231727
0.7746084262
0.8227298191
0.8224822598
0.947658349
0.9820796518
0.9821963534
1.063347719
1.083578775
1.083796694
1.126675026
1.148190134
1.148506614
1.157439507
1.162145564
1.162378938
1.163708634
1.163226165
1.163410093
0.3438746734
0.3987119564
0.3974199862
0.5649089309
0.6197960153
0.6189413002
0.7762307243
0.8238453019
0.8235375323
0.9475933433
0.9817584989
0.9818127455
1.062633199
1.082827128
1.082994436
1.12603699
1.14758888
1.147835904
1.156883807
1.161654077
1.161858516
1.163289994
1.162907153
1.163043627
0.3490837251
0.4037126933
0.4022056577
0.5688730286
0.6232865949
0.6222498218
0.7781412182
0.8252665638
0.8247913684
0.9478427959
0.9817456334
0.9816740492
1.062188008
1.082327959
1.082399068
1.125642303
1.14716243
1.147357301
1.156492079
1.161300625
1.161495289
1.162979269
1.162628064
1.162777156
0.1751990929
0.1672634704
0.1721371024
0.0816113539
0.06574204062
0.06765215342
0.03772149254
0.03807468763
0.04771415172
0.1823557568
0.1840131889
0.1933460575
0.1344336126
0.1400900265
0.09922840007
0.09648449171
0.07907975423
0.04392065608
0.04165031109
0.03390112098
0.02535210683
0.02389399124
0.03861279084
0.04885982565
0.04521152436
0.08758154152
0.1050287245
0.1022374169
0.02942987631
0.02760796257
0.273745399
0.2571709754
0.2407488699
0.2910785755
0.2741061943
0.2910030403
0.3460463489
0.3284750794
0.3093057344
0.3699628093
0.3484268147
0.3652953334
0.4342596907
0.4179065116
0.3929548415
0.4744016118
0.4447833682
0.4610207532
0.08583516302
0.08237481091
0.06511729042
0.1208906598
0.1013746816
0.1047951404
0.09363895067
0.09734597884
0.1173287689
0.2939723867
0.2673238547
0.247593005
0.3047031795
0.2833518445
0.312926351
0.2396103678
0.2591011697
0.2791295989
0.3688373291
0.3393530789
0.3221399041
0.3741382738
0.356599376
0.3858933766
0.3098118426
0.331876011
0.3497327409
0.4371319502
0.4108554756
0.3921069998
0.4502840239
0.4306284728
0.4559731157
0.3851899554
0.406094872
0.4269882873
0.5199382381
0.4953992516
0.4713395713
0.5475904111
0.5218144963
0.5450031663
0.4797187616
0.4998095505
0.5252733392
0.1643923448
0.1597158021
0.1241165075
0.1864073582
0.1895636258
0.2260897095
0.4854083295
0.4265734155
0.4102844068
0.4624910614
0.446203874
0.5098066983
0.3492093124
0.3932902522
0.4124908195
0.5386147569
0.4867166916
0.4741066776
0.5113035094
0.4993908892
0.5481783383
0.4189220685
0.4562707008
0.4704645251
0.5817423858
0.5397828318
0.5250695676
0.5715900171
0.5549696412
0.5949876305
0.4857467484
0.5192991585
0.5368884475
0.6472809238
0.6112146029
0.5908847619
0.6565949801
0.6324274621
0.6673967633
0.5709885683
0.6005930662
0.6235738004
0.09995479476
0.09590186773
0.2408393769
0.2386269075
0.1694104357
0.3637752666
0.304356682
0.3063664539
0.2977764148
0.301545888
0.3607541776
0.4974542716
0.4952415853
0.4290622165
0.6240465638
0.5603282153
0.5625130434
0.5547847646
0.5578004236
0.6214206375
0.7501862065
0.7463894623
0.6874759901
0.7300839488
0.7349462723
0.8066129867
0.6028705177
0.6636512674
0.6666781103
0.7947475365
0.7345301631
0.7310093873
0.748805307
0.7403749723
0.7975515906
0.639197865
0.6876078883
0.6984685237
0.8225544556
0.7735135437
0.7603255319
0.8147845403
0.7905378706
0.8389574151
0.7051416253
0.7465920124
0.7696664547
0.1111532058
0.1088086795
0.246578339
0.2451181359
0.1791261424
0.3712572381
0.3099206518
0.3110657246
0.3078004501
0.3088966257
0.3697741601
0.5051167389
0.5031130544
0.4368918426
0.6328389782
0.568450256
0.5706459289
0.564501292
0.5664388321
0.6306442052
0.7593539717
0.7569485863
0.6963293756
0.8658041973
0.8135967519
0.8160043783
0.8089675306
0.8112870583
0.8634815171
0.9579786894
0.9557749943
0.9132622451
0.9976450771
0.9933649241
0.9954389406
0.8592444737
0.9295657784
0.9248572696
1.064247952
0.9940680268
0.9915335084
1.019594477
1.003122103
1.068045723
0.8900239021
0.9451922438
0.9621122221
0.1227304534
0.1192691482
0.2562498145
0.2531548965
0.1895182107
0.3789709383
0.316661679
0.31942254
0.3125111379
0.3143512817
0.3765165443
0.5155003223
0.5125062856
0.4452090528
0.6438493423
0.5788224797
0.5820780886
0.573087875
0.5758208875
0.6406990046
0.7707361344
0.7676570561
0.7072859567
0.8757183811
0.8239745807
0.8268180248
0.8185376445
0.821201669
0.8731481048
0.9663911464
0.9643934423
0.9225718825
1.03320849
1.00121542
1.002920027
0.9974460784
0.9993820363
1.031640132
1.084816328
1.083782815
1.060622555
1.11908284
1.103113858
1.103997844
1.101066232
1.102139928
1.118232855
0.1409683208
0.1359413045
0.2718376544
0.2676802689
0.2062493208
0.3924669525
0.3299282739
0.333755626
0.3226252593
0.3261488828
0.3886638889
0.5288653632
0.5255148579
0.4582384078
0.6577597297
0.5924029247
0.5957019567
0.5854810215
0.5889876352
0.6543046275
0.7826648097
0.7799631123
0.7206599977
0.8854313765
0.8350033288
0.8374111139
0.8296575316
0.8324321184
0.8832053091
0.9731472186
0.9716218977
0.9310037711
1.038365202
1.007347462
1.008624809
1.004504937
1.005977189
1.03722369
1.0881257
1.087406743
1.064937521
1.121735703
1.106187926
1.106787049
1.104799644
1.105527563
1.121173334
0.1602753226
0.1560924723
0.2862122721
0.2830223507
0.2232772127
0.4063811629
0.3441113543
0.3470992472
0.3375445555
0.3410206707
0.4033332523
0.5397261341
0.5372556631
0.4710951375
0.668648586
0.6035376012
0.6058049901
0.5985724298
0.6011355719
0.6663149292
0.7917399461
0.7897300242
0.7311373742
0.8931402595
0.8438109697
0.8456708598
0.8396809595
0.8418138188
0.8913819924
0.9783710227
0.9771848255
0.9376045701
1.042164988
1.011973284
1.012948906
1.009817078
1.010930992
1.041316838
1.090437856
1.089934819
1.068036246
1.123460578
1.10826574
1.108667199
1.107329855
1.107821187
1.123099845
0.1754273609
0.1718445055
0.2980255983
0.2952013656
0.2362702776
0.4175781381
0.3555485237
0.3582116786
0.3499976731
0.3528119088
0.4149124094
0.5487845774
0.5466293902
0.4814861519
0.6764158712
0.6119849099
0.6138828472
0.6079579971
0.6100132394
0.6746631821
0.7981644445
0.7967814507
0.7384906966
0.8990769483
0.8504146878
0.8517237334
0.847391409
0.848971891
0.8977592787
0.9823998011
0.9814983858
0.9427417119
1.045005869
1.015509183
1.016247535
1.013861551
1.014714149
1.044371661
1.092046964
1.091699807
1.070285121
1.12453313
1.109645324
1.10990515
1.109028975
1.10935395
1.124314625
0.1884000044
0.1853397414
0.3086013228
0.3060573596
0.2476974847
0.4274877085
0.3657976381
0.3682055258
0.3608050793
0.3633322615
0.4251138505
0.5568030407
0.5548816977
0.4906804748
0.682606275
0.6192020338
0.6208688764
0.6157141518
0.617485239
0.6811584905
0.8025867678
0.801618565
0.7438462236
0.9032440108
0.8549244368
0.8557848677
0.8529052789
0.8539684096
0.9023617935
0.9852901404
0.9846756433
0.9464575803
1.047078168
1.01812074
1.018630533
1.016929049
1.017553472
1.046628886
1.093112697
1.092893035
1.071879635
1.125138306
1.110512456
1.110661522
1.11013537
1.110337243
1.125023892
0.1996716055
0.1969802793
0.3182035487
0.3158844616
0.2579740078
0.4363918951
0.3751192193
0.3773365181
0.3705553426
0.3728590159
0.4342487563
0.5640148488
0.5622782777
0.4989369584
0.6879207072
0.6255984237
0.6270947533
0.6224884515
0.6240637129
0.6866542993
0.80585874
0.80511332
0.7481363663
0.9058855115
0.8579017857
0.8584871705
0.8565605655
0.8572625434
0.9053415285
0.987066564
0.9867189059
0.9488129531
1.048415043
1.019816322
1.020101792
1.019082472
1.01947715
1.048149711
1.093689306
1.093590219
1.072876864
1.125375128
1.110956971
1.111006013
1.110785119
1.110883285
1.125347492
0.2097364211
0.2073149678
0.3270239643
0.324882348
0.2673334166
0.4444940517
0.3837402116
0.3857980629
0.3795113833
0.3816449265
0.4425326932
0.5705773626
0.5689907231
0.5064444245
0.6926518151
0.6313694117
0.632730313
0.6285538624
0.6299776818
0.6915146633
0.8085130245
0.8078908818
0.7518258545
0.9075033627
0.8599881843
0.8604230393
0.8590256593
0.8595238477
0.9071683822
0.987927444
0.9877826071
0.9501170403
1.04904119
1.020659978
1.020757752
1.020335497
1.020520318
1.048946772
1.093796672
1.093811886
1.073292261
1.125282263
1.111008983
1.110963627
1.111030849
1.111031445
1.125334751
0.2188821505
0.2166684832
0.3352304086
0.3332291819
0.2759596267
0.4519733513
0.3917614741
0.3936859007
0.3878196951
0.3898064912
0.4501535323
0.5766134962
0.575148174
0.5133493809
0.6969405165
0.6366396704
0.6378909907
0.634061168
0.635363422
0.6959045617
0.810793672
0.8102515528
0.7551126461
0.9085230988
0.8615810941
0.8619278551
0.8608313558
0.8612162393
0.9083082507
0.9881526455
0.988142094
0.9507419338
1.049064324
1.020831214
1.020793833
1.020816561
1.020839789
1.049106842
1.093485261
1.093598172
1.073189139
1.124886914
1.110698625
1.110570597
1.110896277
1.110807388
1.125011686
0.2273232871
0.2252683506
0.3429459003
0.3410586754
0.2840094696
0.458964754
0.3992870157
0.4011020392
0.395580658
0.3974467004
0.457256821
0.582219472
0.5808544579
0.5197728266
0.7008705907
0.6415005468
0.6426599872
0.6391174295
0.6403199211
0.6999186559
0.8128044947
0.8123242645
0.7580884936
0.9091889708
0.8628698234
0.863155845
0.8622572138
0.8625705488
0.9090478546
0.9879697388
0.9880446057
0.9509532484
1.048637772
1.020533427
1.020405857
1.020729926
1.020642151
1.048778453
1.09283895
1.093026937
1.072677433
1.124232839
1.110082447
1.109889
1.110424532
1.110261207
1.124417263
0.2352250748
0.2332932594
0.350243898
0.3484554437
0.29161192
0.4655692755
0.4063963953
0.4081136471
0.4028926696
0.4046563996
0.4639477203
0.5874556521
0.5861795404
0.5257953135
0.7044892019
0.6460099648
0.6470867899
0.6437974599
0.6449135803
0.7036123483
0.814587708
0.8141621717
0.7607961062
0.9096200999
0.8639357827
0.8641726381
0.8634282557
0.8636877728
0.9095306802
0.9875252361
0.9876553469
0.9509020235
1.047901495
1.019926101
1.019739941
1.020260837
1.020100207
1.048108277
1.091948536
1.092189443
1.071872231
1.123377471
1.109232197
1.108991576
1.109682122
1.109462621
1.123606612
0.2426878369
0.2408584463
0.3571785202
0.3554770394
0.2988435708
0.4718564392
0.4131322058
0.4147633979
0.4098081963
0.4114804573
0.4703146013
0.5923499969
0.5911579665
0.5314574238
0.7078181476
0.6501961865
0.6511940955
0.6481431252
0.6491791566
0.7070126011
0.8161610674
0.8157870409
0.7632535786
0.9098747593
0.8648147501
0.865008063
0.8643976791
0.8646113372
0.9098257744
0.9869090232
0.9870757444
0.9506709911
1.046962468
1.019118791
1.018895215
1.019542425
1.019334842
1.047211694
1.090894005
1.091169309
1.070870468
1.12237973
1.108218213
1.107946527
1.108741764
1.108483486
1.122639292
0.2497829206
0.2480404687
0.3637766714
0.3621584514
0.3057403731