/*--------------------------------*- C++ -*----------------------------------*\
| =========                 |                                                 |
| \\      /  F ield         | OpenFOAM: The Open Source CFD Toolbox           |
|  \\    /   O peration     | Version:  v2012                                 |
|   \\  /    A nd           | Website:  www.openfoam.com                      |
|    \\/     M anipulation  |                                                 |
\*---------------------------------------------------------------------------*/
FoamFile
{
    version     2.0;
    format      ascii;
    class       pointVectorField;
    location    "1.61";
    object      pointDisplacement;
}
// * * * * * * * * * * * * * * * * * * * * * * * * * * * * * * * * * * * * * //

dimensions      [0 1 0 0 0 0 0];


internalField   nonuniform List<vector> 
6426
(
(0 0 0)
(0 0 0)
(0 0 0)
(0 0 0)
(0 0 0)
(0 0 0)
(0 0 0)
(0 0 0)
(0 0 0)
(0 0 0)
(-0.00118874991 -0.01071780173 0)
(-0.001206571703 -0.01104727011 0)
(-0.001222178496 -0.01137686825 0)
(-0.0005403710746 -0.01139009994 0)
(-0.0005059057824 -0.01073155791 0)
(0.009909948785 -0.01099975384 0)
(0.009847692715 -0.01231802851 0)
(0.009784894398 -0.01363591706 0)
(0.01258366031 -0.0137151201 0)
(0.01270574038 -0.01107757233 0)
(0.01130836365 -0.0110388022 0)
(0.02023560959 -0.01078939444 3.433919815e-13)
(0.01986439472 -0.01311706609 3.385070002e-13)
(0.02123350937 -0.01236685708 3.1824543e-13)
(0.02181208041 -0.01028174281 3.258782133e-13)
(0.02209212958 -0.007641696086 2.422090306e-13)
(0.02129079908 -0.009079220396 2.3374358e-13)
(0.01977570343 -0.007711124081 1.992295218e-13)
(0.02061332331 -0.00651698158 2.074451722e-13)
(0.01257674813 -0.003118464804 1.015298956e-13)
(0.01181938092 -0.003628454213 9.546530233e-14)
(0.008652356143 -0.002474496979 6.558642518e-14)
(0.009319557584 -0.002148662024 7.061018437e-14)
(0.001326815875 -0.0002528200361 8.493206138e-15)
(0.001078599897 -0.0002563109176 6.911138328e-15)
(8.552823359e-05 -1.929917443e-05 5.273559367e-16)
(0.0001634055698 -2.953258746e-05 9.992007222e-16)
(0 0 0)
(0 0 0)
(0 0 0)
(0 0 0)
(0 0 0)
(0 0 0)
(0 0 0)
(0 0 0)
(0 0 0)
(0 0 0)
(0 0 0)
(0 0 0)
(0 0 0)
(0 0 0)
(-0.001924474779 -0.02116931387 0)
(-0.001944849368 -0.0218311835 0)
(-0.001965243484 -0.02249366822 0)
(-0.0005555901812 -0.02253706464 0)
(-0.0005148197083 -0.02121271034 0)
(0.009352714721 -0.02151648407 0)
(0.009271192712 -0.02416457755 0)
(0.01205036274 -0.02415727377 3.581024366e-13)
(0.01216362568 -0.02158591093 3.591987818e-13)
(0.01878198445 -0.01968128794 3.242267566e-13)
(0.01830349614 -0.02157185934 3.173017404e-13)
(0.01927397045 -0.01992697907 2.927658116e-13)
(0.01984614957 -0.0182660227 3.005096172e-13)
(0.0185276158 -0.0123835061 2.041145031e-13)
(0.01777666278 -0.01332457368 1.960931417e-13)
(0.01587273426 -0.01087190595 1.603717159e-13)
(0.01695822602 -0.01036730049 1.712796571e-13)
(0.008921976502 -0.004314919004 7.210898545e-14)
(0.007776500582 -0.004216813986 6.285250098e-14)
(0.005287343451 -0.002681652874 4.009292898e-14)
(0.006024511591 -0.002722059716 4.568567746e-14)
(0.000222086526 -8.415184994e-05 1.429412144e-15)
(0.0001003161509 -4.274964885e-05 6.383782392e-16)
(0 0 0)
(0 0 0)
(0 0 0)
(0 0 0)
(0 0 0)
(0 0 0)
(0 0 0)
(0 0 0)
(0 0 0)
(0 0 0)
(0 0 0)
(0 0 0)
(0 0 0)
(0 0 0)
(0 0 0)
(0 0 0)
(-0.002250598666 -0.03176291807 0)
(-0.002332139612 -0.03441162667 0)
(0.0004871603328 -0.0344984193 0)
(0.0005687012786 -0.0318497107 0)
(0.008962302055 -0.03182150828 3.562705686e-13)
(0.008772831323 -0.03390694183 3.507333313e-13)
(0.01122469861 -0.03293809164 3.399780457e-13)
(0.01152779756 -0.03116889384 3.481243072e-13)
(0.01674564041 -0.0262228699 2.914751773e-13)
(0.01602289508 -0.0271279586 2.78874146e-13)
(0.01643613633 -0.02433199337 2.500499807e-13)
(0.01728416582 -0.0236781385 2.630673457e-13)
(0.01471138095 -0.01456419613 1.622452173e-13)
(0.01367043322 -0.014620331 1.506433867e-13)
(0.01161969534 -0.01135980591 1.17267307e-13)
(0.01264278179 -0.01143912678 1.276895256e-13)
(0.004978832927 -0.003576395895 4.021782907e-14)
(0.004278320922 -0.003324357239 3.454181385e-14)
(0.002190253521 -0.001594285502 1.659783422e-14)
(0.002974718792 -0.002001737069 2.255140519e-14)
(0 0 0)
(0 0 0)
(0 0 0)
(0 0 0)
(0 0 0)
(0 0 0)
(0 0 0)
(0 0 0)
(0 0 0)
(0 0 0)
(0 0 0)
(0 0 0)
(0 0 0)
(0 0 0)
(0 0 0)
(0 0 0)
(0 0 0)
(0 0 0)
(-0.002391715825 -0.04066982404 3.45126705e-13)
(-0.00226016869 -0.04119736642 3.290007156e-13)
(0.0003455850551 -0.0405836602 3.235328672e-13)
(0.0003359398515 -0.04023436804 3.407690796e-13)
(0.007785493099 -0.03695514914 3.113342917e-13)
(0.007305727509 -0.03656985157 2.901706653e-13)
(0.009088961638 -0.03441382699 2.727540416e-13)
(0.009767900999 -0.03504950311 2.948752353e-13)
(0.01302813229 -0.02683936113 2.253058851e-13)
(0.01177769506 -0.02563226073 2.027961132e-13)
(0.01163048704 -0.02213478577 1.751654377e-13)
(0.01301874702 -0.02344418456 1.968147867e-13)
(0.009739269815 -0.0126902385 1.06803455e-13)
(0.008258634889 -0.01138986402 9.034439863e-14)
(0.006459213896 -0.008157395198 6.478151349e-14)
(0.007840939632 -0.009350019674 7.879807917e-14)
(0.00197178665 -0.001877334744 1.589006704e-14)
(0.001270161468 -0.001283257108 1.022792961e-14)
(0.0002847248645 -0.0002700958309 2.164934898e-15)
(0.0006581373576 -0.0005879732695 4.982125823e-15)
(0 0 0)
(0 0 0)
(0 0 0)
(0 0 0)
(0 0 0)
(0 0 0)
(0 0 0)
(0 0 0)
(0 0 0)
(0 0 0)
(0 0 0)
(0 0 0)
(0 0 0)
(0 0 0)
(0 0 0)
(0 0 0)
(0 0 0)
(0 0 0)
(-0.001510019474 -0.03704421415 2.513544928e-13)
(-0.001208116033 -0.03385841501 2.187555692e-13)
(0.0005208046698 -0.03285284876 2.120664755e-13)
(0.0004812098537 -0.03608383045 2.445543767e-13)
(0.00544528928 -0.03074055511 2.077504835e-13)
(0.004712459186 -0.02740589005 1.765115831e-13)
(0.005583073283 -0.02487149269 1.601080379e-13)
(0.006548494387 -0.0281933473 1.904171265e-13)
(0.007551912594 -0.01891763388 1.277034034e-13)
(0.006097743837 -0.01590842253 1.023903184e-13)
(0.005571291255 -0.01276294283 8.217038161e-14)
(0.007082991154 -0.01555872745 1.050548537e-13)
(0.003891081152 -0.00624036138 4.221623051e-14)
(0.002631421296 -0.004415768156 2.847722058e-14)
(0.001552600647 -0.002393879666 1.544597783e-14)
(0.00258059451 -0.003798987824 2.57294186e-14)
(2.17139801e-05 -2.575033735e-05 1.665334537e-16)
(0 0 0)
(0 0 0)
(0 0 0)
(0 0 0)
(0 0 0)
(0 0 0)
(0 0 0)
(0 0 0)
(0 0 0)
(0 0 0)
(0 0 0)
(0 0 0)
(0 0 0)
(0 0 0)
(0 0 0)
(0 0 0)
(0 0 0)
(0 0 0)
(0 0 0)
(0 0 0)
(0 0 0)
(-0.0004377750763 -0.02073051714 1.171562847e-13)
(-0.0002688835908 -0.01588546294 8.618106229e-14)
(0.000394324384 -0.01505780569 8.167078125e-14)
(0.0004727598361 -0.019808097 1.118966031e-13)
(0.002416698904 -0.01510648649 8.526512829e-14)
(0.001709735835 -0.01092493776 5.923039836e-14)
(0.001835645978 -0.009170126692 4.971023593e-14)
(0.00268523796 -0.01305655194 7.369105326e-14)
(0.002224983586 -0.006484124051 3.660960424e-14)
(0.001265458111 -0.003818735398 2.070565941e-14)
(0.0008674941375 -0.00231340931 1.254552018e-14)
(0.001737049779 -0.004466261771 2.521594045e-14)
(0.0001998758512 -0.0003806672212 2.15105711e-15)
(5.612378722e-07 -1.112746647e-06 0)
(0 0 0)
(2.337117152e-06 -4.102194759e-06 2.775557562e-17)
(0 0 0)
(0 0 0)
(0 0 0)
(0 0 0)
(0 0 0)
(0 0 0)
(0 0 0)
(0 0 0)
(0 0 0)
(0 0 0)
(0 0 0)
(0 0 0)
(0 0 0)
(0 0 0)
(0 0 0)
(0 0 0)
(0 0 0)
(0 0 0)
(0 0 0)
(0 0 0)
(0 0 0)
(0 0 0)
(-2.870306238e-05 -0.003645241338 1.765254609e-14)
(-7.778462711e-06 -0.001239025832 5.800915304e-15)
(3.098806883e-05 -0.001014503609 4.74620343e-15)
(9.860350516e-05 -0.003247537814 1.573741137e-14)
(0.0002177961284 -0.001498120874 7.244205236e-15)
(2.700837246e-05 -0.0001914200371 8.881784197e-16)
(4.978388351e-06 -2.798629166e-05 1.387778781e-16)
(0.0001654518077 -0.0009005068361 4.357625372e-15)
(0 0 0)
(0 0 0)
(0 0 0)
(0 0 0)
(0 0 0)
(0 0 0)
(0 0 0)
(0 0 0)
(0 0 0)
(0 0 0)
(0 0 0)
(0 0 0)
(0 0 0)
(0 0 0)
(0 0 0)
(0 0 0)
(0 0 0)
(0 0 0)
(0 0 0)
(0 0 0)
(0 0 0)
(0 0 0)
(0 0 0)
(0 0 0)
(0 0 0)
(0 0 0)
(0 0 0)
(0 0 0)
(0 0 0)
(0 0 0)
(0 0 0)
(0 0 0)
(0 0 0)
(0 0 0)
(0 0 0)
(0 0 0)
(0 0 0)
(0 0 0)
(0 0 0)
(0 0 0)
(0 0 0)
(0 0 0)
(0 0 0)
(0 0 0)
(0 0 0)
(0 0 0)
(0 0 0)
(0 0 0)
(0 0 0)
(0 0 0)
(0 0 0)
(0 0 0)
(0 0 0)
(0 0 0)
(0 0 0)
(0 0 0)
(0 0 0)
(0 0 0)
(0 0 0)
(0 0 0)
(0 0 0)
(0 0 0)
(0 0 0)
(0 0 0)
(0 0 0)
(0 0 0)
(0 0 0)
(0 0 0)
(0 0 0)
(0 0 0)
(0 0 0)
(0 0 0)
(0 0 0)
(0 0 0)
(0 0 0)
(0 0 0)
(0 0 0)
(0 0 0)
(0 0 0)
(0 0 0)
(0 0 0)
(0 0 0)
(0 0 0)
(0 0 0)
(0 0 0)
(0 0 0)
(0 0 0)
(0 0 0)
(0 0 0)
(0 0 0)
(0 0 0)
(0 0 0)
(0 0 0)
(0 0 0)
(0 0 0)
(0 0 0)
(0 0 0)
(0 0 0)
(0 0 0)
(0 0 0)
(0 0 0)
(0 0 0)
(0 0 0)
(0 0 0)
(0 0 0)
(0 0 0)
(0 0 0)
(0 0 0)
(0 0 0)
(0 0 0)
(0 0 0)
(0 0 0)
(0 0 0)
(0 0 0)
(0 0 0)
(0 0 0)
(0 0 0)
(0 0 0)
(0 0 0)
(0 0 0)
(0 0 0)
(0 0 0)
(0 0 0)
(0 0 0)
(0 0 0)
(0 0 0)
(0 0 0)
(0 0 0)
(0 0 0)
(0 0 0)
(0 0 0)
(0 0 0)
(0 0 0)
(0 0 0)
(0 0 0)
(0 0 0)
(0 0 0)
(0 0 0)
(0 0 0)
(0 0 0)
(0 0 0)
(0 0 0)
(0 0 0)
(0 0 0)
(0 0 0)
(0 0 0)
(0 0 0)
(0 0 0)
(0 0 0)
(0 0 0)
(0 0 0)
(0 0 0)
(0 0 0)
(0 0 0)
(0 0 0)
(0 0 0)
(0 0 0)
(0 0 0)
(0 0 0)
(0 0 0)
(0 0 0)
(0 0 0)
(0 0 0)
(0 0 0)
(0 0 0)
(0 0 0)
(0 0 0)
(0 0 0)
(0 0 0)
(0 0 0)
(0 0 0)
(0 0 0)
(0 0 0)
(0 0 0)
(0 0 0)
(0 0 0)
(0 0 0)
(0 0 0)
(0 0 0)
(0 0 0)
(0 0 0)
(0 0 0)
(0 0 0)
(0 0 0)
(0 0 0)
(0 0 0)
(0 0 0)
(0 0 0)
(0 0 0)
(0 0 0)
(0 0 0)
(0 0 0)
(0 0 0)
(0 0 0)
(0 0 0)
(0 0 0)
(0 0 0)
(0 0 0)
(0 0 0)
(0 0 0)
(0 0 0)
(0 0 0)
(0 0 0)
(0 0 0)
(0 0 0)
(0 0 0)
(0 0 0)
(0 0 0)
(0 0 0)
(0 0 0)
(0 0 0)
(0 0 0)
(0 0 0)
(0 0 0)
(0 0 0)
(0 0 0)
(0 0 0)
(0 0 0)
(0 0 0)
(0 0 0)
(0 0 0)
(0 0 0)
(0 0 0)
(0 0 0)
(0 0 0)
(0 0 0)
(0 0 0)
(0 0 0)
(0 0 0)
(0 0 0)
(0 0 0)
(0 0 0)
(0 0 0)
(0 0 0)
(0 0 0)
(0 0 0)
(0 0 0)
(0 0 0)
(0 0 0)
(0 0 0)
(0 0 0)
(0 0 0)
(0 0 0)
(0 0 0)
(0 0 0)
(0 0 0)
(0 0 0)
(0 0 0)
(0 0 0)
(0 0 0)
(0 0 0)
(0 0 0)
(0 0 0)
(0 0 0)
(0 0 0)
(0 0 0)
(0 0 0)
(0 0 0)
(0 0 0)
(0 0 0)
(0 0 0)
(0 0 0)
(0 0 0)
(0 0 0)
(0 0 0)
(0 0 0)
(0 0 0)
(0 0 0)
(0 0 0)
(0 0 0)
(0 0 0)
(0 0 0)
(0 0 0)
(0 0 0)
(0 0 0)
(0 0 0)
(0 0 0)
(0 0 0)
(0 0 0)
(0 0 0)
(0 0 0)
(0 0 0)
(0 0 0)
(0 0 0)
(0 0 0)
(0 0 0)
(0 0 0)
(0 0 0)
(0 0 0)
(0 0 0)
(0 0 0)
(0 0 0)
(0 0 0)
(0 0 0)
(0 0 0)
(0 0 0)
(0 0 0)
(0 0 0)
(0 0 0)
(0 0 0)
(0 0 0)
(0 0 0)
(0 0 0)
(0 0 0)
(0 0 0)
(0 0 0)
(0 0 0)
(0 0 0)
(0 0 0)
(0 0 0)
(0 0 0)
(0 0 0)
(0 0 0)
(0 0 0)
(0 0 0)
(0 0 0)
(0 0 0)
(0 0 0)
(0 0 0)
(0 0 0)
(0 0 0)
(0 0 0)
(0 0 0)
(0 0 0)
(0 0 0)
(0 0 0)
(0 0 0)
(0 0 0)
(0 0 0)
(0 0 0)
(0 0 0)
(0 0 0)
(0 0 0)
(0 0 0)
(0 0 0)
(0 0 0)
(0 0 0)
(0 0 0)
(0 0 0)
(0 0 0)
(0 0 0)
(0 0 0)
(0 0 0)
(0 0 0)
(0 0 0)
(0 0 0)
(0 0 0)
(0 0 0)
(0 0 0)
(0 0 0)
(0 0 0)
(0 0 0)
(0 0 0)
(0 0 0)
(0 0 0)
(0 0 0)
(0 0 0)
(0 0 0)
(0 0 0)
(0 0 0)
(0 0 0)
(0 0 0)
(0 0 0)
(0 0 0)
(0 0 0)
(0 0 0)
(0 0 0)
(0 0 0)
(0 0 0)
(0 0 0)
(0 0 0)
(0 0 0)
(0 0 0)
(0 0 0)
(0 0 0)
(0 0 0)
(0 0 0)
(0 0 0)
(0 0 0)
(0 0 0)
(0 0 0)
(0 0 0)
(0 0 0)
(0 0 0)
(0 0 0)
(0 0 0)
(0 0 0)
(0 0 0)
(0 0 0)
(0 0 0)
(0 0 0)
(0 0 0)
(0 0 0)
(0 0 0)
(0 0 0)
(0 0 0)
(0 0 0)
(0 0 0)
(0 0 0)
(0 0 0)
(0 0 0)
(0 0 0)
(0 0 0)
(0 0 0)
(0 0 0)
(0 0 0)
(0 0 0)
(0 0 0)
(0 0 0)
(0 0 0)
(0 0 0)
(0 0 0)
(0 0 0)
(0 0 0)
(0 0 0)
(0 0 0)
(0 0 0)
(0 0 0)
(0 0 0)
(0 0 0)
(0 0 0)
(0 0 0)
(0 0 0)
(0 0 0)
(0 0 0)
(0 0 0)
(0 0 0)
(0 0 0)
(0 0 0)
(0 0 0)
(0 0 0)
(0 0 0)
(0 0 0)
(0 0 0)
(0 0 0)
(0 0 0)
(0 0 0)
(0 0 0)
(0 0 0)
(0 0 0)
(0 0 0)
(0 0 0)
(0 0 0)
(0 0 0)
(0 0 0)
(0 0 0)
(0 0 0)
(0 0 0)
(0 0 0)
(0 0 0)
(0 0 0)
(0 0 0)
(0 0 0)
(0 0 0)
(0 0 0)
(0 0 0)
(0 0 0)
(0 0 0)
(0 0 0)
(0 0 0)
(0 0 0)
(0 0 0)
(0 0 0)
(0 0 0)
(0 0 0)
(0 0 0)
(0 0 0)
(0 0 0)
(0 0 0)
(0 0 0)
(0 0 0)
(0 0 0)
(0 0 0)
(0 0 0)
(0 0 0)
(0 0 0)
(0 0 0)
(0 0 0)
(0 0 0)
(0 0 0)
(0 0 0)
(0 0 0)
(0 0 0)
(0 0 0)
(0 0 0)
(0 0 0)
(0 0 0)
(0 0 0)
(0 0 0)
(0 0 0)
(0 0 0)
(0 0 0)
(0 0 0)
(0 0 0)
(0 0 0)
(0 0 0)
(0 0 0)
(0 0 0)
(0 0 0)
(0 0 0)
(0 0 0)
(0 0 0)
(0 0 0)
(0 0 0)
(0 0 0)
(0 0 0)
(0 0 0)
(0 0 0)
(0 0 0)
(0 0 0)
(0 0 0)
(0 0 0)
(0 0 0)
(0 0 0)
(0 0 0)
(0 0 0)
(0 0 0)
(0 0 0)
(0 0 0)
(0 0 0)
(0 0 0)
(0 0 0)
(0 0 0)
(0 0 0)
(0 0 0)
(0 0 0)
(0 0 0)
(0 0 0)
(0 0 0)
(0 0 0)
(0 0 0)
(0 0 0)
(0 0 0)
(0 0 0)
(0 0 0)
(0 0 0)
(0 0 0)
(0 0 0)
(0 0 0)
(0 0 0)
(0 0 0)
(0 0 0)
(0 0 0)
(0 0 0)
(0 0 0)
(0 0 0)
(0 0 0)
(0 0 0)
(0 0 0)
(0 0 0)
(0 0 0)
(0 0 0)
(0 0 0)
(0 0 0)
(0 0 0)
(0 0 0)
(0 0 0)
(0 0 0)
(0 0 0)
(0 0 0)
(0 0 0)
(0 0 0)
(0 0 0)
(0 0 0)
(0 0 0)
(0 0 0)
(0 0 0)
(0 0 0)
(0 0 0)
(0 0 0)
(0 0 0)
(0 0 0)
(0 0 0)
(0 0 0)
(0 0 0)
(0 0 0)
(0 0 0)
(0 0 0)
(0 0 0)
(0 0 0)
(0 0 0)
(0 0 0)
(0 0 0)
(0 0 0)
(0 0 0)
(0 0 0)
(0 0 0)
(0 0 0)
(0 0 0)
(0 0 0)
(0 0 0)
(0 0 0)
(0 0 0)
(0 0 0)
(0 0 0)
(0 0 0)
(0 0 0)
(0 0 0)
(0 0 0)
(0 0 0)
(0 0 0)
(0 0 0)
(0 0 0)
(0 0 0)
(0 0 0)
(0 0 0)
(0 0 0)
(0 0 0)
(0 0 0)
(0 0 0)
(0 0 0)
(0 0 0)
(0 0 0)
(0 0 0)
(0 0 0)
(0 0 0)
(0 0 0)
(0 0 0)
(0 0 0)
(0 0 0)
(0 0 0)
(0 0 0)
(0 0 0)
(0 0 0)
(0 0 0)
(0 0 0)
(0 0 0)
(0 0 0)
(0 0 0)
(0 0 0)
(0 0 0)
(0 0 0)
(0 0 0)
(0 0 0)
(0 0 0)
(0 0 0)
(0 0 0)
(0 0 0)
(0 0 0)
(0 0 0)
(0 0 0)
(0 0 0)
(0 0 0)
(0 0 0)
(0 0 0)
(0 0 0)
(0 0 0)
(0 0 0)
(0 0 0)
(0 0 0)
(0 0 0)
(0 0 0)
(0 0 0)
(0 0 0)
(0 0 0)
(0 0 0)
(0 0 0)
(0 0 0)
(0 0 0)
(0 0 0)
(0 0 0)
(0 0 0)
(0 0 0)
(0 0 0)
(0 0 0)
(0 0 0)
(0 0 0)
(0 0 0)
(0 0 0)
(0 0 0)
(0 0 0)
(0 0 0)
(0 0 0)
(0 0 0)
(0 0 0)
(0 0 0)
(-0.001172779195 -0.01038772224 0)
(-0.001515787202 -0.01038061062 0)
(-0.001531069031 -0.01071077289 0)
(-0.0004729025704 -0.01007210888 0)
(-0.00115655259 -0.01005765062 0)
(0.009969109402 -0.009680029325 0)
(0.008575031597 -0.009642099599 0)
(0.008515321159 -0.01096168404 0)
(-0.00190408335 -0.02050682906 0)
(-0.002608926105 -0.02048513036 0)
(-0.002629308507 -0.02114761545 0)
(-0.001547420313 -0.01104059439 0)
(-0.0004740492354 -0.01988835605 0)
(-0.001128713731 -0.019889136 0)
(-0.001789536411 -0.01990019334 0)
(0.009508224889 -0.01889702044 0)
(0.008113631349 -0.01885784343 0)
(0.006710700576 -0.01881748621 0)
(0.006638421894 -0.02013132712 0)
(0.006575213759 -0.02145252785 0)
(0.008452886234 -0.0122797685 0)
(0.004569831527 -0.005565305721 0)
(-0.002209828194 -0.03043856378 0)
(-0.003619481242 -0.03039516737 0)
(-0.003660251715 -0.03171952166 0)
(-0.002649678124 -0.02180948522 0)
(-0.001314953263 -0.005751347126 0)
(-0.0009709211898 -0.005759413828 0)
(0.004327310836 -0.01084654719 0)
(0.004390787691 -0.009527817537 0)
(0.003002339153 -0.009492031361 0)
(0.002969898065 -0.01015162084 0)
(0.002936854171 -0.01081039134 0)
(0.003847249839 -0.006208451586 0)
(0.004540785408 -0.006226415829 0)
(-0.000624477857 -0.005768355176 0)
(-0.001502631872 -0.01597086365 0)
(-0.00217629047 -0.01596139233 0)
(-0.002221397221 -0.0166147427 0)
(-0.001548671519 -0.01662387745 0)
(-0.001455974872 -0.01531737628 0)
(-0.002131461692 -0.0153071714 0)
(-0.0008219054812 -0.01598283066 0)
(-0.0007753711322 -0.01532964737 0)
(0.004052387278 -0.01611053656 0)
(0.004123904634 -0.01479642593 0)
(0.002722762908 -0.01475655477 0)
(0.002643572674 -0.0160679048 0)
(0.002903324332 -0.01146914688 0)
(0.002869503976 -0.01212733935 0)
(0.004261841956 -0.01216398411 0)
(-0.00107102053 -0.008076117959 0)
(-0.001422341369 -0.008065733479 0)
(-0.001432016171 -0.008398161757 0)
(-0.001083795949 -0.008407404088 0)
(-0.003738298711 -0.01329773602 0)
(-0.003716181329 -0.01297049327 0)
(-0.004073264397 -0.01295808429 0)
(-0.001332760461 -0.0133502413 0)
(-0.001293992475 -0.01269349413 0)
(-0.001972397836 -0.0126821527 0)
(-0.001991418016 -0.01301096848 0)
(-0.002010113447 -0.01333905542 0)
(-0.001058563177 -0.007744883609 0)
(-0.001412430601 -0.007733620317 0)
(-0.0007237971279 -0.00808496018 0)
(-0.0007099899717 -0.007754259947 0)
(0.001683401777 -0.00813930213 0)
(0.001714279532 -0.007478494691 0)
(0.001025814423 -0.007462225802 0)
(0.0009947445573 -0.008123273608 0)
(0.001083923222 -0.006140067668 0)
(0.001773285453 -0.006156795167 0)
(-0.004344073959 -0.01856243801 0)
(-0.004328573824 -0.01823314444 0)
(-0.002049356258 -0.01399572641 0)
(-0.001371967546 -0.01400685182 0)
(-0.00375036983 -0.01362984424 0)
(-0.00384963745 -0.01594177149 0)
(-0.003832382341 -0.01561327079 0)
(0.0006502232878 -0.02920161723 0)
(-0.0007594236091 -0.02915822101 0)
(-0.002169076657 -0.0291148246 0)
(0.009096198176 -0.0294138835 3.588934705e-13)
(0.006288829329 -0.02937520268 0)
(0.006206252778 -0.03201554233 3.593930709e-13)
(0.006492662757 -0.02275404631 0)
(0.006451911221 -0.02407778549 0)
(0.00155477068 -0.01077664822 0)
(0.001588009989 -0.01011813002 0)
(0.0008997284636 -0.01010229777 0)
(0.0008666329963 -0.01076094355 0)
(0.0009638445742 -0.008783403089 0)
(0.001652356058 -0.008799365554 0)
(-0.0007379653114 -0.008415587729 0)
(0.003714133285 -0.02134289938 0)
(0.003809853533 -0.02004240205 0)
(0.002405657924 -0.02000533068 0)
(0.002304480237 -0.02129950297 0)
(0.002559936568 -0.01737727086 0)
(0.003980649431 -0.0174242094 0)
(-0.0008695442 -0.01663548738 0)
(-0.002087535717 -0.026466116 0)
(-0.002046765261 -0.02514176171 0)
(-0.003456418287 -0.0250983653 0)
(-0.00349718876 -0.02642271959 0)
(-0.002284430246 -0.006770475497 0)
(-0.00204061668 -0.006731557303 0)
(-0.002132566597 -0.006307462342 0)
(-0.00101510186 -0.00675192215 0)
(-0.001002186277 -0.006419963062 0)
(-0.001355514917 -0.006409578342 0)
(-0.001365824006 -0.006742110234 0)
(-0.003867714927 -0.0162701853 0)
(-0.003686944826 -0.01856819881 0)
(-0.003636270221 -0.01791372686 0)
(-0.00429599426 -0.01791065684 0)
(-0.001700505628 -0.01857757102 0)
(-0.001649768235 -0.01792617953 0)
(-0.002317333453 -0.01792003588 0)
(-0.002361377192 -0.01857409625 0)
(-0.004388793128 -0.0188824585 0)
(-0.002465043277 -0.008039359765 0)
(-0.002477606949 -0.008370467701 0)
(-0.00213318706 -0.00837817692 0)
(-0.002130470378 -0.008043810466 0)
(-0.002511590671 -0.009363166797 0)
(-0.002164155245 -0.009372261827 0)
(-0.002149220828 -0.009042704562 0)
(-0.00249162147 -0.009035303787 0)
(-0.001125658204 -0.009398382953 0)
(-0.001111390432 -0.009068620454 0)
(-0.001455350018 -0.009060679124 0)
(-0.001469793051 -0.009390374657 0)
(-0.002814985695 -0.009034399804 0)
(-0.002851649658 -0.009356761665 0)
(-0.00271744585 -0.008074196184 0)
(-0.00281024541 -0.008346620324 0)
(-0.002572752818 -0.01068430738 0)
(-0.002565298877 -0.01035137974 0)
(-0.002918272496 -0.01034088281 0)
(-0.002923268802 -0.01067437867 0)
(-0.002899392843 -0.009676011785 0)
(-0.002540052283 -0.009688490263 0)
(-0.004049127823 -0.0119066518 0)
(-0.003642030917 -0.01199165263 0)
(-0.003625652087 -0.01166121628 0)
(-0.003953359201 -0.01163918312 0)
(-0.002618159914 -0.0120106739 0)
(-0.002604021063 -0.01167979917 0)
(-0.002946964953 -0.01167250481 0)
(-0.002960106368 -0.01200377967 0)
(-0.002931839885 -0.01100659464 0)
(-0.002582093272 -0.01101631496 0)
(-0.002689181895 -0.01332689317 0)
(-0.002670582519 -0.01299892642 0)
(-0.003014259813 -0.01299105535 0)
(-0.003032754148 -0.01331921004 0)
(-0.002975504322 -0.01233455407 0)
(-0.002634177716 -0.01234118294 0)
(-0.003975307683 -0.01232433945 0)
(-0.003655358762 -0.01232298333 0)
(-0.002563573159 -0.00761352298 0)
(-0.001380409531 -0.007073094357 0)
(-0.001029330338 -0.007083348257 0)
(-0.002377166566 -0.007053245402 0)
(-0.002073663581 -0.007056185477 0)
(-0.002135112295 -0.007706754663 0)
(-0.004259535062 -0.01725414644 0)
(0.01136660916 -0.009718803239 0)
(0.02054269802 -0.008359876665 3.470834731e-13)
(0.01829426659 -0.008526836982 3.567424134e-13)
(0.0180797318 -0.01107750068 3.545774785e-13)
(-0.001485066496 -0.009720044625 0)
(-0.001141858298 -0.009727593402 0)
(-0.002183478293 -0.00970057572 0)
(-0.00222255859 -0.01069428775 0)
(-0.00221128193 -0.01036258606 0)
(0.005959769114 -0.005602122864 0)
(0.01014304634 -0.005716005744 0)
(0.008749402907 -0.00567796625 0)
(-0.001651597585 -0.005745662819 0)
(-0.00169369855 -0.006067795731 0)
(-0.001339379952 -0.006078703489 0)
(-0.0009873799242 -0.006088985737 0)
(-0.0006663356034 -0.006761427571 0)
(-0.0006524796952 -0.006429743713 0)
(0.0003683704405 -0.006785092318 0)
(0.0003830037517 -0.006454355948 0)
(3.910927211e-05 -0.006446539763 0)
(2.423842786e-05 -0.006777391962 0)
(6.673729745e-05 -0.005785693851 0)
(0.0004114451467 -0.005794089208 0)
(-0.003268473959 -0.01066633742 0)
(-0.003252739124 -0.01033662009 0)
(-0.00350558128 -0.01037193554 0)
(-0.003600433423 -0.01064263409 0)
(-0.003345180764 -0.009912817842 0)
(-0.003856485206 -0.01136860838 0)
(-0.003606306979 -0.01133222579 0)
(-0.003694227025 -0.01090954787 0)
(-0.003280664914 -0.01133313833 0)
(-0.003279907233 -0.01099772644 0)
(-0.004277973097 -0.01758267229 0)
(-0.004019858851 -0.01264270271 0)
(-0.003786900163 -0.01462326535 0)
(-0.003774887265 -0.01429244831 0)
(-0.002763046673 -0.0146426555 0)
(-0.002744702801 -0.01431418832 0)
(-0.003083604904 -0.01430880393 0)
(-0.003101341701 -0.01463735137 0)
(-0.003049968589 -0.01364918968 0)
(-0.002708619742 -0.01365569609 0)
(-0.001953143161 -0.005742659862 0)
(-0.002045344334 -0.006034866503 0)
(-0.001712859616 -0.006733827927 0)
(-0.001709940594 -0.006398728858 0)
(-0.002487421986 -0.008702091247 0)
(-0.002901313088 -0.008613987443 0)
(-0.003057926839 -0.009073898989 0)
(-0.003153326593 -0.009354185656 0)
(-0.002557704399 -0.010018087 0)
(-0.002919201656 -0.01000486486 0)
(-0.003251671019 -0.009643124659 0)
(-0.003302411486 -0.01199693597 0)
(-0.003288601013 -0.01166592798 0)
(-0.00368221491 -0.01264835622 0)
(-0.003338360171 -0.01265586333 0)
(-0.003317181547 -0.01232791441 0)
(-0.00247323553 -0.007342870159 0)
(-0.00211853758 -0.007376755332 0)
(-0.001757126488 -0.007390036396 0)
(-0.001731005577 -0.007063286323 0)
(-0.001777339288 -0.008054312245 0)
(-0.001772379081 -0.007720568991 0)
(0.01153899315 -0.005755224414 0)
(0.01573194095 -0.005872976085 0)
(0.01293512449 -0.005794448765 0)
(0.02220908323 -0.008010120727 3.306660501e-13)
(0.02268204326 -0.006017459145 2.482736239e-13)
(0.02333547691 -0.006812026998 2.803174359e-13)
(0.02279373741 -0.008675195961 2.744054983e-13)
(0.02148278786 -0.005210258816 2.159522561e-13)
(0.01360643746 -0.002573595016 1.098010571e-13)
(0.01671235927 -0.003422193138 1.443567488e-13)
(0.01569110192 -0.004201520109 1.355998647e-13)
(0.01030455027 -0.001806941707 7.806255642e-14)
(0.001812707339 -0.0002602997181 1.160183061e-14)
(0.004130412072 -0.0006306409449 2.789435349e-14)
(0.003416533177 -0.0006902251893 2.306488334e-14)
(-0.0006506103694 -0.01336342198 0)
(-0.0006122641629 -0.01270641553 0)
(0.001411313364 -0.01340879697 0)
(0.00144906054 -0.01275164895 0)
(0.0007597517633 -0.01273578508 0)
(0.0007227455662 -0.01339326376 0)
(0.0008323484529 -0.01141961428 0)
(0.001520551907 -0.01143538256 0)
(0.01231781118 -0.01898074337 0)
(0.01914238567 -0.01756244341 3.289452044e-13)
(0.01734276624 -0.01841758213 3.460148834e-13)
(0.01707040148 -0.02072740414 3.422123696e-13)
(0.01785647993 -0.01358851806 3.522321324e-13)
(0.02036087159 -0.01643483992 3.072819776e-13)
(0.01959837279 -0.01152204792 2.157163337e-13)
(0.0206356252 -0.01336223116 2.497169138e-13)
(0.01972891361 -0.01453050148 2.390587728e-13)
(0.0220580738 -0.01035172889 2.660371923e-13)
(0.01784616785 -0.009591233501 1.800920524e-13)
(0.009661515299 -0.004101757066 7.806255642e-14)
(0.01268410723 -0.005795336745 1.097316682e-13)
(0.01186022748 -0.006169082172 1.026539964e-13)
(0.01487168482 -0.004921900123 1.285915818e-13)
(0.006648793506 -0.002635174021 5.040412532e-14)
(0.0005147103905 -0.0001707796624 3.302913498e-15)
(0.00198974349 -0.0006973791593 1.34336986e-14)
(0.001410350904 -0.0005640428785 9.520162436e-15)
(0.003007702539 -0.000756594587 2.031708135e-14)
(-0.0006778826633 -0.02650951241 0)
(-0.0006371121904 -0.02518515812 0)
(0.00355107033 -0.02663970145 0)
(0.003591840803 -0.02531534715 0)
(0.002182187755 -0.02527195075 0)
(0.002141417282 -0.02659630504 0)
(0.002263709764 -0.02262385727 0)
(0.003673362812 -0.02266725368 0)
(0.01175574496 -0.02904569079 3.534256221e-13)
(0.01733168336 -0.02491132115 3.014255512e-13)
(0.01600963234 -0.02678069974 3.244626789e-13)
(0.01554424534 -0.02835610471 3.155253836e-13)
(0.01669326614 -0.02283464453 3.365363543e-13)
(0.0179788031 -0.02262123937 2.735450755e-13)
(0.01558193152 -0.01417684834 1.718902798e-13)
(0.01708120573 -0.01714155387 2.075006833e-13)
(0.01623808545 -0.01773174551 1.972311203e-13)
(0.01901356605 -0.01570863323 2.307876112e-13)
(0.01378520554 -0.01146929032 1.393329896e-13)
(0.006179549793 -0.004079599905 4.996003611e-14)
(0.008831708323 -0.006262271055 7.648048861e-14)
(0.00755848198 -0.005829248426 6.539213615e-14)
(0.01067056076 -0.006220290782 9.235667786e-14)
(0.003701357078 -0.002286270497 2.806088695e-14)
(0 0 0)
(0.0003924617009 -0.0002153774885 2.650657471e-15)
(0.0001832030902 -0.0001096499723 1.235123115e-15)
(0.00106359735 -0.0004781257352 7.188694084e-15)
(-0.002443107026 -0.03925331718 3.553546346e-13)
(-0.005258177977 -0.03931973742 3.567285356e-13)
(-0.005147424002 -0.04086816713 3.474998067e-13)
(-0.005069898611 -0.03167612544 0)
(-0.005151439557 -0.03432483404 0)
(0.0003571527038 -0.03902259034 3.524958103e-13)
(0.008189169988 -0.03658643932 3.285288708e-13)
(0.005742707758 -0.03776386003 3.397282455e-13)
(0.005495744987 -0.03843074867 3.242822677e-13)
(0.006095935434 -0.03442623331 3.569367024e-13)
(0.01035008897 -0.03497252022 3.135269822e-13)
(0.01416002531 -0.02747917821 2.456645998e-13)
(0.01342090333 -0.03039031837 2.718381076e-13)
(0.01246126893 -0.02995398924 2.51534904e-13)
(0.01496186301 -0.02953270694 3.038680418e-13)
(0.01429379945 -0.02424390924 2.167294122e-13)
(0.01115751194 -0.01367940985 1.225963775e-13)
(0.01273905385 -0.01721859983 1.541267114e-13)
(0.01131200955 -0.01624284931 1.365296765e-13)
(0.01522350826 -0.01795753756 1.847688669e-13)
(0.00918722359 -0.01030322029 9.248157795e-14)
(0.002736135171 -0.002445747998 2.206568261e-14)
(0.004767551035 -0.004568649128 4.114764085e-14)
(0.003753145749 -0.003828545835 3.236300117e-14)
(0.006707829569 -0.005593513936 5.799527525e-14)
(0.001128494644 -0.0009459598 8.54871729e-15)
(0 0 0)
(0 0 0)
(0 0 0)
(1.756079548e-05 -1.138299023e-05 1.110223025e-16)
(-0.001800931968 -0.03937691589 2.812750033e-13)
(-0.004083432101 -0.03986631871 2.851746617e-13)
(-0.003557014416 -0.037590597 2.553512957e-13)
(-0.004904099697 -0.04151115039 3.3210934e-13)
(0.000429839664 -0.03849812523 2.746275429e-13)
(0.006129307662 -0.03343516439 2.376987496e-13)
(0.004465034068 -0.03553013705 2.528532939e-13)
(0.004025540319 -0.0329219615 2.226691054e-13)
(0.005200718505 -0.03830463792 3.043676422e-13)
(0.007467155273 -0.03094997138 2.198657922e-13)
(0.009009293127 -0.02160960414 1.533773109e-13)
(0.008941300771 -0.02497072548 1.772471059e-13)
(0.007624323426 -0.02220731899 1.499078639e-13)
(0.01138394301 -0.02889760245 2.286920653e-13)
(0.008626423615 -0.01812302505 1.286748486e-13)
(0.00528503848 -0.008082570141 5.750955268e-14)
(0.006679264781 -0.01123346195 7.985279105e-14)
(0.005162303342 -0.009096262145 6.149247778e-14)
(0.00980020703 -0.01488619186 1.179611964e-13)
(0.003777485507 -0.005298149581 3.773370505e-14)
(0.0002468050801 -0.0002781639971 1.984523657e-15)
(0.001076810549 -0.001297552196 9.256484468e-15)
(0.0004746290138 -0.0006013105718 4.080069615e-15)
(0.002767072399 -0.002993272328 2.382816167e-14)
(0 0 0)
(0 0 0)
(0 0 0)
(0 0 0)
(0 0 0)
(-0.000656066296 -0.02550301849 1.50421342e-13)
(-0.001890848394 -0.02608505189 1.539463002e-13)
(-0.001402027735 -0.02127987305 1.203204203e-13)
(-0.00299509622 -0.03443949833 2.227384943e-13)
(0.0005216040449 -0.02451757491 1.445232822e-13)
(0.003173257775 -0.01939794737 1.141864381e-13)
(0.002484465883 -0.02142792195 1.261768467e-13)
(0.001940072629 -0.01695373265 9.570122472e-14)
(0.003542861856 -0.0296055873 1.907918268e-13)
(0.003618301365 -0.01711533192 1.007249839e-13)
(0.003383971736 -0.009517260387 5.602462938e-14)
(0.003715705737 -0.01208594591 7.11375403e-14)
(0.002573174728 -0.008655307882 4.884981308e-14)
(0.006287256018 -0.01904157474 1.225408663e-13)
(0.002845217204 -0.007048422637 4.149458555e-14)
(0.0007341233755 -0.001341997675 7.91033905e-15)
(0.001424058752 -0.002850942804 1.680600104e-14)
(0.000629701065 -0.001311927163 7.410738689e-15)
(0.003744173307 -0.006896178928 4.443667656e-14)
(0.0002154776061 -0.0003626557884 2.137179322e-15)
(0 0 0)
(0 0 0)
(0 0 0)
(0.0001018355144 -0.0001353642093 8.743006319e-16)
(0 0 0)
(0 0 0)
(0 0 0)
(0 0 0)
(0 0 0)
(-7.219846046e-05 -0.007064657944 3.548550342e-14)
(-0.0003692109738 -0.007406386886 3.720634911e-14)
(-0.0001791187964 -0.00389141075 1.884603584e-14)
(-0.000980484872 -0.01638211896 8.891498648e-14)
(0.0001920897051 -0.006504683581 3.26683125e-14)
(0.0005785647187 -0.003874692114 1.945665851e-14)
(0.0005315409431 -0.004862042267 2.441102875e-14)
(0.0002276812482 -0.002127593413 1.029731855e-14)
(0.001415107983 -0.01253176391 6.794564911e-14)
(0.0005411409993 -0.002858089251 1.434963259e-14)
(0.0001208894685 -0.0003911135062 1.970645869e-15)
(0.0002785740725 -0.001034547484 5.19029264e-15)
(2.10596546e-05 -8.092677069e-05 4.024558464e-16)
(0.001590204734 -0.005527894315 2.997602166e-14)
(1.39863642e-05 -4.010625925e-05 1.942890293e-16)
(0 0 0)
(0 0 0)
(0 0 0)
(0.0001433147043 -0.0003104969881 1.679212325e-15)
(0 0 0)
(0 0 0)
(0 0 0)
(0 0 0)
(0 0 0)
(0 0 0)
(0 0 0)
(0 0 0)
(0 0 0)
(0 0 0)
(0 0 0)
(0 0 0)
(0 0 0)
(-5.953263122e-05 -0.001382606568 6.467049118e-15)
(0 0 0)
(0 0 0)
(0 0 0)
(0 0 0)
(4.658550477e-05 -0.0004468438413 2.081668171e-15)
(0 0 0)
(0 0 0)
(0 0 0)
(0 0 0)
(0 0 0)
(0 0 0)
(0 0 0)
(0 0 0)
(0 0 0)
(0 0 0)
(0 0 0)
(0 0 0)
(0 0 0)
(0 0 0)
(0 0 0)
(0 0 0)
(0 0 0)
(0 0 0)
(0 0 0)
(0 0 0)
(0 0 0)
(0 0 0)
(0 0 0)
(0 0 0)
(0 0 0)
(0 0 0)
(0 0 0)
(0 0 0)
(0 0 0)
(0 0 0)
(0 0 0)
(0 0 0)
(0 0 0)
(0 0 0)
(0 0 0)
(0 0 0)
(0 0 0)
(0 0 0)
(0 0 0)
(0 0 0)
(0 0 0)
(0 0 0)
(0 0 0)
(0 0 0)
(0 0 0)
(0 0 0)
(0 0 0)
(0 0 0)
(0 0 0)
(0 0 0)
(0 0 0)
(0 0 0)
(0 0 0)
(0 0 0)
(0 0 0)
(0 0 0)
(0 0 0)
(0 0 0)
(0 0 0)
(0 0 0)
(0 0 0)
(0 0 0)
(0 0 0)
(0 0 0)
(0 0 0)
(0 0 0)
(0 0 0)
(0 0 0)
(0 0 0)
(0 0 0)
(0 0 0)
(0 0 0)
(0 0 0)
(0 0 0)
(0 0 0)
(0 0 0)
(0 0 0)
(0 0 0)
(0 0 0)
(0 0 0)
(0 0 0)
(0 0 0)
(0 0 0)
(0 0 0)
(0 0 0)
(0 0 0)
(0 0 0)
(0 0 0)
(0 0 0)
(0 0 0)
(0 0 0)
(0 0 0)
(0 0 0)
(0 0 0)
(0 0 0)
(0 0 0)