/*--------------------------------*- C++ -*----------------------------------*\
| =========                 |                                                 |
| \\      /  F ield         | OpenFOAM: The Open Source CFD Toolbox           |
|  \\    /   O peration     | Version:  v2012                                 |
|   \\  /    A nd           | Website:  www.openfoam.com                      |
|    \\/     M anipulation  |                                                 |
\*---------------------------------------------------------------------------*/
FoamFile
{
    version     2.0;
    format      ascii;
    class       volScalarField;
    location    "1.18";
    object      nut;
}
// * * * * * * * * * * * * * * * * * * * * * * * * * * * * * * * * * * * * * //

dimensions      [0 2 -1 0 0 0 0];


internalField   nonuniform List<scalar> 
3259
(
1.103102658
1.07957113
1.156676741
1.156475482
1.156321257
1.15620272
1.15610269
1.156062894
1.155822451
1.15582592
1.155848972
1.155874981
1.019062154
0.9909040276
1.038808869
1.157714355
1.156841926
1.156145194
1.155599404
1.155329568
1.154980236
1.154974799
1.155032226
1.155110355
0.7838593713
0.7739874613
0.8260016553
0.9467576612
1.152751649
1.15661787
1.155407299
1.154772795
1.154211924
1.154153628
1.154218033
1.154340316
0.5255968124
0.5309045306
0.5865020162
0.6894241865
0.8587718922
1.132760622
1.155814974
1.154543041
1.153578854
1.153399265
1.153435097
1.153585273
0.3108808505
0.3278523278
0.3902121419
0.4869850307
0.6316013896
0.8645866307
1.157192448
1.154774274
1.153166848
1.152710957
1.15266352
1.152816666
0.1571281679
0.1826933759
0.2518429026
0.3472203059
0.4766600293
0.6741031265
0.9975308008
1.155577213
1.152956755
1.152099271
1.15190761
1.152033577
0.05757888702
0.09095259595
0.1664500815
0.2593870817
0.3777058076
0.5469843727
0.8452203306
1.156973199
1.152971015
1.151560289
1.151145741
1.151210894
0.05204643281
0.1268466287
0.2134143755
0.3218926093
0.4736526946
0.7425231936
1.110780584
1.153245035
1.151135827
1.150409351
1.150379115
0.06344983138
0.1241732689
0.2010062895
0.2991722124
0.4376365392
0.6868487639
1.024344422
1.153759971
1.150848184
1.149746508
1.1495923
0.08914135397
0.1411322832
0.2103514654
0.3041889452
0.4352245174
0.663919402
0.9707090963
1.15453656
1.150787126
1.149254396
1.148950138
0.1215203066
0.1706760016
0.2370328297
0.3245080741
0.4470116852
0.6679854109
0.9445377147
1.155508117
1.150965947
1.149003127
1.14853857
0.1589013388
0.2122972108
0.2799986617
0.3663365252
0.4854824942
0.696771233
0.9481865149
1.156703956
1.151434376
1.149050572
1.148422059
0.05658757305
0.04495116709
0.08177518784
0.0595658873
0.1149018566
0.08568613044
0.1457162967
0.1197876074
0.1496780986
0.0578494951
0.04642275405
0.08638108148
0.02883362983
0.01935887822
0.06091349167
0.1054441142
0.1076558342
0.03029229803
0.04493437219
0.08571715171
0.1211718974
0.1078699241
0.05271516314
0.03761277513
0.1173670747
0.1492472939
0.1272391028
0.09768360273
0.07179959729
0.01743033426
0.1368207474
0.1317317125
0.04613551081
0.03006817952
0.04845546322
0.03191637869
0.0479764088
0.03724060683
0.03012648639
0.07114702423
0.04450865619
0.05037604586
0.04929677829
0.0447385488
0.0696364947
0.06837151054
0.05400735049
0.1023547542
0.07395536957
0.09479578255
0.05087106665
0.07124132534
0.09798464303
0.1278248545
0.1017233748
0.01304015142
0.012057796
0.1387369685
0.01974003621
0.0175422546
0.008383934253
0.009333003404
0.15189881
0.1861796106
0.1576585357
0.01108685115
0.05686328019
0.04933384232
0.02218991725
0.03022635172
0.04689471854
0.04780445069
0.03441423797
0.1343578413
0.1248500203
0.1333926132
0.09813942318
0.1214230962
0.1311744461
0.02290802028
0.01954406056
0.03009979031
0.0217758214
0.01597536406
0.02299325859
0.02026023995
0.009980156159
0.01659545525
0.02176500189
0.03861884911
0.03926053751
0.04521799813
0.04415548261
0.01767696033
0.009960517769
0.08610726679
0.01488544698
0.02703545914
0.009359923281
0.01281008793
0.08230413058
0.07243854203
0.0608686468
0.01082806869
0.03939496858
0.03861990802
0.03567607184
0.0353987823
0.04790562695
0.06869257504
0.06403149512
0.07515132957
0.07035043851
0.04818513331
0.05344115936
0.05622768827
0.05106415622
0.06237268619
0.05766597188
0.05245193388
0.06460351718
0.009203941371
0.06332469522
0.02875409897
0.04223489638
0.1133060955
0.03210176722
0.01900762887
0.007343908322
0.07654206324
0.003535439963
0.0184029407
0.01404867885
0.005854866758
0.01262064826
0.01070615807
0.009491422063
0.008573818893
0.01264771306
0.008914484606
0.03273238678
0.01392405299
0.01304010152
0.04203397413
0.04907054664
0.01420458881
0.01950566876
0.009418240082
0.009495210989
0.03932805137
0.04594131818
0.01582045921
0.01403903751
0.03780460199
0.04287527649
0.03856565364
0.04942570334
0.04441009077
0.03936350914
0.03644135634
0.009675496661
0.009461458333
0.03146076633
0.02069962156
0.02259187112
0.05765640518
0.08229753159
0.1025055377
0.09480834892
0.0570971718
0.08277709647
0.07706908866
0.0920107814
0.08501869965
0.0582303838
0.1172506777
0.04450233058
0.06067997873
0.01123515959
0.01211032929
0.006296261221
0.01172974226
0.009355288254
0.009184723193
0.02694385308
0.020660795
0.00719204552
0.011113929
0.007208122408
0.01167716637
0.01055800362
0.01303870002
0.04026228986
0.01028602542
0.01014122188
0.01570202654
0.02179512818
0.01824091834
0.02873015534
0.02307756406
0.01782747236
0.01597762219
0.01244276052
0.01196320303
0.009321666876
0.03465124826
0.04134576025
0.01279564979
0.01207220247
0.01333648363
0.01381145937
0.04784452936
0.009075251208
0.009130141941
0.01134418044
0.009226813819
0.009146599545
0.04046484022
0.009225302576
0.01310257105
0.0124817275
0.01138326001
0.01963917156
0.05084183374
0.04593711143
0.01056666852
0.03737585443
0.03191827094
0.0441595378
0.03938418676
0.0109394906
0.01143429513
0.03508103718
0.02934712046
0.02225843917
0.02107948655
0.04450544973
0.01514592234
0.01525666191
0.01195062089
0.02225585975
0.02638237359
0.01587683137
0.02245379851
0.03448473357
0.03065137987
0.02336899535
0.01005130968
0.00978675201
0.03621882843
0.03279923823
0.009799000438
0.01015733844
0.02339867713
0.0198758553
0.03034113654
0.02531862413
0.006669568953
0.01270846306
0.01189256662
0.01856540021
0.01304875334
0.006736424184
0.02663203141
0.009956543761
0.01016259944
0.00991605424
0.02480043949
0.01112464162
0.05344506528
0.1129210811
0.1455022839
0.01067853955
0.0104325444
0.1975179911
0.007061868638
0.1376610367
0.1435185306
0.1609986816
0.004804806883
0.007403124138
0.005460918692
0.004881524227
0.005779564222
0.004521153795
0.05708887136
0.03561686638
0.02246597562
0.02565875078
0.02319580628
0.02722748438
0.0426235646
0.03706877817
0.01230579033
0.06455740514
0.07621611898
0.1351186735
0.02849118178
0.03176643108
0.03299839832
0.01120379207
0.01138627172
0.01141547252
0.01115033334
0.04421147782
0.01551781696
0.009533047433
0.01137568107
0.01087246252
0.01103563301
0.0226075988
0.02804572999
0.05669207617
0.03720987964
0.03398778196
0.02506839436
0.04221884768
0.01475080633
0.0204715735
0.02315855275
0.01467860722
0.01007915914
0.01865241654
0.01968730388
0.01805431086
0.01489296995
0.01839765315
0.01616323611
0.01041619549
0.01098218807
0.006512668712
0.00946079059
0.01045600197
0.05756013149
0.05241913743
0.02134382569
0.009228483415
0.01306555846
0.01197851276
0.01097405485
0.01388969433
0.01243752325
0.009138225865
0.009136131083
0.01158654705
0.01115222587
0.009195851612
0.00902080119
0.006897103521
0.05891235677
0.02350676188
0.02889631807
0.01097657757
0.0108314572
0.01080479849
0.01067760803
0.0109234897
0.01532199877
0.006430474409
0.004140580442
0.007687513578
0.0115263692
0.01042178162
0.01063176782
0.01035903295
0.01052779771
0.01079126609
0.01016517187
0.006719925903
0.00528746945
0.01193329754
0.01228435124
0.01156120757
0.01165416981
0.01352360262
0.02075987429
0.02104859514
0.02034319652
0.02058524346
0.01339625966
0.009349476036
0.01568619854
0.01567042285
0.01619463439
0.01579751213
0.009227156707
0.01500232924
0.0233735241
0.02599881212
0.02133933498
0.02203449903
0.01453635526
0.00964273131
0.01570299099
0.01570842451
0.015640601
0.01568743067
0.00954423755
0.01118119186
0.01137832678
0.01078932995
0.01133244198
0.01119951455
0.00772263626
0.01121471885
0.01107732145
0.007629659906
0.01082411821
0.0110741069
0.01505475165
0.004351765712
0.009135298647
0.007062385046
0.006272542698
0.007201633852
0.009380610025
0.006520614289
0.01079421874
0.01077674824
0.01064418876
0.008329248313
0.01036796697
0.00685229651
0.01032668501
0.01944253323
0.02058967449
0.01959555014
0.02680387687
0.02402867204
0.01870614878
0.01753416656
0.01884152597
0.01143699168
0.01831715508
0.01941443423
0.01319181001
0.01830209817
0.01229831124
0.01254886803
0.01993344456
0.02015520928
0.01947509994
0.01978587856
0.01236973958
0.01349946769
0.02344664582
0.02303383407
0.009124042707
0.009119793522
0.01007626604
0.007595002365
0.008987528483
0.009035753003
0.009055325843
0.008802722533
0.01073752999
0.01940149541
0.01733492119
0.02239924168
0.02124718434
0.01231308688
0.009498500206
0.01008454445
0.0142322116
0.006542374061
0.009722522248
0.009681676757
0.01109755577
0.009496787049
0.009684124608
0.01709648554
0.0151939509
0.009753302751
0.02218636968
0.03184647207
0.03232586834
0.02894092096
0.02993446018
0.02089415828
0.01436005722
0.0154457623
0.0237578979
0.01686764754
0.0160056043
0.01802589348
0.01707282795
0.0241099026
0.01632436879
0.01703682788
0.01342031733
0.01749427865
0.009946377295
0.01578282784
0.01581270144
0.01575295294
0.01578436769
0.009898604121
0.0101928558
0.01469264264
0.01278402561
0.0157383701
0.01547290817
0.01019134061
0.009103957722
0.009276132721
0.009039523486
0.0106923091
0.00976963893
0.01236159013
0.009118841623
0.009099539396
0.009048837959
0.009083250141
0.01226104393
0.01661459837
0.009838089456
0.01093120159
0.009227566929
0.009046145012
0.01436786092
0.01012374076
0.01120776971
0.01093052337
0.01371005628
0.01208943892
0.01012282547
0.009726799213
0.009897677713
0.01047152346
0.01021023532
0.006621548147
0.01125388292
0.8766280912
1.027775154
0.8657888705
0.8280115184
0.9906789183
0.8326928827
0.8678840731
1.026983665
0.8850151437
0.978468324
1.157993975
1.011134876
1.158119241
1.157042406
1.157757039
1.156690013
1.15629561
0.5933343253
0.8109961583
0.5873167639
0.5841918233
0.7687493444
0.5895916923
0.6261121633
0.808484462
0.644245323
0.7186544949
0.9118171781
0.7501272057
0.8753912154
1.097411042
0.9296657294
1.120083257
1.156950603
0.3668013412
0.5311128276
0.3580367647
0.365139729
0.5245882385
0.37312175
0.4139687909
0.5683438446
0.4324789596
0.5026443787
0.6589156337
0.5302711501
0.6393825348
0.8095131066
0.6822110853
0.8421863281
1.049978509
0.1955210279
0.3236397092
0.1921243899
0.2027628375
0.3188277482
0.2135201198
0.2614184689
0.3712965477
0.2806185893
0.3505080806
0.4571761808
0.3768834671
0.4718061501
0.5905089575
0.5093691881
0.6490451646
0.7859780214
0.06915892738
0.1608127875
0.0690879735
0.09645594188
0.1706657451
0.1087743698
0.1629267168
0.2319729648
0.1835377278
0.251854553
0.3210242026
0.2773076898
0.3633000093
0.440118675
0.3972447836
0.5225377091
0.6128688789
0.0281267181
0.0367568668
0.06194738539
0.07021002038
0.09295920989
0.1086152155
0.1325973971
0.1976951372
0.2347182506
0.2215204072
0.3018284938
0.3445046634
0.3326542932
0.4439670538
0.4982678349
0.05290815816
0.0752870612
0.07792659478
0.1225396525
0.1799625314
0.1901612884
0.2014941399
0.2743353766
0.2918106132
0.3023934277
0.4040450608
0.4296156348
0.07288494439
0.08901992598
0.08259465631
0.1355055637
0.1859447938
0.1799615555
0.2046549482
0.2739482522
0.271877312
0.3008122367
0.3988318953
0.3978887498
0.1007846326
0.1155262168
0.1050512934
0.1622320335
0.2108070614
0.1914145265
0.2292048906
0.2923621461
0.2769837203
0.3166991559
0.4049898052
0.4004590183
0.1341075414
0.1505374808
0.1369325523
0.2004559616
0.2490825831
0.218739669
0.2674045152
0.329769185
0.3001845387
0.3541463921
0.4393450586
0.4125630555
0.1671771306
0.1842399093
0.1725726828
0.2616592257
0.3422375791
0.4515548972
0.05349743306
0.04727971878
0.05185196499
0.03770957845
0.0377947092
0.04472676513
0.07832241901
0.07346986289
0.07829580152
0.05345028342
0.05910151905
0.0619651842
0.1108575662
0.1082895226
0.1127280227
0.0805465712
0.08544693754
0.08960431166
0.142615123
0.1389893401
0.1412923231
0.116741593
0.1208821943
0.1239738711
0.1437700506
0.1465320398
0.1526617106
0.003027390002
0.003748182927
0.003669459856
0.03003948641
0.003083252445
0.002769665061
0.04865254076
0.04120380771
0.03841148254
0.06663869018
0.04157836048
0.06266834346
0.0280218911
0.02727306564
0.02821823383
0.01670241149
0.01695913846
0.01966189547
0.07980794788
0.07659166484
0.05425102089
0.1044056471
0.08874038035
0.09068853282
0.09051620802
0.08857330754
0.104995019
0.03065807858
0.01905770083
0.01886261832
0.03157757494
0.03090704896
0.04378114153
0.1009535948
0.09245085322
0.07504841582
0.1158991357
0.1036126257
0.109555011
0.09405143981
0.09841823765
0.1114137479
0.05143563737
0.04004496877
0.04149950307
0.02618690923
0.02635756793
0.03800525975
0.1323346211
0.1199668576
0.1048821494
0.1414066394
0.1307664683
0.1388866631
0.115939731
0.123011683
0.1340275349
0.09386105616
0.06884653778
0.07265545392
0.04362230818
0.04822273484
0.07512687681
0.02647568842
0.02437222168
0.01549169262
0.1356831209
0.08043239054
0.09294443847
0.1094884982
0.1134823996
0.1317698215
0.04748585126
0.0335300731
0.0322812073
0.02935335585
0.03033896685
0.03079798909
0.04157269624
0.0456754009
0.05091688465
0.03373774945
0.03517183403
0.03339401498
0.0465637359
0.04474747018
0.04474352297
0.03695771846
0.02594381353
0.02601512679
0.01879934093
0.0187679787
0.03017160056
0.06650406367
0.07053798502
0.07881133252
0.04523053472
0.06762296777
0.06233560359
0.07650378226
0.07479752063
0.04921814674
0.05326508147
0.05054023203
0.04849718692
0.06134235005
0.05793768909
0.04713071215
0.06244395158
0.05992450599
0.06459657347
0.06522337601
0.03705549105
0.04204424929
0.04280017394
0.04391116424
0.05521206788
0.09799916269
0.104103692
0.1067666261
0.07653945498
0.097913225
0.09531543778
0.1105524101
0.1052423178
0.08546522823
0.05284767803
0.08006286269
0.07826711889
0.0926282453
0.08922935401
0.06270393513
0.09369567385
0.0883521139
0.0942672859
0.1246743698
0.101041355
0.1051610032
0.0762929838
0.08017854652
0.1055726147
0.0974450866
0.02881866045
0.007299606671
0.009226827603
0.008910218669
0.1616182698
0.1581888674
0.1380956792
0.1759132358
0.1654406511
0.1752629123
0.1473761758
0.1559111522
0.1666186775
0.053237093
0.03004751868
0.03586469858
0.04085058613
0.04213901333
0.0514934592
0.02395429979
0.03269054313
0.03251244249
0.03170881639
0.03025349417
0.02846784311
0.04538963162
0.03810069185
0.03991182719
0.04584801289
0.03683137566
0.0385749939
0.02471343977
0.02669071665
0.03615571629
0.1327379527
0.136380827
0.1381596136
0.1302635719
0.1308487865
0.1319861968
0.1382556443
0.1348167759
0.1342546723
0.1080979669
0.1191839963
0.1144305519
0.1278731851
0.1215335956
0.1115742273
0.1276477993
0.1249166776
0.1285845838
0.01226998118
0.02032044052
0.01734317273
0.01668917081
0.02726256658
0.01693552844
0.02588913452
0.01190526605
0.01493763184
0.02426193489
0.01980706742
0.02228415393
0.02454399939
0.01112969698
0.0153564206
0.01375364732
0.01639214283
0.01492100612
0.01540043453
0.02035428721
0.01812463732
0.01916340069
0.02799493831
0.02691710234
0.03765082695
0.03999183778
0.02881249661
0.02820639318
0.03420973555
0.03488634091
0.04601286264
0.04307835474
0.03209556418
0.03333115777
0.06183583111
0.06534169395
0.08987099141
0.01685127897
0.02606488033
0.02409743793
0.03728177951
0.03565862695
0.0253466875
0.02208755196
0.02050836026
0.011703298
0.07888339899
0.05006758189
0.05278931343
0.06850018899
0.05050022527
0.05419509088
0.03813488634
0.0422390694
0.06450869003
0.03929374864
0.04112423966
0.04116208918
0.03776934198
0.03678057104
0.03771461023
0.02564474159
0.02567823263
0.03585093011
0.03492931821
0.02505091042
0.02547998984
0.06940645883
0.06763426721
0.04606453492
0.06729611822
0.06666103778
0.06845269422
0.06267998123
0.06348972187
0.06564050698
0.07355891305
0.07328435037
0.07497072105
0.06999649451
0.07162243487
0.0719399706
0.04890792513
0.07310035481
0.07135363006
0.05482049603
0.05262816927
0.05457287637
0.05451671818
0.05300716851
0.05480291377
0.04941536285
0.05120572926
0.05280251852
0.06090379871
0.06073041778
0.06154658716
0.05641801013
0.05877469741
0.05926335376
0.04855598243
0.05841930232
0.05703524172
0.03063768843
0.03515681848
0.07200058672
0.06170369996
0.05010860839
0.05136470304
0.03461910628
0.0584896076
0.05877987452
0.06571782425
0.06215772853
0.03659626278
0.1095839538
0.08424039895
0.08832806226
0.03021513664
0.02044190303
0.02252792468
0.01121615113
0.01224773352
0.0207252485
0.05816198224
0.01660227009
0.01110635285
0.01162603015
0.011003795
0.008417352139
0.005751275924
0.009426395325
0.01304670811
0.00715664256
0.008610587552
0.008848207828
0.007557196138
0.007243396075
0.01088045254
0.007760858225
0.01070168713
0.005624210432
0.006704223839
0.009612923021
0.02081146357
0.01957804644
0.03140120117
0.04294902383
0.03047545204
0.02992428001
0.03727756627
0.03857596747
0.05015316651
0.01548202503
0.02645415251
0.0251015538
0.03013700989
0.02829765226
0.01764972203
0.03858026859
0.02673451434
0.02737423728
0.03803355854
0.0353254118
0.04690127161
0.03968713377
0.03711684699
0.03556702524
0.04138488156
0.03879843572
0.04047618408
0.03551737138
0.03711134606
0.04001857509
0.04776515391
0.04590599549
0.04767017865
0.04213892249
0.04404037787
0.04613262381
0.04335136436
0.04296001166
0.04131618622
0.02579087943
0.02584666032
0.03667294042
0.03051943127
0.01909862518
0.02009248969
0.02140825912
0.03269911537
0.03161625765
0.03466215575
0.03371469708
0.02199813773
0.05641185857
0.0450071604
0.04605558393
0.1028738763
0.1004448604
0.07942795317
0.10013189
0.09902950881
0.1016644844
0.09369037773
0.09635734211
0.09727336364
0.0834521114
0.08179159012
0.05388045254
0.08090004682
0.0803519
0.08220433907
0.07673642864
0.07853894002
0.07886900691
0.08967076951
0.08860362119
0.09109907153
0.08418089635
0.08638091419
0.08713963806
0.06096862211
0.08718599686
0.08524640037
0.09254041529
0.09671882624
0.1207352472
0.04841581052
0.07333406071
0.06963437295
0.08143452438
0.0773076259
0.05705039185
0.01028138938
0.01017508529
0.01280042945
0.02505809742
0.01609349284
0.01788841346
0.0128938306
0.01437993524
0.02285183406
0.007280348599
0.01086842478
0.0174631025
0.01571090468
0.02153569902
0.01938451184
0.01163513754
0.03860987846
0.02870275499
0.03077016616
0.02033750758
0.02041475946
0.02281230832
0.01727537644
0.01890532673
0.01930847198
0.02396331367
0.02407033628
0.02485289641
0.0169362938
0.01529718766
0.01637894455
0.01450681155
0.01473935225
0.01624671559
0.01385397485
0.01356420703
0.01294159294
0.03632933364
0.02592662685
0.02332188553
0.02958543397
0.02907564248
0.0405621194
0.02433313422
0.02383541351
0.01356303262
0.04701945411
0.03555788317
0.03631157417
0.02869726766
0.03041582482
0.04171577532
0.0295050455
0.02792312161
0.01837300192
0.04925071376
0.03885019836
0.04058242382
0.03484537218
0.03684535463
0.04754665636
0.0356055713
0.02447411702
0.02631794859
0.02105925813
0.02253378253
0.03354143088
0.04273052359
0.03105273646
0.0328049271
0.02803672347
0.02945293702
0.04078172542
0.01138041672
0.01941160276
0.01839029228
0.0172160767
0.0153315662
0.01095697472
0.033500513
0.02443212477
0.02655106935
0.02016729776
0.02231582154
0.03108563658
0.04287933614
0.04265563993
0.040436638
0.03431798535
0.03590768146
0.03550903
0.02777535351
0.03584136842
0.03478549133
0.03449224078
0.03598716999
0.02454334074
0.036041751
0.02572233902
0.0257410286
0.02213667777
0.02402615132
0.03405942403
0.02191890048
0.01230043755
0.01351234625
0.01142953717
0.01190822634
0.02086816024
0.02893057165
0.01897098024
0.0199503023
0.01572865031
0.01764509901
0.02723104799
0.01727735109
0.01864648643
0.02826438559
0.02277747561
0.01385572961
0.0157506839
0.07988105952
0.08410869017
0.06578391784
0.1206927671
0.1022786607
0.09366525952
0.12607117
0.1124742694
0.1316204341
0.185043475
0.1956025058
0.2098255586
0.1338894519
0.1443312586
0.1410658041
0.1490922316
0.146655275
0.1404503223
0.005517986148
0.003971242338
0.003682897028
0.006576528183
0.005593955802
0.006234496059
0.004438253039
0.004353698443
0.006316661289
0.004140926528
0.003780721268
0.003162455184
0.004981727388
0.003836281656
0.004978623286
0.003586256471
0.003638428616
0.004516917221
0.03055155361
0.037432618
0.04196412162
0.03285971673
0.03317315226
0.02814760898
0.0256240088
0.02630292686
0.02646459367
0.02432598636
0.02575187895
0.02504784637
0.02754612375
0.02633055999
0.0258103454
0.04068016269
0.03287628969
0.03472828825
0.02871881887
0.03084261918
0.03881332624
0.01369551177
0.02192458279
0.01954453597
0.0682271278
0.08981800508
0.08560884506
0.0984116086
0.09418496345
0.0722254311
0.02986872567
0.03008950597
0.02875311887
0.03302495008
0.0313938123
0.03152809456
0.03214427791
0.03150335914
0.03281392604
0.03684883728
0.02434579591
0.03325660378
0.03171898506
0.03701010659
0.0355453639
0.02610623454
0.05273375352
0.04501625812
0.04469706422
0.03589999015
0.03268088446
0.03402404247
0.02632665605
0.02880641142
0.02771629838
0.03284821502
0.03476019092
0.04408357445
0.01644382022
0.02562987999
0.02374108907
0.02953440195
0.02771710653
0.01840508371
0.02014314251
0.01835617645
0.02166704984
0.01308194996
0.01568797633
0.01727280144
0.01383974731
0.0146405683
0.01167695783
0.05560770203
0.04637598124
0.04758602505
0.04258323329
0.04420280632
0.05413050687
0.02328821639
0.03333088032
0.03151247319
0.04730552371
0.04854220106
0.06034608191
0.02492229132
0.03737599718
0.03593309806
0.0407959808
0.03924430551
0.02694833998
0.009389531946
0.008301940316
0.009802751912
0.005964003815
0.00697937666
0.007799365236
0.006208137697
0.006413363944
0.005215500597
1.062252201
1.041501312
1.078365236
1.042103938
1.06679321
1.106919631
1.117263976
1.157373516
1.156570314
1.157100944
1.156772956
1.15640148
1.156510772
1.156288739
1.156250732
1.156089797
1.155951481
1.156142739
1.155835157
1.155742562
1.156077737
0.9735076257
0.9572525362
0.9956253479
0.9384421755
0.950550405
0.9945407841
0.9903675969
1.037121103
1.083513019
1.129816912
1.157917127
1.157488735
1.157074145
1.156805392
1.156640841
1.156419961
1.155792994
1.155791744
1.155452627
1.155204067
1.155443917
1.155021839
1.154924074
1.15526004
0.7144622119
0.7091727079
0.7692701232
0.711498088
0.7201463077
0.7818194167
0.7654286745
0.7888743599
0.8508454991
0.8801376475
0.921634798
0.9917069916
1.07861258
1.142510136
1.157773722
1.157605093
1.156223278
1.155906838
1.155520299
1.154997367
1.155045069
1.154614208
1.154379701
1.154589384
0.46652008
0.4640076746
0.5210750039
0.474862414
0.4848618365
0.5404025207
0.5317225854
0.5526830516
0.6077069198
0.6322811096
0.6659693465
0.7244198487
0.7948428073
0.8496593904
0.9150115637
0.9071547286
1.1493814
1.156815028
1.156351529
1.155336092
1.15508877
1.154600651
1.154090294
1.154172322
0.2701844326
0.2669722617
0.3112008248
0.2862486904
0.2986865182
0.3395834171
0.3494632825
0.3703319752
0.4114264467
0.448276124
0.4771098824
0.5192386011
0.5863809841
0.6309110546
0.6775104081
0.701974638
0.9163813055
1.028322303
1.08875391
1.15640939
1.155782615
1.155098762
1.154154565
1.154048344
0.126841787
0.1275414649
0.1577832199
0.1549044572
0.170097681
0.1975699166
0.2263963319
0.2479369922
0.27381359
0.3210069004
0.3490384202
0.3755888502
0.4471981868
0.4873546358
0.5170223323
0.564856475
0.7475193237
0.8226324436
0.9170471476
1.093128318
1.157272168
1.156175629
1.154654342
1.154288902
0.04657546408
0.04690735338
0.05767299405
0.1521830384
0.1738663082
0.1881010255
0.2441850016
0.2703336733
0.2853119121
0.3602591143
0.3954853904
0.4138290727
0.4843631616
0.6431266959
0.6901620893
0.7862049748
0.959833263
1.017540562
1.157757148
1.155596876
1.155005275
0.05193310765
0.05965802866
0.06003900486
0.1235728569
0.1429146935
0.1469472325
0.2074740639
0.2313983567
0.2379420158
0.313131424
0.3449332923
0.3545875606
0.4430629571
0.57731394
0.6044835702
0.7102976843
0.8735842712
0.9119104946
1.063521165
1.156843628
1.156118851
0.06676527322
0.07189803998
0.06919138754
0.1269597808
0.1437981359
0.1414862253
0.2018818055
0.2232096756
0.2231622149
0.2980659382
0.3277231549
0.3290129167
0.4360779293
0.5504584874
0.5592430807
0.6716152735
0.8204708526
0.8429550871
0.9934229409
1.158318548
1.157487143
0.09284095916
0.09671334015
0.09318445085
0.1474765988
0.1629620182
0.1567483706
0.2166243277
0.2368579267
0.2304041756
0.3073877179
0.3349179853
0.3332367632
0.4388119895
0.5502314393
0.5479133849
0.6627098101
0.7966523496
0.8054175134
0.9505773464
1.125370406
1.14208959
0.1257642307
0.1301845923
0.1259163271
0.1798290117
0.1951087892
0.1858866992
0.2462718585
0.2657286421
0.2565671923
0.3331083732
0.3597618482
0.3512380035
0.4695981617
0.5745634663
0.5595575246
0.6794196366
0.7992302888
0.7953266551
0.934013984
1.091198047
1.09016324
0.1587975221
0.1667377905
0.1612329006
0.22510576
0.2411266832
0.2278672819
0.2938194924
0.3135452105
0.2995348561
0.3802916793
0.4061936088
0.3922406253
0.5943693911
0.8108762332
1.067821749
0.04788370391
0.06693591706
0.06477189989
0.05838425787
0.08990089997
0.08687198388
0.0820834213
0.1213665949
0.1172141824
0.1133078017
0.1363488638
0.1326854763
0.1322520002
0.04641605532
0.04560995578
0.04684426313
0.04444056645
0.06035893515
0.06047387764
0.06392303668
0.06344366418
0.04995320134
0.05069519804
0.04889551231
0.04794593106
0.06083215493
0.06131116138
0.04522123737
0.1109127991
0.1089973147
0.09157011436
0.05140354322
0.06499924914
0.06440413968
0.1363603701
0.1574493631
0.1533358271
0.1513246787
0.02245531704
0.02570977137
0.02575042068
0.1274038268
0.1276440095
0.126189825
0.1376071884
0.1361466777
0.135956018
0.1014231532
0.1149134387
0.1132712966
0.1244644853
0.1236253469
0.1182704475
0.02443236496
0.02088501391
0.01880202083
0.01864975565
0.01864064249
0.02174558855
0.009870732996
0.01138190522
0.01148675833
0.06159726091
0.06145842355
0.04751875346
0.04839849187
0.06192495571
0.06180342583
0.05652846639
0.05564192237
0.05447241117
0.05133038177
0.05919431651
0.05833298886
0.05307283379
0.05403959015
0.06638605992
0.03060407704
0.04111408495
0.03957082922
0.05190309938
0.05002837221
0.04047744459
0.03733218591
0.0361309231
0.03610889341
0.04068866259
0.04042185828
0.03957878189
0.07005512573
0.06906575125
0.05612418649
0.05903304293
0.0719969683
0.07095070609
0.04583958099
0.05552254372
0.05342051871
0.06162277056
0.06312529963
0.05573256626
0.1354265468
0.1410709893
0.1390520993
0.157038682
0.1503211714
0.1546427045
0.04878192824
0.04447930182
0.05252266163
0.02596625701
0.02644354726
0.02334675752
0.1331247125
0.1176313667
0.1214882142
0.03070112451
0.03158741061
0.0351520113
0.01168647446
0.01199217259
0.01090522413
0.9221688446
0.9733628179
0.8381241329
0.9109528475
0.9305709405
0.8830511467
0.8987727459
0.8274604282
0.9932899331
0.9588713075
0.9385883642
0.8414140975
0.8974819022
0.8838053033
0.9274811587
0.903014714
0.8487577125
1.000043608
0.9543486137
0.9839077143
0.9138660962
0.9786830526
0.9412885931
1.047318828
0.9957777881
0.9393823649
1.101030596
1.048950862
1.114893059
1.064019593
1.139156716
1.072299085
1.157694819
1.15804867
1.107866549
1.157262952
1.157628199
1.157310888
1.157340599
1.157040616
1.157359465
1.156496695
1.156769206
1.15700821
1.15646781
1.156592744
1.156364364
0.6576274736
0.7297482554
0.5808498831
0.6443851785
0.650779049
0.6445132827
0.6419768263
0.5801824225
0.7677374213
0.7054044116
0.7056553113
0.5985246949
0.6586828875
0.6498678552
0.6861735667
0.6702842377
0.6105120315
0.7912722444
0.7310754306
0.7475090747
0.6659437392
0.7267640702
0.7042824376
0.7811859149
0.7516599128
0.6903289549
0.8773609749
0.814368546
0.8456696424
0.7867081122
0.8528438826
0.8138540326
0.9457967784
0.8958230576
0.8279999259
1.038172681
0.9662758254
1.020906516
0.9907696347
1.065930478
1.001519858
1.157718255
1.130574124
1.05426016
1.157324608
1.157763542
1.157279865
0.4149343968
0.4713997031
0.3584516283
0.4096052913
0.4109659519
0.4146993578
0.4107950477
0.3606037874
0.5206144161
0.4641349311
0.4679301019
0.3840287385
0.4327635273
0.4222333566
0.4619906987
0.4460331068
0.3977288528
0.5527980023
0.4977340938
0.5134595922
0.4533435565
0.5013187309
0.4804144882
0.5508578349
0.5247231512
0.4767512707
0.6316257308
0.5762384497
0.6027527644
0.5620965849
0.6141254748
0.5814921267
0.6894019133
0.6482344799
0.5982192991
0.7638285284
0.7046049745
0.7464119038
0.7297107935
0.7875848388
0.737540155
0.9085078754
0.8430523856
0.7833921651
0.977736857
0.9078971079
0.9760692804
0.2364368148
0.2802775956
0.1911602559
0.2266412301
0.2305328623
0.2377489216
0.2305896707
0.1950459909
0.3132820166
0.2700725301
0.2766600768
0.2271410999
0.2612352957
0.2482419288
0.2941091135
0.2766490498
0.2434160628
0.3542525181
0.3133512859
0.3302979863
0.3020650384
0.3339059095
0.3132236595
0.3829496891
0.3568897479
0.3256883908
0.4337956704
0.3926552605
0.4184923189
0.4055214496
0.4390303689
0.4107703112
0.507302742
0.4712315954
0.4372364842
0.5512760215
0.5090743216
0.5467190782
0.5513899994
0.5889744817
0.5458584804
0.6892182298
0.6367771375
0.5981343014
0.7292235902
0.6807275675
0.7339528639
0.1036370912
0.1288707457
0.0740199966
0.1008119711
0.09844571457
0.1164310647
0.1075924338
0.08504332869
0.1622962846
0.1324962938
0.1423464995
0.1241938373
0.1461681174
0.1296044783
0.1829852166
0.1637466625
0.1431887798
0.2141016025
0.1871504838
0.2058680108
0.2050520279
0.2247786617
0.2035868576
0.2720970094
0.2475010842
0.2279016942
0.2965128405
0.2703321638
0.2948262059
0.3043760248
0.3246651767
0.2979367176
0.3868333028
0.3544883295
0.3330212499
0.406569019
0.379097141
0.411120886
0.4349899358
0.4586574625
0.4212387658
0.549720216
0.5008958766
0.476174621
0.562238361
0.5307065824
0.5789431933
0.02986437155
0.03784346321
0.0372847342
0.0437330833
0.03967093273
0.03265976088
0.05905967801
0.04869167102
0.05280003915
0.1533534481
0.1622227751
0.1409003363