/*--------------------------------*- C++ -*----------------------------------*\
| =========                 |                                                 |
| \\      /  F ield         | OpenFOAM: The Open Source CFD Toolbox           |
|  \\    /   O peration     | Version:  v2012                                 |
|   \\  /    A nd           | Website:  www.openfoam.com                      |
|    \\/     M anipulation  |                                                 |
\*---------------------------------------------------------------------------*/
FoamFile
{
    version     2.0;
    format      ascii;
    class       surfaceScalarField;
    location    "2.81";
    object      meshPhi;
}
// * * * * * * * * * * * * * * * * * * * * * * * * * * * * * * * * * * * * * //

dimensions      [0 3 -1 0 0 0 0];
oriented        oriented;


internalField   nonuniform List<scalar> 
5999
(
0
0
0
0
0
0
0
0
0
0
0
0
0
0
0
0
0
0
0
0
0
0
0
0
0
0
0
0
0
0
0
0
0
0
0
0
0
0
0
0
0
0
0
0
0
0
0
0
0
0
0
0
0
0
0
0
0
0
0
0
0
0
0
0
0
0
0
0
0
0
0
-3.617419885e-09
-4.774141328e-08
0
0
0
0
0
0
0
0
0
0
0
0
0
0
0
0
0
0
0
0
0
0
0
0
0
0
0
0
0
1.684292411e-08
8.359936021e-07
-1.538172513e-06
-5.286875475e-06
5.935361498e-06
4.656129564e-05
-1.362036515e-05
-6.580786909e-05
7.346094326e-06
0.0001218670666
-1.216476419e-05
-0.0001364529419
0
0
0
0
0
0
0
0
0
0
0
0
0
0
0
0
0
0
0
0
0
0
0
0
0
8.168935193e-07
1.890193732e-06
-4.177625668e-06
-1.346420579e-05
2.926229863e-05
0.0001169968622
-4.529153674e-05
-0.0001671279235
5.012975907e-05
0.0003337370663
-6.445631742e-05
-0.0003880638375
2.618189883e-05
0.0005248658826
-2.893251139e-05
-0.0005577148306
0
0
0
0
0
0
0
0
0
0
0
0
0
0
0
0
0
0
0
0
0
0
0
-2.711678197e-07
-7.566582167e-07
3.415872889e-05
9.15619679e-05
-5.005565186e-05
-0.0001562300011
0.0001043819131
0.0004114601881
-0.0001251547962
-0.0005068315563
0.000103926701
0.0007822234537
-0.0001142108806
-0.0008624061998
2.832824111e-05
0.001046459258
-2.568259726e-05
-0.001086826544
0
0
0
0
0
0
0
0
0
0
0
0
0
0
0
0
0
0
0
0
0
8.37572263e-06
1.120984666e-05
-1.370718085e-05
-4.827992307e-05
0.000105131105
0.0002912574593
-0.0001232875052
-0.0004042291485
0.000192992246
0.0007947054455
-0.0002026067492
-0.0009274694383
0.0001365284316
0.001240936615
-0.0001514284113
-0.001307185787
1.661447357e-05
0.001444220578
-1.669854783e-05
-0.001462483772
0
0
0
0
0
0
0
0
0
0
0
0
0
0
0
0
0
0
-2.387366712e-07
-8.686262687e-09
-3.32889603e-07
3.151954309e-05
5.850132447e-05
-3.815770658e-05
-0.0001315547478
0.0001715068732
0.0004843981477
-0.0001802569806
-0.0006402163803
0.0002290411414
0.001096248445
-0.0002364614752
-0.001230789164
0.000153061498
0.001531143893
-0.0001388410323
-0.001593211441
3.929309926e-05
0.001647613261
-5.389595051e-05
-2.333823492e-05
-0.0007919844424
-0.0008176877325
0
0
0
0
0
0
0
0
0
0
0
0
0
0
0
0
9.995144227e-07
0
-2.135551523e-06
-3.127743041e-06
-4.82330265e-06
5.192747293e-05
0.0001018916489
-5.359718946e-05
-0.0001992980225
0.000205870906
0.0006312453392
-0.0002090034171
-0.0008016860477
0.0002465600089
0.001295936416
-0.0002466279696
-0.001433545059
0.0001266812295
0.001688150705
-0.0001235562293
-0.001707564788
1.267151796e-05
0.0008625002844
-1.409995398e-05
-0.0008610718484
0
0
0
0
0
0
0
0
0
0
0
0
0
0
0
0
2.767604511e-06
0
-3.493070991e-06
-8.863343357e-06
-1.007179678e-05
6.20742963e-05
0.0001321166484
-6.387906847e-05
-0.0002433775234
0.0002198573944
0.0007164492754
-0.0002220360132
-0.000898561381
0.0002487020716
0.001413688218
-0.0002491491524
-0.001551042322
0.0001199389189
0.001781228015
-0.0001195289268
-0.00178903543
9.293766861e-06
0.0008922198571
-9.291153252e-06
-0.0008922224707
0
0
0
0
0
0
0
0
0
0
0
0
0
0
0
0
4.201931598e-06
0
-5.175451323e-06
-1.38993771e-05
-1.560008288e-05
6.836226537e-05
0.0001550405392
-7.017217551e-05
-0.0002768461619
0.0002274743261
0.0007827411183
-0.0002296009425
-0.0009746140356
0.0002503994149
0.001509826385
-0.000250845924
-0.001649833579
0.0001187264527
0.001874244647
-0.0001185497472
-0.001878749069
9.167797673e-06
0.0009359644411
-9.466268436e-06
-0.0004669008364
-0.0004687651339
0
0
0
0
0
0
0
0
0
0
0
0
0
0
0
0
6.234898746e-06
0
-7.451268399e-06
-2.141595823e-05
-2.365037462e-05
7.582087517e-05
0.0001834160254
-7.780524492e-05
-0.00031708971
0.0002360261995
0.000858491999
-0.0002382272102
-0.001060510707
0.0002521054971
0.001615275724
-0.000252504673
-0.00175718643
0.0001178276251
0.001972437682
-0.00011764119
-0.001974311547
9.28154138e-06
0.000984072773
-9.362970991e-06
-0.0004912120744
-0.0004927792689
0
0
0
0
0
0
0
0
0
8.925825489e-06
0
-3.191186312e-05
-3.321567509e-05
8.426936547e-05
0.0002170500079
-8.678913768e-05
-0.0003633692158
0.0002451539281
0.0009408100615
-0.0002477707661
-0.001152545344
0.0002536509092
0.001724033882
-0.0002540234118
-0.001866566
0.0001171851284
0.002068215257
-0.0001172551881
-0.002068306444
9.516063438e-06
0.001031201631
-9.502504855e-06
-0.0005146780529
-0.0005165371369
0.0008876325645
-0.0008876746422
9.33584456e-06
0.0009301134504
8.959395561e-06
-0.0004644755456
-0.0004654295026
0.0009780781331
9.155084626e-06
-0.0004883516621
-0.0004896000143
0.00102501365
9.339038859e-06
-0.0005117287582
-0.0005131078674
0.0008562821957
-0.0008558720543
1.226137648e-05
0.001850084294
-0.00185532448
0.0001189203275
-1.580044322e-05
1.576572306e-05
0.0009301481705
1.589465746e-05
0.0008921333942
-1.580819458e-05
0.00194837554
-0.001950827759
0.0001180314023
-1.581031615e-05
1.577601285e-05
0.0009781124364
0.0009359988873
-1.583488942e-05
-9.359639238e-06
0.0009548553178
9.322570043e-06
-0.0004765817594
-0.0004782364892
5.952742805e-06
-0.0002393368574
-5.927245703e-06
0.0004782453433
-0.000238933983
-6.021489922e-06
-0.0002329183345
0.0004667278259
5.842161866e-06
-0.0002336301633
0.002043939023
-0.00204440149
0.0001171704699
-1.588763133e-05
1.585549954e-05
0.001025045782
0.0009840603711
-1.579791425e-05
-9.050726018e-06
0.001001833751
9.249499282e-06
-0.0005003477194
-0.0005016848047
3.247931943e-06
-0.000250987465
-3.305754526e-06
0.0002510452876
-5.695286422e-06
-0.0002453686106
0.0004912142673
5.734762753e-06
-0.000245885133
0.001031234554
-1.59205543e-05
-5.54671211e-06
0.0005254842155
-0.0005255370015
5.599498172e-06
4.457183309e-06
-0.0002634224736
-4.173798937e-06
0.0002631390893
-3.849599541e-06
-0.0002567072
0.0002568284915
3.728308035e-06
-7.648433639e-06
0.0004354488042
7.301059891e-06
-0.0002171051777
-0.0002179962527
7.976194742e-06
0.0004442175162
-7.911767507e-06
-0.0002222749601
-0.0002220069834
0.0004331767613
3.868786567e-07
-1.31216076e-06
-0.0004322514792
0.0004351748764
-0.0004355065267
-7.316783338e-06
-0.0002324618457
-6.241730417e-06
0.0004652575893
-0.0002325755031
-0.0004557050715
-6.052816063e-06
0.000455749479
6.008408554e-06
9.151055874e-06
0.0009135188714
-9.187866046e-06
-0.0009134820612
-7.757281285e-06
7.450442644e-06
-0.0002275724914
-0.0002278257415
3.711461086e-06
-0.0002324592598
-3.714046964e-06
0.0004451199464
7.768449723e-06
-0.0002222226187
-0.0002226895826
0.0004546904886
-7.68507064e-06
-0.0002273410319
-0.0002274216674
-0.0002448651399
-5.890394793e-06
0.0004894630046
-0.0002444027563
-0.0002399363437
0.0004801202854
6.140739976e-06
-0.0002403719389
0.0009611217859
-9.128899477e-06
-0.0004800260023
-0.0004813265233
-3.899844619e-06
3.953871152e-06
-0.0002399903702
3.408912373e-06
-0.0002448073428
-3.466709455e-06
3.662239207e-06
-0.0002328691127
-0.0002394572759
-3.779426169e-06
-0.0002563468285
-3.918484489e-06
0.0002564157135
-0.0002513098532
0.0002513220965
3.235688679e-06
0.00100698652
-9.365404063e-06
-0.0005028336238
-0.0005038382181
-3.8368915e-06
3.671162037e-06
-0.0002511441237
4.775234319e-06
-0.0002561615188
-4.960543998e-06
3.401965659e-06
-0.0002453616639
-0.0002509154662
-3.90889032e-06
-0.0002632718822
0.0002633770838
4.351981636e-06
-0.0005268184994
-5.405994094e-06
5.22846406e-06
-0.0002630943521
4.536052689e-06
-0.0002564680184
-0.0002636173197
-5.21114807e-06
0.001758107711
-0.001767613075
0.0001208020028
1.597939317e-05
0.0008875478288
1.899717928e-05
0.0008613303648
-1.782725964e-05
-1.034360859e-05
0.0008695119346
-0.0008694320024
1.026367637e-05
5.829564163e-06
-5.773786727e-06
0.0004351190989
-3.557443421e-06
0.0004344494202
2.284784469e-06
0.0009081146985
-0.0009082044454
9.2408028e-06
-6.057425669e-06
0.0004546950982
-6.044802376e-06
0.0004451204889
6.044259876e-06
-6.040081349e-06
0.0004442127952
0.0004354722947
5.806073669e-06
0.0008701028146
-9.778356481e-06
-0.0008706680667
-5.533359173e-06
0.0002197159904
5.933618734e-06
-0.0002201162499
0.0002234334811
1.647471284e-06
1.360942525e-06
-0.0002264418949
0.0002181657127
4.154710516e-06
-0.0002184393009
-3.88112227e-06
0.0008716809322
2.456364026e-06
-1.363701338e-05
-3.770954749e-06
-0.0004242167793
-0.0004325125488
0.0004278641763
-0.0004366262009
9.148903259e-06
-0.0002600930137
-2.71715753e-06
0.0002602138561
2.596315131e-06
-7.993727921e-07
0.0005205380687
7.523591986e-07
-0.0005204910551
7.581334136e-07
0.0005254488903
-0.0005254996106
-7.074130589e-07
0.0002236546157
-3.660807119e-06
6.212935134e-05
-0.00028212316
0.000218408876
-5.742524982e-06
-0.0002181997102
7.434712595e-06
0.0004394598822
-7.608333016e-06
-0.0002191327164
-0.0002201535454
6.123247798e-06
-6.596478931e-06
0.0002188821072
-6.26587211e-06
0.0002212879041
8.632583789e-06
8.980603376e-06
-2.244242642e-05
0.0002226846432
-0.0002092228202
0.0002200628174
5.776420834e-06
0.0004413249084
7.915321376e-06
-0.0002209772111
-0.0002208283061
6.308945035e-06
0.0004375460384
-0.0004378314396
-6.023543838e-06
5.428287652e-06
-5.671392914e-06
0.0002184088179
6.736838535e-06
0.0002166454178
5.122473484e-08
-0.0002207145712
-5.381777262e-06
0.0002198304763
-0.0002182556972
0.0002182629109
5.421073933e-06
0.0004355216529
6.590241172e-06
-0.0004358029491
5.556854219e-06
-0.0002196578409
-0.0002203686667
-4.006711553e-06
3.764484563e-06
0.0002302136671
-0.0002302691751
-3.708976557e-06
-5.51386026e-06
0.0002270782294
5.478795694e-06
-0.0002270431648
0.0002306718729
3.769254875e-06
-0.0002306766432
7.892067728e-06
0.0004496896624
-7.698087101e-06
-0.0002247188168
-0.0002251648262
6.040450513e-06
-6.029803772e-06
0.0002245684486
-0.0002245790953
0.0002218038521
6.775346152e-06
-0.0002195985948
-5.630396374e-06
0.0002268790131
-0.000226762477
0.0002247380674
5.963948328e-06
-0.0002246615652
0.0004505882068
7.837525271e-06
-0.0002252515126
-0.0002252821517
3.729707843e-06
0.0002420872185
-0.0002420349759
-3.78195042e-06
0.000242600304
3.714566582e-06
-0.0002425851628
3.539461723e-06
0.0002361922946
-0.0002361431487
-3.588607687e-06
0.0002366046074
3.535292107e-06
-0.0002366004378
3.114643149e-06
0.0002542054726
-0.0002542145806
-3.10553522e-06
0.0002547033401
3.356038915e-06
-0.0002549447359
4.398775763e-06
0.0002482592016
-0.0002483871056
-4.270871789e-06
0.0002485204136
4.407061383e-06
-0.0002485286992
0.000526828188
-0.0005268296348
2.932371223e-06
0.0002598147173
-0.000259571914
-3.175174548e-06
2.692950795e-06
-0.0002598535933
1.006672081e-05
0.0004426117441
-7.474454215e-06
0.0002265499663
-0.0002266095513
1.707056202e-06
-3.543984937e-06
0.0002485163018
3.548096697e-06
-1.020607933e-06
0.0004973969746
9.75157668e-07
-0.0004973515243
9.773439985e-07
0.0005017356709
-0.0005017364466
-9.765682786e-07
-1.017468109e-06
0.0004912150605
1.018146202e-06
-0.0004912157386
0.0004958736598
-0.0004958746236
-1.019644084e-06
-3.435604854e-06
0.0002481508216
-8.928541654e-07
0.0005146828337
8.457623677e-07
-0.0005146357419
0.0005195933697
-0.0005195940017
-7.987407163e-07
-2.840428918e-06
0.0002599379887
-5.884940316e-06
-0.0002431430455
0.0004857118535
5.91643645e-06
-1.060840563e-06
0.0004857163965
1.061224872e-06
-0.0004857167808
0.0004895575099
-0.0004895125987
-1.062379376e-06
4.136472802e-06
-0.0002443494935
-4.294384412e-06
0.0002445074051
-0.000243473721
-4.94115943e-06
0.000243718724
4.696156371e-06
-3.591610335e-06
0.0002439847398
3.534197284e-06
-0.0002439273268
-2.946098385e-06
0.0002545804097
3.069028785e-06
-9.815896228e-07
0.0005090199351
1.030683132e-06
-0.0005090690286
0.0005130173706
-0.0005130183896
-8.918351426e-07
0.0005028379927
9.782632817e-07
-0.000502838912
0.0005075905116
-0.0005076388058
-9.332953878e-07
-2.84427843e-06
0.0002541036527
3.404434393e-06
0.0002516166269
-0.0002515427389
-3.478322361e-06
4.360326355e-06
-0.0002508388295
-4.619394293e-06
0.0002510978975
-5.183036064e-06
-0.0002506459076
0.0002508026209
5.02632277e-06
4.745649246e-06
-4.844222915e-06
0.0002557275482
-0.0002556289745
-2.274830022e-05
0.000256276746
7.382218426e-06
-0.0002409106642
-4.890372807e-06
0.0002558026154
5.084861638e-06
-0.0002559971042
3.482975113e-06
0.0002466932281
-0.0002467691941
-3.4070091e-06
3.56517125e-06
-0.0002472913522
-3.49705634e-06
0.0002472232373
-0.0002449102031
0.0002451602519
3.886424061e-06
-0.0002503242723
-5.386713454e-06
0.0002505279497
-0.0002492184213
-5.953018558e-06
0.0002494234716
5.747968225e-06
-4.216244097e-06
0.0002499271405
4.098766799e-06
-0.0002498096632
3.905029234e-06
0.0002582387063
-0.0002580438408
-4.099894722e-06
4.125493697e-06
-4.219185968e-06
0.000257417093
-0.0002573234007
0.0002558882234
4.407998126e-06
-0.0002555505723
1.432454638e-06
0.0002639922115
-2.586939639e-05
-0.0002395552698
-2.641511299e-06
0.0002623396986
3.376995368e-06
-0.0002630751826
1.416744025e-06
0.0002206105415
-4.960769188e-06
-0.0002170665163
0.0002241526638
-1.968907523e-05
-0.0002030468446
4.816184022e-06
0.0002227277648
-0.000223301409
-4.242539858e-06
0.0002238401328
3.693431929e-06
-0.0002227173807
7.026295873e-06
0.0002170277837
-9.60880592e-06
-0.0002144452737
0.0002168868975
6.688718146e-06
-0.0002165493198
-8.428219829e-06
0.0002176365189
7.678598518e-06
-6.200266296e-06
0.0002189241644
5.952675666e-06
-0.0002186765737
5.213185218e-06
0.0002200362163
-0.0002197763298
-5.473071689e-06
-4.559655702e-06
0.0002175691698
5.609941012e-06
-0.0002186194551
0.0002189687434
-0.0002188658535
-6.30315619e-06
-9.384823915e-06
0.0002179843878
-4.095428413e-06
0.0002241648286
4.08326361e-06
-5.113193742e-06
0.0002220228748
5.578368215e-06
-0.0002224880493
6.843749382e-06
0.0002221986054
-0.000222435982
-6.606372744e-06
0.0002209466407
5.082540703e-06
-0.0002208159961
0.0002209030186
-0.0002210876252
-4.928587142e-06
-4.713104107e-06
0.0002212282171
-0.0002162627523
-7.977279407e-06
0.0002175014527
6.738578918e-06
-5.169880654e-06
0.0002181854577
5.215532976e-06
-0.0002182311101
0.0002179593843
-0.0002178849348
-4.63410519e-06
9.495089971e-06
0.0002166916227
-0.0002154469761
-1.073973662e-05
7.314073878e-06
-0.0002140817362
-4.635509728e-06
0.000230434938
1.860378781e-06
-0.0002276598071
-4.515771357e-06
0.0002303189217
4.741470258e-06
-0.0002305446206
6.873559628e-06
0.0002309643431
-0.0002316108887
-6.22701406e-06
-4.785661142e-06
0.0002275000572
4.615121879e-06
-0.000227329518
0.0002293343122
-0.0002293865843
-4.46349923e-06
-4.904305857e-06
0.0002289070419
-0.0002286382457
-6.833059839e-06
0.0002319788602
6.732508219e-06
-0.0002318783086
6.339162175e-06
0.000232247719
-0.0002321438383
-6.443042927e-06
0.0002310854479
7.107506581e-06
-0.0002313193949
0.000231667956
-0.0002315266396
-6.974376242e-06
-6.324695659e-06
0.0002229378771
6.246779708e-06
-0.0002228599611
-6.335889157e-06
0.0002234722517
6.198646517e-06
-0.0002233350091
5.75042013e-06
0.0002250858334
-0.0002249521982
-5.884055336e-06
0.0002221833016
6.846738107e-06
-0.0002221862904
0.000223476323
-0.0002232982549
-6.513957239e-06
-6.451342188e-06
0.0002227269189
-0.0002226002723
-5.525110471e-06
0.0002260862821
5.524006623e-06
-0.0002260851783
-5.223245979e-06
0.0002265209858
5.091132703e-06
-0.0002263888726
0.0002272972706
-0.0002272103854
-4.872546391e-06
0.0002251666083
5.576435713e-06
-0.0002249926239
0.0002256056952
-0.0002255155296
-5.313411494e-06
-5.775254144e-06
0.0002251721342
-0.0002249219906
-6.61795268e-06
0.0002404881822
6.460779194e-06
-0.0002403310087
5.944375758e-06
0.0002415798055
-0.0002414218454
-6.102335915e-06
-7.360929698e-06
0.0002405381631
7.444195569e-06
-0.000240621429
0.0002403588457
-0.0002401501
-6.826698364e-06
-5.230043374e-06
5.076161014e-06
-0.0002433198386
4.467956974e-06
-0.0002441426987
-4.674751767e-06
0.0002421280732
5.74139545e-06
-0.0002419250929
0.0002432858003
-0.0002431318917
-5.383951985e-06
-5.632269682e-06
0.0002347682352
5.387643873e-06
-0.0002345236094
4.825327905e-06
0.0002358733631
-0.0002356706441
-5.028046932e-06
0.0002326090278
6.18648511e-06
-0.0002324563507
0.0002343570667
-0.0002341569185
-5.832417927e-06
-3.984948969e-06
0.0002387800165
4.052712099e-06
-0.0002388477796
0.0002408266851
-0.0002417821102
-6.40550464e-06
0.0002362895736
4.622038918e-06
-0.0002360862846
0.0002378389812
-0.0002376528885
-4.171041641e-06
-0.0002535106213
3.040602117e-06
-3.544243943e-06
0.0002540142631
-0.0002515760845
0.0002518388744
4.097536461e-06
0.0002524538382
3.237138925e-06
-0.0002522865428
-4.117351684e-06
4.11792949e-06
-0.0002515766623
3.455480568e-06
-3.766546072e-06
-0.0002531995558
-4.691517404e-06
4.654081194e-06
-0.0002506084714
-4.491574297e-06
-0.0002504646069
0.0002546492242
-2.214553218e-07
-0.0002509722883
0.0002555665578
-0.0002560562373
-4.400693312e-06
-6.793004499e-05
0.0002578569377
-0.0002126751929
0.0002551635266
2.526299728e-06
-0.0002489347335
6.908127506e-06
-6.824573535e-06
0.0002488511796
-0.0002492846532
0.0002484636278
4.386196657e-06
0.0002471264107
3.717233818e-06
-0.0002473606694
-3.069224046e-06
3.167775921e-06
-0.0002493832051
7.779542756e-06
-2.258344889e-05
-0.0002341308274
4.254280545e-06
-0.0002446965267
-0.0002467844846
-3.576091596e-06
-5.03046782e-06
4.944735941e-06
-0.0002491326894
-4.775704949e-06
-0.0002502400848
0.0002482107607
5.476118628e-06
-0.0002459073366
0.0002488519937
-5.118172533e-06
-0.000248764289
0.0002495127171
-0.000249397016
-4.33194522e-06
-6.160448915e-06
0.0002490594241
0.0002484742732
6.644614961e-06
3.607592799e-06
-3.701649853e-06
0.0002590396647
-0.0002589456076
0.0002578344571
3.984855702e-06
-0.0002576938191
0.0002586078158
3.661837048e-06
-0.0002583646237
0.0002609254093
-0.0002611169188
-2.450001734e-06
-2.65969485e-06
0.0002603021773
-0.0002562100278
0.0002592686229
3.607109494e-06
-0.0002592681396
-5.912272815e-06
-0.0002369327091
0.0004735415749
5.908014501e-06
-1.057801023e-06
0.0004735430547
1.058045236e-06
-0.0004735432989
1.059342222e-06
0.0004782382215
-0.0004782386533
-1.058910388e-06
0.0004668158929
-1.100262908e-06
1.100691003e-06
-0.000466816321
0.0004720670175
-0.0004720235067
-1.1013118e-06
-0.0002358233651
-5.917919084e-06
0.000472021306
0.0004800728441
1.059773199e-06
-0.0004800732751
0.0004838341772
-0.0004838345174
-1.060500303e-06
-0.0002415496036
-6.032813591e-06
0.0004837846954
3.954286306e-06
0.0002407458767
-0.0002407450811
-3.955081829e-06
6.454463445e-06
-6.650264204e-06
0.0002405546464
-6.677202928e-06
0.000240319407
6.895959066e-06
-6.000938375e-06
0.0002401504206
-4.110445749e-06
0.0002385223581
4.368104179e-06
-3.534566501e-06
0.000238138077
3.594093607e-06
-0.0002381976042
0.0002196325754
5.901338423e-06
-0.0002196002951
2.333227894e-05
0.0002215864523
-0.0001827893799
2.093206635e-05
-0.0003030552263
0.0002171262329
-6.321947181e-06
-0.0002165468107
0.0002176864906
-7.156736612e-06
6.427918242e-06
-6.982182611e-06
0.0002182407549
5.919371497e-06
0.0002193906539
0.000224749182
-6.242042783e-05
-0.0001847711805
8.349753397e-06
-7.404850156e-06
0.0002238042787
8.345429265e-06
0.0002226889673
5.501160421e-06
0.0002204810284
-0.0002200185655
5.137686091e-06
0.0002203820398
5.390430706e-06
-4.867080548e-06
0.0002181388278
5.223518882e-06
-0.0002184952661
0.0002186432643
-0.0002185713703
-5.241774635e-06
-8.761043287e-06
0.0002174753866
-0.0002235326052
9.261372121e-06
0.0002198280873
-3.348314204e-06
6.272316001e-05
-0.000282907451
-0.000218184708
-4.821447055e-06
-1.098440422e-06
-0.00019833816
0.0002159499979
-5.441318772e-06
-0.0002116071196
-5.621623819e-06
0.0002175649102
0.0002922340438
1.947916412e-05
-0.0003117132079
6.357982174e-05
-4.33460002e-06
0.0002329888221
2.219634175e-05
0.0002324533291
-0.0001910698491
5.26629699e-06
-5.413753729e-06
0.0002272256861
-0.0002272804024
5.110651293e-06
0.0002274360481
5.312890634e-06
-0.0002271144974
5.939020064e-06
-5.96946397e-06
0.0002321153607
-0.0002320849168
5.955969879e-06
0.0002320860299
-0.0002321029797
8.375337034e-06
0.0002314633946
-0.0002176423899
6.333860316e-06
0.0002310043132
-0.0002289628365
0.00022405315
-5.954092272e-06
-0.0002241288615
6.69304323e-06
-6.851913793e-06
0.0002242120206
6.502627494e-06
0.0002247588643
8.073391544e-06
0.0002220758898
-0.0002219240241
7.712904262e-06
0.0002222845114
6.38771579e-06
-0.0002215363938
0.0002268885085
-5.701820722e-06
-0.0002268170841
5.55746713e-06
-5.699912086e-06
0.0002270309534
0.0002270227265
6.397420665e-06
0.0002248432742
-0.0002247368246
6.252243791e-06
0.0002248820015
5.931997316e-06
-0.0002247048736
5.699064744e-06
-5.900736721e-06
0.0002417814775
0.0002406863576
6.256288034e-06
0.0002409948238
3.84828275e-06
-0.0002408888203
0.0002437491515
-0.0002436936228
-3.647139052e-06
-5.140717439e-06
0.0002434853584
0.0002422848496
5.542288376e-06
4.505210448e-06
-4.688242935e-06
0.0002360563956
-5.147978746e-06
0.0002349064368
5.009777112e-06
-3.604728857e-06
0.0002350861967
3.598824555e-06
-0.0002350802924
5.238870188e-06
-5.322155265e-06
0.0002351007023
-0.0002350174172
5.110244227e-06
0.0002355116772
-0.0002353830512
5.563306489e-06
0.000232257324
-0.0002318646606
5.609814656e-06
0.0002330092509
-0.000233055759
2.140162051e-05
0.0003038794359
-0.0003252810564
5.068337011e-06
0.0002358369492
-0.000235795042
0.0002362543255
4.93343693e-06
-0.0002361194255
0.0002377203753
-0.000237768708
-3.486233834e-06
-4.110281209e-06
0.0002378388167
0.0002364278541
4.366929932e-06
0.0002507848872
-0.0002505812051
-4.823076408e-06
4.285677012e-06
0.0002510366596
-4.53744941e-06
4.029955942e-06
0.0002513536185
0.0002555794843
-5.06594878e-06
-0.0002553577584
5.916737111e-06
-6.245146669e-06
0.0002559078938
5.693419873e-06
0.0002559508654
6.566633332e-06
-6.541704834e-06
0.0002562518175
-0.0002556432316
0.0002559647183
-0.000253326962
4.345782674e-06
-6.859336911e-06
0.0002627152679
-0.0002602017136
0.000262556492
-0.0002623299533
0.0002570007712
-4.313083566e-06
-0.0002569068737
4.841143046e-06
-5.156075069e-06
0.0002573157033
4.574521243e-06
0.0002576837148
5.423844295e-06
0.000256157799
-0.0002564904131
0.0002567581823
-0.0002563954985
2.249982211e-05
-6.872063174e-05
0.0002653952485
-0.0002191744389
0.0002635831713
-0.0002479426861
1.416402697e-06
-1.432634673e-06
0.0002640084435
-0.0003333654166
0.0002660611875
-0.000359234813
0.0002191913062
-0.0002182507369
0.0002845749898
-0.0003042640651
1.637588123e-06
0.0002243675045
-2.972563211e-07
-9.713550689e-08
0.0002218332615
2.327180891e-05
-6.192644659e-05
0.000221705463
4.42436417e-06
0.0002164782267
-0.000197630782
-9.024377748e-07
0.0002209678114
-0.0002883897684
0.000225560884
0.0002184587521
-0.0002047352791
0.000216762319
-0.000216395548
5.659061743e-06
-4.747386312e-06
0.0002232531532
-0.0002262378256
0.0002244920372
0.0002198686328
4.796152883e-06
0.000220210166
0.0002212769837
-2.435193469e-05
9.806980736e-06
-0.0002009020221
0.0002201684624
-0.0001817972371
0.0002186900979
-2.207408307e-05
-0.0001916862608
-0.0003049815341
-0.0002148132313
0.0002165056814
-6.343732016e-06
-0.000213910818
-0.0002106184874
4.217843585e-06
-4.494862222e-06
0.0002307119566
-0.0002323203337
0.0002322035772
-0.0002109807908
0.0002277450242
-0.0002273364395
4.801936496e-06
0.000228053739
0.0002292141161
6.002589755e-06
-6.038347277e-06
0.0002316874013
-0.0002316516438
0.0002320092367
-0.0002319761109
6.126680342e-06
0.0002310357142
-0.0002308285343
0.0002313713426
-0.0002312830095
7.010232194e-06
-7.166544661e-06
0.0002230941896
-0.0002233059292
0.0002234642476
-0.0002230132418
0.0002225590644
-0.0002226226908
7.494943338e-06
0.0002227770253
0.0002230553176
5.761464523e-06
-5.871665896e-06
0.0002261964835
-0.0002268048969
0.0002268664493
-0.000226982711
0.0002247703387
-0.0002246135955
6.064740235e-06
0.0002249578423
0.0002253652086
-0.0002405595688
6.350067731e-06
0.0002406702803
-5.538916532e-06
5.457277228e-06
-0.0002404779295
-5.667658556e-06
-0.0002402022666
-5.326278391e-06
5.196423127e-06
-0.0002412919901
0.0002408308233
-0.0002406998244
0.0002410785551
-0.0002399926719
7.092535757e-06
0.0002403443317
-8.171330035e-06
5.881898624e-06
-0.0002377032405
-2.252439157e-05
-0.0002262683674
-5.804959602e-06
-0.000240012799
0.0002401223501
-0.000240045411
0.0002403881875
-0.0002435057846
4.87650114e-06
0.0002437054445
-4.91790021e-06
4.882608329e-06
-0.0002434704928
-4.954109209e-06
-0.0002432836296
-4.709237201e-06
4.530021048e-06
-0.0002439634825
0.0002436884756
-0.0002435151045
0.000243890225
-0.0002424757147
5.583649679e-06
0.0002426334605
-5.111836613e-06
5.115992693e-06
-0.0002424798708
-0.0002418405064
-5.080537982e-06
-0.000243005463
0.0002428961645
-0.0002428607098
0.0002430958622
5.361052446e-06
0.0002344103142
-5.48815154e-06
-0.0002342832151
0.0002347340953
-0.0002346951981
-0.0002349346984
5.186255423e-06
0.0002351360869
-5.768121586e-06
5.56751842e-06
-5.881416711e-06
-5.365992108e-06
5.207025193e-06
0.0002353022286
0.0002354604371
5.528281355e-06
0.0002335919897
-0.0002335104564
0.0002339564023
-0.0002339162725
1.000215702e-06
0.0002383416265
-4.377870647e-06
-0.0002349639716
0.0002408519685
-0.0002184501323
-0.0002407981388
4.920057113e-06
0.0002399307938
-3.55970062e-06
3.613530269e-06
-4.065853715e-06
-6.521729123e-05
-0.0001990892105
0.0002422756749
0.0002407902274
-0.0002364229245
4.417902814e-06
0.0002366270606
-4.95768977e-06
4.789090769e-06
-4.468246569e-06
-0.0002372504957
0.0002369167034
-0.0002365958592
0.0002371635645
4.73295482e-06
-0.0002363953771
-0.0002368954115
0.0002531803928
-3.828754751e-06
-0.000252895882
3.255163985e-06
-3.51246127e-06
0.0002534376901
3.06036527e-06
0.0002542090618
3.771728454e-06
0.0002520971019
-0.0002525916419
0.0002528509091
-0.0002523228602
4.02123111e-06
-0.0002522261618
-0.000252641197
4.711436388e-06
0.0002507324284
-0.0002507897836
-0.000250361343
-2.397018869e-05
0.0002572463175
-0.0002334975842
0.0003239455692
-0.0003479157579
0.0002585866434
-2.57111913e-06
5.549205742e-06
-3.932023313e-06
0.0002569694609
0.0002568644386
3.074285885e-06
0.0002551496059
-0.0002572014981
0.0002563437607
-0.0003143162841
6.66763473e-05
0.0002508077127
2.261435522e-05
-0.0003369306393
-4.235032454e-07
-0.0002263453466
0.0002502261132
-0.0002061332147
-0.0002452193514
4.023575612e-06
0.0002454500564
-4.483615258e-06
4.282429136e-06
-0.0002450181653
-0.0002446501209
-3.974449479e-06
-0.0002432335384
0.0002456946021
-0.0002453866224
0.0002461420861
4.859993778e-06
0.0002496331681
-0.0002495484259
0.0002500024316
-0.0002499181428
5.306307994e-06
0.0002482435689
-0.0002480737582
0.0002485377542
-0.0002483496187
0.0002585720915
-3.843655664e-06
-0.0002584300857
3.775102511e-06
-4.042059406e-06
0.0002588390484
3.55545263e-06
0.0002592593145
4.308360812e-06
0.0002581006175
-0.0002582031524
0.0002584694538
-0.0002580619524
0.0002589490055
-3.544584134e-06
-0.0002580641162
2.151083166e-06
-2.900463804e-06
0.0002596983862
0.0002610206258
3.234665797e-06
0.0002595894097
-0.0002592633166
0.0002595975186
-0.0002592007913
0
0
0
0
0
0
0
0
0
0
0
0
0
0
0
0
0
0
0
-6.728773903e-08
0
-1.544938138e-05
-3.932428027e-06
4.667656617e-07
7.094018758e-06
0
0
0
-2.631266159e-05
1.35169592e-06
-6.258112361e-05
-8.201354002e-06
3.506130627e-06
5.091083352e-05
0
0
0
-7.263128252e-05
3.429449662e-06
0
0
0
0
0
0
0
0
0
-2.558330195e-06
0
-6.763832551e-05
-1.991377964e-05
9.38991602e-06
3.638308108e-05
0
-2.240478055e-07
-0.000105701995
1.62836775e-05
-0.0002407668358
-4.882315272e-05
3.397857124e-05
0.0001941867113
2.909002315e-05
-1.092612612e-05
-0.0002865191665
3.638415174e-05
-0.0004041764723
-3.556444984e-05
2.868461331e-05
0.0003695154433
0.0001045824724
-1.436285612e-05
-0.00043280879
2.215426051e-05
0
0
0
-5.64584913e-05
-1.7873918e-05
9.046252517e-06
2.043913076e-05
0
-6.29028731e-07
-0.0001079096617
2.121698041e-05
-0.0003270468961
-9.034050785e-05
6.986418427e-05
0.0002461033674
7.315932523e-05
-3.391392883e-05
-0.0004119937154
8.364439482e-05
-0.0006642885345
-0.000112779081
9.756132498e-05
0.0005830635281
0.0002775527689
-6.489396081e-05
-0.0007398900625
9.19557068e-05
-0.0009183490578
-5.080366868e-05
4.924368923e-05
0.0008679800129
0.0004849501298
-4.152733367e-05
-0.0009587759965
2.995191173e-05
4.027886057e-06
-3.007418301e-05
4.217186129e-06
-0.0002385346985
-7.556629958e-05
5.991054742e-05
0.0001501453034
4.540436518e-05
-3.123601401e-05
-0.0003417157353
8.746923251e-05
-0.0007131674627
-0.0001834935299
0.0001684064465
0.0005861244367
0.0003191498483
-0.0001117164862
-0.0008355815589
0.0001707655059
-0.001129483285
-0.0001631704673
0.0001487030039
0.00103818014
0.0006947903909
-0.0001264744718
-0.001207991136
0.0001294495019
-0.00136690924
-4.787357102e-05
4.855678276e-05
0.001327129603
0.0009953995541
-5.098040331e-05
-0.001395427341
1.921941098e-05
4.400385174e-05
-0.0001080878311
2.455634546e-05
-0.0004439307184
-0.0001316249096
0.0001217125459
0.0003144047143
0.0001916675032
-9.162140053e-05
-0.000587626223
0.0001564963086
-0.001026352941
-0.0002311715865
0.0002195488902
0.0008833904962
0.0006569441801
-0.0001927417198
-0.001160063479
0.0002204879089
-0.001485309159
-0.0001773021358
0.0001883470794
0.00139041501
0.001162123934
-0.000185066193
-0.001551104759
0.000160652324
-0.001584825331
-7.845125407e-05
6.086713499e-05
0.001601504565
0.001415358705
-5.029238092e-05
-0.001570207266
2.467503456e-05
9.505417216e-05
-0.0001885818747
4.865569989e-05
-0.0006070295826
-0.0001696109759
0.0001638643649
0.0004500317326
0.0003489983383
-0.0001445547413
-0.0007731140606
0.0001999683375
-0.001259032675
-0.0002543293212
0.0002509100977
0.001105525343
0.000948601839
-0.0002435730014
-0.001398074674
0.0002469215467
-0.001668459832
-0.000161500169
0.0001635802622
0.001610955898
0.001448161781
-0.000168155606
-0.001692410155
0.0001280889394