/*--------------------------------*- C++ -*----------------------------------*\
| =========                 |                                                 |
| \\      /  F ield         | OpenFOAM: The Open Source CFD Toolbox           |
|  \\    /   O peration     | Version:  v2012                                 |
|   \\  /    A nd           | Website:  www.openfoam.com                      |
|    \\/     M anipulation  |                                                 |
\*---------------------------------------------------------------------------*/
FoamFile
{
    version     2.0;
    format      ascii;
    class       volScalarField;
    location    "2.81";
    object      omega;
}
// * * * * * * * * * * * * * * * * * * * * * * * * * * * * * * * * * * * * * //

dimensions      [0 0 -1 0 0 0 0];


internalField   nonuniform List<scalar> 
3019
(
31.93115784
31.93207212
31.93300328
31.93379965
31.96676917
31.96756083
31.96841068
31.97010985
31.97338101
31.97859592
31.98546004
31.99219733
31.79529642
31.79788725
31.80047785
31.80273806
31.83644529
31.8393706
31.84406839
31.86676761
31.8816189
31.90581011
31.93811396
31.96941334
31.66108114
31.6657036
31.67017972
31.67380999
31.70836447
31.71468625
31.72563715
31.75780251
31.7928091
31.84786175
31.91885298
31.98686755
31.52851526
31.53448599
31.54044529
31.54589398
31.5826594
31.59473075
31.61752287
31.66846007
31.73890033
31.84736577
31.99000285
32.13737394
31.39775404
31.40561168
31.41345317
31.42149127
31.46112011
31.48186413
31.52464256
31.60569104
31.73771999
31.95626236
32.2733733
32.66874438
31.26821109
31.27744027
31.28712778
31.29868346
31.34454859
31.37898537
31.45283458
31.57527069
31.81204551
32.24917191
33.04646377
34.48635427
31.14088484
31.15197467
31.16455224
31.18093085
31.23375701
31.28660642
31.39983881
31.5873818
31.98921447
32.82443837
34.88315672
41.77700152
31.01547531
31.02822403
31.04377525
31.06630726
31.1302427
31.20548806
31.36549387
31.63917586
32.2576678
33.66946381
37.97942375
60.17399616
30.89417775
30.90941414
30.9294645
30.96071286
31.03363884
31.1355053
31.34816341
31.72122597
32.56960202
34.53180206
40.63270714
73.83630595
30.77705451
30.79445213
30.81878673
30.85908105
30.94453663
31.07527246
31.34368416
31.81769616
32.86967604
35.2250094
42.16458709
80.00042035
30.66680354
30.68724138
30.71726132
30.76866712
30.86337397
31.02296357
31.34686423
31.91510196
33.13196703
35.76004124
43.27784319
89.74057302
30.56176484
30.58461103
30.6193861
30.68113747
30.78887647
30.97640051
31.35459225
32.00538924
33.35928443
36.20735877
44.38231652
101.0012863
73.11400059
79.11905056
88.40738962
99.68693113
57.14788351
41.85936733
67.71226665
63.85695093
43.0468994
73.53570063
68.29255338
83.11926092
237.9443681
215.1132236
44.17461782
81.98662391
74.48581466
93.74857149
337.9992542
272.1658892
83.01240549
102.861968
509.630522
410.5424648
183.1697119
213.7971743
112.8894968
176.9922691
212.3301202
193.7667278
76.54205046
252.9684741
265.6133139
219.7068825
250.036304
268.9854161
241.7218045
84.3512233
308.2717404
351.0214287
267.696634
305.05106
406.3340371
341.2884349
95.11010268
415.8522807
514.9566674
353.8301196
411.937686
519.0145613
103.1673817
701.5101948
519.9814286
685.6711598
40.10951639
63.17502789
53.22605727
67.85775649
144.7966382
97.85619416
76.04705731
191.6002056
169.8742928
167.0667764
148.4316245
69.55678444
1419.750477
264.2262105
613.6372495
64.28612435
102.6577549
446.1617447
176.4362072
183.991644
1278.289217
1421.063249
196.6545676
911.2526471
746.5779056
1368.713825
911.7320825
200.4756227
145.7236293
452.0997023
214.4668775
663.1842065
483.8047573
156.1800094
642.4194257
940.7574233
253.2896102
1491.239783
253.6825127
234.4947296
1444.559476
1388.106773
1485.808761
1451.074773
238.5258595
327.8148015
330.5845198
283.482623
285.7776737
445.5485575
452.2310852
382.2563295
386.238285
186.7231773
556.3361437
560.8787197
117.1824865
242.8523332
311.8532735
146.4435734
151.1640475
140.6485713
144.9440848
306.1104098
167.6317293
174.2085651
441.6056751
256.5595818
135.3545419
139.296748
704.5837789
691.6024259
341.9481602
369.7451097
159.8080629
165.6143499
152.8061002
157.9783509
365.4230667
427.6353782
1009.29423
999.8387308
1586.87533
1541.137575
494.3279608
364.7564991
740.980381
706.7512747
995.7578012
989.1935317
400.7596718
535.0466148
1619.223293
1594.116618
1624.922434
603.4386816
1468.6897
1405.180207
413.7851198
452.2880705
1382.515896
1394.113748
902.125724
335.1445664
356.2431953
309.1668341
328.9220078
895.2408969
958.3147958
400.1442654
434.2960143
363.7891372
390.2557393
965.2827471
599.6838855
282.9471926
303.2960051
859.4942619
891.6616744
1528.695075
536.3426589
600.1393911
512.0922671
525.6575727
1494.408596
648.6486811
658.7964407
620.991799
644.9622564
1425.931156
463.3165562
475.9261198
442.5943646
458.8690539
1417.846908
1471.100152
496.0351542
507.6281504
480.0357403
492.0812167
1468.583544
961.0771462
965.5079056
936.1350124
959.6795273
977.4028705
989.5532703
967.1966013
974.8937235
674.8515411
684.8560188
661.9739684
671.4574795
724.6383596
893.851465
689.7438561
702.1096545
1022.374441
1015.026061
431.9009636
1616.705872
1621.302598
1584.973396
1607.47934
1665.831825
483.4934525
1505.600291
1075.022553
959.9993577
761.4472755
368.8135482
1037.262778
1491.320906
990.244829
1047.129039
1550.251421
1573.380405
1510.746542
1540.559118
397.1288527
987.2121296
977.9433936
1652.262072
1624.382655
539.7698482
587.6576517
1715.904781
1654.89548
227.3614821
125.6975133
129.3142977
120.733543
124.4802568
224.1495594
130.4654672
134.0964479
252.8613299
316.8201515
659.2310439
634.2292346
612.8436431
548.2524005
295.8486848
1437.934252
1325.954357
1739.84506
1412.947012
907.6144022
628.6042479
636.1436072
1333.823503
843.2979154
884.2568545
641.2848421
650.7683287
922.99174
251.1885801
276.8828742
573.3056107
720.5413003
1265.835425
933.4368816
1408.69839
1459.443802
946.9473502
1819.302392
1339.688401
1389.177684
949.9272842
951.4594205
1494.587838
1482.065826
1493.768588
1419.303088
1438.774401
1436.783476
915.0698145
917.9989484
900.4919919
905.0489431
1399.792131
1481.233196
941.5318578
944.5365392
921.2439243
924.5889268
1457.1174
673.7092381
663.1581708
319.6037852
339.1632451
688.052508
677.114454
519.0646961
507.9282741
276.5153739
1523.412811
1525.249842
1497.855095
1501.731526
1863.191707
1531.492051
1532.260636
293.2052277
537.3848602
523.589012
1007.688223
709.8076432
713.1871196
1573.388306
1013.381044
1016.941357
987.9936387
1007.441598
1562.443325
1605.762728
1619.892632
1609.712981
1022.01513
1025.208294
1018.410346
1020.601511
1603.349634
1545.357596
1585.246823
1094.447249
1486.830875
2040.859408
1435.759415
1748.989552
706.0044075
915.3222193
1370.774311
1458.461282
942.9953477
1344.589026
1753.445753
1362.421284
1408.685397
697.268249
771.5626168
1288.962859
920.8572693
654.5282571
677.5345703
1373.502682
1342.343023
814.1161318
1410.110542
1746.653974
893.3862528
1413.37037
1403.785472
1004.383629
996.500297
1456.311955
1501.416562
961.0901933
957.4525357
1466.527849
1476.188065
1449.388222
1459.224089
911.0713086
913.361327
1434.162172
1409.134431
907.1501995
909.0022552
934.1640441
937.2122938
1475.064497
1463.919196
928.1889683
931.2638909
962.6638879
1505.728308
1496.842038
1518.405732
1512.46864
963.9666732
952.5402306
1466.071408
1449.597376
1488.335742
1478.27676
957.4864115
981.8096447
1557.06012
1548.462025
1569.585181
1561.224314
983.9352479
969.2748646
1529.877257
1524.707527
1543.419392
1535.623674
971.4934295
1514.973699
1518.024387
678.053269
959.6324844
957.6954985
964.5608262
962.9937873
681.8747242
1506.965643
1510.451078
1570.811095
1492.8796
744.5520371
1014.34452
1023.627538
1416.899759
1367.007894
818.7626288
691.8108101
970.0560201
969.4011748
975.9906301
979.7287218
700.8154256
1541.168122
1534.474596
1026.458952
731.5476828
733.1155185
719.0333593
721.339373
1015.448696
1617.085983
1629.582366
1590.063342
1605.000372
1576.310965
1987.566883
1445.713728
858.041798
941.013618
757.7844462
779.1163236
1064.646775
1403.162197
1920.103382
1531.320336
1457.367797
1000.870817
1581.679805
1570.052921
1614.889203
1574.621419
997.0761817
1556.959186
1567.319707
1522.116998
1532.620293
1638.973101
1033.302693
1040.36216
1026.911936
1031.726959
1635.529512
1671.77467
1052.38967
1105.806689
1041.730307
1055.214406
1674.959427
31.78363012
31.80402094
31.87662299
31.8122443
31.84598609
31.89803331
31.85809935
31.90178247
31.92868716
31.91705363
31.96312594
31.96120258
31.97495588
31.68866245
31.7307247
31.78261446
31.74839482
31.81483779
31.83302642
31.84064655
31.92786725
31.90158323
31.95850536
32.0534066
31.97169059
32.07420617
31.61927739
31.69727039
31.71832956
31.73261067
31.86126172
31.81746489
31.91389192
32.10191528
31.95293287
32.17190452
32.40437584
32.09567864
32.44438958
31.57987503
31.72040284
31.69760412
31.78357026
32.03951819
31.89189935
32.1521886
32.59549117
32.18586808
32.78367347
33.53315357
32.53740073
33.69019099
31.58032888
31.82262946
31.73837771
31.93450823
32.4185754
32.11409174
32.65084238
33.72192584
32.79999703
34.27814893
37.34829755
33.9577995
38.59175726
31.62198348
32.00044777
31.86103694
32.18089216
33.00875255
32.55056357
33.43779467
35.72990673
34.1499967
37.16060699
51.06042571
38.77471029
46.66655298
53.92456356
43.90561414
31.69784928
32.23343635
32.05720887
32.49122016
33.69545851
33.18467496
34.33163108
37.85034272
36.3122155
38.77552582
41.63147686
40.56364648
63.07925774
72.50513933
68.4262068
31.79376802
32.47456329
32.29433612
32.7987623
34.29245719
33.85306427
35.07069469
39.26378248
38.26284469
41.10072646
44.72599096
44.1257045
74.66469662
89.06123006
87.77299157
31.89324322
32.69668843
32.53135229
33.07287274
34.77128844
34.42080827
35.63995609
40.22763197
39.524505
42.48419933
46.49912556
46.08059342
80.95538447
107.959625
104.7013723
31.9889157
32.8923372
32.7450913
33.30924125
35.16570889
34.87269153
36.10633908
41.06030549
40.42667408
43.59874859
48.07850549
47.59328701
91.06674394
124.203154
120.9859161
32.93334262
35.25126034
41.24973379
44.7911993
51.04179585
49.24576533
103.2879645
145.828692
141.0218553
86.76490364
85.30907088
72.0930858
103.5582744
99.73359531
78.28983733
119.9698644
117.0496068
87.04088854
139.5306182
135.2524497
97.98215749
90.85988025
58.73342742
48.67675828
45.50336868
57.59291227
45.68923561
45.22271309
41.48847233
66.09570495
49.95775851
50.68965435
48.70053212
49.68503194
65.59015939
47.27018883
46.84401771
42.74072164
70.97321067
51.85215328
52.60726267
50.92256787
51.61220182
70.2389238
112.2046627
109.0633029
81.99336491
234.170404
183.775555
186.1205276
171.079962
173.0580508
218.0162741
48.9907558
48.38272518
43.81600159
78.59464612
54.10232133
55.20981522
52.8802963
53.77820923
77.54509274
128.8248931
125.3126948
92.38844479
327.9997705
227.2279308
230.2704186
208.7557306
212.1163707
278.3824608
55.55823686
56.67996264
86.98087577
152.7619746
147.4680814
103.9227221
473.9463658
295.0180697
290.3452842
265.1217128
269.9500783
423.3829152
188.2774581
263.1641313
242.8611638
340.0027888
318.2616364
208.7197696
122.5374507
148.2322804
134.2073172
229.9559045
220.8138294
171.6645248
204.6044795
115.65996
119.4886966
111.4782661
114.5297345
201.9450574
77.46693342
98.15245687
91.77212002
258.6115578
416.5570424
405.0408692
489.6405431
478.6938199
259.54604
225.1547354
358.2464611
345.3230973
401.4806381
391.1053908
245.7805694
264.3047289
203.4251802
206.3444943
188.4981053
190.9083709
245.4249101
85.66455817
116.1026296
113.2197977
311.1904528
377.2121236
372.7985923
426.8045394
422.9223932
347.7913597
274.307653
504.1366746
493.2676464
367.7101571
362.4200117
301.8941009
392.2104738
256.4383909
260.8725413
233.4648912
236.798996
351.2069246
96.57826212
133.8949472
130.0435969
419.683285
530.9428996
526.8565618
695.3258798
689.1588489
509.336785
357.1379877
434.6506157
430.3157497
522.3839436
518.2991675
408.180827
290.8906635
154.6065547
711.0422701
1043.972163
1036.913811
525.0431749
704.8764841
700.1402939
1016.131793
966.4774514
660.7174176
43.44057301
42.60244584
39.48472907
60.23571728
46.70149628
48.29925869
43.56953926
46.06276533
58.88555227
79.31193579
76.14084425
65.66612458
129.5122735
88.67861806
95.37968672
78.66765237
86.09059858
122.1551493
91.47260856
89.83264794
75.20903616
182.9679002
107.5709817
110.5240449
104.6098908
106.8335697
179.809016
159.7125851
101.5581731
103.9648702
96.90456652
100.7185693
157.2182133
71.00725449
83.8017928
81.7397332
309.2409265
408.9067312
334.6452972
938.1724792
823.2825039
552.027842
73.20561674
102.1768606
76.00040335
92.85159994
69.06124824
176.1721261
104.131809
81.28185892
284.0065558
291.323869
464.6223426
178.9593083
222.7482753
218.6335894
230.4987806
225.7378846
181.3538217
285.3597796
268.8024435
192.6768836
511.1792253
546.583091
827.5254878
204.3581481
310.7008891
290.7869806
183.3829352
168.2687938
134.6232892
356.506124
224.040478
242.6512153
166.111367
184.3105662
319.2954742
639.816322
465.1215001
482.7286328
372.3894857
388.8518815
509.9857735
164.0796562
210.1368084
197.9597698
449.4330828
422.2575962
259.6614239
257.7220084
474.9030722
458.612523
373.3356307
362.1511668
230.0696513
242.2949854
387.6281822
376.9529458
398.4403431
395.0348049
325.0575208
333.4078316
405.3207945
401.8546575
336.6099445
333.6765557
281.0956768
288.2345857
342.5975958
339.5908442
560.6463747
555.4941966
440.6512217
460.8142268
587.3351767
572.5503381
483.8600938
474.0389396
378.1767801
389.9612446
496.9894744
491.3570287
234.5700911
735.1281745
727.9959611
550.0090719
568.7463749
749.9985088
738.1952312
141.5807365
163.1270815
221.3781326
224.2862469
324.4614772
147.9846559
178.5759245
176.4188263
182.9632014
180.7537583
149.5563444
142.0611154
170.2634153
168.2269143
174.279019
172.1791945
143.4774826
280.6638039
214.4551231
218.2578203
169.7759104
209.2464519
206.1133518
215.6857319
212.1691778
171.8899688
427.6499209
274.2872747
279.9121622
198.2803875
200.9401053
260.6620006
136.6464157
162.702969
160.8977868
166.398468
164.4869174
137.9489038
699.1999971
531.7187138
536.5374981
523.7474171
528.0946598
695.9738453
344.9598488
419.4770423
415.7846989
247.8272695
252.1256638
386.4298455
161.6878733
197.6617283
194.9549885
203.2884872
200.4000241
163.6079814
154.4886804
187.5408203
185.224106
192.3922878
189.9304815
156.213064
354.5986307
240.2778214
243.925821
539.6810435
535.7607432
423.76284
700.9553259
704.8232775
1002.128398
502.8037642
680.5976502
666.136984
445.1909297
438.9734004
360.3898579
717.6742794
550.8275659
561.947712
539.931177
546.1404409
716.2838545
993.6759198
692.6384888
696.5256243
684.7033111
688.5476162
990.7819524
404.4118016
514.0647785
510.0207736
714.1673755
709.239464
529.8201408
628.8907988
881.1909439
800.4778887
596.9314709
484.045147
348.7599537
425.3170884
600.9602951
517.2087709
756.8102757
641.6964427
610.0475669
620.6038899
906.4752291
341.9153894
446.124724
435.1837333
466.0312431
456.16599
348.6454229
315.8095255
396.5417839
381.2115371
424.0887238
411.1551774
322.252918
876.0808156
576.6209765
596.5969493
411.6382122
543.0772998
518.4498575
593.9542055
571.9360571
423.5666645
372.6442877
484.1475195
474.4309131
504.3558078
491.8100628
380.7295214
437.9498171
448.6705257
607.5716516
290.2308683
345.0474234
334.3542879
367.5939209
355.5241998
295.7059556
549.4966328
730.6258777
710.5183561
877.880187
804.4203319
572.5495648
515.4840553
677.787199
675.4727861
688.1055766
686.81655
521.2251134
652.0776309
944.3312926
942.6219037
948.4314018
945.8756481
655.4052448
633.3254689
934.866594
918.6438357
941.4572595
939.5016681
640.3114483
467.6105587
632.1444828
628.3252571
639.6402164
635.8088683
471.782931
448.9269531
614.8581252
607.1731589
624.3618946
620.1239239
454.170244
499.8551883
662.6068375
658.901056
670.3516314
666.8211306
503.9515809
484.1016889
647.4422753
643.546204
655.1372548
651.3677089
488.1369244
665.0767267
951.4040018
949.9602703
955.2168842
953.4443422
668.2906412
435.8735685
548.7009042
544.9846111
642.5129782
611.9908336
471.4547334
915.7148811
628.0280103
650.1645522
575.7715894
599.2433504
837.2939137
374.7234421
462.9775061
453.0106265
505.8785199
501.6659035
393.5662665
985.7803361
676.486077
680.6830217
663.476967
671.1739822
983.2494095
545.4050731
724.0707624
718.4393871
778.5492334
752.4738179
574.8454848
179.3243769
181.5177675
230.6739252
126.9286841
149.3154672
147.8041305
152.4780777
150.8732056
128.1106794
122.0008514
143.3500932
141.8717738
146.3256732
144.8221701
123.227829
221.0326519
175.0901904
177.1844644
131.6421647
155.7672037
154.1091684
159.1675705
157.4434776
132.8539445
249.0622596
193.3138441
195.8154524
384.7439678
381.1693397
314.1212318
654.2128716
483.745516
488.3637702
470.7452465
478.1363549
646.8998689
584.8237405
450.0902307
461.0116062
432.6950128
440.3589126
561.6315069
298.7748428
357.3630142
352.9159118
260.9855163
297.7296831
282.9160137
323.5452217
310.690771
268.5046496
550.3849307
408.1487255
422.6035333
670.2754022
500.4092968
504.2901831
492.5334751
496.5204339
666.8180159
322.2872842
391.6248202
388.2321241
412.3277555
408.7557507
336.204825
684.1498839
515.8616513
519.9554646
508.1143067
512.0400467
680.6354307
515.5693634
407.5524613
410.9854814
400.5748247
403.9925501
511.536152
278.8412607
330.7633016
327.8738717
349.0877835
345.7552057
290.6146072
532.8450874
422.3982762
426.6768633
414.7100091
418.2136451
526.9109324
31.90324358
31.9043106
31.96792454
31.90594271
31.90888913
31.96879815
31.91123807
31.91537222
31.97154479
31.92098679
31.92818563
31.97572665
31.93697908
31.94710217
31.98192328
31.95810601
31.96856613
31.98908616
31.97808524
31.9847227
31.99473984
31.77369193
31.77460797
31.8378139
31.77660176
31.77965352
31.84137979
31.78384092
31.77957345
31.86411731
31.83810626
31.84190712
31.8694159
31.8567664
31.86344515
31.8860876
31.88719042
31.8970962
31.91238511
31.92754713
31.93839431
31.94529699
31.96778715
31.9764209
31.9754921
31.64714778
31.64958481
31.71118499
31.65419535
31.66095769
31.71938994
31.66998071
31.67896668
31.75213627
31.73349539
31.74194651
31.7650471
31.77553183
31.79030352
31.80529267
31.84010197
31.86111893
31.86464584
31.92469692
31.94670807
31.9379909
32.00533307
32.02296949
32.00215775
31.52342421
31.52849411
31.58771601
31.53726055
31.55041428
31.60446122
31.56878152
31.59914787
31.65601377
31.65058809
31.66742392
31.682906
31.73197338
31.76093205
31.76150324
31.86102436
31.90115477
31.88071956
32.0340173
32.07937866
32.02891421
32.20550367
32.24831551
32.16498998
31.40439484
31.41380191
31.46969725
31.42925021
31.45222792
31.49947037
31.48632619
31.54706716
31.58213396
31.59490742
31.62465639
31.63163075
31.74663088
31.8013929
31.78306606
32.00801985
32.0935856
32.02688841
32.4056388
32.52056308
32.36974597
32.87871099
33.02546388
32.73610888
31.29038732
31.30631032
31.35867076
31.33181182
31.36929737
31.40856778
31.42400228
31.52530458
31.5374857
31.57527409
31.62643211
31.6218215
31.84638083
31.94632483
31.89830477
32.3630741
32.5546889
32.40510551
33.37600342
33.75466166
33.33877934
35.26702671
36.01020531
34.8039113
31.18191565
31.20654035
31.25478857
31.24508533
31.30127389
31.33320155
31.38036715
31.53639615
31.52555455
31.5965132
31.68092063
31.66291774
32.04753211
32.22171523
32.14257987
33.0152677
33.42208774
33.16726937
35.56156201
36.8861676
35.85012319
31.08047037
31.11660612
31.15952062
31.17015892
31.24697512
31.27213206
31.35511612
31.5767193
31.54444386
31.6563536
31.78108488
31.75373459
32.33171118
32.60050253
32.50270445
33.89180068
34.59766815
34.30134663
30.98718967
31.03626508
31.0735902
31.10587929
31.20425057
31.22363605
31.3445995
31.63680557
31.59071338
31.74530648
31.91293915
31.87845395
32.64794029
33.00573209
32.90679352
34.72351458
35.66020023
35.42195362
30.90238059
30.96501294
30.99658042
31.05092164
31.170997
31.18551779
31.34461666
31.70414131
31.65237743
31.84349001
32.04998969
32.01519694
32.94031597
33.36717816
33.28114141
35.37216203
36.44138287
36.26657033
30.82586335
30.90160094
30.927614
31.00352247
31.14508706
31.15555002
31.35075018
31.77182559
31.71874735
31.94233726
32.18223897
32.14722909
33.19670226
33.67521417
33.59836845
35.88280235
37.04430602
36.89973178
30.86473106
31.13127209
31.78272362
32.0355701
32.3019409
32.26754466
33.41473196
33.93499377
33.86909013
36.3166831
37.56851575
37.43276977
62.8432006
58.79314368
53.92513091
48.26804753
51.69588886
67.15036885
59.69127741
60.09402291
57.0658807
57.59287188
64.49563977
72.62154736
63.25917257
63.82924665
60.48866118
60.90624635
68.90582645
80.76408776
68.72103673
69.5730988
64.42152883
65.0678927
75.48010304
334.7212536
284.9028358
287.262611
70.37498578
71.28208758
84.41934879
498.0891021
397.6625851
402.9757482
338.7062009
342.0461785
414.775056
209.6648926
167.3070821
169.1654702
156.059215
158.1210501
196.6621039
313.7059053
310.8693555
263.5028616
269.8900998
319.3383768
316.5154771
401.988971
332.0945322
335.388091
289.6065407
292.1309895
344.5682324
408.2174121
413.1225012
526.1939624
113.7196243
62.341756
55.82005139
56.49613497
49.41322852
50.67364969
55.34281652
140.5714719
118.5168985
121.694631
89.26109453
95.63994523
105.5773046
188.7886836
151.789351
154.0565799
139.1615634
140.9094734
172.899369
164.5658452
135.9248458
137.5635881
124.3882883
126.8519368
151.656757
118.0694455
106.8278175
94.5109386
367.1733476
371.404579
451.6710494
423.7767999
336.4475845
353.4212166
199.2912874
220.7222392
247.3520626
285.5908839
278.835659
253.9786344
254.5578405
295.1550441
290.8851863
283.8508678
232.9572604
205.0802297
274.7592212
275.4696119
316.578165
298.9810538
275.3898757
274.4546479
436.6469324
359.5676128
363.6026441
311.0578937
314.4021347
374.7902679
361.6144717
305.1458989
308.0782446
31.78957898
31.81520587
31.81016959
31.82698332
31.82027298
31.79586104
31.87318119
31.84610139
31.85125005
31.82273474
31.84223741
31.83357925
31.86127072
31.85053562
31.83303063
31.89246341
31.87042607
31.87876046
31.87294852
31.88381784
31.87126584
31.90868033
31.894908
31.88626628
31.92134254
31.90668194
31.91733592
31.93431302
31.93369857
31.9196935
31.95928906
31.94607022
31.94809386
31.954973
31.947911
31.95836314
31.98724316
31.9798438
31.96950452
31.98713998
31.99572176
31.98197763
31.983111
31.70066181
31.72036513
31.71012016
31.7457097
31.73193619
31.71451836
31.77286318
31.75146879
31.76304684
31.76835817
31.7778152
31.76074702
31.81565829
31.79599538
31.78901606
31.81802616
31.80545527
31.82306692
31.86841835
31.86274609
31.83834312
31.91216226
31.88663412
31.89671689
31.88126765
31.88218324
31.90441346
31.98987318
31.96406786
31.93715913
32.01123127
31.98771705
32.02111432
31.95422394
31.9674872
31.98949549
32.10031768
32.05668924
32.03637219
32.07507343
32.11551167
32.01366591
32.03415679
31.64220838
31.65401535
31.63417444
31.70131095
31.67605388
31.66812795
31.69943521
31.68666932
31.70812342
31.7701363
31.76340792
31.73052181
31.8390635
31.79870593
31.81310768
31.78879864
31.79151958
31.8246304
31.97188646
31.93186592
31.88349027
32.03742371
31.98306543
32.03463345
31.91582555
31.94358852
31.98857609
32.24157548
32.15265378
32.09314106
32.25353726
32.20506849
32.32074689
32.06336164
32.12768369
32.17810825
32.52079984
32.36627441
32.32603395
32.41916514
32.55699678
32.19540375
32.27004806
31.6199058
31.61969695
31.58570663
31.70749344
31.66108393
31.66571025
31.66147096
31.6595398
31.70010141
31.85744748
31.82518994
31.76209464
31.98157813
31.89776481
31.94204203
31.83410488
31.86340802
31.93197755
32.28141536
32.18173974
32.07655275
32.4286931
32.29822043
32.4284937
32.10319513
32.18873226
32.2931313
32.98785795
32.73680615
32.57258843
33.04427847
32.88745962
33.2453895
32.45504301
32.65895053
32.80767479
33.99792845
33.42998848
33.29580829
33.62166948
34.18274157
32.8348764
33.09721255
31.6474645
31.63561042
31.57680073
31.78934531
31.70611
31.72778368
31.6750912
31.68851655
31.76137727
32.06766544
32.00399197
31.88765932
32.30382805
32.1407338
32.22630737
31.99761584
32.06285555
32.20124214
32.93525032
32.73285639
32.49767609
33.35831628
33.01635443
33.28553455
32.58706929
32.78165271
33.05125751
34.98853931
34.31633591
33.78577374
35.64097581
34.90074461
35.98780244
33.62878213
34.25336123
34.8514771
40.55572786
37.79041276
36.84906432
38.97095818
43.58857597
35.22791114
36.53149709
31.72578962
31.70259386
31.60854621
31.95089433
31.815633
31.85070792
31.75345788
31.78229471
31.90307578
32.40071839
32.31076544
32.11350674
32.84955149
32.55104642
32.67060875
32.32683794
32.43263423
32.6928066
33.99273294
33.70377262
33.22420015
35.16686612
34.33153082
34.73017381
33.59997217
33.94510862
34.6264963
39.37788176
38.04350762
36.34556407
44.39092252
40.35013475
42.82871655
37.04519846
38.83951465
41.69121851
49.79231499
48.26644241
50.40767642
31.84450265
31.81208673
31.67629109
32.17251323
31.97558531
32.02093696
31.89153121
31.93140977
32.11237823
32.80737901
32.7043951
32.41140237
33.52702757
33.06792222
33.19986308
32.804832
32.93330724
33.35318777
35.16686402
34.88973275
34.11644662
37.38342933
35.93514339
36.29292608
35.14865874
35.55006139
36.86920573
31.98152799
31.94666162
31.76869675
32.41489137
32.15953902
32.20585863
32.06722268
32.11393436
32.35550594
33.19394155
33.10062207
32.72356609
34.15298179
33.56699915
33.68155432
33.32505312
33.44900339
34.0074139
36.08171502
35.87795982
34.90186537
38.96242891
37.18053411
37.42647143
36.61732371
36.91479546
38.63795925
32.11711576
32.08235703
31.86683806
32.64147817
32.33772006
32.38209212
32.25036414
32.29557818
32.58848183
33.52720882
33.44635506
33.00556921
34.65827351
33.98656486
34.08253499
33.78774199
33.89135846
34.54457014
36.75753598
36.60118369
35.50715291
39.99859076
38.04362752
38.22926744
37.64662341
37.85495527
39.7779523
106.8914362
94.66016409
95.47809479
93.16391646
93.90820868
105.7939715
32.24298371
32.20864911
31.96132169
32.84150795
32.49903374
32.54109876
32.42094419
32.46484666
32.79891432
33.80947731
33.73790953
33.2487277
35.06838961
34.33325324
34.41686281
34.16770185
34.25779507
34.97765264
37.31236003
37.17416494
35.99115319
40.83773199
38.7291516
38.89800787
38.39824691
38.57131042
40.64688024
123.1029467
108.1119597
108.9848449
106.4566242
107.3041863
122.0415528
32.57384992
32.61376986
32.98056588
34.48812466
34.56534191
35.34120057
39.04726288
39.21774178
41.47845188
144.142068
124.2602523
125.6410763
121.8685911
123.0548792
142.5816046
118.9638418
104.838642
105.6681978
103.2305395
104.0597158
117.9969941
138.0519337
119.595609
120.7673407
117.4381838
118.5183841
136.6372687
72.64273121
65.29494142
70.18778374
55.11323019
58.44461823
65.3785287
51.21153132
54.27073578
50.88021669
48.81894779
50.12043244
46.89673057
60.9502619
55.27901803
52.28128326
57.37691566
65.03360019
58.89904081
59.30367774
66.61365631
54.69022115
54.37529749
50.45693513
65.03940082
58.05169131
58.4952731
62.23669742
62.73915918
71.76972385
52.09094549
56.56338085
56.23072581
57.27815396
56.91341631
52.34596484
51.14724008
55.29449175
54.98911332
55.91007112
55.59736041
51.38110774
69.54910117
61.32508457
61.77615282
111.1921687
98.02617961
98.9300533
96.29077478
97.16736742
110.1350791
67.17104348
67.95830206
79.71466465
54.44575374
59.95872624
59.45318056
61.04650016
60.48833455
54.79878965
53.15916699
58.07512842
57.66880787
58.96749227
58.5122769
53.46019184
76.49013405
65.73069765
66.44991131
127.6243383
111.5918929
112.5327918
109.8194391
110.721789
126.461229
280.5701318
282.7077017
331.386632
56.04333433
62.22502184
61.62114479
63.4752308
62.84191272
56.31935987
85.3921746
72.15287304
73.08988524
150.9887507
128.9620444
130.0746197
126.7350325
128.2003601
149.2635412
385.8582859
392.8390055
485.2631105
321.8086668
313.7927203
290.6185283
418.9825726
345.4077596
348.9678792
256.8067528
233.4957448
235.5252598
230.6859068
232.0099538
250.2604962
333.3860786
273.3455457
278.5726518
262.7429178
268.0991388
326.0190993
163.7211702
165.5069919
207.1125835
116.9299753
137.5604408
136.1254358
140.4284893
138.9825608
118.1974285
112.8936322
131.6903635
129.9510367
134.707244
133.2546786
113.5497456
198.6923067
159.9768102
161.8776527
412.3734867
336.9104225
340.4859775
331.1412826
334.014112
408.4614861
485.9944233
380.297397
383.6335949
373.6778415
376.9834679
482.3587503
261.5108561
308.017242
305.0962081
354.1821835
290.4336571
293.88322
282.9153132
287.028378
349.9437056
398.0482552
325.5093637
328.4874025
319.8873209
322.7613051
394.5661997
115.1624336
101.5765953
102.4353476
99.81820518
100.7397253
114.1902462
325.0127533
322.1615799
272.0439482
500.5243134
393.7273868
397.1145522
386.9828034
390.3358096
496.8555114
325.2298512
328.66301
397.3441526
347.8835894
294.5647907
297.2099213
132.5786126
115.3860247
116.423317
113.4426144
114.4206449
131.2995305
292.10952
334.3451049
328.5288996
131.3891238
54.17108169
55.06548031
61.39373152
57.25473649
51.97407598
53.16056232
110.7960826
114.9890371
135.5125182
91.25639116
99.13505829
95.48637619
105.0196585
102.106228
93.30797543
91.48387742
86.32811162
82.3593883
113.6815
100.9154125
106.0907542
147.0276724
149.5409954
186.1107456
108.4596857
125.0333951
123.5739803
128.2438317
126.565505
109.3579381
105.3524316
119.9876144
118.8585688
122.3058683
121.0763651
106.0238823
176.3833285
142.7419936
144.8710899
132.6362029
134.3478049
162.1324264
102.468781
115.5298427
114.1855381
117.8153818
116.6423437
103.1709966
98.44153055
109.4936257
107.2838299
112.87022
111.1808787
99.55394079
154.5445115
128.9367746
130.913091
79.71865511
89.04607129
83.14607944
78.81097706
84.09292219
142.4792404
124.355316
137.4200696
95.70608805
104.5444888
122.3728966
87.17945222
95.32062325
86.24383889
457.2237634
375.4765118
380.808812
279.7437882
241.8772786
244.6892676
237.3531788
239.7121539
274.47746
303.2562371
254.0009663
258.3097037
247.2916145
250.707167
296.9869123
291.3726994
316.3553847
390.8252157
268.9798103
251.6257559
231.559038
278.7891324
244.024408
266.4463988
439.0275463
350.9730985
354.9836423
343.5017186
348.3616853
429.7515559
302.0592655
298.8023472
256.0280514
470.6993792
366.945761
370.3586655
359.2971667
363.3069257
465.5474612
369.6640039
302.6439424
305.5851418
296.8021751
299.7439248