/*--------------------------------*- C++ -*----------------------------------*\
| =========                 |                                                 |
| \\      /  F ield         | OpenFOAM: The Open Source CFD Toolbox           |
|  \\    /   O peration     | Version:  v2012                                 |
|   \\  /    A nd           | Website:  www.openfoam.com                      |
|    \\/     M anipulation  |                                                 |
\*---------------------------------------------------------------------------*/
FoamFile
{
    version     2.0;
    format      ascii;
    class       volScalarField;
    location    "2.81";
    object      p;
}
// * * * * * * * * * * * * * * * * * * * * * * * * * * * * * * * * * * * * * //

dimensions      [0 2 -2 0 0 0 0];


internalField   nonuniform List<scalar> 
3019
(
939.1815207
937.4484924
933.4283424
925.5593243
914.9579052
893.0237711
858.2737772
804.3391726
725.4764394
615.290941
470.4202047
293.3564957
940.2677242
939.0051314
935.9162675
929.7258477
919.0531358
900.0383287
868.831966
824.7583102
752.9051879
649.242953
507.9758088
328.7257847
942.8577735
942.6247626
941.7060288
939.1923189
931.0871719
918.6859365
896.1146401
857.1462062
795.0866063
698.258672
554.2935056
360.1874674
946.1315744
947.3562189
949.5353014
951.9210852
949.114788
946.0451923
937.0678992
910.5119611
867.2601675
785.3831659
645.0107994
428.0808154
948.5491086
951.4446819
957.2568501
965.3537831
969.4146554
978.4984629
987.0543006
982.0642454
967.6132454
918.807196
803.9703362
566.5305565
948.4586852
953.0268065
962.4808313
976.9390391
987.6333993
1010.932738
1039.782749
1061.451965
1089.727919
1103.682799
1067.473396
857.8001959
944.2679714
950.3134954
962.8541552
982.7793246
1001.721735
1037.256024
1085.831683
1134.818905
1209.554018
1307.121529
1442.333819
1536.042643
934.5994928
941.7080334
956.4330637
980.1968721
1006.113412
1050.977274
1113.724503
1185.433594
1295.644401
1459.165645
1749.643139
2348.88544
918.4090575
926.0260783
941.7656433
967.2841742
998.3887099
1047.702485
1116.820473
1201.104033
1324.165895
1495.574614
1756.528594
2103.254676
895.1413717
902.6601363
918.1334366
943.1371686
977.0531983
1025.642
1093.125754
1177.357676
1290.991221
1436.801008
1619.906965
1799.436493
864.8006983
871.6631528
885.6814561
908.0358748
942.562798
985.9963417
1045.419049
1121.834322
1216.710538
1329.951665
1459.392379
1582.210427
827.9039553
833.6566205
845.3697796
863.0452139
897.2258375
931.7350683
978.5965474
1042.411782
1114.959219
1197.517639
1290.546543
1402.473774
2152.826881
1830.878316
1606.070038
1425.568932
2293.208905
1658.268697
1810.890128
2059.132281
1500.053155
1593.653813
1780.856971
1711.000875
1750.226523
1865.33767
1334.206376
1410.899916
1569.814575
1514.396681
1557.829493
1631.243685
1387.623042
1318.947665
1384.659511
1471.13307
2689.583291
2261.173584
3118.604154
2770.755396
1881.260861
1999.087671
1933.767246
2004.96128
1885.252015
2220.186669
2024.63659
1642.907628
1734.92472
1683.33141
1743.529925
1644.791675
1876.918007
1751.898539
1476.960079
1553.349686
1492.432668
1557.295766
1481.838211
1638.622947
1561.550929
1378.472705
1305.221156
1384.39581
1475.878788
1390.646953
1776.926906
2100.332718
2225.324182
2341.329187
2712.938161
2965.844972
1971.937347
2019.334715
2217.34462
2256.789143
2644.21715
2302.00895
2406.228388
3994.66093
3614.669055
2133.154718
3055.685615
1425.53554
1391.876639
1354.538368
2771.866655
2445.730029
2472.020553
2451.138951
2788.917674
2228.817914
2414.772109
2411.434969
3081.679011
3540.432741
3846.187352
2854.33598
3447.790529
3015.131163
3502.167227
2851.019963
1947.294029
2022.700576
1938.940989
2120.30605
2106.391351
2213.282397
2029.207336
2094.816975
2093.056568
1693.998817
1686.958323
1818.77499
1809.684398
1523.069943
1517.770732
1599.360754
1594.291194
1341.377809
1435.324037
1430.205734
2797.996994
3917.663559
1591.307822
1567.293367
1535.662009
1612.131524
1578.175458
1596.684482
1438.687428
1403.785181
1430.903222
1679.486714
1660.729067
1623.913086
1652.975388
1669.230716
1662.001492
1513.668105
1483.041593
1450.03274
1525.282733
1493.797886
1518.919875
1543.942631
1559.295085
1569.177932
1496.155563
1518.09162
1498.71588
1621.516966
1628.528197
1647.080263
1572.09182
1582.850308
1574.745801
1457.526092
1467.217684
1490.723058
1428.33702
1407.889619
2322.650749
2296.55079
3988.613392
3920.961545
2611.606289
2565.478671
2572.546657
2584.075627
2466.852329
2774.389327
2627.742061
2620.232949
2299.919898
2314.852885
2245.880566
2432.114306
2341.183948
2326.988563
3083.881788
3004.731703
2831.996799
3197.592371
3098.821656
1984.641763
1982.269752
1960.132767
2018.05671
1991.022533
1995.177066
1927.818595
1908.136196
1954.140488
1934.212159
2146.311194
2157.254409
2114.793295
2226.336391
2173.100135
2160.631709
2057.935533
2057.313789
2027.216168
2102.111809
2068.065587
2069.080773
1722.59516
1702.631141
1753.353675
1728.5635
1671.131153
1655.942725
1695.192962
1676.037061
1863.9651
1835.248166
1900.703662
1873.530834
1787.596899
1760.933442
1825.699475
1797.230374
1534.717473
1554.03599
1539.024072
1560.029257
1537.678416
1572.674404
1565.79714
1532.760334
1503.177854
1520.221508
1529.364591
1608.424259
1622.530143
1615.483825
1625.931958
1611.330365
1649.936834
1631.260513
1584.333049
1574.761777
1603.58601
1588.354176
1579.410091
1587.076057
1602.576359
1446.338357
1460.755944
1451.600591
1413.91615
1434.864751
1443.069659
1798.97639
1773.460233
1728.468732
1836.650199
1788.997253
1815.696143
1714.174855
1673.595028
1692.570265
1721.572291
1727.480261
1751.269918
1759.117355
1785.009203
1775.735831
2372.025437
2711.651058
2787.36114
2484.815712
2489.34771
2496.379996
2458.452308
2245.017271
2257.407199
2237.425237
2422.852863
2390.078243
2381.89644
3253.945872
3069.773479
3172.811436
3394.590563
3412.62825
3556.996745
2852.60891
2920.48698
2924.995683
1968.731878
1966.141326
1965.689686
2020.855103
2012.430495
2014.681173
1927.372831
1922.472795
1961.675726
1954.338681
2120.358772
2123.224594
2109.978247
2218.748674
2200.413023
2195.904937
2036.172867
2036.941979
2028.650169
2098.006446
2087.819568
2086.411362
1700.575691
1720.761532
1713.960343
1668.413657
1674.682985
1693.628895
1831.209787
1858.969594
1843.892729
1852.640409
1842.510454
1916.468607
1907.095771
1771.249507
1832.479588
1822.543455
1784.689889
1794.222564
1821.930121
1563.138921
1557.907135
1553.630124
1502.01032
1498.011214
1491.795999
1510.644944
1504.87306
1509.833593
1392.802698
1385.715579
1475.035366
1471.916285
1464.865278
1485.850821
1479.222911
1483.548147
1406.095238
1401.678441
1420.537101
1403.486192
1411.407677
2345.97748
2267.352774
4414.325457
4338.23427
3875.718154
3738.142181
4202.086578
4022.552411
4162.754843
2660.574221
2523.365697
2306.122572
2279.77707
2267.157737
2353.331702
2360.377204
2332.859739
3195.530312
3296.180424
3296.567341
3599.801781
3468.60563
3006.269309
3000.946531
3094.848129
1984.348962
1976.315881
1976.718064
2005.427539
2003.317319
1993.844148
1936.793797
1931.974046
1947.476617
1941.873216
2150.519144
2136.672275
2133.568532
2177.527661
2182.421078
2165.628233
2057.569321
2046.755277
2046.02449
2078.40801
2078.250322
2068.224972
1716.49953
1718.598967
1723.763362
1704.630783
1712.250874
1709.836478
1744.172883
1743.16815
1754.133596
1728.261586
1734.129111
1735.52852
1666.402938
1668.817632
1672.708897
1659.206666
1664.397257
1661.398951
1688.075907
1688.681682
1696.411646
1676.731932
1681.95787
1681.641154
1873.205225
1862.956201
1854.429458
1858.974101
1868.813973
1839.154786
1849.04386
1844.84066
1895.001151
1883.520688
1793.462624
1784.596194
1778.18724
1781.31159
1790.552971
1762.053756
1765.513532
1767.972775
1816.190426
1819.610883
1829.349074
1800.368494
1809.96368
1806.713395
1812.830778
1803.20865
1540.573029
1536.729475
1530.942864
1548.591704
1542.787875
1547.362019
1551.684067
1543.721862
1570.82311
1568.709187
1529.330088
1519.681335
1514.169117
1514.12603
1512.851943
1525.324759
1520.345745
1525.445618
1613.264744
1618.092599
1629.154791
1615.228203
1643.58964
1646.125487
1652.919972
1634.148763
1639.90545
1637.410412
1580.568673
1577.340987
1597.10399
1592.437371
1450.506692
1448.042175
1443.447558
1458.6157
1453.075649
1455.298445
1438.414514
1431.692975
1426.592977
1439.329679
1435.569013
1440.70884
846.8207598
800.8846869
774.2462472
781.5461826
711.1465917
679.1700973
682.3077302
579.6649769
547.1737494
538.9045193
401.1466474
375.9585587
349.4377584
895.358654
861.4995904
813.5157774
846.4670454
785.9082709
726.559581
759.5835621
658.8506381
595.2396281
617.1142875
465.600349
413.2882961
406.3317453
962.8645813
948.2384103
880.8901577
939.956757
900.2910504
810.5467589
880.727477
795.5455969
686.7444803
756.0065259
593.1967037
489.9530646
522.1233526
1041.585426
1055.488019
973.7504698
1057.992227
1058.026311
935.5736418
1053.325339
1014.666683
841.5573947
989.6670811
844.758612
640.9436583
762.2900825
1118.003225
1164.467234
1083.51107
1181.289292
1237.101026
1101.821926
1257.84535
1323.534445
1085.270111
1343.35488
1351.564406
940.5832825
1306.205117
1175.804671
1250.055272
1189.269101
1279.060129
1385.89946
1279.674181
1430.871124
1613.077134
1405.403232
1698.045051
2178.795153
1536.310972
1857.420704
1891.128796
1347.758475
1200.261989
1287.618046
1264.587464
1321.778001
1446.189652
1410.595459
1497.370442
1693.573461
1656.941305
1778.075945
1891.666099
1861.365994
2372.219402
2514.73168
2495.418385
1186.439366
1271.281759
1289.936462
1303.443405
1414.611187
1446.321658
1457.345058
1604.090613
1680.774218
1728.136803
1800.378799
1839.810963
2056.482387
2088.687586
2142.51887
1138.283343
1211.423625
1259.960467
1238.305492
1327.130776
1396.779646
1359.549857
1464.00494
1571.408311
1580.420142
1623.407116
1668.167381
1769.066523
1781.408075
1828.672015
1063.998292
1121.607882
1191.332193
1142.315107
1208.848125
1299.863529
1232.49778
1307.789231
1426.237232
1418.332493
1448.723033
1491.967572
1559.107102
1571.012809
1605.064465
1095.852069
1175.953805
1266.199872
1245.45808
1263.20564
1315.751398
1378.792856
1394.688268
1429.822911
2201.564517
2264.942927
2204.060389
1844.862845
1895.326442
1863.793486
1616.87039
1653.559934
1630.855854
1441.2182
1474.522219
1448.18312
2912.435187
2125.804579
1979.267454
1243.900134
1836.130194
1713.019788
1757.297037
1694.713574
1907.940324
1816.730475
1741.712329
1917.086534
1845.139162
1943.219713
1535.344145
1579.113658
1540.402022
1669.237602
1617.802521
1549.909677
1714.661021
1643.152014
1695.945653
1721.276073
1765.977455
1739.589355
1766.088676
1759.026835
1743.692665
1855.161595
1839.069835
1849.039501
1361.059321
1405.253539
1376.691014
1478.732478
1437.079071
1370.935861
1526.008218
1460.445734
1501.129657
1527.931469
1560.036483
1536.563272
1571.55038
1560.663904
1550.844054
1625.298401
1613.790215
1619.712806
1346.825589
1274.520057
1313.895222
1344.934666
1382.680166
1354.341719
1402.787076
1387.029612
1368.708085
1456.723596
1445.197868
1453.331134
2611.414992
2621.411889
2759.351341
2247.973042
2317.605682
2306.40416
3142.115295
3318.552347
3297.380225
2821.301809
2924.802904
2854.634993
1928.591115
1903.191303
1852.879147
1978.344494
1920.687842
1944.898763
1898.056095
1913.29294
1954.728282
1986.437962
1989.072847
2016.344565
1901.771715
1922.798208
1907.877643
2183.37937
2174.204332
2228.133087
2025.813581
2056.475647
2045.754971
1654.722673
1648.969523
1637.019229
1728.789916
1714.359622
1720.205701
1656.600216
1666.420212
1706.994179
1736.412729
1738.581328
1746.335414
1647.349506
1653.135018
1650.271494
1852.809202
1868.15208
1894.136354
1754.214268
1762.316967
1759.306736
1493.553303
1479.072148
1468.076444
1541.112394
1531.291635
1539.489651
1470.434188
1485.393208
1517.355934
1553.002912
1557.284185
1561.273766
1486.913327
1493.167867
1487.823205
1633.123146
1635.617611
1641.526973
1565.223116
1569.244145
1565.843837
1362.140959
1331.782058
1377.535419
1382.588979
1389.633845
1469.836343
1474.513518
1480.812152
1396.532845
1400.687999
1395.803884
1872.168938
1892.163939
1785.54872
2214.578188
1987.034199
1942.809696
1950.069708
1995.031263
2239.987699
2455.834097
2500.531072
2367.146385
2904.692882
2620.468933
2532.683101
2682.908757
2636.455526
2952.228485
1995.550855
2039.922998
2012.745283
2090.069046
2069.187649
2001.13443
2182.980105
2096.948435
2117.788557
2398.757124
2326.096854
2217.41848
2489.426889
2368.601247
2454.523233
2254.86324
2330.935065
2396.194324
4024.965604
4212.571414
4162.08486
3692.478495
3824.307925
3726.979985
1775.143186
2457.028511
2532.718517
2553.99885
1889.154059
3654.601193
2834.704827
2680.801762
1410.759972
1399.08018
1408.74651
1379.769469
1389.290715
1401.233589
1364.317405
1376.988178
1367.348214
2466.912725
2579.590708
2538.318669
2790.778357
2732.276913
2729.311442
2356.291086
2343.698517
2433.459827
3221.222544
3288.749437
3127.259993
3788.843043
3480.372286
3307.39433
3511.58174
3531.564833
3840.316696
2925.266311
2918.872358
2852.651005
3382.383125
3303.796412
3356.989003
2937.589812
3031.137438
3133.698824
1957.116732
1980.369776
1968.848116
1916.018736
1929.635246
1950.382865
2115.347544
2158.483195
2150.300763
2068.409302
2067.357311
2102.540644
1696.097821
1702.831617
1700.246721
1680.921602
1682.951894
1689.459846
1822.755543
1831.553919
1826.829509
1801.663539
1805.189846
1813.976331
1527.070739
1532.643394
1528.452429
1512.710462
1516.62499
1521.630548
1602.446878
1607.375876
1604.739897
1589.261272
1592.134029
1597.370937
1351.45317
1439.524945
1444.481906
1440.549044
1425.065351
1430.161609
1434.802344
3182.094405
3453.533168
1581.152243
1570.751028
1576.313374
1556.616656
1563.787556
1574.310413
1543.298099
1553.458019
1546.077592
1600.592443
1607.347335
1618.863736
1585.068641
1596.064502
1589.265234
1608.50291
1602.534456
1591.640064
1427.186954
1436.176883
1447.6554
1412.971284
1424.59729
1415.542179
1447.51431
1433.662848
1422.214101
1673.894985
1661.244012
1666.869238
1648.193818
1654.915127
1667.53449
1630.61916
1642.613007
1635.915663
1658.57842
1655.851757
1650.147217
1667.041283
1661.446724
1663.950797
1656.469922
1658.862438
1664.650275
1500.311084
1489.739412
1498.491293
1472.185571
1480.905249
1491.638219
1458.972325
1470.039501
1461.18494
1514.897904
1523.050818
1533.191908
1502.279273
1512.755801
1504.409368
1534.559098
1521.217296
1510.849167
1548.61391
1553.110235
1548.579285
1565.241404
1561.697082
1566.304224
1493.610529
1499.381958
1504.459741
1623.84156
1629.72113
1626.947175
1634.799003
1632.274302
1626.227214
1644.293238
1638.306802
1640.965529
1575.278803
1572.420492
1568.759806
1580.489699
1576.326157
1578.872636
1570.233284
1573.416089
1577.758257
1461.440622
1467.934403
1463.669626
1401.394952
1404.236935
1413.067628
4147.97982
4207.161906
4025.903519
4357.464674
4421.337343
3832.114126
3943.837059
4052.930863
2579.731548
2536.624406
2529.313829
2542.687588
2541.328899
2584.106409
2463.565151
2501.249845
2503.750024
2721.538469
2730.08354
2785.341937
2629.853835
2678.458727
2673.438242
2672.629316
2677.340285
2626.44926
2290.003217
2286.577232
2311.308833
2242.517255
2263.529724
2266.982599
2399.51696
2395.453547
2428.26124
2337.412037
2365.29642
2369.338315
3063.764086
2989.028778
3000.995141
2946.29662
2968.696105
3036.470691
2843.367916
2904.653311
2885.179853
1974.108346
1975.291428
1983.577117
1962.749675
1967.46325
1966.592332
2009.017323
2010.786366
2019.578324
1992.614182
2001.746248
1999.983289
1921.461399
1926.907023
1932.595077
1915.033835
1921.156158
1914.966307
1947.652505
1951.404645
1957.918021
1938.37959
1944.578426
1940.839369
2142.353481
2140.245246
2154.760954
2113.200355
2126.430666
2128.238323
2207.765676
2204.776727
2223.156726
2170.33599
2187.083379
2189.992378
2046.813681
2047.274788
2057.800077
2028.261835
2037.362888
2036.751596
2090.227326
2089.558654
2100.841496
2068.447502
2078.917914
2079.006446
1892.368774
1899.397901
1908.048778
1878.753268
1889.167434
1883.138222
1533.82584
1538.272755
1543.668119
1507.986933
1511.747893
1507.778714
1612.028143
1609.922795
1605.5249
1620.437992
1614.646206
1615.231268
1610.309691
1612.590531
1618.163005
1582.285985
1587.055683
1584.257849
1591.513617
1589.560119
1584.879955
1600.312756
1594.73352
1596.555693
1445.952232
1449.738886
1455.360729
1419.462592
1425.256389
1419.718801
1790.627681
1774.708974
1782.395935
1758.179492
1766.369758
1781.823325
1736.256823
1751.153221
1743.133969
1820.628092
1829.350736
1845.368399
1797.512457
1813.376739
1804.710605
1832.432539
1822.88874
1806.709522
1700.316507
1707.606578
1721.729898
1680.514415
1693.85531
1686.767143
1706.107631
1700.414183
1686.945503
1723.593426
1730.962572
1728.373746
1734.858758
1733.173841
1725.766196
1748.864043
1740.969676
1743.007212
1767.193363
1764.974869
1756.765319
1782.2038
1773.520337
1776.051992
1768.02904
1770.650123
1779.130734
3198.659403
3247.669453
3314.828916
3106.23181
3177.649213
3130.684317
3265.088366
3223.339118
3142.304519
1707.478015
1705.229973
1698.442222
1718.778824
1711.992999
1714.198762
1707.510962
1709.61696
1716.509808
1670.544445
1676.645576
1674.167469
1680.544881
1678.792774
1672.780298
1691.69964
1685.112979
1686.886956
1840.494071
1836.048115
1827.030911
1853.96965
1845.035806
1849.757064
1835.878438
1840.295596
1849.019
1787.750091
1796.450404
1792.604615
1803.435536
1800.015435
1791.079875
1818.006842
1808.999091
1812.673483
894.9616899
880.0631755
877.6614915
861.205522
837.1480067
833.9636437
807.9871471
772.5987245
768.4607508
730.0632095
679.548463
674.615937
620.4083314
552.263913
547.1963124
475.1278433
389.3358131
385.4854299
296.0568712
197.3508528
195.7787442
924.0752862
917.3182871
910.7435882
908.1288456
896.1708869
886.2896584
880.6294833
859.1325548
839.3358968
830.6074139
815.6725181
810.0147808
760.5437323
738.1146277
730.9543341
657.8849597
626.0307581
618.0692148
515.9959622
473.4710467
466.3811218
334.0037289
282.7212524
278.0711004
939.4645078
936.357554
925.9004045
931.4436058
924.5219413
909.0017531
915.0157481
903.6628278
868.6178164
868.6459069
856.7420059
844.3610804
810.3470163
790.8324805
774.7347782
716.2298082
685.3326442
667.1929455
572.1569599
527.556021
510.50549
372.9129842
315.4367613
305.0427943
959.4062424
960.8127394
948.0941302
961.9455377
962.1677494
942.4685633
961.3050005
965.4606873
917.4586055
926.7976163
920.0150146
902.2262144
889.7916284
875.2960681
851.1999064
814.0940518
786.6150629
756.6070253
677.1053022
630.2096222
598.4368033
454.0448262
383.6582253
361.5691031
979.2948157
986.592241
973.7001365
995.0893101
1004.194004
983.0085669
1013.460658
1035.69821
982.4699496
1001.626013
1002.28203
980.61496
997.0915277
991.6669728
959.4996583
960.1031594
942.8244026
898.0600848
858.4236052
815.3352055
758.7542156
619.8782477
528.5531048
481.3062498
996.707765
1009.638994
998.6262666
1025.280373
1043.6496
1024.780689
1064.618228
1103.777386
1053.202998
1081.013121
1091.113539
1069.20556
1120.980692
1130.423265
1095.037323
1154.390745
1159.272887
1101.852484
1153.099039
1136.253392
1040.144616
975.8502669
858.4027955
746.0834325
1006.562016
1024.318875
1018.231071
1046.042418
1071.797137
1059.62824
1102.519377
1154.49666
1118.293648
1150.260164
1169.565751
1152.03222
1235.56764
1261.079203
1231.104703
1353.479829
1391.544235
1337.152189
1538.030055
1600.359388
1480.120204
1005.22074
1026.100462
1026.843015
1051.653512
1081.999881
1079.453323
1118.617618
1175.408307
1162.523004
1192.880982
1218.439288
1209.850739
1308.535
1344.472127
1329.827012
1479.910169
1537.963862
1514.978915
990.7059257
1012.456965
1021.16858
1039.008419
1070.478554
1079.05638
1108.216418
1161.603968
1175.095242
1198.279091
1225.541394
1228.719838
1319.922353
1356.523869
1361.312525
1487.523
1539.827972
1550.647901
962.474358
983.01597
999.5964563
1007.843945
1037.206483
1056.422099
1072.000445
1116.323444
1152.84282
1166.197281
1191.30769
1203.278952
1275.707608
1307.203171
1324.024296
1413.325639
1452.760615
1479.362104
921.8944891
939.4245239
962.8514951
960.4675803
985.1499629
1013.278845
1014.055528
1046.352113
1100.788703
1103.88626
1124.803311
1143.916748
1193.393278
1218.231713
1243.241714
1298.814677
1327.639388
1361.158945
913.2394957
953.3969529
1025.985775
1019.642171
1035.539745
1059.556789
1086.459363
1104.454781
1134.681478
1161.391916
1181.414497
1219.724249
2431.455326
2326.509978
2208.180597
919.1678368
1048.275314
1842.006618
1818.35332
1789.00332
2012.784785
1978.586746
2018.880117
1618.135518
1603.768021
1579.773798
1760.508209
1732.743565
1751.742011
1433.754498
1420.221452
1397.290502
1556.277298
1533.194353
1546.531475
1562.330781
1558.590827
1554.266009
1373.991172
1350.216903
1363.818615
1390.501585
1385.397843
1378.896596
1466.27802
1460.845648
1465.230328
1896.960583
1887.134993
1871.154083
1992.58204
1972.927101
1980.11545
1890.315557
1897.96733
1892.55667
1869.32189
1874.432656
1882.514593
1482.747593
1477.699144
1472.403255
1549.251597
1544.939653
1548.838591
1372.626336
1366.224971
1371.867888
1313.366917
2141.393513
2079.136783
2046.632929
2124.617036
2143.819519
2248.781005
2781.767762
2708.244146
2652.277264
2833.390469
2866.340866
2991.574499
2041.178226
2035.905572
2013.495628
2209.60762
2175.00448
2181.239904
2299.990026
2287.657253
2247.031663
2594.637853
2537.631235
2577.518293
3222.423241
3094.0654
2956.666714
1420.620673
1415.426545
1420.111712
3632.252658
3541.416932
3461.542007
3683.793195
3714.431893
3864.198329
1950.505706
1958.876957
1953.739207
1931.561153
1935.197326
1942.681093
4055.87173
3891.675131
3767.879965
1588.421914
1583.500535
1586.236334
1602.561212
1597.902305
1593.767952
1436.328495
1431.729011
1426.551396
1509.239911
1504.417491
1508.51799
1524.200976
1519.727995
1514.863299
833.3327059
823.6824217
837.7751762
789.877916
807.4052453
817.8040402
792.3253285
799.1613271
780.7272461
760.5790795
748.3020768
769.8010715
697.8501056
723.8672092
736.7952839
705.4992073
713.7668268
686.8390061
651.3221372
637.5218304
668.5340882
566.3135358
602.8639426
616.6515831
583.4845761
592.1568322
555.0406453
496.0201952
483.7495641
525.8530488
390.9139657
437.9741496
449.5053427
422.6534044
429.4677289
382.0848296
296.4702292
289.2791475
340.4590666
235.2254185
240.7437037
228.3626243
231.5459406
885.7075935
870.5316357
881.3839285
843.7767944
858.0203433
874.4692366
829.7408096
843.1155229
827.7864843
829.1071987
808.9721478
827.4671179
763.8029072
787.8092956
808.9715246
751.7789621
768.7562323
744.0894623
729.8448171
706.1402293
736.5778745
634.5086806
672.1102949
696.3091657
632.620945
650.9722369
613.4043435
571.0817661
547.6061706
592.9615428
445.054442
498.1925024
520.5140246
463.205487
479.2565
427.7750347
343.2337244
328.0256638
388.1260489
264.9368459
276.6361081
247.3914865
255.3214071
959.353112
939.0299841
944.2336028
924.3128829
932.4998961
954.5726113
892.4238919
911.7944843
901.8546546
929.4730146
901.4022606
914.0368222
867.6959813
886.0705296
916.3782167
832.3636773
858.0581599
837.7914964
857.1762686
820.0755636
845.8412061
754.6818351
789.8614493
829.0051008
723.8105472
754.8944206
718.5540342
709.6128159
667.03013
713.91622
552.8639153
613.4554854
655.5487806
546.7357576
577.4715009
518.7725176
442.4186537
410.2827499
485.0519136
329.1302818
354.6647628
290.8574438
308.1353943
1046.992531
1024.629989
1021.5566
1027.476585
1026.614912
1051.676185
978.0674376
1002.353076
1000.406988
1059.62197
1025.473481
1027.613291
1014.612989
1021.316674
1060.169479
948.9427575
983.8707203
973.5824695
1045.095063
991.6298366
1004.815649
950.6010141
973.9186319
1032.387002
872.5873342
920.8224435
893.1079647
954.9929092
880.3535547
920.0405046
764.7261595
829.3259981
907.7358757
704.7506994
762.222766
697.5335728
657.4310286
586.292584
684.2257472
470.7572305
529.008541
385.7882116
423.8723367
1132.92661
1112.468088
1099.932253
1138.252568
1125.259172
1148.425145
1076.598833
1101.188034
1111.162063
1198.868093
1165.137445
1151.571302
1192.864332
1178.99865
1217.486675
1098.926443
1139.369138
1147.53907
1279.520496
1219.862404
1206.622731
1240.073947
1231.677866
1301.689874
1095.750799
1162.658427
1161.474954
1358.972344
1243.937281
1245.781954
1191.416735
1227.916211
1365.162531
999.4612545
1105.807527
1055.15618
1192.284782
1003.289439
1122.335024
819.1881729
1112.302392
602.2371107
696.2943328
1198.754776
1185.269364
1163.998904
1232.443171
1207.995393
1223.412245
1170.135726
1190.084989
1212.011983
1310.912016
1287.87345
1258.927432
1355.379701
1319.831229
1346.270988
1254.455291
1288.976455
1319.59028
1482.427495
1440.792681
1395.393529
1553.593651
1492.741176
1542.22227
1369.92891
1434.369122
1483.073402
1801.437556
1710.576671
1625.174136
1929.833157
1814.506097
1934.161673
1515.138657
1670.019974
1738.983244
1681.572051
1718.075853
1899.612628
1227.191182
1224.08979
1197.686267
1283.426604
1252.566775
1256.216738
1236.127354
1245.998956
1275.885973
1359.172378
1354.067007
1317.087077
1440.788271
1395.030871
1400.399963
1367.857798
1384.399148
1429.176725
1554.834289
1550.859179
1492.338152
1695.514881
1617.831056
1620.018411
1579.952746
1605.197201
1684.127081
1212.950378
1220.253942
1193.332336
1279.836128
1249.024354
1241.181416
1258.226885
1254.74881
1286.114894
1337.891287
1348.607311
1312.933488
1429.048707
1387.196463
1374.865328
1401.847773
1396.344805
1439.851186
1503.206409
1523.654145
1474.460614
1634.066843
1576.794774
1552.159013
1612.140814
1597.19258
1660.165632
1161.453642
1177.294039
1153.102591
1229.691639
1202.802893
1185.821891
1230.77185
1217.870132
1245.968103
1266.520474
1287.911801
1258.034006
1352.57205
1319.404231
1296.118024
1359.232173
1340.576025
1375.929624
1393.310114
1423.941303
1387.429477
1500.942513
1461.892666
1428.234074
1524.33019
1494.057392
1536.87555
1796.953833
1788.751414
1774.638635
1820.071145
1805.493914
1812.743237
1082.434035
1104.324998
1084.615385
1146.330523
1124.900317
1101.643077
1167.076613
1146.690365
1169.55073
1163.758071
1191.747553
1168.61197
1240.602673
1215.743068
1185.935399
1270.954433
1244.080869
1270.947028
1256.881471
1292.87237
1266.319969
1348.214097
1320.20654
1281.99073
1393.340049
1357.316897
1387.659569
1582.158851
1574.580274
1564.187601
1597.630364
1586.95018
1593.52586
1077.374921
1051.983158
1068.965109
1155.012163
1122.938626
1141.911818
1242.608731
1202.048435
1223.418564
1406.558613
1397.22216
1386.108438
1420.603795
1409.846422
1418.267924
1628.837339
1621.574547
1610.53016
1646.51038
1635.078071
1641.106561
1452.453449
1443.366761
1432.908725
1465.617881
1455.4075
1463.560479
2617.586675
2467.57988
2603.863503
2094.534537
2289.586102
2382.098293
2101.147639
2190.125132
2038.240234
1408.460376
1259.113313
1104.448928
1695.337254
1451.299786
1600.869147
1216.715866
1440.340268
1879.63135
1848.558997
1874.333156
1765.448345
1792.757092
1764.897725
1980.20588
1944.786734
1911.796594
1653.459481
1628.311128
1643.312449
1595.887646
1612.195184
1636.519551
1564.891838
1588.364634
1571.344195
1691.837382
1712.405819
1738.628455
1661.305716
1686.59004
1665.595049
1723.44576
1705.662393
1679.233847
1735.822797
1728.716811
1715.557706
1758.315155
1744.631518
1750.804458
1465.396001
1442.890408
1456.328238
1415.957696
1429.172007
1451.684541
1383.712273
1406.640918
1392.433953
1504.91851
1519.02686
1541.852592
1474.01683
1496.506843
1481.417824
1523.676236
1510.42463
1487.864886
1538.532995
1530.461295
1520.521175
1552.248175
1542.100417
1549.224673
1568.110335
1563.640356
1566.890151
1324.784059
1336.877107
1360.592504
1287.594661
1312.680676
1299.942199
1339.286477
1325.827906
1300.64265
1357.928374
1348.87075
1335.470071
1373.129209
1361.797146
1370.481978
1397.457163
1391.741845
1396.562334
1373.894812
1381.15297
1373.542165
1459.285133
1454.643403
1449.165455
2665.157475
2655.750652
2616.566948
2737.379047
2700.20427
2711.22049
2269.683308
2271.209391
2249.677045
2319.051594
2294.333151
2292.522516
1919.562658
1903.217346
1912.651402
1886.188873
1894.323122
1911.124693
1861.480823
1877.775339
1869.364932
1960.00878
1966.069541
1986.127142
1928.44845
1946.798137
1939.604997
1962.053174
1954.251382
1936.473886
1997.997327
1995.70809
1987.3973
2014.325953
2005.644917
2007.112488
1908.997049
1903.343616
1895.87436
1917.802136
1910.626773
1915.966311
1900.692908
1905.448687
1912.891296
2191.332545
2191.834354
2174.491129
2229.325028
2210.024015
2209.035153
2035.624007
2034.01123
2024.72235
2055.146629
2045.011154
2045.839698
1679.540665
1672.637439
1660.665455
1700.14003
1687.512041
1693.153363
1857.62981
1866.151418
1860.680082
1877.223725
1871.561313
1862.835666
1888.127276
1880.02642
1885.958579
1488.534865
1483.620127
1488.333498
1544.234968
1539.822721
1535.358503
1496.134984
1487.453716
1477.434916
1508.963863
1499.074322
1506.787202
1355.958171
1360.734795
1367.181708
1322.357716
2133.032822
2108.806159
2180.430872
2252.512751
2151.260498
2148.107667
2800.25908
2758.46656
2846.865751
2602.241421
2674.713218
2704.093101
2590.958396
2635.818731
2566.124405
2732.815708
2754.130552
2631.133009
2983.806277
2860.915237
2835.055289
2085.66083
2059.951677
2064.679386
2046.483765
2053.635791
2078.826949
2007.385305
2029.809192
2021.4601
2153.664722
2165.212839
2198.226136
2105.715405
2134.493324
2122.734947
2148.137617
2143.010804
2113.27065
2378.588988
2331.449921
2347.217721
2290.446471
2311.825046
2354.524629
2233.384006
2271.350926
2250.764296
2451.44845
2494.57668
2542.892096
2399.787561
2446.505679
2407.14837
2514.161813
2482.214767
2428.994627
1963.510587
2182.102274
2301.983012
2361.222802
2580.525979
3410.82968
3246.545429
3418.182752
2809.430101
3037.319314
3131.580042
2828.06594
2929.866111
2748.607738
1414.559429
1409.326762
1403.860491
2502.519359
2498.814025
2465.98385
2573.063547
2537.612227
2539.976159
2371.969945
2372.336558
2345.238274
2432.034838
2401.996211
2401.523171
3665.534901
3614.383531
3716.730472
3384.287672
3449.706906
3346.057767
3861.393276
3715.873578
3711.673501
1964.31979
1961.539883
1953.699842
1977.906276
1970.164716
1972.149181
1920.292467
1927.745214
1923.219689
1936.578556
1932.180337
1924.967714
1946.508504
1939.398467
1943.570247
2129.118203
2128.854538
2115.160432
2158.557325
2143.194684