/*--------------------------------*- C++ -*----------------------------------*\
| =========                 |                                                 |
| \\      /  F ield         | OpenFOAM: The Open Source CFD Toolbox           |
|  \\    /   O peration     | Version:  v2012                                 |
|   \\  /    A nd           | Website:  www.openfoam.com                      |
|    \\/     M anipulation  |                                                 |
\*---------------------------------------------------------------------------*/
FoamFile
{
    version     2.0;
    format      ascii;
    class       surfaceVectorField;
    location    "0.55";
    object      Uf;
}
// * * * * * * * * * * * * * * * * * * * * * * * * * * * * * * * * * * * * * //

dimensions      [0 1 -1 0 0 0 0];


internalField   nonuniform List<vector> 
6464
(
(99.99445931 0.8571466048 1.50709733e-22)
(100.0001069 0.4310879649 0)
(100.0019345 0.4260002694 5.759622607e-22)
(100.0138521 0.838085196 -1.189770619e-23)
(100.0032961 0.4111944493 1.091621952e-21)
(100.0043965 0.3881955786 -3.493472927e-22)
(100.0270982 0.7487028891 -6.798000519e-22)
(100.0051832 0.3591910836 -1.225186445e-21)
(100.0056162 0.3263567752 8.32497421e-23)
(100.0324434 0.6181548807 1.81993898e-21)
(100.0057416 0.2916654946 4.729966025e-22)
(100.0055993 0.2568857429 0)
(100.0312552 0.4797311353 0)
(100.0052798 0.2234633285 0)
(100.0049786 0.1922466125 7.551103437e-22)
(100.0262901 0.3558369471 1.568748772e-21)
(100.0050109 0.1641402385 -3.823762613e-21)
(100.0048187 0.1372767178 -1.425243095e-21)
(100.0216297 0.2500973121 3.09758168e-21)
(100.0041187 0.1141588554 3.097350534e-21)
(100.0030727 0.09480176397 -8.634884146e-22)
(100.0129112 0.171048523 -4.599520829e-23)
(100.0008894 0.08100852392 1.685827243e-21)
(100.0079668 0.07818847553 -7.491728342e-21)
(100.0455292 0.1917803555 3.948615236e-22)
(100.0164301 0.1733426164 -2.663308646e-21)
(100.0027417 0.08022685517 -1.545752615e-21)
(100.0055828 0.04524464093 -9.390465629e-22)
(100.0308088 0.117685661 1.489107896e-20)
(100.0046141 0.0212233937 -7.540852041e-21)
(100.0225694 0.06267230908 -1.58776008e-20)
(100.0200007 0.01973676046 1.342023131e-21)
(99.94852824 1.915934066 -2.402302229e-21)
(99.97975701 1.720488854 -2.729409147e-21)
(99.94650737 2.160393352 6.866744465e-22)
(99.97367347 1.95128538 -2.204434877e-21)
(100.0467873 1.920227484 1.66952086e-22)
(100.0521721 1.694680817 -1.779930703e-22)
(100.0652858 2.134594983 -1.284467514e-22)
(100.0691274 1.905910726 -8.299018538e-22)
(100.1272643 1.75423035 -2.76835128e-22)
(100.0999426 1.522496609 -2.334429358e-22)
(100.1550097 1.919341897 -7.867939891e-23)
(100.1400531 1.695070899 2.199036071e-21)
(100.1669139 1.472480888 2.43332571e-21)
(100.1203544 1.260392958 4.230854923e-21)
(100.1963297 1.589422993 4.228291285e-21)
(100.1689904 1.391041686 5.338399319e-22)
(100.1680286 1.155086057 -6.704257415e-21)
(100.1160139 0.978706625 -6.242483981e-21)
(100.192962 1.232356456 -2.260899254e-21)
(100.1628195 1.072661381 -2.217547835e-21)
(100.1445212 0.8640359843 -5.258891505e-21)
(100.0946456 0.7271026883 4.794269249e-22)
(100.1603238 0.9113407848 -1.402086124e-21)
(100.1357657 0.7937238394 5.705037377e-21)
(100.0870564 0.4943792855 -1.309992277e-20)
(100.1395596 0.6747914543 -1.309890493e-20)
(100.1946233 0.7268193061 1.324572205e-20)
(100.1196906 0.5596639149 -2.678023099e-20)
(100.1006862 0.461394629 1.145656655e-20)
(100.139282 0.490289644 -1.627595591e-20)
(100.0818163 0.3782051491 2.345035252e-20)
(100.0614704 0.3352847787 2.60463363e-20)
(100.0752498 0.22674301 2.215352495e-20)
(100.1714245 0.3563161808 -1.797262019e-22)
(100.1320187 0.4030359207 4.667093395e-20)
(100.077818 0.3185107114 2.521949702e-21)
(100.0537219 0.1318404525 -7.023320762e-22)
(100.1198538 0.2173156406 3.17723464e-20)
(100.0428906 0.06044051315 -7.399707867e-21)
(100.0898813 0.1158817776 -1.684378409e-20)
(100.0770108 0.03639817957 7.538449839e-21)
(99.86521504 3.55634397 2.06396348e-20)
(99.80555175 3.773493961 -2.115516193e-20)
(99.82843694 4.056891718 3.913611343e-21)
(99.89882399 3.816293984 7.184862804e-21)
(100.1931037 3.516070991 1.772007209e-20)
(100.1810487 3.785329433 7.169689158e-21)
(100.2569918 4.009874965 1.124105132e-20)
(100.2663633 3.719231648 7.202981746e-22)
(100.4319008 3.125752863 0)
(100.4693263 3.400317251 -7.438132519e-21)
(100.5638546 3.545056345 2.096761257e-20)
(100.5163426 3.25973648 -3.339447553e-21)
(100.5342046 2.555946159 2.948023522e-21)
(100.6003541 2.796879091 1.950243485e-21)
(100.6864239 2.875040007 1.953288477e-21)
(100.6108594 2.634029541 6.283937789e-21)
(100.5196878 1.956244955 -6.208618618e-21)
(100.5971035 2.153239657 -1.449215398e-20)
(100.6657179 2.189626266 -5.028041544e-21)
(100.5803875 1.997094418 5.547142559e-21)
(100.5116147 1.569784083 -1.73966572e-20)
(100.4404432 1.421444835 -1.171562401e-20)
(100.5615909 1.580706826 -1.173142301e-20)
(100.487745 1.440069993 6.240796294e-21)
(100.3429543 0.9419575658 -5.179492075e-20)
(100.459324 1.151300864 -2.713938849e-20)
(100.532336 1.134766035 -7.855822125e-20)
(100.3965593 0.9496086833 -3.71528033e-20)
(100.2486681 0.6316059955 -5.914105327e-20)
(100.3379297 0.7772069933 2.35322397e-20)
(100.3855773 0.7535714535 -2.807123151e-20)
(100.2837033 0.6314172912 -2.454652601e-20)
(100.2087444 0.343316154 9.909961259e-21)
(100.3593263 0.4689032933 -2.529603094e-20)
(100.3394643 0.5696392399 -1.475105352e-22)
(100.2533117 0.5175189468 -1.447778956e-20)
(100.1509565 0.1984657028 1.489086007e-20)
(100.2561216 0.2832777682 2.647038002e-20)
(100.1198011 0.09053513338 -1.893608675e-21)
(100.1917058 0.1500817971 -3.821308413e-21)
(100.1623928 0.04683048703 0)
(99.66828966 5.726731306 -1.144882678e-20)
(99.51665023 5.973894758 -5.660754424e-20)
(99.59164299 6.359982615 -7.442448756e-20)
(99.75671149 6.065574209 -2.130123423e-20)
(100.5316218 5.648274652 -5.997148491e-21)
(100.4792196 5.999935027 -1.347142986e-20)
(100.6605095 6.264118513 -1.347964986e-20)
(100.6931447 5.86988267 -2.21295634e-20)
(101.1154655 4.881692409 9.344846717e-21)
(101.1743984 5.242924538 3.785180791e-21)
(101.3652693 5.358568097 7.066131177e-21)
(101.2749386 4.980527681 1.870001693e-20)
(101.2961435 3.835803976 -1.516423187e-20)
(101.4149804 4.137697119 -7.252766364e-20)
(101.5605777 4.155336627 -2.961881999e-20)
(101.4175643 3.856673088 4.64291482e-21)
(101.2148717 2.839453033 4.491674753e-20)
(101.3421701 3.064124612 -2.675678221e-21)
(101.4397442 3.032225045 -4.655648039e-20)
(101.2984122 2.821716586 2.097488125e-19)
(101.1346585 2.173633282 0)
(101.0169681 2.010363631 4.681541885e-20)
(101.1978573 2.133682349 0)
(101.0721247 1.981207444 0)
(100.7603562 1.297682778 2.85593194e-20)
(100.9534491 1.520734336 1.846123694e-20)
(101.0231287 1.422990609 -1.624134508e-20)
(100.8180726 1.240489439 3.582152045e-20)
(100.5502881 0.8519444596 -3.265882615e-20)
(100.695575 1.003554844 -1.457973998e-20)
(100.7371118 0.9235161994 -1.472270212e-20)
(100.586973 0.8044015495 -7.136933607e-21)
(100.3947719 0.4064001402 -9.120415141e-21)
(100.5939367 0.507035692 -1.897975513e-20)
(100.6221786 0.6691293348 -2.515292381e-21)
(100.5114272 0.6426336786 5.436622729e-21)
(100.2860442 0.2323616281 7.615610155e-21)
(100.4201964 0.302057894 1.15709052e-20)
(100.2253378 0.1049951162 -1.92735865e-21)
(100.3118252 0.156916367 -3.402283684e-21)
(100.2614108 0.04840418326 -4.890727379e-22)
(99.24415927 8.612513554 -2.792568643e-20)
(98.90073056 8.919279895 -1.765626379e-19)
(99.06962407 9.52743477 5.327434511e-20)
(99.44869548 9.117202739 -1.343502329e-19)
(101.2241902 8.420133385 -4.349957488e-20)
(101.1014531 8.947755276 2.989574745e-20)
(101.4988139 9.273145337 2.054962563e-20)
(101.5668377 8.663583352 5.234917267e-20)
(102.3932744 6.895232102 -7.163638068e-20)
(102.5113533 7.403345981 -4.851678576e-21)
(102.8566917 7.435663514 2.767969708e-20)
(102.6737434 6.916183459 8.076392042e-20)
(102.5860187 5.06481205 -1.747088964e-19)
(102.8043817 5.443718624 3.685213851e-20)
(103.024027 5.346541216 -9.332451761e-20)
(102.7615679 4.98667844 -4.260476321e-20)
(102.2645499 3.539809301 -6.748220197e-21)
(102.4796975 3.789383958 -9.9734588e-21)
(102.5892628 3.673292033 -6.756638569e-21)
(102.3586496 3.445797594 8.425928543e-23)
(101.9885977 2.571422418 -1.44080501e-20)
(101.8166193 2.408846544 -3.723961383e-21)
(102.047343 2.466624275 1.089416056e-20)
(101.869068 2.325332652 2.200215158e-20)
(101.3158468 1.504053812 -9.192485516e-20)
(101.593079 1.718761672 -5.818736973e-20)
(101.6339392 1.533708227 -3.259517641e-20)
(101.3566069 1.379814053 -1.668498292e-20)
(100.9412118 0.9625106764 1.130656344e-20)
(101.1455887 1.099094566 3.411662725e-20)
(101.1587796 0.9649070147 -3.818987633e-21)
(100.9619841 0.8672816272 -3.73585273e-21)
(100.6068763 0.4035551781 1.96392634e-21)
(100.844988 0.4535176081 0)
(100.943492 0.6640126846 -8.765356152e-23)
(100.8223558 0.6761413876 -1.017365746e-20)
(100.4353172 0.22427217 4.359009677e-22)
(100.5892515 0.2630056458 1.963749284e-21)
(100.3387391 0.09930794037 -1.968256244e-21)
(100.429688 0.1307587096 -1.9703919e-21)
(100.3550756 0.03947164828 -1.976220201e-21)
(98.22533982 13.1113564 -7.892297078e-20)
(97.39798574 13.53739295 2.666274875e-20)
(97.77657667 14.74021905 -5.36679358e-20)
(98.72348425 14.03186541 -1.479120233e-19)
(102.8411093 12.39903022 6.873416756e-20)
(102.6385267 13.34662768 6.874467892e-20)
(103.5702563 13.67869962 6.870270195e-20)
(103.5828332 12.58596543 -9.702075911e-22)
(104.7985522 9.0692056 -9.347355755e-20)
(105.0965538 9.80526185 -3.543310954e-20)
(105.6863041 9.592143741 5.40932004e-20)
(105.2497155 8.884641209 -8.989257793e-20)
(104.6246945 6.044570318 2.428836557e-19)
(105.0246866 6.483042963 -5.7355044e-20)
(105.2627944 6.197833772 -1.522416912e-19)
(104.8168531 5.812185706 1.249322125e-19)
(103.7157742 3.91614854 2.637514945e-19)
(104.0522064 4.15598585 2.950205996e-19)
(104.1308664 3.928192348 3.531041569e-22)
(103.786134 3.719744266 5.128089239e-19)
(103.0435887 2.654857846 7.877325565e-21)
(102.7969353 2.516357643 -4.876767779e-23)
(103.0666368 2.483948367 -5.925766351e-20)
(102.8242056 2.36948799 -7.965707031e-21)
(101.9661645 1.502707084 2.66994689e-20)
(102.3186397 1.665238283 -2.248399536e-22)
(102.2982126 1.403846025 1.619676834e-20)
(101.9601717 1.311259136 1.206658131e-20)
(101.3782025 0.9259152503 -1.58514532e-20)
(101.6384339 1.022338294 -8.076272764e-21)
(101.5977124 0.8421138278 -8.077837428e-21)
(101.3615903 0.7889002828 1.228909412e-20)
(100.8140623 0.3185209377 0)
(101.0789659 0.3019418816 1.301172859e-21)
(101.2559197 0.5305725659 -1.085981659e-20)
(101.1445107 0.602731277 2.694207204e-20)
(100.5722831 0.1676337139 -4.95772369e-22)
(100.7315 0.1595232527 -1.539334764e-21)
(100.4370256 0.07087955405 -1.986735385e-21)
(100.5209163 0.06930313008 -2.247848308e-21)
(100.4219204 0.01948775862 2.544775781e-21)
(93.01976196 22.43936538 0)
(94.33515853 22.13674953 1.388928896e-19)
(93.4018863 24.17631256 0)
(95.0307681 23.47219628 2.247139609e-20)
(107.5347977 19.88125168 1.340271695e-20)
(107.6900717 18.21692655 -8.250639052e-21)
(109.2813957 17.82205243 3.772006174e-19)
(108.3530398 20.68987692 -5.546044869e-21)
(110.3160763 19.46101351 -5.44720052e-21)
(109.9400214 20.22060477 -5.464223595e-21)
(109.972064 11.66805238 -1.962969082e-19)
(109.1640849 10.74374156 2.833808982e-19)
(110.6197846 10.85049787 8.523499601e-19)
(109.6575849 10.12660897 -6.42659741e-19)
(107.4811547 6.247995776 -3.210661806e-19)
(108.1618671 6.646557053 -1.152484197e-19)
(108.2991417 6.078119507 -2.458411424e-19)
(107.5978267 5.791102675 -8.112213275e-20)
(105.4858354 3.686583919 -1.568673425e-19)
(105.9694449 3.864107421 -1.630636215e-19)
(105.947085 3.502617547 -1.549460017e-19)
(105.4766677 3.385894837 1.409517558e-19)
(104.1996135 2.288556101 -1.427842564e-19)
(103.8764151 2.212500797 -5.605300679e-22)
(104.1466951 2.059455266 -1.23646275e-19)
(103.839086 2.004575204 -2.128216716e-19)
(102.615657 1.232732063 4.245771835e-21)
(103.0335027 1.295225355 2.363247872e-21)
(102.9039137 0.9870938377 -2.441251316e-21)
(102.5353797 0.9889853007 -4.415092018e-21)
(101.8033023 0.7099016807 4.392599423e-21)
(102.1039163 0.7422140026 -1.922105464e-23)
(101.99316 0.5335086921 -7.16452183e-21)
(101.7303621 0.5407549394 8.883373003e-21)
(100.9784052 0.1483850465 -1.901065238e-22)
(101.2365528 0.0554520863 -2.843541686e-22)
(101.5195783 0.2647905937 8.235479209e-22)
(101.4290899 0.3664351631 6.505411503e-21)
(100.6686289 0.06097092405 -3.297773691e-21)
(100.8138438 -0.005845106418 -2.41917079e-22)
(100.4969 0.01865820985 2.465880297e-21)
(100.5607752 -0.0250520569 -2.197108493e-21)
(100.4395053 -0.01091756827 4.087436547e-22)
(123.9119108 23.4589617 1.499157101e-18)
(122.1240212 22.37533989 7.814695797e-19)
(124.6083036 21.53717763 1.929520935e-18)
(122.8603754 20.86024194 1.858753134e-18)
(117.2049547 10.071027 4.77306905e-20)
(115.5824584 9.588181386 2.308018382e-20)
(117.1719951 8.524797143 -5.543298188e-19)
(115.650889 8.401558861 -3.160605748e-19)
(110.7507219 4.87733389 0)
(111.7100322 5.004836698 4.728388665e-19)
(111.4901013 4.228182431 -8.701374959e-20)
(110.6065137 4.240721187 -3.996793463e-19)
(107.2499918 2.604613975 1.151291974e-20)
(107.843611 2.618754875 2.175831178e-19)
(107.6277425 2.190535693 1.18072284e-20)
(107.0874905 2.236779843 -3.492911516e-19)
(105.240462 1.391290633 6.376617215e-19)
(104.8684282 1.411362959 0)
(105.0814375 1.135486959 2.425603112e-19)
(104.7423959 1.176539271 0)
(103.1477422 0.6723349098 -4.768947149e-21)
(103.5999366 0.6119614808 -5.184880057e-20)
(103.3342561 0.298369796 7.576222223e-21)
(102.9727993 0.4136858427 1.135759422e-21)
(102.1430397 0.3156105896 -1.957316264e-21)
(102.450584 0.2627754204 1.339342336e-20)
(102.2556242 0.06084994352 4.948607421e-21)
(102.0023312 0.1432124735 9.808512268e-21)
(101.0601043 -0.0946611149 -3.405817182e-22)
(101.2869897 -0.2686920496 -1.042226603e-21)
(101.6673717 -0.1144825031 -1.05674161e-21)
(101.6256742 0.03252933925 -1.151693334e-21)
(100.696552 -0.08987134892 1.059909489e-21)
(100.8092204 -0.2195328176 1.29777371e-21)
(100.4957952 -0.05339816477 -4.211284169e-21)
(100.526318 -0.1450948688 1.638756061e-21)
(100.3891181 -0.04970542161 -2.080643232e-21)
(137.4871556 7.206866398 2.462977002e-21)
(135.7807154 8.102414823 1.066054773e-19)
(136.2483055 5.805211254 -1.182954718e-18)
(134.8254854 6.724123439 1.21342986e-18)
(122.3304621 3.094303305 2.331444628e-18)
(120.6455595 3.71054992 6.432379063e-19)
(121.2052582 1.790697694 6.990624426e-19)
(119.869636 2.528034488 4.34320039e-20)
(113.1556133 1.639608922 2.436062927e-19)
(114.136224 1.306583026 1.083667613e-18)
(113.4629156 0.6300046909 1.009571538e-18)
(112.6421482 1.027128671 -2.168697559e-19)
(108.476349 0.6565496041 -5.735018516e-19)
(109.0701502 0.4459645535 -9.870551179e-19)
(108.6369287 0.07484600871 -1.912579421e-19)
(108.1284071 0.3143340631 -2.800142833e-19)
(105.8794925 0.03096179019 -8.672792815e-20)
(105.5165018 0.169676607 4.21801861e-20)
(105.6018598 -0.1893843014 4.102630584e-20)
(105.2861101 -0.04349258123 -3.45761262e-19)
(103.4509403 -0.1226937751 7.546087981e-21)
(103.8838806 -0.3166250719 2.487899353e-21)
(103.486369 -0.5772386912 -2.379061681e-21)
(103.1717965 -0.3533128496 -1.190895778e-21)
(102.31238 -0.2249158503 5.497023986e-22)
(102.5923362 -0.3691717016 6.782836015e-21)
(102.3181887 -0.5323449434 5.573672015e-21)
(102.1014762 -0.3755054221 1.243103444e-21)
(101.0288186 -0.3884742305 5.440870315e-22)
(101.1982782 -0.6372602076 1.073568225e-23)
(101.6548665 -0.5703362128 3.628613908e-22)
(101.6748823 -0.3943801299 -5.541475931e-21)
(100.6335063 -0.2706730316 1.999733135e-21)
(100.6979706 -0.4609063291 -2.212050107e-21)
(100.4151812 -0.1395066021 3.976157374e-21)
(100.4025055 -0.2799389509 2.246091317e-21)
(100.25749 -0.09339914581 1.976449462e-21)
(134.5559925 -9.463660052 1.165877868e-18)
(133.9966364 -8.177602406 -1.078830877e-18)
(133.1276724 -9.74587993 0)
(132.666884 -8.53534259 0)
(122.0146758 -5.195377141 -8.005573042e-19)
(121.0386504 -3.939815012 0)
(120.4577719 -5.663242765 0)
(119.7494726 -4.544857235 -3.30216184e-19)
(113.5382077 -2.501356274 1.429761832e-19)
(114.2333276 -3.182402394 -1.268963096e-19)
(113.2990985 -3.49838938 -1.170211257e-19)
(112.7507077 -2.859451604 6.123720206e-19)
(108.6939309 -1.737044786 5.768875013e-19)
(109.1538221 -2.131857795 2.851965066e-19)
(108.5755573 -2.331852297 1.931363164e-19)
(108.1964356 -1.952723458 1.072684586e-19)
(105.8987892 -1.54869635 4.363046572e-20)
(105.6051702 -1.309196669 -3.349667545e-19)
(105.5354493 -1.68236609 0)
(105.2886699 -1.453783446 -1.643290572e-19)
(103.4362528 -1.04682804 2.01703148e-20)
(103.793393 -1.355077969 6.059688617e-20)
(103.2995938 -1.512629237 5.721829308e-20)
(103.0676804 -1.207923191 1.180700345e-21)
(102.2588574 -0.8502829789 0)
(102.4809508 -1.072590518 -1.947150658e-20)
(102.1453081 -1.16741728 0)
(101.9897652 -0.9516401357 0)
(100.8667088 -0.70340318 -2.744029937e-21)
(100.9603245 -1.009108381 -7.212323727e-21)
(101.4609835 -1.048510372 2.168253783e-21)
(101.547868 -0.8630133273 -3.551747477e-22)
(100.4662885 -0.4642034366 -1.984319037e-21)
(100.4723241 -0.7048353369 -1.58831674e-21)
(100.2441377 -0.2315356704 2.468360819e-22)
(100.1830208 -0.4165329197 -1.351701929e-21)
(100.0390701 -0.1378037363 2.340219769e-22)
(125.4499186 -18.48790468 0)
(125.5491846 -17.46487397 -1.702132024e-18)
(124.3787655 -18.16688971 0)
(124.4706526 -17.24207371 -7.998115053e-19)
(117.8989847 -11.15119479 -2.49448395e-20)
(117.6484578 -9.880581231 6.323986875e-19)
(116.4748458 -10.93266315 9.093305589e-19)
(116.3414046 -9.857076184 3.688232237e-19)
(111.9347292 -6.116016907 2.42717317e-19)
(112.2549135 -6.892211072 -8.137356994e-21)
(111.314442 -6.829277593 9.543062913e-20)
(111.0853089 -6.149815483 -4.321771259e-21)
(107.8485009 -3.965988289 -7.330929725e-20)
(108.1172432 -4.441629733 -8.182462335e-19)
(107.5053751 -4.441269716 -4.560897752e-19)
(107.2976894 -4.013295241 -8.103805565e-19)
(105.2816589 -3.035411141 6.533881466e-19)
(105.0927705 -2.740943662 -3.137992462e-19)
(104.8844429 -3.061201099 1.078316404e-20)
(104.732617 -2.791546948 5.560054742e-21)
(103.0801982 -1.958437476 3.709362557e-20)
(103.3211691 -2.338927291 -3.465930529e-20)
(102.7857324 -2.369727992 -1.845480922e-20)
(102.6554746 -2.023757725 1.854581604e-20)
(101.9715431 -1.473982657 -1.319398908e-20)
(102.1158471 -1.749969827 5.673029753e-21)
(101.7480678 -1.761751093 -5.365524206e-22)
(101.6637275 -1.510994939 -1.369491027e-20)
(100.5719874 -1.004663298 -6.105942302e-21)
(100.5818367 -1.348811676 -1.256926714e-21)
(101.0921989 -1.493129941 -1.823595463e-21)
(101.239195 -1.318907356 -5.251841284e-21)
(100.1933682 -0.6508687718 -1.131786183e-21)
(100.1386782 -0.9268569261 5.041968048e-22)
(99.98100786 -0.3205934686 -1.370585975e-21)
(99.87152744 -0.5422386078 3.992271995e-22)
(99.73666828 -0.1788554932 2.340255674e-22)
(115.9247766 -21.65665851 0)
(116.3081269 -20.96094175 0)
(115.1874658 -21.0776973 0)
(115.5707409 -20.46359489 0)
(112.4431336 -14.02406784 -7.366772685e-19)
(112.6661546 -13.03398335 9.955914942e-19)
(111.3779232 -13.40467402 -4.483948665e-19)
(111.6129933 -12.5832991 -2.238220642e-19)
(109.1698847 -8.430253714 -8.924596749e-20)
(109.1837588 -9.114791018 -2.289687377e-19)
(108.404772 -8.78468047 -9.639090095e-20)
(108.4187148 -8.20429154 -7.361683066e-20)
(106.258241 -5.594984053 3.323642283e-19)
(106.3436643 -6.04597536 -3.166020933e-19)
(105.7929475 -5.882972168 -3.344314959e-19)
(105.738152 -5.488407246 0)
(104.1844781 -4.184043731 -1.909046055e-19)
(104.102588 -3.88770708 -9.636569763e-21)
(103.8032037 -4.1141157 -1.479685487e-19)
(103.7439155 -3.84655536 -1.466150403e-19)
(102.4278316 -2.734373707 -1.738872845e-20)
(102.5417604 -3.13480496 1.056727788e-21)
(101.9885386 -2.698188638 1.743518852e-20)
(101.4774401 -2.022604489 -3.411169052e-21)
(101.5365067 -2.320775713 3.599309583e-22)
(101.1563008 -1.990037363 -1.809158322e-20)
(100.1610376 -1.262724828 3.951053769e-21)
(100.7760073 -1.717359073 -6.373257523e-25)
(99.82494635 -0.8135099254 1.840874522e-21)
(99.63319301 -0.3987714434 1.840665754e-21)
(138.5905879 8.767001145 -1.20833433e-18)
(136.8964517 9.664605433 -1.104800594e-18)
(137.8536464 11.37942075 8.744263408e-19)
(139.9333134 9.936854341 1.603721331e-18)
(139.7021479 10.94297252 -1.593749743e-18)
(122.9901208 25.17154008 -8.207762138e-19)
(125.0152847 26.5656953 -8.335332404e-19)
(125.958802 24.2571707 -2.585742968e-20)
(135.9997406 -9.050720381 2.896294658e-22)
(135.4385284 -7.768734622 -2.244926896e-18)
(136.9405693 -7.228033206 -1.166317582e-18)
(137.3358305 -9.122196574 2.117396229e-18)
(137.6799309 -8.412809396 -2.235177528e-18)
(139.0229235 6.188051431 8.705058459e-21)
(140.4228281 7.1581029 -8.063132918e-19)
(140.2996542 8.157881988 -8.064089817e-19)
(126.5624546 -18.77268087 2.276551543e-19)
(126.6650973 -17.73452026 -1.473349737e-18)
(127.8255091 -17.96289023 -6.77596529e-19)
(127.5142003 -19.23351587 1.221376547e-18)
(127.9261237 -18.92018352 -3.077688102e-18)
(134.9825796 -10.72900221 8.794248044e-19)
(136.2817537 -10.87462498 7.767249258e-19)
(136.6597797 -10.21433869 7.876213812e-19)
(116.6952726 -22.19476783 -5.888932037e-19)
(117.0763482 -21.51183188 -5.889205906e-19)
(117.8932542 -22.01846792 -5.889755323e-19)
(117.4867844 -22.78677826 5.717013242e-19)
(126.3853459 -19.82275649 -3.552908231e-21)
(125.3042927 -19.48042712 0)
(116.264533 -22.9176673 -5.76513098e-19)
(115.5086923 -22.30614122 0)
(92.69175717 20.94407384 0)
(91.3587148 22.71187012 0)
(121.1210581 24.07446371 -1.485226656e-18)
(119.9824943 25.53236553 -7.604240645e-19)
(121.6500776 27.21307052 -7.611183894e-19)
(106.1906611 20.20153951 6.52448373e-20)
(106.312727 21.0840945 3.167582312e-20)
(107.3619967 21.10192277 3.187390663e-20)
(146.918917 28.46437452 -1.127371569e-18)
(145.8565947 28.86802533 -1.501441422e-18)
(146.2765078 29.68577449 -1.127226077e-18)
(147.335809 29.53937643 -2.816689808e-20)
(126.7651369 41.54456118 4.625788478e-19)
(125.1406895 43.41070158 4.622923299e-19)
(127.168068 45.4458136 1.532369056e-18)
(128.913377 42.99851626 -6.115380887e-20)
(134.2293913 8.894234165 -1.037008491e-18)
(135.0408154 10.39514999 -2.179673039e-18)
(123.2182765 4.49143527 8.03021608e-19)
(121.5410576 5.169348719 -8.312656316e-19)
(122.170772 6.667668644 2.252847477e-20)
(124.2788867 6.256775183 -8.214807252e-19)
(117.0166286 11.47258137 -4.49241864e-20)
(118.9066737 12.13811372 1.145264784e-18)
(118.9866267 10.25575973 2.043857637e-18)
(149.3618395 -3.797482974 5.164434491e-19)
(149.1321998 -3.251818938 -1.028211682e-18)
(149.6218971 -3.029813149 -1.051134739e-18)
(149.8830489 -3.559978258 1.113655298e-18)
(151.9413971 10.24509343 1.318686337e-18)
(151.4050299 9.739785909 -4.436942582e-19)
(152.4295335 9.715316312 2.043226525e-18)
(151.8978368 9.235871172 2.451717631e-18)
(133.4248091 -6.95262369 1.008885721e-18)
(134.7599747 -6.490522304 -1.080154596e-18)
(123.5018163 -4.537553602 -7.973910549e-19)
(122.5564576 -3.257015183 0)
(123.9633489 -2.394541801 -7.951884576e-19)
(125.2679846 -3.769037254 0)
(125.2008535 3.748172823 1.382597319e-18)
(123.8578135 2.192597433 7.965628246e-19)
(136.3019254 -20.69554468 5.591164483e-21)
(136.527611 -20.28501776 -6.96164579e-19)
(136.7820324 -20.40488297 -8.341885493e-19)
(136.6199848 -20.78289488 2.00087132e-21)
(143.5194307 -14.07350018 2.058131273e-18)
(143.1066096 -14.13137005 -9.953089538e-19)
(143.5089966 -14.59291821 -1.042053757e-18)
(143.0966268 -14.60746858 2.907003681e-18)
(125.5914321 -16.49827896 -6.718862852e-20)
(126.7097938 -16.67430012 9.444800679e-19)
(119.3613083 -11.22107883 8.602460506e-20)
(119.1356861 -9.954914357 7.338119836e-19)
(120.642259 -9.867934512 -7.056677157e-19)
(121.01338 -11.33915803 6.782568629e-19)
(124.5523594 -6.003787208 -7.962547293e-19)
(122.7612408 -6.513322922 1.213993749e-20)
(123.5627059 -26.55541616 -7.132339843e-19)
(123.8650486 -26.07451303 -1.40116468e-18)
(124.3168355 -26.36551896 -7.14133045e-19)
(123.9646307 -26.86218078 -7.288851493e-19)
(129.7288336 -24.44384313 6.740297997e-19)
(129.2248061 -24.21985029 -8.331797292e-19)
(128.9393862 -24.78693142 0)
(129.2643396 -25.11605962 0)
(129.5280466 -24.96669517 -9.271620255e-19)
(106.6620389 -32.13450081 -5.196231558e-19)
(108.0553551 -32.2752291 -3.464386472e-19)
(108.7701759 -32.21779938 -6.820143133e-19)
(108.0163402 -32.27457164 1.716001295e-19)
(112.0268806 -27.18710091 -3.615833881e-19)
(112.5081551 -26.88005168 -2.78710692e-20)
(112.7222288 -27.29660897 4.193368504e-19)
(112.3280831 -27.60425962 3.807483237e-19)
(117.7010208 -27.44535795 5.130733148e-19)
(117.3121602 -27.08804387 5.131388778e-19)
(117.3290057 -27.84231953 -2.833948074e-20)
(116.9804463 -27.47637002 5.058424325e-19)
(151.4046796 10.74398465 1.15871821e-18)
(151.9434935 11.27344166 1.685349773e-18)
(152.4780965 10.75341467 -1.14543995e-18)
(146.819022 27.30820618 -7.692807086e-19)
(148.0667132 28.18842379 -1.134592314e-18)
(147.7505892 27.22877637 5.846387697e-19)
(133.5081367 18.9085573 -3.402925042e-21)
(133.2341553 16.84258707 1.095100526e-18)
(135.3333264 16.51886682 2.07169365e-19)
(136.3040068 18.31175793 7.298399554e-19)
(135.6392561 19.2055451 7.301502179e-19)
(145.0361686 27.34346948 -1.14937864e-18)
(147.2576564 26.46238277 7.23265953e-21)
(146.3292933 25.07644937 -2.734522326e-18)
(144.5695491 25.51805983 2.778555128e-18)
(150.8652793 10.23495784 -5.951668575e-19)
(150.2890467 10.71392595 -3.577755802e-20)
(150.8407183 11.22913532 -1.694340642e-18)
(143.5179132 -13.59548374 2.050496391e-18)
(143.9327549 -13.52295018 2.052930726e-18)
(143.9348694 -14.04296564 -3.016639559e-20)
(148.8651838 -4.002087685 -1.327740277e-20)
(149.6018445 -4.32356665 -6.079668237e-19)
(149.0817974 -4.553702747 2.541386179e-19)
(138.1263168 -1.024406221 2.203888806e-18)
(137.4630015 -1.592461864 1.449796304e-18)
(138.7839577 -1.679392131 1.087155324e-18)
(138.0515813 -2.102457138 -1.065020892e-18)
(148.6427955 -3.472278909 -1.53393953e-18)
(148.3738074 -4.208591919 -5.174932002e-19)
(148.171835 -3.699989457 -1.548451647e-18)
(143.1075004 -13.64438869 -9.79269917e-19)
(143.1105577 -13.16632103 1.806782578e-20)
(143.5118136 -13.1052182 -9.902793538e-19)
(150.8850841 9.255852329 -2.288761893e-18)
(150.3250338 9.708818513 -5.483882755e-19)
(148.4189833 -2.963912966 6.433123925e-20)
(148.8929058 -2.722178699 -1.013755443e-18)
(137.6698524 -0.2489349646 1.285746467e-18)
(138.3813735 0.06495322193 1.076839157e-18)
(138.9722204 -0.5233203896 2.279074486e-18)
(130.0093662 -23.86704871 -1.827416103e-19)
(130.5223048 -24.07776856 -4.443170152e-19)
(130.058646 -24.77342202 4.502734719e-19)
(130.3236358 -24.61498279 1.403161153e-18)
(135.9333192 -20.62942971 1.741100431e-20)
(136.1628365 -21.06815901 1.697278529e-18)
(135.8827286 -20.98062487 4.65145289e-22)
(131.5431513 -14.91825026 -1.952248477e-18)
(130.2457966 -14.90013735 -2.260450015e-18)
(130.3183198 -16.04668223 -2.252452327e-18)
(131.3762841 -16.43231316 1.444049139e-18)
(131.817824 -15.97195098 -3.373406415e-18)
(136.0537726 -19.97121559 -1.006891723e-18)
(135.6353321 -20.86427662 1.679988668e-20)
(135.1878674 -20.55219135 2.780254041e-19)
(135.3660049 -19.84254009 4.915521154e-20)
(129.5079177 -23.64001713 -1.687625712e-18)
(129.7117311 -23.04785318 8.356617112e-19)
(130.2900705 -23.27762374 -8.555245546e-19)
(142.7021969 -14.16909089 -1.953965575e-18)
(142.7117649 -13.69918089 -1.661380174e-20)
(136.8232939 -20.03528252 -1.813859884e-18)
(136.2225389 -19.2449749 -1.031098167e-18)
(137.017669 -19.51769708 4.203108999e-19)
(136.8424041 -19.17869414 -1.799303003e-18)
(131.3972883 -13.73230077 1.290736445e-18)
(132.7399406 -13.66028705 2.340063061e-18)
(132.6604296 -15.2581772 -4.053835217e-19)
(133.0961084 -14.74771421 8.393078841e-19)
(118.0254617 -27.04651989 0)
(118.4239018 -27.39585577 -1.355261941e-20)
(118.0549696 -27.80276183 5.408795152e-19)
(123.1180832 -26.25844048 0)
(123.2093607 -27.04142058 0)
(122.81264 -26.72657667 6.694333303e-19)
(105.5370776 -32.05062157 -6.655499832e-22)
(106.8529345 -32.18381525 1.768908749e-19)
(103.6724337 -31.76872662 2.679623771e-19)
(104.9434025 -31.927247 -1.732779717e-19)
(103.0769596 -31.49994388 -2.518023386e-19)
(111.6311976 -27.46632342 -3.703722973e-19)
(108.6253892 -32.18189918 0)
(151.4328568 51.2166768 -1.678945177e-18)
(150.2369528 53.21699509 -8.059962641e-19)
(149.7868114 54.10932251 8.247155449e-18)
(150.6307581 55.45679368 -1.376181974e-17)
(125.249198 63.6930057 1.887362071e-20)
(122.7489654 65.49149477 9.550438008e-19)
(124.9012324 68.83539312 -2.232607481e-18)
(127.6944948 66.10233517 -1.37718689e-18)
(122.5037985 -28.03062285 5.55319876e-18)
(123.9131579 -28.07489468 5.199629233e-18)
(122.593592 -27.9057693 1.368869614e-18)
(116.0538206 -26.68100538 3.981135413e-19)
(116.6604727 -20.31586966 5.562430629e-19)
(117.4306496 -20.78054873 -6.202617695e-19)
(113.592519 -14.54748499 -5.164373423e-19)
(113.8326793 -13.57971274 1.21588558e-18)
(115.0749688 -14.01329277 5.802911779e-19)
(114.844989 -15.19295148 -5.989711937e-19)
(119.5495547 -12.63944094 -6.934855361e-19)
(117.9826973 -12.35976892 -6.427328623e-19)
(104.5029402 -30.93757038 0)
(106.73894 -31.35538128 2.047195e-19)
(104.3736192 -30.80321517 2.648137224e-19)
(96.95183978 -28.87651268 4.146294472e-18)
(114.1932071 -30.51942626 7.068280798e-19)
(114.7030253 -30.12791529 6.240654423e-19)
(114.9345515 -30.54399822 1.255346584e-19)
(114.2470552 -30.85796832 -9.65016904e-19)
(114.4860451 -30.92122737 7.818982987e-20)
(117.2466261 -30.33799133 -4.755727655e-19)
(117.0706038 -30.15427525 -1.003009394e-19)
(116.9816047 -30.50813559 4.511590857e-19)
(116.9040572 -30.35645368 -7.953560806e-21)
(124.9389455 39.80192982 0)
(128.168039 39.41162169 9.968757527e-19)
(126.3230105 38.18603098 -7.928389166e-19)
(145.2901677 29.69219667 0)
(143.1667416 27.64889914 -5.409231971e-20)
(143.4919595 29.57256972 2.230793919e-18)
(131.331256 18.96650301 -1.097510489e-18)
(131.3249358 21.04728064 -1.098676199e-18)
(134.231048 20.8755763 -7.316517006e-19)
(133.3909445 21.64127713 -7.315565614e-19)