/*--------------------------------*- C++ -*----------------------------------*\
| =========                 |                                                 |
| \\      /  F ield         | OpenFOAM: The Open Source CFD Toolbox           |
|  \\    /   O peration     | Version:  v2012                                 |
|   \\  /    A nd           | Website:  www.openfoam.com                      |
|    \\/     M anipulation  |                                                 |
\*---------------------------------------------------------------------------*/
FoamFile
{
    version     2.0;
    format      ascii;
    class       volScalarField;
    location    "0.25";
    object      nut;
}
// * * * * * * * * * * * * * * * * * * * * * * * * * * * * * * * * * * * * * //

dimensions      [0 2 -1 0 0 0 0];


internalField   nonuniform List<scalar> 
3019
(
1.155895493
1.155867513
1.155837014
1.155812645
1.156031321
1.156026771
1.156041745
1.156083215
1.156164833
1.156309426
1.156483452
1.08837947
1.155166375
1.155078789
1.154990273
1.154917985
1.155128194
1.155146458
1.155244211
1.155519259
1.155904204
1.156579271
1.157635431
1.013068779
1.154398642
1.15425348
1.15410884
1.154019168
1.15424304
1.15433536
1.154580688
1.155137192
1.156088624
1.157701803
0.919844551
0.7624511154
1.15361882
1.153416121
1.153232037
1.153138112
1.153400182
1.15364196
1.154248249
1.155271967
1.15724465
0.8549881534
0.6475016302
0.5189344358
1.152805628
1.152556092
1.15234501
1.152297281
1.152646867
1.153136943
1.154291535
1.156141761
0.8970591174
0.6093769331
0.4297041301
0.3242284785
1.152006215
1.151714642
1.15149976
1.151505775
1.152021635
1.152891952
1.154895171
1.076055875
0.6999197759
0.4484075939
0.2822314019
0.1798868819
1.151182406
1.150868075
1.150680274
1.150825048
1.151587892
1.152965286
1.156076019
0.9164761908
0.5809004543
0.3527392824
0.1965072281
0.09063050962
1.150441396
1.150106861
1.149967506
1.150323656
1.151283114
1.153408531
1.145221109
0.8225298613
0.5251354862
0.3198749568
0.1768667689
0.07300560402
1.149740429
1.149412453
1.149365018
1.149972933
1.151210967
1.154221002
1.068247526
0.7713204686
0.5150753481
0.3398870672
0.2240241059
0.1559102049
1.149200851
1.148881161
1.148940635
1.149837925
1.151454807
1.155379667
1.024296321
0.761355723
0.5349890957
0.3835689418
0.2999291663
0.2892689648
1.148777933
1.148488664
1.14869885
1.149960233
1.151982572
1.15683408
1.004407287
0.7690591169
0.5676065393
0.4343549417
0.37019816
0.4065322972
1.148548489
1.148296729
1.148658905
1.150277228
1.152755152
1.158439218
1.003557787
0.7924293622
0.6083167969
0.4819886871
0.4108491982
0.4240460455
0.1396746335
0.2740928932
0.3935142428
0.4278069874
0.07109350275
0.2803606721
0.2692615527
0.1610871944
0.3545686719
0.3772695881
0.2829465289
0.3333947485
0.1935916279
0.2150270925
0.4046317062
0.4207472323
0.3887054729
0.4301930884
0.1304487579
0.1663286414
0.4189241423
0.4103771651
0.07951848438
0.1033422448
0.05927839153
0.1322394534
0.0283107043
0.05376690711
0.2178523292
0.2378319517
0.2273102238
0.1867795205
0.1764760546
0.1472693909
0.1889234784
0.168732037
0.190320977
0.3487337137
0.1498639168
0.1284246414
0.1750297855
0.1516355488
0.1046607141
0.1289449597
0.4323822834
0.1043877301
0.08052501309
0.1271689163
0.1056334969
0.07781691822
0.3987044466
0.05515951241
0.07952151387
0.05669845742
0.2077764578
0.1465026254
0.08518516541
0.09009295375
0.05819657039
0.03329708657
0.2095200396
0.2404263035
0.1436561693
0.1308814731
0.06470844936
0.1001884718
0.04101837201
0.01208568081
0.02152909556
0.0349722553
0.02758859055
0.09318160018
0.2506592447
0.2396500274
0.048587951
0.04138043138
0.08494014108
0.06336071587
0.05281762133
0.03983476182
0.06293505149
0.09555911198
0.03432380188
0.02222693428
0.01390524696
0.04896729346
0.02468392623
0.03787438217
0.02402524565
0.05327568765
0.1855845278
0.03165067974
0.185126616
0.2005032137
0.03505768499
0.03888172356
0.03202798791
0.03460007182
0.1975457446
0.1394723538
0.1380843008
0.1645287115
0.1630778471
0.09570901113
0.09399829467
0.1159616396
0.1145098244
0.2358740283
0.07281302269
0.0719968127
0.01465976105
0.01165404692
0.1432425405
0.3049220585
0.2951146115
0.3176645975
0.3081464656
0.1462057618
0.2647346312
0.2541021998
0.09439677014
0.1780706485
0.3298872637
0.3207403476
0.06052312964
0.06232483752
0.1325721279
0.1170707927
0.2784533218
0.2681612628
0.2918215219
0.2818435009
0.1187289701
0.1007647584
0.03814052701
0.03885249931
0.02219408051
0.02304483946
0.084664356
0.1225966055
0.0565483614
0.06013684414
0.03914442734
0.03980466059
0.1093565445
0.07662581609
0.02158378223
0.02205185663
0.02115706547
0.06581864033
0.0383453859
0.03983083509
0.01423068144
0.01546126481
0.04419376712
0.04342572665
0.0649991467
0.07160062352
0.08582444918
0.05366378465
0.06731329897
0.06573398274
0.05850776998
0.1269675702
0.1179651545
0.09240539138
0.1173310041
0.05843904689
0.03674303106
0.03959433939
0.04939574037
0.03182751616
0.0355245307
0.02992382155
0.09157406865
0.0810717051
0.09701221742
0.09370811166
0.03100032388
0.0736288988
0.07170195748
0.07806079682
0.07431817517
0.0364430365
0.1102334281
0.1067204418
0.115835607
0.1114641685
0.03698943346
0.03306626253
0.1012215788
0.09812757048
0.1055816424
0.1022863402
0.03337954226
0.04417104702
0.04345339325
0.04623867999
0.0444179397
0.04210778165
0.04110691791
0.0432122136
0.04237020605
0.06874775547
0.06700307739
0.0711020726
0.06934853744
0.06198435015
0.04885392526
0.0662774998
0.06436999758
0.03720636885
0.03779561075
0.09952376225
0.02223694562
0.02201526558
0.02289888997
0.02242063747
0.0213322997
0.08689247077
0.02375518264
0.0350338645
0.04189676338
0.05473916167
0.1209903692
0.03837343471
0.02507206559
0.04097308056
0.0380618945
0.02367657162
0.02313189756
0.02462243013
0.02389869757
0.1106118977
0.04002428582
0.04088423753
0.02098807565
0.02147264533
0.07572938544
0.06795185426
0.02009534811
0.02092648128
0.2031597867
0.3274802349
0.3444573902
0.3062027099
0.3201784571
0.2061893019
0.3415481991
0.3328377824
0.181031313
0.1452041464
0.06749245736
0.07097748984
0.07381663
0.08371767613
0.156908792
0.04005353757
0.04674080169
0.03661115227
0.04200586982
0.06392733447
0.08786921196
0.08681887546
0.04130741461
0.06504410384
0.06179270056
0.08593074471
0.08455590648
0.06182988815
0.02978746648
0.03614685202
0.03338573854
0.0257674885
0.02643252052
0.02180576011
0.04543976794
0.044271715
0.04615118608
0.024243966
0.03448152654
0.0328921409
0.05192663819
0.05157980512
0.03140150164
0.02934801896
0.02895817649
0.03186695342
0.03118391159
0.03554541601
0.05725566857
0.05672261754
0.06037019489
0.05970973278
0.03817575753
0.03234009132
0.05301167534
0.05254716971
0.05617276243
0.05562710198
0.03417763392
0.06512088441
0.06685480412
0.1437332254
0.133894227
0.06286715713
0.06456802958
0.08981693257
0.0925553771
0.1690724723
0.02743506578
0.0272896918
0.02873419123
0.0285237173
0.02106333771
0.02703728093
0.02692829044
0.1584850093
0.08572817971
0.08879127681
0.03830222306
0.05737023449
0.05692356608
0.02242900566
0.03729215367
0.03703967453
0.03861393316
0.03765964028
0.02264608404
0.02150068257
0.02126964915
0.02175492676
0.03653837182
0.03632005118
0.03687675177
0.0366940524
0.02188456288
0.0224886674
0.02183829356
0.03293705469
0.0235289538
0.01682073673
0.03979537291
0.03121791704
0.009909709117
0.0110715661
0.0180705639
0.02018172625
0.01197352605
0.01481565752
0.01406341121
0.04521999065
0.04255400466
0.07859768489
0.07112773295
0.04314165837
0.06158712583
0.08386794544
0.08095231864
0.03378667233
0.03122202751
0.02888788269
0.0220423571
0.02861239349
0.04055352002
0.0413430931
0.03665629631
0.04787194143
0.04804491045
0.03126363766
0.03098853854
0.05072213513
0.05071479609
0.02999934934
0.02962991073
0.03073935224
0.03033524966
0.05822626604
0.05772014238
0.03591498264
0.03756698207
0.05920911845
0.05872381515
0.05407125256
0.05358287598
0.03273893912
0.03373848181
0.05507295728
0.05456558869
0.04392129515
0.02621521736
0.02647995689
0.0257968579
0.02599869482
0.04369216427
0.0451663164
0.02740873564
0.0278973993
0.02674136128
0.0270475098
0.04471525773
0.04174795036
0.02459801264
0.02482848895
0.02423365656
0.02445817191
0.04152229191
0.04295129804
0.02540764079
0.02559385663
0.02499473498
0.02521969769
0.04268990818
0.02785365509
0.02767274207
0.0681758887
0.04659999713
0.04689430742
0.04596176796
0.04622155769
0.0675417909
0.02827801859
0.0280789066
0.02580325752
0.02704386469
0.06003506568
0.04243295903
0.04214511016
0.02879854388
0.03020049997
0.05393637738
0.06583354999
0.04531881908
0.04550544504
0.04465869196
0.04461146646
0.0647250053
0.02661825181
0.02665820709
0.03712433823
0.05492961876
0.0546442161
0.05627215066
0.05592803681
0.03770056957
0.02218937619
0.02194756466
0.022771401
0.02249921033
0.02239980802
0.01748119108
0.02501225735
0.04545112664
0.04091560917
0.05250641376
0.05077396018
0.03535137948
0.02718455035
0.01894954067
0.02432253786
0.02586817084
0.04032353702
0.02387998084
0.02416623069
0.02317678653
0.02393124961
0.04038897498
0.02350656269
0.02328422221
0.02434610209
0.0240979573
0.02120034171
0.03573046685
0.03537020926
0.03615611228
0.03587943944
0.02128334468
0.02065484256
0.0346864346
0.03274927204
0.03525032509
0.0346552996
0.02063975468
1.155192441
1.15573362
1.15578873
1.155969548
1.15691503
1.156386143
1.15730256
1.045954891
1.157313954
0.995488074
0.8521834256
1.034535442
0.8249760541
1.155175278
1.156330352
1.155795306
1.156849931
1.005557627
1.157239289
0.93094131
0.7544337331
0.9722157786
0.7114027986
0.6075845057
0.785774154
0.5776852852
1.155845037
1.056570181
1.156641441
0.9625230271
0.7250639975
0.9264938249
0.6625107584
0.5149403578
0.6880083016
0.4771773968
0.3909976289
0.558571725
0.3778113931
1.12507483
0.8260444471
0.9905839354
0.7422552961
0.5368955809
0.6699448643
0.481401456
0.3485745223
0.4665909878
0.3135289869
0.2309666167
0.3428819037
0.2107527137
0.9516636085
0.6775098621
0.781221159
0.6029834259
0.4204118833
0.5013481373
0.3706243346
0.2465206982
0.317013429
0.2123801864
0.1286585145
0.2001652894
0.1084959457
0.8398390347
0.5996511896
0.6532896694
0.5338142716
0.3686772516
0.4012558391
0.3226857492
0.2069452656
0.2306316792
0.1749202834
0.08361953703
0.1127049491
0.0793592748
0.04865917891
0.07703519152
0.7776560785
0.5719041605
0.5891716911
0.5143224828
0.3704773377
0.364430081
0.3308232864
0.2335861029
0.2077483529
0.1829288169
0.1584988454
0.149901701
0.07629014299
0.06641808459
0.06055300407
0.7623843701
0.5795418467
0.5700919342
0.5288211351
0.4039158645
0.3778605672
0.3708636945
0.2959721663
0.2469408332
0.2418875547
0.2252881235
0.2043163294
0.1732189104
0.1721931153
0.1525788067
0.7646695076
0.6033043942
0.5839087236
0.5586078665
0.4497829843
0.4150827437
0.4218168632
0.363470798
0.3134639896
0.3192636081
0.3131046208
0.2917505903
0.3038050546
0.3154166701
0.301637241
0.7841290516
0.6383343226
0.6111551256
0.5973750256
0.4965465686
0.4615533676
0.4703022629
0.4147399269
0.3783008093
0.3840128479
0.3822877449
0.3691098869
0.4172265455
0.3569667091
0.3660559958
0.6486603221
0.508340653
0.424774433
0.4099979314
0.4258235806
0.405834051
0.4192927317
0.3036299838
0.3142283206
0.1343512772
0.1177124035
0.1248530458
0.2913471623
0.2784993631
0.2573626923
0.3689523103
0.3776370926
0.3789570103
0.3176531272
0.3278429203
0.4305967144
0.03239327413
0.04377016373
0.07529415609
0.06616394387
0.04134185738
0.2696082447
0.2472698351
0.2608474216
0.2242460163
0.2305515766
0.2689017002
0.182135113
0.2176117386
0.2084518693
0.3532021163
0.3335027032
0.337417388
0.3378697916
0.3269649218
0.3628084513
0.2799976712
0.3185107023
0.3239287478
0.3467359949
0.327190131
0.3184046562
0.1969254858
0.2481122146
0.244945168
0.2657573781
0.2629760982
0.2121247425
0.4007941215
0.3925841259
0.3953491127
0.4181777958
0.3913438618
0.4117825731
0.3658408097
0.3942717611
0.4138804323
0.3443063059
0.3538760739
0.4251520063
0.1351889599
0.1972580078
0.1942728622
0.216792827
0.2130862264
0.1622257156
0.4036627365
0.4161184767
0.4014235605
0.2894311669
0.3001565315
0.4146945575
0.08660808675
0.1460813339
0.148367405
0.1653005603
0.161910051
0.09948249879
0.06671965795
0.06681893141
0.05670810285
0.1455312027
0.1215005647
0.1191709481
0.02963159943
0.02475135573
0.02351203031
0.04923236436
0.04379521766
0.04777256657
0.2259665394
0.2856392478
0.3006607551
0.2392320094
0.277016607
0.2288329628
0.2398649678
0.2676700242
0.2316966519
0.1828938356
0.117266307
0.1212082457
0.09725881583
0.1002260448
0.1808088385
0.1644091211
0.1386349666
0.1434636143
0.1224714496
0.126264437
0.1919678503
0.1721045548
0.2230143764
0.2196155868
0.2417790533
0.2386182331
0.1871684972
0.3638675937
0.3806262214
0.3610442975
0.1482526152
0.1221040402
0.1237908049
0.104615713
0.1058331471
0.1298673467
0.170541637
0.09349965504
0.09630250341
0.1257444646
0.1278182008
0.1534172354
0.1092207166
0.1717733793
0.1684318606
0.1912314979
0.1881537512
0.1245657553
0.4322833629
0.3311978345
0.3410740219
0.1031815805
0.079728984
0.08058401533
0.05737124062
0.05807264876
0.08164663547
0.1257380275
0.102210843
0.1035046788
0.08150741983
0.08238810783
0.1068630211
0.1478697084
0.2858463556
0.05420779072
0.03474027774
0.03509555869
0.07853545458
0.05624545248
0.05679925653
0.03599652432
0.03820917688
0.05922208925
0.1852908795
0.1692620397
0.1936566189
0.1107339448
0.1447616805
0.1700830792
0.1193671906
0.1374922049
0.1013766694
0.07967443028
0.07173663966
0.08181285196
0.04261260813
0.06075892719
0.07167849966
0.04756460954
0.05521840007
0.03890133277
0.2131620342
0.1927307845
0.1910046971
0.2049643048
0.1926472677
0.2268270765
0.1467879413
0.1790101814
0.1884339987
0.09712983615
0.1077250594
0.1344216317
0.07822423055
0.09806815993
0.08799621224
0.1117208608
0.1030271387
0.09030827891
0.01232748637
0.01033846641
0.009947889423
0.01994699475
0.01769574901
0.01903899204
0.02593916505
0.01667595824
0.03115372396
0.020033618
0.02906653397
0.01444375659
0.01798713618
0.03002566787
0.152584064
0.1481821397
0.08867328479
0.2468859952
0.1969860294
0.2010891573
0.189640655
0.1940461845
0.2433804398
0.08559793625
0.07235884973
0.07528888194
0.05274505598
0.05780189038
0.05946555962
0.1069780213
0.1109330375
0.09301268722
0.03093024949
0.02749925914
0.03158350693
0.01713944125
0.02264735444
0.02721979053
0.01923092398
0.0207003185
0.01593337205
0.04439903662
0.04485222053
0.04861237032
0.02729284574
0.02962713468
0.0274170712
0.04245144809
0.03854586493
0.03406025799
0.1079599725
0.1154912616
0.181772201
0.1821287884
0.1012717041
0.1055932509
0.1329161325
0.1371663621
0.1829713807
0.1945336503
0.127552942
0.1315481065
0.1141716881
0.115404522
0.1408864319
0.1366798078
0.1117369042
0.112953279
0.1391309617
0.1405408682
0.1660617584
0.1615357312
0.1363160137
0.1377210382
0.07413552943
0.07507378219
0.09704145365
0.09192184294
0.0700888987
0.07227397973
0.09003551452
0.09221639032
0.1174705197
0.1131607713
0.087132326
0.08838746764
0.1859509209
0.0529148684
0.05361274569
0.0738739667
0.07076915866
0.05151352111
0.05253560751
0.01256569962
0.01239368772
0.2032207271
0.2002242513
0.136914905
0.3016667475
0.251190194
0.2544825973
0.2446844473
0.2479275014
0.2983983814
0.3144971945
0.2642431363
0.267583967
0.2578078487
0.2611294255
0.3113534155
0.1604497659
0.2104406521
0.2064827524
0.2611885487
0.2111848401
0.2147269093
0.2041911358
0.2079312875
0.2577554032
0.09824153572
0.1589036866
0.1552464204
0.2292593189
0.2260163027
0.174906964
0.3268767979
0.2770088413
0.2801825641
0.270659839
0.2739115576
0.3238390269
0.06121392564
0.08280199316
0.08181189215
0.08457107953
0.08362555534
0.06170930854
0.1311702853
0.1069616394
0.1081681319
0.1786065394
0.175143932
0.1111460538
0.2750471305
0.2248769455
0.228300235
0.2180395315
0.2214972188
0.2716377275
0.2885117608
0.2381912409
0.2414389989
0.2316352033
0.2349215071
0.2851824896
0.1231293677
0.1850404439
0.1818772808
0.07798174062
0.0787848983
0.1019397763
0.05847463672
0.05796715834
0.03864531777
0.08296010109
0.05902258928
0.0605755659
0.09923278833
0.1009381169
0.1243555311
0.05878260816
0.07892506689
0.07703475934
0.0810459246
0.07986563698
0.0590923071
0.03935511898
0.0595667927
0.05904118473
0.06065440768
0.06011844653
0.03960601303
0.1081145446
0.08330228317
0.08420067473
0.05517071683
0.0557275698
0.07760347706
0.06269519658
0.04253156539
0.04751693043
0.01250996946
0.01105032863
0.01302394178
0.008249737327
0.009148659575
0.01712035365
0.01607083821
0.01442036402
0.07525395072
0.08176643057
0.06437490442
0.07579352404
0.0769753378
0.07138670638
0.08960634011
0.08299487478
0.0807984097
0.05886430299
0.05656547868
0.05233919545
0.06618951253
0.06126080588
0.06346878686
0.06624213251
0.06340028441
0.06924384147
0.1238098521
0.09767501681
0.1019391757
0.08948346248
0.09295737177
0.1206767246
0.09961959648
0.1074778878
0.09762405262
0.1044904867
0.1069952681
0.1082801939
0.03773681384
0.04100557963
0.04048030465
0.04223488384
0.04097896987
0.03830355612
0.04867428492
0.04556764008
0.04640783343
0.08913622442
0.06682165817
0.06898578539
0.05465800492
0.06016123576
0.08526902423
0.09609553878
0.07330355612
0.07388167738
0.07160892972
0.07204528687
0.09477680119
0.07297206583
0.04910111384
0.04943120664
0.04842546543
0.04878613382
0.07233552406
0.07625167762
0.0506170939
0.05183493844
0.04973940784
0.05009911088
0.07513584174
0.1090389331
0.08256421223
0.08337543918
0.08096945227
0.08177528732
0.1078733015
0.1141644295
0.08605104255
0.08738686716
0.0842072145
0.08507448642
0.1127521401
0.1001903699
0.0762718351
0.07701939291
0.07475536429
0.07547068065
0.09911702672
0.1044624377
0.07935303166
0.08015684057
0.07778254113
0.07855280471
0.1033597179
0.0705193079
0.04784408581
0.04812814473
0.04723053245
0.0475268467
0.06992814084
0.09836428455
0.07624694473
0.07699849945
0.06317554776
0.06679427925
0.08948102956
0.04433418806
0.06773036832
0.06505861881
0.0748300308
0.07144132084
0.04909729652
0.1187881694
0.09476570561
0.09720927218
0.08512614572
0.08607981247
0.1118697323
0.04022570372
0.06179963025
0.0612140519
0.06346969177
0.06250070423
0.0404838983
0.07472659564
0.05407158656
0.05467103766
0.04916148003
0.05117756432
0.06977588877
0.2542384262
0.2512023109
0.2000931045
0.3338438391
0.3012039168
0.3041330941
0.2954272089
0.2983438846
0.3441766984
0.3097880681
0.3128862187
0.3102720185
0.3070346125
0.3099775039
0.3157291973
0.2091713296
0.2601322335
0.2572109791
0.3385743163
0.289414269
0.2924520768
0.2832647173
0.2863665495
0.3357320353
0.1841261465
0.2355113039
0.2323385448
0.1192352947
0.1205969668
0.1466701719
0.06825172281
0.09421502998
0.09306813698
0.09736257456
0.09558692214
0.06929418229
0.07776445708
0.102432156
0.09971043795
0.107130672
0.1049972185
0.08139958678
0.155193738
0.1298588058
0.1317166054
0.03130651083
0.03010214444
0.0283347163
0.03475063165
0.03266469995
0.03395916938
0.0302559462
0.03213858397
0.03474964403
0.0656832621
0.09007528228
0.08913135049
0.09202606102
0.09103462759
0.06625402765
0.1423128339
0.1166564741
0.1179220597
0.1093332975
0.1105447588
0.1353154464
0.06345384703
0.0863775078
0.08544522784
0.08820771837
0.08727900608
0.06400722805
0.09068524591
0.1152298467
0.1140378782
0.1176834931
0.116468625
0.0916508232
0.1675396623
0.1419596494
0.1433826416
0.1333765796
0.1348706154
0.160065902
0.08672848998
0.110256503
0.108905544
0.112784323
0.1116009057
0.08796840351
1.155581236
1.155602178
1.156031589
1.155639658
1.155687217
1.156063888
1.155764991
1.155872762
1.156117062
1.156021659
1.156219753
1.156228614
1.156472385
1.156801238
1.156398164
1.157239055
1.135110066
1.156662371
1.046183471
0.9856022466
1.023032218
1.154674625
1.154690052
1.155127222
1.154728586
1.154796208
1.155185983
1.154893251
1.155074333
1.155456299
1.155384081
1.155487665
1.155596639
1.155880177
1.156071613
1.156047854
1.156742674
1.157049861
1.156814726
1.15803614
1.067993491
1.134458266
0.9610868956
0.9087077971
0.9617942208
1.153819519
1.153869563
1.154270058
1.153970247
1.154130418
1.15444056
1.154367308
1.154900004
1.154988523
1.155112137
1.155334785
1.155321138
1.156267956
1.156671132
1.156427819
1.096441677
1.021884211
1.102761821
0.8475743132
0.7990780551
0.8668985394
0.7064215081
0.6900589019
0.7492730315
1.15303215
1.153147133
1.153488511
1.153358192
1.153692094
1.153879902
1.154202989
1.155283385
1.154937868
1.15541719
1.155877535
1.155661165
1.10428815
1.015233053
1.092149307
0.7850043461
0.7245452891
0.7913939064
0.5866110467
0.5543156496
0.6142557984
0.4761789804
0.4452601311
0.4954732226
1.152355276
1.152576302
1.152837131
1.152972423
1.153581948
1.153593264
1.154519169
1.156460679
1.15549646
1.156501539
1.131734484
1.156877313
0.8406890487
0.7583327287
0.8133969981
0.5621583472
0.5099594299
0.5558399806
0.3868070611
0.3548507658
0.3972292444
0.2811822097
0.2663974581
0.3146355474
1.151808067
1.152197508
1.152362241
1.152873832
1.153903956
1.153690305
1.155412617
1.050441327
1.15686178
1.029670283
0.92624461
0.9713036159
0.6630378928
0.5920651196
0.6267423819
0.4186414422
0.3708885194
0.3992843472
0.2553494841
0.22471602
0.2517600038
0.1528368761
0.1357843679
0.1640342244
1.151396185
1.152065016
1.152113811
1.153118195
1.154688971
1.154250547
1.156863537
0.9349530063
1.021792459
0.8872323721
0.7933377037
0.8200474601
0.5616773825
0.4978678059
0.5151086768
0.3388230973
0.2949326097
0.3081927231
0.1849022293
0.1543491199
0.1661932171
1.151202792
1.152221619
1.152132403
1.153738787
1.155872456
1.155279049
1.102179138
0.8613664792
0.9134483671
0.8077483884
0.7242892926
0.737163312
0.5191091245
0.4626076953
0.4666153843
0.3204666205
0.2814125157
0.2792331901
1.151294657
1.152690325
1.152455717
1.154720155
1.157403245
1.156667842
1.043026816
0.834270834
0.8531261856
0.7692304919
0.6973542856
0.697199741
0.518841345
0.4697955326
0.4650476306
0.3482518114
0.3160312075
0.3050844706
1.151666087
1.153468937
1.153104952
1.155983234
1.159049724
1.158200311
1.011640863
0.8271226654
0.8325958497
0.7608826665
0.6986521225
0.6965058912
0.5421202608
0.4992559026
0.4906553374
0.3963035819
0.3702131332
0.3560903856
1.152321198
1.154523203
1.154057686
1.157499318
1.134508995
1.146541472
1.002165255
0.8375957609
0.8337491525
0.7724916125
0.7173475715
0.711354516
0.5770303001
0.5384788657
0.52818904
0.4465898516
0.4239132336
0.4111935364
1.155271714
1.127679877
0.8523921799
0.7997303847
0.7506149177
0.7404984806
0.6199665962
0.5834750232
0.5715002489
0.4938542735
0.4704985
0.4591288687
0.05774115627
0.05820031688
0.07086962032
0.05551467953
0.04592098492
0.2548230457
0.2507635838
0.2640973917
0.166719053
0.1799413592
0.1764661026
0.3647788649
0.3574108161
0.3686693079
0.2782707135
0.2912672725
0.2964518542
0.4213099074
0.4133804694
0.4125310198
0.380614563
0.3893099507
0.3989485177
0.1319787595
0.1562104898
0.1546956002
0.4132854212
0.4104344585
0.4159582586
0.08169209614
0.1051962687
0.1035492589
0.1274139587
0.1259230234
0.1020458722
0.2206091675
0.2713314086
0.2685410633
0.2562324996
0.2686880761
0.2345136516
0.1506435664
0.1521592328
0.1779701932
0.1735166072
0.1476973164
0.1491634079
0.1060422652
0.1304431577
0.1289149725
0.1532213272
0.1516622978
0.1274681029
0.101963735
0.1004870734
0.07650880202
0.3876389342
0.1331032407
0.1421111485
0.1538061112
0.1009543293
0.1027943844
0.0878446028
0.05251361741
0.05823929264
0.06342560544
0.03913689265
0.04014147875
0.03483054893
0.2377202377
0.2272515028
0.2412473042
0.1442689289
0.1565733246
0.1573652475
0.118649365
0.1210247524
0.1320278927
0.0694558235
0.07601714942
0.07181522047
0.02279384324
0.02282525616
0.02775003713
0.1156164332
0.1140411927
0.09178914525
0.02023263599
0.02237365724
0.0249772791
0.01501565475
0.01577831773
0.01411246241
0.1664495939
0.1703836473
0.1851037466
0.18442382
0.1609106992
0.1633702848
0.009778909911
0.009932885057
0.01172271772
0.1633327936
0.1626531931
0.1408394301
0.1499811716
0.1633443745
0.1637928883
0.09572161881
0.1185740391
0.1169963267
0.140844947
0.1390901261
0.1152110106
0.1202404391
0.1440630849
0.1424478083
1.155345195
1.155402255
1.155275138
1.155716336
1.15553938
1.155520135
1.15568172
1.155593886
1.155737282
1.156251589
1.156136216
1.15590104
1.156678723
1.156376591
1.156558227
1.1562
1.156258624
1.156505978
1.157743111
1.157352234
1.156977857
1.116806893
1.157740405
1.119821045
1.157056273
1.157334773
1.157717214
0.9350313901
1.001448148
1.077819913
0.9147533471
0.9726939547
0.8972930495
1.107674718
1.046011792
0.9754845364
0.7981916423
0.852258782
0.8953646633
0.8459550876
0.7999688113
0.9475320779
0.9004025521
1.155498542
1.155392417
1.155123816
1.156084087
1.155712846
1.155883231
1.155538379
1.155600356
1.155910447
1.157409363
1.157013329
1.156513563
1.08816493
1.15754412
1.087539029
1.156802405
1.157144303
1.157640725
0.8636778385
0.9409680499
1.012345798
0.8245496954
0.8796892627
0.805532256
1.038332
0.9577422691
0.8976469174
0.6736597705
0.7343611409
0.7780144869
0.6628183853
0.6939730392
0.6418676962
0.8253099138
0.7556035583
0.7217466155
0.5539474402
0.6199306591
0.6442837448
0.5989086923
0.539380118
0.7400844758
0.6659812011
1.156470608
1.156170679
1.155613376
1.123307248
1.156809501
1.14977644
1.156119168
1.156414692
1.157051268
0.8744377436
0.9417446232
1.031695241
0.7861473011
0.8596562093
0.7953270968
1.006892235
0.9302002874
0.853243893
0.6069928692
0.6631311485
0.7209191475
0.5679527209
0.612360182
0.5580291876
0.7361025464
0.6716952091
0.6257230128
0.4440691742
0.4963303846
0.5294984474
0.4496738248
0.4683155839
0.4145546867
0.5904725403
0.5301178786
0.5090058655
0.3653936089
0.4060450311
0.4331974828
0.3816639538
0.3420988657
0.4840638231
0.4301472349
1.021755688
1.075562195
1.156898477
0.8769686622
0.9736298162
0.9199249653
1.089835199
1.03143041
0.9320221795
0.6665429658
0.7104729747
0.7893977935
0.5752121615
0.6394911872
0.5987151548
0.7380969548
0.6846706277
0.6200238983
0.4310476464
0.4688248247
0.5187160363
0.3836900808
0.4239492791
0.3873089076
0.5084415007
0.4638012136
0.4229788189
0.2820716027
0.316812493
0.3481816144
0.2648100413
0.2890151804
0.2547608841
0.3683328466
0.3268284863
0.3019965472
0.1940697964
0.2275899847
0.2441674097
0.2168606688
0.1820650676
0.3041727843
0.2595610846
0.851734052
0.8852547726
0.9874877979
0.7075840123
0.7912035276
0.7601460523
0.8717968363
0.8295299994
0.7419904243
0.5364480364
0.562227333
0.6313640188
0.4427754402
0.4996811723
0.4758674576
0.5611510569
0.5280984651
0.4697994321
0.3251360533
0.3463318008
0.3923268365
0.2662968764
0.3040882622
0.2838813695
0.3560010248
0.3276887376
0.2898132623
0.1820343574
0.2014677924
0.2321043923
0.1495477564
0.1737238409
0.1543966377
0.2241905074
0.1972120791
0.1732917798
0.09083807456
0.1123040325
0.1274783824
0.1002497537
0.07777600912
0.1520519005
0.123535956
0.751894989
0.7703974258
0.8602775981
0.613567076
0.6881731747
0.6720785341
0.7324560818
0.7083627296
0.6313064639
0.4735377199
0.4837306083
0.5458308927
0.376068445
0.4275725266
0.4188339206
0.455722222
0.4404836494
0.3871466529
0.2806748968
0.2858810576
0.3289926582
0.2106116757
0.2464880069
0.2420826255
0.2675083677
0.2550633224
0.2186910681
0.1436204152
0.1466961786
0.177263631
0.09109064656
0.1179796152
0.115851518
0.1384398908
0.1269576419
0.09889589314
0.05519396793
0.06504987929
0.05989986298
0.7028108265
0.7129870351
0.7915809478
0.5755491604
0.6412002322
0.634701715
0.6596321084
0.6490904771
0.5809633864
0.46161319
0.4605124221
0.5155096521
0.3648871352
0.4104169422
0.4137810768
0.4132519901
0.4108524859
0.3635414682
0.2944847964
0.2862251416
0.3235349201
0.2220183294
0.2523836372
0.262120427
0.2418580468
0.2455044042
0.2130135986
0.6959476262
0.696817737
0.7661387698
0.5760664488
0.6335719047
0.6350403292
0.6306617387
0.6319939451
0.5727815525
0.4827668861
0.4756870719
0.5234890685
0.3932949116
0.4323180603
0.4411711858
0.4193648043
0.4250536654
0.3845362623
0.3419856136
0.3283551735
0.3586500367
0.2787062609
0.301884431
0.3172307197
0.2739732228
0.2873438014
0.2621600224
0.7062465591
0.7020035774
0.763049132
0.5960517161
0.6465595715
0.6524069259
0.6375588257
0.6415205078
0.5894896042
0.5181778963
0.5084945882
0.5500756191
0.4380224874
0.4711572754
0.4819137325
0.4507235686
0.4607145333
0.4264260442
0.3979193259
0.3842044502
0.4090813936
0.3475780345
0.3637797492
0.378484194
0.3328970545
0.3485065373
0.3308106499
0.3135138744
0.3055637322
0.3159425551
0.2914569056
0.3011010482
0.302838682
0.7318373319
0.7241067714
0.7789323532
0.6286246701
0.6742663732
0.6830835132
0.6589636108
0.6662636907
0.6195855828
0.5601128849
0.5491001359
0.5869290002
0.4848643817
0.5150719087
0.5265073236
0.4928450683
0.5038797068
0.4732344945
0.4477449357
0.436059465
0.4585411761
0.4038687094
0.4176783182
0.4290301191
0.3924504471
0.4055406743
0.3918458107
0.3600535072
0.4064227598
0.4033527255
0.4122951755
0.4092585509
0.3630576609
0.6926203883
0.702830849
0.6598195856
0.5381872132
0.5503180758
0.5204619377
0.4397784358
0.4505049478
0.433774192
0.3072681214
0.3553151957
0.3514781602
0.3621461207
0.3586947462
0.3107168881
0.3718121671
0.4025669781
0.4151172328
0.3870066116
0.4015198485
0.3747595366
0.3211082069
0.36887588
0.3653659435
0.3754663188
0.3721092734
0.3244801618
0.03589535572
0.04695823818
0.04697823374
0.05444128277
0.04986481866
0.03888513542
0.07303329701
0.05994134157
0.06366637484
0.05717410275
0.0501682637
0.05852839967
0.03525794437
0.04239263534
0.0486956112
0.03756588206
0.0305237816
0.2225944211
0.2362915002
0.2398865223
0.2630992819
0.2523824322
0.2555184245
0.1923449119
0.1941261953
0.2080243714
0.3324783307
0.3442712424
0.3515118961
0.3413216338
0.3391585566
0.3319775145
0.3601704518
0.3540708622
0.3470330543
0.2939516246
0.2890734814
0.2792616683
0.3144767001
0.3055345145
0.303543665
0.3101264751
0.3055294905
0.3183356929
0.3429951856
0.3353358723
0.3475537798
0.3201618291
0.3313377626
0.3298772755
0.4088795945
0.4106441507
0.4205766249
0.4047309597
0.4030510518
0.4053513986
0.4075461636
0.4124323907
0.3991759186
0.3803014341
0.3794032932
0.3757016395
0.3938363866
0.393163582
0.380291814
0.4073992908
0.3981832945
0.4033297929
0.3475366306
0.3944145252
0.3912367805
0.4004726866
0.3973568722
0.3507094933
0.1590775984
0.1576453339
0.1335574806
0.4174394718
0.4078959742
0.415377943
0.4020630226