/*--------------------------------*- C++ -*----------------------------------*\
| =========                 |                                                 |
| \\      /  F ield         | OpenFOAM: The Open Source CFD Toolbox           |
|  \\    /   O peration     | Version:  v2012                                 |
|   \\  /    A nd           | Website:  www.openfoam.com                      |
|    \\/     M anipulation  |                                                 |
\*---------------------------------------------------------------------------*/
FoamFile
{
    version     2.0;
    format      ascii;
    class       surfaceScalarField;
    location    "2.44";
    object      phi;
}
// * * * * * * * * * * * * * * * * * * * * * * * * * * * * * * * * * * * * * //

dimensions      [0 3 -1 0 0 0 0];
oriented        oriented;


internalField   nonuniform List<scalar> 
6464
(
0.4583291755
0.002326184866
-0.002276861101
0.4584286018
0.002183259298
-0.002054775336
0.4584871358
0.001897639548
-0.001733419848
0.4585044879
0.001563931961
-0.001386912706
0.4584931839
0.001228728846
-0.001077473967
0.4584858019
0.0009066720489
-0.000837451132
0.4584516616
0.0007357895094
-0.0006011280323
0.4584601151
0.0004910129329
-0.001800702296
0.9186135873
0.0002732378672
-0.0004361228427
-0.001127313915
0.9186766116
-2.610302307e-05
0.9157487891
0.913773897
-0.00462471888
-0.2291475331
0.2290796438
0.004692690942
-0.004603154305
-0.2293242269
0.2293891288
0.004538252432
-0.004119546733
-0.2294294952
0.2295874517
0.00396159022
-0.003416113323
-0.2294673157
0.2296686443
0.003214784657
-0.002659201539
-0.2294462526
0.2296417206
0.002463733499
-0.00198536698
-0.2293933787
0.2295563904
0.001822355291
-0.4588592416
-0.002685082247
0.4602657178
0.001278606017
-1.32256279e-06
0.4608933716
-0.00165754123
-0.4592345078
-0.001969117681
0.9180058707
0.0007107434717
0.001866090746
-0.001214831508
0.9179223255
0.0002451509266
0.9142888067
0.9140190479
-0.2289059471
-0.009217228972
0.2288293846
0.009296328748
-0.2294656474
-0.00901746439
0.2297475187
0.008751350089
-0.2300775242
-0.007688849521
0.2304822267
0.00730016041
-0.2305372022
-0.006313432423
0.2309110226
0.005940429732
-0.2304572387
-0.004825096269
0.2308180386
0.004464296418
-0.003203398223
-0.2302809878
0.2309522661
0.002532119954
-0.4628550228
0.0006378943356
0.4616328296
0.0005842989198
-0.4599460003
-0.0007805856614
0.4598798421
0.0008467438132
-0.0003737771145
0.9195446452
-0.0007088862136
-0.0004561111543
0.001273081741
0.9162754666
0.0005851549643
0.9149767335
0.9146042029
-0.228422332
-0.02288155752
0.2281973011
0.02311307216
-0.2313933266
-0.02233359345
0.2321798757
0.02158124308
-0.2333515553
-0.01812563077
0.2348417199
0.01668448669
-0.2333885175
-0.01206648007
0.2349304477
0.01056256808
-0.2344653076
-0.002026738657
0.2385772351
-0.002083615707
-0.003187725294
-0.2318034801
0.231808167
0.003183038438
-0.461551531
-0.00467762457
0.4626666408
0.003562514705
-0.4605367034
-0.002443285578
0.4614384564
0.001541532606
0.002261584886
0.9192360134
-0.001052601073
-0.0009003520059
0.001621548523
0.916915503
0.0007383262655
0.9158599557
0.9153425291
-0.2270879924
-0.03744595708
0.2265146658
0.03802683714
-0.2349584463
-0.03749607375
0.2361174888
0.03637759331
-0.2406692157
-0.03011257972
0.2431328821
0.02771974184
-0.2483499959
-0.01322393305
0.2472959289
0.01435090832
-0.2372414785
-0.01101266819
0.2393421609
0.008953043516
-0.004653627425
-0.2331326717
0.2336424161
0.004143882945
-0.4642072122
-0.005280743339
0.4656546675
0.003833288125
-0.4622644516
-0.002833160952
0.4630995832
0.001998029376
0.002858944249
0.9207424417
-0.002522403347
-0.001842969163
0.001503022953
0.9182714243
0.0006657463131
0.9166972324
0.9160082755
-0.2238992961
-0.04589994692
0.2227664346
0.04703428592
-0.2410241344
-0.04451830113
0.2415037238
0.04406165725
-0.256720464
-0.0331596346
0.2551154373
0.03483468794
-0.2527120356
-0.02897451628
0.2560725549
0.02570870139
-0.2473376553
-0.01610612538
0.2504392253
0.01308090318
-0.004912378143
-0.2365989047
0.2379784158
0.003543448293
-0.4668681417
-0.005209337755
0.4680600036
0.004017475898
-0.4635278628
-0.003161180845
0.4638923143
0.002796729303
0.002093047465
0.9225585351
-0.001839925998
-0.002069214875
0.001063513511
0.9193009582
0.0003955358397
0.91736521
0.9164038113
-0.03300301071
-0.1087237205
0.10816
0.03356673124
-0.02665180569
-0.2515593293
0.05030554807
-0.027033519
0.1270751113
0.1278639946
-0.04227450777
-0.2603490017
0.2635857027
0.03908381062
-0.2666629018
-0.02792380435
0.2691576436
0.02552895036
-0.2593109156
-0.01807936231
0.262508483
0.01497684422
-0.006951542436
-0.2438610141
0.2459640828
0.004885001869
-0.4692116073
-0.004037626997
0.4698020112
0.003447223085
-0.4646922879
-0.002482121476
0.4654670774
0.001707332054
0.0006980047722
0.9236930937
-0.0007861919955
-0.001046371392
0.0001437695729
0.9198551934
-2.940218395e-05
0.9175383818
0.9163744091
-0.03340388841
-0.141235176
0.1441965033
0.03044256107
-0.03693433376
-0.2731839433
0.2764601036
0.0336820107
-0.2788004383
-0.02456541892
0.2818102846
0.02164985246
-0.2716930719
-0.01343503426
0.2743005211
0.01093394124
-0.006430989486
-0.2516499369
0.2535779062
0.004554500755
-0.4707508976
-0.001807865377
0.4714834645
0.001075298554
-0.466052324
-0.0005917975403
0.466508697
0.000135424616
-0.001407301018
0.9239642501
0.0008383758815
0.0002977687474
-0.001145668412
0.9195935608
-0.0006187691492
0.9170114825
0.91575564
-0.01480016011
-0.1573632611
0.1578659484
0.01429747279
-0.02057654798
-0.2831456011
0.2841527163
0.0195824693
-0.2885455148
-0.01570143402
0.2901701466
0.01416492854
-0.2808804573
-0.009008682625
0.2826431678
0.00735302493
-0.002748277273
-0.2578801058
0.2591644094
0.001521848035
-0.4724564776
0.001160525779
0.4732168461
-0.001920894263
-0.4666562685
0.002179950464
0.4666725139
-0.002196195826
-0.003894497725
0.9229496717
0.002687700354
0.002221375767
-0.002690439585
0.9183895027
-0.001379033046
0.915700076
0.9143766069
0.003740161275
-0.1548975586
0.1538441803
-0.002686782955
-0.001991908466
-0.284646611
0.2839321761
0.002719902328
-0.2937548672
-0.002865157841
0.2943161351
0.002390431
-0.2866771582
-0.0002600017592
0.2875523585
-0.0005101565288
0.002280824967
-0.260997327
0.2613632723
-0.002590108825
-0.4730201804
0.005268643786
0.4723839201
-0.004632383539
-0.4663413929
0.004355807891
0.466531654
-0.00454606895
-0.006592541341
0.9206203193
0.00476166607
0.00416022773
-0.004333938239
0.9161308996
-0.002185933643
0.9135520714
0.9121906733
0.01359112636
-0.1447757525
0.1433619092
-0.01217728308
0.01208496448
-0.2809879194
0.2801168217
-0.01119124878
-0.2956625825
0.01136336945
0.2934553742
-0.009069208146
-0.288914993
0.008393996348
0.2887383405
-0.008116265681
0.006971917919
-0.260017747
0.2595022226
-0.006407567506
-0.4714263098
0.00913632968
0.4701884615
-0.007898481428
-0.4666003607
0.006779277286
0.4655737728
-0.005752689399
-0.009067358436
0.9171914157
0.006453578244
0.006042683782
-0.005914460793
0.9129780019
-0.002915223171
0.9105528338
0.9092754501
0.01688661585
-0.1338491211
0.1324916619
-0.01552915668
0.02027805272
-0.2772183946
0.2767721006
-0.01979543465
-0.2926179159
0.01551365331
0.2957740755
-0.01857966816
-0.2872556643
0.01880335701
0.2864841155
-0.01793680801
0.01107193528
-0.2553069473
0.2535146867
-0.009242771953
-0.4687167464
0.01235180339
-0.01065126459
-0.464492291
0.009146004929
-0.007834236033
-0.01127572392
0.006774539831
-0.00729116621
-0.003551528207
0.1606968178
0.01758629207
-0.1598901824
-0.008896128698
-0.009496798832
-0.1424581282
-0.03686552085
0.1459197607
0.1571616091
-0.001854260628
-0.1583044173
0.001688360021
0.001308708811
0.1611244632
-0.007330942289
-0.007896863176
0.1459228364
-0.01287324424
-0.1474183099
0.007254575141
0.007114142589
0.1559404094
0.002667886858
0.002293474107
0.1343089882
-0.0166906044
-0.13565004
0.01803165621
0.01509627046
0.1444176923
0.01846762387
0.1327279802
-0.1051239098
0.1037615869
0.03397297178
-0.1387814812
-0.0376496188
-0.123767171
-0.02835525763
0.125470623
0.04343673413
0.009815670966
-0.04312759341
-0.01012481168
0.02708372676
-0.07278558165
-0.02941807477
0.07511992967
0.01678343618
-0.1565604052
0.2846511643
0.02531652197
-0.2822461036
-0.02772130398
-0.2712760862
-0.0408898563
0.2752356736
0.04929314522
0.000878331639
-0.04939272766
-0.0007787492036
-0.04617596929
0.003674966616
-0.003031883444
0.04553288611
-0.0009301317418
-0.1558216875
0.2852588326
0.006394527127
-0.286327972
-0.005325327213
-0.02204082635
0.2861155362
0.03945008867
-0.004229823735
-0.0398148257
0.00459456076
-0.04270525452
-0.001655209519
0.001204485389
0.04315597865
-0.01145602684
-0.1461929699
0.2766383197
-0.008940058204
-0.2791049936
0.01140876946
-0.0003207740921
0.2835878897
0.07074301741
-0.01092891555
-0.07126011427
0.01144601241
-0.07462715543
-0.01006014057
0.07413621686
0.005347095447
0.005203983685
0.007965471554
0.03059730908
-0.007731306933
-0.0308314737
0.06402907947
-0.01116205221
-0.06446740574
0.01160037849
-0.06726554859
-0.01145587291
0.01184295787
0.06687846364
0.004249379436
-0.04657018533
-0.003855163396
0.009401454727
-0.009610086568
0.04364536597
-0.1549515514
0.02579492345
0.1570535072
-0.01368500621
-0.01421187302
-0.08484607874
-0.008979612757
0.08554325858
0.01768388765
0.0450131337
0.0044398976
-0.04520365187
-0.001471148554
-0.04223901026
0.001004904287
0.0002128228421
-5.515877251e-05
0.04913548115
-0.07993671811
0.002490544185
-0.002424029567
0.0798702035
-0.04775776078
0.04755930792
0.0004112757066
0.0420545453
-0.001703299774
-0.04182239408
0.04466161423
0.004026486094
0.0008949276547
-0.0477743568
0.003225771837
-0.08010221357
-0.003060276366
-0.0098748305
-0.07514965291
0.005218771795
0.005178556188
-0.004095276068
0.004284019531
0.03926134521
-0.1518514729
-0.009728383296
0.1503755611
0.005721736578
0.005482558518
-0.07843663943
0.004080583712
0.07788882314
-0.00762804349
0.07440758462
-0.009397045738
-0.07488536939
0.0422699957
-0.001870659921
0.00407091616
-0.007357699804
-0.03981582998
-0.03956384954
-0.008492452398
-0.1532117351
0.005046850483
0.004805864139
-0.01137706055
-0.06773574312
0.01184725508
-0.0111576585
0.01157040963
0.07033026628
-0.02895148885
-0.007313116786
0.006814751713
-0.02921853903
0.008232521733
0.01139845337
-0.00733973479
0.0320430536
0.01384038961
-0.04566630843
-0.0002171347764
0.0211634969
-0.03724666421
-0.02334293034
0.03942609764
0.04510819512
-0.007682986495
-0.03724783323
-0.0001773753865
-0.01541600316
-0.1351237223
0.2693663507
-0.01857735767
-0.2707398151
0.01996330469
0.01428072829
0.2744462388
0.03781595569
-0.007244333837
-0.03035969318
-0.0002119286768
0.06517178
-0.0131228976
-0.06578483165
0.006900133001
0.006835816257
-0.03354796434
-0.006592531441
0.006691317391
0.03344917839
-0.0726517361
0.07455748058
0.02517798228
-0.01013091677
0.01897570912
-0.08387520013
0.02824224237
-0.1523402772
-0.01521788189
-0.01563563472
-0.006640866987
-0.03370164678
0.006794549424
-0.03574010487
-0.006841404819
0.00730142338
0.03528008631
-0.1400185888
-0.0159048932
0.0173820626
0.1385414194
-0.07079180527
0.07030110142
-0.01066695465
0.06732757489
-0.01093311587
-0.06777151957
0.07395043558
-0.009602991526
-0.0105338268
-0.07118689402
-0.01546017087
-0.1415016409
0.016943223
0.02305796679
-0.05202028678
-0.02173073428
0.05069305426
0.02715173054
-0.07053958948
-0.02939772271
0.04242536651
-0.1236506641
-0.02223597987
-0.02337797881
0.06288109044
0.06395816585
-0.05587071765
0.05487271698
0.02405596746
0.03303674734
-0.0009936937373
-0.08138595348
0.02398561793
0.08324015074
-0.01277734118
-0.01306247402
-0.04364857261
0.0597332064
0.01695211355
-0.03697061915
0.03872178719
0.01941232886
0.01575930486
-0.04556748787
0.02512709304
-0.079448423
-0.01340305142
-0.0136615721
-0.04152787282
0.002669251237
-0.002651543124
0.0415101647
0.002350988516
-0.04185084234
-0.002028018993
-0.04017606012
-0.003201426702
0.003121577882
0.04025590894
-0.003439804302
-0.04049402421
0.003757768392
-0.00617573884
0.03662647302
-0.03565461598
0.005203881805
-0.009678495736
0.02183426097
0.03295242988
-0.07265219137
-0.01067293789
0.01108181632
0.07224331295
-0.03849936004
0.03669503796
-0.007874173664
0.03670096652
-0.006381862336
-0.03649484303
-0.03400042673
0.03802602473
-0.003792036915
-0.0002335610832
-0.006903714995
-0.03927863154
-0.01052324474
-0.07310385322
0.005521307505
0.00545359908
0.06313102047
-0.01275860564
-0.06365001597
0.01327760114
-0.01307030751
0.06460667344
0.006826196771
0.006809217294
0.0184010498
0.02824767754
-0.008832771643
-0.04460732781
0.006466796685
-0.006211590471
0.0443521216
0.006909845574
-0.04466756895
-0.006849604432
-0.04001427105
-0.000933423411
0.0008298989732
0.04011779549
-0.001292620975
-0.04020598812
0.001484338036
0.0408198042
-0.0009998791997
-0.04111254598
0.08199831255
-0.0001025005042
-0.08232206961
0.0004262575646
-0.08313775085
0.001895930768
-0.001665973236
0.08290779331
0.08065088539
-0.002403822386
-0.08100821465
0.00276115165
-0.0007124733267
0.001032821562
0.08167796431
0.04079749629
-0.0009111154968
0.04223955375
0.002511286383
-0.04239985162
0.08365168209
0.005679747989
-0.08372203101
-0.005609399063
-0.08369292581
0.008194107428
-0.00825558765
0.08375440603
0.002611737413
-0.08333151689
-0.00241797137
0.004889217374
-0.004808648728
0.08357111344
0.0423518082
0.002556996788
-0.03843824793
-0.004621761739
0.004810302304
0.03824970737
-0.001854590426
-0.03206640879
-7.942751139e-05
-0.004651511383
-0.03866801896
0.004881282409
0.006167426803
0.03685990969
-0.006326369967
0.006939180952
0.0352082015
-0.006617228037
-0.03553015441
0.06900083858
-0.01129454854
-0.0694438491
0.01173755905
-0.0362426859
0.007441761985
0.005475730709
0.03731816911
0.0186459117
-0.0002448619085
-0.01265492523
0.01302890372
0.0387504602
-0.0405518229
0.001801362695
0.0344756298
-0.006960110294
-0.0345063841
0.006990864587
-0.03196591205
-0.006916819907
0.006534865455
0.0323478665
-0.006597798073
-0.01035947743
0.009727867045
0.007229408466
-0.00761954719
-0.03284521026
0.008498845408
-0.02990335031
-0.007605002758
0.006288513808
0.03121983926
0.03044211685
-0.04734732105
-0.02855577983
0.02228165628
0.02317932776
0.02059353629
-0.03531742369
-0.02252277681
0.03093497503
-0.05914748577
-0.03288572554
0.06109823628
-0.05221985862
0.03309365888
0.02418345159
0.02538486501
-0.04646601055
0.00397985274
-0.005921946617
0.04840810443
-0.0420866674
0.04130804924
0.0009162274823
-0.0001376093165
0.04013570093
0.0006241445657
-0.04040280576
-0.0003570397394
0.04347507316
0.002771419317
-0.04412331762
-0.002123174856
-0.04090929988
-0.003670876682
0.003822807672
0.04075736889
-0.0430402157
0.003527662814
0.0434306487
-0.003918095822
0.03824608705
0.006983381549
-0.00602583419
-0.03920363441
-0.03783236345
0.03794233288
2.74672717e-05
-0.0001374367065
0.04360283355
-0.003562869972
-0.03980868242
-0.000231281154
0.04331819735
-0.002954168697
-0.04366270469
0.00329867603
-0.04485139608
0.006202826397
-0.007121801287
0.04577037097
-0.04090196235
-0.02863375564
0.05776969537
0.01176602262
0.001910756439
-0.04381729683
-0.0001801270142
0.04388858774
0.006853256006
-0.04383199817
0.08278114848
0.01278956684
-0.08238907833
-0.01318163699
-0.08065732557
0.01557448366
-0.01624319397
0.08132603588
0.009084562681
-0.08356934252
-0.009208145965
0.01184006852
-0.01216826353
0.08310934349
0.04384020814
0.006515176287
-0.04100057512
-0.001093609078
0.000711900167
0.04138228403
-0.03744346093
0.03751641418
0.0001967288813
-0.0002696821335
0.0001626800408
-0.03770601754
-0.0002890259509
0.04565845499
-0.002715215251
-0.0477424903
0.00479925056
0.003683755422
0.03891714449
-0.004354812856
0.002568551697
0.0421550611
-0.003505628882
-0.04121798392
0.03930198157
-0.004220647439
-0.03926621085
0.004184876717
0.07635342214
0.004540690291
-0.008538205246
-0.07700741857
-0.007144020177
0.0755047965
-0.07594471304
0.007583936716
-0.07726169218
-0.006255053055
0.006690859697
0.07682588554
0.04022127165
-0.003174135357
-0.04048694059
0.0790092597
-0.004363414367
-0.07946499042
0.004819145086
-0.002931277102
0.003298653372
0.08028350912
-0.005892314672
-0.07771636749
0.006346989981
-0.004779518705
0.005195121071
0.07859365733
0.04017214322
-0.003152298274
-0.01132852929
0.01170961489
0.06861975299
0.03493459817
-0.006567801488
0.06702707724
0.006640653497
-0.01278358977
-0.06752500795
-0.03702343913
-0.009233236378
0.01846273148
0.02779394403
-0.04310767478
0.02045893276
-0.02087233547
0.04352107749
-0.03303386556
0.04355034629
0.02823397947
0.02081439765
-0.04226430434
-0.02165776809
-0.02876719648
-0.002254572862
0.03121105055
-0.0001892812064
-0.00610759667
-0.02243188816
-0.0002277116438
0.03361525904
-0.007268495621
-0.03377279505
0.007426031629
-0.007456983741
0.007970827026
0.03396178652
0.01918692747
-0.01891483063
-0.0002720968335
0.01208606661
-0.01407316783
0.002801964713
-0.01184387465
0.01092340633
0.002406827954
0.006529822119
-0.0312209681
0.03256775836
-0.007876612383
0.009197584655
0.03321811043
-0.008128900875
-0.03428679421
0.03437708424
-0.006752998545
-0.0347058738
0.007081788108
-0.04055316286
0.01984739721
-0.02072119238
0.02742948262
-0.0001784681201
0.03298143317
-0.03205328827
-0.0009281448998
0.04706829163
0.01344121253
-0.04598913231
-0.01452037185
-0.04358202917
0.01437586849
-0.0151795843
0.04438574499
0.04873881021
0.01221939142
-0.04666711415
-0.01429108747
0.01256333311
-0.01283977525
0.04734473377
0.01464589343
-0.0428787327
-0.0153491899
-0.04018495778
0.01568265032
-0.01659523952
0.04109754698
-0.04324358991
0.04455566141
0.01914686126
-0.03865055758
0.03774540298
0.001227460821
-0.0003223062248
0.02688616682
-0.02678823753
-9.792927948e-05
0.004517980836
-0.04402090252
-0.006963088867
0.002580865431
-0.001975523195
0.04286973092
0.03981033576
0.0005537231714
-0.0002283580021
0.0006780648105
-0.0391532503
-0.0001753720848
0.0003996419361
-0.03821619598
0.03962611756
-0.001809563511
0.001049003552
-0.002186510002
-0.04190270924
-0.003425727683
-0.04076895866
0.003285386469
0.03797396366
-0.03656527222
-0.0003596878861
-0.03457770946
0.03554456055
-0.0005672091514
0.03603463608
-0.03559757462
0.006546320091
0.04190016843
-0.0003985419532
-0.002166395559
-0.03226179511
-0.0001495187947
-0.00351259644
0.004405665104
0.04242512869
0.05157119317
-0.007745291025
-0.0002230685922
-0.003602584151
-0.03678000739
-0.03775618741
-0.007030934784
0.007558254356
0.03722886784
-0.005461913464
-0.03628523509
0.003990961138
0.03800943153
-0.006087188733
-0.03738415626
0.03629395904
-0.005969254787
-0.03640637038
0.006081666133
-0.03732326524
-0.005848899523
0.006290231282
0.03688193348
0.03406213754
-0.006927604308
-0.0332421299
0.0374594392
-0.005860089915
-0.03781998931
0.006220640024
-0.03860720614
-0.005361174827
0.005229315067
0.0387390659
-0.005802358162
-0.0375706172
0.006049710121
-0.005657353685
0.00566296268
0.0374538302
0.03615838267
-0.004350817989
0.007199685834
0.03196563989
-0.0074789275
-0.03168639822
0.03257958988
-0.007063949279
-0.03282827914
0.007312638541
-0.007308546442
0.007649631753
0.03327417373
-0.002325075701
-0.04749587821
0.04554872004
0.004272233875
-0.008539480733
0.008987320917
-0.04134980253
0.006320493492
-0.04424315028
-0.006928739285
0.02859713875
-0.03690408971
-0.0002325297717
-0.04369672685
0.0415054848
-0.0001338336478
-3.661689122e-05
0.04249604511
0.006420673115
-0.04526387373
-0.003652844498
0.01050856467
-0.01132216422
0.04955240976
0.005240409239
-0.04875484253
-0.0001822935591
0.009488687076
-0.008551934099
0.04155929214
-0.04381377104
0.008092238151
-0.008353828538
0.04407536143
-0.04411220621
0.04447385064
0.009127042638
0.006159275607
-0.04841474458
-0.03689802783
0.03719059081
4.006352216e-05
-0.000332626499
0.0002696215875
-0.03728189501
-0.0004311875098
-0.0009738061725
-0.04065631584
0.0006295468951
-0.00321878316
0.005813829353
0.0430634088
0.02598224378
-0.02565272387
-0.0003295199082
-0.000556539393
-0.0362636691
-7.781933317e-05
0.03975445209
-0.005906790509
-0.04049299983
0.006645338256
-0.03839395714
-0.005176859639
0.004383473984
0.03918734279
-0.005194116256
-0.03820316135
0.004790071473
-0.006291299084
0.007459950987
0.03858580018
0.022996389
-0.02262344326
-0.0003729457409
0.04213939477
-0.04075449422
0.001183651153
0.001964149921
0.03775424158
-0.006609548982
-0.03908815713
0.007303748971
-0.004286646203
0.003657639248
0.04276840172
-0.02044106116
-0.0002801312223
-0.03602646369
-0.006539525555
0.006283668654
0.03628232059
-0.02702456712
0.03011866628
-0.00296623504
-0.0001278641201
-0.009552729113
-0.04210930014
-0.00593615874
-0.02093036244
-0.0001580459388
-0.006938469706
-0.03630600343
0.007218009449
-0.02958350389
-0.0002402494085
0.03088004124
-0.1381422455
0.03952190943
-0.2678255697
-0.04296395038
-0.2573087537
-0.04524645536
0.2603088176
-0.02484440339
0.02770414589
-0.002617937553
-0.0002418049383
-0.01934954867
-0.005305903181
-0.0001889515387
0.02126681525
0.2683941343
-0.01904277445
-0.0003067742194
0.06694194113
-0.01107023916
-0.02083214219
-0.1299758183
0.01115864409
-0.01674276853
-0.1300329999
0.01805456526
0.02051348913
-0.0197731758
-0.01947230075
0.01873198743
-0.01903235336
-0.01215356907
0.01710295877
0.01408296366
-0.009050089504
0.01033545948
-0.0116448474
0.0272436716
-0.0304736093
-0.03732188521
0.02186895802
-0.02748719724
-0.02286779161
0.02848603084
-0.022598774
0.02116373114
0.02194853199
-0.1301331096
0.0332235582
-0.03556012857
0.1324696799
-0.1267154707
0.1287836086
0.04035722857
0.02520214502
-0.07070215057
0.01080661475
-0.04218074373
-0.01111613674
0.04249026573
-0.04550924186
0.04598273062
0.01208984435
0.04769318432
0.01117369508
-0.04664748798
0.03142957279
-0.006942001818
-0.03164716141
0.007159590439
-0.007000846803
0.007398234479
0.0321822022
0.03113471836
-0.008402314852
0.006563239901
0.0665218772
-0.0126505713
0.06520786657
-0.01262355558
-0.06570720859
0.06563920151
-0.01136646668
-0.06607565865
0.01180292383
0.04810627782
0.01009547116
0.007811344217
-0.04550287731
0.008346367798
-0.04374990496
-0.00841023388
-0.02580212466
0.005301544404
0.007721065905
-0.02886676402
-0.008072840917
0.03467986253
-0.02667430253
-0.0002844941006
0.01711025961
-0.00685490451
0.006989779514
-0.06072244915
0.01590307286
-0.0008469321461
-0.03322033238
-0.003788306225
-0.0002391946301
-0.03240157941
0.03260423656
-0.00744699099
0.004698913461
-0.03057183039
-0.006528662482
-0.02539063129
-0.0002701484298
-0.03337679735
0.03340699434
-0.006947016899
0.03421308471
-0.006900039455
-0.03427315555
0.03314237381
-0.006560209345
-0.03324701944
0.00666485497
0.01647260443
-0.07987776321
-0.01725216679
-0.07695782594
0.01890258976
-0.01997755566
0.07803279185
-0.07995303329
0.08147753286
0.02246111836
-0.006660002109
0.006980880922
0.03405620543
0.03328589172
-0.007672784049
-0.007245314451
-0.03375103009
-0.06543351492
0.02559269611
-0.02680464192
0.06664546073
-0.06173136494
0.06290658095
0.02975975903
0.01911997121
-0.03549705407
0.01487691828
0.04559372144
-0.0007374333233
-0.04608682016
0.04575634817
0.01520739026
-0.04511264372
0.01597793712
-0.0307519137
0.03102408231
-0.0002721686093
0.01026182766
-0.04070457429
-0.0003091670619
0.007160550464
-0.0356729146
-0.00714225185
0.03319739026
-0.03207456048
0.006037720686
0.002941206751
0.03546006532
0.02196447727
-0.0001302162943
-0.006348203679
0.02838267019
-6.998924271e-05
0.03401303406
-0.007408807858
-0.006015001528
0.03556168811
-0.03569595302
0.006149266434
-0.005921807889
0.006130007552
0.03608575937
0.03762973696
-0.00665124022
-0.007557114771
0.0459327222
-0.0003495826998
-0.03958756879
0.03866248459
-0.006632030562
-0.03861192004
-0.004767685664
-0.007296954184
0.005739657507
0.02980497422
-0.03184873048
0.03219515256
-0.007643376266
-0.008077265559
-0.03310713188
0.03513062416
-0.001788021745
-0.0002354705313
-0.03045969931
-0.002328757489
-0.0003186750789
-0.03674389041
-0.003722620062
0.002365483123
-0.03472153307
-0.004387840462
-0.02954596317
-0.0001549624981
-0.02359703778
-0.006571450368
-0.0002912111624
-0.02339815605
-0.000198881733
-0.004266402301
0.004418754097
0.03914962977
0.04235702356
-0.004488608662
0.03931975335
-0.005878216203
-0.04005108613
0.02470517506
-0.000319605847
-0.03171746134
0.03904241392
-0.007074206868
-0.0002507457096
-0.003697043143
-0.0003162723095
0.02991876871
-0.02868980643
-0.004888183065
0.03218901422
0.03358121213
-0.006121528699
0.007907657677
-0.003483112332
0.005303321707
-0.006769842357
0.01399925082
0.001258755699
0.00664890198
0.007302759811
-0.03288528727
-0.0072626828
0.03923373548
-0.0316371312
-0.0002938444633
0.02656594625
-0.02011103992
-0.0001663925193
-0.004899670195
-0.000171514758
-0.006565118213
-0.0317201855
0.01858201113
-0.01934298585
0.03248116023
-0.02968122039
0.03060178058
0.02094839783
0.02647987114
-0.03227006509
-0.04703589795
0.04315713461
0.004070342538
-0.0001915791975
-0.0551365502
0.008431929019
-0.000331276769
-0.04187809605
0.04148557344
0.0004796910094
-8.716839096e-05
0.001466167893
-0.000187129341
0.0006628960086
0.04084366486
-0.0001985116312
-0.04624232043
0.04529454031
0.001610676128
-0.0473932835
0.002067190552
-0.04445524673
0.04376106613
0.001318325162
-0.0005614652359
0.001400758819
-0.0001206061341
-6.589793185e-05
0.03847363064
-0.0004653998311
-0.04348819795
0.04432405123
-0.0009017512121
-0.04289871144
-0.000562019243
-0.04518263757
0.0452356018
-0.003615834201
0.0009586629038
-0.001817249238
-0.0003763888764
0.00939737847
0.04835635919
1.595770397e-05
-0.04719120103
0.04897141459
0.007617164914
-0.04421498238
0.008789803976
-0.04860383679
0.003121309729
-0.004767938401
0.005135516202
-0.000228876032
0.0001214134042
0.03750304106
-0.0001080402812
-0.04141792069
0.04181513521
-0.0002758011195
-0.04100809769
-0.0002130941224
-0.04235570319
-0.0003803282079
-0.0002605763973
-0.0002799915798
-0.0004635528735
-0.04156937895
0.04269861888
-0.0007459743903
-0.0003832655315
4.782611515e-05
-0.0001316316318
-0.0461628517
0.05387823809
-0.007392747824
-0.0003226385643
-0.00330525076
-0.0001589820602
-0.01746065971
-0.0002341662713
0.01887062782
-0.0004078963456
-0.007495712288
-0.0003079624186
-0.008568532274
-0.000350400096
0.03607015247
-0.05626469173
-0.0006777962094
0.03756884618
-0.001498693715
0.02036747452
0.04427611506
-0.0007257687739
-0.03800312261
0.05654689376
0.02573234392
0.0258964515
-0.03566559465
-0.03574209265
0.03633336068
-0.0005912680341
0.02134397061
-0.0005391695057
-0.001749435654
-0.0002598461784
-0.02204282921
-0.0003890589573
-0.005946442387
-0.0002572614305
-0.029093514
-0.00742475878
-0.008965930715
-0.01106471236
-0.03268724211
-0.007600798864
-0.0002651218901
-0.0002636427123
-0.005065864006
-0.0001918954777
-0.04438207176
0.06105608574
0.01630741919
-0.01383661444
0.01521089085
-0.0002961812662
-0.01204392436
-0.04662409703
0.01200090724
0.04397759977
-0.04575969647
0.0607105946
-0.04878390795
0.008581279286
-0.0005019456264
0.0129134234
-0.0006412456097
0.00295572104
0.03496493259
-0.0001752506496
-0.04003493858
0.03882145081
0.004169208811
-0.04103639581
0.002228918057
-0.03895710723
0.01070672385
-0.008385346493
0.008249690069
-0.0002086514351
0.0005078896303
0.0394628837
-0.0001604375723
-0.04309084431
0.04243560188
0.001163132059
0.001223944994
-0.04180054985
0.001442218848
-0.0005700423134
0.00120509434
-0.000260408911
-0.001249460034
9.280839273e-05
0.0407827692
-0.04009979239
-0.002266290945
0.0411166233
-0.03918141344
-0.002727942457
-0.03602790698
-0.0002695465183
-0.0002678187179
-0.0003905380389
0.02393219656
-0.04987326737
-0.009656503812
0.0241833476
-0.0002511510432
0.03117662994
-0.0004469622563
-0.007704741309
-0.000268357632
-0.02506895235
-0.00706382851
-0.0001290142444
-0.02470162166
-0.0003673306966
-0.009778530831
0.03664810234
-0.04329100402
0.04026434443
-0.00675187124
-0.005800693249
-0.03883323931
-0.003950758286
0.00719573356
-0.005764628436
0.04384861498
-0.03602197312
-0.0002683875044
-0.009368421847
0.02114247635
-0.007812468601
0.02144467653
-0.0003022001862
-0.02767147113
0.03082146252
-0.0002087846425
-0.0001890739088
0.002992377107
-0.005264578136
0.0316681543
-0.0002931069995
-0.0003628576893
-0.03677638802
-0.006641615831
0.03649039954
0.009352236908
-0.00746614034
0.003930059567
0.04335218701
-0.001733526544
-0.0453223304
0.04391212541
0.005340264561
0.005552136448
-0.04660223297
-0.04310528067
0.007877619205
-0.005408303101
0.006215147836
-0.003405918619
-0.03974916534
-0.000560842993
2.279291431e-05
-0.003230550979
-0.04795471108
0.005921388325
0.04116139129
-0.04397186831
-0.0004200739639
0.03770515154
-0.0001966047409
0.04965485249
-0.0002664220986
0.006051280618
-0.0003682964422
0.007648979301
-0.05871287393
0.01022902662
-0.0002709952114
0.0292185229
-6.530546298e-05
0.02960512206
-0.0003865991542
0.01245154026
0.0001605103974
0.0373088607
-0.0002787802943
-0.03986992075
0.04026194651
-0.0002315153576
-0.03934272359
-0.0004871336408
-0.04057997815
-0.0001584979496
-0.0001287609922
-0.0001892706503
-0.0001017952962
-0.007555209887
0.03376051905
-0.0002230653834
-0.03792687445
0.03761556628
-0.007243901715
-0.009701360241
-0.03859994117
-0.001299321807
0.002241975479
-0.00322635037
-0.000261174575
-0.03916277313
0.04705328109
-0.007789776186
-0.0001007317729
-0.003873461443
-0.0001586875294
-0.006340564971
-0.0002090091981
-0.03397263658
-0.007089461463
-0.00954279875
0.0005028577072
-0.03933087083
-0.001926481098
0.03518837175
-0.03446933981
-0.0002161742319
0.03671250701
-0.0003404841016
0.03354307688
-0.0004022970145
-0.0006260207004
-0.0003002422296
-0.002202649951
0.009919285106
-0.04147235041
-0.007535091822
0.0352315628
-0.04871043375
0.0359638614
0.04067573045
-0.0003055841993
-0.007815332081
-0.0002193712116
-0.006519280771
-0.00401064143
0.03435006451
-0.000220756802
-0.03491494496
0.03647596231
-0.005571658778
-0.03262657046
-0.005254609545
-0.03620055762
-0.008197130101
0.03484495861
0.007489361922
-0.007213957231
-0.0002698737101
-0.03510151422
0.04283121416
-0.007496416097
-0.0002332838398
-0.003974125697
-0.0003059260041
-0.03143949656
-0.007123232639
0.02068913521