/*--------------------------------*- C++ -*----------------------------------*\
| =========                 |                                                 |
| \\      /  F ield         | OpenFOAM: The Open Source CFD Toolbox           |
|  \\    /   O peration     | Version:  v2012                                 |
|   \\  /    A nd           | Website:  www.openfoam.com                      |
|    \\/     M anipulation  |                                                 |
\*---------------------------------------------------------------------------*/
FoamFile
{
    version     2.0;
    format      ascii;
    class       volScalarField;
    location    "0";
    object      k;
}
// * * * * * * * * * * * * * * * * * * * * * * * * * * * * * * * * * * * * * //

dimensions      [0 2 -2 0 0 0 0];


internalField   nonuniform List<scalar> 
3259
(
34.8481
34.8601
34.8913
34.9596
35.0816
35.2945
35.6828
36.2126
37.0071
38.1404
39.9141
40.9394
34.7146
34.7287
34.7648
34.8422
34.9794
35.2223
35.6521
36.2381
37.1156
38.381
40.2547
39.2379
34.5853
34.6016
34.6424
34.7282
34.877
35.1433
35.6071
36.238
37.1903
38.5627
40.4277
32.9844
34.4588
34.4771
34.5223
34.6157
34.7755
35.062
35.554
36.223
37.241
38.6937
40.2156
28.3426
34.334
34.354
34.403
34.5031
34.6728
34.9761
35.4904
36.1886
37.2501
38.7145
39.6625
24.5969
34.2096
34.2311
34.2834
34.389
34.5674
34.8843
35.4152
36.1337
37.2174
38.6223
38.89
21.8452
34.0848
34.1075
34.1626
34.2728
34.4586
34.786
35.3289
36.0602
37.149
38.4495
37.9765
19.8593
33.9591
33.9828
34.0402
34.154
34.3459
34.6816
35.2327
35.9709
37.0518
38.2184
36.9983
18.4189
33.8321
33.8566
33.9159
34.0328
34.2296
34.5715
35.1281
35.8689
36.9313
37.9435
36.0106
17.3596
33.704
33.7291
33.7899
33.9093
34.11
34.4567
35.0168
35.7569
36.7918
37.6339
35.0408
16.5672
33.5747
33.6004
33.6625
33.7839
33.9877
34.3381
34.9002
35.6369
36.6368
37.2959
34.1063
15.9632
33.4446
33.4706
33.5338
33.6571
33.8634
34.2167
34.7797
35.5105
36.4683
36.9368
33.2175
15.4942
33.3137
33.3402
33.4043
33.5293
33.7376
34.0932
34.6562
35.3791
36.2878
36.5647
32.3798
15.1233
33.1825
33.2093
33.2743
33.4009
33.6109
33.9684
34.5309
35.2435
36.0963
36.1855
31.5946
14.825
33.0511
33.0783
33.1441
33.2723
33.4837
33.8429
34.4041
35.1043
35.8951
35.803
30.8611
14.5815
32.9198
32.9473
33.014
33.1437
33.3564
33.717
34.2764
34.9617
35.6858
35.4202
30.177
14.3803
32.7888
32.8166
32.8841
33.0154
33.2293
33.5912
34.1479
34.8159
35.4701
35.0392
29.5392
14.2127
32.6582
32.6864
32.7547
32.8876
33.1025
33.4655
34.0189
34.6671
35.2496
34.6614
28.9439
14.0722
32.5282
32.5568
32.626
32.7604
32.9764
33.3402
33.8893
34.5156
35.0255
34.288
28.3874
13.9546
32.399
32.428
32.498
32.6339
32.8509
33.2154
33.7593
34.3616
34.7989
33.9197
27.8657
13.8567
32.2706
32.3
32.3709
32.5085
32.7263
33.0913
33.6289
34.2055
34.5705
33.5572
27.3754
13.7762
32.143
32.1728
32.2447
32.3839
32.6027
32.9679
33.4981
34.0476
34.3411
33.2007
26.9129
13.7115
32.0175
32.0477
32.1205
32.2611
32.48
32.8452
33.3671
33.8882
34.111
32.8505
26.475
13.6616
31.8986
31.9292
32.003
32.145
32.3597
32.7243
33.2366
33.7277
33.881
32.5065
26.0586
13.6258
40.9878
39.7222
39.8402
41.1434
40.1832
40.4575
41.0873
40.5691
31.8409
33.1851
36.078
33.2864
32.444
40.5715
31.7859
40.5142
32.2778
63.1809
32.368
32.2329
48.1366
32.4672
38.4759
37.9607
39.1386
38.6492
32.561
34.571
39.7385
39.2935
39.877
34.698
33.4748
33.3744
37.794
36.9171
33.0205
35.7746
39.4464
42.9062
31.9345
56.2901
43.7602
54.0519
31.8992
46.8114
40.6838
40.4127
39.3562
40.3273
38.2633
32.0988
40.3327
32.0565
35.1495
34.778
58.1368
44.0624
33.8421
32.7599
38.0347
36.0622
35.0245
34.6584
34.2853
31.6771
40.2123
32.3875
66.2606
40.3666
39.2602
43.9048
32.1567
32.1324
35.7392
35.2691
32.1396
32.8204
36.2536
35.8751
33.7506
32.9187
31.6862
34.1344
33.2142
61.3838
63.5845
32.4837
62.0431
55.6524
40.9613
32.0888
56.5641
47.0483
62.4365
48.4585
32.146
36.7416
36.3761
32.9113
33.7633
37.2642
36.8655
32.5212
32.4895
32.5301
32.3044
32.2981
32.5797
32.5588
32.1984
37.7812
37.4007
34.0038
35.0374
38.2258
37.8962
32.592
32.6602
33.5691
33.2588
32.4632
32.5256
32.1471
31.9533
32.1123
103.504
33.6765
40.4388
54.0116
50.8914
32.4966
32.5077
31.9781
57.0877
58.3749
58.2258
51.8023
31.8835
32.4757
32.4836
43.5185
32.9261
32.9271
32.9723
32.6301
32.4735
32.4896
32.9605
32.148
41.5337
31.7008
32.2056
32.1326
32.327
66.4941
65.9173
64.4313
65.3507
61.5876
32.5521
32.5763
32.2281
32.1629
32.872
32.833
32.9202
32.9029
32.3839
32.4096
33.1126
32.7164
32.7316
32.7913
32.751
32.0561
31.961
31.7715
59.7613
77.7839
79.0208
71.7899
73.9858
61.6015
32.7746
59.6829
51.6365
53.2618
32.0289
32.5133
32.5285
56.9898
59.5329
59.9653
54.9932
57.2734
62.3551
59.9011
50.0587
57.5863
55.3972
32.7745
32.5272
31.9287
36.2107
36.7663
36.9867
37.7749
38.092
39.3198
36.2358
36.8512
36.7816
37.0941
37.9732
37.815
38.33
39.6751
39.3949
39.9896
40.6572
40.5692
40.7843
39.5239
39.8979
36.2392
36.9105
36.8679
37.1727
38.131
38.0153
38.5209
39.9342
39.7488
40.3218
40.7744
40.8153
39.0268
35.5748
36.5581
36.2285
36.9485
36.9225
37.2319
38.2561
38.166
38.6676
40.0122
39.9773
40.308
36.1532
38.6307
29.4426
36.1992
36.9544
36.9533
37.2519
38.3148
38.2802
38.7214
39.7934
39.9822
39.8245
32.8083
35.2985
25.4333
36.1493
36.9254
36.9503
37.2292
38.2806
38.3141
38.654
39.3733
39.7037
39.0992
29.7878
32.0168
22.4516
36.0802
36.8655
36.9131
37.1691
38.1743
38.26
38.4989
38.8204
39.2459
38.214
27.1826
29.097
20.297
35.9945
36.7802
36.8464
37.0785
38.0139
38.1387
38.2807
38.1728
38.666
37.2452
24.9811
26.5959
18.7379
35.8955
36.6743
36.7555
36.9633
37.8122
37.9669
38.0157
37.4682
38.0004
36.2567
23.1353
24.4885
17.5957
35.7857
36.5517
36.645
36.8283
37.5784
37.7565
37.7142
36.7419
37.2876
35.2805
21.59
22.7229
16.745
35.6675
36.4155
36.5188
36.6768
37.3182
37.5156
37.3827
36.0142
36.5596
34.336
20.2941
21.2445
16.0998
35.5426
36.2678
36.3796
36.5116
37.0356
37.2495
37.0281
35.2969
35.8335
33.4351
19.2037
20.0038
15.601
35.4124
36.1102
36.2293
36.334
36.735
36.9619
36.6586
34.5981
35.1202
32.5843
18.2828
18.9588
15.2084
35.2778
35.9435
36.0694
36.1452
36.4219
36.6577
36.2807
33.9233
34.427
31.7859
17.5017
18.0754
14.8938
35.1394
35.7684
35.9005
35.9462
36.1008
36.3422
35.8988
33.2756
33.7588
31.0397
16.8368
17.3254
14.638
34.9976
35.5857
35.7234
35.7388
35.775
36.0197
35.5159
32.6564
33.1181
30.3436
16.269
16.6864
14.4272
34.8526
35.3965
35.5389
35.5245
35.4469
35.6931
35.1342
32.0662
32.5062
29.6946
15.7828
16.1403
14.2518
34.7046
35.202
35.3483
35.3051
35.1183
35.3647
34.7555
31.5043
31.9231
29.089
15.3657
15.6724
14.1051
34.5537
35.0032
35.1526
35.0818
34.7905
35.0362
34.3809
30.9695
31.3681
28.5231
15.0076
15.271
13.9821
34.4003
34.8012
34.953
34.8558
34.4645
34.7088
34.0113
30.4605
30.8399
27.9931
14.7002
14.9263
13.8795
34.2447
34.5967
34.7503
34.6277
34.1411
34.3834
33.6473
29.9755
30.3371
27.4952
14.4367
14.6305
13.7948
34.0872
34.3903
34.5452
34.3985
33.8208
34.0607
33.2893
29.5125
29.8577
27.0261
14.2112
14.3769
13.7263
33.9282
34.1827
34.3385
34.1686
33.504
33.7413
32.9374
29.0698
29.4
26.5823
14.0192
14.1603
13.6728
33.7679
33.9742
34.1306
33.9384
33.191
33.4254
32.5919
28.6455
28.9621
26.1608
13.8565
13.9759
13.6335
33.6162
33.7767
33.9221
33.7203
32.894
33.1134
32.264
28.245
28.5421
25.7642
13.7202
13.8201
13.608
40.0164
40.3541
41.1308
36.8229
37.4678
39.9774
38.7685
40.538
40.4291
39.7673
41.2938
40.7263
40.7848
40.7948
40.6864
40.0812
40.843
40.8744
40.9268
40.8033
40.8571
40.9085
38.9887
39.3929
40.7324
31.9058
32.5172
32.4294
34.4126
34.2984
33.0929
28.0409
30.8419
37.8006
41.5115
36.9928
38.7107
38.7269
33.406
34.6747
34.5351
38.3295
35.1466
41.175
40.46
44.0956
31.8199
31.7736
32.35
32.2764
31.739
40.2223
38.1325
38.8526
63.1774
62.1194
67.4016
33.4792
33.3159
32.3552
38.2991
36.9526
37.1869
36.0026
36.6011
38.1258
38.9798
37.834
38.0375
37.4126
37.6262
38.8168
32.6466
33.733
33.6136
35.7997
35.6465
34.4232
39.5945
38.6372
38.8273
38.238
38.4386
39.4457
40.1405
39.3419
39.0066
39.1778
40.0108
34.8152
36.069
35.9381
37.6186
35.4199
35.848
34.29
35.2637
37.3941
39.7227
42.0628
41.5062
47.1897
46.0571
42.1621
44.7284
49.8861
48.4571
45.5852
42.6531
40.7525
40.7799
40.3759
39.5693
40.8182
40.6469
40.935
40.9171
39.8083
35.1164
35.8056
38.6721
33.5238
31.7741
31.2114
34.6139
33.2267
38.4483
32.7519
32.6208
31.9789
35.0224
33.7435
33.8925
33.5127
33.6205
34.8986
50.5055
38.8042
39.9186
39.752
40.2211
47.5166
32.8629
32.9374
33.9375
34.3732
34.4561
38.0718
35.7367
33.4477
33.6419
32.6051
33.0287
35.4001
34.5386
33.3146
33.4122
33.1084
33.2158
34.4162
39.2229
40.8451
48.4161
47.1737
52.0697
53.7815
41.2801
92.5265
102.333
35.5907
34.4582
34.6245
34.071
34.2678
35.4303
32.2199
33.1156
32.9193
33.9608
33.8475
32.7321
36.1295
35.0301
35.1561
34.7693
34.9021
36.0043
33.6605
32.7279
32.7945
33.929
32.8063
32.9824
32.3587
32.585
33.6245
48.9061
50.1873
57.3574
41.5208
45.0444
44.1395
53.1816
51.4787
45.8174
36.6196
35.5302
35.6559
35.2816
35.4062
36.4985
33.0026
34.1866
34.0741
35.0435
34.8426
33.5598
37.1264
36.0829
36.2523
35.7869
35.9276
36.9937
37.6604
36.7473
36.8888
36.4261
36.5934
37.5345
34.2383
35.4683
35.2614
36.321
36.1962
34.9275
38.1182
37.2829
37.4132
37.0228
37.1533
38.0092
43.3259
42.6119
40.0307
52.8514
46.7113
47.7355
45.3533
45.9308
51.4529
44.4929
32.7358
32.9118
32.9822
32.1516
32.5458
32.4552
39.8654
34.1926
34.0489
76.3149
79.2485
58.5201
68.0046
80.1824
78.4184
79.5182
81.004
67.5182
35.1366
35.2199
35.336
35.4947
35.7038
36.051
35.0315
35.128
35.1702
35.2618
35.4419
35.4629
35.6723
36.0591
36.0488
36.2151
36.3957
36.3889
37.0282
37.2806
37.2536
38.1905
38.5663
38.5064
40.8879
40.6689
40.7377
34.9278
35.0352
35.0809
35.1829
35.3795
35.411
35.6304
36.0477
36.0573
36.2392
36.4382
36.433
37.1353
37.4138
37.3883
38.4296
38.8486
38.7912
34.8262
34.9434
34.9889
35.1031
35.314
35.3474
35.5817
36.0245
36.0429
36.2359
36.4503
36.4488
37.2062
37.5052
37.4841
38.6015
39.0454
39.0026
40.4163
40.5792
40.6866
31.7869
25.533
26.6708
34.7243
34.8499
34.8965
35.0197
35.2424
35.2791
35.5236
35.9856
36.016
36.2163
36.443
36.447
37.2474
37.5666
37.5561
38.7117
39.1473
39.1368
40.1029
39.8125
40.0479
27.3058
22.8025
23.2914
34.6205
34.7531
34.8016
34.931
35.1629
35.2037
35.4543
35.9293
35.973
36.1768
36.412
36.4221
37.2456
37.5738
37.577
38.7006
39.0836
39.1133
39.4867
38.6549
38.9711
23.8235
21.561
21.7912
34.5135
34.6517
34.7026
34.836
35.0747
35.1199
35.3734
35.8563
35.9124
36.117
36.3574
36.3731
37.2034
37.5305
37.5456
38.5856
38.8955
38.9517
38.672
37.2854
37.6378
21.2864
20.956
21.071
34.4027
34.5455
34.5989
34.7346
34.9782
35.0275
35.2819
35.7688
35.8356
36.0392
36.2821
36.3026
37.1272
37.4459
37.4704
38.3965
38.6228
38.6974
37.7352
35.8646
36.2189
19.4555
20.6415
20.7034
34.2882
34.4345
34.4903
34.6272
34.8744
34.9272
35.1813
35.6693
35.7449
35.9465
36.1898
36.2143
37.0237
37.3281
37.3603
38.1533
38.2894
38.3775
36.7509
34.4749
34.8168
18.1236
20.459
20.4973
34.1701
34.3192
34.3771
34.5147
34.7642
34.82
35.0732
35.5603
35.6428
35.8418
36.084
36.1116
36.898
37.1839
37.2221
37.8691
37.9091
38.0081
35.7656
33.1565
33.4779
17.1401
20.3312
20.3606
34.0491
34.2004
34.26
34.3978
34.649
34.7072
34.9591
35.4438
35.5318
35.7276
35.9673
35.9974
36.7544
37.0182
37.0614
37.5518
37.4926
37.5994
34.8034
31.9305
32.2278
16.4009
20.2197
20.2473
33.9257
34.0787
34.1397
34.2777
34.5299
34.5899
34.8404
35.3215
35.4137
35.6058
35.8418
35.8739
36.5958
36.8347
36.8821
37.2077
37.0524
37.164
33.8796
30.8043
31.0765
15.835
20.1058
20.1351
33.8006
33.955
34.017
34.1551
34.4079
34.4692
34.7182
35.1946
35.2901
35.4781
35.7093
35.743
36.4243
36.6355
36.6867
36.8448
36.6001
36.7138
33.0032
29.777
30.0247
15.3934
19.9814
20.0137
33.6743
33.8299
33.8925
34.0309
34.284
34.3461
34.5937
35.0642
35.1623
35.3456
35.5707
35.6059
36.2409
36.4222
36.4768
36.4704
36.1428
36.2573
32.1786
28.8431
29.0682
15.0427
19.844
19.8796
33.5473
33.704
33.767
33.9057
34.1589
34.2215
34.4676
34.9311
35.0312
35.209
35.4269
35.4633
36.0469
36.1967
36.2541
36.09
35.6854
35.7996
31.4064
27.9953
28.1997
14.7595
19.6939
19.7325
33.42
33.5777
33.6408
33.78
34.033
34.096
34.3403
34.7955
34.8974
35.069
35.2783
35.3159
35.8434
35.9615
36.0211
35.7073
35.2313
35.3444
30.6856
27.2253
27.411
14.5277
19.5332
19.5742
33.2928
33.4513
33.5144
33.6541
33.9068
33.9699
34.2122
34.6577
34.7612
34.9255
35.1251
35.1638
35.6324
35.719
35.7802
35.3248
34.783
34.8944
30.0134
26.5248
26.6938
14.3356
19.3642
19.4071
33.1658
33.3251
33.3881
33.5283
33.7805
33.8436
34.0835
34.5177
34.6228
34.779
34.9677
35.0074
35.4154
35.4713
35.5336
34.9444
34.3422
34.4516
29.3866
25.8857
26.0401
14.1752
19.1899
19.2339
33.0393
33.1993
33.2621
33.4028
33.6542
33.7173
33.9541
34.3756
34.4823
34.6295
34.8065
34.8471
35.1939
35.2199
35.283
34.5676
33.9101
34.0173
28.8013
25.3007
25.4423
14.0408
19.0129
19.0573
32.9135
33.0742
33.1366
33.2778
33.528
33.5911
33.8243
34.2317
34.3398
34.4773
34.642
34.6834
34.9691
34.9662
35.0298
34.1954
33.4875
33.5923
28.2538
24.7631
24.8934
13.9284
18.8357
18.8799
32.7884
32.9497
33.0118
33.1533
33.4022
33.4651
33.6941
34.0861
34.1955
34.3228
34.4747
34.5167
34.7419
34.7111
34.775
33.8285
33.0748
33.1771
27.7404
24.2669
24.3874
13.835
18.6605
18.704
32.6643
32.8261
32.8878
33.0295
33.2766
33.3393
33.5636
33.939
34.0494
34.1662
34.305
34.3476
34.5132
34.4554
34.5194
33.4675
32.6722
32.7719
27.2573
23.8066
23.9186
13.7586
18.4896
18.5318
32.5412
32.7034
32.7646
32.9065
33.1514
33.214
33.4326
33.7905
33.902
34.0079
34.1335
34.1765
34.2836
34.1997
34.2636
33.1126
32.2795
32.3767
26.8012
23.3774
23.482
13.6977
18.3247
18.3652
32.4191
32.5817
32.6424
32.7843
33.0267
33.089
33.3016
33.6411
33.7533
33.8481
33.9604
34.0038
34.0535
33.9446
34.0083
32.7639
31.8965
31.9914
26.369
22.975
23.0733
13.6514
18.1674
18.2059
32.3066
32.4685
32.5221
32.6702
32.9098
32.9652
33.1777
33.5001
33.6036
33.6876
33.7865
33.8299
33.8237
33.6905
33.7538
32.4216
31.5231
31.6155
25.9576
22.5955
22.6885
13.619
18.0194
18.0555
40.805
40.8709
41.0372
39.0618
39.1744
39.8088
41.1969
41.1422
41.1214
40.5557
40.87
40.8272
41.0992
41.0758
41.0291
40.2307
40.3061
40.6249
41.2619
41.1779
40.4533
40.0729
40.1539
41.2397
40.7773
40.7144
40.185
31.985
32.1299
39.8347
54.6361
58.1905
60.5821
39.8154
41.2172
42.7821
40.0568
36.3827
36.3767
36.2089
36.7512
36.5569
36.5674
37.2275
37.2017
36.9666
37.7355
37.4567
37.4889
38.4486
38.392
38.0445
39.2458
38.7887
38.8549
36.4263
36.4087
36.2233
36.8217
36.6076
36.6308
36.5781
36.5894
36.7977
37.361
37.3175
37.0581
37.9106
37.6002
37.6526
37.5216
37.5553
37.8564
38.7308
38.6432
38.2555
39.5685
39.0812
39.181
38.9226
38.9923
39.4718
40.5272
40.5987
40.8375
39.6517
40.2216
40.1254
40.4077
40.3158
39.7764
36.4462
36.4426
36.2396
36.8973
36.6614
36.6694
36.6423
36.6522
36.8829
37.4619
37.4384
37.1543
38.094
37.7502
37.78
37.6868
37.719
38.0553
38.955
38.9035
38.4764
39.8802
39.376
39.432
39.2499
39.3149
39.8176
37.9428
37.7418
36.2609
36.4494
36.4505
36.2327
36.9418
36.6862
36.6887
36.6764
36.682
36.933
37.5422
37.5249
37.2203
38.2289
37.8594
37.8823
37.8083
37.8348
38.1988
39.114
39.0828
38.6366
40.0199
39.5567
39.5788
39.4815
39.5235
40.0068
40.2556
40.4336
40.3767
37.0041
39.7325
39.3166
40.4064
40.0994
37.837
23.8888
24.6231
30.5963
34.5422
33.9411
36.289
35.304
36.4306
36.4376
36.2084
36.9562
36.6861
36.6815
36.6896
36.6887
36.9559
37.577
37.5735
37.251
38.3095
37.9261
37.9314
37.9016
37.9162
38.2981
39.1344
39.1461
38.7207
39.8708
39.552
39.5159
39.5857
39.5758
39.9343
39.2711
39.5524
39.9718
33.6212
37.8573
37.3283
38.8599
38.3705
34.4525
22.0674
22.4001
26.3358
32.7262
32.4409
33.4572
33.0597
36.3875
36.4005
36.1637
36.9358
36.6571
36.6455
36.6752
36.667
36.9441
37.5579
37.5674
37.2386
38.2967
37.9216
37.9104
37.9323
37.9289
38.308
39.0022
39.0464
38.6802
39.4927
39.3468
39.2737
39.4689
39.4122
39.6031
37.9853
38.3253
39.2985
30.5053
35.709
35.1726
36.7902
36.249
31.2484
21.207
21.3686
23.1098
31.7697
31.5849
32.1919
31.9703
36.3221
36.3403
36.0991
36.8831
36.6012
36.5834
36.6323
36.6175
36.899
37.4928
37.5129
37.1872
38.2066
37.8561
37.8317
37.8956
37.8774
38.2352
38.768
38.8341
38.5444
38.9689
39.0145
38.9166
39.1935
39.1069
39.1109
36.5746
36.9305
38.4462
27.7947
33.6045
33.0998
34.6422
34.1189
28.4326
20.775
20.8584
20.7716
31.0921
30.9408
31.4122
31.2486
36.2378
36.2605
36.0173
36.8036
36.5224
36.4996
36.5643
36.544
36.8257
37.3907
37.4192
37.1037
38.0583
37.7425
37.7079
37.8046
37.7748
38.0999
38.4626
38.5444
38.3402
38.3416
38.5948
38.479
38.8139
38.7065
38.5062
35.1628
35.5123
37.4911
25.496
31.6527
31.1943
32.6058
32.1234
26.034
20.5398
20.5874
19.0825
30.5074
30.3672
30.7936
30.6494
36.1384
36.1645
35.9213
36.7024
36.4251
36.3983
36.4758
36.4509
36.7295
37.259
37.2943
36.9942
37.8659
37.5915
37.5488
37.6711
37.6323
37.9175
38.1045
38.1983
38.0857
37.6475
38.1098
37.9805
38.3594
38.2362
37.8251
33.8051
34.1374
36.5036
23.5664
29.8931
29.4841
30.7481
30.3144
24.0173
20.3913
20.4239
17.8498
29.9533
29.8168
30.2283
30.0904
36.0268
36.0557
35.814
36.5837
36.3129
36.2829
36.3706
36.3422
36.6148
37.1035
37.1443
36.8637
37.6395
37.4108
37.3618
37.5044
37.4584
37.6989
37.7046
37.8079
37.7926
36.9242
37.5786
37.4413
37.8486
37.7145
37.1062
32.5313
32.8409
35.5222
21.9511
28.3291
27.9673
29.0872
28.7022
22.3284
20.2749
20.3028
16.9356
29.4103
29.2756
29.6809
29.5453
35.9055
35.9367
35.6978
36.4507
36.1887
36.1561
36.2522
36.2208
36.4851
36.9285
36.9739
36.7161
37.3855
37.2063
37.1519
37.3113
37.2594
37.4513
37.2746
37.3842
37.468
36.1955
37.0229
36.8822
37.3027
37.1632
36.3774
31.3549
31.6396
34.5684
20.5972
26.9483
26.6296
27.6169
27.2773
20.9138
20.1637
20.1919
16.2454
28.8741
28.7412
29.1414
29.0075
35.7764
35.8093
35.5744
36.3057
36.0547
36.0198
36.1228
36.089
36.343
36.7369
36.7863
36.5541
37.1081
36.9815
36.9224
37.0963
37.0394
37.1795
36.8272
36.9401
37.1184
35.4747
36.4581
36.3167
36.741
36.5996
35.6536
30.2785
30.5383
33.6558
19.4591
25.7323
25.4518
26.321
26.022
19.7256
20.0452
20.0759
15.7144
28.3457
28.2152
28.6088
28.477
35.6407
35.6751
35.4454
36.1505
35.9123
35.8755
35.9844
35.9486
36.1902
36.5305
36.5834
36.3795
36.8115
36.7388
36.6757
36.8622
36.801
36.8872
36.3717
36.486
36.752
34.7707
35.8933
35.7528
36.1753
36.0341
34.9448
29.2988
29.535
32.7921
18.4988
24.6617
24.4146
25.1801
24.9168
18.7241
19.9143
19.9483
15.2983
27.8275
27.6998
28.0852
27.956
35.4994
35.5352
35.3118
35.986
35.7626
35.7241
35.8383
35.8007
36.028
36.3108
36.3669
36.1934
36.5011
36.4813
36.4149
36.6117
36.5469
36.5797
35.9139
36.0283
36.3757
34.0896
35.3344
35.1961
35.6128
35.4733
34.2575
28.409
28.6234
31.9806
17.6852
23.7178
23.4996
24.175
23.9429
17.8763
19.7704
19.8076
14.9663
27.3216
27.1973
27.5729
27.4468
35.3532
35.3902
35.1743
35.8129
35.6062
35.5661
35.6852
35.6459
35.857
36.0802
36.1387
35.9968
36.1816
36.2124
36.1438
36.348
36.2804
36.2621
35.4578
35.5715
35.9945
33.4349
34.7857
34.6505
35.0586
34.9217
33.5959
27.6011
27.7959
31.2215
16.9932
22.8838
22.6907
23.288
23.0828
17.156
19.6147
19.6546
14.6973
26.8301
26.7096
27.074
26.9515
35.2022
35.2404
35.0334
35.632
35.4434
35.4018
35.5256
35.4847
35.6779
35.841
35.9015
35.7913
35.8567
35.9356
35.8654
36.0748
36.0053
35.9383
35.0063
35.1187
35.6116
32.8085
34.2502
34.1186
34.5162
34.3827
32.9624
26.8669
27.044
30.5131
16.4027
22.1449
21.9734
22.5033
22.3214
16.5418
19.4495
19.4916
14.4763
26.3543
26.2379
26.5901
26.4717
35.0469
35.0861
34.8892
35.4443
35.275
35.2321
35.3599
35.3176
35.4918
35.5957
35.6575
35.5786
35.529
35.6535
35.5824
35.795
35.7244
35.6111
34.5616
34.672
35.2294
32.2111
33.7298
33.6022
33.988
33.8584
32.3577
26.198
26.3595
29.8526
15.8974
21.488
21.3353
21.8069
21.6452
16.0165
19.2776
19.3211
14.2928
25.8952
25.7832
26.1226
26.0084
34.8875
34.9277
34.7419
35.251
35.1015
35.0574
35.1888
35.1453
35.2998
35.3459
35.4087
35.3604
35.2004
35.3682
35.2965
35.5111
35.4397
35.2826
34.125
34.2333
34.8498
31.6421
33.2255
33.1021
33.4756
33.3501
31.7818
25.5869
25.7347
29.2365
15.4641
20.9022
20.7657
21.1869
21.0426
15.5663
19.1016
19.1458
14.1394
25.4538
25.3462
25.6723
25.5625
34.7246
34.7657
34.5917
35.0533
34.9237
34.8787
35.0131
34.9685
35.1031
35.0933
35.1567
35.138
34.8723
35.0811
35.0092
35.2248
35.153
34.9542
33.6976
33.8036
34.4741
31.1008
32.7379
32.6186
32.9796
32.8582
31.2336
25.0264
25.1621
28.661
15.0921
20.3776
20.255
20.6328
20.5035
15.1798
18.9242
18.9685
14.0108
25.0303
24.9273
25.2398
25.1344
34.5587
34.6004
34.4389
34.852
34.7424
34.6966
34.8335
34.788
34.9026
34.8388
34.9025
34.9125
34.5458
34.7935
34.7215
34.9373
34.8654
34.6272
33.2799
33.3834
34.1032
30.5855
32.2669
32.1517
32.5004
32.3831
30.7119
24.5102
24.6354
28.1224
14.7727
19.906
19.7954
20.1357
20.0193
14.848
18.7477
18.7916
13.9034
24.6252
24.5268
24.8254
24.7247
34.3901
34.4325
34.2838
34.648
34.5583
34.5118
34.6507
34.6045
34.6992
34.5833
34.6472
34.6849
34.2217
34.5061
34.4344
34.6497
34.5778
34.3024
32.8722
32.9732
33.7377
30.0946
31.8122
31.701
32.0376
31.9244
30.2151
24.0326
24.1486
27.6169
14.4988
19.4799
19.3798
19.6877
19.5825
14.5633
18.5744
18.6173
13.8143
24.2386
24.1448
24.4295
24.3335
34.2195
34.2623
34.1268
34.442
34.3718
34.325
34.4653
34.4186
34.4937
34.3276
34.3915
34.4559
33.9006
34.2197
34.1483
34.3627
34.2912
33.9805
32.4746
32.5731
33.3782
29.6263
31.3732
31.2658
31.5908
31.4815
29.7413
23.5884
23.6965
27.1409
14.2643
19.0933
19.0021
19.282
19.1866
14.3195
18.4063
18.4477
13.7419
23.8707
23.7817
24.0523
23.9609
34.0471
34.0903
33.9681
34.2347
34.1837
34.1364
34.278
34.2309
34.2866
34.0721
34.1359
34.2261
33.5829
33.9348
33.8638
34.077
34.0058
33.662
32.0868
32.1829
33.0248
29.1787
30.949
30.8452
31.1593
31.0537
29.2888
23.1731
23.2744
26.691
14.0643
18.7405
18.657
18.913
18.8258
14.1113
18.245
18.2846
13.6848
23.5217
23.4374
23.6938
23.6072
33.8734
33.9169
33.808
34.0264
33.9943
33.9468
34.0891
34.0417
34.0785
33.8173
33.8809
33.996
33.2689
33.6518
33.5813
33.793
33.7223
33.3471
31.7086
31.8023
32.6777
28.75
30.5389
30.4384
30.7423
30.6401
28.8555
22.7826
22.8781
26.2643
13.8946
18.4168
18.34
18.5753
18.4953
13.9344
18.0922
18.1295
13.642
23.1916
23.112
23.3542
23.2723
33.709
33.7444
33.6488
33.8196
33.8059
33.7671
33.8993
33.852
33.8701
33.5756
33.6288
33.7679
32.9605
33.3728
33.3134
33.5111
33.4412
33.0362
31.3501
31.4321
32.3382
28.3387
30.1425
30.0535
30.3387
30.2399
28.4397
22.4166
22.504
25.858
13.7518
18.1182
18.0483
18.2646
18.1906
13.7851
17.95
17.9841
13.6131
22.8807
22.8084
23.0337
22.9565
40.1321
40.5851
40.4975
40.7536
40.6705
40.2445
41.0836
40.9352
40.9981
37.0551
38.2789
38.1242
38.5759
38.4193
37.2591
39.883
39.2775
39.3982
38.9384
38.849
41.1782
41.1611
41.2473
40.7459
40.9861
40.9837
40.9897
40.9882
40.7654
40.9994
40.9495
40.7309
40.897
40.9849
40.9912
40.955
40.9649
40.9157
40.8216
40.9913
40.9907
40.9919
40.9917
40.8393
40.9695
41.0517
41.0267
39.1239
39.826
39.7236
40.0273
39.9275
39.2594
40.6779
40.3809
40.4545
30.5188
29.7621
29.7514
37.2834
33.6484
34.3915
39.5965
38.8961
39.3119
38.6728
37.546
37.6837
38.4305
35.2571
36.5679
36.4448
41.0594
41.1193
41.2199
40.5625
40.9121
40.8341
40.9875
40.6617
34.1267
34.7467
46.7763
31.4928
31.566
31.8043
39.7517
39.9676
40.378
38.5275
39.3698
39.0709
39.6198
39.5109
38.7107
76.0116
73.5543
59.5
67.4436
73.8756
75.1191
36.1728
36.8657
36.7779
36.9841
36.9383
36.3677
35.5623
36.4687
36.3519
36.6811
36.577
35.7028
34.7504
35.774
35.3426
36.2212
36.0451
35.06
41.8928
40.9389
40.9222
40.9425
40.012
40.6344
40.5337
34.1702
31.7844
32.1899
31.071
31.4145
33.7099
39.0607
32.1298
32.2199
53.8806
55.93
51.9751
39.1172
43.7426
42.7141
45.9697
44.7961
39.5006
34.5907
34.2572
33.3313
39.4824
54.1955
46.2364
45.2799
46.1696
47.0322
55.2385
32.1602
32.9093
36.7096
40.6283
40.3824
40.4159
40.3154
40.3479
40.599
40.6191
40.6449
40.8347
35.9364
37.5277
37.2793
40.5052
40.2513
40.2821
40.1962
40.2211
40.4693
40.7707
40.5603
40.5913
40.4521
40.502
40.7273
28.7966
28.9466
28.1823
38.1526
38.4985
38.0732
38.6851
40.405
40.24
39.2881
40.8443
40.8898
40.9337
36.053
35.909
35.9031
36.0511
35.8925
35.8957
35.8978
35.8926
36.0476
36.0513
35.8778
35.8705
35.8907
35.8842
36.0548
36.0313
35.8458
35.8359
35.8631
35.8546
36.0378
35.9967
35.8018
35.7884
35.8255
35.8139
36.0072
35.9448
35.7432
35.7261
35.7744
35.7591
35.9597
35.8759
35.6699
35.6493
35.7083
35.6894
35.8948
35.7918
35.5833
35.5597
35.6282
35.6059
35.8142
35.6951
35.4855
35.4594
35.5357
35.5107
35.7204
35.5883
35.3786
35.3506
35.4331
35.4059
35.6159
35.4735
35.2646
35.235
35.3224
35.2935
35.5029
35.3525
35.1449
35.1142
35.2054
35.1751
35.3833
35.2266
35.0211
34.9895
35.0835
35.0522
35.2585
35.0971
34.8941
34.8619
34.9579
34.926
35.1298
34.9646
34.7649
34.7322
34.8298
34.7973
34.998
34.8296
34.6338
34.6007
34.6996
34.6666
34.8636
34.6923
34.5012
34.4677
34.5677
34.5344
34.7269
34.5528
34.3671
34.3333
34.4343
34.4006
34.5879
34.4113
34.2317
34.1975
34.2995
34.2655
34.4469
34.2679
34.0949
34.0604
34.1634
34.1291
34.3039
34.1226
33.957
33.9222
34.0261
33.9915
34.1591
33.9759
33.818
33.783
33.8876
33.8527
34.0127
33.8278
33.678
33.6428
33.7481
33.713
33.8649
33.6785
33.5373
33.5019
33.6078
33.5724
33.7159
33.5303
33.3981
33.3703
33.4668
33.4317
33.5664
35.7608
48.9593
40.2266
35.817
49.0443
40.1436
88.17
107.831
40.1829
40.8407
50.4844
36.9008
35.7604
48.7661
40.3776
48.9391
31.8235
35.9577
49.4008
39.887
97.5501
108.362
28.1518
87.2405
108.125
43.2694
36.1565
49.6266
39.6694
35.8002
48.3361
40.6376
35.7674
48.3261
40.6621
35.858
48.4173
40.5716
35.8603
48.4802
40.5457
35.7686
48.8569
40.2819
35.8155
49.2097
40.0672
87.18
108.649
44.314
35.8259
48.597
40.4543
35.8141
48.4728
40.5234
88.3592
107.759
40.7697
35.823
48.6673
40.4209
35.827
48.709
40.386
89.258
107.138
38.3201
38.1635
49.7904
38.5326
35.7564
48.3277
40.6699
35.7471
48.3377
40.6682
35.7795
48.4299
40.5849
35.8236
48.4551
40.568
35.7829
48.7156
40.356
35.819
49.3214
40.0034
95.4693
108.407
30.3616
96.674
107.958
29.264
87.3796
108.398
43.7895
35.7641
48.4061
40.5943
35.7762
48.4121
40.5783
88.1515
107.41
41.5094
35.8696
48.7964
40.3296
89.3699
107.388
37.5336
36.7609
49.8507
39.3001
38.4139
109.105
45.6223
108.907
45.1093
105.881
101.022
24.3988
35.7956
48.274
40.6185
93.2089
108.4
32.4555
104.682
22.6135
93.744
108.637
31.6525
35.774
48.3839
40.5946
35.7598
48.3513
40.6525
35.7852
48.3961
40.5749
35.814
48.3695
40.5657
87.8254
107.416
42.2653
90.8184
107.479
35.5134
90.249
107.49
36.333
46.1414
88.8506
107.073
39.1227
103.551
106.527
25.0258
40.7011
35.7506
48.2116
40.6753
35.8103
48.8061
40.3623
92.4257
108.002
33.3169
35.7653
48.3691
40.6168
35.7567
48.3588
40.6347
35.801
48.4065
40.5581
35.8151
48.4066
40.5509
91.1675
107.526
34.6568
100.313
108.84
26.6966
102.133
108.508
25.8009
56.6039
)
;

boundaryField
{
    topAndBottom
    {
        type            slip;
    }
    inlet
    {
        type            fixedValue;
        value           nonuniform List<scalar> 0();
    }
    outlet
    {
        type            inletOutlet;
        inletValue      uniform 37;
        value           nonuniform List<scalar> 
30
(
31.8986
31.9292
32.003
32.145
33.6162
33.7767
33.7203
32.894
32.264
28.245
25.7642
13.7202
13.608
32.3066
32.4685
32.6702
32.9098
33.1777
33.5001
33.709
33.7671
33.5756
33.3134
31.3501
30.0535
22.4166
18.0483
17.95
22.8084
33.3703
)
;
    }
    wing
    {
        type            kqRWallFunction;
        value           nonuniform List<scalar> 
70
(
58.5201
40.2266
40.1436
40.1829
36.9008
40.3776
31.8235
39.887
28.1518
43.2694
39.6694
40.6376
40.6621
40.5716
40.5457
40.2819
40.0672
44.314
40.4543
40.5234
40.7697
40.4209
40.386
38.3201
38.5326
40.6699
40.6682
40.5849
40.568
40.356
40.0034
30.3616
29.264
43.7895
40.5943
40.5783
41.5094
40.3296
37.5336
39.3001
38.4139
45.6223
45.1093
24.3988
40.6185
32.4555
22.6135
31.6525
40.5946
40.6525
40.5749
40.5657
42.2653
35.5134
36.333
46.1414
39.1227
25.0258
40.7011
40.6753
40.3623
33.3169
40.6168
40.6347
40.5581
40.5509
34.6568
26.6966
25.8009
56.6039
)
;
    }
    front
    {
        type            empty;
    }
    back
    {
        type            empty;
    }
    procBoundary1to0
    {
        type            processor;
        value           nonuniform List<scalar> 
49
(
34.9873
34.9967
35.0223
35.0808
35.0808
35.1934
35.3789
35.7258
41.305
41.305
40.2673
32.9291
39.6939
40.381
41.336
40.7082
40.7582
34.0388
33.0209
39.5004
35.2704
35.5279
36.2073
36.3708
36.9467
37.1761
37.998
38.3369
36.691
35.3707
41.236
36.7364
36.5466
37.6968
37.4248
39.1729
38.7242
41.1933
40.9809
38.5252
37.8294
41.0601
40.176
36.0555
35.9148
40.714
35.7249
48.1993
48.1993
)
;
    }
    procBoundary1to3
    {
        type            processor;
        value           nonuniform List<scalar> 
136
(
43.4734
49.4146
38.6172
42.6046
39.1618
38.9838
38.6172
38.5909
54.2586
52.4744
54.844
38.7488
49.4146
40.5761
54.7629
50.758
42.4579
42.9381
41.4458
42.2264
40.3399
41.1715
39.2508
40.0642
38.21
38.9855
37.2245
37.9584
36.2932
36.9867
35.4126
36.0684
34.5789
35.1999
33.7888
34.3774
33.0391
33.5977
32.3274
32.8578
31.6514
32.1552
31.009
31.4877
30.3987
30.8535
29.8188
30.2509
29.2681
29.6785
28.7454
29.1349
28.2496
28.619
27.7799
28.1298
27.3354
27.6664
26.9205
27.2282
38.5909
38.5909
39.6145
39.8196
39.9744
40.7661
41.8247
40.0957
40.147
39.9744
38.7488
38.6855
38.7488
41.1494
39.3904
38.8496
42.6632
42.8298
41.7153
41.977
40.6171
40.8947
39.5192
39.7904
38.4651
38.7236
37.4657
37.7103
36.5211
36.7523
35.6282
35.8468
34.7831
34.9901
33.9824
34.1786
33.2229
33.4091
32.5019
32.6787
31.8172
31.9851
31.1665
31.3261
30.5484
30.7
29.961
30.105
29.4032
29.5399
28.8735
29.0033
28.3711
28.4942
27.8949
28.0116
27.4442
27.5545
27.0186
27.1225
39.2122
39.4062
40.2749
40.3652
40.0333
39.6913
38.7508
40.4503
40.5137
40.4418
86.8423
86.983
109.257
86.8423
109.257
46.9303
)
;
    }
}


// ************************************************************************* //
