/*--------------------------------*- C++ -*----------------------------------*\
| =========                 |                                                 |
| \\      /  F ield         | OpenFOAM: The Open Source CFD Toolbox           |
|  \\    /   O peration     | Version:  v2012                                 |
|   \\  /    A nd           | Website:  www.openfoam.com                      |
|    \\/     M anipulation  |                                                 |
\*---------------------------------------------------------------------------*/
FoamFile
{
    version     2.0;
    format      ascii;
    class       volScalarField;
    location    "0";
    object      nut;
}
// * * * * * * * * * * * * * * * * * * * * * * * * * * * * * * * * * * * * * //

dimensions      [0 2 -1 0 0 0 0];


internalField   nonuniform List<scalar> 
3259
(
1.14689
1.14654
1.14663
1.14745
1.14874
1.15194
1.15773
1.16426
1.00372
0.77337
0.615276
0.419075
1.14647
1.14613
1.14628
1.14725
1.1488
1.15248
1.15887
1.16574
1.04621
0.794052
0.577652
0.217142
1.14611
1.14577
1.14598
1.14709
1.14885
1.15291
1.15978
1.16688
1.15511
0.89749
0.676695
0.0425717
1.14578
1.14544
1.1457
1.14693
1.1489
1.15329
1.16054
1.16774
1.16681
1.10645
0.756551
0.032457
1.14547
1.14513
1.14543
1.14676
1.14891
1.15359
1.16112
1.16825
1.16599
1.10828
0.629163
0.0293042
1.14518
1.14483
1.14515
1.14657
1.14888
1.15379
1.1615
1.1684
1.16414
1.08508
0.518721
0.0283406
1.14489
1.14453
1.14485
1.14633
1.14878
1.15387
1.16167
1.16821
1.1612
1.05615
0.436779
0.028423
1.14459
1.14422
1.14454
1.14606
1.14861
1.15385
1.16167
1.16772
1.15714
1.02277
0.38199
0.0291145
1.14429
1.14392
1.14423
1.14577
1.14839
1.15374
1.16152
1.16696
1.15194
0.985418
0.34538
0.0302016
1.14399
1.14361
1.14392
1.14547
1.14814
1.15354
1.16123
1.16595
1.14558
0.943327
0.31919
0.0315625
1.14367
1.1433
1.1436
1.14517
1.14786
1.1533
1.16084
1.16469
1.13793
0.89851
0.299712
0.0331207
1.14335
1.14299
1.14329
1.14487
1.14759
1.15304
1.16038
1.16319
1.12856
0.85656
0.284927
0.0348258
1.14301
1.14267
1.14299
1.14458
1.14732
1.15276
1.15985
1.16139
1.11697
0.820344
0.273566
0.0366429
1.14268
1.14236
1.14269
1.1443
1.14706
1.15248
1.15925
1.15919
1.10311
0.789603
0.264775
0.0385485
1.14233
1.14204
1.14239
1.14403
1.1468
1.15219
1.15857
1.1565
1.08762
0.763317
0.257949
0.040527
1.14198
1.14172
1.14209
1.14376
1.14655
1.1519
1.1578
1.15321
1.07135
0.740587
0.25265
0.0425683
1.14164
1.1414
1.1418
1.1435
1.14631
1.1516
1.15689
1.14929
1.05498
0.720737
0.248552
0.0446666
1.14129
1.14108
1.14151
1.14324
1.14607
1.15128
1.15584
1.14475
1.03893
0.703253
0.245401
0.0468196
1.14094
1.14077
1.14122
1.14299
1.14584
1.15093
1.15461
1.13965
1.02343
0.687734
0.243004
0.0490277
1.14059
1.14045
1.14094
1.14275
1.1456
1.15056
1.15319
1.13408
1.00859
0.673862
0.241204
0.0512931
1.14025
1.14014
1.14067
1.14251
1.14537
1.15014
1.15156
1.12811
0.994421
0.661376
0.239875
0.0536202
1.1399
1.13983
1.14039
1.14227
1.14513
1.14969
1.14972
1.12185
0.980931
0.650061
0.238913
0.056014
1.13958
1.13954
1.14014
1.14205
1.14489
1.14919
1.14767
1.11536
0.968081
0.639735
0.238232
0.0584813
1.1393
1.13928
1.13992
1.14186
1.14466
1.14864
1.14544
1.10872
0.955832
0.630243
0.237758
0.06103
0.42624
0.261906
0.63259
0.527253
0.57569
0.350265
0.513637
0.368495
0.0254669
0.0373849
0.0827957
0.0378179
0.0269158
0.00517866
0.025362
0.361221
0.0186334
0.00912263
0.0267964
0.0190029
0.014716
0.0345992
0.156712
0.142487
0.177285
0.161913
0.0352325
0.0507791
0.198225
0.182451
0.203406
0.0516175
0.0379745
0.0375542
0.138307
0.112798
0.0118042
0.00731199
0.0215158
0.0169869
0.02604
0.0115277
0.0164943
0.0135974
0.0257242
0.0150978
0.0186403
0.633689
0.238241
0.335721
0.146488
0.00835208
0.00557796
0.0265686
0.0698512
0.0652004
0.0096504
0.0146363
0.039085
0.0297253
0.00425759
0.0778695
0.0541702
0.0638958
0.0599559
0.0249071
0.0193143
0.0177503
0.00999185
0.0213582
0.0219514
0.00298374
0.0266258
0.0199621
0.0781646
0.0716583
0.0282049
0.0362865
0.0849157
0.0799409
0.0388183
0.0330904
0.0242817
0.0582466
0.0415833
0.0125908
0.0121649
0.017149
0.0103948
0.013467
0.0186041
0.0265191
0.00723495
0.0151706
0.00995439
0.0147637
0.0201566
0.0918773
0.0865851
0.0365674
0.0423291
0.100615
0.0938154
0.0200483
0.0203941
0.0271897
0.0184105
0.0267468
0.019447
0.0196991
0.0192611
0.109791
0.103055
0.0454139
0.053681
0.117657
0.111811
0.0274887
0.0276046
0.0382886
0.0368694
0.0269768
0.0273136
0.0183624
0.02675
0.0187965
0.00733213
0.0118878
0.0194344
0.0138357
0.0147282
0.0180176
0.0182053
0.0262277
0.0110389
0.00724301
0.01053
0.0139782
0.0249562
0.0176422
0.0178468
0.0164075
0.0199575
0.0196421
0.0171579
0.0279348
0.020691
0.0209121
0.01955
0.0146115
0.00356681
0.0251648
0.0339469
0.0334824
0.0181937
0.00967331
0.00681802
0.00528039
0.0117337
0.0126706
0.0189751
0.0192067
0.0267027
0.0195493
0.0189881
0.0187909
0.0194122
0.0191952
0.02427
0.0261491
0.0355703
0.0182343
0.0179988
0.0186029
0.0184215
0.0326648
0.0308579
0.0225178
0.0128427
0.00951364
0.00948185
0.00651949
0.00928875
0.0124769
0.0156023
0.0127188
0.0141899
0.0138111
0.0263873
0.0184681
0.0187236
0.0104659
0.0107448
0.010288
0.013438
0.0130573
0.00691521
0.00707124
0.0143619
0.0110266
0.0133566
0.0156809
0.0173811
0.0232226
1.16391
1.07999
0.997838
0.821668
0.775044
0.660858
1.1654
1.1134
1.08622
1.0301
0.836786
0.822454
0.781466
0.624914
0.647949
0.597699
0.552552
0.607948
0.397332
0.214683
0.232285
1.16662
1.1683
1.12888
1.11817
0.917856
0.850624
0.861519
0.69428
0.63026
0.584127
0.518316
0.503342
0.202356
0.0662929
0.0895107
1.16756
1.16887
1.16849
1.16686
1.09357
0.952348
1.04115
0.919259
0.732377
0.788964
0.111341
0.182843
0.0339307
1.16816
1.16882
1.16892
1.16629
1.13836
1.14419
1.11305
0.858985
0.926768
0.659838
0.0794869
0.0999724
0.0298102
1.16839
1.16807
1.1687
1.1647
1.12677
1.13587
1.09146
0.764225
0.835375
0.543841
0.0659974
0.0751595
0.0284576
1.16829
1.1666
1.16777
1.16204
1.11094
1.1232
1.06385
0.672524
0.740897
0.454515
0.058876
0.0638106
0.0283337
1.16787
1.16441
1.16612
1.15826
1.09127
1.10636
1.03148
0.591527
0.650816
0.393565
0.054757
0.0576358
0.0288983
1.16717
1.16147
1.16374
1.15335
1.06826
1.08582
0.995166
0.529349
0.574078
0.353346
0.0522997
0.0540192
0.0299004
1.16622
1.15779
1.16062
1.14728
1.04182
1.062
0.954287
0.48503
0.516832
0.325003
0.0508666
0.0518621
0.0312014
1.16503
1.15331
1.15675
1.13998
1.01097
1.03456
0.909655
0.452429
0.475992
0.304079
0.0501167
0.0506246
0.0327158
1.16359
1.14786
1.15205
1.1311
0.976399
1.00256
0.866547
0.427392
0.44557
0.288262
0.0498514
0.0500108
0.0343878
1.16187
1.14111
1.14631
1.12009
0.941737
0.96759
0.828849
0.407675
0.422027
0.276138
0.049947
0.0498452
0.0361795
1.15978
1.13272
1.13918
1.10676
0.909839
0.933445
0.79683
0.391904
0.403403
0.266768
0.0503231
0.0500172
0.0380648
1.15722
1.12263
1.13035
1.0916
0.881461
0.902417
0.769523
0.379154
0.388463
0.259497
0.050925
0.0504541
0.0400262
1.15409
1.11118
1.11988
1.07545
0.856358
0.874896
0.745976
0.36876
0.376357
0.253851
0.0517149
0.0511061
0.0420524
1.15033
1.09885
1.10816
1.05905
0.834075
0.85054
0.72546
0.360231
0.366469
0.249479
0.0526655
0.0519383
0.0441368
1.14594
1.08608
1.09568
1.0429
0.814181
0.828892
0.707426
0.353188
0.358343
0.246111
0.0537576
0.052926
0.0462762
1.14097
1.07321
1.08286
1.02725
0.796312
0.809536
0.691448
0.34734
0.351624
0.243542
0.054977
0.054051
0.0484704
1.13551
1.06046
1.07
1.01223
0.780168
0.792125
0.67719
0.342456
0.346037
0.241605
0.0563131
0.0553004
0.0507212
1.12964
1.04798
1.05731
0.997898
0.765498
0.776371
0.66438
0.338347
0.341362
0.240169
0.0577585
0.0566645
0.0530324
1.12344
1.03582
1.0449
0.984242
0.752091
0.762035
0.652791
0.334861
0.337422
0.239124
0.0593075
0.0581363
0.0554089
1.117
1.02404
1.03284
0.971235
0.739767
0.748915
0.642232
0.331871
0.334071
0.238381
0.060956
0.0597104
0.0578573
1.11039
1.01265
1.02116
0.958839
0.728372
0.736837
0.632545
0.329271
0.331188
0.237861
0.0627011
0.0613833
0.0603848
1.10404
1.00217
1.00986
0.947555
0.718152
0.725654
0.623875
0.327018
0.328671
0.237512
0.0645347
0.0631521
0.0629918
0.238191
0.25606
0.447788
0.097484
0.119724
0.286792
0.027369
0.619361
0.68425
0.650103
0.565328
0.686491
0.629196
0.506019
0.543149
0.583101
0.442507
0.525198
0.478486
0.610507
0.545574
0.47087
0.191634
0.208812
0.390171
0.0255783
0.035331
0.0349077
0.0521987
0.0514085
0.0370875
0.0104026
0.00884584
0.12501
0.0153611
0.0178626
0.0285824
0.0324674
0.0385531
0.0544468
0.053156
0.119485
0.0543673
0.454674
0.262014
0.00397374
0.0137824
0.0090189
0.0345748
0.0342756
0.0252789
0.320967
0.154837
0.186192
0.0131141
0.0127784
0.00739318
0.0460005
0.0444716
0.0334301
0.15154
0.106985
0.11161
0.0882852
0.0997257
0.146765
0.172158
0.124658
0.129006
0.116085
0.120371
0.167041
0.0356482
0.0478704
0.0470498
0.0676194
0.0660541
0.049655
0.192976
0.14288
0.147479
0.133468
0.138126
0.187699
0.213799
0.160203
0.151838
0.156062
0.208585
0.0523365
0.070215
0.0689631
0.133952
0.0788705
0.0856384
0.0574663
0.0764682
0.127963
0.0207987
0.0180016
0.0185664
0.0152775
0.015691
0.0175075
0.0160304
0.014492
0.0148807
0.0155059
0.0168963
0.576871
0.540143
0.604061
0.249996
0.478713
0.495736
0.465309
0.463814
0.275633
0.053966
0.0658642
0.172667
0.00786407
0.0183094
0.0168411
0.0474751
0.0326054
0.0067993
0.0373105
0.0360225
0.0258392
0.0681142
0.0500931
0.0517728
0.0480158
0.0489128
0.0665803
0.0113372
0.0248067
0.0222201
0.0245163
0.0230453
0.0139624
0.027827
0.0279136
0.0393793
0.00682923
0.00575321
0.00290019
0.0688319
0.0300533
0.0317875
0.0232864
0.0273563
0.0614058
0.0626296
0.0465284
0.0472465
0.0449218
0.0457905
0.0613496
0.0214455
0.0204844
0.0160247
0.0167385
0.0144565
0.0134044
0.0195888
0.00525959
0.00677095
0.0761695
0.0587054
0.0604993
0.0540048
0.0564737
0.0739505
0.0312131
0.0421973
0.039468
0.0493028
0.0486035
0.0359847
0.0832623
0.0644328
0.0656287
0.061948
0.0632211
0.0816199
0.0385602
0.0276898
0.0277574
0.0556221
0.0416041
0.0437186
0.0287044
0.0373415
0.0508307
0.0149388
0.0145629
0.0130968
0.0180472
0.0161125
0.0165504
0.0137338
0.0141065
0.0155874
0.0900485
0.0693544
0.0707153
0.0668423
0.0680788
0.0883001
0.0368308
0.0506933
0.0499975
0.0587956
0.0562954
0.0399382
0.0981801
0.0761466
0.0786293
0.0722346
0.0740088
0.0959114
0.10767
0.0859092
0.0879049
0.0812271
0.083696
0.105444
0.0479675
0.0640785
0.0615837
0.0726704
0.0714416
0.0530118
0.115747
0.0936418
0.0956967
0.0898003
0.0916915
0.113807
0.0170379
0.0175576
0.0201767
0.0141339
0.0157201
0.0153262
0.0163327
0.0160549
0.0144972
0.0159408
0.0161966
0.00963597
0.0115526
0.00883867
0.0092783
0.0154159
0.00223161
0.00561292
0.00542867
0.00736359
0.00618883
0.0054613
0.0100854
0.0065696
0.00752983
0.00890516
0.00727415
0.01062
1.14876
1.14997
1.15174
1.15414
1.15723
1.16209
1.14879
1.15021
1.15004
1.15226
1.15498
1.1545
1.15836
1.16356
1.16243
1.16462
1.16613
1.16578
1.01042
0.939963
0.934428
0.773019
0.724284
0.727441
0.411788
0.348921
0.356051
1.14882
1.15043
1.15032
1.1527
1.15567
1.15533
1.15933
1.16476
1.16389
1.16605
1.16747
1.16717
1.05986
0.985901
0.973158
0.805903
0.750241
0.738801
1.14887
1.15065
1.15054
1.15311
1.15629
1.15599
1.16018
1.16571
1.16502
1.16713
1.1685
1.16828
1.16681
1.11825
1.07575
0.939487
0.887992
0.843917
0.735352
0.644167
0.632309
0.0386174
0.0136373
0.0128871
1.14891
1.15083
1.15074
1.15345
1.15681
1.15657
1.16085
1.16638
1.16591
1.1679
1.16918
1.16905
1.1667
1.16238
1.16272
1.12128
1.08409
1.06296
0.723853
0.478582
0.516931
0.031335
0.0169386
0.0160726
1.1489
1.15095
1.1509
1.1537
1.15719
1.15702
1.16133
1.16675
1.1665
1.16832
1.16943
1.16941
1.16563
1.16005
1.16079
1.10308
1.05025
1.05963
0.599377
0.359523
0.384203
0.0289242
0.0206236
0.019673
1.14884
1.15099
1.15098
1.15385
1.15743
1.15733
1.16161
1.16681
1.16679
1.16838
1.16926
1.16934
1.16351
1.15608
1.15723
1.07833
1.00783
1.01907
0.49546
0.287718
0.302191
0.0282863
0.0245748
0.0235677
1.1487
1.15094
1.15097
1.15388
1.15752
1.15749
1.1617
1.16661
1.16679
1.16811
1.16869
1.16887
1.16029
1.15037
1.15196
1.04818
0.959757
0.972169
0.420791
0.245685
0.254348
0.0285494
0.0286945
0.0276534
1.14851
1.15081
1.15088
1.15381
1.15748
1.15751
1.16161
1.16618
1.16653
1.16755
1.16775
1.16802
1.15595
1.14291
1.14493
1.01382
0.907734
0.921114
0.371532
0.218835
0.224587
0.029355
0.032906
0.0318481
1.14827
1.15062
1.15072
1.15365
1.15732
1.15741
1.16139
1.16554
1.16604
1.16673
1.16647
1.16682
1.15046
1.13373
1.13618
0.975359
0.851829
0.866038
0.338045
0.20043
0.204439
0.0305198
0.0371512
0.0360893
1.148
1.15038
1.1505
1.15343
1.15708
1.15721
1.16105
1.16473
1.16536
1.16566
1.16485
1.16529
1.1438
1.12278
1.1257
0.932168
0.796829
0.810036
0.313788
0.187394
0.190259
0.0319359
0.0413863
0.0403302
1.14772
1.15012
1.15025
1.15317
1.15679
1.15694
1.16062
1.16374
1.1645
1.16434
1.16287
1.1634
1.13577
1.10964
1.11317
0.887564
0.749667
0.760563
0.295635
0.177994
0.18007
0.0335348
0.0455804
0.0445369
1.14745
1.14986
1.14999
1.1529
1.15646
1.15663
1.16012
1.16257
1.16347
1.16277
1.16049
1.16113
1.12589
1.09355
1.09787
0.846948
0.71153
0.720315
0.281805
0.171166
0.172674
0.0352706
0.049712
0.0486859
1.14718
1.14959
1.14972
1.15262
1.1561
1.15628
1.15956
1.16119
1.16225
1.16088
1.15756
1.15835
1.1137
1.07456
1.07953
0.812185
0.68048
0.687688
0.271155
0.166215
0.167305
0.0371117
0.0537673
0.0527612
1.14693
1.14934
1.14946
1.15234
1.15572
1.15592
1.15892
1.15952
1.1608
1.15857
1.15393
1.15491
1.09936
1.05382
1.05909
0.782652
0.654695
0.660724
0.262903
0.162671
0.163446
0.0390369
0.0577388
0.0567539
1.14668
1.14909
1.14921
1.15205
1.15531
1.15552
1.1582
1.1575
1.15905
1.15573
1.14946
1.15066
1.0836
1.03277
1.038
0.75733
0.632934
0.638049
0.256495
0.160203
0.160734
0.0410317
0.0616232
0.0606601
1.14643
1.14884
1.14896
1.15175
1.15487
1.1551
1.15736
1.15507
1.15693
1.15229
1.14411
1.14553
1.06725
1.01231
1.01734
0.735377
0.61434
0.618728
0.251524
0.158569
0.15891
0.0430876
0.0654217
0.0644801
1.14619
1.14859
1.14871
1.15144
1.15437
1.15463
1.15639
1.15218
1.15439
1.14821
1.13793
1.13954
1.05093
0.992879
0.997628
0.716162
0.598294
0.602094
0.247684
0.157589
0.157781
0.0451997
0.0691382
0.0682166
1.14595
1.14833
1.14846
1.15111
1.15381
1.1541
1.15525
1.14883
1.15138
1.14353
1.13105
1.13283
1.035
0.974624
0.979076
0.699202
0.584329
0.587647
0.244738
0.157125
0.157199
0.0473665
0.0727794
0.0718757
1.14572
1.14807
1.1482
1.15075
1.15318
1.1535
1.15393
1.14504
1.14792
1.1383
1.12364
1.12554
1.01966
0.957544
0.961707
0.684122
0.572079
0.574998
0.242503
0.157068
0.15705
0.0495886
0.0763534
0.0754655
1.14548
1.1478
1.14794
1.15035
1.15245
1.15283
1.1524
1.14085
1.14403
1.13262
1.11584
1.11782
1.00498
0.941578
0.94547
0.670619
0.56125
0.563838
0.240832
0.157331
0.15724
0.051869
0.0798704
0.0789957
1.14525
1.14752
1.14766
1.14992
1.15163
1.15205
1.15067
1.13632
1.13975
1.12657
1.10779
1.10982
0.990987
0.926639
0.930282
0.658445
0.551603
0.553915
0.239604
0.157841
0.157694
0.0542121
0.083342
0.0824778
1.14501
1.14723
1.14738
1.14945
1.1507
1.15118
1.14872
1.1315
1.13514
1.12025
1.09958
1.10164
0.97766
0.912633
0.916052
0.647393
0.542941
0.545023
0.23872
0.158537
0.158348
0.0566236
0.0867812
0.0859238
1.14476
1.14691
1.14707
1.14892
1.14965
1.15019
1.14657
1.12643
1.13025
1.11371
1.09129
1.09337
0.964964
0.899464
0.902683
0.637289
0.535096
0.536988
0.238097
0.159368
0.15915
0.0591106
0.0902022
0.0893478
1.14458
1.14664
1.14676
1.1484
1.14859
1.1491
1.14438
1.12149
1.12513
1.10704
1.08301
1.08507
0.952869
0.887058
0.890087
0.627988
0.52793
0.529664
0.237665
0.160287
0.160051
0.0616809
0.0936202
0.092765
0.363248
0.37055
0.433521
0.20314
0.210906
0.27021
0.540463
0.646463
0.625688
0.37368
0.42359
0.400919
0.601294
0.574139
0.499661
0.30701
0.313914
0.37576
0.467578
0.410396
0.353453
0.292926
0.300104
0.0180058
0.383966
0.381241
0.325184
0.00852212
0.00824364
0.00598055
0.0101851
0.0144353
0.0138038
0.0200216
0.0188665
0.0178856
0.021032
1.16542
1.16506
1.16355
1.0748
1.1593
1.16365
0.929807
0.926104
0.992885
0.821901
0.870545
0.872442
0.732094
0.737917
0.777799
0.674234
0.702953
0.693418
1.16684
1.16649
1.16501
1.10211
1.16731
1.16758
1.16667
1.16701
1.09299
0.957704
0.947858
1.01941
0.829109
0.885768
0.894776
0.875319
0.879262
0.824431
0.727738
0.724011
0.775501
0.628373
0.67428
0.675218
0.684938
0.678121
0.636401
0.334801
0.341841
0.404614
0.220545
0.27957
0.273041
0.292713
0.286128
0.22641
1.16803
1.16776
1.16634
1.16808
1.16845
1.16869
1.16789
1.16818
1.14273
1.04088
1.01042
1.08592
0.887262
0.94656
0.976327
0.909621
0.922156
0.862835
0.806367
0.774455
0.830256
0.662752
0.718971
0.75149
0.684178
0.695062
0.640286
0.139624
0.13113
0.0815555
1.16889
1.16871
1.16735
1.16878
1.16929
1.16943
1.16892
1.16912
1.16865
1.16296
1.16313
1.16686
1.03787
1.0973
1.15575
1.00949
1.04856
0.991972
0.993129
0.937442
0.987134
0.840828
0.88589
0.949728
0.790381
0.835339
0.779292
0.557654
0.600355
0.808928
0.126877
0.33522
0.296398
0.436955
0.382312
0.149076
0.0152323
0.0144199
0.0359002
0.0284406
0.0304209
0.0246097
0.0265
1.16936
1.16928
1.16804
1.1689
1.16968
1.16969
1.16955
1.16963
1.16893
1.16142
1.16195
1.16653
1.14057
1.15402
1.15292
1.15575
1.15496
1.14252
1.06842
1.07659
1.11738
0.882249
1.00471
0.990232
1.03107
1.01836
0.904934
0.412087
0.443491
0.691448
0.0847888
0.217643
0.200319
0.264655
0.238756
0.091425
0.0187409
0.0178288
0.030473
0.0365187
0.0385809
0.0324327
0.0344671
1.16939
1.16942
1.16837
1.16832
1.16954
1.16943
1.16968
1.16963
1.16853
1.15828
1.15922
1.1652
1.13008
1.14862
1.14685
1.15166
1.15022
1.13311
1.02992
1.04033
1.09747
0.787813
0.942949
0.926262
0.975043
0.959243
0.811586
0.3188
0.337817
0.570801
0.0685548
0.164268
0.15587
0.186018
0.17417
0.0715692
0.0225726
0.0215906
0.0286477
0.0447827
0.0468422
0.0406483
0.0427172
1.16902
1.16915
1.16834
1.16704
1.16888
1.16864
1.16928
1.1691
1.16743
1.15344
1.15481
1.16281
1.11527
1.1405
1.13805
1.14491
1.14279
1.11936
0.984337
0.996235
1.07125
0.694927
0.874706
0.857214
0.909284
0.892078
0.71778
0.264083
0.275115
0.474065
0.0602958
0.136912
0.132086
0.148657
0.142392
0.061927
0.0266188
0.0255922
0.0282863
0.0529526
0.0549594
0.0488918
0.0509297
1.16827
1.16849
1.168
1.16502
1.16772
1.16735
1.16836
1.16806
1.16559
1.14685
1.14866
1.15931
1.09652
1.12967
1.12656
1.13542
1.13263
1.10155
0.934234
0.94711
1.03995
0.610194
0.804113
0.786234
0.839626
0.821931
0.629997
0.230922
0.23792
0.406436
0.0555956
0.120637
0.117608
0.127815
0.124021
0.0565495
0.0307928
0.0297414
0.028709
0.0608638
0.0627887
0.0569479
0.0589162
1.16716
1.16747
1.16737
1.16228
1.16605
1.16556
1.16695
1.16652
1.16303
1.13853
1.14077
1.15468
1.07431
1.11628
1.11255
1.12328
1.11986
1.08016
0.880156
0.894073
1.00462
0.54301
0.733631
0.716998
0.768415
0.750826
0.557906
0.208814
0.213596
0.362027
0.0527999
0.11024
0.10825
0.11489
0.112445
0.0533703
0.0350273
0.0339661
0.0296176
0.0684218
0.0702497
0.0646908
0.0665684
1.1657
1.1661
1.16648
1.15878
1.1639
1.16328
1.16504
1.16448
1.15973
1.12849
1.13116
1.14891
1.0488
1.10044
1.09608
1.10867
1.10463
1.05552
0.823686
0.837664
0.964979
0.494785
0.67171
0.658376
0.701065
0.685945
0.505348
0.19337
0.196751
0.331273
0.0511507
0.103342
0.102002
0.106449
0.104819
0.0514809
0.0392722
0.0382122
0.0308534
0.0755792
0.0773034
0.0720523
0.073829
1.16391
1.16439
1.16535
1.15451
1.16123
1.16048
1.16263
1.16195
1.15565
1.11653
1.11973
1.14194
1.01912
1.08183
1.07662
1.09154
1.08679
1.02699
0.772056
0.784153
0.92091
0.459753
0.623494
0.613372
0.64593
0.634322
0.467587
0.182317
0.184753
0.308762
0.0502526
0.0986874
0.0977826
0.100788
0.0996859
0.050421
0.04349
0.0424396
0.0323206
0.0823178
0.0839371
0.079001
0.0806727
1.16174
1.16232
1.16398
1.14933
1.158
1.15709
1.15969
1.15887
1.15072
1.10199
1.10591
1.1335
0.985209
1.0595
1.05331
1.07117
1.06546
0.993953
0.729576
0.739347
0.876891
0.433084
0.586631
0.578744
0.603896
0.595
0.439133
0.174309
0.176078
0.291824
0.0498799
0.0955575
0.0949576
0.0969641
0.0962245
0.0499325
0.047655
0.0466199
0.0339574
0.0886404
0.0901574
0.0855302
0.087098
1.1591
1.15981
1.16233
1.14295
1.15405
1.15292
1.15613
1.15512
1.14468
1.08436
1.08904
1.12306
0.950213
1.03366
1.02688
1.04692
1.04035
0.958845
0.695248
0.703184
0.837712
0.412189
0.55757
0.551236
0.571294
0.564247
0.416967
0.168489
0.169773
0.278879
0.0498942
0.0935118
0.0931341
0.0944196
0.0939391
0.0498599
0.0517498
0.0507335
0.035722
0.0945623
0.0959828
0.09165
0.093118
1.15584
1.15673
1.16035
1.13498
1.14912
1.14771
1.15172
1.15046
1.13713
1.06431
1.06947
1.11029
0.917487
1.00643
0.999677
1.02006
1.01323
0.925358
0.667018
0.673597
0.804352
0.395533
0.534048
0.528858
0.545218
0.539496
0.399362
0.164291
0.165212
0.268892
0.0502061
0.0922659
0.0920555
0.0928025
0.0925141
0.0501039
0.0557639
0.0547683
0.0375858
0.100109
0.10144
0.0973806
0.0987555
1.15181
1.1529
1.15791
1.1253
1.14301
1.14129
1.14623
1.14466
1.12787
1.04327
1.04854
1.09551
0.888232
0.979952
0.973595
0.993004
0.986424
0.895215
0.643372
0.648916
0.775964
0.382098
0.514675
0.510364
0.523909
0.519186
0.385198
0.16132
0.161964
0.261146
0.0507557
0.0916283
0.0915473
0.0918805
0.0917387
0.0505985
0.0596919
0.0587179
0.0395294
0.105309
0.10656
0.10275
0.10404
1.14689
1.14821
1.15493
1.11415
1.13567
1.13366
1.13949
1.13762
1.11705
1.02243
1.02757
1.07954
0.862352
0.955276
0.949427
0.967361
0.961254
0.868528
0.623284
0.628016
0.751554
0.371167
0.498519
0.494899
0.506241
0.502296
0.373697
0.159294
0.159724
0.255131
0.0515014
0.0914647
0.0914859
0.091494
0.091467
0.0512984
0.063533
0.0625807
0.0415402
0.110198
0.111375
0.107791
0.109003
1.14111
1.14264
1.15133
1.10199
1.12725
1.12501
1.13158
1.12945
1.1051
1.00245
1.00734
1.06315
0.839406
0.932649
0.927306
0.943707
0.938115
0.844892
0.60603
0.610109
0.730337
0.36221
0.484911
0.481846
0.49143
0.488103
0.364288
0.158007
0.158269
0.250468
0.052414
0.0916779
0.0917811
0.0915293
0.0915936
0.0521714
0.0672899
0.0663584
0.0436105
0.114808
0.115921
0.112536
0.11368
1.13457
1.13627
1.1471
1.08929
1.11801
1.11561
1.12272
1.12038
1.09249
0.983603
0.988203
1.0469
0.818951
0.911989
0.907111
0.922083
0.916979
0.823854
0.591077
0.594623
0.711726
0.354826
0.473353
0.470737
0.478902
0.476073
0.356543
0.1573
0.15743
0.246871
0.0534722
0.0921948
0.0923646
0.0919023
0.0920404
0.0531949
0.0709677
0.0700554
0.0457363
0.119174
0.120231
0.11702
0.118103
1.12741
1.12925
1.14227
1.07642
1.10823
1.10572
1.11317
1.11071
1.07964
0.96594
0.970246
1.0311
0.800607
0.893114
0.888649
0.902341
0.897676
0.805013
0.578009
0.581118
0.695269
0.348704
0.463458
0.461207
0.468218
0.465794
0.35013
0.157052
0.157077
0.244119
0.0546608
0.0929589
0.0931831
0.092549
0.0927474
0.0543522
0.0745742
0.0736787
0.0479166
0.123328
0.124338
0.121276
0.122308
1.11978
1.12172
1.13692
1.06363
1.09813
1.09558
1.1032
1.10067
1.06681
0.949427
0.953452
1.01592
0.784057
0.875822
0.871724
0.884282
0.880007
0.788041
0.566503
0.569249
0.68061
0.343598
0.454921
0.452968
0.459036
0.456942
0.34479
0.157165
0.157107
0.242038
0.0559686
0.093925
0.0941936
0.0934192
0.0936667
0.055631
0.0781183
0.0772374
0.050153
0.127304
0.128273
0.125337
0.126325
1.11184
1.11385
1.13114
1.05107
1.0879
1.08534
1.09302
1.09046
1.05418
0.933986
0.93775
1.00142
0.769039
0.859924
0.856148
0.86771
0.863778
0.772663
0.556292
0.558736
0.66746
0.33931
0.447494
0.445787
0.451082
0.449258
0.340314
0.157559
0.157438
0.240487
0.0573873
0.095056
0.0953607
0.0944719
0.0947596
0.0570226
0.0816111
0.0807421
0.0524487
0.13113
0.132067
0.129234
0.130186
1.1037
1.10575
1.12502
1.03883
1.07767
1.07513
1.08278
1.08023
1.04186
0.919525
0.923053
0.987593
0.755334
0.845251
0.841756
0.852444
0.848813
0.758649
0.54716
0.549352
0.655584
0.335681
0.440979
0.439473
0.444134
0.442532
0.336534
0.158169
0.157999
0.239354
0.0589108
0.0963204
0.096654
0.0956733
0.0959933
0.0585203
0.0850648
0.0842044
0.0548083
0.134836
0.135747
0.132997
0.13392
1.09544
1.09751
1.11863
1.02695
1.06753
1.06502
1.07259
1.07006
1.02989
0.905949
0.909265
0.974428
0.742756
0.831648
0.828398
0.838324
0.834956
0.745804
0.538925
0.540908
0.644784
0.332578
0.435209
0.433865
0.43801
0.436589
0.333311
0.158938
0.158734
0.238543
0.0605347
0.0976908
0.0980472
0.0969939
0.0973396
0.0601195
0.0884931
0.0876376
0.057238
0.13845
0.139343
0.136653
0.137554
1.08714
1.08922
1.11206
1.01546
1.05753
1.05505
1.06251
1.06001
1.0183
0.893167
0.896293
0.961884
0.731142
0.818981
0.815946
0.825206
0.822067
0.733962
0.531435
0.533245
0.634893
0.329889
0.430044
0.428833
0.432558
0.431285
0.330528
0.159819
0.159591
0.237974
0.0622558
0.0991432
0.0995164
0.0984082
0.0987737
0.0618166
0.0919105
0.0910562
0.0597449
0.141999
0.142879
0.140231
0.141116
1.07931
1.081
1.10542
1.00444
1.04779
1.04579
1.05259
1.05016
1.0071
0.881613
0.884128
0.950002
0.720404
0.807195
0.804743
0.812961
0.810031
0.722987
0.524749
0.526247
0.625801
0.327525
0.425377
0.42437
0.427651
0.426497
0.328088
0.160765
0.160527
0.23758
0.0640719
0.100656
0.101034
0.0998931
0.100273
0.0636091
0.0953179
0.0944763
0.0623377
0.145507
0.146359
0.143756
0.144632
0.24414
0.306025
0.299341
0.319498
0.312728
0.250065
0.440636
0.377956
0.385542
0.105207
0.155284
0.147788
0.169849
0.162333
0.112465
0.277673
0.218195
0.226432
0.0249779
0.0261631
0.671598
0.659108
0.553138
0.667911
0.675688
0.69108
0.634664
0.65636
0.650685
0.482047
0.45031
0.406101
0.503085
0.47965
0.506121
0.443374
0.461791
0.492221
0.587622
0.58642
0.611618
0.53411
0.560388
0.567794
0.485416
0.544867
0.514744
0.197208
0.253623
0.247249
0.266536
0.260074
0.202975
0.382926
0.320862
0.327807
0.0158683
0.015203
0.00934915
0.107861
0.0403366
0.0459645
0.01614
0.0274416
0.0259809
0.0298085
0.0978987
0.100317
0.121207
0.0550933
0.0752061
0.0739241
0.393374
0.401587
0.461416
0.267967
0.333066
0.32628
0.339818
0.27393
0.00527808
0.00524777
0.00442348
0.0129363
0.00792548
0.00837641
0.261567
0.283276
0.343257
0.173137
0.225681
0.205168
0.240938
0.234444
0.180652
0.00898548
0.0108029
0.0132475
0.00803146
0.00914307
0.00835762
0.0913455
0.106917
0.105554
0.108214
0.10789
0.0950424
0.0810535
0.100226
0.0981426
0.103932
0.102135
0.0832644
0.0675866
0.0864232
0.0755077
0.0957396
0.0922776
0.0731647
0.0174141
0.46539
0.424341
0.425889
0.301114
0.392957
0.405856
0.0416237
0.0178312
0.0201617
0.0147925
0.0161086
0.0367187
0.0063742
0.00809002
0.0080805
0.0155553
0.0150154
0.0107108
0.0239293
0.0186396
0.0192285
0.0174024
0.0180248
0.0230734
0.0483918
0.0414292
0.0266117
0.020739
0.0138908
0.0161997
0.0164935
0.0158888
0.0159995
0.0134747
0.033144
0.0362617
0.0939881
0.574819
0.569749
0.569513
0.594727
0.594888
0.585745
0.52792
0.527933
0.482181
0.0738483
0.122621
0.113111
0.64186
0.619852
0.620111
0.653082
0.64782
0.65702
0.516538
0.534323
0.544161
0.544632
0.546102
0.520454
0.00985909
0.0147288
0.0144421
0.0303536
0.0289023
0.0169492
0.0311135
0.382737
0.356779
0.22462
0.433121
0.43858
0.467312
1.16175
1.15988
1.16018
1.16316
1.16117
1.16156
1.16049
1.1608
1.16277
1.16448
1.16241
1.16267
1.16186
1.16214
1.16419
1.1655
1.16338
1.16359
1.16292
1.16316
1.16527
1.16624
1.16414
1.16428
1.16379
1.16397
1.16609
1.16668
1.16463
1.16471
1.16442
1.16453
1.1666
1.16682
1.16487
1.16488
1.16478
1.16483
1.16682
1.16669
1.16486
1.16482
1.16489
1.16488
1.16674
1.16631
1.16465
1.16456
1.16478
1.16472
1.16642
1.16572
1.16425
1.16413
1.16447
1.16436
1.16589
1.16495
1.16371
1.16355
1.164
1.16385
1.16516
1.164
1.16303
1.16284
1.16338
1.16321
1.16425
1.16288
1.16224
1.16202
1.16265
1.16244
1.16318
1.16156
1.16131
1.16106
1.16179
1.16155
1.16191
1.15997
1.16023
1.15993
1.1608
1.16052
1.16039
1.15804
1.15895
1.15859
1.15962
1.15929
1.15856
1.15572
1.15742
1.15698
1.15822
1.15782
1.15634
1.15294
1.15559
1.15507
1.15654
1.15607
1.15368
1.14971
1.15343
1.15283
1.15455
1.15399
1.15056
1.14603
1.15094
1.15025
1.15223
1.15158
1.14699
1.14194
1.14811
1.14734
1.14956
1.14884
1.14299
1.13749
1.14496
1.14412
1.14657
1.14577
1.13863
1.13273
1.14153
1.14061
1.14328
1.1424
1.13394
1.12772
1.13783
1.13686
1.13971
1.13877
1.12899
1.12256
1.13397
1.13317
1.1359
1.13491
1.12383
0.00903779
0.00421709
0.000377497
0.00897005
0.00416625
0.000377537
0.00968552
0.0055567
0.000510859
0.00473078
0.00163583
0.000303631
0.0091401
0.00442352
0.000376171
0.00114448
0.000213022
0.00884174
0.00404912
0.000376879
0.00821995
0.00473685
0.000615341
0.00983818
0.00574192
0.000506524
0.00864888
0.0037855
0.000375679
0.0092403
0.00437344
0.000378353
0.00926926
0.00441489
0.00037809
0.0092012
0.00425917
0.00037889
0.00922724
0.00423277
0.000378786
0.00903407
0.00418606
0.000377664
0.00897543
0.00411688
0.00037759
0.00929262
0.00579297
0.000503599
0.00912201
0.00423513
0.000378477
0.00913071
0.00427692
0.000378386
0.00960156
0.00547584
0.000511721
0.0091242
0.00426942
0.000378103
0.0091004
0.00431064
0.000377536
0.00918283
0.00530948
0.000518621
0.00655524
0.00267462
0.000346424
0.00928803
0.00443361
0.000377733
0.00931269
0.00443526
0.000377356
0.00923968
0.00444095
0.000376828
0.00924857
0.00434015
0.000377801
0.00904098
0.00432786
0.000376709
0.00897434
0.0041906
0.000376786
0.00794179
0.00495841
0.000567159
0.00790516
0.00479711
0.000596129
0.00970032
0.00574571
0.000506139
0.00921324
0.00442619
0.000377017
0.00917852
0.00436897
0.000377696
0.00937363
0.00548537
0.000511635
0.00907616
0.00422417
0.00037764
0.00949462
0.00528143
0.0005207
0.00805319
0.0033428
0.000368203
0.000260199
0.00579257
0.000505165
0.00578608
0.000505245
0.0062401
0.0040958
0.000702023
0.00927486
0.00429639
0.000378776
0.00843119
0.00501675
0.00055015
0.00454243
0.000635379
0.00890304
0.00501492
0.000556708
0.00928697
0.00442053
0.000376873
0.00927829
0.0044396
0.000377033
0.00929214
0.0044088
0.000376908
0.00928031
0.00426413
0.000378711
0.00912355
0.00561908
0.000507009
0.00886965
0.00517605
0.000528937
0.00867094
0.00525917
0.0005209
0.000503126
0.00902223
0.00545448
0.000511454
0.00721689
0.00457304
0.000703818
0.000378061
0.00931138
0.00437758
0.00037836
0.00915463
0.00423153
0.000377536
0.00829177
0.00506281
0.000537989
0.00928159
0.00443053
0.000376873
0.00927367
0.00444079
0.000376965
0.00929541
0.00437321
0.000377333
0.00929203
0.00430651
0.000378094
0.00927854
0.00511074
0.000533712
0.00725785
0.00472631
0.000641305
0.0071856
0.00468508
0.000682236
0.0014297
)
;
