/*--------------------------------*- C++ -*----------------------------------*\
| =========                 |                                                 |
| \\      /  F ield         | OpenFOAM: The Open Source CFD Toolbox           |
|  \\    /   O peration     | Version:  v2012                                 |
|   \\  /    A nd           | Website:  www.openfoam.com                      |
|    \\/     M anipulation  |                                                 |
\*---------------------------------------------------------------------------*/
FoamFile
{
    version     2.0;
    format      ascii;
    class       volScalarField;
    location    "0";
    object      omega;
}
// * * * * * * * * * * * * * * * * * * * * * * * * * * * * * * * * * * * * * //

dimensions      [0 0 -1 0 0 0 0];


internalField   nonuniform List<scalar> 
3259
(
30.3849
30.4046
30.4294
30.4671
30.5391
30.6391
30.8212
31.1035
31.7516
33.2838
38.9738
97.6898
30.2795
30.3009
30.3283
30.3702
30.4486
30.5622
30.7647
31.086
31.8304
33.6618
41.56
180.702
30.1763
30.1994
30.2294
30.2751
30.3582
30.4823
30.7017
31.0554
31.8763
33.9959
45.8872
774.795
30.0746
30.0994
30.1319
30.1811
30.2686
30.4017
30.6358
31.0198
31.9169
34.4029
53.1565
873.234
29.9737
30
30.035
30.0873
30.1788
30.3194
30.5657
30.9768
31.9471
34.9321
63.0401
839.365
29.8727
29.9006
29.938
29.993
30.0881
30.2346
30.4911
30.9259
31.9698
35.594
74.9729
770.809
29.7713
29.8005
29.8402
29.8978
29.9959
30.1472
30.4121
30.8679
31.9919
36.4052
86.9468
698.706
29.6691
29.6994
29.7413
29.8012
29.9021
30.0572
30.3292
30.8044
32.0201
37.3676
96.8567
632.636
29.5659
29.5971
29.6408
29.7029
29.8065
29.9649
30.2433
30.7371
32.06
38.505
104.264
574.792
29.4619
29.4935
29.5389
29.6029
29.709
29.8703
30.1549
30.6677
32.1163
39.8949
109.781
524.901
29.357
29.3889
29.4355
29.5013
29.6095
29.7737
30.0646
30.5976
32.196
41.5086
113.797
481.97
29.2515
29.2834
29.3309
29.3982
29.5083
29.6753
29.9728
30.5285
32.3139
43.1223
116.583
444.905
29.1455
29.1773
29.2255
29.2939
29.4056
29.5753
29.8801
30.4628
32.4878
44.5725
118.362
412.721
29.0393
29.0708
29.1194
29.1889
29.3019
29.4742
29.7873
30.4035
32.7224
45.8274
119.326
384.58
28.933
28.9642
29.013
29.0835
29.1975
29.3726
29.6953
30.354
33.0033
46.9046
119.64
359.798
28.8268
28.8576
28.9066
28.9778
29.0928
29.2708
29.6049
30.3168
33.3091
47.8273
119.442
337.818
28.7209
28.7511
28.8003
28.8722
28.988
29.1692
29.5169
30.2934
33.6216
48.6158
118.845
318.195
28.6153
28.6451
28.6942
28.7669
28.8834
29.0682
29.4321
30.2835
33.9288
49.2872
117.945
300.563
28.5101
28.5394
28.5886
28.6619
28.7793
28.968
29.3512
30.2861
34.2236
49.8564
116.819
284.628
28.4055
28.4343
28.4835
28.5575
28.6757
28.8691
29.2747
30.2992
34.5027
50.3363
115.528
270.147
28.3014
28.3298
28.379
28.4536
28.5728
28.7714
29.2028
30.321
34.7645
50.7385
114.124
256.921
28.198
28.226
28.2751
28.3505
28.4708
28.6755
29.1358
30.3495
35.0086
51.0732
112.647
244.787
28.0957
28.1233
28.1724
28.2485
28.3696
28.5813
29.0737
30.3831
35.2357
51.3501
111.131
233.607
27.9984
28.0257
28.0748
28.1514
28.2701
28.4895
29.0165
30.4205
35.4466
51.5777
109.601
223.265
96.1613
151.666
38.5959
78.0336
40.939
109.625
79.9929
110.094
1250.28
887.66
435.747
880.176
1205.39
7834.36
1253.28
112.159
1732.26
6925.73
1207.92
1696.21
3271.03
938.378
245.52
266.415
220.766
238.704
924.176
680.812
200.472
215.364
196.046
672.213
881.506
888.7
273.263
327.284
2797.35
4892.59
1833.37
2525.84
1226.37
4228.32
2653.04
3975.16
1240.04
3100.54
2182.57
44.5464
165.195
116.386
261.204
3843.21
7230.73
1206.56
503.206
533.402
6024.29
3010.5
865.86
1102.09
8933.39
463.111
646.563
542.42
571.842
1271.81
2082
1824.62
5593.53
1889.98
1788.5
14258.5
1207.73
1609.67
457.23
492.184
1139.51
904.479
426.937
448.771
869.452
994.812
1304.94
586.034
798.739
4875.29
5226.88
1894.2
4993.72
4132.49
2201.74
1210.03
4383.22
3101.29
5082.12
3282.27
1594.82
399.899
420.12
900.017
797.636
370.365
392.957
1622.14
1593.08
1196.41
1754.67
1207.55
1675.31
1652.81
1671.68
344.119
362.921
748.752
652.697
324.892
338.931
1185.65
1183.14
876.737
902.071
1203.38
1190.82
1750.71
1194.52
1708.42
14116.5
2832.87
2080.79
3903.8
3455.37
1803.6
1785.62
1219.25
4354.73
4588.41
4520.44
3705.94
1277.58
1840.8
1820.13
2652.35
1649.81
1676.35
1909.39
1168.08
1569.45
1553.62
1685.96
2200.18
11644.5
1259.73
948.704
959.688
1776.83
5660.4
5616.47
9012.37
5337.08
4860.67
1715.51
1696.09
1206.92
1645.22
1731.19
1747.28
1695.84
1714.12
1334.32
1239.42
930.905
1794.23
1818.54
1762.7
1777.87
981.367
1035.75
1410.95
4653.34
7519.36
7608.04
6498.15
6827.68
4937.26
2100.63
4692.49
3638.96
3856.45
1213.8
1760.51
1737.3
4383.24
4664.18
4751.19
4092.37
4386.33
5123.21
4790.66
3485.53
4406.76
4147.56
1954.37
1871.41
1374.9
31.1113
31.524
31.7403
32.7184
33.2208
36.2664
31.093
31.5699
31.529
31.8174
32.9658
32.7618
33.5822
37.6803
36.5007
39.3957
47.0599
45.424
102.645
184.103
171.763
31.0634
31.5933
31.5765
31.8653
33.1737
33.0178
33.9085
39.3401
38.0221
42.4355
51.2449
51.9975
192.862
536.63
408.422
31.0293
31.6105
31.5984
31.9077
33.3938
33.2267
34.2887
42.2275
39.9165
51.0898
324.706
211.278
867.727
30.9883
31.6168
31.6132
31.9405
33.6579
33.4561
34.7886
46.326
43.1416
60.355
412.751
353.082
853.173
30.9393
31.6123
31.6166
31.9645
33.9736
33.731
35.4148
51.5206
47.528
71.8945
451.349
425.984
788.949
30.883
31.6008
31.6099
31.9861
34.3623
34.0634
36.1883
57.7234
52.9708
84.0764
461.692
455.99
716.355
30.8207
31.5871
31.5974
32.0122
34.8345
34.4723
37.1124
64.5326
59.4115
94.6355
456.218
461.447
648.407
30.7542
31.5756
31.5838
32.0487
35.3962
34.9662
38.2004
70.7816
66.1938
102.61
442.361
453.329
588.479
30.6852
31.5702
31.5735
32.1004
36.0699
35.5523
39.5208
75.7518
72.1466
108.554
424.443
438.141
536.677
30.6151
31.5748
31.5703
32.1732
36.9133
36.2625
41.0954
79.6018
76.8072
112.918
404.936
419.648
492.11
30.5456
31.5959
31.5782
32.2797
37.9308
37.1543
42.7306
82.5867
80.4216
115.989
385.22
399.99
453.678
30.4787
31.6447
31.605
32.4385
39.0077
38.2
44.2284
84.867
83.2178
118
366.043
380.355
420.359
30.4175
31.7321
31.6626
32.6586
40.0311
39.2714
45.5313
86.5603
85.3414
119.152
347.786
361.383
391.275
30.3653
31.8611
31.7606
32.9299
40.9556
40.2721
46.6507
87.7627
86.9034
119.615
330.619
343.389
365.71
30.3249
32.025
31.8992
33.2314
41.7757
41.1702
47.6099
88.5573
87.9966
119.533
314.59
326.505
343.077
30.2979
32.2123
32.0701
33.5436
42.4984
41.9652
48.4302
89.0158
88.7009
119.026
299.679
310.758
322.902
30.2848
32.412
32.2615
33.8529
43.1333
42.665
49.1295
89.1997
89.0853
118.194
285.833
296.12
304.802
30.2844
32.6155
32.4628
34.1513
43.6895
43.2794
49.723
89.1619
89.2092
117.118
272.98
282.529
288.466
30.2951
32.817
32.6662
34.4345
44.1758
43.8173
50.2241
88.9473
89.1232
115.863
261.044
269.913
273.642
30.3148
33.0129
32.8666
34.7007
44.5998
44.2873
50.6446
88.5939
88.8706
114.483
249.949
258.195
260.12
30.3418
33.2009
33.0607
34.9492
44.969
44.697
50.9953
88.1338
88.4877
113.021
239.62
247.297
247.727
30.3743
33.3801
33.2466
35.1805
45.29
45.0535
51.2859
87.5938
88.0053
111.512
229.989
237.149
236.319
30.4108
33.5499
33.4234
35.3953
45.5688
45.3634
51.525
86.9968
87.4491
109.984
220.994
227.683
225.777
30.4483
33.7035
33.5909
35.5866
45.8037
45.6325
51.7155
86.3716
86.841
108.475
212.602
218.838
216.028
168.001
157.596
91.8534
377.733
312.953
139.395
1416.51
44.8956
43.2807
38.2516
73.044
47.7293
49.5667
51.2402
47.6774
40.0441
89.6781
53.283
58.4351
50.2403
52.436
86.8785
203.455
188.653
104.396
1247.38
920.36
929.003
659.262
667.174
892.293
2695.58
3486.6
302.38
2702.38
2070.96
1354.35
1192.79
866.492
636.855
649.694
320.791
646.466
90.5593
154.419
11096.7
2308.75
3523
935.652
941.675
1255.55
125.316
246.275
208.67
4817.51
4861.27
8821.21
727.801
749.15
967.845
252.733
345.4
333.187
407.799
367.018
259.775
226.418
303.501
294.851
322.286
312.585
232.379
915.799
704.673
714.426
529.429
539.656
693.249
205.178
270.416
263.273
286.496
278.288
210.154
187.749
245.575
256.897
251.04
191.82
665.219
513.694
521.12
280.837
449.089
418.597
596.699
461.155
292.226
1909.86
2336.61
2235.56
3088.84
2935.25
2408.22
2790.23
3442.31
3256.36
2939.86
2524.4
55.8992
53.2871
43.4143
158.28
74.0357
81.9931
59.537
63.768
144.425
650.714
543.628
223.969
4262.91
1735.4
1853.29
729.095
1019.05
5654.75
877.82
905.567
1237.61
514.172
673.615
654.64
697.953
687.356
524.158
4454.84
1564.26
1796.51
1621.45
1745.31
3403.2
1180.97
1179.98
861.812
5033.25
5989.03
11851.7
519.188
1112.95
1058.34
1400.18
1207.35
576.495
551.474
716.006
707.189
737.023
725.387
560.985
1828.96
1993.96
3021.33
2818.28
3601.83
3758.42
2107.33
17592
15113.5
467.256
586.968
572.313
630.888
606.791
479.108
1032.26
784.78
834.076
688.821
696.4
909.613
433.924
543.669
535.682
561.266
552.064
441.121
872.934
1181.95
1181.47
609.992
788.536
754.423
1127.31
872.621
661.5
3273.77
3446.23
4379.49
2300.68
2795.61
2666.98
3872.31
3649.28
2939.4
406.665
512.299
504.217
527.833
520.076
413.347
896.061
674.382
681.517
596.023
618.924
840.292
378.146
473.862
461.053
495.425
485.451
385.707
349.775
427.745
419.644
448.447
437.218
355.967
713.781
553.514
572.576
499.804
506.654
658.863
329.325
398.144
390.956
412.279
405.199
333.978
2542.9
2426.98
1984.01
3739.32
2971.45
3114.64
2776.84
2860.86
3549.17
2791.14
2021.15
3415.52
2854.95
3637.61
3507.73
2105.3
12087.8
6091.76
6272.06
10363.8
12805.1
8477.34
5787.25
7812.25
7319.24
7974.87
8169.55
5808.18
30.5865
30.6268
30.6806
30.7542
30.8528
31.0225
30.4943
30.5404
30.5816
30.6024
30.6861
30.7172
30.7955
30.9902
31.0117
31.0961
31.2106
31.2144
31.7637
32.0437
32.0232
33.3513
34.0837
33.982
99.2935
116.556
114.415
30.4032
30.454
30.4968
30.5223
30.6139
30.65
30.7334
30.9487
30.98
31.0787
31.2111
31.2147
31.8424
32.1645
32.1436
33.7419
34.6887
34.5606
30.3133
30.3683
30.4109
30.4422
30.5407
30.5775
30.6692
30.9034
30.9377
31.0471
31.1939
31.1988
31.8871
32.243
32.224
34.0873
35.2759
35.1137
47.4472
62.9948
59.1418
823.125
1872.28
2069.58
30.2237
30.2823
30.3252
30.3608
30.4651
30.5032
30.6013
30.8523
30.8911
31.0098
31.1698
31.1767
31.9254
32.3187
32.3003
34.5247
36.1109
35.8756
55.4019
83.1885
77.4725
871.416
1346.19
1449.14
30.1335
30.1951
30.2387
30.2773
30.3863
30.4261
30.529
30.7944
30.8383
30.9648
31.1366
31.1458
31.9532
32.3897
32.3721
35.0841
37.2137
36.9122
65.8796
107.517
101.434
823.653
1045.45
1107.67
30.0422
30.1061
30.1506
30.1912
30.304
30.3456
30.4521
30.7301
30.7788
30.912
31.0944
31.1057
31.9751
32.4637
32.4443
35.7827
38.5935
38.2228
78.0526
129.59
124.55
752.534
852.745
894.066
29.9492
30.015
30.0606
30.1025
30.2183
30.2615
30.3711
30.6604
30.7131
30.8525
31.0451
31.058
31.9982
32.5513
32.5276
36.6314
40.2423
39.8052
89.6769
145.978
142.399
681.469
719.354
748.675
29.8545
29.9219
29.9686
30.0113
30.1297
30.1743
30.2866
30.5865
30.6422
30.7879
30.9909
31.0048
32.0288
32.6607
32.6309
37.6332
42.1813
41.6642
98.9173
157.538
155.026
617.394
621.74
643.596
29.758
29.8268
29.8745
29.9179
30.0385
30.0844
30.1994
30.5096
30.5674
30.7199
30.9343
30.9486
32.0724
32.7979
32.7607
38.8258
44.5032
43.8873
105.801
165.427
163.755
561.606
547.255
564.171
29.6595
29.7297
29.7784
29.8223
29.9451
29.9921
30.11
30.431
30.4901
30.6502
30.8772
30.8914
32.1336
32.9701
32.923
40.2844
47.0522
46.417
110.914
170.393
169.389
513.558
488.56
502.038
29.5591
29.6306
29.6803
29.7247
29.8498
29.8977
30.0188
30.3517
30.4112
30.5802
30.8218
30.8354
32.2211
33.1953
33.1324
41.9212
49.4252
48.8638
114.599
173.064
172.581
472.194
441.107
452.099
29.4571
29.5298
29.5803
29.6254
29.7528
29.8015
29.9265
30.273
30.3319
30.5116
30.771
30.783
32.3516
33.5014
33.4162
43.503
51.4385
50.9692
117.114
173.965
173.881
436.438
401.944
411.078
29.3538
29.4277
29.4789
29.5249
29.6548
29.7039
29.8336
30.1969
30.2537
30.4472
30.729
30.7384
32.5411
33.8952
33.7896
44.9041
53.1137
52.7234
118.672
173.529
173.743
405.337
369.072
376.784
29.2497
29.3247
29.3763
29.4235
29.5563
29.6055
29.7411
30.1255
30.1785
30.3901
30.701
30.7065
32.7891
34.348
34.2315
46.1125
54.5069
54.1823
119.46
172.097
172.532
378.093
341.086
347.685
29.1451
29.2212
29.2729
29.3217
29.4578
29.507
29.6498
30.0609
30.1086
30.3435
30.6911
30.6918
33.0782
34.8205
34.7023
47.1489
55.6636
55.3945
119.634
169.943
170.537
354.059
316.977
322.687
29.0403
29.1175
29.1693
29.2199
29.3599
29.4087
29.5605
30.0049
30.046
30.3097
30.7008
30.6966
33.3872
35.2847
35.1705
48.0363
56.6186
56.3971
119.326
167.276
167.981
332.708
295.991
300.978
28.9356
29.014
29.0657
29.1186
29.2631
29.3113
29.4741
29.9586
29.9924
30.2897
30.7292
30.7205
33.6993
35.7257
35.6181
48.794
57.4002
57.2197
118.646
164.261
165.04
313.613
277.559
281.953
28.8313
28.9109
28.9624
29.018
29.1678
29.2152
29.3912
29.9223
29.9486
30.2831
30.7735
30.7611
34.0038
36.1369
36.037
49.4386
58.0326
57.8873
117.682
161.022
161.847
296.43
261.24
265.142
28.7274
28.8084
28.8595
28.9184
29.0745
29.1209
29.3124
29.8956
29.9148
30.2884
30.8301
30.815
34.295
36.5165
36.4246
49.9843
58.5365
58.4215
116.509
157.658
158.507
280.879
246.691
250.179
28.6241
28.7067
28.7575
28.8201
28.9836
29.0287
29.2382
29.8777
29.8904
30.3039
30.8956
30.8786
34.5698
36.8648
36.7806
50.4437
58.9306
58.8415
115.186
154.241
155.097
266.729
233.635
236.772
28.5217
28.6061
28.6563
28.7232
28.8953
28.9391
29.1687
29.8674
29.8744
30.3275
30.9671
30.9488
34.8271
37.1832
37.1063
50.8281
59.2313
59.1641
113.76
150.827
151.677
253.791
221.852
224.689
28.4201
28.5065
28.5561
28.6281
28.8098
28.8522
29.1042
29.8636
29.8658
30.3575
31.0423
31.0233
35.067
37.4737
37.4036
51.1476
59.4531
59.4043
112.271
147.457
148.293
241.908
211.16
213.739
28.3195
28.4082
28.4572
28.5349
28.7275
28.7683
29.0444
29.8653
29.8635
30.3921
31.1194
31.1
35.2899
37.7386
37.6747
51.4113
59.6091
59.5756
110.749
144.163
144.978
230.947
201.408
203.765
28.2256
28.3163
28.3601
28.4483
28.6523
28.6879
28.9919
29.8711
29.8664
30.4302
31.197
31.1776
35.4967
37.9801
37.9219
51.6277
59.7107
59.6898
109.22
140.969
141.757
220.798
192.474
194.637
112.334
110.298
94.6604
192.29
185.743
147.326
76.2253
63.6419
64.8964
104.925
82.0051
84.6591
66.2283
67.6462
82.114
131.04
128.398
108.114
88.2461
100.337
114.452
136.802
133.8
2290.35
87.6537
91.0993
123.576
3753.18
3897.53
6660.71
5364.31
4031.12
4388.79
1988.62
2184.67
2391.98
1904.56
31.2186
31.223
31.1193
31.5193
31.3528
31.3526
32.0039
31.985
31.7294
32.6766
32.2948
32.3236
33.8881
33.7997
33.1607
36.0482
34.6944
34.8307
31.2179
31.2121
31.0927
31.549
31.3606
31.3732
31.3526
31.3532
31.5347
32.1216
32.0776
31.7865
32.8775
32.4333
32.4954
32.3533
32.3846
32.8078
34.4357
34.2375
33.4529
37.1554
35.3795
35.6971
34.9767
35.1359
36.7576
121.048
118.765
100.93
179.79
143.869
146.957
138.045
140.901
175.683
31.2032
31.2073
31.0712
31.5879
31.3762
31.3765
31.3747
31.3755
31.5824
32.2047
32.1849
31.854
33.1213
32.5961
32.6288
32.5297
32.563
33.0694
34.9635
34.8226
33.8241
38.8423
36.3429
36.5935
35.8999
36.113
38.4061
271.751
287.819
444.617
31.1829
31.1887
31.0384
31.6071
31.3748
31.3731
31.3764
31.3759
31.603
32.2815
32.2621
31.8977
33.3361
32.7257
32.7592
32.6613
32.6935
33.2806
35.6539
35.4545
34.1843
41.3708
37.5422
37.9498
36.8712
37.1841
40.5894
72.1875
67.3496
49.1954
291.653
118.527
132.648
92.4728
104.887
253.809
1568.3
1707.57
852.262
1214.54
1115.72
1474.58
1332.23
31.1544
31.1624
30.9993
31.6163
31.3643
31.36
31.3708
31.3679
31.6151
32.3545
32.3367
31.9333
33.5879
32.8642
32.9002
32.794
32.8289
33.5208
36.6283
36.3613
34.653
45.1922
39.3666
39.9057
38.3922
38.8622
44.1296
95.298
89.1842
57.8089
396.529
173.942
186.344
146.832
160.71
376.839
1177.49
1256.4
864.233
896.15
840.852
1031.59
959.165
31.1165
31.1268
30.9523
31.6143
31.3431
31.3363
31.355
31.3494
31.6157
32.4256
32.4075
31.959
33.8885
33.0148
33.0561
32.9372
32.9753
33.8078
37.8691
37.5327
35.2449
50.1295
41.7274
42.4002
40.4791
41.0868
48.7972
119.151
113.45
68.8481
444.976
217.383
225.654
197.778
208.124
436.619
939.505
989.718
806.688
709.418
674.282
791.96
748.418
31.0705
31.0827
30.8977
31.6041
31.3129
31.3043
31.329
31.3212
31.6072
32.5052
32.484
31.9805
34.2575
33.1925
33.2427
33.0993
33.1447
34.158
39.3848
38.9809
35.9808
56.0763
44.6029
45.399
43.1037
43.838
54.4887
138.496
134.236
81.0991
460.972
245.446
250.593
233.035
239.612
459.131
780.463
815.031
734.335
587.169
562.976
642.484
613.565
31.0185
31.0319
30.8367
31.5905
31.2767
31.2671
31.2954
31.2862
31.5939
32.6028
32.5763
32.0049
34.7084
33.4101
33.4718
33.2957
33.3515
34.5876
41.1702
40.6969
36.8672
62.835
47.9967
48.9409
46.2275
47.0922
61.1212
152.271
149.262
92.2436
458.597
262.381
265.239
255.101
259.015
460.376
667.032
692.214
664.688
501.241
483.642
540.732
520.219
30.9628
30.9769
30.7711
31.578
31.2379
31.2281
31.2574
31.2477
31.5808
32.7255
32.6922
32.0383
35.2468
33.6757
33.7503
33.5366
33.6045
35.1036
43.2929
42.7239
37.9104
69.3312
51.9468
52.9715
49.9201
50.9255
67.7984
161.891
159.822
100.831
446.335
271.163
272.371
267.632
269.594
450.012
582.153
601.301
602.674
437.774
424.441
467.274
452.023
30.9057
30.92
30.7026
31.5708
31.1994
31.1902
31.2184
31.2088
31.5719
32.8789
32.8372
32.0858
35.8881
33.9961
34.0867
33.8284
33.9102
35.716
45.7755
45.135
39.1642
74.6267
55.9448
56.8691
53.9873
54.9818
73.4269
168.234
166.916
107.229
429.145
274.13
274.184
273.25
273.827
433.722
516.266
531.317
548.908
389.132
378.71
411.935
400.186
30.8492
30.8631
30.6327
31.5725
31.1641
31.1561
31.1812
31.1725
31.571
33.0743
33.0203
32.1525
36.6839
34.3921
34.5078
34.1823
34.2839
36.467
48.2797
47.6747
40.6859
78.7282
59.3798
60.1301
57.7503
58.5872
77.798
171.98
171.253
111.958
409.873
273.068
272.335
274.011
273.632
414.783
463.64
475.78
502.635
350.764
342.414
368.873
359.57
30.7956
30.8085
30.5628
31.5886
31.1353
31.1297
31.1486
31.1416
31.5827
33.3369
33.2633
32.2489
37.6652
34.9046
35.0537
34.6316
34.7638
37.4056
50.4776
49.9632
42.3296
81.9118
62.1483
62.7508
60.84
61.512
81.1909
173.707
173.437
115.329
390.119
269.286
268.034
271.451
270.43
395.046
420.631
430.628
462.768
319.784
312.954
334.488
326.954
30.7486
30.7595
30.495
31.6292
31.1185
31.1171
31.1249
31.1212
31.6161
33.6885
33.5922
32.3931
38.7403
35.5425
35.7156
35.2103
35.3736
38.4705
52.3147
51.8868
43.8719
84.3562
64.3745
64.8594
63.3217
63.8623
83.807
173.891
173.967
117.585
370.761
263.728
262.144
266.682
265.244
375.534
384.82
393.198
428.259
294.277
288.591
306.44
300.221
30.713
30.7205
30.4321
31.7063
31.1216
31.1263
31.1171
31.1186
31.6831
34.1168
34.0044
32.5981
39.7837
36.2483
36.4267
35.8917
36.0696
39.5303
53.8425
53.4865
45.2236
86.1865
66.1632
66.5512
65.3184
65.7527
85.7806
172.919
173.252
118.935
352.252
257.059
255.277
260.5
258.803
356.786
354.538
361.662
398.191
272.92
268.112
283.145
277.927
30.6937
30.6968
30.3773
31.8252
31.1511
31.163
31.1328
31.141
31.7916
34.5839
34.4656
32.8584
40.7344
36.9532
37.1241
36.6041
36.7798
40.5066
55.1125
54.8167
46.3867
87.5033
67.5877
67.8938
66.9172
67.2625
87.2174
171.096
171.617
119.555
334.805
249.746
247.858
253.46
251.615
339.061
328.599
334.73
371.807
254.774
250.654
263.493
259.05
30.6935
30.6917
30.3337
31.9814
31.2092
31.2279
31.1766
31.1921
31.9394
35.0549
34.9381
33.1544
41.5801
37.618
37.7759
37.2919
37.4566
41.3784
56.1644
55.92
47.3839
88.3928
68.704
68.9406
68.1813
68.4512
88.2063
168.662
169.317
119.598
318.491
242.114
240.184
245.954
244.038
322.462
306.133
311.463
348.488
239.154
235.581
246.683
242.852
30.7129
30.7063
30.3034
32.1639
31.2929
31.3171
31.2481
31.2698
32.1165
35.5086
35.3975
33.4654
42.3264
38.2282
38.3718
37.9303
38.081
42.1487
57.0295
56.8292
48.2372
88.9292
69.5587
69.7363
69.1615
69.3673
88.8245
165.803
166.549
119.187
303.304
234.386
232.459
238.251
236.318
306.997
286.486
291.162
327.737
225.552
222.42
232.127
228.786
30.7496
30.739
30.2868
32.3614
31.3963
31.4245
31.3425
31.3689
32.3112
35.9352
35.8314
33.7764
42.9823
38.7814
38.9109
38.5118
38.6483
42.8263
57.7337
57.5714
48.9652
89.1764
70.1918
70.3197
69.9007
70.0523
89.1386
162.663
163.468
118.428
289.198
226.718
224.823
230.537
228.623
292.627
269.159
273.296
309.15
213.585
210.813
219.385
216.441
30.8005
30.7866
30.2834
32.5646
31.5131
31.5438
31.4534
31.483
32.5137
36.3307
36.2348
34.078
43.5574
39.2796
39.396
39.0371
39.16
43.4207
58.2994
58.1698
49.5838
89.1896
70.6383
70.7245
70.4364
70.5425
89.2055
159.351
160.19
117.406
276.104
219.211
217.368
222.939
221.068
279.287
253.763
257.449
292.4
202.956
200.48
208.119
205.501
30.8619
30.8458
30.2915
32.767
31.6378
31.6696
31.5748
31.6062
32.7168
36.6945
36.6065
34.3653
44.0603
39.7266
39.8309
39.5092
39.6194
43.9409
58.7462
58.6447
50.1068
89.0154
70.9287
70.9801
70.8013
70.8692
89.0742
155.952
156.807
116.19
263.947
211.935
210.157
215.541
213.729
266.902
239.991
243.297
277.219
193.436
191.207
198.07
195.723
30.9308
30.913
30.3091
32.9646
31.7659
31.7981
31.7016
31.7338
32.9158
37.0276
36.9472
34.6358
44.4993
40.1269
40.2201
39.9323
40.031
44.3951
59.0917
59.014
50.5464
88.6934
71.0896
71.1124
71.0238
71.0602
88.7858
152.531
153.385
114.837
252.648
204.931
203.226
208.397
206.655
255.396
227.597
230.578
263.388
184.844
182.823
189.034
186.913
31.0044
30.9857
30.3345
33.1547
31.8945
31.9264
31.8303
31.8624
33.1079
37.3318
37.2584
34.8887
44.8815
40.4846
40.5679
40.3108
40.3989
44.7909
59.3512
59.2936
50.9137
88.2572
71.1444
71.1439
71.129
71.1395
88.3754
149.134
149.979
113.392
242.134
198.227
196.599
201.54
199.874
244.693
216.379
219.083
250.727
177.034
175.191
180.849
178.92
31.0807
31.0615
30.3657
33.3361
32.0213
32.0525
31.9582
31.9898
33.2916
37.6092
37.5423
35.1243
45.2139
40.8042
40.8787
40.6489
40.7277
45.1351
59.5386
59.4978
51.2184
87.735
71.1131
71.0939
71.1383
71.128
87.8723
145.799
146.625
111.892
232.335
191.835
190.286
194.991
193.403
234.721
206.174
208.639
239.086
169.892
168.199
173.386
171.621
31.1582
31.1388
30.4014
33.5083
32.145
32.1754
32.0836
32.1144
33.4662
37.8622
37.8011
35.3431
45.5027
41.0898
41.1563
40.951
41.0214
45.4343
59.666
59.6391
51.4696
87.1503
71.0134
70.9796
71.0708
71.0438
87.3012
142.553
143.355
110.366
223.186
185.76
184.291
188.758
187.249
225.415
196.846
199.103
228.338
163.323
161.76
166.541
164.916
31.2321
31.2159
30.4399
33.6701
32.264
32.2887
32.2055
32.2352
33.6312
38.0843
38.0361
35.5451
45.7528
41.3441
41.3963
41.221
41.2839
45.6941
59.743
59.7287
51.6748
86.5238
70.8607
70.819
70.9427
70.9029
86.683
139.437
140.189
108.839
214.631
180.002
178.636
182.842
181.411
216.716
188.317
190.356
218.377
157.248
155.839
160.227
158.723
164.381
132.62
135.289
127.555
130.051
160.936
93.2371
108.307
106.339
352.211
246.51
257.966
227.119
236.669
331.296
143.633
180.011
173.996
1558.91
1484.88
61.3138
62.4497
74.5696
48.3057
54.2424
53.43
55.9886
55.0957
48.9192
72.6103
76.3437
95.3757
54.9433
63.6628
61.2213
68.9161
67.2567
57.3274
50.943
57.8994
56.9214
60.0063
58.9224
51.6708
84.4008
69.1564
70.78
198.389
157.028
160.662
150.176
153.524
193.42
106.229
125.851
123.409
1923.25
1957.64
3182.26
345.662
834.192
748.219
2453.31
1417.41
1513.11
1297.37
383.519
375.646
317.064
639.952
486.236
493.003
104.378
102.392
89.3335
151.371
122.835
125.151
120.616
148.439
6465.74
6621.23
10574.5
2434.45
3982.84
3796.89
151.975
141.091
117.632
222.527
174.449
190.434
164.44
168.53
214.283
6784.73
6291.96
4491.42
8397.42
8079.96
8988.1
396
344.807
348.428
341.769
342.371
382.647
438.75
363.865
370.399
352.932
358.123
428.789
514.161
413.94
468.066
378.33
390.616
479.193
2405.69
60.7467
72.5425
70.6306
132.88
95.1165
99.8723
820.933
1782.52
1596.59
2100.45
1950.17
918.059
6127.94
3971.53
3987.37
3463.8
3724.85
4852.58
1634.7
2346.76
2221.39
2641.57
2485.25
1711.95
714.806
826.885
1252.51
1903.77
3875.14
2854.14
2745.32
2789.55
2939.6
3987.24
970.318
907.55
390.577
46.5001
42.9726
43.3619
42.2591
42.6073
45.9551
46.8046
47.4011
52.8265
486.624
306.046
329.582
44.3702
41.6332
41.9344
41.1409
41.3662
43.8345
50.4734
45.7301
46.2795
43.7923
44.6059
48.8381
2920.82
1965.31
1951.4
1256.94
1332.02
2246.31
1243.36
105.569
112.787
174.909
77.2854
74.7196
62.1282
31.0332
30.9594
30.9462
30.9942
30.9107
30.9031
30.9334
30.9206
31.0015
30.9592
30.8651
30.8519
30.8908
30.8779
30.9699
30.915
30.8117
30.7977
30.8389
30.8253
30.9267
30.8655
30.754
30.7386
30.7835
30.7688
30.8787
30.8094
30.6906
30.6737
30.723
30.7069
30.8242
30.7467
30.6215
30.6033
30.6567
30.6392
30.763
30.6782
30.5473
30.5279
30.5849
30.5662
30.6958
30.6052
30.4689
30.4487
30.5085
30.4887
30.6238
30.529
30.3874
30.3666
30.4285
30.408
30.5483
30.4508
30.3037
30.2824
30.3458
30.3247
30.4705
30.3715
30.2184
30.1969
30.2612
30.2398
30.3914
30.2925
30.1325
30.111
30.1754
30.1539
30.3122
30.2156
30.0471
30.026
30.0896
30.0683
30.2345
30.1428
29.9637
29.9434
30.0051
29.9843
30.1605
30.0763
29.8838
29.8646
29.9232
29.9034
30.0922
30.018
29.8088
29.791
29.8456
29.8271
30.0317
29.9693
29.7399
29.7239
29.7735
29.7566
29.9805
29.9305
29.6781
29.6639
29.7081
29.693
29.9393
29.9014
29.6236
29.6113
29.6499
29.6366
29.9078
29.8814
29.5764
29.5659
29.5991
29.5877
29.8856
29.8693
29.5363
29.5275
29.5555
29.5459
29.8716
29.8639
29.5026
29.4953
29.5187
29.5107
29.8647
29.8644
29.4748
29.4688
29.488
29.4814
29.8638
29.8695
29.4524
29.4486
29.4629
29.4576
29.8678
3956.81
9860.53
25348
3992.95
9963.62
25324.1
9103.28
16331.9
25324
8632.98
17504.8
32212.9
3912.47
9733.37
25386.2
20323.7
47268.7
4066.82
10200.8
25266.8
11241.3
18275.8
21225.4
8867.54
16060.7
26281.9
4180.49
10525.2
25338.2
3874.35
9609.91
25477.2
3858.71
9567.78
25482.8
3897.1
9684.19
25461
3886.36
9666.22
25454.2
3959.3
9858.02
25368.7
3990.4
9974.29
25302.2
8802.3
16030.6
26599.9
3927.41
9733.69
25423.3
3922.38
9717.7
25442.9
9093.05
16330.8
25520.1
3926.16
9729.06
25409.1
3936.86
9755
25396.8
9353.63
16604.1
24739.5
5821.83
13377.9
27471.8
3849.73
9555.16
25486.3
3838.53
9549.91
25485.4
3872.38
9615
25455.7
3873.42
9630.17
25453.9
3957.86
9843.82
25386.8
3991.27
9988.43
25278.1
10704.2
17836.5
22014.9
11016.3
18069.3
21622.6
8846.8
16052.4
26438.9
3881.81
9621.83
25459.2
3897.82
9654.71
25456
9058.07
16285.4
25752.9
3952.07
9809.75
25385.5
9412.69
16696.4
24483.3
4564.77
11372.1
25788.4
67951.2
16033.2
26988.1
16040.5
26836.3
14732.1
20061.6
26291
3859.43
9636.87
25474.8
10214.2
17504.9
22766.8
18002.3
34509.5
10344.6
17619.2
22479.5
3852.06
9578.57
25461.6
3854.13
9549.05
25481.2
3851.13
9592.31
25455.8
3859.14
9640.2
25459.9
8982.38
16190.1
25978.1
9708.61
16997.5
23813.4
9572.05
16860.8
24087.1
27141.6
9256.22
16485.1
24990.9
13022.5
18960.2
21646.5
25496.2
3839.45
9582.65
25488.1
3911.71
9754.38
25391.9
10056.3
17362.4
23070.4
3853.36
9565.57
25469.8
3855.72
9556.67
25474.4
3851.47
9607.63
25451.2
3854.4
9625.54
25452.5
9825.64
17138.3
23527.2
11819.4
18554.4
20770.7
12305.4
18726.6
20783.8
39591.4
)
;

boundaryField
{
    topAndBottom
    {
        type            slip;
    }
    inlet
    {
        type            fixedValue;
        value           nonuniform List<scalar> 0();
    }
    outlet
    {
        type            inletOutlet;
        inletValue      uniform 32;
        value           nonuniform List<scalar> 
30
(
27.9984
28.0257
28.0748
28.1514
30.4483
33.7035
35.5866
45.8037
51.7155
86.3716
108.475
212.602
216.028
28.2256
28.3163
28.4483
28.6523
28.9919
29.8711
31.2321
32.2887
38.0843
41.3963
59.743
70.819
139.437
178.636
188.317
155.839
29.4486
)
;
    }
    wing
    {
        type            omegaWallFunction;
        value           nonuniform List<scalar> 
70
(
8477.34
25348
25324.1
25324
32212.9
25386.2
47268.7
25266.8
21225.4
26281.9
25338.2
25477.2
25482.8
25461
25454.2
25368.7
25302.2
26599.9
25423.3
25442.9
25520.1
25409.1
25396.8
24739.5
27471.8
25486.3
25485.4
25455.7
25453.9
25386.8
25278.1
22014.9
21622.6
26438.9
25459.2
25456
25752.9
25385.5
24483.3
25788.4
67951.2
26988.1
26836.3
26291
25474.8
22766.8
34509.5
22479.5
25461.6
25481.2
25455.8
25459.9
25978.1
23813.4
24087.1
27141.6
24990.9
21646.5
25496.2
25488.1
25391.9
23070.4
25469.8
25474.4
25451.2
25452.5
23527.2
20770.7
20783.8
39591.4
)
;
    }
    front
    {
        type            empty;
    }
    back
    {
        type            empty;
    }
    procBoundary1to0
    {
        type            processor;
        value           nonuniform List<scalar> 
49
(
30.4934
30.5112
30.533
30.5662
30.5662
30.6349
30.7227
30.8848
87.3252
87.3252
183.774
1623.79
37.9293
42.6819
71.6053
47.2044
145.617
856.981
1179.23
240.386
30.6723
30.7916
31.1275
31.2277
31.7188
31.9667
33.1037
33.7167
479.394
632.848
98.1305
31.5149
31.3534
32.6365
32.2669
35.8441
34.5676
60.2175
52.6566
313.9
367.157
118.522
40.9719
31.0443
30.9725
25498.5
3825.66
9550.79
9550.79
)
;
    }
    procBoundary1to3
    {
        type            processor;
        value           nonuniform List<scalar> 
136
(
2670.84
3436.03
1516.62
2541.82
1794.29
1712.24
1516.62
1448.59
4001.47
3803.02
4160.94
1591.34
3436.03
2192.69
4096.41
3599.85
518.74
610.963
434.653
494.405
376.476
418.205
333.879
364.638
301.332
324.953
275.615
294.355
254.735
270.001
237.402
250.11
222.742
233.514
210.148
219.419
199.182
207.268
189.523
196.655
180.931
187.284
173.219
178.926
166.242
171.41
159.887
164.599
154.061
158.384
148.689
152.678
143.71
147.41
139.073
142.521
134.736
137.962
130.7
133.694
1448.59
1448.59
1107.55
1062.54
997.568
929.042
2418.57
2092.07
942.308
997.568
1591.34
1527.63
1591.34
2301.73
1885.14
1643.33
545.909
576.439
452.675
472.5
389.268
403.129
343.423
353.649
308.728
316.588
281.527
287.765
259.581
264.663
241.456
245.687
226.193
229.781
213.129
216.218
201.79
204.484
191.83
194.206
182.99
185.107
175.073
176.975
167.924
169.646
161.423
162.993
155.472
156.913
149.993
151.322
144.921
146.154
140.203
141.352
135.794
136.869
131.658
132.667
1208.04
1156.26
893.281
849.409
1020.68
1998.59
1578.8
809.516
773.578
970.568
8780.37
8765.36
16022.5
8780.37
16022.5
27367.8
)
;
    }
}


// ************************************************************************* //
