/*--------------------------------*- C++ -*----------------------------------*\
| =========                 |                                                 |
| \\      /  F ield         | OpenFOAM: The Open Source CFD Toolbox           |
|  \\    /   O peration     | Version:  v2012                                 |
|   \\  /    A nd           | Website:  www.openfoam.com                      |
|    \\/     M anipulation  |                                                 |
\*---------------------------------------------------------------------------*/
FoamFile
{
    version     2.0;
    format      ascii;
    class       volScalarField;
    location    "0";
    object      p;
}
// * * * * * * * * * * * * * * * * * * * * * * * * * * * * * * * * * * * * * //

dimensions      [0 2 -2 0 0 0 0];


internalField   nonuniform List<scalar> 
3259
(
550.041
553.136
559.268
569.181
588.486
607.023
630.631
663.874
702.995
753.777
826.248
945.784
518.829
521.053
525.403
532.323
549.316
561.888
577.026
600.797
623.642
651.364
688.521
784.899
485.43
486.698
489.103
492.76
506.831
512.968
519.216
532.537
537.527
536.918
520.126
456.227
450.676
451.016
451.55
452.136
463.232
463.552
461.904
465.438
455.375
433.357
386.85
294.834
415.394
414.918
413.826
411.765
419.976
415.344
407.295
402.975
382.336
347.772
293.269
208.375
380.336
379.185
376.768
372.579
378.219
369.791
357.15
347.311
320.813
281.828
228.293
155.498
346.115
344.444
341.017
335.253
338.765
327.716
312.194
298.988
270.141
231.13
181.84
120.297
313.204
311.166
307.043
300.231
302.082
289.458
272.462
257.564
228.601
191.697
147.527
95.4501
281.94
279.676
275.139
267.74
268.364
255.015
237.6
222.189
194.405
160.523
121.413
77.1371
252.536
250.168
245.45
237.84
237.616
224.184
207.086
191.939
166.024
135.454
101.023
63.1844
225.099
222.722
218.01
210.478
209.716
196.662
180.365
165.966
142.24
114.965
84.7475
52.2719
199.647
197.335
192.77
185.527
184.471
172.105
156.906
143.54
122.106
97.9563
71.5061
43.5525
176.133
173.94
169.622
162.817
161.654
150.173
136.237
124.053
104.895
83.6402
60.5536
36.4604
154.464
152.427
148.426
142.153
141.02
130.539
117.942
107.005
90.0388
71.4382
51.3598
30.6016
134.513
132.656
129.015
123.333
122.334
112.906
101.666
91.9875
77.0968
60.9195
43.5396
25.6945
116.129
114.467
111.212
106.15
105.361
97.0019
87.1012
78.6598
65.716
51.7526
36.8044
21.5308
99.1509
97.6909
94.833
90.4023
89.8805
82.5815
73.9805
66.7405
55.6143
43.6789
30.9342
17.9536
83.4085
82.153
79.6966
75.8966
75.6845
69.4227
62.0728
55.9908
46.5602
36.491
25.7563
14.841
68.7221
67.6717
65.6162
62.441
62.5776
57.3251
51.1755
46.2068
38.3615
30.0197
21.1324
12.0966
54.9435
54.0942
52.4341
49.873
50.382
46.1066
41.109
37.2126
30.8561
24.1242
16.9492
9.64224
41.8106
41.167
39.9037
37.9565
38.9104
35.5996
31.7127
28.8536
23.9036
18.6838
13.1107
7.41247
29.463
28.9995
28.11
26.7446
28.0592
25.6542
22.8419
20.994
17.3822
13.5933
9.5331
5.35078
16.6871
16.4719
16.002
15.2802
17.4973
16.1122
14.3564
13.5145
11.1837
8.75595
6.13811
3.40433
7.53783
7.35087
7.12079
6.70386
7.64231
6.74159
6.01996
6.31773
5.21309
4.07367
2.85014
1.50123
953.094
811.373
853.208
940.982
726.73
799.562
929.076
900.242
1000.92
1021.06
522.885
1023.42
1027.99
1035.37
1001.11
889.709
1007.91
921.159
1026
1007.31
-342.661
1007.12
968.074
953.084
986.656
972.764
1008.11
1033.68
1004.71
991.105
1009.39
1037.02
1041.08
1037.32
946.802
923.881
995.47
1009.51
471.692
157.564
1014.44
-336.787
110.903
-254.422
1014.12
-282.122
78.8786
560.508
536.833
764.998
656.926
660.319
956.221
1001.97
982.508
977.691
858.873
594.72
1053.87
1023.87
913.936
912.856
875.648
975.798
968.026
998.084
124.256
1008.67
443.844
673.438
507.861
626.404
1015.28
1011.99
989.195
984.507
999.298
1009.64
996.311
991.66
1051.96
1028.66
994.16
964.257
956.584
652.357
552.237
1007.85
243.817
414.928
299.556
1011.93
-489.942
-50.0677
181.598
-94.0445
998.548
1004.82
999.039
1012.33
1023.26
1012.04
1007.42
1032.59
1037.43
1029.58
1009.61
1024.36
1031.19
1031.04
1003.52
1021.13
1014.65
1025.51
1046.29
1030.92
1024.27
1044.82
1050.15
1045.22
1034.15
1037.71
1040.66
968.331
968.033
974.571
739.232
976.476
343.239
488.398
615.252
1020.46
1017.54
1013.52
-395.251
-250.042
-223.934
-237.573
1011.65
1018.27
1020.94
-126.99
1064.16
1065.44
1024.24
1027.42
1037.19
1021.23
943.279
1003.23
1158.15
1000.18
989.754
987.24
1010.63
378.035
358.05
1143.49
1010.09
770.222
1016.34
1025.76
1020.68
1006.22
1054.76
1047.54
1065.76
1062.15
1034.12
1034.46
1030.76
1037.04
1036.39
1042.77
1039.84
983.074
980.179
992.515
607.887
632.183
704.771
561.134
571.189
544.532
1008.94
347.176
291.698
219.62
1012.05
1013.79
1011.77
-467.006
43.4063
-21.3259
161.281
150.227
161.366
-42.1804
-170.104
-155.364
-51.4331
1008.56
1017.72
1011.36
678.777
709.582
721.494
761.456
776.686
830.925
616.474
635.918
692.074
643.367
667.995
739.701
677.307
711.455
804.787
796.411
818.098
864.592
929.318
961.575
976.629
549.605
556.564
617.341
558.834
564.083
643.935
564.974
563.375
677.6
645.789
652.857
717.599
741.836
746.142
829.326
481.906
477.609
536.496
475.223
463.652
538.049
457.613
429.611
527.008
416.085
353.978
475.609
325.198
418.007
405.185
458.717
399.54
377.001
440.575
367.181
329.14
401.485
313.492
250.172
322.654
225.875
360.532
342.521
388.551
335.12
307.756
358.096
296.709
257.545
308.914
242.479
186.094
231.365
166.65
310.387
289.934
328.462
281.881
253.521
292.929
242.611
205.803
243.052
192.118
143.656
173.908
127.923
267.307
246.268
278.239
238.231
210.864
241.894
200.68
167.365
195.143
155.213
113.91
135.263
100.937
230.505
210.011
236.568
202.354
176.913
201.656
167.672
138.015
159.302
127.327
92.1149
107.846
81.2403
199.057
179.74
201.933
172.645
149.498
169.517
141.241
115.039
131.756
105.683
75.5794
87.5649
66.3461
172.089
154.271
172.964
147.811
127.034
143.469
119.724
96.6657
110.069
88.4965
62.6813
72.0619
54.7672
148.838
132.649
148.537
126.84
108.369
122.05
101.929
81.6976
92.6419
74.5771
52.3877
59.8951
45.5612
128.668
114.129
127.754
108.957
92.653
104.191
87.0014
69.3051
78.3845
63.1091
44.0145
50.1358
38.1047
111.053
98.1251
109.913
93.5577
79.2558
89.1071
74.316
58.8951
66.5359
53.5163
37.0895
42.1625
31.9675
95.5631
84.1738
94.4608
80.1735
67.7061
76.211
63.4109
50.0357
56.5491
45.383
31.2782
35.5432
26.8445
81.8426
71.9051
80.9617
68.4315
57.6425
65.0631
53.9329
42.4033
48.0233
38.3996
26.3354
29.9692
22.5115
69.5958
61.0192
69.0642
58.0332
48.7825
55.3241
45.6069
35.7506
40.6565
32.3308
22.0772
25.2127
18.8001
58.575
51.2711
58.4843
48.7366
40.9011
46.7283
38.2147
29.8842
34.2169
26.9939
18.3624
21.1023
15.5812
48.568
42.4553
48.9871
40.3402
33.8136
39.0612
31.5784
24.6492
28.5217
22.2429
15.0793
17.505
12.7527
39.3926
34.3988
40.3762
32.6754
27.3672
32.1473
25.5509
19.9189
23.4237
17.9592
12.1383
14.3151
10.2324
30.8891
26.9518
32.4853
25.5968
21.4312
25.84
20.0072
15.5864
18.8023
14.0427
9.46428
11.4475
7.95205
22.9174
19.9846
25.1698
18.9783
15.8924
20.0134
14.8385
11.5596
14.5545
10.4074
6.99287
8.82981
5.85335
15.354
13.3826
18.304
12.7084
10.6487
14.5576
9.94665
7.75349
10.5906
6.97391
4.66473
6.39969
3.88314
8.09859
7.04924
11.7774
6.69104
5.60501
9.37271
5.23748
4.08575
6.82687
3.66588
2.41759
4.09798
1.98586
1.41212
1.18666
5.49508
1.11252
0.873562
4.36059
0.785899
0.493372
3.17926
0.396713
0.463298
1.84704
0.413301
981.422
995.605
967.312
854.588
893.928
846.456
581.966
878.329
913.51
877.726
972.509
927.009
892.257
741.616
799.982
762.655
867.905
813.619
752.501
878.813
832.031
886.055
938.626
956.291
920.886
999.994
994.467
993.53
1015.39
1013.15
1018.66
401.266
580.313
616.608
541.299
379.576
557.87
520.974
1024.58
1018.9
1017.53
1033.76
1048.38
973.949
1000.3
974.233
974.806
924.939
992.608
991.433
1000.89
860.669
905.09
931.627
905.591
902.072
1033.01
1001.03
999.12
1004.85
963.215
975.749
979.843
969.947
977.71
958.249
982.069
992.287
996.607
983.875
987.953
977.398
1008.43
1003.36
1002.39
1029.78
1027
1030.65
1000.05
1008.99
1013.66
1000.69
1004.68
995.521
1018.25
1027.5
1018.47
1023.1
1013.92
1040.46
1035.75
1032.77
939.896
959.187
967.597
948.353
955.387
931.993
423.883
474.082
513.136
190.044
247.231
207.613
60.6315
99.4025
142.386
-242.188
-75.7841
556.035
603.783
602.619
616.018
603.567
548.985
726.672
646.482
652.146
647.848
693.824
698.121
736.641
705.261
640.804
849.261
771.523
677.47
995.56
995.544
1001.33
980.671
988.251
989.018
985.517
986.978
979.203
643.952
600.691
646.868
522.46
561.988
640.966
1059.85
1060.38
1055.37
948.092
989.346
809.78
919.378
956.632
941.187
890.739
929.56
902.41
973.635
982.312
984.022
977.294
980.113
971.036
253.675
705.211
826.576
769.119
663.305
908.455
645.449
821.091
746.408
988.044
993.489
995.214
990.088
991.655
985.491
1003.16
997.397
995.588
1005.85
1004.34
1008.58
995.066
999.741
1001.4
996.889
998.198
992.657
1049.09
1055.32
1058.56
960.665
969.753
973.364
961.81
961.675
954.867
379.431
332.955
356.238
255.11
295.488
340.823
-37.3939
24.1614
0.241516
1003.36
1008.12
1010.16
1003.62
1005.82
1000.57
1015.78
1010.74
1008.16
1020.32
1019.42
1023.62
1010.85
1015.02
1016.45
1012.2
1013.67
1008.55
1019.24
1023.11
1025.64
1018.45
1020.56
1016.27
1027.7
1024.36
1022.22
1041.06
1038.59
1043.66
1029.25
1033.71
1036
1028.43
1031.05
1026.18
389.895
435.356
392.456
515.307
476.315
436.202
559.329
524.354
571.135
-188.386
965.738
968.012
932.827
1037.52
1041.52
997.305
1505.15
1183.76
1082.9
1118.09
1219.48
1322.9
1015.72
1188.59
1100.6
813.77
847.121
743.438
607.457
616.884
628.075
640.855
655.521
669.853
569.756
576.495
597.338
584.543
593.537
618.017
603.724
610.697
655.64
648.563
656.353
672.533
683.817
694.178
714.479
729.619
743.536
769.123
941.682
951.15
956.443
528.649
532.856
555.368
537.725
542.899
569.1
548.335
547.147
595.783
583.823
588.045
605.975
602.033
607.114
630.187
622.608
628.036
659.334
485.152
486.626
509.905
488.191
489.485
516.128
490.347
482.55
530.942
515.52
516.136
534.031
516.391
515.756
538.201
509.479
505.332
534.873
482.442
470.321
511.235
403.852
366.74
417.658
441.378
440.474
463.594
439.191
437.166
463.102
434.129
421.111
466.866
449.278
446.813
463.669
436.101
431.121
451.343
410.082
400.276
424.576
360.079
342.626
369.88
268.603
237.298
260.911
398.589
395.726
417.998
392.16
387.549
411.915
381.598
365.272
406.691
388.374
383.736
398.786
365.868
358.323
375.263
329.612
317.736
336.158
274.811
257.442
275.677
192.868
169.107
182.999
357.788
353.482
374.421
348.277
341.873
364.175
334.009
316.023
352.481
334.541
328.649
341.649
307.188
298.601
312.379
267.896
255.957
269.794
215.247
199.403
212.011
145.416
126.653
135.662
319.598
314.341
333.687
308.091
300.611
320.68
291.691
273.289
304.907
288.006
281.568
292.625
258.972
250.257
261.398
220.35
209.179
219.725
172.31
158.323
167.386
113.304
98.015
104.241
284.339
278.552
296.212
271.756
263.772
281.65
254.453
236.469
263.722
248.179
241.67
251.03
219.428
211.073
220.126
183.226
173.111
181.307
140.346
128.154
134.901
90.3641
77.6539
82.1583
252.093
246.11
262.106
239.152
231.091
246.934
221.834
204.776
228.255
214.168
207.881
215.816
186.816
179.059
186.485
153.751
144.74
151.239
115.853
105.277
110.452
73.3021
62.5995
65.9747
222.791
216.861
231.281
210.017
202.176
216.189
193.285
177.436
197.712
185.064
179.162
185.92
159.688
152.625
158.783
129.952
121.987
127.236
96.6175
87.4554
91.5256
60.2105
51.1243
53.724
196.262
190.561
203.53
184.022
176.595
188.995
168.258
153.746
171.336
160.042
154.61
160.402
136.896
130.547
135.713
110.422
103.407
107.722
81.1865
73.2513
76.5217
49.9123
42.1591
44.2077
172.288
166.932
178.59
160.821
153.926
164.921
146.25
133.112
148.45
138.403
133.476
138.475
117.554
111.903
116.283
94.1505
87.9914
91.5918
68.5772
61.7077
64.3839
41.6447
35.0103
36.6556
150.627
145.689
156.178
140.077
133.781
143.561
126.816
115.031
128.486
119.57
115.151
119.498
100.979
95.9891
99.7434
80.4105
75.0219
78.0663
58.1074
52.168
54.3931
34.8926
29.2103
30.5536
131.036
126.556
136.01
121.48
115.811
124.544
109.572
99.0873
110.964
103.066
99.1421
102.951
86.6391
82.2652
85.5154
68.6652
63.9722
66.5779
49.2887
44.1656
46.0423
29.2948
24.432
25.5448
113.276
109.27
117.82
104.745
99.7079
107.544
94.1875
84.9317
95.4857
88.5014
85.0514
88.4141
74.1174
70.3118
73.1535
58.5122
54.4485
56.7042
41.7637
37.3619
38.9655
24.5908
20.441
21.3753
97.1185
93.5895
101.355
89.6131
85.198
92.2693
80.3755
72.2722
81.7186
75.5513
72.55
75.5425
63.0805
59.7976
62.3065
49.6405
46.148
48.1223
35.2632
31.5032
32.8907
20.5868
17.0636
17.8582
82.3474
79.2894
86.3798
75.851
72.0401
78.4637
67.8885
60.8616
69.3832
63.9462
61.3672
64.0529
53.2606
50.459
52.696
41.806
38.8344
40.5813
29.5807
26.3961
27.6114
17.136
14.169
14.8533
68.7607
66.1627
72.6806
63.2473
60.019
65.8994
56.5095
50.4867
58.241
53.4566
51.2743
53.707
44.4369
42.0802
44.0954
34.8117
32.3179
33.8813
24.5531
21.8885
22.9664
14.1237
11.6554
12.2528
56.1711
54.0208
60.0592
51.612
48.9446
54.3744
46.0489
40.9636
48.0865
43.8868
42.0778
44.3027
36.4259
34.4826
36.3174
28.4968
26.4443
27.8599
20.0493
17.859
18.8274
11.4585
9.44262
9.97142
44.4018
42.6879
48.3338
40.7705
38.6437
43.7071
36.3366
32.1298
38.7421
35.0662
33.6095
35.6667
29.0712
27.5144
29.2049
22.7258
21.0842
22.3824
15.9607
14.2073
15.0897
9.06609
7.46534
7.94072
33.285
31.9996
37.3333
30.5624
28.9602
33.7332
27.2205
23.8425
30.0499
26.8449
25.723
27.6472
22.2373
21.0449
22.622
17.3823
16.1267
17.3338
12.195
10.8484
11.6649
6.88338
5.66876
6.10363
22.6884
21.8225
26.9093
20.8489
19.7541
24.3041
18.5647
15.9746
21.8715
19.0917
18.29
20.1119
15.8062
14.9594
16.4505
12.3639
11.474
12.6137
8.67025
7.70702
8.4759
4.85545
4.0056
4.41131
12.4795
12.0223
16.8935
11.5124
10.9176
15.2706
10.2652
8.42551
14.0837
11.692
11.1991
12.9445
9.67343
9.15548
10.5851
7.57522
7.0339
8.12895
5.30893
4.71146
5.45055
2.92939
2.43168
2.81916
3.51581
3.37972
7.10441
3.18579
2.99264
6.38553
2.78611
1.49353
6.58593
4.56785
4.37463
6.04945
3.76067
3.55262
4.92976
2.92643
2.71561
3.78355
2.03714
1.79704
2.51926
1.05001
0.908416
1.27995
962.033
967.018
956.862
820.009
841.186
826.445
952.091
935.052
923.356
823.952
802.991
780.578
910.773
897.139
916.167
911.991
919.318
906.381
983.57
991.43
882.04
894.653
903.498
27.3366
749.592
716.075
727.541
872.62
824.534
855.966
792.857
797.505
854.929
171.819
562.569
542.788
559.66
688.233
703.318
693.063
726.386
714.346
698.422
734.015
752.679
739.211
782.077
766.925
747.287
793.184
815.68
798.274
854.859
834.46
811.183
622.505
639.439
632.503
654.979
646.862
628.935
681.854
664.746
673.961
651.167
672.765
663.654
692.644
682.378
659.333
726.662
705.154
716.905
687.466
715.899
703.741
744.664
729.415
698.739
786.023
758.969
776.29
939.435
945.166
933.876
966.691
955.922
950.397
966.55
961.374
971.737
551.982
569.94
566.641
576.709
573.247
554.259
611.439
592.423
597.094
560.925
583.848
580.274
590.471
587.246
562.712
636.913
612.194
617.343
565.268
596.319
593.51
601.01
598.849
564.81
668.031
633.699
639.614
813.647
791.852
803.887
480.884
498.386
498.605
496.913
497.844
479.475
535.339
516.497
516.564
472.248
493.744
495.578
487.608
491.135
468.471
538.438
514.489
512.465
450.114
477.003
482.968
459.835
469.428
440.864
531.688
499.759
492.336
400.072
433.437
447.855
389.278
416.67
381.678
499.058
455.323
428.492
288.169
322.038
360.987
286.169
255.119
367.622
324.655
414.334
430.351
433.451
422.45
426.712
410.086
461.455
443.849
440.309
393.044
411.671
417.473
397.075
404.919
385.575
446.497
425.254
418.326
355.976
377.34
387.95
351.218
365.097
343.291
414.008
388.725
375.326
295.794
318.028
335.689
271.353
297.793
275.672
350.324
322.523
295.316
198.701
216.65
245.788
188.984
172.618
229.648
207.86
355.164
369.191
374.227
357.218
363.546
349.18
394.005
378.489
372.56
326.905
342.21
350.133
323.525
333.368
317.806
367.222
349.829
340.288
284.644
300.594
312.613
273.265
287.467
271.577
323.2
304.637
290.342
225.787
240.875
257.935
199.591
221.963
207.434
255.841
238.024
214.601
145.635
156.723
179.04
134.613
124.663
158.343
145.769
304.149
316.152
322.245
302.188
309.483
297.344
335.387
322.159
315.023
273.147
285.535
294.22
265.866
276.093
263.699
303.102
289.212
278.984
230.995
243.049
254.845
217.282
230.52
218.722
256.857
243.203
229.667
177.196
187.835
203.223
152.822
171.282
161.244
194.248
182.243
162.866
111.038
118.479
136.263
100.463
93.8765
115.747
107.721
260.787
270.961
277.463
256.431
263.961
253.78
285.722
274.601
267.079
229.653
239.686
248.345
220.612
230.441
220.529
251.986
240.914
230.941
190.02
199.295
210.217
175.989
187.894
178.928
207.73
197.476
185.228
142.143
149.931
163.456
120.462
135.704
128.456
152.024
143.537
127.558
87.0247
92.2945
106.871
77.3738
72.7587
87.877
82.3963
224.08
232.693
239.179
218.462
225.794
217.25
244.04
234.717
227.307
194.279
202.467
210.687
184.715
193.804
185.793
211.141
202.243
192.951
158.112
165.392
175.229
144.669
155.227
148.25
170.526
162.639
151.751
115.968
121.857
133.625
96.9889
109.675
104.249
121.736
115.491
102.22
69.5918
73.4756
85.6391
60.9469
57.5769
68.5068
64.5806
192.948
200.265
206.478
186.816
193.714
186.508
209.068
201.227
194.207
165.229
171.981
179.57
155.834
164.061
157.505
178.183
170.946
162.499
132.764
138.591
147.332
120.295
129.603
124.054
141.675
135.468
125.858
95.8383
100.414
110.618
79.3214
89.9725
85.787
99.1774
94.4274
83.3087
56.4926
59.4454
69.7123
48.8115
46.2723
54.4455
51.5299
166.416
172.666
178.467
160.244
166.594
160.474
179.597
172.963
166.47
141.105
146.737
153.622
132.255
139.606
134.171
151.256
145.296
137.728
112.247
116.996
124.714
100.901
109.078
104.579
118.798
113.812
105.363
79.9696
83.6091
92.4479
65.6286
74.6355
71.3263
81.8488
78.1376
68.7505
46.3779
48.6797
57.4093
39.5836
37.6223
43.8969
41.6714
143.656
149.033
154.35
137.737
143.495
138.257
154.593
148.937
143.03
120.844
125.595
131.766
112.73
119.241
114.679
128.974
124.002
117.286
95.3539
99.2884
106.08
85.1704
92.3317
88.622
100.297
96.2196
88.8148
67.1933
70.1454
77.8001
54.7587
62.4161
59.7452
68.1954
65.2295
57.2581
38.3908
40.2227
47.6783
32.402
30.856
35.7775
34.0401
123.995
128.653
133.463
118.503
123.666
119.146
133.213
128.352
123.041
103.642
107.692
113.174
96.3431
102.076
98.2016
110.305
106.107
100.186
81.2374
84.543
90.502
72.1974
78.4508
75.3473
85.0789
81.6917
75.221
56.7201
59.1558
65.781
45.9564
52.4891
50.2949
57.2063
54.7904
47.9945
31.9647
33.4486
39.8308
26.7055
25.4659
29.3952
28.0136
106.883
110.949
115.252
101.918
106.504
102.571
114.784
110.572
105.844
88.8818
92.3711
97.2025
82.416
87.4386
84.1114
94.4762
90.891
85.6973
69.284
72.0968
77.3049
61.3377
66.7814
64.1502
72.373
69.52
63.8824
47.9981
50.0383
55.7638
38.7053
44.2873
42.4565
48.2007
46.2002
40.3945
26.7097
27.9304
33.3966
22.1126
21.1035
24.29
23.1735
91.8791
95.4544
99.2654
87.4909
91.5283
88.079
98.7683
95.0891
90.9179
76.0897
79.1251
83.3525
70.4417
74.8195
71.9321
80.9034
77.8081
73.2748
59.0403
61.4614
65.9912
52.1244
56.8444
54.5868
61.6209
59.1874
54.2939
40.6314
42.3635
47.2979
32.6413
37.4094
35.8608
40.7031
39.0221
34.0617
22.3502
23.3681
28.0436
18.3555
17.523
20.143
19.228
78.6203
81.7892
85.1313
74.832
78.3547
75.3044
84.7374
81.4972
77.8493
64.8927
67.5596
71.2305
60.0357
63.8269
61.2954
69.1408
66.4406
62.5078
50.1616
52.269
56.1848
44.211
48.2816
46.3219
52.41
50.3097
46.0831
34.3278
35.8171
40.0515
27.5006
31.5636
30.2365
34.3726
32.9413
28.7109
18.6847
19.5449
23.5306
15.241
14.5451
16.7279
15.9679
66.809
69.6409
72.5399
63.6253
66.6679
63.947
72.3426
69.4648
66.3056
54.9958
57.3619
60.5208
50.8978
54.1536
51.9117
58.8417
56.4624
53.0772
42.3806
44.2352
47.5931
37.3332
40.8179
39.0975
44.4268
42.5933
38.9675
28.8661
30.1626
33.7729
23.0858
26.531
25.3795
28.957
27.7227
24.1303
15.5629
16.2991
19.6772
12.6255
12.0363
13.8783
13.239
56.1975
58.7504
61.2329
53.6134
56.2093
53.7601
61.2996
58.7211
56.0166
46.1616
48.2819
50.9691
42.7904
45.5553
43.5495
49.7335
47.6157
44.7319
35.4869
37.1371
39.9855
31.2861
34.2389
32.7115
37.4294
35.8107
32.7296
24.0756
25.2182
28.268
19.2466
22.1445
21.1327
24.2659
23.1883
20.1594
12.87
13.5083
16.3458
10.4005
9.89496
11.4699
10.9251
46.5751
48.8984
50.9895
44.5817
46.7615
44.5352
51.3713
49.039
46.758
38.1938
40.1139
42.3645
35.5197
37.8321
36.0181
41.5955
39.6904
37.2681
29.3093
30.7946
33.175
25.906
28.3725
27.0002
31.2261
29.7803
27.1962
19.8207
20.8406
23.3826
15.8648
18.2722
17.3717
20.1512
19.1982
16.6729
10.5158
11.0768
13.428
8.48179
8.04188
9.40738
8.93662
37.7622
39.8986
41.6211
36.3503
38.1408
36.0956
42.3582
40.2274
38.342
30.9284
32.6869
34.5314
28.9261
30.8185
29.159
34.246
32.5135
30.5189
23.7073
25.0607
27.0079
21.0603
23.0784
21.8301
25.6617
24.355
22.228
15.9916
16.9142
18.992
12.8458
14.8085
13.9959
16.4951
15.6412
13.5711
8.42815
8.9285
10.8375
6.80273
6.41386
7.61595
7.20317
29.6018
31.5884
32.9625
28.7638
30.1881
28.2878
34.0901
32.1216
30.6077
24.2247
25.8549
27.3186
22.8737
24.3734
22.8363
27.533
25.9384
24.3429
18.5614
19.811
21.3539
16.6375
18.2387
17.0877
20.6085
19.4119
17.709
12.4961
13.3431
14.9922
10.1114
11.6657
10.9212
13.202
12.4257
10.7722
6.54753
7.00116
8.50294
5.30921
4.95937
6.0358
5.66783
21.9572
23.8267
24.8693
21.688
22.7657
20.9783
26.4186
24.5785
23.4158
17.9608
19.4917
20.5961
17.2456
18.3751
16.9324
21.3254
19.8389
18.6188
13.7681
14.9386
16.101
12.5424
13.7521
12.6748
15.9572
14.8458
13.5402
9.25502
10.0455
11.2943
7.59502
8.76921
8.07555
10.191
9.47403
8.20703
4.8233
5.24221
6.36395
3.95606
3.63506
4.61764
4.28339
14.7078
16.4888
17.2136
15.0046
15.7519
14.0496
19.2146
17.4731
16.6445
12.0281
13.4858
14.2488
11.9374
12.7156
11.3418
15.5093
14.1042
13.2398
9.233
10.3476
11.1489
8.68887
9.52728
8.50165
11.6124
10.5637
9.6341
6.19544
6.94727
7.81762
5.23661
6.0514
5.39212
7.39205
6.71767
5.81459
3.2102
3.60546
4.36653
2.7045
2.40336
3.31983
3.00981
7.7549
9.4687
9.88697
8.61151
9.04304
7.40434
12.3649
10.6966
10.1875
6.33082
7.73746
8.17594
6.85199
7.29633
5.96893
9.98173
8.63381
8.10773
4.86447
5.946
6.40261
4.99425
5.47638
4.48044
7.48566
6.47781
5.90762
3.24656
3.97695
4.48517
2.97462
3.44536
2.80397
4.73885
4.09053
3.53552
1.66451
2.04656
2.45568
1.52112
1.23307
2.10598
1.81193
1.33285
2.64094
2.76921
2.38056
2.51161
1.25942
5.77454
4.17304
3.96783
1.03608
2.11549
2.24823
1.85277
1.9833
0.956649
4.64561
3.34426
3.13575
0.693143
1.60113
1.72489
1.36236
1.47989
0.594004
3.48531
2.49911
2.27771
0.34603
1.08453
1.23093
0.636161
0.868538
0.367961
2.15988
1.53149
1.30818
0.247456
0.502592
0.450813
0.425125
0.0572258
0.951128
0.667498
986.143
976.622
971.681
986.39
981.588
990.877
963.813
972.353
977.103
879.737
858.666
835.913
877.815
876.558
897.155
843.197
858.511
861.887
480.128
583.064
956.233
945.98
962.567
916.467
930.788
941.312
907.187
919.391
904.738
846.765
825.13
846.249
793.185
807.968
829.056
765.345
786.595
772.486
864.494
879.979
894.088
847.696
864.597
848.894
901.979
882.184
865.496
944.942
931.937
924.986
944.552
938.504
950.79
915.702
926.603
932.95
585.394
540.504
517.788
578.291
564.382
605.748
487.789
445.428
483.857
548.025
1038.27
1040.24
1035.2
1050.2
1045.25
1043.26
982.196
986.691
977.192
1004.85
995.788
991.197
1000.28
1009.23
985.776
1055.52
919.337
961.18
979.78
993.933
873.584
884.291
869.483
914.873
899.161
888.772
917.271
908.832
923.871
949.591
896.628
916.482
968.599
972.692
988.991
971.688
964.596
963.1
966.952
967.3
974.252
962.223
953.357
951.052
959.339
957.518
965.21
947.282
937.973
938.479
946.205
943.56
951.988
-26.6026
699.181
707.139
737.196
689.637
682.544
649.168
821.666
831.606
861.054
770.965
799.518
790.251
786.917
787.541
808.395
753.76
745.3
734.257
612.852
668.929
628.327
735.76
702.823
632.437
931.669
947.41
951.574
215.779
720.651
638.287
611.504
860.311
751.901
840.105
491.768
526.889
542.802
834.651
820.972
806.175
850.63
838.026
850.357
709.522
688.701
691.959
775.632
765.392
738.785
890.807
876.942
866.017
900.63
891.067
902.902
760.189
748.415
732.33
787.078
769.72
780.294
471.835
502.707
494.528
416.592
411.909
443.088
538.631
616.965
585.5
582.663
647.373
677.124
672.012
683.351
673.689
661.872
625.844
618.982
605.64
647.451
634.502
641.149
563.379
559.985
544.894
590.714
575.978
579.671
498.596
498.278
483.022
529.084
513.805
514.668
436.128
438.44
423.782
467.952
452.908
451.251
378.77
382.956
369.442
410.037
395.905
392.397
327.866
333.189
321.05
357.321
344.481
339.81
283.553
289.421
278.678
310.566
299.131
293.871
245.323
251.316
241.882
269.696
259.622
254.188
212.417
218.262
209.998
234.201
225.369
220.031
184.048
189.58
182.34
203.417
195.683
190.608
159.494
164.621
158.265
176.673
169.892
165.174
138.135
142.811
137.217
153.355
147.395
143.081
119.447
123.658
118.714
132.931
127.674
123.781
102.991
106.742
102.357
114.944
110.29
106.815
88.407
91.7109
87.8028
99.0108
94.8735
91.8054
75.3878
78.2644
74.7638
84.8062
81.11
78.4311
63.6765
66.1475
62.9937
72.0544
68.7342
66.4248
53.0518
55.1387
52.2788
60.5174
57.5163
55.5566
43.3234
45.0463
42.4335
49.9891
47.2582
45.6293
34.3234
35.7
33.293
40.2898
37.7848
36.47
25.9046
26.9501
24.7121
31.2593
28.9411
27.9261
17.936
18.6623
16.5604
22.7559
20.5899
19.8633
10.3054
10.724
8.73598
14.6505
12.6066
12.1626
2.90183
3.10385
1.52882
6.81572
4.88546
4.73713
1015.88
1024.71
1032.31
1012.82
1012.97
1011.06
-331.364
-337.399
-340.002
1066.95
977.396
970.045
1008.07
998.743
995.841
705.674
699.095
1016.42
1017.57
1019.61
476.804
478.728
474.558
-583.335
-588.652
-593.035
1023
1041.18
1064.57
1036.58
1039.25
1041.05
1037.01
1036.86
1037.49
1038.21
1044.45
1048.43
1040.98
1052.76
1066.18
1008.39
1015.29
1019.14
1018.23
1027.08
1035.42
-685.622
-695.358
-700.919
1026.66
1034.28
1040.24
1021.63
1024.91
1025.36
-384.24
-383.328
-384.394
1026.25
1031.86
1038.26
1020.89
1021.11
1021.96
-199.975
-196.564
-200.386
997.986
1025.06
1060.53
1035.72
1034.19
1034.12
1029.85
1031.82
1032.29
1014.84
1006.56
1000.46
1030.57
1032.31
1037.73
998.94
985.238
971.624
1019.92
1026.36
1034.53
345.73
342.434
338.094
410.24
415.03
410.454
-636.465
-638.362
-644.814
1010.43
1004.91
999.579
1015.63
1015.68
1014.45
-445.887
-442.149
-445.887
1018.76
1021.45
1023.23
-134.847
-133.261
-134.674
1025.4
1048.71
1087.88
299.679
-801.42
-805.759
-757.82
-762.295
733.475
695.183
690.608
1071.76
1076.21
1078.96
212.202
218.244
215.45
748.569
743.3
269.305
270.307
267.522
1044.63
1043.84
1043.89
1034.23
1034.33
1034.37
1049.55
1047.62
1047.35
1074.61
1083.84
1092.91
-511.913
-522.862
-530.499
3.73545
6.45444
2.18655
-58.3527
-63.8528
-68.0479
-871.653
-271.111
-283.992
-292.304
663.025
652.773
645.111
1067.68
1068.43
1070.06
1071.26
1019.17
1031.3
1043.57
148.388
146.272
143.198
1041.06
1040.68
1040.77
1037.02
1036.4
1035.92
1058.5
1058.27
1060.47
1069.46
1075.28
1082.98
65.0898
65.0201
61.9243
552.582
550.015
545.262
609.558
611.708
605.741
752.344
)
;

boundaryField
{
    topAndBottom
    {
        type            slip;
    }
    inlet
    {
        type            zeroGradient;
    }
    outlet
    {
        type            fixedValue;
        value           uniform 0;
    }
    wing
    {
        type            zeroGradient;
    }
    front
    {
        type            empty;
    }
    back
    {
        type            empty;
    }
    procBoundary1to0
    {
        type            processor;
        value           nonuniform List<scalar> 
49
(
578.244
582.144
589.938
602.698
602.698
623.624
647.515
678.611
986.559
986.559
1022.35
1063.44
899.508
924.79
981.555
937.134
1013.35
1057.18
1061.25
1031.69
634.932
661.958
706.814
717.782
756.12
770.454
818.603
836.728
1047.16
1052.12
995.413
742.452
729.593
801.59
785.576
876.901
856.084
965.981
951.272
1037.94
1042.23
1004.33
912.552
696.512
687.296
1070.15
1066.56
1067.32
1067.32
)
;
    }
    procBoundary1to3
    {
        type            processor;
        value           nonuniform List<scalar> 
136
(
-362.698
-415.28
373.064
-307.062
47.241
88.2398
373.064
444.054
-590.347
-493.241
-664.31
302.011
-415.28
-154.887
-649.272
-474.809
191.608
266.382
131.001
172.852
94.9134
120.332
71.3807
88.1261
55.1004
66.7652
43.3536
51.8129
34.6048
40.9293
27.9261
32.7686
22.7247
26.5054
18.6062
21.6059
15.2978
17.7119
12.6056
14.5732
10.3881
12.0114
8.53927
9.89478
6.97857
8.12481
5.64297
6.6257
4.48243
5.33816
3.45619
4.21472
2.53018
3.21649
1.67589
2.31088
0.873254
1.47084
-0.0159301
0.68516
444.054
444.054
482.071
471.724
468.476
473.828
-259.665
-103.561
435.364
468.476
302.011
232.149
302.011
-209.306
-6.17106
138.416
212.782
235.55
143.093
156.875
102.457
110.879
76.4373
81.9957
58.6659
62.5416
45.9626
48.7751
36.5688
38.6725
29.4383
31.0496
23.9107
25.1691
19.5509
20.5494
16.0607
16.8644
13.2294
13.8845
10.9043
11.4448
8.97165
9.42309
7.34544
7.7272
5.95867
6.28598
4.75851
5.04355
3.70212
3.95481
2.75392
2.98255
1.8841
2.09565
1.06982
1.26866
0.349503
0.487634
390.706
468.931
406.673
379.246
468.946
-54.6328
178.201
354.098
332.221
467.334
-753.513
-802.759
-865.087
-753.513
-865.087
-940.001
)
;
    }
}


// ************************************************************************* //
