/*--------------------------------*- C++ -*----------------------------------*\
| =========                 |                                                 |
| \\      /  F ield         | OpenFOAM: The Open Source CFD Toolbox           |
|  \\    /   O peration     | Version:  v2012                                 |
|   \\  /    A nd           | Website:  www.openfoam.com                      |
|    \\/     M anipulation  |                                                 |
\*---------------------------------------------------------------------------*/
FoamFile
{
    version     2.0;
    format      ascii;
    class       volVectorField;
    location    "0";
    object      U;
}
// * * * * * * * * * * * * * * * * * * * * * * * * * * * * * * * * * * * * * //

dimensions      [0 1 -1 0 0 0 0];


internalField   nonuniform List<vector> 
3259
(
(101.088 -0.155201 -2.70409e-19)
(101.04 -0.466438 4.53394e-18)
(100.948 -0.794512 -9.08738e-18)
(100.792 -1.1335 -2.42712e-20)
(100.525 -1.39475 -3.18231e-20)
(100.197 -1.79803 0)
(99.7361 -2.27842 2.65844e-19)
(99.1596 -2.75467 -1.66708e-21)
(98.4425 -3.45843 -3.79778e-21)
(97.2895 -4.3397 -7.2877e-20)
(95.6718 -5.41991 1.87469e-19)
(93.9468 -6.34874 0)
(101.394 -0.167999 0)
(101.354 -0.505297 0)
(101.278 -0.860685 0)
(101.151 -1.2311 0)
(100.905 -1.53389 0)
(100.629 -1.97822 0)
(100.249 -2.50977 0)
(99.7731 -3.0473 0)
(99.209 -3.82373 0)
(98.2767 -4.83728 0)
(97.0119 -6.25576 0)
(95.5193 -8.43622 0)
(101.72 -0.176419 0)
(101.689 -0.530845 0)
(101.631 -0.903055 0)
(101.533 -1.29175 0)
(101.318 -1.61839 0)
(101.101 -2.08143 0)
(100.809 -2.62986 0)
(100.438 -3.19283 0)
(100.043 -3.97392 0)
(99.4 -4.98551 0)
(98.7134 -6.38705 0)
(97.8314 -8.35692 0)
(102.059 -0.180498 0)
(102.036 -0.543182 0)
(101.995 -0.92213 0)
(101.926 -1.3177 0)
(101.741 -1.65533 0)
(101.579 -2.11801 0)
(101.365 -2.65803 0)
(101.092 -3.2113 0)
(100.829 -3.94365 0)
(100.425 -4.82703 0)
(100.048 -5.91304 0)
(96.6137 -6.75479 0)
(102.401 -0.18062 0)
(102.386 -0.543524 0)
(102.36 -0.920293 0)
(102.315 -1.31268 0)
(102.16 -1.65037 0)
(102.044 -2.09725 0)
(101.895 -2.60837 0)
(101.697 -3.12555 0)
(101.525 -3.77101 0)
(101.243 -4.4914 0)
(100.966 -5.2721 0)
(95.8751 -5.568 0)
(102.74 -0.177369 0)
(102.732 -0.533668 0)
(102.718 -0.900911 0)
(102.693 -1.28188 0)
(102.563 -1.61053 0)
(102.483 -2.03111 0)
(102.38 -2.50099 0)
(102.234 -2.96751 0)
(102.107 -3.5152 0)
(101.864 -4.08415 0)
(101.607 -4.65286 0)
(95.5673 -4.70802 0)
(103.069 -0.171416 0)
(103.067 -0.515677 0)
(103.062 -0.867807 0)
(103.052 -1.23133 0)
(102.942 -1.54436 0)
(102.888 -1.93268 0)
(102.814 -2.35604 0)
(102.698 -2.76778 0)
(102.583 -3.22448 0)
(102.334 -3.6716 0)
(102.063 -4.09558 0)
(95.5407 -4.05182 0)
(103.386 -0.163464 0)
(103.387 -0.49169 0)
(103.389 -0.824853 0)
(103.388 -1.16697 0)
(103.294 -1.46024 0)
(103.254 -1.81401 0)
(103.195 -2.19063 0)
(103.092 -2.54976 0)
(102.967 -2.92862 0)
(102.695 -3.28267 0)
(102.388 -3.60618 0)
(95.6798 -3.52854 0)
(103.686 -0.15418 0)
(103.69 -0.463729 0)
(103.695 -0.77561 0)
(103.699 -1.09413 0)
(103.616 -1.36552 0)
(103.583 -1.68495 0)
(103.528 -2.0176 0)
(103.425 -2.32921 0)
(103.28 -2.64403 0)
(102.978 -2.9281 0)
(102.621 -3.17973 0)
(95.9081 -3.09808 0)
(103.967 -0.144153 0)
(103.972 -0.433559 0)
(103.979 -0.723112 0)
(103.984 -1.01725 0)
(103.909 -1.26615 0)
(103.876 -1.553 0)
(103.818 -1.84588 0)
(103.708 -2.11591 0)
(103.536 -2.37894 0)
(103.205 -2.61038 0)
(102.785 -2.80901 0)
(96.1779 -2.73652 0)
(104.229 -0.133867 0)
(104.235 -0.402626 0)
(104.242 -0.669794 0)
(104.245 -0.939798 0)
(104.173 -1.16664 0)
(104.137 -1.42351 0)
(104.07 -1.68122 0)
(103.948 -1.9155 0)
(103.748 -2.13691 0)
(103.39 -2.32848 0)
(102.899 -2.48701 0)
(96.4606 -2.4287 0)
(104.471 -0.1237 0)
(104.477 -0.372059 0)
(104.482 -0.617509 0)
(104.482 -0.86437 0)
(104.412 -1.07024 0)
(104.368 -1.30006 0)
(104.289 -1.5271 0)
(104.153 -1.73089 0)
(103.925 -1.91886 0)
(103.544 -2.07985 0)
(102.977 -2.20743 0)
(96.7397 -2.1644 0)
(104.695 -0.113935 0)
(104.7 -0.342698 0)
(104.702 -0.567606 0)
(104.697 -0.792788 0)
(104.626 -0.979187 0)
(104.574 -1.18492 0)
(104.482 -1.38545 0)
(104.33 -1.56334 0)
(104.076 -1.72438 0)
(103.674 -1.86153 0)
(103.027 -1.9649 0)
(97.0063 -1.9364 0)
(104.901 -0.104773 0)
(104.904 -0.315141 0)
(104.903 -0.521013 0)
(104.892 -0.726272 0)
(104.82 -0.894874 0)
(104.757 -1.07938 0)
(104.65 -1.25712 0)
(104.482 -1.41304 0)
(104.205 -1.55235 0)
(103.784 -1.6706 0)
(103.058 -1.75486 0)
(97.2559 -1.73937 0)
(105.09 -0.0963487 0)
(105.091 -0.289786 0)
(105.087 -0.478335 0)
(105.069 -0.665578 0)
(104.994 -0.818144 0)
(104.921 -0.984107 0)
(104.799 -1.14235 0)
(104.616 -1.27966 0)
(104.317 -1.40136 0)
(103.879 -1.50442 0)
(103.075 -1.5735 0)
(97.4869 -1.56924 0)
(105.263 -0.0887458 0)
(105.263 -0.266884 0)
(105.255 -0.439924 0)
(105.23 -0.611117 0)
(105.152 -0.749397 0)
(105.068 -0.899293 0)
(104.931 -1.04093 0)
(104.733 -1.16249 0)
(104.415 -1.26989 0)
(103.961 -1.36063 0)
(103.082 -1.4176 0)
(97.6993 -1.42281 0)
(105.424 -0.0820114 0)
(105.422 -0.246573 0)
(105.409 -0.405966 0)
(105.377 -0.563074 0)
(105.295 -0.688765 0)
(105.201 -0.82486 0)
(105.05 -0.952434 0)
(104.837 -1.06072 0)
(104.502 -1.15649 0)
(104.033 -1.23716 0)
(103.082 -1.28445 0)
(97.8939 -1.29753 0)
(105.572 -0.076165 0)
(105.568 -0.228917 0)
(105.551 -0.376519 0)
(105.513 -0.521466 0)
(105.427 -0.636198 0)
(105.321 -0.76057 0)
(105.156 -0.876339 0)
(104.93 -0.973471 0)
(104.581 -1.0598 0)
(104.096 -1.13224 0)
(103.077 -1.17179 0)
(98.072 -1.19132 0)
(105.71 -0.0712171 0)
(105.704 -0.21394 0)
(105.683 -0.351595 0)
(105.637 -0.486279 0)
(105.547 -0.591555 0)
(105.431 -0.706109 0)
(105.253 -0.81208 0)
(105.014 -0.899896 0)
(104.652 -0.9786 0)
(104.153 -1.04434 0)
(103.069 -1.07774 0)
(98.2351 -1.10248 0)
(105.84 -0.0671462 0)
(105.832 -0.2016 0)
(105.806 -0.33111 0)
(105.754 -0.457278 0)
(105.659 -0.554662 0)
(105.533 -0.661145 0)
(105.341 -0.759119 0)
(105.091 -0.839224 0)
(104.717 -0.911848 0)
(104.204 -0.97217 0)
(103.059 -1.00074 0)
(98.3848 -1.02965 0)
(105.962 -0.063996 0)
(105.951 -0.191978 0)
(105.921 -0.315156 0)
(105.863 -0.43489 0)
(105.764 -0.525359 0)
(105.627 -0.625371 0)
(105.424 -0.716966 0)
(105.163 -0.790766 0)
(104.778 -0.858637 0)
(104.25 -0.914657 0)
(103.048 -0.939508 0)
(98.5226 -0.971744 0)
(106.084 -0.0615925 0)
(106.071 -0.184719 0)
(106.037 -0.303237 0)
(105.971 -0.41741 0)
(105.863 -0.50356 0)
(105.716 -0.598527 0)
(105.501 -0.685215 0)
(105.23 -0.753945 0)
(104.835 -0.818211 0)
(104.292 -0.870918 0)
(103.037 -0.893014 0)
(98.6498 -0.927886 0)
(106.18 -0.0603993 0)
(106.165 -0.180753 0)
(106.127 -0.296656 0)
(106.058 -0.410255 0)
(105.958 -0.48918 0)
(105.801 -0.580375 0)
(105.575 -0.663606 0)
(105.294 -0.728289 0)
(104.889 -0.789924 0)
(104.332 -0.84022 0)
(103.027 -0.860456 0)
(98.7678 -0.897494 0)
(106.346 -0.0590817 0)
(106.328 -0.177178 0)
(106.284 -0.29106 0)
(106.203 -0.399207 0)
(106.044 -0.481185 0)
(105.879 -0.570795 0)
(105.643 -0.65258 0)
(105.356 -0.713435 0)
(104.941 -0.773175 0)
(104.37 -0.821919 0)
(103.018 -0.841249 0)
(98.8776 -0.880292 0)
(93.8882 -6.25036 -6.52203e-20)
(95.306 -8.15384 0)
(95.4109 -5.18222 -2.25414e-20)
(94.0528 -6.11368 -1.13923e-19)
(96.6276 -6.09627 0)
(95.4641 -7.85907 0)
(94.1756 -6.29465 0)
(94.4331 -7.07851 0)
(90.5643 -7.31441 -1.15201e-18)
(91.5065 -6.58131 5.17627e-19)
(98.5784 -8.50267 0)
(91.5234 -6.53221 2.54446e-19)
(90.5953 -6.49195 -3.46782e-19)
(78.1166 -7.64346 2.67866e-19)
(90.5135 -7.38544 -4.60069e-21)
(94.5206 -7.20517 4.028e-22)
(88.8643 -7.22279 0)
(52.7281 -8.13818 1.18344e-19)
(90.558 -6.53417 7.17082e-20)
(88.919 -7.15789 1.42205e-18)
(90.7046 -26.8983 0)
(91.3741 -6.95617 -1.43435e-19)
(93.38 -6.99236 1.01637e-19)
(93.5043 -7.37883 -8.88811e-20)
(93.2223 -6.56463 5.01458e-20)
(93.3412 -6.87774 -1.01109e-19)
(91.4071 -6.89073 -4.27912e-19)
(91.7849 -6.28055 -5.22922e-19)
(93.0593 -6.19296 -9.78625e-20)
(93.1828 -6.46719 -1.4925e-19)
(93.0156 -6.10365 1.938e-19)
(91.7748 -6.24129 0)
(91.2511 -6.23808 0)
(91.2586 -6.27401 4.33041e-19)
(93.5543 -7.52786 -4.08629e-20)
(93.741 -8.03981 5.90336e-18)
(90.473 -8.45009 0)
(90.1811 -8.32796 0)
(90.4476 -21.8765 1.44109e-19)
(90.2722 -24.9079 4.86725e-20)
(90.4485 -6.80802 -4.65464e-23)
(84.9097 -25.9309 0)
(90.0592 -25.2022 -2.51447e-20)
(86.023 -25.9854 -6.02378e-20)
(90.4134 -6.88043 -1.1234e-18)
(91.2074 -26.7953 6.77112e-20)
(92.7241 -25.3422 2.46346e-20)
(98.301 -6.42506 0)
(98.1285 -8.06092 0)
(95.8025 -8.04962 0)
(96.8509 -8.70116 0)
(80.3232 -7.58606 0)
(76.1456 -7.47098 6.35182e-20)
(90.8447 -7.17157 -2.09364e-18)
(92.7037 -7.24357 -2.107e-19)
(92.6892 -7.45977 0)
(56.94 -8.35161 -1.06066e-19)
(80.2002 -10.9733 0)
(91.2218 -6.02829 -1.02937e-19)
(90.9857 -6.3675 0)
(88.4263 -6.89494 0)
(93.6113 -8.28585 -1.44602e-18)
(93.9407 -9.0248 2.92797e-20)
(92.687 -7.53901 0)
(92.6967 -7.8007 -1.1422e-19)
(90.4205 -7.6897 1.34893e-20)
(92.7188 -25.003 7.73935e-20)
(88.7683 -7.53881 -4.46725e-18)
(70.9789 -21.0148 2.7817e-19)
(88.9013 -17.3388 0)
(90.3492 -21.3365 -1.4478e-18)
(84.241 -7.4865 0)
(90.5709 -6.67721 -3.60107e-18)
(89.2667 -7.08634 -1.07773e-17)
(92.7128 -7.00935 -5.45876e-20)
(92.7048 -7.18429 -2.18368e-19)
(91.0361 -7.10852 -6.12718e-18)
(91.4953 -6.75393 8.60558e-21)
(92.6996 -6.79506 -5.32321e-23)
(92.7111 -6.94957 1.09241e-19)
(91.2173 -6.08626 3.04537e-20)
(91.1825 -6.38564 2.16485e-18)
(90.3446 -7.81173 3.02991e-19)
(92.7016 -7.89132 1.12978e-19)
(92.6395 -8.14362 -6.3895e-18)
(73.5101 -20.0122 -6.77588e-18)
(72.3419 -20.8475 -4.98228e-18)
(88.6603 -7.6992 -3.75435e-19)
(75.1311 -22.6818 1.213e-18)
(78.5177 -22.4113 0)
(90.571 -23.7565 1.5026e-19)
(90.57 -6.68821 -7.55564e-20)
(85.4992 -26.2075 -1.64403e-17)
(89.041 -25.8993 1.84392e-21)
(75.698 -23.0149 -2.17869e-19)
(88.4311 -25.9924 1.50336e-20)
(89.5547 -7.05358 -3.59684e-18)
(92.6603 -6.59886 -5.16357e-20)
(92.6912 -6.74341 -2.64493e-20)
(91.5018 -6.72375 1.07965e-18)
(91.7007 -6.40435 0)
(92.6294 -6.41192 1.26495e-20)
(92.6511 -6.54743 0)
(89.0389 -6.34333 2.43027e-18)
(89.1192 -6.3078 3.16154e-19)
(90.6631 -6.45199 0)
(88.8177 -7.31726 -2.76546e-18)
(90.5408 -6.59272 0)
(88.9747 -6.49689 2.98576e-18)
(88.9895 -6.40124 -2.86796e-18)
(88.9964 -7.08006 1.36803e-18)
(92.5747 -6.24477 1.24514e-20)
(92.6195 -6.36758 -1.25446e-19)
(91.7538 -6.38729 0)
(91.7393 -6.09652 -2.51575e-19)
(92.5024 -6.06342 0)
(92.5565 -6.19841 -1.23868e-20)
(90.4022 -6.20922 -7.91465e-20)
(90.3754 -6.17005 7.23319e-20)
(91.2362 -6.1961 -1.74351e-18)
(91.2574 -6.30946 -4.34978e-19)
(90.4152 -6.26864 4.8057e-19)
(90.4144 -6.23954 1.27521e-18)
(89.7471 -8.00226 4.15911e-18)
(91.2261 -7.98851 3.87969e-18)
(91.1473 -8.37258 0)
(49.7499 -15.2423 5.92284e-18)
(87.892 -8.15805 -5.78668e-18)
(90.5663 -23.3767 8.15965e-22)
(79.3566 -22.02 0)
(80.7845 -21.076 1.64947e-18)
(88.9446 -6.68433 -3.01275e-18)
(89.0014 -6.61783 -1.56997e-18)
(90.4944 -6.74803 1.09032e-18)
(85.4891 -26.0634 1.10991e-18)
(81.7781 -25.3848 -9.7318e-19)
(82.3464 -25.3643 -5.56617e-19)
(87.2313 -26.1057 1.04174e-21)
(90.3349 -6.95167 6.37381e-19)
(88.8652 -6.82547 -3.87301e-19)
(88.9163 -6.76008 1.5168e-18)
(92.3084 -26.4491 1.27975e-20)
(88.9362 -5.81842 1.14831e-20)
(88.8972 -5.87701 1.45473e-18)
(88.4406 -6.2094 0)
(90.7975 -6.40254 -4.07719e-18)
(89.3094 -6.28807 -7.53853e-18)
(89.6274 -6.2786 7.13373e-18)
(92.2685 -8.18829 4.70329e-20)
(91.5215 -8.81826 0)
(76.8988 -7.5468 0)
(90.4381 -7.57856 7.61577e-20)
(91.5265 -7.66396 3.42822e-20)
(91.5113 -7.76871 1.11047e-18)
(88.7859 -7.43699 -1.85528e-19)
(71.7699 -21.4726 -3.57794e-19)
(71.2394 -21.6475 6.68595e-18)
(46.9576 -2.80494 -4.44239e-18)
(70.2398 -15.7153 5.5953e-19)
(73.6239 -19.321 5.92844e-18)
(89.0875 -6.58575 2.98543e-18)
(89.0223 -6.57295 -9.07457e-20)
(90.5507 -6.64877 -1.17546e-18)
(89.1032 -7.06104 3.14619e-18)
(88.9607 -6.11688 4.50697e-18)
(89.0135 -6.15065 -9.36498e-20)
(88.8791 -5.96596 3.00444e-18)
(88.9045 -6.05627 -1.49626e-18)
(90.3094 -6.32597 -2.69986e-18)
(90.3571 -6.297 4.78373e-19)
(91.2244 -6.33898 0)
(89.0144 -6.20984 3.87723e-19)
(88.9666 -6.19885 1.24506e-18)
(89.0419 -6.17499 -1.5051e-18)
(89.0536 -6.19373 3.13677e-18)
(91.4723 -7.86893 -2.5889e-19)
(91.4811 -8.00963 -1.06585e-18)
(90.4013 -7.97831 1.15469e-18)
(74.3705 -20.5023 4.45091e-19)
(65.4096 -18.73 1.22089e-17)
(62.8427 -17.6933 4.10337e-18)
(66.5254 -19.7585 1.12427e-17)
(66.8024 -19.3946 0)
(73.5955 -20.6712 0)
(88.7378 -7.87058 3.7751e-19)
(76.3352 -22.5532 -2.95225e-18)
(82.5948 -23.6204 -2.29117e-20)
(81.889 -23.9168 -1.3696e-19)
(90.5393 -6.7083 7.65497e-20)
(89.064 -6.58249 -2.83978e-18)
(89.1036 -6.57378 -9.08948e-20)
(85.8028 -26.2211 -2.9636e-18)
(78.602 -24.0556 1.17248e-20)
(79.1669 -24.3177 -6.34065e-20)
(81.1255 -23.9535 0)
(79.7297 -23.9581 1.21856e-18)
(75.0475 -23.1379 -2.06562e-18)
(78.5599 -24.3729 1.66555e-18)
(87.8423 -26.1648 4.45436e-21)
(81.8453 -25.1479 -1.01236e-18)
(82.9384 -25.1002 7.98449e-19)
(88.2583 -6.98217 3.17763e-17)
(88.797 -6.85194 3.32099e-18)
(90.2664 -7.01189 -3.18431e-19)
(99.0137 -2.66645 1.66872e-21)
(98.4868 -3.16158 3.70374e-21)
(98.2615 -3.34591 3.8125e-21)
(97.4062 -3.96063 -6.28663e-20)
(97.0664 -4.18668 -1.51988e-21)
(95.8683 -4.92499 -2.15356e-20)
(99.617 -2.9871 0)
(99.1951 -3.54252 0)
(98.6578 -3.26706 1.41237e-20)
(99.013 -3.75124 0)
(98.3027 -4.46758 -7.54442e-18)
(97.6187 -4.10103 -8.49171e-21)
(98.0179 -4.7414 -7.86425e-21)
(97.0118 -5.70811 0)
(96.1212 -5.134 -2.49096e-19)
(95.9659 -5.64753 -3.20771e-19)
(95.4818 -6.14816 0)
(95.0198 -5.72969 -8.44401e-20)
(94.1354 -6.6391 -6.60021e-20)
(93.5891 -6.83053 1.04163e-21)
(93.4456 -6.51831 -8.8003e-20)
(100.272 -3.1689 0)
(99.9636 -3.74211 0)
(99.3788 -3.61171 0)
(99.8369 -3.95479 0)
(99.3232 -4.69584 0)
(98.5428 -4.55568 0)
(99.1224 -4.98147 0)
(98.4858 -6.00462 0)
(97.3515 -5.84408 0)
(97.4372 -6.36237 0)
(97.1799 -6.8475 0)
(96.4791 -6.81534 0)
(95.9369 -8.60255 0)
(95.5421 -9.43925 0)
(94.7052 -8.98197 3.14673e-21)
(100.932 -3.21757 0)
(100.723 -3.76705 0)
(100.157 -3.76389 0)
(100.639 -3.96657 0)
(100.313 -4.63446 0)
(99.58 -4.70475 0)
(100.185 -4.88795 0)
(99.8405 -5.74928 0)
(98.8535 -5.98169 0)
(99.7622 -6.06321 0)
(99.8772 -7.17682 0)
(98.7874 -7.91849 0)
(96.8821 -7.12318 0)
(101.552 -3.15515 0)
(101.417 -3.64919 0)
(100.904 -3.74924 0)
(101.361 -3.82429 0)
(101.144 -4.38569 0)
(100.538 -4.58668 0)
(101.059 -4.58585 0)
(100.812 -5.21638 0)
(100.117 -5.62768 0)
(100.767 -5.43325 0)
(100.177 -6.08537 0)
(100.04 -6.89652 0)
(96.0134 -5.82801 0)
(102.107 -3.01216 0)
(102.014 -3.43758 0)
(101.576 -3.60305 0)
(101.972 -3.58397 0)
(101.798 -4.03495 0)
(101.324 -4.30392 0)
(101.725 -4.18821 0)
(101.499 -4.6489 0)
(101.006 -5.0737 0)
(101.467 -4.80256 0)
(99.9504 -5.15192 0)
(100.148 -5.83447 0)
(95.6124 -4.90015 0)
(102.589 -2.82038 0)
(102.511 -3.17862 0)
(102.147 -3.37577 0)
(102.473 -3.29854 0)
(102.303 -3.65595 0)
(101.937 -3.9409 0)
(102.228 -3.77325 0)
(101.995 -4.11648 0)
(101.638 -4.51122 0)
(101.963 -4.22849 0)
(99.5907 -4.39482 0)
(99.8646 -4.94719 0)
(95.528 -4.20133 0)
(102.999 -2.6052 0)
(102.92 -2.90424 0)
(102.621 -3.11053 0)
(102.879 -3.00199 0)
(102.694 -3.28592 0)
(102.41 -3.5617 0)
(102.613 -3.3769 0)
(102.363 -3.63908 0)
(102.097 -3.99172 0)
(102.317 -3.72236 0)
(99.2457 -3.78168 0)
(99.5001 -4.2294 0)
(95.6342 -3.64945 0)
(103.347 -2.38417 0)
(103.255 -2.63363 0)
(103.01 -2.83571 0)
(103.208 -2.71357 0)
(103.002 -2.94139 0)
(102.778 -3.19704 0)
(102.913 -3.0133 0)
(102.642 -3.21841 0)
(102.44 -3.52872 0)
(102.57 -3.28083 0)
(98.964 -3.27989 0)
(99.1685 -3.64692 0)
(95.8457 -3.19849 0)
(103.642 -2.16839 0)
(103.531 -2.37727 0)
(103.329 -2.56794 0)
(103.477 -2.44313 0)
(103.248 -2.62842 0)
(103.068 -2.86009 0)
(103.152 -2.68637 0)
(102.856 -2.85003 0)
(102.701 -3.12164 0)
(102.749 -2.89686 0)
(98.7547 -2.86407 0)
(98.905 -3.1687 0)
(96.1084 -2.82138 0)
(103.892 -1.96439 0)
(103.761 -2.14038 0)
(103.593 -2.3161 0)
(103.699 -2.19518 0)
(103.448 -2.34809 0)
(103.302 -2.55529 0)
(103.347 -2.39572 0)
(103.021 -2.52823 0)
(102.901 -2.76543 0)
(102.874 -2.5633 0)
(98.6117 -2.5157 0)
(98.7131 -2.77126 0)
(96.3898 -2.50124 0)
(104.105 -1.77565 0)
(103.953 -1.92504 0)
(103.812 -2.08449 0)
(103.884 -1.97113 0)
(103.615 -2.09922 0)
(103.493 -2.283 0)
(103.508 -2.13904 0)
(103.148 -2.2475 0)
(103.056 -2.4544 0)
(102.96 -2.27365 0)
(98.5243 -2.22126 0)
(98.5851 -2.43747 0)
(96.6709 -2.22682 0)
(104.288 -1.60376 0)
(104.116 -1.73163 0)
(103.996 -1.87464 0)
(104.04 -1.77085 0)
(103.755 -1.87968 0)
(103.652 -2.04168 0)
(103.643 -1.91343 0)
(103.247 -2.00299 0)
(103.176 -2.18316 0)
(103.017 -2.02232 0)
(98.4815 -1.97088 0)
(98.5098 -2.15486 0)
(96.9411 -1.99031 0)
(104.446 -1.44916 0)
(104.256 -1.55957 0)
(104.153 -1.68665 0)
(104.174 -1.59333 0)
(103.875 -1.68699 0)
(103.787 -1.82909 0)
(103.758 -1.71591 0)
(103.324 -1.79042 0)
(103.269 -1.947 0)
(103.052 -1.80454 0)
(98.4733 -1.75716 0)
(98.4765 -1.91425 0)
(97.1952 -1.78596 0)
(104.584 -1.31159 0)
(104.377 -1.40783 0)
(104.288 -1.51978 0)
(104.29 -1.43722 0)
(103.978 -1.51875 0)
(103.902 -1.64273 0)
(103.856 -1.54378 0)
(103.383 -1.60619 0)
(103.34 -1.74183 0)
(103.072 -1.61634 0)
(98.4917 -1.57455 0)
(98.4757 -1.70878 0)
(97.4309 -1.60944 0)
(104.705 -1.19043 0)
(104.483 -1.27513 0)
(104.405 -1.37292 0)
(104.392 -1.30101 0)
(104.068 -1.37274 0)
(104.001 -1.48025 0)
(103.941 -1.3946 0)
(103.429 -1.44721 0)
(103.396 -1.56419 0)
(103.081 -1.45434 0)
(98.53 -1.41872 0)
(98.4996 -1.53323 0)
(97.6479 -1.45735 0)
(104.812 -1.08487 0)
(104.576 -1.16019 0)
(104.507 -1.24478 0)
(104.482 -1.18322 0)
(104.147 -1.24697 0)
(104.088 -1.33947 0)
(104.016 -1.26623 0)
(103.464 -1.31088 0)
(103.439 -1.41109 0)
(103.082 -1.31573 0)
(98.5832 -1.28628 0)
(98.5421 -1.38353 0)
(97.8468 -1.32699 0)
(104.907 -0.994055 0)
(104.66 -1.06175 0)
(104.598 -1.13408 0)
(104.562 -1.08247 0)
(104.217 -1.1397 0)
(104.165 -1.21848 0)
(104.081 -1.15682 0)
(103.491 -1.195 0)
(103.471 -1.28007 0)
(103.078 -1.19814 0)
(98.6472 -1.17458 0)
(98.5983 -1.25651 0)
(98.0289 -1.21618 0)
(104.994 -0.917123 0)
(104.736 -0.978648 0)
(104.68 -1.03958 0)
(104.635 -0.997506 0)
(104.28 -1.04942 0)
(104.234 -1.11559 0)
(104.139 -1.06479 0)
(103.511 -1.09771 0)
(103.496 -1.169 0)
(103.071 -1.0996 0)
(98.719 -1.08148 0)
(98.6646 -1.14964 0)
(98.1957 -1.12314 0)
(105.072 -0.853281 0)
(104.805 -0.909874 0)
(104.754 -0.960149 0)
(104.701 -0.927234 0)
(104.337 -0.974851 0)
(104.295 -1.02935 0)
(104.191 -0.9888 0)
(103.526 -1.01749 0)
(103.515 -1.07611 0)
(103.062 -1.01847 0)
(98.7962 -1.00526 0)
(98.7379 -1.0609 0)
(98.3486 -1.04642 0)
(105.145 -0.801815 0)
(104.869 -0.854533 0)
(104.822 -0.894811 0)
(104.763 -0.870713 0)
(104.389 -0.914912 0)
(104.351 -0.958533 0)
(104.238 -0.927712 0)
(103.538 -0.953053 0)
(103.53 -0.999948 0)
(103.051 -0.953398 0)
(98.8771 -0.944593 0)
(98.8161 -0.988684 0)
(98.4892 -0.984874 0)
(105.214 -0.762121 0)
(104.93 -0.81188 0)
(104.885 -0.842707 0)
(104.821 -0.827155 0)
(104.438 -0.868705 0)
(104.402 -0.902104 0)
(104.282 -0.880604 0)
(103.547 -0.903363 0)
(103.541 -0.939284 0)
(103.04 -0.903303 0)
(98.9602 -0.898406 0)
(98.8977 -0.931723 0)
(98.6189 -0.937568 0)
(105.278 -0.733699 0)
(104.987 -0.78128 0)
(104.944 -0.803123 0)
(104.876 -0.79589 0)
(104.483 -0.835481 0)
(104.449 -0.859209 0)
(104.322 -0.846707 0)
(103.554 -0.867592 0)
(103.549 -0.893144 0)
(103.029 -0.867325 0)
(99.0446 -0.865929 0)
(98.9812 -0.889026 0)
(98.7391 -0.903851 0)
(105.341 -0.716155 0)
(105.042 -0.762174 0)
(105.001 -0.775448 0)
(104.928 -0.776316 0)
(104.527 -0.81458 0)
(104.494 -0.829126 0)
(104.36 -0.825366 0)
(103.561 -0.845106 0)
(103.556 -0.860746 0)
(103.02 -0.844814 0)
(99.1299 -0.846629 0)
(99.0659 -0.859886 0)
(98.8511 -0.883294 0)
(105.405 -0.708612 0)
(105.1 -0.753622 0)
(105.056 -0.759125 0)
(104.984 -0.767407 0)
(104.572 -0.804712 0)
(104.537 -0.811199 0)
(104.401 -0.815264 0)
(103.568 -0.834978 0)
(103.562 -0.841529 0)
(103.011 -0.835116 0)
(99.2244 -0.840411 0)
(99.1509 -0.843749 0)
(98.9666 -0.875584 0)
(93.3992 -6.42107 8.68081e-20)
(93.26 -6.14527 -1.28429e-19)
(93.7208 -5.98691 9.69635e-20)
(94.4747 -8.80439 0)
(94.0852 -8.17318 0)
(94.9036 -7.76839 7.61157e-18)
(91.8845 -17.8313 -9.07214e-21)
(94.8874 -5.58475 1.68837e-20)
(94.5398 -5.17733 0)
(95.1759 -4.94165 -2.19294e-19)
(93.7246 -5.60779 -3.89991e-20)
(94.3296 -5.28228 1.72122e-20)
(94.6713 -5.7219 1.56066e-19)
(96.24 -6.7115 0)
(95.6627 -6.28749 0)
(96.2946 -5.86864 3.17287e-19)
(94.7941 -7.10691 -9.7827e-20)
(95.451 -6.48587 0)
(96.0601 -6.96641 0)
(94.8028 -5.87366 0)
(95.2657 -6.33472 0)
(94.6115 -6.89159 7.62344e-20)
(93.8039 -7.32331 1.60968e-22)
(93.6387 -6.944 -1.10744e-21)
(94.2034 -6.74991 8.33505e-20)
(90.6291 -7.25511 -6.29255e-19)
(91.6514 -7.33237 -5.7227e-19)
(91.6133 -7.40125 -3.25828e-20)
(92.063 -6.60502 -5.96742e-19)
(92.0623 -6.6547 0)
(91.4984 -6.63425 6.59951e-20)
(82.0309 -7.13404 0)
(80.797 -7.59958 0)
(97.3129 -8.70149 0)
(82.4291 -10.5803 0)
(87.3333 -10.2107 0)
(92.3604 -16.9575 0)
(93.5106 -14.7968 5.6609e-22)
(91.5588 -6.48346 0)
(92.0802 -6.5035 2.30749e-19)
(92.0675 -6.55445 -1.46333e-20)
(92.4863 -6.01405 -1.20742e-20)
(91.7354 -6.04423 2.48783e-19)
(93.6678 -5.89627 -9.69861e-20)
(93.2133 -6.05584 -4.30199e-20)
(76.6425 -7.68274 0)
(91.6406 -9.09643 -2.92117e-19)
(91.4071 -9.9228 -1.18693e-19)
(91.5802 -7.47967 -5.62048e-19)
(91.5517 -7.56701 -3.37523e-20)
(90.4728 -7.4727 -7.49796e-20)
(94.8315 -7.5897 -4.08758e-18)
(94.1139 -7.95267 -5.44219e-18)
(93.8688 -7.46517 -4.59831e-20)
(73.06 -14.422 -1.55988e-19)
(72.5234 -15.3131 -3.26898e-19)
(47.7423 -3.65522 -1.2419e-18)
(91.9943 -6.99106 5.22149e-22)
(91.9649 -7.04847 2.33017e-22)
(91.3187 -7.01749 -1.41658e-19)
(93.4194 -7.11315 1.54667e-19)
(93.0755 -7.14666 7.2198e-20)
(93.0532 -7.02701 2.87172e-20)
(92.9925 -7.45783 -5.71868e-23)
(92.9831 -7.25435 2.70772e-19)
(93.4604 -7.2391 8.80455e-20)
(93.2624 -6.66505 -1.50353e-19)
(92.9767 -6.70227 -8.42212e-20)
(92.9462 -6.6029 1.11391e-19)
(93.0309 -6.91241 7.14289e-21)
(93.0056 -6.80456 5.651e-20)
(93.3022 -6.76902 0)
(91.4419 -6.83398 -1.41395e-19)
(92.0352 -6.87678 6.40504e-20)
(92.0151 -6.93104 4.54189e-19)
(92.1345 -6.27411 1.17478e-19)
(92.1443 -6.31305 -5.87238e-20)
(91.7889 -6.31788 -6.50932e-20)
(93.1021 -6.2823 4.95248e-20)
(92.8547 -6.32358 -5.3649e-20)
(92.8176 -6.23615 1.61888e-19)
(92.9164 -6.50583 1.09573e-19)
(92.8871 -6.41237 1.08776e-19)
(93.1431 -6.37317 9.76272e-20)
(92.9305 -5.92422 -9.62205e-20)
(92.7006 -5.96449 -4.72954e-22)
(92.7778 -6.14747 -1.60753e-19)
(92.7383 -6.05667 5.02554e-20)
(92.9723 -6.014 0)
(91.7611 -6.19768 7.887e-19)
(92.106 -6.18836 -2.61442e-19)
(92.1211 -6.2326 -2.90827e-20)
(93.6114 -7.6857 -3.70557e-20)
(93.0384 -7.7879 -1.01938e-19)
(93 -7.53703 2.48208e-20)
(93.0411 -8.14098 -5.89001e-18)
(93.0539 -7.8782 0)
(93.6717 -7.85212 9.0739e-19)
(90.5086 -22.4119 -6.74376e-19)
(88.2902 -22.2657 2.72044e-19)
(88.1878 -21.8029 -4.34449e-19)
(86.7547 -24.5902 0)
(87.1496 -24.2673 -1.20961e-20)
(90.4091 -24.5621 -1.09581e-19)
(89.7773 -25.4774 -4.00453e-21)
(85.5789 -24.9308 6.71674e-20)
(86.2563 -24.7838 -3.33523e-20)
(91.7312 -26.7695 5.86904e-21)
(92.5195 -26.2163 2.30079e-20)
(98.1713 -6.89922 0)
(97.6829 -6.90625 0)
(97.8719 -6.41854 0)
(97.2802 -8.31589 0)
(97.5506 -7.47536 0)
(98.0964 -7.42417 0)
(96.3194 -7.08305 0)
(97.151 -7.28199 0)
(96.9174 -8.31611 0)
(96.7885 -9.38922 0)
(96.2317 -9.34712 0)
(96.3861 -8.67388 0)
(80.1421 -7.60307 -4.79872e-22)
(94.6135 -9.93027 0)
(94.0042 -9.77778 0)
(94.2179 -9.2136 -3.52868e-21)
(95.3798 -9.72704 0)
(71.9922 -6.18469 0)
(91.7704 -7.21211 1.94557e-18)
(91.7001 -7.27319 -3.26139e-21)
(90.7135 -7.21888 1.29567e-19)
(92.6996 -7.31105 -1.05983e-19)
(92.3009 -7.30474 -4.63388e-19)
(92.3298 -7.23687 0)
(92.2612 -7.44798 -5.96185e-20)
(92.2789 -7.37493 2.34666e-19)
(92.6937 -7.38466 -5.39595e-20)
(66.7392 -10.0422 0)
(91.7652 -14.5719 1.06097e-21)
(89.7258 -16.4644 -4.94608e-20)
(92.4263 -12.5978 0)
(91.2591 -13.3117 -1.00453e-21)
(77.6069 -11.4959 1.32372e-21)
(90.3522 -5.97625 -1.21871e-18)
(90.3768 -5.92445 -1.1208e-18)
(91.2318 -5.97608 1.08495e-18)
(90.6535 -7.73253 7.05082e-19)
(88.6641 -6.43594 -1.07728e-18)
(79.3952 -5.38628 -1.8235e-17)
(93.5772 -8.55723 -7.74801e-21)
(92.6885 -8.61458 1.16362e-19)
(92.7903 -8.20041 -2.02326e-17)
(93.262 -9.40786 -9.83759e-20)
(92.8341 -9.03183 -1.36151e-19)
(93.7062 -8.81687 0)
(92.6872 -7.62194 4.46534e-19)
(92.2323 -7.61077 -4.57732e-19)
(92.2455 -7.52634 4.85865e-19)
(92.2177 -7.79803 2.48397e-19)
(92.222 -7.70155 -2.77916e-19)
(92.69 -7.70989 1.13678e-19)
(92.4886 -23.8532 -2.60972e-19)
(88.0521 -18.3339 1.42129e-19)
(81.605 -17.3871 0)
(83.5986 -16.2908 -2.89727e-20)
(80.3008 -20.3144 -7.1855e-18)
(77.2078 -17.7424 0)
(87.9044 -19.6924 2.20634e-18)
(28.2443 -11.238 0)
(40.4605 -13.8144 -4.13088e-18)
(92.7129 -7.06489 0)
(92.4019 -7.06241 5.82997e-20)
(92.4132 -7.0063 0)
(92.3603 -7.17689 9.19631e-19)
(92.3844 -7.12263 -1.4461e-18)
(92.7108 -7.12654 2.21006e-19)
(91.2534 -7.09215 -4.18009e-18)
(91.9225 -7.11115 3.12469e-18)
(91.8549 -7.1547 9.80954e-19)
(92.0636 -6.78685 0)
(92.0526 -6.82847 0)
(91.4735 -6.78821 0)
(92.7054 -6.8424 1.34762e-19)
(92.4338 -6.842 -1.14667e-19)
(92.4352 -6.79653 2.84912e-20)
(92.4212 -6.94699 -5.82666e-20)
(92.4285 -6.89407 0)
(92.709 -6.89726 -1.21906e-19)
(91.2226 -6.14472 3.95176e-20)
(90.3493 -6.11358 1.22865e-18)
(90.34 -6.04328 1.92034e-20)
(92.712 -7.98615 8.34028e-19)
(92.2085 -8.0028 -9.64294e-19)
(92.2066 -7.89144 -1.39371e-19)
(92.0383 -8.21361 6.92505e-18)
(92.1183 -8.04365 -3.6421e-18)
(92.6633 -8.05896 3.35612e-18)
(83.855 -23.1658 3.10044e-19)
(83.3235 -23.4184 -3.30464e-21)
(77.7793 -22.5062 -1.11282e-19)
(90.5101 -24.1783 -2.97624e-19)
(87.4992 -23.9307 1.39063e-19)
(87.7739 -23.5684 -1.1129e-19)
(84.2455 -25.1546 3.5632e-21)
(84.9342 -25.1693 -1.91015e-21)
(89.4599 -25.7522 -2.76506e-21)
(92.6706 -6.64535 7.87578e-20)
(92.4196 -6.65373 -1.10381e-19)
(92.4139 -6.60605 1.37105e-19)
(92.4321 -6.74932 -1.40529e-20)
(92.4261 -6.7037 -1.39497e-20)
(92.6811 -6.69721 -2.63432e-20)
(91.4986 -6.68504 1.00875e-18)
(92.0642 -6.70323 0)
(92.0664 -6.74665 0)
(92.1275 -6.4182 4.43661e-19)
(92.1032 -6.45571 9.18422e-19)
(91.6236 -6.43624 9.76708e-19)
(92.6369 -6.4529 2.18786e-23)
(92.4135 -6.45944 -1.32976e-20)
(92.4163 -6.41937 -4.25415e-19)
(92.4102 -6.55534 -1.34752e-20)
(92.4101 -6.50739 -9.46157e-20)
(92.6433 -6.5015 -8.94454e-20)
(92.5918 -6.28442 -5.00185e-20)
(92.3975 -6.30088 1.05973e-19)
(92.3832 -6.26115 -1.3182e-20)
(92.4147 -6.37942 -2.65727e-20)
(92.4083 -6.34163 -2.6659e-20)
(92.6069 -6.32883 0)
(91.7786 -6.3501 0)
(92.1474 -6.3495 1.36626e-22)
(92.1419 -6.38554 7.24396e-20)
(92.0791 -6.09086 2.42849e-19)
(92.0914 -6.14044 -1.43963e-20)
(91.7481 -6.1488 -1.59067e-20)
(92.5197 -6.10764 6.09907e-21)
(92.3331 -6.12561 0)
(92.3179 -6.07887 -1.28469e-20)
(92.3669 -6.21717 1.31055e-20)
(92.3498 -6.17371 -2.60154e-20)
(92.5378 -6.15632 2.46344e-20)
(87.9779 -23.1549 2.03168e-19)
(88.1636 -22.7452 -3.56442e-19)
(90.5839 -22.866 2.51843e-20)
(79.8839 -21.7369 0)
(84.6644 -22.3976 -1.30949e-19)
(84.3396 -22.7579 1.30268e-19)
(85.0599 -21.4845 -1.47963e-18)
(85.0211 -21.9756 7.66989e-20)
(80.4651 -21.4216 3.07433e-19)
(92.0622 -26.6725 -6.82759e-21)
(91.8764 -8.19441 3.86526e-18)
(91.0298 -7.81383 -3.53341e-18)
(91.6511 -8.17209 1.03238e-17)
(90.416 -9.05125 6.28028e-19)
(90.4018 -8.48439 -3.70783e-19)
(91.5552 -8.46627 -2.98618e-19)
(76.7537 -7.06513 2.11018e-17)
(87.3558 -8.08186 7.37624e-19)
(87.8112 -9.06814 0)
(36.6115 -9.47027 1.355e-18)
(26.9954 -8.48903 2.34087e-17)
(43.5919 -2.87365 -3.21352e-17)
(68.626 -16.7884 -1.21494e-18)
(54.8907 -15.3755 0)
(59.3535 -14.6943 6.54186e-18)
(61.8791 -17.6689 1.23685e-19)
(55.7666 -16.6933 -8.32499e-18)
(70.4991 -18.6689 1.34225e-17)
(100.346 -1.2929 0)
(100.185 -1.4897 6.68566e-20)
(99.9909 -1.68964 0)
(99.76 -1.90589 1.72953e-20)
(99.4904 -2.1388 -2.66427e-19)
(99.1732 -2.51689 3.33145e-21)
(100.71 -1.45106 7.76969e-18)
(100.573 -1.67216 0)
(100.376 -1.58597 0)
(100.408 -1.89908 0)
(100.212 -2.14458 7.88232e-18)
(99.9838 -2.02954 0)
(99.9863 -2.40964 -3.78314e-18)
(99.7449 -2.8199 0)
(99.3115 -2.60181 -1.64699e-21)
(99.3113 -2.83436 1.45455e-20)
(99.163 -3.00209 -1.29469e-20)
(99.0033 -2.91732 0)
(98.6317 -3.56026 7.21193e-21)
(98.3962 -3.76989 2.56816e-23)
(98.1954 -3.66075 -3.88161e-21)
(97.5279 -4.47954 -8.5637e-21)
(97.1832 -4.74597 -1.39513e-20)
(96.9311 -4.59118 7.47122e-20)
(94.0074 -6.43922 -6.62604e-20)
(93.857 -6.50434 -7.03482e-20)
(93.7998 -6.40958 6.93216e-20)
(101.109 -1.55985 0)
(100.997 -1.79653 0)
(100.78 -1.74363 0)
(100.863 -2.03875 0)
(100.705 -2.29928 0)
(100.451 -2.23311 0)
(100.527 -2.58182 0)
(100.367 -2.99507 0)
(99.893 -2.8788 0)
(99.9381 -3.0965 0)
(99.8237 -3.27718 0)
(99.6499 -3.22597 0)
(99.4176 -3.88062 0)
(99.2339 -4.11077 0)
(99.0103 -4.05118 0)
(98.5566 -4.90829 0)
(98.294 -5.2194 0)
(97.9889 -5.1425 0)
(101.529 -1.61928 0)
(101.444 -1.86134 0)
(101.22 -1.83716 0)
(101.341 -2.1076 0)
(101.221 -2.37039 0)
(100.963 -2.3446 0)
(101.089 -2.6548 0)
(100.997 -3.04903 0)
(100.525 -3.02045 0)
(100.604 -3.20865 0)
(100.523 -3.3887 0)
(100.349 -3.37414 0)
(100.246 -3.98187 0)
(100.126 -4.20264 0)
(99.907 -4.19984 0)
(99.6712 -4.96988 0)
(99.5075 -5.264 0)
(99.214 -5.28918 0)
(99.099 -6.30954 0)
(99.0373 -6.70741 0)
(98.6267 -6.82671 0)
(97.5079 -7.94438 0)
(88.181 -7.09314 0)
(87.3699 -7.34033 0)
(101.952 -1.63475 0)
(101.89 -1.87336 0)
(101.668 -1.87434 0)
(101.814 -2.11427 0)
(101.727 -2.36859 0)
(101.476 -2.37785 0)
(101.635 -2.64171 0)
(101.594 -3.00029 0)
(101.15 -3.04618 0)
(101.249 -3.19851 0)
(101.196 -3.36688 0)
(101.033 -3.38348 0)
(101.013 -3.91164 0)
(100.935 -4.10798 0)
(100.743 -4.14684 0)
(100.65 -4.75558 0)
(100.55 -4.99384 0)
(100.313 -5.08208 0)
(100.31 -5.75562 0)
(100.328 -6.02757 0)
(100.049 -6.21058 0)
(96.3804 -6.4187 0)
(90.8587 -6.19505 0)
(90.2721 -6.41065 0)
(102.364 -1.61206 0)
(102.321 -1.84059 0)
(102.108 -1.86246 0)
(102.268 -2.06923 0)
(102.207 -2.30752 0)
(101.971 -2.34444 0)
(102.144 -2.56059 0)