/*--------------------------------*- C++ -*----------------------------------*\
| =========                 |                                                 |
| \\      /  F ield         | OpenFOAM: The Open Source CFD Toolbox           |
|  \\    /   O peration     | Version:  v2012                                 |
|   \\  /    A nd           | Website:  www.openfoam.com                      |
|    \\/     M anipulation  |                                                 |
\*---------------------------------------------------------------------------*/
FoamFile
{
    version     2.0;
    format      ascii;
    class       pointVectorField;
    location    "1.35";
    object      pointDisplacement;
}
// * * * * * * * * * * * * * * * * * * * * * * * * * * * * * * * * * * * * * //

dimensions      [0 1 0 0 0 0 0];


internalField   nonuniform List<vector> 
6506
(
(0 0 0)
(0 0 0)
(0 0 0)
(0 0 0)
(0 0 0)
(0 0 0)
(0 0 0)
(0 0 0)
(0 0 0)
(0 0 0)
(0 0 0)
(0 0 0)
(0 0 0)
(0 0 0)
(0 0 0)
(0 0 0)
(0 0 0)
(0 0 0)
(0 0 0)
(0 0 0)
(0 0 0)
(0 0 0)
(0 0 0)
(0 0 0)
(0 0 0)
(0 0 0)
(0 0 0)
(0 0 0)
(0 0 0)
(0 0 0)
(0 0 0)
(0 0 0)
(0 0 0)
(0 0 0)
(0 0 0)
(0 0 0)
(0 0 0)
(0 0 0)
(0 0 0)
(0 0 0)
(0 0 0)
(0 0 0)
(0 0 0)
(0 0 0)
(0 0 0)
(0 0 0)
(0 0 0)
(0 0 0)
(0 0 0)
(0 0 0)
(0 0 0)
(0 0 0)
(0 0 0)
(0 0 0)
(0 0 0)
(0 0 0)
(0 0 0)
(0 0 0)
(0 0 0)
(0 0 0)
(0 0 0)
(0 0 0)
(0 0 0)
(0 0 0)
(0 0 0)
(0 0 0)
(0 0 0)
(0 0 0)
(0 0 0)
(0 0 0)
(0 0 0)
(0 0 0)
(0 0 0)
(0 0 0)
(0 0 0)
(0 0 0)
(0 0 0)
(0 0 0)
(-1.86771409e-07 5.163508722e-06 2.775557562e-17)
(0 0 0)
(0 0 0)
(0 0 0)
(0 0 0)
(0 0 0)
(0 0 0)
(0 0 0)
(0 0 0)
(0 0 0)
(0 0 0)
(0 0 0)
(0 0 0)
(0 0 0)
(0 0 0)
(0 0 0)
(0 0 0)
(0 0 0)
(0 0 0)
(0 0 0)
(0 0 0)
(0 0 0)
(0 0 0)
(0 0 0)
(0 0 0)
(0 0 0)
(0 0 0)
(0 0 0)
(0 0 0)
(-1.163600275e-05 7.993252539e-05 4.857225733e-16)
(-6.697562063e-05 0.0005013810206 3.080868893e-15)
(-8.75635098e-07 6.627678269e-06 2.775557562e-17)
(-0.0001272282011 0.00131781801 8.007483565e-15)
(-0.0003162155309 0.003241259448 1.992850329e-14)
(-0.0003755637772 0.004390262211 2.69784195e-14)
(-0.0001749417848 0.002066016486 1.255939797e-14)
(-0.0002136281617 0.004353473678 2.646494135e-14)
(-0.0003755483213 0.007584879589 4.661548925e-14)
(-0.0003143994822 0.008381172745 5.151434834e-14)
(-0.0001843478934 0.004954378349 3.011479954e-14)
(0 0 0)
(0 0 0)
(0 0 0)
(0 0 0)
(0 0 0)
(0 0 0)
(0 0 0)
(0 0 0)
(0 0 0)
(0 0 0)
(0 0 0)
(0 0 0)
(0 0 0)
(0 0 0)
(0 0 0)
(0 0 0)
(0 0 0)
(0 0 0)
(0 0 0)
(0 0 0)
(0 0 0)
(0 0 0)
(-3.249787011e-05 0.0001604374461 1.026956298e-15)
(-0.0001775527635 0.0009345327805 6.009082121e-15)
(-4.205262135e-05 0.0002239080714 1.429412144e-15)
(-0.0006005510897 0.003990380127 2.53824739e-14)
(-0.0009609623463 0.006314329921 4.06341627e-14)
(-0.001226883026 0.008790685304 5.655198532e-14)
(-0.000826138483 0.005984852611 3.805289417e-14)
(-0.001288351149 0.01280210736 8.140710328e-14)
(-0.001706353024 0.01677884904 1.079414336e-13)
(-0.001719475493 0.0193021497 1.241645675e-13)
(-0.001325929562 0.01503783649 9.5617958e-14)
(-0.00104599754 0.0205786323 1.308536612e-13)
(-0.001303384487 0.02541073347 1.634664626e-13)
(-0.00103742412 0.02679409956 1.723621246e-13)
(-0.000839346198 0.02185712297 1.389860449e-13)
(0 0 0)
(0 0 0)
(0 0 0)
(0 0 0)
(0 0 0)
(0 0 0)
(0 0 0)
(0 0 0)
(0 0 0)
(0 0 0)
(0 0 0)
(0 0 0)
(0 0 0)
(0 0 0)
(0 0 0)
(0 0 0)
(0 0 0)
(0 0 0)
(0 0 0)
(-1.398141728e-05 5.524924899e-05 3.747002708e-16)
(0 0 0)
(-0.0005953648457 0.00283596808 1.891542478e-14)
(-0.0008850327988 0.004158074491 2.807476474e-14)
(-0.001385636174 0.006948737601 4.690692279e-14)
(-0.001017180843 0.005168318279 3.447242491e-14)
(-0.002329730568 0.01479376374 9.862943795e-14)
(-0.002828543551 0.01775071459 1.197930644e-13)
(-0.003166586977 0.0216780568 1.462718835e-13)
(-0.002662656025 0.01844278858 1.229433222e-13)
(-0.003044839382 0.02897436531 1.931232951e-13)
(-0.003473543401 0.03267437111 2.204486593e-13)
(-0.003327539364 0.03575068414 2.411959521e-13)
(-0.002945614302 0.03201347357 2.133848653e-13)
(-0.002054400547 0.03886459421 2.590705428e-13)
(-0.002270714179 0.04247406008 2.86590196e-13)
(-0.001766230703 0.04384691057 2.958744361e-13)
(-0.001605931881 0.04031412076 2.687294831e-13)
(0 0 0)
(0 0 0)
(0 0 0)
(0 0 0)
(0 0 0)
(0 0 0)
(0 0 0)
(0 0 0)
(0 0 0)
(0 0 0)
(0 0 0)
(0 0 0)
(0 0 0)
(0 0 0)
(0 0 0)
(0 0 0)
(0 0 0)
(-6.462225764e-05 0.000233616181 1.637578961e-15)
(-0.0001469650067 0.0005244140633 3.73312492e-15)
(-0.0005220895684 0.001959999575 1.393329896e-14)
(-0.0003509765542 0.001334846931 9.36750677e-15)
(-0.002065379081 0.00931419212 6.5336625e-14)
(-0.002443702069 0.0108785799 7.729927809e-14)
(-0.00315255761 0.01496220991 1.063038546e-13)
(-0.002732784322 0.01313911854 9.214851104e-14)
(-0.004329253821 0.02599648109 1.822292317e-13)
(-0.004781506431 0.02831203396 2.010891453e-13)
(-0.00504737553 0.03258015272 2.313566005e-13)
(-0.004613590413 0.03022669831 2.118305531e-13)
(-0.00459074101 0.04145550766 2.903788321e-13)
(-0.004872666552 0.04328823357 3.071709553e-13)
(-0.004511847028 0.04582571519 3.251288128e-13)
(-0.004266356151 0.04401432274 3.082811784e-13)
(-0.002732511662 0.04916858748 3.4440506e-13)
(-0.00281899573 0.04988523685 3.539391003e-13)
(-0.002142556208 0.05035816162 3.572975249e-13)
(-0.002092565529 0.04996064774 3.499700529e-13)
(0 0 0)
(0 0 0)
(0 0 0)
(0 0 0)
(0 0 0)
(0 0 0)
(0 0 0)
(0 0 0)
(0 0 0)
(0 0 0)
(0 0 0)
(0 0 0)
(0 0 0)
(0 0 0)
(-6.150626454e-06 1.866261117e-05 1.387778781e-16)
(-1.678334534e-07 5.16443754e-07 0)
(0 0 0)
(-0.0004614261877 0.001581726392 1.169897512e-14)
(-0.0005824062039 0.001969254719 1.476596623e-14)
(-0.001208553273 0.004299315175 3.222422329e-14)
(-0.001031079959 0.003718593642 2.750577544e-14)
(-0.003353111239 0.01433919444 1.059985433e-13)
(-0.003649506757 0.01539279459 1.153521723e-13)
(-0.004435978762 0.01994471554 1.494360191e-13)
(-0.004203645376 0.01916530689 1.416644579e-13)
(-0.005828556642 0.03313217397 2.448041769e-13)
(-0.006066152326 0.03399925502 2.546574063e-13)
(-0.00623340425 0.0380575968 2.850358838e-13)
(-0.006019594163 0.03727812433 2.754324546e-13)
(-0.005457175256 0.04617058781 3.411021465e-13)
(-0.005563793267 0.04636328727 3.472361287e-13)
(-0.00501459111 0.04756614469 3.562566908e-13)
(-0.004953235475 0.0477505816 3.527317327e-13)
(-0.002918348427 0.04865333986 0)
(-0.00295142346 0.04797441629 0)
(-0.002598596159 0.04797779921 0)
(-0.002226691429 0.04799637969 0)
(-0.00220719523 0.04833243728 0)
(-0.002201470086 0.04866044751 0)
(0 0 0)
(0 0 0)
(0 0 0)
(0 0 0)
(0 0 0)
(0 0 0)
(0 0 0)
(0 0 0)
(0 0 0)
(0 0 0)
(0 0 0)
(0 0 0)
(0 0 0)
(0 0 0)
(-5.542066105e-05 0.000158713818 1.276756478e-15)
(-3.158259547e-05 9.17893019e-05 7.21644966e-16)
(-2.58373152e-05 7.61855291e-05 5.967448757e-16)
(-0.0008368151608 0.002711187707 2.120525977e-14)
(-0.0008678346253 0.002771032048 2.198241589e-14)
(-0.001607098724 0.005398474425 4.282685317e-14)
(-0.0015647621 0.005333506523 4.170275236e-14)
(-0.004213732428 0.01702270725 1.330602295e-13)
(-0.004279817947 0.01703783687 1.351141421e-13)
(-0.005097865006 0.02162933599 1.715017017e-13)
(-0.00502803682 0.02164832549 1.69197989e-13)
(-0.00654027145 0.03507194647 2.740169203e-13)
(-0.006602598912 0.0348853508 2.765287999e-13)
(-0.006694300364 0.03851184474 3.052696984e-13)
(-0.006639872775 0.03877358651 3.029243523e-13)
(-0.005715341476 0.04548445853 3.553823902e-13)
(-0.005734844054 0.04493871156 3.562566908e-13)
(-0.005085843322 0.04530932639 0)
(-0.005079830874 0.04597270728 3.592126596e-13)
(-0.002990287451 0.04596512313 0)
(-0.002994810721 0.04562856193 0)
(-0.002646762105 0.0456279234 0)
(-0.002642273414 0.04596395465 0)
(0 0 0)
(0 0 0)
(0 0 0)
(0 0 0)
(0 0 0)
(0 0 0)
(0 0 0)
(0 0 0)
(0 0 0)
(0 0 0)
(0 0 0)
(0 0 0)
(0 0 0)
(0 0 0)
(-9.097558521e-05 0.0002451440507 2.095545959e-15)
(-8.216938003e-05 0.0002248866173 1.887379142e-15)
(-7.208604402e-05 0.0002003381278 1.665334537e-15)
(-0.001031041555 0.003147825696 2.611799665e-14)
(-0.001066092881 0.003205419839 2.700617507e-14)
(-0.001859189836 0.005880743515 4.954370247e-14)
(-0.001815430624 0.005830955526 4.83779683e-14)
(-0.004543174313 0.01729027102 1.433714258e-13)
(-0.004596656631 0.01722623838 1.450506382e-13)
(-0.005405016403 0.02158344181 1.817157536e-13)
(-0.0053533785 0.02171039709 1.799949079e-13)
(-0.006780482095 0.03422101231 2.83648105e-13)
(-0.006816166091 0.03386650155 2.850497616e-13)
(-0.006864459199 0.03712305984 3.124445147e-13)
(-0.006836013826 0.03755577838 3.112787805e-13)
(-0.005770788049 0.04313990126 3.576305918e-13)
(-0.005778427398 0.04251024472 3.578526364e-13)
(-0.00510423412 0.04266808001 0)
(-0.005100061146 0.04332675137 0)
(-0.003013872913 0.04331136096 0)
(-0.003016159606 0.0429817978 0)
(-0.002668995506 0.04297928515 0)
(-0.002666663016 0.04330884796 0)
(0 0 0)
(0 0 0)
(0 0 0)
(0 0 0)
(0 0 0)
(0 0 0)
(0 0 0)
(0 0 0)
(0 0 0)
(0 0 0)
(0 0 0)
(0 0 0)
(0 0 0)
(0 0 0)
(-0.0001341991972 0.0003389694638 3.094746681e-15)
(-0.000120990159 0.0003107043928 2.789435349e-15)
(-0.0001092292961 0.0002851128424 2.525757381e-15)
(-0.001153302366 0.003307475115 2.921274334e-14)
(-0.001188626932 0.003353775371 3.011479954e-14)
(-0.002010549861 0.005967511549 5.356826094e-14)
(-0.00196719944 0.005934710704 5.241640455e-14)
(-0.004727343135 0.01689197231 1.491307078e-13)
(-0.004779050383 0.01679923372 1.507405312e-13)
(-0.005580771036 0.02089937635 1.874889133e-13)
(-0.00553109781 0.02105651948 1.858513343e-13)
(-0.006903479174 0.03268167652 2.883943084e-13)
(-0.006937195605 0.03230007445 2.896849427e-13)
(-0.006960856676 0.03526640493 3.163025397e-13)
(-0.00693423719 0.03572272845 3.152200723e-13)
(-0.005797649177 0.0405986165 3.583244812e-13)
(-0.005803990335 0.03996096681 3.584910147e-13)
(-0.005119876163 0.04003892843 0)
(-0.00511606759 0.04069586215 0)
(-0.003031237561 0.04068054316 0)
(-0.003033316008 0.04035226084 0)
(-0.00268662457 0.04034982813 0)
(-0.002685554698 0.04051398433 0)
(-0.002684485876 0.04067800313 0)
(0 0 0)
(0 0 0)
(0 0 0)
(0 0 0)
(0 0 0)
(0 0 0)
(0 0 0)
(0 0 0)
(0 0 0)
(0 0 0)
(0 0 0)
(0 0 0)
(0 0 0)
(0 0 0)
(-0.0001921785187 0.0004530282218 4.427014311e-15)
(-0.0001764729566 0.0004234403877 4.066191828e-15)
(-0.0001612821044 0.0003937863697 3.719247132e-15)
(-0.001299050602 0.003484830741 3.291811268e-14)
(-0.001337945501 0.003527168623 3.388955783e-14)
(-0.002191794827 0.006077794755 5.83977311e-14)
(-0.002144891637 0.00605240008 5.714873019e-14)
(-0.004937074069 0.01649414396 1.556532681e-13)
(-0.004991506546 0.01638594096 1.573463582e-13)
(-0.005783995907 0.02022433307 1.94178007e-13)
(-0.005732066826 0.02039854734 1.924849169e-13)
(-0.007038754571 0.03112649453 2.936262344e-13)
(-0.007073174052 0.03072769907 2.949446243e-13)
(-0.007067315883 0.03339888565 3.205907761e-13)
(-0.007040514689 0.03387105439 3.195083087e-13)
(-0.005821369784 0.03803443903 3.588657149e-13)
(-0.005826596385 0.03738832364 3.589628594e-13)
(-0.005134419873 0.03740966159 0)
(-0.00513089844 0.03806697917 0)
(-0.003047350052 0.03805176157 0)
(-0.003049232372 0.03772317241 0)
(-0.002703136423 0.03772072898 0)
(-0.002702157098 0.03788502327 0)
(-0.00270116274 0.03804928691 0)
(0 0 0)
(0 0 0)
(0 0 0)
(0 0 0)
(0 0 0)
(0 0 0)
(0 0 0)
(0 0 0)
(0 0 0)
(0 0 0)
(0 0 0)
(0 0 0)
(0 0 0)
(0 0 0)
(-0.0002428808955 0.0005315994613 5.606626274e-15)
(-0.0002511796908 0.0005603517449 5.800915304e-15)
(-0.0002292936505 0.0005211948075 5.287437155e-15)
(-0.00146506079 0.003658568611 3.71092046e-14)
(-0.001514757563 0.003712411156 3.837208329e-14)
(-0.002402516901 0.006192998812 6.400435737e-14)
(-0.002343676154 0.006155798204 6.245004514e-14)
(-0.005165044194 0.01605515744 1.627448176e-13)
(-0.005231143778 0.01595641629 1.647987302e-13)
(-0.006011442971 0.0195270742 2.016442568e-13)
(-0.005948914305 0.01969335834 1.995903443e-13)
(-0.007180872451 0.02951892001 2.990940828e-13)
(-0.007220911314 0.02912147386 3.006345173e-13)
(-0.007181019698 0.03149651533 3.251565683e-13)
(-0.007150458218 0.03196969383 3.23935323e-13)
(-0.005840576359 0.03543911615 3.59184904e-13)
(-0.005844709618 0.0347853392 3.592126596e-13)
(-0.005147995885 0.03478116597 0)
(-0.005144613011 0.03543833194 0)
(-0.003061413875 0.03542336128 0)
(-0.003063005908 0.03509480043 0)
(-0.002717565813 0.03509243835 0)
(-0.002716738798 0.0352567796 0)
(-0.00271589745 0.03542099861 0)
(-0.002664250234 0.04363892922 0)
(-0.003011506045 0.0436414273 0)
(-0.002683417053 0.04084202193 0)
(-0.002682346831 0.04100622393 0)
(-0.003029158998 0.04100884076 0)
(-0.002700168732 0.03821350476 0)
(-0.002699174142 0.03837779893 0)
(-0.003045437433 0.03838031997 0)
(-0.002715056334 0.03558518709 0)
(-0.00271419972 0.03574940598 0)
(-0.003059792009 0.03575183029 0)
(-0.002636850603 0.04630035829 0)
(-0.002984955237 0.0463016583 0)
(-0.0004187145558 0.0486599074 0)
(-0.0004222115593 0.04833359005 0)
(-0.005112212754 0.04135285658 0)
(-0.005791536149 0.04123762948 3.581857033e-13)
(-0.003376200737 0.04101138301 0)
(-0.003378233619 0.0406830698 0)
(-0.003361220204 0.043313875 0)
(-0.003363476132 0.04298434215 0)
(-0.005127300328 0.03872434197 0)
(-0.005815920649 0.03867902789 3.587546926e-13)
(-0.003392036693 0.03838282831 0)
(-0.00339390363 0.03805425429 0)
(-0.003380251118 0.04035477174 0)
(-0.003039482009 0.03936649731 0)
(-0.002693004528 0.0393640357 0)
(-0.002691933025 0.03952840562 0)
(-0.002690877254 0.0396927146 0)
(-0.003037446214 0.03969519217 0)
(-0.001654094064 0.03935667013 0)
(-0.00165377961 0.03943886441 0)
(-0.001653733954 0.03952104548 0)
(-0.001826807939 0.03952225976 0)
(-0.001827742048 0.03935788879 0)
(-0.001645374833 0.04067051389 0)
(-0.001818598191 0.04067175985 0)
(-0.001819803941 0.04050780316 0)
(-0.001646702245 0.0405066192 0)
(-0.001645999908 0.04058862732 0)
(-0.005141246102 0.03609540644 0)
(-0.005835749022 0.03608858415 3.591016373e-13)
(-0.003405979553 0.03575427442 0)
(-0.003407555738 0.03542578979 0)
(-0.003395724886 0.03772566466 0)
(-0.003054697421 0.0367372356 0)
(-0.002708846427 0.03673470244 0)
(-0.002707928049 0.03689901246 0)
(-0.002706994056 0.03706336816 0)
(-0.003052921846 0.03706584084 0)
(-0.001673446665 0.03672742473 0)
(-0.001672427274 0.03680956783 0)
(-0.001759496757 0.03681021721 0)
(-0.001760261323 0.03672805689 0)
(-0.001665759343 0.03804208551 0)
(-0.001837746858 0.03804323043 0)
(-0.001838909142 0.03787896807 0)
(-0.001667059137 0.03787780894 0)
(-0.001666538826 0.03795997112 0)
(-0.003409117356 0.03509721345 0)
(-0.003067552204 0.03410922301 0)
(-0.00289481689 0.03410804185 0)
(-0.002894065856 0.03427242949 0)
(-0.003066816552 0.0342735955 0)
(-0.00168071059 0.03409943054 0)
(-0.001681900427 0.03418175844 0)
(-0.001772699278 0.03418265001 0)
(-0.001772304214 0.03410040451 0)
(-0.001677248977 0.03541371137 0)
(-0.001766715693 0.03541451644 0)
(-0.00176775388 0.03533251089 0)
(-0.001678873145 0.03533174082 0)
(-0.001614984011 0.04462379734 0)
(-0.001616400326 0.04445825604 0)
(-0.001442691872 0.04445715905 0)
(-0.001441981937 0.04453996251 0)
(-0.001441374272 0.04462256829 0)
(-0.001625553065 0.04330122133 0)
(-0.001451177827 0.04329987498 0)
(-0.00145061948 0.04338222007 0)
(-0.001450517363 0.04346479765 0)
(-0.001624462218 0.04346612544 0)
(-0.001596722988 0.04596644306 0)
(-0.001600042121 0.0457970272 0)
(-0.001425203882 0.04579933526 0)
(-0.001421884304 0.04596840944 0)
(-0.001439811416 0.04478870694 0)
(-0.001613428239 0.04478980781 0)
(-0.001644673661 0.04075236935 0)
(-0.00164407807 0.04083439356 0)
(-0.001817392441 0.04083571654 0)
(-0.001636274559 0.04198467535 0)
(-0.001809253546 0.04198593471 0)
(-0.00181046151 0.04182168796 0)
(-0.001637528205 0.04182044422 0)
(-0.003022762143 0.04199484679 0)
(-0.003024920066 0.04166615287 0)
(-0.002677985189 0.04166361143 0)
(-0.002675781585 0.04199228974 0)
(-0.001465070732 0.04181926518 0)
(-0.001464468917 0.0419013046 0)
(-0.001463627077 0.04198338799 0)
(-0.001558319089 0.04066986463 0)
(-0.001557570593 0.04075171973 0)
(-0.001626794941 0.0431365321 0)
(-0.001452446599 0.0431352623 0)
(-0.001451540304 0.04321758946 0)
(-0.001462915942 0.04206554871 0)
(-0.001462074231 0.04214781531 0)
(-0.001634943302 0.04214907382 0)
(-0.001665026008 0.03812415447 0)
(-0.001664216577 0.0382061923 0)
(-0.001836493679 0.0382074005 0)
(-0.0018288146 0.03919338148 0)
(-0.001654953358 0.03919210012 0)
(-0.001654232015 0.03927439817 0)
(-0.00304150347 0.0390376802 0)
(-0.002695087636 0.03903514273 0)
(-0.002694046315 0.03919955869 0)
(-0.001565932562 0.03927367834 0)
(-0.001565947154 0.03935596673 0)
(-0.001580263198 0.03804152449 0)
(-0.001579279618 0.03812357626 0)
(-0.001559069229 0.04058799427 0)
(-0.001566288903 0.03943819656 0)
(-0.001675800368 0.03549568326 0)
(-0.001765753951 0.03549650732 0)
(-0.001760995124 0.03664592688 0)
(-0.001674464413 0.03664529689 0)
(-0.003056425333 0.03640887426 0)
(-0.002710649853 0.03640644854 0)
(-0.002709763988 0.03657049928 0)
(-0.001587364282 0.03664466255 0)
(-0.001585827841 0.03672674063 0)
(-0.001585494828 0.0354127667 0)
(-0.001583200834 0.03549468634 0)
(-0.001581170914 0.03795941107 0)
(-0.001584292578 0.03680886453 0)
(-0.00177284014 0.03401819665 0)
(-0.00168146306 0.03401725487 0)
(-0.003068287506 0.03394489633 0)
(-0.002895552193 0.03394371516 0)
(-0.001588430439 0.03401619357 0)
(-0.001586995931 0.03409831824 0)
(-0.001588069598 0.03533086448 0)
(-0.001588986881 0.03418069805 0)
(-0.005095683189 0.04398627611 0)
(-0.005761400703 0.04375739136 3.573114027e-13)
(-0.003358899367 0.04364391117 0)
(-0.003338331123 0.04596640923 0)
(-0.0033426981 0.04563032287 0)
(-0.003004066841 0.04463198406 0)
(-0.002656594369 0.04462986905 0)
(-0.002653661426 0.04496209286 0)
(-0.003001164243 0.04496423253 0)
(-0.001786971471 0.04479094933 0)
(-0.001788528595 0.04462496178 0)
(-0.001770714331 0.04596668085 0)
(-0.00177414862 0.04579677917 0)
(-0.002673545701 0.04232119681 0)
(-0.003020587556 0.0423237238 0)
(-0.00180802915 0.04215033399 0)
(-0.001799249668 0.04330247089 0)
(-0.001800491544 0.04313778167 0)
(-0.001798036693 0.04346737407 0)
(-0.001789929702 0.04445941272 0)
(-0.003006572104 0.04430178747 0)
(-0.002659192883 0.04429945638 0)
(-0.0009290595055 0.04395726434 0)
(-0.0009354730336 0.04387467388 0)
(-0.0008585761996 0.04387417849 0)
(-0.0008514040818 0.04395694637 0)
(-0.0008954273231 0.04597737568 0)
(-0.0008988512791 0.04588982769 0)
(-0.000810975266 0.04589143608 0)
(-0.0008069451877 0.04598018782 0)
(-0.0009089968002 0.04528833564 0)
(-0.0008217126269 0.04528881132 0)
(-0.00082027862 0.04537327029 0)
(-0.0009088294712 0.04537265619 0)
(-0.001536602665 0.04733837654 0)
(-0.001565484043 0.04698763366 0)
(-0.001387589246 0.04699115957 0)
(-0.001204175935 0.04699942647 0)
(-0.00118945215 0.04717328433 0)
(-0.00117512747 0.04734445828 0)
(-0.001417047553 0.04613983749 0)
(-0.001593671587 0.04613438527 0)
(-0.001690850787 0.03475703561 0)
(-0.001775410186 0.03475751315 0)
(-0.001776373093 0.03467536962 0)
(-0.001692347769 0.03467492669 0)
(-0.002374741735 0.03476137056 0)
(-0.002375582967 0.03459716682 0)
(-0.002203824208 0.03459605418 0)
(-0.002202922029 0.03476024219 0)
(-0.002378075665 0.03410461642 0)
(-0.00220637797 0.03410350425 0)
(-0.002205535456 0.03426787592 0)
(-0.0023772638 0.03426897306 0)
(-0.0009141616634 0.04461932399 0)
(-0.000902465878 0.04453450526 0)
(-0.0007941554955 0.04451347434 0)
(-0.0008351080533 0.04461977242 0)
(-0.0008437798236 0.04403914592 0)
(-0.0009221508709 0.04403951516 0)
(-0.001620754304 0.0439618726 0)
(-0.001447391327 0.04396071718 0)
(-0.001446565615 0.0440434877 0)
(-0.001445779933 0.04412601426 0)
(-0.001619308844 0.04412723201 0)
(-0.001009428087 0.04404015085 0)
(-0.001014739309 0.0439577657 0)
(-0.001000687119 0.04461984249 0)
(-0.0009946693827 0.04453578312 0)
(-0.000899297138 0.04329321955 0)
(-0.0008946064942 0.04337090724 0)
(-0.0009870155191 0.04337726137 0)
(-0.0009841737775 0.04329473766 0)
(-0.00101958408 0.04387508693 0)
(-0.00162213975 0.04379637533 0)
(-0.001448898771 0.04379503764 0)
(-0.001448195421 0.04387777856 0)
(-0.001607867377 0.04529109643 0)
(-0.001434143692 0.04529039473 0)
(-0.001431529979 0.04545979857 0)
(-0.001605243875 0.04546038264 0)
(-0.0009970225748 0.04537290804 0)
(-0.0009973188836 0.04528849077 0)
(-0.0009847372574 0.04597271952 0)
(-0.0009868169767 0.04588787037 0)
(-0.0009197265252 0.0447033112 0)
(-0.0010042145 0.04470354546 0)
(-0.0009966684469 0.04520429985 0)
(-0.000907185848 0.04520417556 0)
(-0.001609941375 0.04512319683 0)
(-0.001436198707 0.04512238202 0)
(-0.0008193652337 0.04520412655 0)
(-0.0008396173268 0.04470364471 0)
(-0.00164046886 0.04132721023 0)
(-0.00155319035 0.041326544 0)
(-0.001552939069 0.04140866243 0)
(-0.001639949015 0.04140931135 0)
(-0.0009669802055 0.04198034495 0)
(-0.001043669423 0.04198083875 0)
(-0.001047110239 0.04189888207 0)
(-0.0009707171809 0.04189839053 0)
(-0.001640897342 0.04124507789 0)
(-0.001553534869 0.04124441101 0)
(-0.00163090245 0.04264243681 0)
(-0.001457320925 0.04264111179 0)
(-0.001456415458 0.04272353057 0)
(-0.001455684255 0.04280592014 0)
(-0.001629522831 0.04280717079 0)
(-0.0009359216609 0.04263690273 0)
(-0.0009319028714 0.0427191756 0)
(-0.001011008106 0.04271976418 0)
(-0.00101480695 0.04263750489 0)
(-0.0009864329969 0.04321257349 0)
(-0.0009043032153 0.04321180915 0)
(-0.0009632811619 0.0420623302 0)
(-0.001040226614 0.04206285649 0)
(-0.001018499875 0.04255532113 0)
(-0.0009398877305 0.04255473632 0)
(-0.001632265172 0.04247791645 0)
(-0.001458915572 0.04247660846 0)
(-0.001458069864 0.04255879869 0)
(-0.001659458796 0.03869927502 0)
(-0.001572067202 0.03869862319 0)
(-0.001571014459 0.0387807355 0)
(-0.001658532644 0.03878140356 0)
(-0.001660168521 0.03861709902 0)
(-0.001573099038 0.03861644965 0)
(-0.001650738086 0.04001391264 0)
(-0.00156451704 0.04001331555 0)
(-0.001563739084 0.04009542996 0)
(-0.001650065348 0.04009604312 0)
(-0.001651426205 0.03993176701 0)
(-0.001565284543 0.03993117053 0)
(-0.001680378209 0.03607097286 0)
(-0.001595988263 0.03607049661 0)
(-0.001595948363 0.03615272352 0)
(-0.001680162752 0.03615319843 0)
(-0.001679772592 0.03598871048 0)
(-0.0015943435 0.03598816523 0)
(-0.001666359572 0.03738465403 0)
(-0.001575746617 0.03738380968 0)
(-0.001576413414 0.03746605725 0)
(-0.001666325895 0.03746686572 0)
(-0.001666783824 0.03730247585 0)
(-0.001576027368 0.0373016304 0)
(-0.002378902563 0.03394029043 0)
(-0.002207265932 0.03393917873 0)
(-0.0016069719 0.03475660906 0)
(-0.001604356157 0.03483867891 0)
(-0.001689207019 0.03483917394 0)
(-0.001609372161 0.0346745681 0)
(-0.000851336706 0.04667697212 0)
(-0.0008672396171 0.04650084544 0)
(-0.0006838527363 0.04650864995 0)
(-0.0006620072325 0.04668607322 0)
(-0.0008020429329 0.04606919716 0)
(-0.0008908154815 0.04606634006 0)
(-0.00175467887 0.03738537401 0)
(-0.001755184032 0.03730319645 0)
(-0.002359518632 0.03738963987 0)
(-0.002360544221 0.03722528487 0)
(-0.002187976949 0.03722408972 0)
(-0.002186920945 0.03738842923 0)
(-0.002363544307 0.03673226507 0)
(-0.002191114429 0.03673107097 0)
(-0.002190073808 0.03689539533 0)
(-0.002362549484 0.03689658977 0)
(-0.002355402643 0.03804684605 0)
(-0.002356442798 0.03788258276 0)
(-0.002183753515 0.03788137141 0)
(-0.002182682828 0.03804563447 0)
(-0.002185880207 0.03755276885 0)
(-0.002358508426 0.03755397973 0)
(-0.001754280571 0.03746755239 0)
(-0.002371098291 0.03541867195 0)
(-0.002372015969 0.03525445352 0)
(-0.002199936859 0.0352533079 0)
(-0.002198942967 0.03541751048 0)
(-0.002201942122 0.03492461281 0)
(-0.002373853424 0.03492574188 0)
(-0.00177435545 0.03483968652 0)
(-0.001832607701 0.0387004746 0)
(-0.001833908426 0.0385360759 0)
(-0.001661057324 0.03853486332 0)
(-0.002351148561 0.03870414277 0)
(-0.002352235563 0.03853974244 0)
(-0.002179409003 0.03853851478 0)
(-0.002178291469 0.03870291488 0)
(-0.002181597457 0.03820982109 0)
(-0.002354347687 0.03821104816 0)
(-0.001328548203 0.03804010685 0)
(-0.001325336609 0.03812203474 0)
(-0.001409434976 0.03812250877 0)
(-0.001411656043 0.03804054277 0)
(-0.001315705826 0.0383678948 0)
(-0.001402631809 0.03836854308 0)
(-0.001404901015 0.03828647059 0)
(-0.001318907316 0.03828589049 0)
(-0.001662642346 0.03837042098 0)
(-0.001663422062 0.03828827605 0)
(-0.001577240708 0.03828767926 0)
(-0.001576216853 0.03836980706 0)
(-0.001765654642 0.03607151694 0)
(-0.001765686908 0.03598928997 0)
(-0.002367396813 0.03607557595 0)
(-0.002368269276 0.03591128085 0)
(-0.00219608377 0.03591007335 0)
(-0.002195150127 0.03607438325 0)
(-0.002197964691 0.03558166738 0)
(-0.002370181079 0.03558282931 0)
(-0.002364522933 0.03656806237 0)
(-0.002192138853 0.03656686863 0)
(-0.002194155303 0.03623870796 0)
(-0.002366447904 0.03623988574 0)
(-0.001765271492 0.0361537107 0)
(-0.001677525441 0.03639949354 0)
(-0.001592026242 0.03639893249 0)
(-0.001590457965 0.03648078133 0)
(-0.001676500515 0.0364813618 0)
(-0.001337255703 0.03639739993 0)
(-0.001332779016 0.03647905863 0)
(-0.001418372864 0.0364796204 0)
(-0.001421885209 0.03639789327 0)
(-0.001320184622 0.0367245602 0)
(-0.001408281153 0.03672526321 0)
(-0.001411616867 0.03664327519 0)
(-0.001324358203 0.03664260911 0)
(-0.00132135422 0.03541013973 0)
(-0.001316148299 0.03549193027 0)
(-0.001396194977 0.0354925871 0)
(-0.001400851441 0.0354107771 0)
(-0.00130088665 0.03573244976 0)
(-0.001392276492 0.03573871977 0)
(-0.001389615961 0.03565645698 0)
(-0.001305798079 0.03565503855 0)
(-0.001674933792 0.03574200716 0)
(-0.001674334875 0.03565986697 0)
(-0.001581073032 0.03565883446 0)
(-0.001582628774 0.03574102775 0)
(-0.001667391418 0.03771347917 0)
(-0.001581329022 0.03771289856 0)
(-0.001581994643 0.03779510032 0)
(-0.001667457203 0.03779566109 0)
(-0.001331820668 0.03771160463 0)
(-0.001334874479 0.03779394676 0)
(-0.00141507074 0.03779420779 0)
(-0.00141215726 0.037711882 0)
(-0.001413671718 0.03795848361 0)
(-0.001331583178 0.03795811653 0)
(-0.001316010923 0.03680652655 0)
(-0.001404951313 0.03680728181 0)
(-0.001303468223 0.03705245599 0)
(-0.00139498152 0.03705335302 0)
(-0.001398291515 0.03697133427 0)
(-0.001307651081 0.0369704897 0)
(-0.001669385661 0.0370560278 0)
(-0.001670391429 0.03697386933 0)
(-0.00158123121 0.03697311239 0)
(-0.001579720372 0.03705523648 0)
(-0.001684042727 0.03508551084 0)
(-0.001596217929 0.0350848099 0)
(-0.001593483228 0.03516686357 0)
(-0.001682304543 0.03516761792 0)
(-0.001343200842 0.03508297011 0)
(-0.001337740923 0.03516483505 0)
(-0.001415801022 0.03516533931 0)
(-0.001420816819 0.03508345572 0)
(-0.001405777646 0.03532903023 0)
(-0.001326809455 0.0353284885 0)
(-0.001386668929 0.03442992684 0)
(-0.001454376742 0.03442881013 0)
(-0.001444865294 0.03434603704 0)
(-0.001392116555 0.03435467235 0)
(-0.001692282796 0.03442903842 0)
(-0.001689140327 0.03434671088 0)
(-0.001603366224 0.03434616299 0)
(-0.00160948263 0.03442869644 0)
(-0.0009462793537 0.04362781518 0)
(-0.0008771052978 0.04362881383 0)
(-0.0008709253735 0.04371000153 0)
(-0.0009453771727 0.04371020344 0)
(-0.0009364897968 0.04354447509 0)
(-0.0008827221075 0.04355299576 0)
(-0.0009057685384 0.04563064706 0)
(-0.000818562606 0.04563087296 0)
(-0.0008161627075 0.04571786649 0)
(-0.0009035856844 0.04571740713 0)
(-0.0006401303447 0.04572040817 0)
(-0.0006452633618 0.0456345683 0)
(-0.0006284618774 0.04598901061 0)
(-0.0006341438162 0.04589786044 0)
(-0.0006500411018 0.04554887076 0)
(-0.0005868647376 0.04555915469 0)
(-0.000907448047 0.04554362666 0)
(-0.0008198295844 0.0455442952 0)
(-0.0009009824409 0.04428543981 0)
(-0.000819895324 0.04428468344 0)
(-0.0008111934758 0.04436605036 0)
(-0.0008953912581 0.04436770068 0)
(-0.0009079326548 0.04420334198 0)
(-0.0008281303485 0.04420267175 0)
(-0.0009936828582 0.04428662071 0)
(-0.0009985753264 0.04420429343 0)
(-0.001268657748 0.04428992579 0)
(-0.001269899987 0.04420718898 0)
(-0.001180766302 0.04420635592 0)
(-0.001178852944 0.04428901127 0)
(-0.001274054534 0.04395953143 0)
(-0.001187424361 0.04395893121 0)
(-0.001185210264 0.04404158427 0)
(-0.001272664216 0.04404226711 0)
(-0.001266826156 0.04462146947 0)
(-0.00126691451 0.04453869485 0)
(-0.001177730972 0.0445379927 0)
(-0.001178589294 0.04462115011 0)
(-0.001177544129 0.0443718697 0)
(-0.001267683024 0.0443728173 0)
(-0.0009903259236 0.0443691887 0)
(-0.001023694962 0.04362774965 0)
(-0.001013739123 0.04354439302 0)
(-0.001276357844 0.04362899133 0)
(-0.001275113143 0.0435462508 0)
(-0.001186769302 0.0435455459 0)
(-0.001190008332 0.04362842378 0)
(-0.001271439997 0.04329824343 0)
(-0.001177367765 0.0432971742 0)
(-0.001178915303 0.04337964223 0)
(-0.001271986555 0.04338064275 0)
(-0.0012753334 0.04387659643 0)
(-0.001189415914 0.04387603219 0)
(-0.001191295883 0.0437109509 0)
(-0.001276749634 0.0437114658 0)
(-0.001025583759 0.04371031189 0)
(-0.0009059985117 0.04495232007 0)
(-0.000997464764 0.0449533801 0)
(-0.001000823412 0.0448699877 0)
(-0.0009119539679 0.04486933833 0)
(-0.001264049415 0.04495463033 0)
(-0.001265028031 0.04487102894 0)
(-0.001177695461 0.04487044473 0)
(-0.001176406748 0.04495406971 0)
(-0.001179074567 0.04470417796 0)
(-0.001266477535 0.04470453981 0)
(-0.0008140955947 0.04495086435 0)
(-0.0008086971709 0.04503367325 0)
(-0.0009027953088 0.04503554877 0)
(-0.0008238453747 0.04486861538 0)
(-0.000982397716 0.04165260718 0)
(-0.001055962097 0.0416528634 0)
(-0.001054589173 0.04157032036 0)
(-0.000986168999 0.04157095836 0)
(-0.00129608246 0.04165381086 0)
(-0.001294135187 0.04157130924 0)
(-0.00121060483 0.04157082429 0)
(-0.001213910424 0.04165338207 0)
(-0.001281333875 0.04132411767 0)
(-0.001185830873 0.04132308332 0)
(-0.001193509568 0.04140555235 0)
(-0.001285401694 0.04140642174 0)
(-0.001293152418 0.04198225462 0)
(-0.001294453647 0.04190019001 0)
(-0.00121141462 0.04189973934 0)
(-0.001209492417 0.04198175341 0)
(-0.001214243841 0.04173570344 0)
(-0.001296309132 0.04173611614 0)
(-0.0009784135603 0.04173474292 0)
(-0.001053716384 0.0417350582 0)
(-0.001281838029 0.04099547218 0)
(-0.001283727229 0.04091338152 0)
(-0.001189220862 0.04091238531 0)
(-0.001186537948 0.04099445465 0)
(-0.001289840271 0.04066755568 0)
(-0.001197756027 0.04066665429 0)