/*--------------------------------*- C++ -*----------------------------------*\
| =========                 |                                                 |
| \\      /  F ield         | OpenFOAM: The Open Source CFD Toolbox           |
|  \\    /   O peration     | Version:  v2012                                 |
|   \\  /    A nd           | Website:  www.openfoam.com                      |
|    \\/     M anipulation  |                                                 |
\*---------------------------------------------------------------------------*/
FoamFile
{
    version     2.0;
    format      ascii;
    class       surfaceScalarField;
    location    "2.13";
    object      phi;
}
// * * * * * * * * * * * * * * * * * * * * * * * * * * * * * * * * * * * * * //

dimensions      [0 3 -1 0 0 0 0];
oriented        oriented;


internalField   nonuniform List<scalar> 
5999
(
0.0004231528549
0.9162268471
0.0005142290934
0.9166089238
0.000592924885
0.9165713042
0.0002901295557
0.9165996009
0.0003531944129
0.4583383521
0.0003017775059
0.4583094714
0.0003713284454
-0.0003807997962
-0.0004727003918
0.4582856083
0.0005370921308
-0.0005993186695
0.4582334792
0.0007008394571
-0.0008124244499
0.4582079385
0.0009344859291
-0.001076172098
0.4581805179
0.001230654165
-0.001389360152
0.4581737081
0.001550652064
-0.001711315747
0.4581973937
0.001845422028
0.001161830616
0.9150650165
0.001824472454
0.9159462819
0.002043374535
0.9163524021
0.0005537367219
0.9171643345
0.0009249042783
0.4580887169
0.0006672306665
-0.4582022109
-0.4581863865
-0.0008260472265
0.4579853798
0.001027054002
-0.4580404164
-0.001278205389
0.4577351367
0.0007454544707
0.0008380306676
-0.2289575222
-0.0009130822233
0.2288759017
0.0009947027167
-0.001350536831
-0.2288908615
0.2287816795
0.001459718781
-0.00191820962
-0.2288287548
0.2286831196
0.002063844877
-0.002608013985
-0.2288022001
0.2286367138
0.002773500279
-0.003320878883
-0.228842701
0.2287441945
0.003419345716
0.001460923201
0.9136040933
0.003948583105
0.913458622
0.006698246875
0.9136027384
0.002712029574
0.9150058006
0.006144751124
-0.458052166
0.4578961292
0.00286806639
-0.4578132602
-0.002834556966
0.4584772493
0.002170567897
-0.4573208775
-0.002237826561
0.4571042167
0.001189394455
0.001265092966
-0.2284808229
-0.001491266498
0.2283097009
0.001662388514
-0.228231176
-0.002283250633
0.2279874088
0.002527017749
-0.2280570906
-0.002481278136
0.232356125
-0.001823023552
-0.2361627882
0.01664049514
0.2402126268
-0.02071448751
-0.2346420294
0.02964428225
0.2364430752
-0.03146324998
0.0004438631582
0.9131602302
0.0009831781062
0.9129193071
0.002119776283
0.9124661402
0.003024936562
0.9121301658
0.001970474536
-0.4571615215
0.4567604398
0.003426018247
-0.4600417648
-0.004607326994
0.4570220701
0.007627021735
-0.4586043101
-0.008856815292
0.4601901601
0.001955364043
0.00531560123
-0.2276838053
-0.001924573657
0.2274897901
0.002118588864
-0.2295710025
-0.0012135143
0.2352684711
-0.004497249347
-0.2483995392
0.02090887002
0.2530992715
-0.02566799396
-0.2505376536
0.03666063837
0.2529392829
-0.03912551536
-0.2402523749
0.0432703014
0.2407289464
-0.04378236407
4.169790952e-05
0.9131185323
0.0001367380001
0.912824267
0.0003873418713
0.9122155363
0.001077677396
0.9111780695
0.0002617607751
-0.4565187447
0.4557380101
0.001858412021
-0.4556269796
-0.002255301819
0.4550297377
0.002852543722
-0.4541361281
-0.003681111596
0.4533993934
0.002355707841
0.002062138447
-0.2281615576
-0.004165134943
0.226914985
0.005410751441
-0.2516828653
0.005121926048
0.2582926733
-0.01180368265
-0.2636207251
0.02628606165
0.2657705885
-0.02854132548
-0.2556004103
0.03052998073
0.2547462617
-0.02976089682
-0.2387558092
0.02472378133
0.2367333523
-0.02274064679
-0.000250629857
0.9133691621
-0.0004024370639
0.9129760742
-0.0003085018278
0.9121216011
2.862462668e-05
0.9108400084
9.346378072e-07
-0.4548910579
0.4546108682
0.0003088143157
-0.4545531512
-0.001240410413
0.4538196739
0.001973887783
-0.4526155813
-0.002488802581
0.4516379077
0.001704248696
0.001762227505
-0.2369753293
0.0009299688975
0.2402582471
-0.004250785223
-0.2640997257
0.01302997261
0.2661305487
-0.01517881382
-0.2673812214
0.01584668399
0.2649726034
-0.01356852103
-0.246192575
0.002616205405
0.2459725229
-0.002472745907
-0.2259556695
-0.01402480505
0.2218321369
0.01812972091
-0.0006761762988
0.9140453384
-0.001219724513
0.9135196224
-0.001605067526
0.9125069441
-0.0003321348988
0.9106523299
-0.001085254087
-0.4545124491
0.4542374617
-5.714750189e-05
-0.4528020649
-0.0001470523429
0.4524623258
0.0004867914478
-0.4512866923
-0.001431616188
0.4510931756
0.0008582721204
0.0007662743802
-0.2466763162
0.002848096837
0.2483969752
-0.004640332355
-0.2719989599
0.008450316451
0.2683536918
-0.004953023672
-0.2592901632
0.003726526759
0.2572913202
-0.001856579505
-0.2271533106
-0.009016860588
0.2204489388
0.01567714308
-0.2092848847
-0.03594051798
0.1062869931
0.1005397882
0.01704187276
0.02135674856
-0.001119431711
0.9151647702
-0.002181834947
0.9145820257
-0.003041000874
0.91336611
-0.001621233033
0.911430669
-0.002198106897
-0.4542434139
0.4542790758
-0.001656894987
-0.4523262749
0.001741433424
0.4522572499
-0.001672408374
-0.4504132046
0.001531823995
0.4509941296
-0.0007381281051
-0.001383100001
-0.2506321297
0.0006002058509
0.2504744775
-0.0005314122292
-0.2673841836
-0.0003529755999
0.2668401803
0.0007410228348
-0.2510576433
-0.003283956086
0.2496975181
0.004519902721
-0.2089345951
-0.009064022894
0.2072052901
0.01077856524
-0.09357312008
-0.007064819758
0.09352750936
0.00711043048
-0.001555748767
0.9167205189
-0.003035803846
0.9160620807
-0.004578304357
0.9149086106
-0.002692939638
0.9128072935
-0.003261989256
-0.4545202267
0.4547515163
-0.002924229171
-0.4523658535
0.003186178854
0.4526082154
-0.003428540757
-0.4513225856
0.003645296655
0.451963825
-0.002060832553
-0.002243815401
-0.25091028
0.002674226954
0.2507708103
-0.002637934347
-0.2642598556
0.001594839596
0.2634887122
-0.0009919618234
-0.2460069644
-0.001082378365
0.2452573003
0.001706060148
-0.2060029069
-0.002647282574
0.2063342782
0.002309128053
-0.09716548062
0.0005523564096
0.09771776991
-0.001104645704
-0.001954731364
0.9186752503
-0.004016451962
0.9181238014
-0.006006509848
0.9168986684
-0.003761018282
0.9149024026
-0.004340600658
-0.4551939837
0.4556315991
-0.004198633677
-0.4529358989
0.004695206931
0.4534957533
-0.005255061281
-0.4527348039
0.005783836219
0.4539213853
-0.003296485053
-0.003702383537
-0.2503235307
0.004041288452
0.2502591221
-0.004091436513
-0.2615239524
0.003507712109
0.2609773275
-0.003140979767
-0.243753034
0.001983145363
0.2433594417
-0.001719959686
-0.2079215102
0.001786929884
0.2084866167
-0.002356074093
-0.1003446723
0.002491390564
0.1006101623
-0.001363549672
-0.001393330887
-0.002437648567
0.9211128989
-0.004861089464
0.9205472423
-0.00741718865
0.9194547676
-0.004796822787
0.9176390372
-0.005357000498
-0.4562670762
0.4568988899
-0.005428636423
-0.4541325952
0.006192685192
0.4548388442
-0.006898934217
-0.4554787854
0.007710863953
0.4573274408
-0.00469591865
-0.004907327959
-0.2501936558
0.00533506228
0.2502066747
-0.005475581203
-0.2595695393
0.005261999072
0.2591651203
-0.005049648732
-0.2424599433
0.004439328569
0.2422346332
-0.004348029785
-0.2102710201
0.004756856229
0.2108958276
-0.005383268735
-0.1021542289
0.003726082179
0.1023274255
-0.001934876385
-0.001964402475
-0.002877426057
-0.005769449448
-0.008780906543
-0.005737099763
-0.4576960172
-0.006519107369
-0.4557524242
0.007420462385
-0.008382695468
-0.4592432799
0.009425969121
-0.005743518555
-0.005253046076
-0.2503393452
0.006557954644
0.2504314434
-0.00679180089
-0.2581080962
0.006860446132
0.2577995037
-0.006756154224
-0.241725596
0.006429558026
0.241585477
-0.006425817952
-0.212947291
0.007041683678
0.2137159381
-0.007810491413
-0.1034534855
0.004997750628
0.1036211316
-0.002563115139
-0.002602281625
0.000124893667
-0.0007287494257
-0.09656162486
0.00231475734
-0.1000643759
-0.001283959005
-0.001311094738
0.003583322574
-0.1019682186
-0.00187287959
-0.001896453239
0.00482479128
-0.1032903847
-0.002475905388
-0.002511986695
-0.008713422418
0.00914016931
-0.09399986698
0.0008370684788
-0.001419506105
-0.2073437538
0.1007118107
-0.1004312182
0.002034164834
-0.0977884888
7.930797909e-05
0.09826153724
0.004093442387
-0.004704466117
-0.2096621231
0.1025126129
-0.102319359
0.003390068735
0.002230060851
0.1009731404
0.1013386054
0.002990836189
-0.101112053
-0.00159814217
-0.001619246438
0.05034616084
-0.001078780539
-0.05010950577
0.001995837151
-0.001153711683
-0.04962337412
-0.0008653545988
0.001681657911
0.04966048296
-0.0008534121491
0.006518556587
-0.007241950032
-0.2122243657
0.1038928057
-0.1037189269
0.004650912496
0.003544956403
0.1026937386
0.1028209764
0.004170863272
-0.1026591475
-0.002150720913
-0.002181971267
0.02552537368
-0.001047447126
-0.02559367579
0.001115749235
-0.05030627951
-0.001025415603
0.002126480293
0.05031138471
-0.001106169888
0.004815621104
0.1040749352
0.05215029358
0.00278890715
-0.002844232016
-0.05209496872
0.02720119672
-0.002058710287
-0.02695627664
0.001813790204
-0.02643864422
-0.001046478059
0.001210131418
0.02627499086
-0.04490609166
0.001241738993
0.04548315366
-0.000917616882
-0.0009011841146
0.04823166444
0.001690819109
-0.04787096044
-0.00109741209
-0.0009541110112
-0.004144381638
-0.04139996096
0.04144862208
0.004095720521
0.0009886822451
-0.001580914988
-0.04431385892
-0.000830880608
-0.04958019062
0.001642608065
-0.0008549109497
-0.001531274648
-0.04896448949
0.00145872099
0.04903704314
-0.09906042452
0.001698730888
0.09942738496
-0.002065691323
-0.04879576819
0.04882123517
-0.0007448150713
-0.0008119265557
0.02489488944
-0.0008356315148
-0.02489013853
0.001631981713
0.04842562984
-0.00099506135
-0.0008308857636
0.001506458207
-0.04877093017
-0.00074808026
-0.0007832159692
-0.001031160037
-0.05034539299
0.002074556534
-0.001004283016
-0.001138592928
0.001980821473
0.05047606497
-0.0009721326705
0.003142774235
0.1015637521
-0.001672038912
-0.00169588204
-0.02551998649
0.02558046368
-0.001199070116
0.02496409957
-0.0009693907559
-0.02502586885
0.02487584437
-0.0008463095293
-0.001288162445
-0.02531060459
-0.001087327377
-0.02657270771
0.001221390867
-0.001056507148
0.001133275997
0.02544860483
0.004327090196
0.1029787591
-0.002224595177
-0.002260277758
-0.02572012636
0.02557264628
-0.0009090270603
0.02704981184
-0.0008470309327
-0.02729010828
0.02493671494
-0.0009980309795
-0.0009014075692
-0.02586616592
-0.001494265089
0.001550236634
0.02714522518
-0.002890528625
-0.02772033238
0.02752381731
-0.001297750015
0.026778383
-0.0007750492208
-0.002299408811
-0.02747963386
-0.004053792451
0.003993089564
-0.2059501088
-0.0972912206
-0.0003723745366
-0.0952451262
-0.006909751751
0.09509005819
0.09462657303
-0.002817588797
0.002233714801
-0.09404269903
0.04517769719
-0.04468090964
0.0004918946902
-0.04228949891
-0.004194958043
0.04234007532
0.001465659604
-0.001866842902
-0.09865924122
-0.04890229412
0.001444262845
-0.04804240783
0.001418340286
0.04825604926
-0.04776787692
0.001416288195
0.0007770223275
0.04564241386
-0.001777462193
0.09525944876
0.001144586468
-0.02093684308
-2.994312109e-06
0.02081873327
0.0001211041289
-0.002663426758
-0.01710565205
0.01698093383
0.002788144988
0.001719612147
0.0196261514
-0.001923655983
-0.01942210756
-0.02657361154
-0.09613344959
0.04706755444
0.04564327488
0.01498951232
0.01500671949
-0.005101924521
0.005827232488
-0.04212526892
-0.001167667029
-0.02505215121
0.001319754591
0.02490006365
-0.05136061732
0.002826182503
0.05138826937
-0.002853834551
0.05151589869
0.002976729075
-0.003017805998
-0.05147482177
0.00526641315
-0.02029448256
0.02866240044
-0.01363433103
-7.236753855e-05
-0.02103253454
0.0001680589984
0.04674962605
0.001559229763
-0.04639179175
-0.0009611996642
-0.000955864397
0.02313507531
-0.02346798951
0.0002605466705
-0.02223897403
0.00357251452
0.02393287266
0.02337578826
-0.02549948141
0.002143970752
-2.027760522e-05
0.0003349202012
0.02279716079
0.001611350717
0.04707784256
-0.0009603496771
-0.0009792175394
0.04245105434
-0.001200966438
0.0006212023909
-0.04187129029
0.02009397617
-0.0196586259
0.001284261883
-0.0182402195
-0.002230109853
0.01780690259
-0.003673650084
-0.02147879004
0.002913466098
-0.002377279113
0.001720507259
0.02075074802
-0.0003856341253
0.04308176948
-0.0002450810205
0.02021545499
-0.002966582698
-0.003603253056
-0.02036487959
0.02482725532
0.0008189241649
-0.0009141125044
-0.02473206698
-0.02141649043
9.443654557e-05
0.02134345603
-2.140214051e-05
0.0008536742349
0.02486649812
-0.0008929170298
0.04865888837
0.00153110604
-0.04860068628
-0.0008227625113
-0.0007665456173
0.02192997145
-0.0219723344
9.26603143e-05
-5.029736399e-05
0.000703821748
0.02264076797
3.119854293e-05
-0.02148159886
9.585660219e-05
-3.07481737e-05
9.747262017e-05
0.0218644313
-3.193247443e-05
0.001516754628
0.04870831802
-0.0008001890849
-0.0007659951876
0.02542363764
0.0009365363226
-0.0009143371344
-0.02544583683
0.001006615632
0.02534225066
-0.0009252286563
0.02480924156
0.0009213078795
-0.0009118548146
-0.02481869462
0.0009274189596
0.02480525643
-0.0009234338356
0.02482370235
0.001366715247
-0.001425626554
-0.02476479104
0.001619113166
0.02513654959
-0.001931960408
0.02654326459
0.001283965843
-0.001498153781
-0.02632907665
0.001175370871
0.02659395363
-0.001226059911
0.003019746477
-0.003052571409
0.02478169895
0.001113617862
-0.0008305849385
-0.02506473187
0.0245183926
-0.0009043606797
-0.04389927769
-0.01615025341
0.04007939192
-0.00379324327
0.003909241486
-0.01722165027
-0.02590556433
0.001142714107
0.0259382211
-0.05090477536
0.002142921783
0.05093909748
-0.0021772439
0.05102372325
0.002250520521
-0.002278099637
-0.05099614413
-0.05075287503
0.002018150291
0.05079297719
-0.002058252455
0.002116237019
-0.002152108472
-0.05086890391
-0.02579019208
0.001168593592
-0.05128045513
0.002628149812
0.0513021678
-0.002649862477
0.002770140036
-0.002788472731
-0.05134228462
-0.025220103
0.001281569651
-0.05044761535
-0.0009577960131
0.001997489729
0.05041453726
-0.0505807491
0.001893949818
0.05062761431
-0.001940815024
0.001984306142
-0.002025787848
-0.05071139332
0.0241152083
-0.0003482364249
-0.02439447886
0.0006275069887
-0.0003367130245
-0.02519345434
0.0006001914992
0.02492997587
-0.02519201762
0.001004077454
0.02513107343
-0.0009431332636
-0.02513341393
0.001422840068
0.02532968702
-0.05113503215
0.002476213147
0.05115952003
-0.002500701026
0.002584561442
-0.002610623526
-0.05125439305
0.002289191866
0.05105103733
-0.002316505951
0.002413670205
-0.002442391348
-0.051106311
-0.02507516732
0.001308468647
0.02512031354
0.001080292714
-0.0009273185839
-0.02527328767
0.02456807811
-9.148606416e-05
-0.02484450918
0.0003679171284
-0.02557547687
-0.0001414634635
0.0003868814014
0.02533005893
0.02290348211
-0.02305648271
0.0001696293608
-1.662876309e-05
-0.02644121164
0.002267616719
0.02415575152
1.784340577e-05
-0.02717957658
0.00165823859
0.02746807989
-0.001946741901
0.02517168371
0.00128908344
-0.001475398876
-0.02498536828
0.02333693607
-0.00219317565
-0.02329191064
0.002148150226
-0.0004065977759
0.0006944569986
0.02382734907
-0.0001337257644
-0.02582250508
0.0003807539734
-0.0001181440876
-0.0265685933
0.0003700870677
0.02631665032
-0.02629731822
0.001029183884
0.02615556304
-0.0008874287115
0.0259255407
0.001046012066
-0.0007600070373
-0.02621154573
0.02240368611
-0.02252284712
0.0001056779248
1.348308358e-05
0.0001031329337
0.02275996802
4.038115332e-05
-0.01949947403
0.004445158576
0.0150080353
4.628014979e-05
-0.02447872827
0.002598689493
0.02536455623
-0.003484517453
0.01885209467
0.001310989849
-0.020259315
9.623048696e-05
0.004214317411
0.01454804259
8.973466427e-05
0.01770402649
-0.0002635663896
-8.628260154e-05
-0.01735417749
0.0003753945795
0.01822929774
-0.0009006658287
0.02145228527
0.0005609871445
-0.02216730624
0.0001540338239
0.0001192420888
0.02122179515
0.0001112480421
-0.0245700744
0.0005390326359
0.02415028386
-0.02375149703
0.001091244105
0.02371237552
-0.001052122591
0.02339360204
0.001013652355
-0.0008986476327
-0.02350860676
-0.02267115864
0.001368227183
0.02310378026
-0.001800848802
0.001170245901
-0.001232151728
-0.0236895912
-0.02501609149
0.001007004228
-0.0211572059
0.004209062791
0.02116246052
-0.02364508789
0.001628036384
0.02425719715
-0.002240145641
0.02600471459
0.001364547379
-0.001692990165
-0.02567627181
0.00102857464
0.02329789021
-0.0009328628161
0.00141263489
-0.001725883809
-0.02333183897
-0.02186387625
0.002017660198
-0.0008274552899
-0.02236875318
0.00115005651
0.02204615197
-0.02166523607
0.0009754233067
0.02180251831
-0.001112705548
0.001262636688
-0.001684140891
-0.02224965444
0.02246926363
0.001509433722
-0.001370959223
-0.02260773813
0.02186577862
-0.0002239702804
-0.02059281546
0.001449128986
0.01914780602
-4.11955142e-06
-0.02319872207
0.001575369293
0.02359608515
-0.001972732369
0.02701002242
0.002180262972
-0.003209415078
-0.02598087031
-0.02355434508
0.0006519718777
0.02339546613
-0.0004930929228
0.001086024822
-0.001131650588
-0.02315309631
-0.02106414468
0.0004340692433
3.725998165e-05
-0.0269958408
0.0005283267423
0.02678240605
-0.0003148919868
0.02613455996
0.0005027461049
-0.0002827769279
-0.02635452914
0.001618210871
0.02740592548
-0.002014113931
0.0005887199649
-0.0003794651512
-0.02720509562
-0.02219333429
7.933777133e-05
0.02214122639
-2.722986957e-05
-0.02561560339
0.0006910953283
0.02543382943
-0.000509321365
0.02489677404
0.0006621091781
-0.0004889823425
-0.02506990088
0.001082340046
0.02605359016
-0.001131215613
0.0007160065268
-0.0005388629756
-0.02579274694
-0.02226528945
8.247114277e-05
-1.051598305e-05
-0.02167556614
4.617064178e-05
0.02159080492
3.85905745e-05
-0.02421886694
0.0006334963826
0.0240472975
-0.0004619269436
0.0006389108886
-0.0004769812322
-0.02371627474
0.0006582765885
0.02472715964
-0.0004886621839
0.000637686783
-0.0004662301074
-0.02439032362
-0.02175416123
5.382781979e-05
2.476727028e-05
-0.02676460394
0.0003543201699
0.02652932634
-0.0001190425633
0.02584109488
0.0003033624759
-7.254795682e-05
-0.0260719094
-0.02764380845
0.002095729451
0.02773616475
-0.002188085749
0.0004273235715
-0.0001564263029
-0.02703550121
-0.02493330629
0.02471037727
-0.0001137840114
0.02400153331
-9.541882385e-05
-0.02425435091
0.0003041338141
0.02560962239
-7.266132542e-05
0.000332722439
-0.0001108527086
-0.02515517602
-0.02515722908
0.0005090027448
0.02490611745
-0.0002578911148
0.02414117357
0.0005352893819
-0.0002771702681
-0.02439929268
0.0004940470373
0.0258955386
-0.0002550256745
0.0005023447291
-0.0002538695582
-0.02540570425
-0.02310342733
0.00207655034
0.02316115791
-0.002134280921
0.003330888329
-0.004610912717
-0.02636378406
0.0005611360886
0.02387933032
-0.0002992928426
0.001232170394
-0.001002425304
-0.02333317242
-0.0004999215557
0.02293873673
-0.02354313373
0.001104318556
-8.881310248e-05
0.0003780735396
0.02427881768
0.001096063979
0.02497201187
-0.0009477623172
-0.02207769352
0.02195801046
3.08699492e-05
0.0210916003
-0.02159706788
5.546026804e-06
-0.02248599315
0.02238273661
-3.820692198e-05
-0.02220455408
3.53745034e-05
0.001510613317
0.01958934285
-8.355868789e-06
0.001919764806
-0.002552094409
-0.02654724697
-0.03116143841
0.004739382877
-1.915610196e-05
0.002254996669
0.02219435338
-0.002241282185
0.0278814054
-0.02780132041
0.002161197203
-0.004513095633
0.003354308084
0.02449572362
0.00142469311
0.02547370381
-0.001726713206
-0.02206543284
0.02206903989
-0.004516702677
0.02421471747
-0.0264558687
-1.309478105e-07
0.02371495701
-0.0001200214809
-0.001486765302
-0.02277184319
-0.02289477858
0.02279073714
-1.410264991e-05
-0.02258834827
-3.137064356e-05
0.0007830729746
0.02343645402
-4.809528039e-06
0.0001246641522
-0.02300696633
-1.247639763e-05
0.001030513442
-0.0008983299827
-0.02642950168
-0.02683324668
0.0003893175319
0.001163190212
0.02750128816
0.0219010074
-0.02203511614
0.0001560760935
-2.196734646e-05
0.0001168039317
0.02228632098
5.611971579e-07
0.00105722297
0.02563815419
-0.0007698364574
0.002050547891
-0.002304780332
-0.02422449582
-0.02102669133
0.001456645762
7.057153854e-05
0.0001943982148
0.02174573212
-3.912293486e-05
-0.04978522704
-0.0009548366932
0.001831582153
0.04983590054
-0.05012431062
0.001645426957
0.05018605256
-0.001707168893
0.05037672503
0.001744402276
-0.001806365268
-0.05031476203
0.001489784405
-0.04986094391
0.04992953681
-0.001558377299
0.001604982388
-0.001672177255
-0.05005711575
-0.0009146284911
-0.04974290968
0.001793619008
0.001776219929
0.05043657409
-0.001836068987
0.001868867534
-0.001913305962
-0.05053631067
-0.001011147106
-0.05047466127
0.001974729346
0.02563601768
0.0009169159931
-0.0009369414801
-0.02561599219
0.02731923214
-0.02757327467
0.0006813661005
-0.02751658637
0.001743665306
0.02786865052
-0.02651507493
0.002329376886
-0.02382756342
0.001716212118
0.02418790165
-0.02486085088
0.001048680232
0.02496963977
-0.001157469122
0.0001667963882
0.02070647599
-5.45391112e-05
0.02427766183
0.004217438119
0.0001673004908
-0.01399129066
0.0003569596298
-7.83776522e-05
-0.02114313796
0.0001889810677
0.0002637766668
-0.02381014383
0.02365706156
-0.02403739141
0.0006441065249
0.0232837473
0.0006338609281
0.004494727804
-0.02997976639
-1.444282137e-05
0.02655124919
-0.025297236
0.003240714614
0.02665885784
0.002036362106
0.02292665364
0.0006920138581
-0.0005326140111
0.02259573786
0.0008635297904
0.02243134317
-0.02057419231
0.00049427726
0.02084053031
-0.0007606152586
0.0008178455737
-0.001070124922
-0.02141295672
-0.022305673
0.001446353539
-0.004306181771
0.02162864664
0.002892990122
-0.01863300938
0.02623169753
-0.01190486991
-0.002820576883
-0.0187790152
-0.01786590551
0.0002713617981
0.0009298444485
-0.01909724252
0.0003014925588
-0.0211482861
0.001713250957
0.01479942645
-0.01473121192
-6.821452828e-05
0.03045040534
-0.02146677281
0.00581579392
0.02594094154
0.004520369085
-1.090528361e-05
0.0230805199
-0.02326914169
0.0002830583352
-0.0001096794886
0.02285892709
0.0003312722964
0.02125823942
-2.446288185e-05
0.02247292756
-0.02253774009
0.0001151781574
-5.036563093e-05
0.02242721552
0.0001053298278
-5.96177855e-05
0.0237982945
0.002159536363
-1.688932897e-05
0.02307154564
0.0007489336917
-2.218482501e-05
4.260825608e-05
-0.02206585971
5.091705696e-05
0.02487881661
-0.02508765545
0.000251447096
0.02470113531
0.0002703416149
0.02630795378
0.001054725811
-0.0002167885369
0.0259671325
0.0005576098172
0.02238601867
3.796076399e-05
9.94980574e-05
-0.02153517084
-4.592608234e-05
0.02344390465
-0.02361201006
0.000267603468
0.0002706195696
0.0245235004
0.0002751075283
-0.0001002124163
0.02434971459
0.0002739982308
0.02180673132
-4.251243797e-05
0.02626035144
-0.02653001202
0.0005730230578
0.0006137189715
0.02705983334
0.001023156586
0.02554320192
-0.0009303408237
0.0009820165419
-0.0009361868175
-0.02523784734
-0.02545622118
0.00059548927
0.0005743857304
0.02599009952
0.02433895209
-0.02454305765
0.0007393949419
-0.02515117183
0.0007102525006
0.02494992208
-0.0248539517
0.0009002879868
0.0248376707
-0.0008840069831
0.02189139379
-0.02196567607
5.496979745e-05
1.931247524e-05
0.02181140515
5.750103298e-05
2.248761047e-05
0.02232465581
4.104616789e-05
6.151354358e-05
0.02225100657
4.134786146e-05
3.230137788e-05
-0.01499986458
0.01496901699
3.08475933e-05
0.02172645717
6.764309543e-05
1.730488561e-05
9.471846401e-05
0.02161923507
1.250363308e-05
0.001008754176
-0.001053273573
-0.02481633148
-0.02381805511
0.001222662078
0.0007616126216
0.02413847556
0.0003864426904
-0.0001443060124
-0.02508664585
0.02510926283
0.0006807654002
-0.02540358554
0.0247986723
0.0006785076591
0.0003057972834
-0.02335332127
-8.958721028e-06
0.02706175899
-0.02747389598
0.0007179342772
0.0267219048
0.0005094835543
0.02790238932
-0.02787569935
0.002240926745
-0.0007988625828
0.001227355921
3.567664889e-06
0.0231026528
-0.02393083523
0.0008245119365
3.670494325e-06
0.0003417033716
-1.906567414e-05
9.828888001e-05
-0.02263980267
1.866667633e-05
0.02579254551
-0.0260943019
0.0004000452757
0.02549170467
0.0004065187654
0.02640079328
0.0004242444514
-9.504793658e-05
0.0004015393114
2.511741629e-05
0.02623119827
-0.03097211942
0.004732179515
8.741630648e-06
0.002290138314
1.022472918e-05
0.02200196263
-0.0220731457
0.004516341652
-0.01497596356
0.006005806771
3.207174754e-05
0.0003946239768
5.253701489e-05
0.01452189693
2.61456584e-05
0.01580839215
-0.0002737121978
-0.01516743481
0.01610819785
0.0004725341285
0.01905044213
-0.02266287214
0.002476345947
0.01661717304
0.001585336276
0.0008479328103
0.01619493846
0.001424686762
-0.0091248112
0.002656877528
0.001936450378
0.0001739052118
8.318030807e-06
7.033915727e-05
0.02335830293
-0.02230462692
0.003155386778
-0.005704591068
0.003765657997
0.0009620908962
0.02231163465
0.001246194113
0.002024667925
-0.02226773935
0.02025106412
0.0006457160041
0.003517855099
0.0004461030812
0.002538763609
0.01297177355
0.0008248226112
0.001066903638
-0.0001443218732
0.0008618144022
-0.01954916555
0.0003076011646
0.0004779282883
0.02138198542
-0.02201508887
0.002082232435
-0.004464876704
0.00438008932
-4.828259969e-05
0.0001582145189
3.588022505e-05
0.02252961208
0.0004875295292
0.0009485924517
0.02261338503
-0.02269840292
0.0001150946097
-3.007672035e-05
0.000111809422
-3.616448354e-05
0.02281982232
0.000268233428
-1.65101078e-05
0.000144218858
-2.279945623e-05
0.02529245442
-0.02548785587
0.0002747392199
-5.105976666e-05
0.0002558587387
2.430691501e-05
9.864271667e-05
2.208650736e-05
0.02570346022
0.0003623149908
0.0002980754991
0.0237870955
-0.02398269009
0.0002417652257
-8.108249921e-05
0.0002561679375
-2.544841275e-05
8.98732327e-05
-3.730313606e-05
0.02417509334
0.000264494484
0.0002462310703
-0.0001001629535
0.0263043745
0.0003251147916
-0.02287804677
0.02279547504
-1.759121826e-05
-0.02297366049
-2.342884776e-05
-0.02270033375
0.0226129486
1.483719586e-05
7.533219597e-05
1.980908626e-05
0.0003077972998
-0.0007509391441
0.02737427283
0.001112831063
-0.02412986199
0.02336300241
1.592043186e-05
-0.02634957442
3.162668415e-05
-0.02310734797
-2.273881675e-05
0.0002856220928
-2.996765543e-05
0.0006243937108
-0.0001145323905
0.02448612494
0.0003387847264
-0.02217659327
0.02209194913
-2.988824397e-05
-0.02226513644
-2.524084556e-05
-0.02200229343
0.02189361898
1.32556292e-05
0.000106280521
-1.662482373e-05
0.0003380545526
-7.81480338e-05
0.02537706894
0.0003107014826
-0.02252615768
0.0224307386
1.727104033e-05
1.412959914e-05
-0.02235141949
-2.456965745e-05
0.0001026077587
-2.328864233e-05
0.0003245006815
0.02203666082
4.764789404e-05
-0.02211014144
2.583272573e-05
5.362120016e-05
1.736355187e-05
-0.0002638149905
0.02465397803
0.0005159544097
-0.02465955352
0.02444935973
-0.02486979674
-0.02423536624
0.02401569701
0.0002689632874
0.0005236486343
0.02218497714
4.72352977e-05
1.879413146e-05
4.349928638e-05
3.13364204e-05
0.01948225105
0.00144824891
-0.02094912481
1.862485057e-05
0.004461950332
2.043614004e-05
-0.004438785107
0.02432536351
0.003274579509
-0.02192136033
0.02194452555
-0.02260739234
-0.0309830337
2.254656828e-05
0.005930508838
0.003892088289
-0.0003605309623
0.02360924328
0.0006306180111
-0.02378404726
0.02351823476
-0.02315656249
-0.0004532551483
0.0005342651075
-0.0001725928366
0.0008103359648
0.02142324271
2.339952355e-05
2.086275842e-05
0.0006228822016
-0.02395735045
-0.0002086654847
0.02381501832
-0.02414807321
0.0009559370926
0.02352948047
0.001389856406
0.02447760878
0.0006991370593
-0.0004403177214
0.0007698532909
-0.0001188504913
0.02182044149
1.871848334e-05
1.470812477e-05
0.02228495794
0.0001469166171
-4.91379476e-05
-6.390215285e-05
0.01505160248
0.004544849089
-7.108719818e-06
0.01509818124
-4.65787514e-05
0.006093454324
-0.0221567115
0.02664842552
-0.02464747026
0.004092499067
0.003512109047
0.02353316184
0.002251315306
-0.004582490967
0.003468182543
-0.01506650228
0.03113218714
0.006003355031
-0.01505821709
-8.285191571e-06
-0.01958445658
9.536811895e-06
0.004677966201
-1.647766241e-06
-0.0002058919762
0.02333813024
0.0005827187451
-0.02176926555
0.0215621428
1.230776066e-06
4.331947066e-06
-0.02107500644
3.784563175e-06
0.0004888282641
-1.691906486e-06
0.001055115319
0.02268959126
0.0001206926495
-1.954676234e-05
0.0001282932687
-2.70502838e-05
0.02315583362
0.0002900441201
-9.423722876e-06
0.00015956475
-1.069745913e-05
0.0001341576933
-0.02216383156
-5.442270446e-06
0.02458055837
-0.0248887052
0.0004423045201
0.02426401099
0.0004726234729
0.02519142294
0.0004170856649
-0.0001244241183
0.0004271418564
-1.93469977e-06
0.0005488306072
-0.02151335549
-6.216643865e-05
0.02286509117
-0.02348290029
0.001166639728
0.002248591232
0.02391638174
0.0005420274644
-0.0002825946422
0.0007160760952
-5.021801933e-05
-0.001354672011
0.001510739144
-0.22863689
0.002068352685
0.2283103154
-0.2285148062
-0.001863861839
-0.2289845308
-0.001209611568
0.2288436055
0.002282601946
-0.2284454252
0.003028098194
0.2280573868
-0.2283308872
-0.002754597787
-0.2289248396
-0.001750171154
0.2287568012
0.003224255413
-0.2282533197
-0.007973108122
0.2349914234
-0.2304299652
0.003401114827
-0.2288929807
-0.002409943092
0.2286949098
-0.01213268294
-0.2320170063
-0.02144443834
0.2358594739
-0.2333316535
0.0189018404
-0.228908843
-0.003133211831
0.2287211759
-0.02340206336
-0.2326971105
-0.001793553374
0.002017383453
-0.2279076354
0.002837622651
0.2272625618
-0.2275574376
-0.002542746844
-0.002059721561
0.2280867863
0.0006892102409
-0.227425611
-0.0164299153
0.2452304788
-0.2397571232
0.01091926251
-0.003068147501
0.2286433388
-0.02159275872
-0.2432823826
-0.03414623646
0.2514946673
-0.2479185459
0.03051435303
0.01208468992
0.239525355
-0.03720711769
-0.2475311921
-0.04300370833
0.2435165219
-0.2421565873
0.04160422203
0.02724746306
0.2382348907
-0.04396176547
-0.2393262658
-0.009018627555
0.01023072146
-0.2293736515
-0.008391541231
0.2469781147
-0.2396657986
0.00103927268
-0.002660304126
0.2287070748
-0.01401999054
-0.2461118691
-0.02680046915
0.2626456554
-0.2591509813
0.02321442788
0.01572364125
0.2503639639
-0.02971571926
-0.2608011729
-0.03420366597
0.2590455087
-0.258353101
0.03342188675
0.03358728105
0.2545020443