/*--------------------------------*- C++ -*----------------------------------*\
| =========                 |                                                 |
| \\      /  F ield         | OpenFOAM: The Open Source CFD Toolbox           |
|  \\    /   O peration     | Version:  v2012                                 |
|   \\  /    A nd           | Website:  www.openfoam.com                      |
|    \\/     M anipulation  |                                                 |
\*---------------------------------------------------------------------------*/
FoamFile
{
    version     2.0;
    format      ascii;
    class       volVectorField;
    location    "2.58";
    object      U;
}
// * * * * * * * * * * * * * * * * * * * * * * * * * * * * * * * * * * * * * //

dimensions      [0 1 -1 0 0 0 0];


internalField   nonuniform List<vector> 
3019
(
(99.99944241 0.001411492402 -3.863061517e-21)
(99.99906971 0.005176115954 -2.388537657e-25)
(99.99819898 0.01214639935 -3.862641278e-21)
(99.99656836 0.02480155308 -3.848713824e-21)
(99.99968248 0.02067137998 3.729621876e-21)
(99.99818539 0.03585472481 0)
(99.99712937 0.06031955724 0)
(99.99671212 0.09508640318 -6.751003394e-21)
(99.99557558 0.1428059629 7.988904232e-22)
(99.99456909 0.2041586324 -5.426467963e-21)
(99.99419263 0.2747644042 5.76288497e-22)
(99.99522309 0.3430456366 0)
(99.99492411 0.003419368584 1.545272013e-20)
(99.9910855 0.013078331 3.865932167e-21)
(99.98289274 0.03158281009 2.70495019e-20)
(99.96875961 0.06695169669 -1.158696481e-20)
(99.96939748 0.09681676471 3.75414133e-21)
(99.9466044 0.1704530967 -3.203798529e-23)
(99.91626172 0.2873251081 0)
(99.89870173 0.3981168372 -6.718404201e-21)
(99.86033323 0.6052863681 -6.329560206e-21)
(99.82347111 0.877197948 -1.134683679e-20)
(99.80153281 1.199801938 -4.867935108e-21)
(99.8161336 1.525396129 -8.516043046e-21)
(99.98723695 0.003092584462 -1.54183082e-20)
(99.97650995 0.01372823958 -3.092845144e-20)
(99.95377859 0.03785610291 -6.956014343e-20)
(99.91627406 0.08475544178 9.2611718e-20)
(99.89184191 0.1465661262 -7.656067897e-21)
(99.82604513 0.2707074578 -7.512596935e-21)
(99.73307366 0.4676247373 -1.306867155e-20)
(99.67428338 0.692077118 0)
(99.55159685 1.077876958 2.611980149e-20)
(99.43054021 1.599594147 0)
(99.3586967 2.259928157 6.878610217e-19)
(99.42586158 2.957550406 -9.796358534e-19)
(99.98163812 -0.001063441155 -7.754084016e-21)
(99.96118221 0.002261131131 5.433035624e-20)
(99.91798474 0.02289856684 -1.553951272e-20)
(99.84718032 0.06903353105 0)
(99.78772911 0.1533363554 0)
(99.6561171 0.3096685099 -6.040092709e-20)
(99.47035131 0.5653308837 -1.210788692e-19)
(99.30992726 0.8900906258 2.873661714e-20)
(99.03343292 1.438915765 -2.188616923e-19)
(98.7330576 2.264259953 1.977118918e-19)
(98.54687332 3.387027384 -2.090438899e-20)
(98.66748212 4.663097283 -9.872549191e-19)
(99.98708772 -0.009977179956 0)
(99.95533792 -0.02431705194 0)
(99.88900109 -0.01967848696 7.796905708e-21)
(99.7787526 0.01353397929 1.182237263e-20)
(99.67434756 0.1057512537 1.95834165e-20)
(99.45944263 0.266362694 0)
(99.15576397 0.5358591399 0)
(98.84971007 0.9300506139 -1.189958577e-19)
(98.32764928 1.634726548 0)
(97.7110359 2.796006506 0)
(97.19807217 4.58659049 0)
(97.4183357 6.824048741 -1.543360488e-19)
(100.0138419 -0.02396410187 0)
(99.97057195 -0.06669838714 0)
(99.88137697 -0.0913537904 -1.564722419e-20)
(99.73123231 -0.08795027951 3.174887533e-20)
(99.57003167 -0.004866878248 0)
(99.26966184 0.1278866737 0)
(98.83239856 0.3705980152 2.485532263e-20)
(98.34731734 0.7789751428 2.442493786e-19)
(97.50314299 1.541962577 0)
(96.31201199 2.948393546 2.42149758e-19)
(95.00654903 5.468182326 -5.117911354e-19)
(94.75146572 9.436603518 0)
(100.0718195 -0.04270942308 3.811323569e-21)
(100.0181408 -0.1238334834 -3.837981809e-21)
(99.9087624 -0.1903101741 7.823855608e-21)
(99.72320021 -0.232693989 -2.866945829e-20)
(99.50599184 -0.1792662255 7.936491182e-23)
(99.12518941 -0.1066009001 2.43907021e-20)
(98.56568329 0.06109820455 -5.038934248e-20)
(97.8871138 0.412846809 1.237118253e-19)
(96.69119572 1.069049024 5.012669054e-19)
(94.74564569 2.37498475 -5.680638494e-19)
(91.92175307 4.883666547 -8.676729505e-20)
(88.45477219 10.62760931 0)
(100.1695775 -0.06530033334 -3.811726789e-21)
(100.1078177 -0.1928816651 3.839363955e-21)
(99.98332896 -0.3110351194 -4.865591796e-21)
(99.77142699 -0.411968385 -3.263186031e-21)
(99.50452255 -0.4066196017 1.389160417e-20)
(99.06241774 -0.4207461807 8.243123767e-21)
(98.41067908 -0.3735095275 -3.824593306e-20)
(97.58890211 -0.1621357535 5.009918277e-19)
(96.11887981 0.2031787792 3.23692876e-20)
(93.62582008 0.9044333482 0)
(89.64575732 1.906645289 8.49250612e-19)
(82.43443854 3.339254796 0)
(100.313462 -0.09032550426 -1.834398993e-21)
(100.2468689 -0.2694405015 -1.377867293e-21)
(100.1141228 -0.4452968723 -4.719467581e-22)
(99.88790734 -0.6123589076 1.42561682e-21)
(99.58394104 -0.6683089046 -2.615157925e-23)
(99.10748953 -0.7852899324 0)
(98.40880914 -0.8825909815 -6.780192868e-23)
(97.52252596 -0.8595363933 0)
(95.94723788 -0.8661269906 -4.724247456e-19)
(93.40569578 -0.8920509288 2.921736841e-19)
(89.88941526 -1.366454908 2.438342943e-20)
(85.91754224 -3.225441409 -1.965634229e-18)
(100.5067647 -0.1160665305 3.614641683e-21)
(100.4390025 -0.3481891805 5.489277255e-23)
(100.3055802 -0.5832502665 0)
(100.0783988 -0.8188416494 1.860308399e-22)
(99.7524631 -0.9430709918 -1.903839953e-21)
(99.27109897 -1.166140922 2.01821316e-21)
(98.57389146 -1.409992782 0)
(97.69435001 -1.578655828 -4.719223873e-19)
(96.16849127 -1.9182183 0)
(93.85638132 -2.44454517 2.027445512e-20)
(91.06544129 -3.407908948 7.973384134e-19)
(88.56626623 -4.871147092 0)
(100.7493686 -0.1408456617 -1.780088295e-21)
(100.683944 -0.4238287119 1.794614599e-21)
(100.5568241 -0.7150688993 1.750086194e-21)
(100.3426818 -1.016759126 -1.632229163e-21)
(100.0081671 -1.209598276 -1.876525371e-21)
(99.5490701 -1.530079883 0)
(98.8942008 -1.906755032 -4.506072487e-21)
(98.06943241 -2.244564425 -3.808681826e-21)
(96.66960429 -2.840185266 -6.330303761e-20)
(94.62776985 -3.66413581 3.047076788e-19)
(92.26672942 -4.761836162 7.240983657e-19)
(90.17720599 -5.909337204 1.219160105e-21)
(101.0378147 -0.1631391574 6.542693008e-21)
(100.9779241 -0.4914937495 0)
(100.862554 -0.8305306836 -1.746672506e-21)
(100.6711816 -1.197615208 0)
(100.3377469 -1.449823361 0)
(99.92707241 -1.849930708 -5.577974124e-21)
(99.34472125 -2.3361922 -1.871222464e-21)
(98.60466931 -2.811107917 5.682824786e-21)
(97.37055494 -3.593795441 -2.64656235e-21)
(95.5793334 -4.620682858 -2.785370971e-19)
(93.45099441 -5.849662821 -6.509716693e-19)
(91.41160505 -6.995432243 6.664599432e-19)
(85.41685541 -2.868855415 2.014010664e-18)
(88.32517665 -4.715523856 -8.254240887e-19)
(90.00685684 -5.790762881 7.329135621e-19)
(91.25578968 -6.8437976 -6.657962476e-19)
(82.68488294 4.726419942 0)
(90.75711147 -2.985594049 1.629323503e-18)
(88.59858844 -4.451277502 8.438144768e-19)
(86.39879398 -2.774238689 1.903938482e-18)
(91.97264299 -4.459484091 7.588359557e-19)
(90.2385034 -5.613852195 0)
(88.83631467 -4.621198394 1.227777877e-20)
(89.23704972 -5.30169088 7.657205611e-19)
(88.46070344 -6.077950637 -1.764245129e-19)
(87.57146337 -5.644003854 -1.655276815e-18)
(93.14769879 -5.591130199 6.699869427e-19)
(91.48819323 -6.683398113 -6.601345519e-19)
(90.40692282 -5.739561324 -7.299632082e-21)
(90.65174952 -6.280877292 -1.756103485e-19)
(89.67739144 -6.773438591 0)
(89.303991 -6.421292731 3.817280414e-21)
(91.64491984 -6.831738008 6.443729304e-19)
(92.00619091 -7.469724941 5.087367605e-19)
(90.46336989 -8.06614054 0)
(90.10384169 -7.430904079 4.973018114e-19)
(79.73310428 -5.205352748 2.918430182e-19)
(84.41713947 -5.710369724 0)
(72.71864137 4.203308787 0)
(78.74287708 -4.790115121 0)
(87.45343703 -5.569635245 1.854902727e-19)
(86.60619492 -5.239497217 7.721580253e-19)
(87.48505259 -4.187563684 0)
(86.46155952 -5.38417212 0)
(87.32101212 -5.673284317 -5.530027387e-19)
(84.79506993 -5.655897238 0)
(86.32097849 -5.380084822 0)
(89.22754677 -6.379028535 3.568114278e-21)
(88.57653957 -6.118994714 4.342418299e-19)
(89.44460464 -5.431131187 -1.516522737e-18)
(88.40833197 -6.198189416 2.66559868e-19)
(89.08689288 -6.440265769 5.438088829e-19)
(87.37854679 -5.717653595 5.540828464e-19)
(88.35049632 -6.17488736 5.36428616e-19)
(90.07228076 -7.389273505 0)
(89.69849873 -6.806344175 -5.059872299e-19)
(90.80225775 -6.413895009 -6.874588736e-19)
(89.54574578 -6.821224206 0)
(89.84663771 -7.414692477 0)
(89.12290571 -6.464914785 0)
(89.52911185 -6.789297972 -1.048343412e-18)
(90.48649145 -8.117394174 0)
(92.09301094 -7.555516438 0)
(90.10574494 -8.127131505 0)
(89.87648311 -7.455633509 0)
(90.09520427 -8.078716011 5.535124252e-19)
(89.66882773 -0.6706216682 -8.796387881e-19)
(85.98148158 -2.381362846 1.992658857e-22)
(83.88025855 3.246216034 1.082485904e-18)
(83.20133571 -0.2952579416 0)
(79.34707864 -3.837658917 0)
(74.68321544 4.224121707 0)
(87.15212414 -3.98998674 -9.014775491e-19)
(86.45659919 -5.224318394 7.763753837e-19)
(84.81280676 -5.284593545 0)
(84.42259845 -5.275021736 -8.966377622e-21)
(80.17945368 -4.28825322 0)
(83.73509295 -1.167335045 0)
(82.62961679 -8.214099839 -4.773179393e-19)
(59.3752406 5.33987876 0)
(68.19625753 -8.694310959 0)
(80.13995651 15.79365233 0)
(72.88190505 6.276311467 0)
(90.32616171 -7.738270697 5.162747437e-19)
(91.17846122 -7.558871694 5.799089934e-19)
(91.41677459 -7.819411209 5.756406831e-19)
(79.00667897 -10.26698193 -1.08210582e-17)
(82.26425767 -8.465151577 2.378927698e-18)
(82.20507605 -5.73771784 1.266614891e-18)
(82.40316309 -8.201468331 -1.67719011e-18)
(79.01966568 -9.435205196 -3.607243764e-18)
(84.11046603 -6.8529145 -4.932097186e-20)
(82.74049129 -7.993775915 8.469636661e-19)
(82.86208532 -5.767523086 -2.800736509e-20)
(74.46558454 -1.174125648 0)
(69.11205448 -7.149750995 0)
(62.00553123 5.181964778 0)
(78.25291099 -9.464326696 9.741065869e-19)
(70.4721988 -7.948751752 0)
(75.51033192 -2.482098638 0)
(69.81061858 -9.47420548 -8.364246167e-20)
(78.29158544 -10.25946487 -5.167844155e-19)
(86.89267095 -5.429483357 -1.107844613e-18)
(85.36401622 -5.68762575 0)
(86.94677761 -5.453998938 5.536615508e-19)
(85.61017862 -5.472893446 -6.089650587e-19)
(84.94742781 -6.020541634 -8.382719492e-19)
(84.2084495 -6.729991713 -8.200479622e-19)
(85.3421576 -5.688126996 0)
(85.009321 -5.931898781 -1.675640694e-18)
(85.81664986 -5.431584854 -1.936731625e-19)
(88.7679729 -6.302228804 -5.354856049e-19)
(88.8129671 -6.322276108 0)
(87.83131304 -5.97461528 5.518836498e-19)
(87.89825103 -6.011596415 1.099355044e-18)
(89.70088034 -7.089484658 0)
(89.72259164 -7.125308357 0)
(89.34816206 -6.600851648 -5.092168337e-19)
(89.37465305 -6.623511845 -1.396367884e-22)
(91.50062987 -7.910215815 5.686111853e-19)
(90.05707681 -7.705547352 5.423869167e-19)
(90.07261857 -7.746221029 -1.560437933e-21)
(68.79684346 21.71218409 0)
(59.49058148 8.148246076 3.108103605e-18)
(89.50283254 -6.599118735 4.950603665e-19)
(90.04277111 -6.394759 6.111430246e-19)
(90.25101251 -6.573857546 0)
(89.73549377 -6.181066349 0)
(89.96964286 -6.339102403 6.156729824e-19)
(89.47374192 -6.577751656 0)
(90.87846466 -7.232698849 -5.923963231e-19)
(91.10268847 -7.474830803 0)
(90.3040652 -7.695586365 1.033723333e-18)
(88.97962698 -6.263921376 0)
(89.38610078 -5.980153343 6.322607989e-19)
(89.65242628 -6.12980698 0)
(88.53097523 -6.518236962 0)
(88.45427658 -6.461706814 -6.033117345e-19)
(88.97711003 -6.38622276 0)
(89.89916947 -7.104909704 5.104863404e-19)
(90.59149702 -6.92340292 5.969460652e-19)
(90.80509677 -7.153474249 -5.944212598e-19)
(90.31824594 -6.639278001 0)
(90.52200549 -6.849345552 -6.019790409e-19)
(89.87314077 -7.067121091 0)
(89.60086926 -6.933489046 -5.355483114e-19)
(88.52537974 -6.922421647 6.190022133e-19)
(88.53652376 -6.780057437 5.976587814e-19)
(87.80393455 -7.339721852 -1.308036393e-18)
(87.79161618 -7.215566648 0)
(89.77116493 -7.281162669 5.008623958e-19)
(89.22854525 -6.521839746 5.382794087e-19)
(88.63823254 -6.601869539 7.874583023e-20)
(88.5610891 -6.540573866 0)
(88.54472511 -6.751199401 5.932727389e-19)
(88.54723443 -6.700076565 -1.733844397e-18)
(89.47308347 -6.70991767 -5.149600139e-19)
(89.96832368 -7.56715129 5.232911335e-19)
(87.9612281 -7.494736814 0)
(87.82658891 -7.394121771 -5.149337822e-21)
(87.90816988 -7.849940236 -1.45514224e-18)
(90.12056711 -7.94790262 -5.317953414e-19)
(83.33871569 -7.562208857 1.480784519e-18)
(83.55955331 -7.41134843 -3.3621045e-18)
(61.73023504 -2.674254505 -3.380719379e-18)
(63.18190426 -4.689901651 2.582639809e-20)
(80.65915463 -9.457961872 -5.798758641e-18)
(81.10562254 -9.164576553 -2.932348789e-18)
(81.2490095 -8.790816189 1.65795063e-18)
(81.15968654 -7.24313131 0)
(82.42976604 -7.093042003 7.771656225e-19)
(79.00108424 -7.169838178 9.344547201e-19)
(80.67151948 -7.26458582 0)
(80.78607227 -8.995103576 1.648318446e-18)
(83.72523503 -7.29188634 2.088868602e-18)
(83.86637113 -6.641949989 0)
(84.43539637 -6.37224673 3.222301085e-19)
(82.78832542 -7.017044283 0)
(83.63917427 -6.737748696 0)
(83.4997384 -7.426775344 -8.53945448e-19)
(75.40180909 -9.445243603 -2.190940187e-18)
(76.1208564 -6.554812785 0)
(78.34292337 -7.074515723 0)
(74.08938403 -10.64200293 0)
(75.35404351 -10.65977348 -1.086308086e-18)
(85.56799886 -5.675935117 2.222431577e-19)
(86.30312021 -5.59511881 5.88624903e-19)
(86.38784678 -5.610292163 9.156322485e-19)
(86.08299487 -5.596704266 0)
(86.25279231 -5.594569275 0)
(85.51760302 -5.702268059 -4.29996952e-19)
(86.53562936 -5.741783448 6.187118577e-19)
(86.64528114 -5.881636557 -1.2636272e-18)
(86.4072281 -5.631311305 -6.041562018e-19)
(86.50280852 -5.708150025 7.411338668e-23)
(84.68641139 -6.273161233 8.428916766e-19)
(85.13268156 -5.996729559 6.453511671e-19)
(85.44279748 -5.825677627 -6.507801314e-19)
(84.59357767 -6.289815197 -6.358312716e-19)
(85.0124069 -6.064383443 -6.383004317e-19)
(84.59195372 -6.37826609 8.310071427e-19)
(85.19482948 -5.803193322 -4.216827584e-19)
(85.83124527 -5.655485896 6.685502573e-19)
(86.0256495 -5.603991513 0)
(85.53103865 -5.777984318 0)
(85.75962961 -5.678180131 2.70045656e-21)
(85.12427348 -5.825282016 -4.235422144e-19)
(87.79438721 -6.408191448 -6.109831887e-22)
(87.90457786 -6.446419955 6.12738823e-19)
(87.63472433 -6.435084274 -7.196776465e-19)
(87.76538535 -6.407079638 0)
(88.06560346 -6.45831092 6.322553184e-19)
(88.12222284 -6.519316734 0)
(87.94908203 -6.453357226 6.154412501e-19)
(88.04833138 -6.451886614 0)
(86.97004293 -6.139778007 0)
(87.1923879 -6.244908788 -1.989595547e-18)
(86.6939991 -5.940338466 6.351019556e-19)
(86.89638087 -6.098309567 6.472657451e-19)
(87.54303496 -6.373348583 8.564668532e-20)
(87.6103004 -6.42259128 -1.161028783e-18)
(87.26624938 -6.274238541 0)
(87.48116056 -6.350844422 -1.016314613e-18)
(88.62501409 -7.095479938 0)
(88.54435642 -6.981198805 6.209623807e-19)
(89.62386408 -6.974239576 -5.378476514e-19)
(87.57680709 -6.930803475 0)
(87.68834132 -7.030124319 1.069562407e-18)
(87.60304617 -6.691773917 6.904453708e-19)
(87.55163298 -6.857922915 -1.400264868e-18)
(87.6658265 -7.052514796 1.115442862e-18)
(89.76057427 -7.235854616 -5.044524208e-19)
(87.91720293 -7.177342712 0)
(88.60345546 -7.128239827 3.656408315e-19)
(88.50332921 -6.662441774 -5.433675983e-19)
(88.65566145 -6.631166398 6.043495302e-19)
(89.26045796 -6.545449383 -5.348734663e-19)
(88.2191265 -6.630853157 0)
(87.62891988 -6.621405197 0)
(88.15077233 -6.544116427 -1.306172827e-18)
(88.20457357 -6.607562043 0)
(87.64466692 -6.633275571 -4.771249581e-22)
(87.62359917 -6.666863712 -2.060852032e-18)
(87.61771441 -6.619242039 0)
(87.64095258 -6.62700342 6.769312511e-19)
(89.45104906 -6.687231748 5.124038435e-19)
(88.54064892 -6.689192237 5.725020191e-19)
(88.50548242 -6.672871698 1.105787653e-18)
(88.01796632 -7.561506821 1.33507686e-18)
(87.99101928 -7.510753044 0)
(89.99541735 -7.60047494 0)
(90.11187622 -7.892281382 -1.364816742e-19)
(87.91040568 -7.783504678 -1.624054845e-18)
(88.00516586 -7.586502024 0)
(88.08324979 -5.923603162 -4.82837395e-22)
(88.52807492 -5.542119667 6.536040892e-19)
(88.8741948 -5.721221155 6.429683017e-19)
(88.04556139 -5.268124999 0)
(88.40892088 -5.475990232 0)
(87.95261485 -5.860249066 1.270091501e-18)
(88.9839512 -5.776164533 -6.439266877e-19)
(89.29094804 -5.930237289 6.386147416e-19)
(88.88726176 -6.228230325 -3.531064846e-22)
(88.57386025 -6.240445867 -1.599150876e-18)
(88.11309267 -6.38642857 1.205568788e-21)
(87.95959305 -6.374471003 1.112189756e-18)
(87.91377164 -6.359219338 2.259530541e-21)
(87.76188888 -6.310342753 -7.830257105e-20)
(88.16421536 -6.118871695 0)
(82.92762544 -7.943062754 -4.694566237e-19)
(79.64752739 -10.06333269 -1.709249177e-18)
(78.71820797 -10.50483798 3.22196762e-17)
(81.88606477 -8.682268587 0)
(82.04333218 -8.393475685 0)
(82.09757683 -7.996069865 0)
(82.45673375 -7.832205687 1.583822467e-18)
(84.01574251 -7.000396631 2.175306251e-18)
(84.15307275 -6.83565311 -1.367683743e-18)
(84.29456503 -6.717858189 4.251396886e-20)
(82.78730384 -7.661186599 -7.929952533e-19)
(83.08345087 -7.49088433 -8.030251895e-19)
(83.03528028 -7.777258509 8.442761552e-19)
(72.78957234 -4.679079017 0)
(75.32181581 -6.133389031 0)
(74.26177991 -9.307185396 0)
(71.32654679 -10.10850336 1.519693528e-19)
(71.05166064 -12.18246704 0)
(69.16868673 -11.04822563 1.510085673e-18)
(78.12929126 -10.7765736 -6.655193851e-19)
(77.35817184 -11.115678 0)
(77.45501139 -10.40416728 0)
(85.42587831 -5.610839492 0)
(85.78589586 -5.630169295 -4.439797663e-18)
(85.71251993 -5.638835242 5.374065459e-18)
(85.71876646 -5.684817164 0)
(85.76593634 -5.685376124 -1.520200141e-18)
(85.40096147 -5.694796782 1.696876904e-18)
(85.72253983 -5.825911148 -1.580428451e-18)
(85.73072087 -5.898437049 0)
(85.67011122 -5.653269419 0)
(85.67358355 -5.66635086 -7.618539558e-19)
(84.85775712 -6.114965689 8.348379078e-19)
(85.11155295 -6.074640505 -7.169378185e-19)
(85.19960344 -5.9993975 0)
(84.42883678 -6.615461604 -4.340934257e-21)
(84.56402316 -6.520649393 -2.093811794e-18)
(84.3335541 -6.618086522 1.67008996e-18)
(85.31860628 -5.71142473 0)
(85.63553871 -5.715435626 -7.433430009e-19)
(85.67851912 -5.692415468 6.675726685e-22)
(85.27281896 -5.926919957 1.441356551e-18)
(85.33004975 -5.870654032 2.180384459e-18)
(85.04317916 -5.873056788 -2.517843649e-18)
(88.27832229 -6.426097134 0)
(88.1542402 -6.392406047 -5.709475209e-19)
(88.62450499 -6.260351279 5.344326275e-19)
(88.9388454 -6.364979308 5.383190777e-19)
(88.42825678 -6.451496705 1.530359574e-21)
(88.32137956 -6.43465969 -1.172799969e-18)
(87.41225109 -6.180681412 6.300164664e-19)
(87.1965808 -6.074603013 0)
(87.63015045 -5.875402684 0)
(86.23066562 -6.305302732 -1.580890467e-18)
(86.30396189 -6.334035183 0)
(85.76004039 -5.995767399 -2.384534789e-18)
(85.82650517 -6.084953625 2.385031844e-18)
(86.45089433 -6.452338863 0)
(86.37585651 -6.359425235 0)
(86.44581948 -6.381530634 3.931730571e-19)
(88.09950988 -6.089194554 0)
(87.69670777 -6.288721513 6.360318404e-19)
(87.48446501 -6.210865772 6.308714153e-19)
(88.52200285 -6.865125694 -1.221496738e-18)
(89.04856126 -6.897830833 0)
(89.05875627 -6.945596945 0)
(87.78803968 -7.296158722 1.301665271e-18)
(88.89174888 -7.377757517 0)
(88.91132999 -7.414960513 1.104823364e-18)
(88.88579187 -7.294306194 0)
(88.87613268 -7.340731212 0)
(87.77068827 -7.256583897 0)
(88.2126036 -8.015710041 0)
(88.21474303 -8.039976583 2.912340647e-21)
(87.91733913 -7.47427994 6.609533549e-19)
(89.00080591 -7.532218572 0)
(89.03441438 -7.557842967 5.689546548e-19)
(88.93388351 -7.457178792 -1.116551673e-18)
(88.9644986 -7.498826001 0)
(87.86659716 -7.442760522 -1.977947998e-18)
(88.35714027 -7.984969097 -3.186200982e-18)
(88.23651405 -7.997663115 0)
(89.03994857 -7.951866664 0)
(88.54145735 -7.96316655 3.739658499e-18)
(87.51488672 -7.878662855 0)
(83.14459479 -7.722378401 4.519807484e-21)
(83.68259484 -7.189413732 1.617999972e-18)
(54.00715835 -2.444866344 0)
(56.18176162 -5.561341961 -1.142324316e-19)
(64.25551735 -12.40465746 0)
(66.49617218 -12.75588819 0)
(58.83818873 -8.180472056 -1.666291809e-18)
(61.64319398 -11.29255624 0)
(59.60542302 -12.23126767 0)
(80.17361868 -9.770162189 1.887822868e-18)
(81.50925789 -8.902109133 9.837813684e-19)
(83.80204008 -7.085371316 7.559372891e-19)
(83.99080615 -6.963404837 -2.159560082e-18)
(83.86997283 -7.153158247 -3.224495439e-19)
(83.28063376 -7.583404691 0)
(83.34381411 -7.334665771 1.59647374e-18)
(83.57855933 -7.199581871 -8.974232145e-19)
(74.00051588 -12.23800078 4.763983783e-18)
(72.66518254 -12.39670879 -4.432678847e-18)
(72.73428381 -10.47615071 0)
(68.58228759 -12.8409259 -9.242625167e-18)
(70.35841342 -12.92826453 1.965958247e-17)
(76.48063608 -10.56393493 3.315970449e-18)
(76.4153314 -11.51657219 0)
(75.26987584 -11.92295672 0)
(85.92233479 -5.67590467 1.955887619e-19)
(85.95775397 -5.659729762 -3.845101912e-19)
(85.59267098 -5.634951661 -2.579671226e-19)
(85.45307645 -5.705202965 4.250947215e-19)
(85.82034225 -5.688049934 0)
(85.87849262 -5.686400997 0)
(85.7116836 -5.733978833 -1.573987986e-18)
(85.7176838 -5.772366484 0)
(85.69005428 -5.682641293 1.555012301e-18)
(85.70274312 -5.70503511 -7.837807209e-19)
(84.92487456 -6.229068062 -2.842671684e-18)
(85.01950224 -6.14788063 -7.119194108e-19)
(84.76830089 -6.191143348 8.402113431e-19)
(84.47097712 -6.498892086 -1.675582331e-18)
(84.69721304 -6.422533149 7.065790357e-19)
(84.81921591 -6.322493936 -7.077851825e-21)
(85.51040809 -5.78172719 0)
(85.57883703 -5.749681098 7.407724328e-19)
(85.2688374 -5.758426192 0)
(85.07516117 -5.841065241 3.366964057e-18)
(85.3831611 -5.832667588 -7.291780299e-19)
(85.44258582 -5.806487866 0)
(87.82509818 -6.418543741 0)
(87.10897772 -6.40095945 0)
(87.09141611 -6.389219134 7.150423183e-19)
(87.18631639 -6.434601437 -7.199383083e-19)
(87.14082908 -6.420266839 -2.157420137e-18)
(87.86194896 -6.433291602 1.222421989e-18)
(87.68124724 -6.431240046 5.857602519e-19)
(87.01525926 -6.443145404 0)
(86.97759758 -6.469910502 1.664534491e-19)
(87.07981808 -6.390585659 -1.422421407e-18)
(87.05734605 -6.410747593 -2.119521277e-18)
(87.72907377 -6.41729953 5.908465992e-19)
(88.0811389 -6.472953066 -6.384031998e-19)
(87.33687514 -6.426598572 0)
(87.33544951 -6.412083546 0)
(87.36038508 -6.481552346 3.65018801e-19)
(87.34345258 -6.450696534 -3.633388232e-19)
(88.09916381 -6.494021059 0)
(87.99014815 -6.454587769 1.240314732e-18)
(87.28270494 -6.431639852 -1.436151648e-18)
(87.23705504 -6.437332984 0)
(87.33218202 -6.409213793 -1.440182947e-18)
(87.31569892 -6.418670594 0)
(88.02377108 -6.452516128 0)
(86.08030093 -6.236318822 -7.892341123e-19)
(86.15577489 -6.273437306 7.925083445e-19)
(87.04385728 -6.178025316 4.03646329e-21)
(86.71369033 -6.236181726 -1.37526307e-18)
(86.63768338 -6.199091201 0)
(86.86596297 -6.29956647 2.080566626e-18)
(86.79010362 -6.269372685 0)
(87.11813796 -6.213006071 6.604379399e-19)
(85.91679623 -6.145774042 -1.584618855e-18)
(86.00295562 -6.193103196 1.586200416e-18)
(86.62307956 -6.439891432 0)
(86.66643368 -6.444756023 3.819710315e-18)
(87.60190953 -6.403822878 3.232891821e-19)
(87.272479 -6.451802182 -1.423132451e-18)
(87.20734341 -6.425248407 0)
(86.99261424 -6.481802913 1.227412114e-18)
(87.0453336 -6.470842101 0)
(87.60167664 -6.408534829 0)
(87.33931246 -6.301167682 6.69903762e-19)
(87.0146467 -6.352487876 0)
(86.94095699 -6.327280572 -6.998109566e-19)
(87.15566877 -6.400356123 0)
(87.08593697 -6.376783532 0)
(87.41118856 -6.326434813 -3.312467117e-21)
(86.51225622 -6.403579161 -1.977738089e-18)
(86.57783885 -6.422365429 0)
(88.60532966 -7.064555155 6.322132605e-19)
(89.12793286 -7.076942628 0)
(89.14818292 -7.112616683 0)
(89.07715477 -6.994687376 -5.929705444e-19)
(89.10237606 -7.038921074 0)
(88.57596921 -7.028710712 -6.236481676e-19)
(87.62452751 -6.978611627 1.407014973e-18)
(87.66582202 -7.008528737 3.5198109e-19)
(87.57986953 -6.729469643 -6.940742807e-19)
(87.55713696 -6.782339479 2.092081587e-18)
(87.63414987 -7.060604759 0)
(87.22650305 -7.076937126 -2.5422395e-17)
(88.11641702 -7.148451405 7.817237418e-18)
(89.04002603 -7.19966023 0)
(88.94607908 -7.238267655 0)
(89.1494793 -7.146541742 -3.785493936e-20)
(89.14639957 -7.192570334 0)
(88.59195925 -7.163027351 0)
(87.85094026 -6.616246434 2.026907303e-18)
(87.10235317 -6.563807723 0)
(87.42869042 -6.563813414 0)
(87.71483035 -6.622488533 -5.766042318e-19)
(88.18003622 -6.565695226 0)
(87.41836142 -6.526806352 0)
(87.3884579 -6.507975442 1.459510967e-18)
(87.43553412 -6.559146989 0)
(87.44250348 -6.541277781 0)
(88.20682637 -6.585325629 0)
(87.64465304 -6.640703028 6.823494251e-19)
(87.63793943 -6.650776519 -1.369253469e-18)
(87.62836792 -6.619151784 0)
(87.63609597 -6.622034171 0)
(88.01813662 -7.543066101 3.331128356e-19)
(89.08937941 -7.62694686 -5.84904639e-19)
(89.09451189 -7.655179605 -5.920825959e-19)
(89.06013686 -7.580065993 -1.149307204e-18)
(89.07797201 -7.602432429 -5.777885107e-19)
(88.00890801 -7.526397861 -3.312429843e-19)
(87.95058679 -7.691059817 1.722164693e-18)
(89.07421137 -7.795960847 -9.306140765e-19)
(89.03937399 -7.872341336 0)
(89.09288628 -7.689691943 -1.194694295e-18)
(89.08413837 -7.736130767 -3.034013458e-19)
(87.97990037 -7.629366077 -1.697890371e-18)
(99.74563829 0.6251071265 -1.353032931e-20)
(99.678187 0.8711748136 6.490704917e-21)
(99.88998023 0.5404423516 6.528588373e-21)
(99.6505539 0.9671189945 -1.945676373e-20)
(99.58401772 1.299682161 -6.11000569e-21)
(99.86072229 0.7944985528 -3.659022719e-22)
(99.55852927 1.424663285 0)
(99.51775094 1.840516906 0)
(99.84360081 1.105667693 4.867025099e-21)
(99.50510085 1.989821319 -3.963104251e-20)
(99.53716986 2.439171209 4.894450299e-19)
(99.85742243 1.437190108 -1.941995886e-21)
(99.55675834 2.580856839 -4.717816023e-20)
(99.4120951 0.8524840622 -1.427646839e-20)
(99.24242904 1.217135615 -1.402316697e-20)
(99.58510491 0.9693775751 0)
(99.18126339 1.362307741 -3.437171384e-21)
(98.99428402 1.893956191 0)
(99.46128599 1.455882694 0)
(98.93511824 2.105984095 7.621334281e-19)
(98.81018508 2.827906339 -1.414269725e-18)
(99.37024433 2.085393485 -1.155103665e-20)
(98.79042412 3.094964121 1.310794491e-18)
(98.83571601 3.931757948 -1.053651069e-18)
(99.39549449 2.788609463 9.807032407e-19)
(98.89277481 4.204329714 1.065037206e-18)
(98.97104215 0.9379185628 4.638594597e-19)
(98.64363205 1.406872173 0)
(99.10745351 1.280756599 -1.445678841e-20)
(98.5190525 1.608250171 -2.1884828e-19)
(98.13225029 2.367069777 8.405759095e-19)
(98.80377933 2.029339493 0)
(98.00255043 2.682543986 0)
(97.66812206 3.840123078 1.604087141e-18)
(98.57396472 3.08079497 0)
(97.60112994 4.290360241 0)
(97.67148402 5.747341996 0)
(98.59973272 4.348099032 0)
(97.8183011 6.225544303 -9.648919573e-19)
(98.47306142 0.8363852218 -3.695289089e-19)
(97.92477112 1.364360845 4.687007511e-19)
(98.47296278 1.420056112 4.494174629e-19)
(97.71531869 1.595735941 -4.61963263e-19)
(96.97267799 2.542864018 4.385009572e-19)
(97.87013662 2.451262606 0)
(96.69582804 2.966607948 -8.954169314e-19)
(95.87238336 4.632535543 -9.958433544e-19)
(97.28876587 4.079385842 -1.676095569e-18)
(95.6509007 5.326771671 1.078724097e-18)
(95.44622475 7.843381134 4.277240736e-19)
(97.24975749 6.261466601 -1.792597827e-19)
(95.6402305 8.77733603 -8.329899211e-19)
(97.99222438 0.5248643188 -1.235078396e-19)
(97.20976687 1.004853843 0)
(97.7405329 1.308471253 4.67568797e-19)
(96.8803531 1.22780443 0)
(95.62981227 2.173727052 2.796189701e-19)
(96.64148864 2.511711983 4.59797118e-19)
(95.12414587 2.60602181 1.285329727e-20)
(93.36809758 4.409951804 -2.038511128e-19)
(95.30060949 4.708073508 4.956977799e-19)
(92.72466385 5.24938256 -1.360894612e-19)
(90.91551451 8.939696528 3.757610125e-19)
(94.59099102 8.316216649 0)
(90.54993184 10.8500949 0)
(97.64181744 -0.001941929251 4.998888805e-19)
(96.65697651 0.3030042877 -5.111879434e-19)
(97.04962792 0.8595041851 -8.441399059e-21)
(96.22384655 0.4496548493 -4.506369221e-19)
(94.53640912 1.06310392 0)
(95.31317412 1.962733266 -5.388098082e-19)
(93.82613454 1.333856794 0)
(91.12539944 2.381572105 -3.883076529e-19)
(92.71087755 4.085801419 -7.756229586e-20)
(89.97860564 2.813943987 0)
(84.1075936 4.379623055 -1.050870748e-18)
(89.3366748 8.605413514 -3.738650538e-19)
(85.95554913 8.962884725 0)
(83.58952078 13.98711148 0)
(88.87782389 14.09160071 0)
(97.51619725 -0.6785168069 5.698976676e-19)
(96.42837495 -0.6253396343 5.562133502e-19)
(96.56933137 0.08366247764 -3.654929393e-20)
(95.9503313 -0.5933509091 -3.310582581e-20)
(94.12759735 -0.4811427573 -6.460437303e-21)
(94.3640649 0.6951575818 1.527800452e-19)
(93.38054706 -0.4531068553 2.786408816e-19)
(90.70112912 -0.5297193106 0)
(90.82782094 1.639763809 -4.254837732e-19)
(89.50551367 0.9868095983 8.631911674e-19)
(88.18393062 1.056311447 9.536197963e-19)
(88.29396711 2.16265923 0)
(82.47668948 1.998871743 0)
(80.88609498 1.808441299 0)
(80.74016482 3.406004062 6.096329455e-19)
(97.63081426 -1.401296242 5.021903701e-19)
(96.55035502 -1.591940354 -6.519677339e-19)
(96.42665629 -0.870172031 4.90269462e-19)
(96.08370697 -1.664864752 -6.093354212e-19)
(94.37044369 -1.954065737 0)
(94.13774266 -0.868778768 -6.141602728e-19)
(93.70380474 -2.089478181 -4.07122221e-19)
(91.51090113 -2.694047683 -1.566411376e-18)
(90.84285771 -1.156318912 2.352507196e-20)
(90.15792892 -1.976747298 0)
(89.2713749 -2.299799763 8.886121009e-19)
(88.90001295 -1.648516952 -1.985708822e-21)
(86.37220462 -3.519893035 0)
(86.03369266 -4.03518493 2.423584364e-19)
(85.51871878 -3.795085566 -2.506010548e-19)
(97.95881535 -2.085770906 4.906427799e-19)
(96.95134566 -2.473747369 -5.723773577e-19)
(96.6272427 -1.823242475 1.040618669e-18)
(96.52279497 -2.624628001 -5.229442328e-19)
(94.99277537 -3.168666754 -2.862385564e-19)
(94.49927245 -2.282974843 -5.963441659e-19)
(94.41533867 -3.386713197 -9.420239412e-21)
(92.58139108 -4.162189438 -7.23209537e-19)
(91.77077827 -3.110538072 -1.541518707e-18)
(91.37211731 -3.788955546 0)
(90.72825702 -4.122661801 2.25765806e-19)
(90.38173551 -3.749519397 -1.641981332e-18)
(88.7975955 -5.020653539 0)
(88.53611626 -5.35157011 0)
(88.17657047 -5.143471338 -3.895243467e-21)
(98.4581149 -2.68030276 4.648378441e-19)