/*--------------------------------*- C++ -*----------------------------------*\
| =========                 |                                                 |
| \\      /  F ield         | OpenFOAM: The Open Source CFD Toolbox           |
|  \\    /   O peration     | Version:  v2012                                 |
|   \\  /    A nd           | Website:  www.openfoam.com                      |
|    \\/     M anipulation  |                                                 |
\*---------------------------------------------------------------------------*/
FoamFile
{
    version     2.0;
    format      ascii;
    class       surfaceVectorField;
    location    "2.58";
    object      Uf;
}
// * * * * * * * * * * * * * * * * * * * * * * * * * * * * * * * * * * * * * //

dimensions      [0 1 -1 0 0 0 0];


internalField   nonuniform List<vector> 
5999
(
(99.99925588 0.002860717442 -1.953173002e-21)
(99.99732095 0.002414165815 5.78238009e-21)
(99.99863388 0.007821896288 -1.931560214e-21)
(99.99535624 0.009124638873 1.944294905e-21)
(99.99738298 0.01720144496 -3.855677355e-21)
(99.99122248 0.02186139265 1.161916784e-20)
(99.99864424 0.02154095101 1.203588361e-21)
(99.98330385 0.04586926279 -7.687125122e-21)
(99.99255743 0.04855411831 -1.282834721e-21)
(99.99746786 0.04005037351 1.864957135e-21)
(99.9992299 0.02424489376 9.2801475e-22)
(99.99107193 0.07070761689 1.857118925e-21)
(99.99794414 0.04062951258 9.114973578e-22)
(99.99848094 0.03108071171 -9.344283468e-22)
(99.99741598 0.05273082057 9.114601295e-22)
(99.98582902 0.1198781933 1.816728347e-21)
(99.99711133 0.06788586252 0)
(99.99690248 0.08486578359 -3.375605508e-21)
(99.9809949 0.1890481534 -3.375587939e-21)
(99.99643198 0.1051956441 -8.773758855e-22)
(99.99586368 0.1290326308 2.943443109e-21)
(99.97440094 0.2843771693 3.23229018e-21)
(99.99530203 0.1564405177 3.994346218e-22)
(99.99479884 0.1872294962 -2.713339712e-21)
(99.96851113 0.4074149323 3.843772074e-22)
(99.99441168 0.2209298773 -2.817526443e-21)
(99.99422374 0.2566582327 2.048519385e-22)
(99.96612816 0.5496527466 -1.909444924e-21)
(99.99434912 0.2929084888 2.485498367e-21)
(99.99486483 0.327706346 2.176056828e-21)
(99.97109404 0.6880101356 -9.763476895e-22)
(99.99573912 0.3587036879 0)
(99.99300426 0.007682583437 9.659858368e-21)
(99.99010257 0.003254623592 2.239407327e-22)
(99.98698714 0.02135533188 1.545799486e-20)
(99.98254682 0.013400083 -1.349308597e-20)
(99.97582473 0.04749491491 8.085543004e-21)
(99.96676548 0.03471114332 -2.099249377e-20)
(99.96918397 0.08464581416 -1.355938e-21)
(99.94062516 0.07582958198 4.038197458e-20)
(99.94649638 0.1016526393 -8.911863713e-21)
(99.95339619 0.1100586294 -1.90966181e-21)
(99.96384044 0.111378765 3.778523471e-21)
(99.97841075 0.07812280405 1.87699471e-21)
(99.96392778 0.1380066746 1.841470612e-21)
(99.95244448 0.1488498606 1.86933402e-21)
(99.91957859 0.1984738156 -3.769590316e-21)
(99.93976669 0.1962627384 -1.505823208e-23)
(99.94288256 0.2333807881 1.81701346e-21)
(99.92459597 0.2554344944 -1.407697135e-23)
(99.87564374 0.3363262634 0)
(99.9167174 0.3053675059 0)
(99.89353243 0.3492969503 -2.271839984e-21)
(99.91962052 0.3597334197 -4.4778922e-21)
(99.91017328 0.3771901912 -4.657094527e-23)
(99.88369535 0.4373553886 -1.00737881e-20)
(99.90210581 0.4155559114 -3.462706292e-21)
(99.8751572 0.5756322619 3.057645713e-23)
(99.89058241 0.5454783371 -2.300136883e-21)
(99.84041007 0.6670939644 -1.260786708e-20)
(99.86752429 0.6292211269 -3.068604415e-21)
(99.84209724 0.8391097171 -5.856816596e-21)
(99.86395208 0.7882995799 -5.496342274e-21)
(99.80014791 0.969466142 4.656883268e-22)
(99.83655001 0.9072531724 -7.035302752e-21)
(99.82256739 1.15600558 -8.174524182e-23)
(99.85130532 1.074656884 -4.710154707e-21)
(99.77902506 1.329958413 -6.106747224e-21)
(99.82336521 1.233193937 -3.552853095e-21)
(99.83677911 1.483379012 -5.229078649e-21)
(99.86981664 1.361146964 -7.080179629e-21)
(99.80194505 1.697003229 4.967632787e-20)
(99.84876821 1.555797759 -3.438121965e-21)
(99.98187362 0.007864244599 -2.317185772e-20)
(99.98268707 0.001007720468 -1.15805931e-20)
(99.9651415 0.02477330431 -5.024149911e-20)
(99.96665267 0.007984339834 1.093260805e-20)
(99.93504535 0.06085322722 1.109631567e-20)
(99.93294533 0.03036914848 -4.253976401e-20)
(99.89995681 0.1231814933 2.570615835e-20)
(99.87844843 0.07689134383 4.629839688e-20)
(99.86637611 0.1316900584 -4.153429473e-20)
(99.91202804 0.1349265029 -7.689539818e-21)
(99.86641732 0.1492654673 -5.664139328e-20)
(99.87686645 0.1719940435 -3.827702732e-21)
(99.85954027 0.2485922756 -7.529872461e-21)
(99.84398235 0.2349875691 -3.754623754e-21)
(99.78566919 0.2850282841 2.630371948e-20)
(99.80462698 0.3141190336 7.428354207e-21)
(99.78435109 0.4264735527 -6.533122775e-21)
(99.75815028 0.4124404719 4.79534337e-21)
(99.67063558 0.4990729049 -3.712995263e-20)
(99.72859451 0.5160256798 2.639536555e-21)
(99.684629 0.5521011575 -1.62066276e-20)
(99.70985957 0.6585901074 -6.765547138e-21)
(99.68856237 0.653527351 0)
(99.6345226 0.7224468692 6.967990036e-21)
(99.66039707 0.7340612252 -6.75394277e-21)
(99.60096956 1.022495458 3.325548982e-21)
(99.56835011 1.023839333 1.306058946e-20)
(99.4960257 1.129635039 6.480963326e-21)
(99.53678323 1.136047602 1.62435074e-20)
(99.49420473 1.512085825 0)
(99.44596622 1.52782727 0)
(99.357562 1.685328953 0)
(99.41922824 1.675191563 -3.425474492e-20)
(99.4326361 2.12478446 3.239882048e-19)
(99.36449785 2.172323722 3.369585312e-19)
(99.27722389 2.396157823 3.44220076e-19)
(99.36090107 2.346545936 6.32687356e-19)
(99.49444683 2.769139557 -5.132550963e-19)
(99.41068451 2.873561685 -3.811321058e-21)
(99.35440627 3.155108893 -4.978840502e-19)
(99.45139046 3.037013728 -4.880971806e-19)
(99.97141128 0.0003343339978 2.325833596e-20)
(99.98238724 -0.005523805448 -3.876458058e-21)
(99.93958763 0.01185061524 1.954616075e-20)
(99.95584085 -0.01103618432 2.715578212e-20)
(99.88260217 0.04653620477 -7.773807205e-21)
(99.90033382 0.001593562723 -3.864787272e-21)
(99.80758194 0.1273457951 0)
(99.80821577 0.04125265562 5.916843283e-21)
(99.77021197 0.1154051707 1.80577105e-20)
(99.81434761 0.1526630492 -5.292234298e-20)
(99.75861304 0.1431390593 1.357649868e-20)
(99.75798642 0.1867160904 0)
(99.70059481 0.3045360827 3.300813038e-22)
(99.69223154 0.2649927043 -3.01378122e-20)
(99.60685871 0.3045786885 -3.011753765e-20)
(99.61351131 0.3653679356 6.116734075e-20)
(99.53984678 0.547889696 -9.104771259e-20)
(99.52075553 0.4920727624 3.206008451e-20)
(99.39356527 0.5661637413 -6.082237541e-20)
(99.44070909 0.6444987424 -3.024585563e-20)
(99.38120861 0.6561808244 -4.975908179e-20)
(99.36092668 0.8712853665 7.223832958e-21)
(99.3399602 0.8364425205 1.437332786e-20)
(99.25566967 0.9042007346 3.625864266e-20)
(99.27792836 0.9489910625 7.165173512e-21)
(99.10736837 1.400570129 -1.110330348e-19)
(99.07075908 1.359009618 -1.157900068e-19)
(98.95370439 1.472512202 2.19699524e-19)
(98.99586923 1.525942156 1.541191633e-19)
(98.83464282 2.185005559 4.803561442e-19)
(98.76869057 2.145423403 9.832863291e-20)
(98.62326866 2.338712675 -9.882590395e-20)
(98.70211955 2.389187076 1.949124044e-19)
(98.669832 3.240836718 6.455963705e-19)
(98.56075052 3.232361047 -1.04758543e-20)
(98.40973358 3.536085352 -1.046410693e-20)
(98.544063 3.543754306 -1.041367817e-20)
(98.79934823 4.43341122 3.939206319e-20)
(98.6363087 4.495874259 -4.969552445e-19)
(98.55967736 4.90516651 -4.938773487e-19)
(98.72339231 4.797851956 3.697795319e-19)
(99.97121393 -0.01715220526 0)
(99.99858171 -0.01697249775 0)
(99.92217179 -0.02219417945 3.898174154e-21)
(99.96066018 -0.04550693896 0)
(99.83387693 -0.003132678109 9.803699452e-21)
(99.88246663 -0.05550679423 -3.415650916e-21)
(99.70918879 0.0707793464 1.740538575e-20)
(99.75152256 -0.03718522137 2.177976637e-20)
(99.67181079 0.04374612377 -6.567534072e-21)
(99.70485465 0.1193627262 2.338376009e-20)
(99.64208135 0.08076707163 1.90828677e-21)
(99.62540802 0.1377917202 -9.305296674e-21)
(99.50851548 0.2829138823 0)
(99.51795727 0.2201242238 -1.95457028e-20)
(99.40940045 0.2380129953 -1.601928919e-20)
(99.38965189 0.326041165 3.987803187e-21)
(99.23560225 0.5513299186 0)
(99.23780354 0.462901737 3.98737624e-21)
(99.07255214 0.503160991 -4.100764305e-21)
(99.08810954 0.646416088 2.004117245e-20)
(99.02270667 0.627380313 5.148738179e-21)
(98.91051644 0.9339744211 1.713775646e-19)
(98.90282591 0.8675057264 -5.934173348e-20)
(98.78683743 0.9205631767 -2.828795608e-20)
(98.79303612 0.9991839315 -1.183048036e-19)
(98.42370181 1.621402003 -1.10093268e-19)
(98.40091774 1.526385228 2.265895556e-19)
(98.22974776 1.637687356 0)
(98.25400531 1.75403496 0)
(97.85705355 2.739172519 0)
(97.79082255 2.622373193 0)
(97.55309389 2.842270983 9.743144512e-19)
(97.63351307 2.987704786 0)
(97.40108319 4.438319535 0)
(97.24363933 4.331664675 -8.327644813e-19)
(96.97157971 4.727210297 -5.400632954e-20)
(97.17564089 4.855278091 -4.720681008e-20)
(97.61409012 6.524767667 -5.567840938e-19)
(97.33468269 6.545690057 -1.666911173e-19)
(97.17793348 7.138818724 -7.719050214e-20)
(97.54851847 7.098386305 -7.651955491e-20)
(99.99220994 -0.04517051219 0)
(100.0412117 -0.03333854655 1.905874592e-21)
(99.92598056 -0.07869674196 -7.822561576e-21)
(99.99236834 -0.09527586926 -1.919579667e-21)
(99.80631533 -0.08925978667 8.047523506e-21)
(99.89259327 -0.1408509465 -3.907756604e-21)
(99.62375638 -0.0335851343 1.058131281e-20)
(99.72382532 -0.1603034893 2.809285687e-21)
(99.59793092 -0.08536840505 5.551409216e-24)
(99.59741306 0.02546774398 -7.885436154e-21)
(99.54576844 -0.04482416926 -7.921676024e-21)
(99.50200884 0.02136347543 0)
(99.31466494 0.1687886383 -1.601889374e-20)
(99.35185425 0.0893094659 0)
(99.22879453 0.07516977155 -8.491961164e-23)
(99.17025774 0.1811329166 -5.386341842e-23)
(98.90991172 0.4205732977 8.227438222e-21)
(98.95161725 0.3033365201 1.237426292e-20)
(98.75912098 0.3022381356 1.662851678e-20)
(98.72195407 0.4856153212 -1.267699675e-20)
(98.65911892 0.4432608434 -3.477794062e-20)
(98.41021373 0.8077344344 -6.330534789e-20)
(98.43242502 0.7142338174 1.199537449e-19)
(98.28543556 0.7437544727 1.225207017e-19)
(98.25588251 0.8533866006 1.24116076e-19)
(97.60851922 1.568822993 -2.30947797e-19)
(97.62286092 1.423925772 2.3575798e-19)
(97.39654935 1.503040598 0)
(97.37261625 1.678284725 2.383120933e-19)
(96.50231459 2.957435167 -3.232492541e-19)
(96.47670505 2.729392548 3.508950987e-19)
(96.11190084 2.917854919 -3.406300544e-21)
(96.14230767 3.197383384 1.217329456e-19)
(95.32933387 5.397218265 2.864519797e-19)
(95.15180708 5.090123684 -9.915651469e-21)
(94.65240649 5.494644171 -2.570785895e-19)
(94.88489522 5.893237968 1.264635637e-19)
(95.20635498 9.106390478 -4.168239024e-19)
(94.67219343 8.871394946 0)
(94.20702606 9.737886754 -2.840493198e-19)
(94.95253924 10.00503763 0)
(100.0449818 -0.08295812962 -1.309811793e-23)
(100.1194789 -0.05400574673 5.630067066e-23)
(99.96345791 -0.1561726917 1.992279128e-21)
(100.0614885 -0.1583639141 -6.816478672e-23)
(99.8160034 -0.2106986633 -1.045772177e-20)
(99.94416542 -0.2506971225 1.564532757e-21)
(99.57844517 -0.1970931489 -9.509753297e-21)
(99.74485519 -0.3224306967 -1.589465246e-20)
(99.57152104 -0.2682565065 -1.349705373e-20)
(99.52348777 -0.1319809593 -7.455649552e-21)
(99.49452292 -0.2320800459 -2.934674182e-21)
(99.41968604 -0.1662012591 3.968811003e-23)
(99.15669429 -0.041981117 1.20164706e-20)
(99.2292888 -0.1288136757 1.219365295e-20)
(99.10266693 -0.1810673772 6.028879305e-21)
(98.99907203 -0.07137880931 2.071072372e-20)
(98.62610245 0.1476224539 -2.085662876e-20)
(98.71931828 0.01213074417 -1.670868871e-20)
(98.51747535 -0.04117077741 -2.086432598e-20)
(98.4033566 0.1640863113 -1.462031679e-19)
(98.35711297 0.09381904937 6.82400158e-20)
(97.93943864 0.4689417219 -1.087708859e-22)
(98.00352298 0.3583374746 1.243385723e-19)
(97.83963291 0.3504239691 6.204458816e-20)
(97.76369916 0.4751393222 3.070323822e-19)
(96.78549456 1.148457492 2.504939615e-19)
(96.87213548 0.9634743698 2.439487695e-19)
(96.60302159 0.9775889358 3.805864818e-19)
(96.4874622 1.194287308 5.020264135e-19)
(94.93306153 2.490683239 -2.771007258e-19)
(95.02649007 2.171864352 -5.543069709e-19)
(94.56967563 2.227575981 -2.871515058e-19)
(94.43174945 2.617336478 -1.320237409e-19)
(92.31295742 5.065828112 -1.113188116e-19)
(92.31131125 4.48991786 -8.224748983e-20)
(91.5291551 4.615253114 -4.315292453e-20)
(91.49494394 5.372813548 -4.272836544e-20)
(89.51143587 10.74030924 0)
(88.89709019 9.577798977 -1.885234541e-19)
(87.14239176 10.7332884 0)
(87.40484896 10.02781292 0)
(88.59341008 12.02426111 0)
(87.69521255 12.07297759 0)
(100.1386978 -0.1286712378 1.37900221e-23)
(100.2408585 -0.07781313951 -2.823056619e-21)
(100.0455742 -0.2506403013 -5.130523153e-22)
(100.1765628 -0.2311622476 1.230680375e-21)
(99.87737652 -0.3604415334 -4.051334336e-21)
(100.0477995 -0.3781702093 -2.668637898e-21)
(99.59350161 -0.4050743344 8.336355486e-21)
(99.82850357 -0.5121717066 -9.186010993e-22)
(99.61260027 -0.4929887278 8.606662355e-22)
(99.50571913 -0.345728084 4.051549367e-21)
(99.51254965 -0.4671197625 8.424857794e-21)
(99.40457292 -0.4122218888 5.932433056e-21)
(99.07152562 -0.338069989 -2.032132948e-21)
(99.18351939 -0.4190862261 3.126912773e-21)
(99.06606314 -0.5096492918 2.067550156e-21)
(98.91559871 -0.4131597578 6.259685149e-21)
(98.44018006 -0.2585995208 -1.481583969e-20)
(98.58997622 -0.3901317546 -1.696436691e-20)
(98.39937758 -0.4978847932 -1.938961112e-21)
(98.20498782 -0.2987552961 1.574709615e-19)
(98.18572897 -0.3930595438 -1.841829605e-19)
(97.6151241 -0.08201462139 5.004401261e-19)
(97.72418242 -0.1896238089 2.464691859e-19)
(97.56963954 -0.2452473548 6.137809873e-20)
(97.44450359 -0.1289233676 2.479715051e-19)
(96.17090821 0.3265073161 -2.093479274e-19)
(96.34506911 0.1438113091 -2.173432524e-21)
(96.07907803 0.07444872639 1.617481656e-20)
(95.86194563 0.2747196988 1.619809732e-20)
(93.72442488 1.119067876 0)
(93.99160263 0.8029914787 7.569218691e-20)
(93.55731859 0.6800008582 4.013744139e-20)
(93.20739808 1.02358235 -1.748612747e-19)
(89.8103767 2.358444346 4.263903112e-19)
(90.22609831 1.781277495 2.323908918e-19)
(89.58206282 1.445972128 8.562290079e-19)
(88.96395389 2.040215848 4.208043245e-19)
(82.55726645 4.032724757 0)
(83.15750394 3.295136463 5.412803133e-19)
(82.46697733 2.665037939 0)
(81.58912987 3.41059416 3.047570169e-19)
(100.280165 -0.179420851 -1.606130569e-21)
(100.4101073 -0.1031962084 8.89987654e-22)
(100.1804961 -0.3558204054 -9.344250626e-22)
(100.3429839 -0.3088159749 -6.604136958e-22)
(100.0010135 -0.5277406314 4.768485503e-22)
(100.2100078 -0.5142768446 -2.359620751e-22)
(99.68527612 -0.6429414655 5.403770193e-22)
(99.98334683 -0.7156094169 8.014703877e-22)
(99.73390178 -0.7407279826 4.752554788e-22)
(99.5645425 -0.5979516467 1.397179484e-21)
(99.61436029 -0.7312768008 -1.307404394e-23)
(99.4761513 -0.6956679004 -1.307590347e-23)
(99.08881857 -0.6919018591 -2.061390545e-21)
(99.23792518 -0.7554732621 0)
(99.14101566 -0.8805274526 -1.009183154e-21)
(98.94962925 -0.8106855502 -1.065768125e-21)
(98.398817 -0.7524287496 1.722237806e-20)
(98.60072892 -0.8598125053 -1.095712465e-21)
(98.43998642 -1.015021938 -3.389135899e-23)
(98.17563021 -0.849533158 1.872723514e-19)
(98.18891349 -0.9566478853 -2.318591296e-23)
(97.5192049 -0.7690487549 2.848981386e-19)
(97.66301533 -0.854209609 -8.024981767e-21)
(97.53339329 -0.950182962 -2.413221068e-19)
(97.36853267 -0.8633688965 2.523556123e-19)
(95.95171686 -0.7296990311 -2.528773137e-19)
(96.18768987 -0.8675261615 1.053121848e-20)
(95.961757 -1.001658879 3.719146167e-20)
(95.67713566 -0.8636406819 -5.152818726e-19)
(93.39455232 -0.6727543475 2.852971645e-19)
(93.76824351 -0.8796418805 -1.56666563e-19)
(93.44034813 -1.102540022 3.058986805e-19)
(93.00292754 -0.9154450462 5.853393945e-20)
(89.78557014 -1.019058182 -4.178756479e-19)
(90.35809834 -1.262493504 2.290793114e-20)
(90.02822795 -1.672006141 1.218200013e-20)
(89.39263235 -1.511260134 1.114652753e-20)
(85.66808967 -3.047316589 2.208662089e-20)
(86.15790411 -3.005655856 -2.670556146e-20)
(86.14446457 -3.372729282 -9.822680922e-19)
(85.71831252 -3.503962849 -1.10787095e-18)
(100.4728835 -0.2316977244 1.834760337e-21)
(100.6286717 -0.1284556417 9.032374284e-22)
(100.3722912 -0.4641385785 2.744629331e-23)
(100.562254 -0.3860054197 9.430386227e-22)
(100.1919851 -0.6998814512 9.301914433e-23)
(100.4324045 -0.6491507332 8.749289718e-22)
(99.86112244 -0.8919042633 -1.327066916e-21)
(100.211702 -0.9177932738 -7.501971173e-22)
(99.93948612 -0.9919376738 6.268386888e-22)
(99.71063621 -0.8686518547 -9.519752811e-22)
(99.80589657 -1.003040958 -4.806750136e-22)
(99.64338375 -0.9928312766 -9.519153703e-22)
(99.2229197 -1.070943222 2.074311543e-24)
(99.40269726 -1.107444793 1.009139098e-21)
(99.33411043 -1.259076458 1.009148041e-21)
(99.11257248 -1.225254899 1.009129333e-21)
(98.52268017 -1.278680454 0)
(98.76455017 -1.347409048 0)
(98.6454058 -1.537364765 -3.473651053e-20)
(98.33275556 -1.42380082 0)
(98.37706304 -1.531627253 0)
(97.66269717 -1.490008145 1.479865009e-20)
(97.82971002 -1.542112005 6.331569908e-21)
(97.73248757 -1.665352787 -2.513240747e-19)
(97.54371757 -1.616527212 -2.384940948e-19)
(96.12641708 -1.79162744 -3.044352671e-19)
(96.39841841 -1.870358441 5.215562028e-19)
(96.2199779 -2.040707742 1.000011911e-19)
(95.91381659 -1.970950288 0)
(93.78098791 -2.2671346 -1.932048233e-19)
(94.17482734 -2.364707628 -2.851621399e-19)
(93.94251289 -2.61148654 2.003827544e-20)
(93.5143366 -2.540592385 -7.57588102e-20)
(90.91211619 -3.196819114 1.212053995e-18)
(91.41292024 -3.262489578 -3.56734967e-19)
(91.21928775 -3.598438047 3.986973038e-19)
(90.72275875 -3.580353976 -4.231539462e-19)
(88.44512925 -4.793318671 -4.126807593e-19)
(88.70129591 -4.744665095 6.136538067e-21)
(88.68169666 -4.945863327 0)
(88.3935824 -4.96469799 -4.440850273e-19)
(88.47344583 -5.01677349 0)
(100.7166573 -0.2820127743 7.211006338e-24)
(100.8947174 -0.151989867 2.380407537e-21)
(100.620384 -0.5681625544 1.772350361e-21)
(100.8322336 -0.4576401821 8.978602996e-22)
(100.4497479 -0.8638462 5.884712725e-23)
(100.7114208 -0.772743755 -4.020156423e-23)
(100.1196826 -1.133209548 -1.795087575e-21)
(100.5110488 -1.10711968 -8.167025127e-22)
(100.2246088 -1.228922905 -4.513858859e-22)
(99.94461447 -1.136306838 -4.670707705e-22)
(100.0826416 -1.261944724 -9.324597687e-22)
(99.90398887 -1.279491193 7.376102051e-23)
(99.47310021 -1.441057036 0)
(99.67444195 -1.444846592 9.375588591e-22)
(99.63834778 -1.613504788 1.861518433e-21)
(99.39900311 -1.619981845 1.003418866e-21)
(98.80561906 -1.785763268 -3.680419041e-20)
(99.07240528 -1.808023858 -1.240324381e-21)
(99.00017375 -2.019204392 2.872482347e-20)
(98.65954692 -1.965711815 -1.52474408e-19)
(98.73008972 -2.065401675 1.556159019e-19)
(98.01423939 -2.165185797 2.433475603e-19)
(98.19319458 -2.182158981 1.243917358e-21)
(98.12985467 -2.320611705 -2.384901027e-19)
(97.92997141 -2.31045094 -6.603750651e-23)
(96.59646456 -2.732464603 -2.929823365e-19)
(96.87852164 -2.756720976 1.282945137e-22)
(96.74939809 -2.942668793 -3.163348479e-20)
(96.44034787 -2.930714571 -3.161789913e-20)
(94.52182777 -3.525503902 1.477381741e-19)
(94.90433992 -3.54943095 9.900551951e-21)
(94.73944987 -3.794800262 1.522644138e-19)
(94.33443507 -3.791156837 -8.912981903e-20)
(92.11943577 -4.610665502 7.414654011e-19)
(92.55804684 -4.61573714 1.576890519e-20)
(92.41233465 -4.905392723 3.620121461e-19)
(91.97769426 -4.91747066 7.31556585e-19)
(90.09190108 -5.850044152 3.670728385e-19)
(90.29201353 -5.824112098 -2.734573533e-21)
(90.25877275 -5.969492594 -8.544959482e-20)
(90.03757766 -5.974301434 7.932220571e-19)
(90.09246876 -6.01846135 1.500331038e-22)
(101.0078735 -0.3270254887 3.271799866e-21)
(100.9202464 -0.6610186934 -8.732252962e-22)
(100.7668522 -1.0085214 -8.73196824e-22)
(100.4488873 -1.352182029 0)
(100.2566909 -1.382057848 5.844024037e-24)
(100.2455516 -1.533427542 1.776749193e-21)
(99.82724495 -1.773435238 -9.357463185e-22)
(100.0402238 -1.742411249 -1.012108678e-21)
(99.79246008 -1.96555336 9.947791498e-22)
(99.22531319 -2.233906497 2.982522955e-20)
(99.50230637 -2.207655117 2.865740702e-21)
(99.12622101 -2.434928241 2.991929468e-19)
(99.21721373 -2.519925691 -3.002126628e-19)
(98.53179052 -2.745756058 2.345928399e-19)
(98.71267331 -2.728968189 2.232994929e-19)
(98.6818281 -2.871853331 -1.651855179e-19)
(98.48167408 -2.898113469 2.864860988e-21)
(97.27556456 -3.508052702 -1.234800165e-19)
(97.5544202 -3.485004242 1.719930713e-19)
(97.47049573 -3.673816765 -6.087312744e-20)
(97.16909359 -3.710411836 3.722454674e-19)
(95.45308181 -4.511938723 -1.393561344e-19)
(95.82225479 -4.481949912 -1.404695534e-19)
(95.71072988 -4.72252891 -1.391666374e-19)
(95.32058579 -4.769037626 6.012370889e-21)
(93.29898385 -5.720371097 9.570162422e-21)
(93.72204745 -5.691603247 -3.299798269e-19)
(93.60825694 -5.97287615 -1.009007684e-20)
(93.17445148 -6.010133555 -3.238729786e-19)
(91.33362045 -6.919601181 1.835904438e-22)
(91.5281272 -6.914364366 6.554268972e-19)
(91.49125562 -7.073156645 8.314466842e-21)
(91.25394797 -7.047608791 2.219322513e-19)
(91.30547343 -7.10702894 2.218994889e-19)
(85.698881 -2.631402533 1.007292505e-18)
(85.17346948 -3.174188849 6.252967713e-19)
(85.14836612 -2.647476845 1.007341697e-18)
(88.46188544 -4.582014515 7.760345545e-21)
(88.19667263 -4.633783271 -4.129223027e-19)
(88.14949847 -4.815056925 1.79408611e-19)
(88.23227847 -4.866726111 -2.750317615e-19)
(90.12264413 -5.701677474 3.666482007e-19)
(89.91780846 -5.731809791 2.752155294e-19)
(89.86631675 -5.859682018 2.446418515e-19)
(89.92420614 -5.903447216 2.441438437e-19)
(91.37186367 -6.76430206 -6.629679689e-19)
(91.17924489 -6.769838963 7.457260405e-21)
(91.10054457 -6.894926688 1.540188373e-19)
(91.15084336 -6.952802669 -5.982550131e-19)
(83.39639944 4.558512955 -5.253674446e-19)
(81.83984872 4.98211698 -3.043958092e-19)
(82.94281321 5.38947572 0)
(91.12820213 -2.843844489 5.295016516e-20)
(90.38820569 -3.160680061 9.214769312e-19)
(90.60604665 -2.749062208 1.243711305e-18)
(88.71723125 -4.536233576 4.278571481e-19)
(88.47266284 -4.361190919 -4.205838041e-19)
(88.74934945 -4.32707773 1.511896323e-20)
(86.19149474 -2.577999355 9.519238265e-19)
(86.65347499 -2.58525723 4.754300233e-19)
(86.59425017 -2.940572095 4.76169308e-19)
(92.27317788 -4.313573211 2.708437744e-20)
(91.67611163 -4.618628009 -1.80597898e-22)
(91.82354939 -4.298321411 -9.488276867e-21)
(90.32257895 -5.676701164 -3.649782531e-21)
(90.15070507 -5.550304137 -3.641069052e-19)
(90.36148712 -5.524011959 3.612169405e-19)
(88.98236333 -4.503017932 8.115214306e-19)
(88.94939425 -4.701641335 1.086861498e-20)
(89.34088265 -5.366399814 -3.752099315e-19)
(89.36278114 -5.189011094 -3.869905087e-19)
(89.12938133 -5.233195318 2.840874686e-19)
(89.08064914 -5.385302856 2.551256061e-19)
(89.1529454 -5.431126592 1.083264127e-18)
(88.51862944 -6.09845667 1.286374438e-19)
(88.38759847 -6.140183039 2.973333113e-19)
(88.40008031 -6.055141769 1.782291856e-19)
(88.53749503 -6.014398678 -8.811151482e-20)
(88.3472114 -6.130500306 -5.901067527e-20)
(87.51227504 -5.606815741 -7.34966477e-19)
(87.44318611 -5.689138562 -1.844956447e-19)
(87.6613556 -5.581902847 -4.699563287e-19)
(87.63313172 -5.681448033 -5.523782589e-19)
(87.48303347 -5.720762819 1.816646676e-19)
(93.42244733 -5.437951865 6.492581951e-19)
(92.86806767 -5.746963305 4.217612525e-19)
(92.998906 -5.457800693 3.349698832e-19)
(91.56648493 -6.757556755 -7.959782017e-21)
(91.4111155 -6.610764398 -3.720213701e-22)
(91.60402556 -6.60297541 -3.260562716e-19)
(90.52809152 -5.653326186 -3.651597974e-21)
(90.48787022 -5.802584467 -7.036162392e-19)
(90.72676553 -6.34741131 -4.316718772e-19)
(90.76592571 -6.202853326 -8.380051373e-20)
(90.57484863 -6.216993134 -8.78158634e-20)
(90.50792622 -6.335059137 3.294955399e-19)
(90.55661425 -6.383961983 -5.849252283e-20)
(89.68798402 -6.789903396 -2.531597768e-19)
(89.60363625 -6.781555409 -5.213830881e-19)
(89.66646571 -6.758908511 0)
(89.73809911 -6.763112315 2.482831036e-19)
(89.26573812 -6.400155775 3.683810288e-21)
(89.18318068 -6.447554186 1.268183207e-21)
(89.38689572 -6.38205147 1.911313188e-21)
(89.34116562 -6.442680978 3.518180605e-21)
(89.2071736 -6.46313295 1.266862557e-21)
(91.76025454 -6.749619284 3.23341905e-19)
(91.72504615 -6.907191107 -3.136396274e-19)
(92.05399385 -7.512791406 2.543251576e-19)
(92.0515671 -7.414674555 4.416503905e-19)
(91.94215468 -7.519117706 7.718299938e-19)
(91.95386579 -7.434761385 5.142333873e-19)
(90.47481177 -8.09176136 0)
(90.28141003 -8.072975492 2.735496285e-19)
(90.45368616 -8.04085337 0)
(90.59017986 -8.053423194 0)
(90.0881679 -7.410112242 2.488878718e-19)
(89.99150274 -7.442671198 2.515326973e-19)
(90.18955075 -7.415893035 2.460433199e-19)
(90.11978646 -7.450427145 -2.52111286e-19)
(79.24125993 -4.998190708 1.461794333e-19)
(79.95628398 -4.748536361 1.458699191e-19)
(80.19078738 -5.346074493 2.837181535e-19)
(79.38682993 -5.723794283 -5.57882666e-19)
(79.73677126 -5.763176698 9.755180277e-20)
(84.6050988 -5.683074626 0)
(84.419732 -5.496127497 -4.491463586e-21)
(84.19075213 -5.726787583 0)
(84.35107858 -5.958857001 0)
(84.47421209 -5.904624249 0)
(73.70346156 4.230264878 0)
(72.79313047 5.237760277 0)
(72.85141038 3.208308405 0)
(71.53502919 4.240399478 0)
(79.04454404 -4.326749609 0)
(78.50948773 -5.386826829 0)
(78.22465521 -4.518684141 0)
(87.36514436 -5.642330748 -3.053542861e-19)
(87.39617787 -5.534414626 9.284390865e-20)
(87.54241026 -5.509053152 9.012375731e-20)
(87.32816945 -5.612149187 6.20631223e-20)
(86.53381888 -5.310800893 3.855368625e-19)
(86.53128311 -5.231906185 7.74265521e-19)
(86.67266946 -5.163447017 3.852299124e-19)
(86.67550032 -5.250737322 3.854679381e-19)
(87.31797314 -4.088783321 -4.505859432e-19)
(87.63859137 -4.033236832 7.664583169e-21)
(87.63642677 -4.281776394 -1.079996359e-19)
(87.35721715 -4.366656831 0)
(86.39111891 -5.382122216 0)
(86.52652905 -5.390895553 3.950317978e-19)
(86.35198672 -5.447550476 -4.119519357e-19)
(86.39447583 -5.446893298 4.116478364e-19)
(87.35144448 -5.695532571 5.540759652e-22)
(87.26006751 -5.703771478 -2.780452699e-19)
(87.29130314 -5.656048751 -2.768222975e-19)
(84.80381038 -5.473724153 0)
(84.9505092 -5.623739521 -4.157512217e-19)
(84.7133977 -5.86241814 0)
(84.81831552 -5.809300964 -1.101360842e-21)
(86.38874127 -5.301971562 3.878496915e-19)
(86.24422794 -5.383271563 1.98351549e-21)
(86.2159216 -5.451100285 0)
(86.2615119 -5.449649609 0)
(89.13356135 -6.421488825 3.64630842e-19)
(89.18801555 -6.358695851 -3.405106061e-19)
(89.30895421 -6.338071698 3.354779674e-19)
(89.10959145 -6.406265779 1.749246352e-21)
(88.46497891 -6.168678712 3.23220969e-19)
(88.65240365 -6.057952697 5.586124549e-19)
(88.63153155 -6.137805902 -1.326404238e-19)
(88.50303316 -6.176725591 5.000099509e-19)
(89.56657246 -5.323798071 -1.730546328e-21)
(89.54313348 -5.492560701 -3.819378802e-19)
(89.29306052 -5.510772691 -9.183996117e-19)
(89.36197893 -5.555436052 -9.134544418e-19)
(88.38149197 -6.186605704 4.016541331e-19)
(88.43479733 -6.203842839 3.99546643e-19)
(88.35340266 -6.223052948 1.350276145e-19)
(89.10606985 -6.452634078 2.718926916e-19)
(89.02040416 -6.45785861 -1.011610605e-20)
(89.06751569 -6.432061151 2.71761571e-19)
(87.40702126 -5.735419397 8.290153547e-19)
(87.31720687 -5.744901237 -2.831018833e-19)
(88.29560337 -6.205951214 2.709410497e-19)
(88.31807341 -6.168090542 2.678750547e-19)
(89.96098146 -7.401871103 0)
(90.05690585 -7.368933871 0)
(90.15760801 -7.374830138 -2.48827005e-19)
(89.62242818 -6.813571273 -2.539808956e-19)
(89.76083892 -6.795778494 -5.013939642e-19)
(89.70900114 -6.823137671 -2.522140741e-19)
(90.91682432 -6.336553837 -2.854164385e-21)
(90.87691075 -6.483110574 -3.400218142e-19)
(90.65545481 -6.46586457 -6.151548904e-19)
(90.70362356 -6.517300229 -2.289511751e-19)
(89.53732755 -6.805275534 -5.235580181e-19)
(89.55403281 -6.838643984 -6.149158626e-22)
(89.44446326 -6.824433886 -2.720473451e-19)
(89.86140396 -7.435189939 0)
(89.67796689 -7.421086287 0)
(89.8323674 -7.393779049 0)
(89.13989303 -6.473188959 0)
(89.05565291 -6.478342545 0)
(89.43104954 -6.792921773 -2.58193968e-19)
(89.52038417 -6.774913337 -5.251573256e-19)
(90.29799323 -8.123650395 0)
(90.61648162 -8.104243376 0)
(90.50122062 -8.14192939 0)
(92.02992696 -7.598650905 2.575448376e-19)
(90.10143746 -8.102987011 2.76496345e-19)
(90.11800387 -8.149782431 0)
(89.77403452 -8.12118273 0)
(89.89172563 -7.475448653 2.571139965e-19)
(89.70611105 -7.461947654 -2.617020225e-19)
(89.77510853 -8.076697717 -7.761322424e-21)
(90.09588692 -8.053161294 -2.213616137e-19)
(90.1760761 -0.5979555813 -4.475082488e-19)
(89.11247674 -0.7783487234 -1.956083268e-19)
(89.60670503 -0.277904944 -5.30739729e-21)
(85.76534882 -2.146377534 5.115162435e-19)
(86.271482 -2.187298321 9.646053327e-19)
(84.00027854 3.812367465 1.643449004e-20)
(84.48498534 3.154389806 2.983104565e-20)
(83.8808554 2.67729382 -5.714795638e-19)
(83.48031624 -0.7329950013 0)
(83.75148996 -0.07812955553 1.074244439e-18)
(82.60267652 -0.5779172782 0)
(82.99481381 0.2349466779 0)
(79.76741314 -4.0633993 0)
(78.91964419 -3.542441333 0)
(79.65561147 -3.444519132 0)
(74.76843484 5.084820265 0)
(75.52358038 4.1761805 0)
(74.75356815 3.398604129 0)
(87.3178721 -3.821756271 -4.338048042e-19)
(87.01654662 -4.18978432 -5.649099894e-19)
(86.9664281 -3.880190638 -4.507362988e-19)
(86.3751431 -5.220811422 1.17139341e-18)
(86.52004863 -5.142204338 3.873576686e-19)
(84.61725573 -5.279789321 -4.480543937e-21)
(84.83760885 -5.088378521 0)
(84.98369073 -5.283527819 -4.235888911e-19)
(84.20309515 -5.264659866 9.196047642e-19)
(84.45485285 -5.060774163 -4.887324214e-21)
(80.42276293 -3.909546216 5.560933286e-19)
(80.57048162 -4.455736891 0)
(84.20521671 -0.9192255662 -1.060570262e-18)
(84.02800024 -1.517900369 5.285137379e-19)
(83.25040966 -1.489236849 0)
(82.45769536 -8.340151237 9.513325205e-19)
(82.6798743 -8.132919747 1.537710169e-19)
(82.78655915 -8.078423418 -4.733747228e-19)
(82.46376717 -8.407293009 -2.039893062e-19)
(60.70088427 5.386458115 0)
(59.50795793 6.736671639 1.545758669e-18)
(59.6001202 3.88810872 0)
(57.75984935 5.493534138 -1.10868313e-19)