/*--------------------------------*- C++ -*----------------------------------*\
| =========                 |                                                 |
| \\      /  F ield         | OpenFOAM: The Open Source CFD Toolbox           |
|  \\    /   O peration     | Version:  v2012                                 |
|   \\  /    A nd           | Website:  www.openfoam.com                      |
|    \\/     M anipulation  |                                                 |
\*---------------------------------------------------------------------------*/
FoamFile
{
    version     2.0;
    format      ascii;
    class       pointVectorField;
    location    "3.2";
    object      pointDisplacement;
}
// * * * * * * * * * * * * * * * * * * * * * * * * * * * * * * * * * * * * * //

dimensions      [0 1 0 0 0 0 0];


internalField   nonuniform List<vector> 
6962
(
(0 0 0)
(0 0 0)
(0 0 0)
(0 0 0)
(0 0 0)
(0 0 0)
(0 0 0)
(0 0 0)
(0 0 0)
(0 0 0)
(-0.0005263490451 0.0002590501184 5.606626274e-15)
(0 0 0)
(0 0 0)
(0 0 0)
(0 0 0)
(0 0 0)
(0 0 0)
(0 0 0)
(0 0 0)
(0 0 0)
(0 0 0)
(0 0 0)
(0 0 0)
(0 0 0)
(0 0 0)
(-0.0009357655032 0.0003025653143 9.964251646e-15)
(-0.0008531333968 0.0003119947938 9.076073226e-15)
(-0.0007301465771 0.0002977954417 7.771561172e-15)
(-0.003630884336 0.0016309822 4.241051954e-14)
(-0.003900901605 0.001571926743 4.554689959e-14)
(-0.005914583479 0.002511319451 7.259470802e-14)
(-0.005584624553 0.002642611957 6.855627177e-14)
(-0.01186081369 0.006668795463 1.717237463e-13)
(-0.01207914345 0.006096625572 1.747768597e-13)
(-0.01372135981 0.007380215091 2.111227859e-13)
(-0.01354233074 0.00811373943 2.08499884e-13)
(-0.01606261352 0.01193022781 3.05686032e-13)
(-0.01611454742 0.01074236106 3.063521659e-13)
(-0.01601478145 0.01158854214 3.305272722e-13)
(-0.01592671349 0.01284297928 3.291256157e-13)
(-0.01287016992 0.01396615957 0)
(-0.01289213347 0.01254245043 0)
(-0.01138035763 0.01251816984 0)
(-0.01136951226 0.01322977853 0)
(-0.01135886425 0.01394145665 0)
(-0.006840570778 0.01386889665 0)
(-0.00684535955 0.01351341267 0)
(-0.006471033289 0.0135076505 0)
(-0.006466279234 0.0138630358 0)
(0 0 0)
(0 0 0)
(0 0 0)
(0 0 0)
(0 0 0)
(0 0 0)
(0 0 0)
(0 0 0)
(0 0 0)
(0 0 0)
(0 0 0)
(0 0 0)
(0 0 0)
(0 0 0)
(-0.0008874062757 0.0001376305401 9.492406861e-15)
(-0.001002840964 0.0001980994312 1.072752998e-14)
(-0.001071596039 0.0002571333936 1.146305273e-14)
(-0.004319873543 0.001145214503 5.068168107e-14)
(-0.004181005102 0.0009135685575 4.904410211e-14)
(-0.006234124656 0.001438681251 7.685518888e-14)
(-0.006400451314 0.001790667556 7.890910148e-14)
(-0.01261737776 0.004214229901 1.834088437e-13)
(-0.01241343224 0.003427838142 1.803834859e-13)
(-0.01402992655 0.004135238215 2.167710456e-13)
(-0.01422919899 0.005069942018 2.19949059e-13)
(-0.01641497273 0.007259875274 3.136102489e-13)
(-0.01628106131 0.005959987131 3.107791802e-13)
(-0.01605425092 0.006378030105 3.327615961e-13)
(-0.01615157569 0.00775414808 3.351485756e-13)
(-0.01279099056 0.008254598056 0)
(-0.01281454558 0.00683068365 0)
(-0.01129854807 0.006805605352 0)
(-0.01128677329 0.007517397175 0)
(-0.01127499305 0.008229519757 0)
(-0.006727066664 0.008154285955 0)
(-0.006738846909 0.007442163373 0)
(-0.00598088123 0.007429624771 0)
(-0.005974988371 0.007785851441 0)
(-0.005969100984 0.008141747353 0)
(-0.006348083824 0.008148016654 0)
(0 0 0)
(0 0 0)
(0 0 0)
(0 0 0)
(0 0 0)
(0 0 0)
(0 0 0)
(0 0 0)
(0 0 0)
(0 0 0)
(0 0 0)
(0 0 0)
(0 0 0)
(0 0 0)
(-0.0002072910404 -3.068245854e-06 2.220446049e-15)
(-0.0003761207679 1.040909768e-05 4.024558464e-15)
(-0.0005587806754 3.920487789e-05 5.967448757e-15)
(-0.003204055583 0.0002513070289 3.759492717e-14)
(-0.002737679219 8.665731286e-05 3.212707878e-14)
(-0.00445725541 0.0001526103983 5.496991751e-14)
(-0.005041610817 0.0004207800137 6.217248938e-14)
(-0.0108779033 0.001112072037 1.580541253e-13)
(-0.01008593044 0.0004447545925 1.465771948e-13)
(-0.01169420425 0.0005614025202 1.806610417e-13)
(-0.01249802861 0.00137246108 1.930261506e-13)
(-0.01511863627 0.002082729842 2.881445083e-13)
(-0.01445410006 0.0008903115092 2.754879658e-13)
(-0.01455150748 0.0009736221114 3.009398286e-13)
(-0.01511930243 0.002260104419 3.127220705e-13)
(-0.01274046535 0.002528336902 3.553130012e-13)
(-0.01254413619 0.001097551666 3.49442697e-13)
(-0.01129169633 0.001097953905 3.561595463e-13)
(-0.0113621501 0.002531580057 3.58990615e-13)
(-0.006821297685 0.002457966816 0)
(-0.006844858176 0.001033721653 0)
(-0.005328893741 0.001008643901 0)
(-0.00530533325 0.002432889065 0)
(-0.006063332005 0.002445428214 0)
(0 0 0)
(0 0 0)
(0 0 0)
(0 0 0)
(0 0 0)
(0 0 0)
(0 0 0)
(0 0 0)
(0 0 0)
(0 0 0)
(0 0 0)
(0 0 0)
(0 0 0)
(0 0 0)
(0 0 0)
(0 0 0)
(-5.09181713e-06 -5.077170322e-07 5.551115123e-17)
(-0.001218329995 -0.0001326314937 1.430799923e-14)
(-0.0007648639089 -0.0001191146932 8.978928712e-15)
(-0.001778540202 -0.0002901736391 2.19685381e-14)
(-0.002442605075 -0.000277820716 3.015643291e-14)
(-0.007097973538 -0.0009299733065 1.033478858e-13)
(-0.005982083805 -0.001134668628 8.718026301e-14)
(-0.007394254596 -0.001483902471 1.145750161e-13)
(-0.008586655238 -0.001187022839 1.329214516e-13)
(-0.01162004127 -0.001951305629 2.219197048e-13)
(-0.01043274871 -0.002556301875 1.995070775e-13)
(-0.01087485902 -0.002886412909 2.256111964e-13)
(-0.0119912048 -0.00218041947 2.484262795e-13)
(-0.01110496228 -0.002728585992 3.09349768e-13)
(-0.01032732848 -0.003693600099 2.880751193e-13)
(-0.009593529428 -0.003890624724 3.026467965e-13)
(-0.01024256828 -0.002859313681 3.227140777e-13)
(-0.006607562842 -0.003110142128 3.444605712e-13)
(-0.00629040691 -0.004269945773 3.282374372e-13)
(-0.004960907763 -0.004334072156 3.315958619e-13)
(-0.005196768865 -0.003156094471 3.470557175e-13)
(0 0 0)
(0 0 0)
(0 0 0)
(0 0 0)
(0 0 0)
(0 0 0)
(0 0 0)
(0 0 0)
(0 0 0)
(0 0 0)
(0 0 0)
(0 0 0)
(0 0 0)
(0 0 0)
(0 0 0)
(0 0 0)
(0 0 0)
(-4.470221133e-06 -1.323500822e-06 5.551115123e-17)
(0 0 0)
(-4.603251614e-05 -1.659625357e-05 5.689893001e-16)
(-0.0002720305394 -8.468477811e-05 3.358424649e-15)
(-0.002743797592 -0.001005188527 4.010680676e-14)
(-0.001829678224 -0.0007782586418 2.677025268e-14)
(-0.002723955979 -0.001231460165 4.242439733e-14)
(-0.003798882358 -0.001477963593 5.909162049e-14)
(-0.006498045992 -0.0031107538 1.24983357e-13)
(-0.005184300621 -0.002889857341 9.994782779e-14)
(-0.005737655673 -0.003470237582 1.201261313e-13)
(-0.007052291427 -0.003661297473 1.472433286e-13)
(-0.00731275233 -0.005112272469 2.056965709e-13)
(-0.006181585077 -0.005039619611 1.745686928e-13)
(-0.005913792729 -0.005461689767 1.890987367e-13)
(-0.006939305298 -0.005494005888 2.208927485e-13)
(-0.004738306248 -0.006256089928 2.505079477e-13)
(-0.004092069398 -0.006313543876 2.179506575e-13)
(-0.003239967822 -0.006446533097 2.22238894e-13)
(-0.003750686715 -0.006375853161 2.548378175e-13)
(0 0 0)
(0 0 0)
(0 0 0)
(0 0 0)
(0 0 0)
(0 0 0)
(0 0 0)
(0 0 0)
(0 0 0)
(0 0 0)
(0 0 0)
(0 0 0)
(0 0 0)
(0 0 0)
(0 0 0)
(0 0 0)
(0 0 0)
(0 0 0)
(0 0 0)
(0 0 0)
(0 0 0)
(-0.0001181110326 -7.108422591e-05 1.734723476e-15)
(0 0 0)
(-8.585806236e-05 -6.040781739e-05 1.346145417e-15)
(-0.0004255895977 -0.0002728130331 6.64746036e-15)
(-0.001813196444 -0.001441718737 3.519406988e-14)
(-0.001011694633 -0.0008846132694 1.967870311e-14)
(-0.001362466696 -0.001295770238 2.883804306e-14)
(-0.002243737812 -0.001939211832 4.736488979e-14)
(-0.002931497716 -0.003432704936 8.390510509e-14)
(-0.002021253271 -0.002609876405 5.809241976e-14)
(-0.002049521912 -0.003006156465 6.69325706e-14)
(-0.002908908421 -0.00386609895 9.449385718e-14)
(-0.002128483668 -0.004773571777 1.165734176e-13)
(-0.001549319455 -0.003850790826 8.568146193e-14)
(-0.001230006839 -0.003984031794 8.862355294e-14)
(-0.001686843462 -0.004915573009 1.199734756e-13)
(0 0 0)
(0 0 0)
(0 0 0)
(0 0 0)
(0 0 0)
(0 0 0)
(0 0 0)
(0 0 0)
(0 0 0)
(0 0 0)
(0 0 0)
(0 0 0)
(0 0 0)
(0 0 0)
(0 0 0)
(0 0 0)
(0 0 0)
(0 0 0)
(0 0 0)
(0 0 0)
(0 0 0)
(0 0 0)
(0 0 0)
(0 0 0)
(0 0 0)
(0 0 0)
(0 0 0)
(0 0 0)
(-1.327818304e-05 -1.605021447e-05 2.775557562e-16)
(-0.000237785719 -0.0003925875265 6.89726054e-15)
(-2.678448395e-05 -4.737000754e-05 7.771561172e-16)
(-5.848316247e-05 -0.0001178537148 1.942890293e-15)
(-0.0003009374325 -0.0005657779204 9.93649607e-15)
(-0.0003080998677 -0.0009930744589 1.745825706e-14)
(-9.989440606e-05 -0.0003460734513 5.689893001e-15)
(-8.554249111e-05 -0.000389916694 6.411537967e-15)
(-0.0002518265838 -0.001066143088 1.873501354e-14)
(0 0 0)
(0 0 0)
(0 0 0)
(0 0 0)
(0 0 0)
(0 0 0)
(0 0 0)
(0 0 0)
(0 0 0)
(0 0 0)
(0 0 0)
(0 0 0)
(0 0 0)
(0 0 0)
(0 0 0)
(0 0 0)
(0 0 0)
(0 0 0)
(0 0 0)
(0 0 0)
(0 0 0)
(0 0 0)
(0 0 0)
(0 0 0)
(0 0 0)
(0 0 0)
(0 0 0)
(0 0 0)
(0 0 0)
(0 0 0)
(0 0 0)
(0 0 0)
(0 0 0)
(0 0 0)
(0 0 0)
(0 0 0)
(0 0 0)
(0 0 0)
(0 0 0)
(0 0 0)
(0 0 0)
(0 0 0)
(0 0 0)
(0 0 0)
(0 0 0)
(0 0 0)
(0 0 0)
(0 0 0)
(0 0 0)
(0 0 0)
(0 0 0)
(0 0 0)
(0 0 0)
(0 0 0)
(0 0 0)
(0 0 0)
(0 0 0)
(0 0 0)
(0 0 0)
(0 0 0)
(0 0 0)
(0 0 0)
(0 0 0)
(0 0 0)
(0 0 0)
(0 0 0)
(0 0 0)
(0 0 0)
(0 0 0)
(0 0 0)
(0 0 0)
(0 0 0)
(0 0 0)
(0 0 0)
(0 0 0)
(0 0 0)
(0 0 0)
(0 0 0)
(0 0 0)
(0 0 0)
(0 0 0)
(0 0 0)
(0 0 0)
(0 0 0)
(0 0 0)
(0 0 0)
(0 0 0)
(0 0 0)
(0 0 0)
(0 0 0)
(0 0 0)
(0 0 0)
(0 0 0)
(0 0 0)
(0 0 0)
(0 0 0)
(0 0 0)
(0 0 0)
(0 0 0)
(0 0 0)
(0 0 0)
(0 0 0)
(0 0 0)
(0 0 0)
(0 0 0)
(0 0 0)
(0 0 0)
(0 0 0)
(0 0 0)
(0 0 0)
(0 0 0)
(0 0 0)
(0 0 0)
(0 0 0)
(0 0 0)
(0 0 0)
(0 0 0)
(0 0 0)
(0 0 0)
(0 0 0)
(0 0 0)
(0 0 0)
(0 0 0)
(0 0 0)
(0 0 0)
(0 0 0)
(0 0 0)
(0 0 0)
(0 0 0)
(0 0 0)
(0 0 0)
(0 0 0)
(0 0 0)
(0 0 0)
(0 0 0)
(0 0 0)
(0 0 0)
(0 0 0)
(0 0 0)
(0 0 0)
(0 0 0)
(0 0 0)
(0 0 0)
(0 0 0)
(0 0 0)
(0 0 0)
(0 0 0)
(0 0 0)
(0 0 0)
(0 0 0)
(0 0 0)
(0 0 0)
(0 0 0)
(0 0 0)
(0 0 0)
(0 0 0)
(0 0 0)
(0 0 0)
(0 0 0)
(0 0 0)
(0 0 0)
(0 0 0)
(0 0 0)
(0 0 0)
(0 0 0)
(0 0 0)
(0 0 0)
(0 0 0)
(0 0 0)
(0 0 0)
(0 0 0)
(0 0 0)
(0 0 0)
(0 0 0)
(0 0 0)
(0 0 0)
(0 0 0)
(0 0 0)
(0 0 0)
(0 0 0)
(0 0 0)
(0 0 0)
(0 0 0)
(0 0 0)
(0 0 0)
(0 0 0)
(0 0 0)
(0 0 0)
(0 0 0)
(0 0 0)
(0 0 0)
(0 0 0)
(0 0 0)
(0 0 0)
(0 0 0)
(0 0 0)
(0 0 0)
(0 0 0)
(0 0 0)
(0 0 0)
(0 0 0)
(0 0 0)
(0 0 0)
(0 0 0)
(0 0 0)
(0 0 0)
(0 0 0)
(0 0 0)
(0 0 0)
(0 0 0)
(0 0 0)
(0 0 0)
(0 0 0)
(0 0 0)
(0 0 0)
(0 0 0)
(0 0 0)
(0 0 0)
(0 0 0)
(0 0 0)
(0 0 0)
(0 0 0)
(0 0 0)
(0 0 0)
(0 0 0)
(0 0 0)
(0 0 0)
(0 0 0)
(0 0 0)
(0 0 0)
(0 0 0)
(0 0 0)
(0 0 0)
(0 0 0)
(0 0 0)
(0 0 0)
(0 0 0)
(0 0 0)
(0 0 0)
(0 0 0)
(0 0 0)
(0 0 0)
(0 0 0)
(0 0 0)
(0 0 0)
(0 0 0)
(0 0 0)
(0 0 0)
(0 0 0)
(0 0 0)
(0 0 0)
(0 0 0)
(0 0 0)
(0 0 0)
(0 0 0)
(0 0 0)
(0 0 0)
(0 0 0)
(0 0 0)
(0 0 0)
(0 0 0)
(0 0 0)
(0 0 0)
(0 0 0)
(0 0 0)
(0 0 0)
(0 0 0)
(0 0 0)
(0 0 0)
(0 0 0)
(0 0 0)
(0 0 0)
(0 0 0)
(0 0 0)
(0 0 0)
(0 0 0)
(0 0 0)
(0 0 0)
(0 0 0)
(0 0 0)
(0 0 0)
(0 0 0)
(0 0 0)
(0 0 0)
(0 0 0)
(0 0 0)
(0 0 0)
(0 0 0)
(0 0 0)
(0 0 0)
(0 0 0)
(0 0 0)
(0 0 0)
(0 0 0)
(0 0 0)
(0 0 0)
(0 0 0)
(0 0 0)
(0 0 0)
(0 0 0)
(0 0 0)
(0 0 0)
(0 0 0)
(0 0 0)
(0 0 0)
(0 0 0)
(0 0 0)
(0 0 0)
(0 0 0)
(0 0 0)
(0 0 0)
(0 0 0)
(0 0 0)
(0 0 0)
(0 0 0)
(0 0 0)
(0 0 0)
(0 0 0)
(0 0 0)
(0 0 0)
(0 0 0)
(0 0 0)
(0 0 0)
(0 0 0)
(0 0 0)
(0 0 0)
(0 0 0)
(0 0 0)
(0 0 0)
(0 0 0)
(0 0 0)
(0 0 0)
(0 0 0)
(0 0 0)
(0 0 0)
(0 0 0)
(0 0 0)
(0 0 0)
(0 0 0)
(0 0 0)
(0 0 0)
(0 0 0)
(0 0 0)
(0 0 0)
(0 0 0)
(0 0 0)
(0 0 0)
(0 0 0)
(0 0 0)
(0 0 0)
(0 0 0)
(0 0 0)
(0 0 0)
(0 0 0)
(0 0 0)
(0 0 0)
(0 0 0)
(0 0 0)
(0 0 0)
(0 0 0)
(0 0 0)
(0 0 0)
(0 0 0)
(0 0 0)
(0 0 0)
(0 0 0)
(0 0 0)
(0 0 0)
(0 0 0)
(0 0 0)
(0 0 0)
(0 0 0)
(0 0 0)
(0 0 0)
(0 0 0)
(0 0 0)
(0 0 0)
(0 0 0)
(0 0 0)
(0 0 0)
(0 0 0)
(0 0 0)
(0 0 0)
(0 0 0)
(0 0 0)
(0 0 0)
(0 0 0)
(0 0 0)
(0 0 0)
(0 0 0)
(0 0 0)
(0 0 0)
(0 0 0)
(0 0 0)
(0 0 0)
(0 0 0)
(0 0 0)
(0 0 0)
(0 0 0)
(0 0 0)
(0 0 0)
(0 0 0)
(0 0 0)
(0 0 0)
(0 0 0)
(0 0 0)
(0 0 0)
(0 0 0)
(0 0 0)
(0 0 0)
(0 0 0)
(0 0 0)
(0 0 0)
(0 0 0)
(0 0 0)
(0 0 0)
(0 0 0)
(0 0 0)
(0 0 0)
(0 0 0)
(0 0 0)
(0 0 0)
(0 0 0)
(0 0 0)
(0 0 0)
(0 0 0)
(0 0 0)
(0 0 0)
(0 0 0)
(0 0 0)
(0 0 0)
(0 0 0)
(0 0 0)
(0 0 0)
(0 0 0)
(0 0 0)
(0 0 0)
(0 0 0)
(0 0 0)
(0 0 0)
(0 0 0)
(0 0 0)
(0 0 0)
(0 0 0)
(0 0 0)
(0 0 0)
(0 0 0)
(0 0 0)
(0 0 0)
(0 0 0)
(0 0 0)
(0 0 0)
(0 0 0)
(0 0 0)
(0 0 0)
(0 0 0)
(0 0 0)
(0 0 0)
(0 0 0)
(0 0 0)
(0 0 0)
(0 0 0)
(0 0 0)
(0 0 0)
(0 0 0)
(0 0 0)
(0 0 0)
(0 0 0)
(0 0 0)
(0 0 0)
(0 0 0)
(0 0 0)
(0 0 0)
(0 0 0)
(0 0 0)
(0 0 0)
(0 0 0)
(0 0 0)
(0 0 0)
(0 0 0)
(0 0 0)
(0 0 0)
(0 0 0)
(0 0 0)
(0 0 0)
(0 0 0)
(0 0 0)
(0 0 0)
(0 0 0)
(0 0 0)
(0 0 0)
(0 0 0)
(0 0 0)
(0 0 0)
(0 0 0)
(0 0 0)
(0 0 0)
(0 0 0)
(0 0 0)
(0 0 0)
(0 0 0)
(0 0 0)
(0 0 0)
(0 0 0)
(0 0 0)
(0 0 0)
(0 0 0)
(0 0 0)
(0 0 0)
(0 0 0)
(0 0 0)
(0 0 0)
(0 0 0)
(0 0 0)
(0 0 0)
(0 0 0)
(0 0 0)
(0 0 0)
(0 0 0)
(0 0 0)
(0 0 0)
(0 0 0)
(0 0 0)
(0 0 0)
(0 0 0)
(0 0 0)
(0 0 0)
(0 0 0)
(0 0 0)
(0 0 0)
(0 0 0)
(0 0 0)
(0 0 0)
(0 0 0)
(0 0 0)
(0 0 0)
(0 0 0)
(0 0 0)
(0 0 0)
(0 0 0)
(0 0 0)
(0 0 0)
(0 0 0)
(0 0 0)
(0 0 0)
(0 0 0)
(0 0 0)
(0 0 0)
(0 0 0)
(0 0 0)
(0 0 0)
(0 0 0)
(0 0 0)
(0 0 0)
(0 0 0)
(0 0 0)
(0 0 0)
(0 0 0)
(0 0 0)
(0 0 0)
(0 0 0)
(0 0 0)
(0 0 0)
(0 0 0)
(0 0 0)
(0 0 0)
(0 0 0)
(0 0 0)
(0 0 0)
(0 0 0)
(0 0 0)
(0 0 0)
(0 0 0)
(0 0 0)
(0 0 0)
(0 0 0)
(0 0 0)
(0 0 0)
(0 0 0)
(0 0 0)
(0 0 0)
(0 0 0)
(0 0 0)
(0 0 0)
(0 0 0)
(0 0 0)
(0 0 0)
(0 0 0)
(0 0 0)
(0 0 0)
(0 0 0)
(0 0 0)
(0 0 0)
(0 0 0)
(0 0 0)
(0 0 0)
(0 0 0)
(0 0 0)
(0 0 0)
(0 0 0)
(0 0 0)
(0 0 0)
(0 0 0)
(0 0 0)
(0 0 0)
(0 0 0)
(0 0 0)
(0 0 0)
(0 0 0)
(0 0 0)
(0 0 0)
(0 0 0)
(0 0 0)
(0 0 0)
(0 0 0)
(0 0 0)
(0 0 0)
(0 0 0)
(0 0 0)
(0 0 0)
(0 0 0)
(0 0 0)
(0 0 0)
(0 0 0)
(0 0 0)
(0 0 0)
(0 0 0)
(0 0 0)
(0 0 0)
(-0.006461551143 0.01421885164 0)
(-0.006835809611 0.01422471194 0)
(-0.006342190965 0.008504243324 0)
(-0.006721173805 0.008510512625 0)
(-0.01134847538 0.01465346991 0)
(-0.01133795421 0.01536548098 0)
(-0.0128487334 0.01539000977 0)
(-0.006831109671 0.014580826 0)
(-0.007580881847 0.01459266662 0)
(-0.007590741506 0.01388064461 0)
(-0.006802498648 0.0167163787 0)
(-0.0112632128 0.008941642339 0)
(-0.01136373675 0.009634911572 0)
(-0.01287745392 0.009661837986 0)
(-0.006715286418 0.008866408537 0)
(-0.007473285174 0.008878947686 0)
(-0.00748506542 0.008166825104 0)
(-0.007600595146 0.01316898643 0)
(-0.006850292115 0.01315723628 0)
(-0.006881184823 0.01102175442 0)
(-0.006506661748 0.01101588974 0)
(-0.00650127214 0.01137169463 0)
(-0.006875794668 0.01137759238 0)
(-0.003880616013 0.01097466522 0)
(-0.003866359691 0.01115126807 0)
(-0.004060217169 0.01115487196 0)
(-0.004070425508 0.01097777205 0)
(-0.003823950071 0.01381995384 0)
(-0.004025490567 0.01382411494 0)
(-0.00403172707 0.01364711474 0)
(-0.003833100579 0.01364320036 0)
(-0.00605155176 0.003157550796 0)
(-0.006809517439 0.003170089398 0)
(-0.003818726856 0.01399750016 0)
(-0.00402202149 0.01400182261 0)
(-0.006807263645 0.01636033188 0)
(-0.006433005724 0.0163544385 0)
(-0.003624986207 0.01381603388 0)
(-0.003616082722 0.01399325464 0)
(-0.003695749942 0.008106125671 0)
(-0.00369050574 0.00846534071 0)
(-0.003878280401 0.008467454415 0)
(-0.004067296426 0.008468926958 0)
(-0.004073971915 0.008111389839 0)
(-0.004082085899 0.01080089466 0)
(-0.003895560312 0.01079807376 0)
(-0.006886705093 0.01066605094 0)
(-0.006512147848 0.01066025187 0)
(-0.003732507047 0.01079613741 0)
(-0.003716245211 0.01097257474 0)
(-0.003317683303 0.008099871526 0)
(-0.003314790792 0.008459125468 0)
(-0.0035037002 0.008463243037 0)
(-0.003637717758 0.01363960432 0)
(-0.003699086448 0.01114883181 0)
(-0.001891841609 0.012274822 0)
(-0.001698293899 0.01227089239 0)
(-0.00168891012 0.01244694722 0)
(-0.001880929179 0.01245088464 0)
(-0.003912361984 0.01240280293 0)
(-0.004087483474 0.01240460806 0)
(-0.004091415066 0.01222694113 0)
(-0.003919431948 0.0122254195 0)
(-0.005367575478 0.01242231 0)
(-0.005372532912 0.0120666303 0)
(-0.005002105769 0.01206116422 0)
(-0.004997314261 0.01241681359 0)
(-0.005388310845 0.01099884522 0)
(-0.00501781755 0.01099337806 0)
(-0.005014809893 0.01117119261 0)
(-0.005012199694 0.01134898066 0)
(-0.005382855633 0.01135461594 0)
(-0.005347567233 0.01384581989 0)
(-0.005352452496 0.01349050293 0)
(-0.004981199004 0.0134849901 0)
(-0.0049760177 0.01384020291 0)
(-0.004992093315 0.01277242276 0)
(-0.005362585516 0.01277795608 0)
(-0.003902290326 0.01257964042 0)
(-0.004080813703 0.0125817996 0)
(-0.00385324189 0.01524864648 0)
(-0.004035233851 0.01525112771 0)
(-0.004039567276 0.01507316966 0)
(-0.003859623828 0.01507085466 0)
(-0.005328339675 0.01527013673 0)
(-0.005333239712 0.01491392672 0)
(-0.00496202039 0.01490834829 0)
(-0.004957054749 0.01526452413 0)
(-0.004971257079 0.01419598512 0)
(-0.005342806612 0.0142016021 0)
(-0.005313601866 0.01633704572 0)
(-0.004941723216 0.01633132404 0)
(-0.004951960634 0.01562046625 0)
(-0.005323411487 0.01562604851 0)
(-0.003845598643 0.0154262851 0)
(-0.00403000902 0.01542897176 0)
(-0.003672753237 0.01524628937 0)
(-0.003661858612 0.01542367569 0)
(-0.003682379391 0.01506878281 0)
(-0.00539396123 0.01064327624 0)
(-0.00502382958 0.01063794739 0)
(-0.005020691262 0.01081566054 0)
(-0.005332190565 0.009533348494 0)
(-0.00496021332 0.009541587005 0)
(-0.005004328599 0.009740792971 0)
(-0.005025342941 0.009924463917 0)
(-0.005395890705 0.009924638403 0)
(-0.003840435754 0.009524585055 0)
(-0.00390686028 0.009725384212 0)
(-0.004083403238 0.009725260854 0)
(-0.004021421347 0.009520101816 0)
(-0.003748307236 0.009570206978 0)
(-0.003792816382 0.009731603443 0)
(-0.001983602912 0.009436598582 0)
(-0.001977791445 0.009613705061 0)
(-0.002156568564 0.00961272537 0)
(-0.002162494155 0.009435720033 0)
(-0.001920430025 0.01084943587 0)
(-0.002104863929 0.01085070028 0)
(-0.002110195746 0.01067318885 0)
(-0.001926417887 0.01067226614 0)
(-0.003739281296 0.01240123006 0)
(-0.003725349093 0.01257763976 0)
(-0.002068568713 0.01246576687 0)
(-0.00211897626 0.01232000163 0)
(-0.00191485561 0.01102661244 0)
(-0.002100631347 0.01102836223 0)
(-0.002072356075 0.01209441867 0)
(-0.001892503395 0.01209501663 0)
(-0.003751640135 0.01222433115 0)
(-0.001702240811 0.01209229933 0)
(-0.001737905789 0.01084893093 0)
(-0.001731144997 0.01102562468 0)
(-0.01134566905 0.003957115024 0)
(-0.01282760686 0.00397149176 3.582828478e-13)
(-0.006797742665 0.003881881222 0)
(-0.007555741421 0.003894420371 0)
(-0.008313740177 0.003906959521 0)
(-0.008337295196 0.002483045115 0)
(-0.007496845665 0.007454702522 0)
(-0.006774182174 0.005306126386 0)
(-0.006016216495 0.005293587783 0)
(-0.006004436249 0.006005710365 0)
(-0.006762401929 0.006018248967 0)
(-0.003742243381 0.005255970718 0)
(-0.003730463135 0.0059680933 0)
(-0.004488438738 0.005980632066 0)
(-0.004500218983 0.005268509485 0)
(-0.004080002548 0.007754834599 0)
(-0.003701252383 0.007748899996 0)
(-0.003874864445 0.01168735072 0)
(-0.004065348712 0.01169066722 0)
(-0.004055119225 0.01151104561 0)
(-0.003856852167 0.01150720335 0)
(-0.004635442046 0.01170019721 0)
(-0.004636809043 0.01152156147 0)
(-0.004446854561 0.01151841916 0)
(-0.004447569153 0.01169722167 0)
(-0.004645507273 0.01098774849 0)
(-0.004456246837 0.01098465075 0)
(-0.004451389669 0.01116226929 0)
(-0.004641839194 0.01116548596 0)
(-0.003322501074 0.007742634525 0)
(-0.002984254548 0.005243431733 0)
(-0.002972474302 0.005955554315 0)
(-0.003821413517 0.01595788988 0)
(-0.00362824128 0.01595446275 0)
(-0.003617689475 0.01613132538 0)
(-0.00381378564 0.0161349994 0)
(-0.003848720553 0.01453496392 0)
(-0.003832778323 0.01435528089 0)
(-0.003638076864 0.01435169612 0)
(-0.003668006985 0.01453260309 0)
(-0.003871473685 0.009321924253 0)
(-0.003626113774 0.009281472034 0)
(-0.005193103838 0.009197221225 0)
(-0.004813459481 0.009190940981 0)
(-0.004843540153 0.009354547045 0)
(-0.005211069153 0.008129207656 0)
(-0.004831981614 0.008123267472 0)
(-0.004825895772 0.008479160101 0)
(-0.005205077067 0.008485432685 0)
(-0.004649570073 0.0108101499 0)
(-0.004461828936 0.01080720963 0)
(-0.004661606226 0.01027655756 0)
(-0.004478425176 0.0102739574 0)
(-0.004473628689 0.01045190779 0)
(-0.004658066073 0.01045456182 0)
(-0.003940900289 0.01026764605 0)
(-0.00392706684 0.01044468599 0)
(-0.004106504204 0.01044679412 0)
(-0.00411675109 0.01026936399 0)
(-0.00174510925 0.01067227758 0)
(-0.001962748096 0.009787284164 0)
(-0.003783754964 0.01026617137 0)
(-0.003767779296 0.01044310971 0)
(-0.002685270686 0.01014437791 0)
(-0.002675036213 0.01031965773 0)
(-0.002851284239 0.01032836315 0)
(-0.002905465733 0.01018706064 0)
(-0.002179389494 0.008079387124 0)
(-0.002173834009 0.008435619375 0)
(-0.002553788258 0.008442566443 0)
(-0.002558747234 0.008085993476 0)
(-0.002184512299 0.009263910554 0)
(-0.002005189902 0.009264252612 0)
(-0.003867972481 0.01311157386 0)
(-0.003682336086 0.01310880074 0)
(-0.003667464652 0.01328618745 0)
(-0.003856067427 0.01328924123 0)
(-0.003667657546 0.01149252698 0)
(-0.003653142567 0.01164156585 0)
(-0.001876001087 0.01301619062 0)
(-0.001826574077 0.01316068177 0)
(-0.00183312859 0.01279225772 0)
(-0.00462919969 0.01241155119 0)
(-0.004631677586 0.01223376096 0)
(-0.004449024655 0.01223123571 0)
(-0.004446579288 0.01240905957 0)
(-0.00444885643 0.01187540504 0)
(-0.004634020935 0.01187810418 0)
(-0.003902031044 0.01186791421 0)
(-0.004079487166 0.01186998956 0)
(-0.00405635034 0.01311462392 0)
(-0.004064785715 0.01293670064 0)
(-0.003879704994 0.01293393672 0)
(-0.004616797022 0.01312329955 0)
(-0.004619978812 0.01294495851 0)
(-0.004435410219 0.01294223614 0)
(-0.004431302853 0.01312052878 0)
(-0.004443212721 0.01258657042 0)
(-0.004626393771 0.01258917058 0)
(-0.003829372724 0.01578095127 0)
(-0.003639260025 0.01577777326 0)
(-0.003686635543 0.01471249598 0)
(-0.003860179317 0.01471427501 0)
(-0.004122010091 0.01009145434 0)
(-0.003949392515 0.01009028615 0)
(-0.004662898317 0.01009844994 0)
(-0.004480313179 0.01009582656 0)
(-0.004586205779 0.009536557978 0)
(-0.004397899371 0.009531788686 0)
(-0.004448880197 0.009731968433 0)
(-0.00463389872 0.009735492279 0)
(-0.002741619921 0.009449634306 0)
(-0.002715772917 0.009618700571 0)
(-0.002928055712 0.009630483467 0)
(-0.003008404697 0.009481541112 0)
(-0.002867909365 0.009965564706 0)
(-0.002689438782 0.009966814146 0)
(-0.003798614385 0.01008971084 0)
(-0.002649305016 0.01086192335 0)
(-0.002702008869 0.01071854512 0)
(-0.002482160023 0.0106759343 0)
(-0.002473529377 0.0108528618 0)
(-0.002498510359 0.01014234716 0)
(-0.002491268301 0.0103189337 0)
(-0.001948175223 0.01014042269 0)
(-0.001940158718 0.01031762503 0)
(-0.002122171274 0.01031726131 0)
(-0.002128848184 0.0101398383 0)
(-0.003696899914 0.01293140895 0)
(-0.001963236816 0.01276814064 0)
(-0.001901903828 0.01156035506 0)
(-0.002089078698 0.0115623265 0)
(-0.00209235034 0.01138395387 0)
(-0.001905492998 0.01138198768 0)
(-0.002462002733 0.01102805407 0)
(-0.002596338296 0.01100599201 0)
(-0.00189975955 0.01173897794 0)
(-0.002088753689 0.01174177351 0)
(-0.003741014876 0.01186743421 0)
(-0.004604404751 0.01383441946 0)
(-0.004606842458 0.01365705866 0)
(-0.004419300323 0.01365408859 0)
(-0.00441606989 0.01383137011 0)
(-0.004427161317 0.01329888703 0)
(-0.00461328338 0.01330170126 0)
(-0.004047814643 0.01329261171 0)
(-0.0040354865 0.01453785498 0)
(-0.004028289046 0.01435894522 0)
(-0.004596064391 0.01454659894 0)
(-0.004597655259 0.0143684301 0)
(-0.004410873321 0.01436550569 0)
(-0.004410240558 0.01454375656 0)
(-0.004413393539 0.01400915706 0)
(-0.00460146434 0.01401216896 0)
(-0.003453642375 0.0138130671 0)
(-0.003438686936 0.013988732 0)
(-0.003424297773 0.01415656516 0)
(-0.00361802107 0.01417168037 0)
(-0.003821051644 0.01417596537 0)
(-0.003911353565 0.0106215625 0)
(-0.003750042327 0.01061991965 0)
(-0.003844208629 0.01346651235 0)
(-0.003652312572 0.01346313941 0)
(-0.00348515512 0.01346090358 0)
(-0.00346862149 0.01363717099 0)
(-0.003856012459 0.01132856419 0)
(-0.003682482714 0.01132433711 0)
(-0.001776576719 0.01330685081 0)
(-0.001692878985 0.01355482698 0)
(-0.004586925288 0.01525906298 0)
(-0.004589639639 0.01508097889 0)
(-0.004405268954 0.01507829288 0)
(-0.004402422299 0.01525637478 0)
(-0.004409310113 0.0147220025 0)
(-0.004594176389 0.01472472979 0)
(-0.004040734122 0.01471663322 0)
(-0.004013363043 0.01596123062 0)
(-0.00401884099 0.01578408554 0)
(-0.004575791539 0.01597010446 0)
(-0.0045784944 0.01579271496 0)
(-0.004392967702 0.01578991057 0)
(-0.004389868478 0.01596726043 0)
(-0.004399344661 0.01543441978 0)
(-0.004584144785 0.01543714598 0)
(-0.003493542977 0.01524405266 0)
(-0.003479552977 0.01542115619 0)
(-0.003465360096 0.01559812402 0)
(-0.003650556583 0.01560088986 0)
(-0.003837507755 0.01560378397 0)
(-0.003862932997 0.01489281349 0)
(-0.003688612488 0.01489098852 0)
(-0.003518236309 0.01488952656 0)
(-0.003506912246 0.0150668727 0)
(-0.003941844905 0.009910543486 0)
(-0.004114600804 0.009911350027 0)
(-0.00429252991 0.009913433202 0)
(-0.00426479108 0.009728261452 0)
(-0.004208916427 0.009525916402 0)
(-0.003203208193 0.009485557675 0)
(-0.003142706013 0.00966754929 0)
(-0.003309189239 0.0094653425 0)
(-0.003806149403 0.009910614692 0)
(-0.002135572045 0.009963177014 0)
(-0.001955571618 0.009963706364 0)
(-0.00250363825 0.009965163202 0)
(-0.002549033002 0.009445224308 0)
(-0.002525197654 0.009615084803 0)
(-0.003580868619 0.0123997675 0)
(-0.003564859205 0.01257574582 0)
(-0.003549486561 0.01275223094 0)
(-0.00371123721 0.01275431117 0)
(-0.003891201052 0.01275659342 0)
(-0.001854637963 0.01262080376 0)
(-0.002015498975 0.01261926302 0)
(-0.0022081658 0.01207304269 0)
(-0.002260209107 0.01192859482 0)
(-0.002082213982 0.01191870252 0)
(-0.001895477902 0.011916606 0)
(-0.003918706961 0.01204724543 0)
(-0.003756987919 0.01204665455 0)
(-0.003613555058 0.0120480535 0)
(-0.00359744301 0.01222323608 0)
(-0.001714274129 0.01155807833 0)
(-0.001710348631 0.01173597696 0)
(-0.003411652364 0.0163049873 0)
(-0.003424401473 0.01612789633 0)
(-0.003255309582 0.0161251984 0)
(-0.003241201604 0.0163022338 0)
(-0.003437507303 0.01595124137 0)
(-0.003269371876 0.01594872468 0)
(-0.003504301702 0.01453168159 0)
(-0.0034115286 0.01430526897 0)
(-0.003390511182 0.01454958397 0)
(-0.004462561574 0.009346921334 0)
(-0.004268963033 0.009342064498 0)
(-0.004439085261 0.008830078009 0)
(-0.004248215845 0.008828243959 0)
(-0.004242488311 0.009006476712 0)
(-0.004434388548 0.009007996966 0)
(-0.003683696893 0.008832139389 0)
(-0.003673238214 0.009017572551 0)
(-0.003858047028 0.009010373427 0)
(-0.003868058656 0.008829564753 0)
(-0.004094407261 0.0106240613 0)
(-0.004280859534 0.01062691408 0)
(-0.004289389213 0.01044929013 0)
(-0.004296399592 0.0102715087 0)
(-0.002660975861 0.01049401404 0)
(-0.002795346639 0.0104714232 0)
(-0.003508092466 0.008834528044 0)
(-0.003518091522 0.009031879335 0)
(-0.00293586123 0.008810835445 0)
(-0.00293984958 0.00899253741 0)
(-0.003138414685 0.009003762533 0)
(-0.003130188952 0.008819012831 0)
(-0.00301612659 0.009293548227 0)
(-0.002811988543 0.009293810622 0)
(-0.003518170902 0.01310668058 0)
(-0.003502012818 0.013284046 0)
(-0.003315235644 0.01541903351 0)
(-0.003299753353 0.01559594692 0)
(-0.003330623657 0.01524201928 0)
(-0.003451232223 0.01577476207 0)
(-0.003284307943 0.01577243084 0)
(-0.003522302367 0.014711531 0)
(-0.003376451639 0.01471269144 0)
(-0.003361336839 0.01488798978 0)
(-0.003345981902 0.01506500455 0)
(-0.0042995114 0.0100933981 0)
(-0.002706929866 0.009794268081 0)
(-0.002890925478 0.00979522747 0)
(-0.003065064735 0.009802409193 0)
(-0.003002428437 0.009943009405 0)
(-0.002485631116 0.01049670476 0)
(-0.002300448131 0.01049612275 0)
(-0.00229616882 0.01067480956 0)
(-0.002290157282 0.01085221049 0)
(-0.003533928767 0.01292930853 0)
(-0.002284753423 0.01120867685 0)
(-0.002276938034 0.01138512156 0)
(-0.002453651385 0.01139429787 0)
(-0.002505986006 0.01125183992 0)
(-0.002265991908 0.0115606212 0)
(-0.002400662656 0.01153869702 0)
(-0.002286230117 0.01103000984 0)
(-0.00231124268 0.01178558598 0)
(-0.003628312077 0.0118859832 0)
(-0.005588993509 0.002917072041 6.861178292e-14)
(-0.003609076451 0.001788410086 4.216071936e-14)
(-0.01177424903 0.007298634639 1.705441344e-13)
(-0.009818849498 0.005730811102 1.341843303e-13)
(-0.009736532317 0.005153355174 1.330324739e-13)
(-0.01345324445 0.008886011382 2.072508831e-13)
(-0.01598452244 0.01309096306 3.045202979e-13)
(-0.01561412459 0.01184661094 2.756822548e-13)
(-0.01569909385 0.01080360489 2.769451335e-13)
(-0.01585876309 0.0141035804 3.281125371e-13)
(-0.01423019797 0.01527524553 3.559930128e-13)
(-0.01426854096 0.01388057125 3.564093465e-13)
(-0.01282789716 0.01681357213 0)
(-0.01131754796 0.01678905045 0)
(-0.009809084074 0.01676455997 0)
(-0.01056301833 0.01677680029 0)
(-0.006296931336 0.002058954831 7.738254482e-14)
(-0.004222478684 0.001309229655 4.937716902e-14)
(-0.01254134788 0.004885172045 1.816602424e-13)
(-0.01060185285 0.003885100348 1.449396159e-13)
(-0.01069357954 0.003357902707 1.467020949e-13)
(-0.01014821935 0.004821670456 1.38583589e-13)
(-0.01417366986 0.005886218891 2.182837244e-13)
(-0.01643350844 0.008460981936 3.125832926e-13)
(-0.01616958607 0.007715235665 2.851607839e-13)
(-0.01617618942 0.006628016023 2.864375404e-13)
(-0.01579004977 0.009754057897 2.782774011e-13)
(-0.01619361504 0.009047900369 3.344269306e-13)
(-0.014337924 0.009651524507 3.57880392e-13)
(-0.01425924181 0.008252088682 3.580330477e-13)
(-0.01430819011 0.01248329931 3.568395579e-13)
(-0.01291516043 0.01111445785 0)
(-0.01140282334 0.01109410507 0)
(-0.0113914676 0.01180656553 0)
(-0.009892305469 0.01106977912 0)
(-0.009881117852 0.01178207693 0)
(-0.01063604439 0.01179433366 0)
(-0.01064733123 0.01108203749 0)
(-0.009849276341 0.01391691448 0)
(-0.01060377289 0.01392916411 0)
(-0.01061432112 0.01321751742 0)
(-0.009859659194 0.01320526506 0)
(-0.006860217378 0.01244524844 0)
(-0.006485793531 0.0124393854 0)
(-0.006480868626 0.01279509873 0)
(-0.006855225774 0.01280099374 0)
(-0.00573436658 0.01278357688 0)
(-0.005739290938 0.01242789664 0)
(-0.005719711583 0.01385147979 0)
(-0.005724497619 0.01349616119 0)
(-0.005543373797 0.0007351262919 6.833422717e-14)
(-0.003611252997 0.0004519869374 4.235500839e-14)
(-0.01153698134 0.00184891683 1.676020434e-13)