/*--------------------------------*- C++ -*----------------------------------*\
| =========                 |                                                 |
| \\      /  F ield         | OpenFOAM: The Open Source CFD Toolbox           |
|  \\    /   O peration     | Version:  v2012                                 |
|   \\  /    A nd           | Website:  www.openfoam.com                      |
|    \\/     M anipulation  |                                                 |
\*---------------------------------------------------------------------------*/
FoamFile
{
    version     2.0;
    format      ascii;
    class       volScalarField;
    location    "0.59";
    object      nut;
}
// * * * * * * * * * * * * * * * * * * * * * * * * * * * * * * * * * * * * * //

dimensions      [0 2 -1 0 0 0 0];


internalField   nonuniform List<scalar> 
3019
(
1.155886454
1.155855452
1.155825726
1.155803718
1.156028407
1.156027686
1.156046013
1.156090485
1.156173895
1.156313204
1.15647906
1.140806248
1.15512926
1.155042924
1.154958512
1.154899375
1.155122091
1.155156845
1.155270634
1.155557604
1.155955231
1.156614342
1.157535768
1.06130517
1.154345372
1.154196569
1.15406478
1.153998248
1.15424299
1.154365553
1.154645899
1.155231122
1.156210659
1.157800675
0.9538979414
0.8213190914
1.153535823
1.153340802
1.15317899
1.153121877
1.153418693
1.153707869
1.154379167
1.155458672
1.157493811
0.868248109
0.6758305129
0.5675134681
1.152711271
1.152464968
1.152290513
1.152295708
1.152693469
1.153255045
1.154523685
1.156485266
0.8920139714
0.6302398619
0.4602942974
0.3557022896
1.151876434
1.151602356
1.15144105
1.151516615
1.152107814
1.153086329
1.155282162
1.054095025
0.7065127947
0.4748628678
0.3104880949
0.2003197004
1.15103894
1.15074513
1.150622663
1.150857012
1.151721743
1.153255715
1.156628308
0.9030186534
0.5961298951
0.3824158215
0.2215044747
0.1013201994
1.150243303
1.149948036
1.149896683
1.150365034
1.151456278
1.153799844
1.134232661
0.8182428812
0.5476755237
0.3535879759
0.2034468099
0.08380391057
1.149514932
1.149227933
1.149278956
1.150025097
1.151410043
1.15470475
1.0687211
0.7761802228
0.5457316918
0.3808725535
0.2619162246
0.1877266792
1.148904849
1.148644859
1.148821728
1.149877662
1.151663735
1.155932873
1.034026374
0.7757334756
0.5709772246
0.4320594837
0.3498991481
0.3508066509
1.148421743
1.148203338
1.148544323
1.149980065
1.152189093
1.157414816
1.020008882
0.7882379014
0.6061811201
0.484841007
0.4237179554
0.4779756792
1.148119204
1.147948577
1.148448212
1.150253767
1.152931329
1.159102945
1.021856906
0.8127100669
0.6442749943
0.5269795708
0.4575532346
0.4777820228
0.1670442486
0.3341692929
0.4651446748
0.4839048199
0.08143447238
0.3279293103
0.3248705209
0.1927788251
0.4086011729
0.4458830155
0.3408366728
0.3980821306
0.2122450344
0.2402186794
0.4527365873
0.4774118334
0.4578893984
0.4969555341
0.1361276574
0.1781997481
0.4732916629
0.4565638463
0.07910574091
0.1052290976
0.06676785302
0.1566525633
0.03190651098
0.06059632155
0.2440333797
0.2714412352
0.2770805938
0.2107424139
0.1948979902
0.1785607577
0.2139071616
0.1811569953
0.2080957252
0.4147990148
0.1612193388
0.1352144319
0.1929937387
0.1633798771
0.1067127658
0.1343791098
0.4965462935
0.1072575841
0.08076027876
0.1337223521
0.1086817222
0.07726817297
0.4444087289
0.05376835976
0.07965721426
0.05537826513
0.2421547176
0.1742663944
0.09749758823
0.104865839
0.06595155281
0.03747154654
0.2554298293
0.2749012922
0.1723230416
0.1558844212
0.0734866022
0.117400747
0.04186554559
0.01309556233
0.02270246789
0.03878765361
0.03111834731
0.09389990084
0.2685937744
0.2552314759
0.0507852501
0.04222628396
0.09811235666
0.06692092387
0.05803235787
0.04031669942
0.06641995435
0.1106260487
0.03871952346
0.02361935161
0.01493838825
0.05307169352
0.02634113872
0.04278773132
0.02528106962
0.05946477678
0.2077815493
0.03124269942
0.2070711472
0.2302975915
0.03502203773
0.0392655756
0.03166782068
0.03451628322
0.2260585273
0.1484920452
0.1468125782
0.179453621
0.1776126783
0.09744540847
0.09554816327
0.1206402068
0.118945443
0.2506905365
0.0723397812
0.07145999907
0.01600681228
0.01280039026
0.1509794536
0.3362460891
0.3237766315
0.3526473961
0.3403750588
0.1544020737
0.2858539616
0.2728046688
0.09524322375
0.1926857654
0.3686096676
0.3566455207
0.06058798324
0.06259202459
0.140167801
0.120703596
0.3028626478
0.2900900382
0.3196173634
0.3070915899
0.1225906534
0.1031385334
0.03702196379
0.03776199888
0.0213107339
0.02214574483
0.08530723856
0.1283440655
0.0562929077
0.06017225567
0.03807147819
0.03876358078
0.1129596326
0.07648195447
0.0206845972
0.02116769978
0.02028422382
0.06489676538
0.03879019557
0.04049201919
0.01518085534
0.01654287224
0.04560345611
0.04470861851
0.06913928589
0.07981726747
0.09749090011
0.05989218343
0.07484172931
0.07010291172
0.06108194768
0.1431863735
0.1313271138
0.1059945733
0.1424880687
0.06099407136
0.03909594303
0.04393160786
0.0548829138
0.03367811573
0.03774193091
0.02938945188
0.09722936142
0.08494616064
0.1038678786
0.09978885204
0.03053845433
0.07623403459
0.07395064683
0.08144777485
0.07706288947
0.0365714892
0.1209277384
0.1162881568
0.1284711984
0.1225781581
0.03717206323
0.0328079888
0.1091918589
0.1052716145
0.1148063252
0.1105551499
0.03316192019
0.04360047181
0.04281367537
0.04582274771
0.04387065521
0.04136375599
0.04029065835
0.04255264769
0.04164186405
0.07047423968
0.06845084771
0.07324095726
0.0711777565
0.06280219565
0.0486023968
0.06760566051
0.06544600855
0.03604309887
0.03665979437
0.1017326743
0.02129526627
0.02108484652
0.02195387595
0.02148211886
0.02042175169
0.08774548519
0.02279227819
0.0338446972
0.04095273685
0.05436485323
0.1264753946
0.03745196626
0.02410739134
0.04014952845
0.03712693573
0.0227334122
0.02219141154
0.02366590708
0.0229574227
0.1144113521
0.03899831635
0.03990307177
0.02008336649
0.02057695508
0.07550615259
0.06714933406
0.0191952867
0.02002069713
0.2245334179
0.389226301
0.3877612446
0.3692764522
0.3806060202
0.228492447
0.3839886327
0.37252729
0.1963939995
0.155488867
0.0684109613
0.07232722641
0.07549440781
0.08661369919
0.1698781211
0.04069833955
0.04863053121
0.03741645166
0.04304776789
0.06773148178
0.09607406636
0.09461460603
0.04190927153
0.068286169
0.06453520262
0.09350701884
0.09168177433
0.06499018635
0.03315916108
0.03998974188
0.03544071059
0.02716947452
0.02778214327
0.02292004469
0.04749648333
0.04609175479
0.05029572294
0.02357101002
0.03407241148
0.03240799186
0.0529085058
0.0525240976
0.03098532174
0.02867224698
0.02825182107
0.03135256516
0.03063252436
0.0355687305
0.05915095579
0.05852047432
0.06286463288
0.06208129977
0.03848907177
0.03200537043
0.05416985291
0.05363845062
0.0578717944
0.05723201565
0.03404774546
0.06572556049
0.06768794441
0.153695153
0.1417529527
0.0631945507
0.06510237994
0.09371142048
0.09698108827
0.1852312425
0.02662596171
0.02648020535
0.02800918929
0.02778646746
0.02026038191
0.02620527559
0.02610018871
0.1718353383
0.08891452227
0.09249258347
0.03718696343
0.05676961447
0.05629088194
0.02155373619
0.03592200245
0.03566820288
0.03725721541
0.03628735271
0.02176304632
0.02061151402
0.02039181849
0.02086416816
0.03517574347
0.03495241724
0.03551066673
0.0353261172
0.02099196089
0.02152210677
0.02092144978
0.03152452431
0.02249291976
0.01611694364
0.04044490176
0.03116630012
0.01033614163
0.01151860228
0.01863935719
0.02092831827
0.01222463307
0.01504853333
0.01483740013
0.04684184348
0.04365866827
0.08430120915
0.07541101987
0.04390616419
0.06471657937
0.09078226796
0.08715608722
0.03515292356
0.03230470938
0.03055755304
0.02295075954
0.02960578531
0.0434612596
0.04380735482
0.03833760823
0.04835598184
0.0485547232
0.03086322281
0.0305112952
0.05151546826
0.05150925681
0.02937769667
0.02897627256
0.0301670205
0.02973549211
0.06030605385
0.05970351409
0.03597989217
0.03781408667
0.06148118691
0.06089900318
0.05540466987
0.05483860939
0.03245367837
0.03356001975
0.05658129538
0.05598793762
0.04332588045
0.02532053238
0.02559274202
0.02489454555
0.02510172447
0.04307568071
0.04468207303
0.02654209378
0.02702957046
0.02586036351
0.02617377516
0.04419543038
0.04097456643
0.02366686369
0.02390873011
0.02329744746
0.02353018448
0.04073724551
0.04226755033
0.02449837913
0.02469015728
0.02407348668
0.02430963343
0.04198857179
0.02707040024
0.02688454788
0.06980892843
0.0465296192
0.04685765559
0.04581519347
0.04610148036
0.06906999343
0.02752266104
0.02731459311
0.02495194729
0.02622765702
0.06066580311
0.04199553867
0.04168515695
0.02793502758
0.0293530429
0.0540594256
0.06711250308
0.04509938282
0.0453023511
0.04436569743
0.04431258199
0.06583925917
0.02576659453
0.02581473205
0.03596479624
0.05415375518
0.05384670978
0.05558510359
0.05522034527
0.03656055735
0.0212519644
0.021010888
0.0218305028
0.02155570444
0.02154521771
0.01688312738
0.0239575171
0.04432145667
0.03960645353
0.05161946194
0.04979439438
0.03410794146
0.0261930859
0.01816007829
0.02340248439
0.02488515633
0.03945921947
0.02294276961
0.0232339351
0.02226077737
0.02299920541
0.03952937686
0.02256710372
0.0223394937
0.02339756702
0.02315114214
0.02030111148
0.03436637567
0.03400263028
0.03479363168
0.03451126405
0.020380309
0.01974799341
0.03331124811
0.03143648294
0.03388101079
0.03328808906
0.01973289975
1.155269355
1.155830715
1.155837564
1.156070087
1.157001283
1.156429628
1.157361008
1.07369917
1.157287432
1.029791719
0.9093457888
1.078962297
0.8865773906
1.155334192
1.156527631
1.155913496
1.157050363
1.010037134
1.15733614
0.9421792887
0.7806769901
0.9997348848
0.7401156872
0.6493845284
0.8449570974
0.6283567076
1.156147273
1.042065446
1.156883061
0.9541381949
0.738637961
0.9331040177
0.6815929814
0.5441919552
0.7148180065
0.5079647029
0.4238690544
0.5880972764
0.4034756001
1.101905326
0.8222003522
0.9780324428
0.7475674883
0.5586512287
0.6855307078
0.5060166071
0.3772539851
0.4960743752
0.3419021574
0.2557752879
0.3762555735
0.2339687234
0.9348536097
0.685052917
0.7803360073
0.6174729053
0.4474111456
0.5244471545
0.3993084634
0.2745150602
0.346054685
0.2379113375
0.1448302161
0.2226547444
0.1212130111
0.8351126265
0.615219845
0.6619232235
0.5549629094
0.3999285331
0.4298087349
0.3549826674
0.235175961
0.25843661
0.2004248171
0.09576879316
0.1270401419
0.08917225695
0.05442408341
0.08604056041
0.7839950907
0.5939530198
0.6061632405
0.5418861037
0.4086059211
0.3971024472
0.3697356245
0.2704583821
0.2373527206
0.2112049592
0.1835512413
0.173160761
0.087884326
0.07620799231
0.06911795751
0.7751801568
0.6088880028
0.5955782649
0.563304764
0.4491422354
0.4181582381
0.4179037007
0.3437913741
0.2866079715
0.2832804968
0.2647493892
0.2396167346
0.2097845751
0.2092699654
0.1837700466
0.7828178888
0.6368924872
0.61479459
0.5970412417
0.49863941
0.4617854098
0.4725067466
0.4164534219
0.3633403397
0.3711620581
0.3655594279
0.3416753876
0.3663472833
0.376867368
0.3642855512
0.8040731817
0.6710852692
0.6450213572
0.6342754184
0.5422342541
0.5102833717
0.5173080438
0.4619189239
0.4309030883
0.4361694934
0.4362310155
0.423682513
0.4876336255
0.3966574122
0.4085581175
0.6806892961
0.5522691221
0.4687833603
0.4530534212
0.4605615379
0.448158651
0.467599907
0.3291602209
0.3423563032
0.1603871634
0.1391172483
0.1483142575
0.3543655184
0.3433271524
0.315369573
0.4124041121
0.4236371351
0.4493732932
0.3466467423
0.3594630982
0.4891758708
0.03663937315
0.04897565127
0.08478328738
0.07320244116
0.0458712579
0.3168816312
0.2908065832
0.3055707041
0.272262946
0.2724821669
0.3172084223
0.2142746889
0.2573346346
0.2525956384
0.4074473826
0.3878101274
0.3909104791
0.4028007985
0.3802171017
0.4184936722
0.3300089859
0.3721262423
0.3872176594
0.4107129861
0.388729062
0.3818502488
0.216485784
0.2763189975
0.2721772645
0.3001252922
0.296263863
0.2363353659
0.4494104079
0.4446517721
0.4456004552
0.4825284779
0.4422962218
0.4564886004
0.420537387
0.4477413004
0.4805245666
0.3803451559
0.3926479038
0.4939851956
0.1416451874
0.2120156339
0.2083541919
0.2360862458
0.231475066
0.1732074632
0.445937224
0.4525134696
0.4503995645
0.311601466
0.3248389667
0.461875923
0.08672439497
0.1511788278
0.1534690417
0.1735693085
0.1695834257
0.1008987246
0.07608332086
0.07518825053
0.06471054779
0.165262261
0.1452332832
0.1392168039
0.03346478888
0.0277034928
0.02628709542
0.05540107375
0.04881539424
0.05411221935
0.2551390654
0.3544421884
0.3653041862
0.2985161726
0.3452292148
0.2590405465
0.2938408843
0.3308940807
0.2875895727
0.2054199212
0.1272088977
0.1322547555
0.1026885015
0.1063456385
0.2007162072
0.2043398272
0.15569055
0.1625129846
0.1338989689
0.1388771038
0.2182537933
0.1852866508
0.2439401154
0.2396645201
0.2680541403
0.2639565787
0.2041103359
0.432105913
0.4274250345
0.4271793038
0.1592301015
0.1293434853
0.1313648425
0.1085953543
0.1100152239
0.1369319634
0.1871468076
0.09811829163
0.1015188057
0.1336941665
0.1361685649
0.1655747864
0.1118525865
0.1812366678
0.1772783423
0.2046368029
0.2008896808
0.1293044071
0.4936416952
0.3636981818
0.3762247582
0.1058831081
0.08047213272
0.08142324323
0.05641699131
0.0571711229
0.08199543593
0.1320310656
0.1058075068
0.1073039068
0.08245713012
0.08344274759
0.1100898833
0.1528751221
0.3071851318
0.05278460675
0.03321865485
0.03355773018
0.07857257059
0.05521324885
0.05580632244
0.03444735563
0.03664413223
0.05800192782
0.2165791616
0.197013336
0.2246840134
0.1292618463
0.1683006497
0.1996528156
0.1362805977
0.1593811936
0.11763604
0.09209740853
0.08251267554
0.09466229839
0.04784263802
0.06900078928
0.08213886457
0.05345396704
0.06254928262
0.04360930642
0.2631200199
0.2361689188
0.2323824168
0.2610654328
0.2368822565
0.2823409455
0.1765028417
0.2188213837
0.2361447398
0.1126972133
0.1263123162
0.1603413855
0.0899430016
0.1143116166
0.1010525105
0.1318005285
0.1207185914
0.1050352509
0.01328777219
0.01101855431
0.0107661916
0.02093787927
0.01869845545
0.02017919654
0.02863076302
0.0183730709
0.03473843784
0.02193976211
0.03216767838
0.01575489185
0.01973038694
0.03342921537
0.1586800897
0.1536006212
0.08896603677
0.2640069696
0.2078385271
0.2126971598
0.1991600435
0.2043120448
0.2597496816
0.09714353005
0.08169467984
0.08662691801
0.05731053011
0.06336804881
0.06623130759
0.1243504602
0.1302980582
0.1056914766
0.03438761143
0.03069592113
0.0355872229
0.01823163915
0.02486203503
0.03022505944
0.02134043235
0.0229599374
0.01692170677
0.0476546806
0.048443948
0.05250475786
0.02915391954
0.03177979534
0.02915914458
0.0480241449
0.04292431605
0.03800547942
0.1158335643
0.1249918451
0.203863166
0.2025344229
0.1076436788
0.1129588957
0.1478101995
0.15363545
0.232965346
0.2220014254
0.1405886191
0.1459558202
0.1198431389
0.1213133263
0.1502179165
0.1451081467
0.116953507
0.1183958227
0.14994226
0.1516963078
0.1814083395
0.175663975
0.146457564
0.1481936253
0.07429909036
0.07532590167
0.09893782517
0.09325414124
0.06994289296
0.07229537315
0.09206751894
0.09451213769
0.1224012859
0.1173724984
0.08879864325
0.09021378419
0.1948587015
0.05168851327
0.05242568358
0.07349028951
0.07014164744
0.05022771098
0.05129398388
0.01365165321
0.01350664548
0.2193366635
0.2156583975
0.1436520353
0.3320921392
0.2739983531
0.2781258586
0.2658819184
0.2699223546
0.3279368638
0.3485467845
0.2904936761
0.2947540645
0.2823135453
0.2865255788
0.3444898141
0.1711244645
0.228140387
0.2233071923
0.2814928274
0.2248327934
0.2291040939
0.2164278209
0.2209006392
0.2772708191
0.09951372158
0.1660479295
0.1617875157
0.2518996279
0.2477732954
0.1887696979
0.3646412072
0.3068927299
0.3110054662
0.2987071281
0.3028845363
0.3606800403
0.0613592848
0.08463510738
0.08350480334
0.08665648677
0.08557222493
0.06190435157
0.1384874398
0.1113338219
0.1127484364
0.1893710328
0.1852452921
0.1140175854
0.2986245712
0.2414550187
0.2456386968
0.2331298392
0.2373287395
0.2943901098
0.3154492288
0.2578244957
0.2618496523
0.2497349222
0.2537837894
0.3112715285
0.1276448497
0.1971143685
0.1932974191
0.07853111978
0.07941964666
0.1044704254
0.05796492462
0.05741772531
0.03754947641
0.08343735787
0.05817962749
0.05983194141
0.1024013264
0.1043435311
0.1304003153
0.0586879715
0.08025450293
0.07816286769
0.08263892433
0.08130654377
0.05902002776
0.03828950977
0.05915232061
0.05858187831
0.06034001748
0.05975512997
0.03855604643
0.1115281231
0.08447112573
0.08548270933
0.05406913116
0.05466326662
0.07755303264
0.06164230483
0.04106202461
0.04613289665
0.01322657185
0.01169891407
0.01384038299
0.008672367969
0.009564195249
0.01828080644
0.01672847679
0.0151288403
0.08486098608
0.09330418171
0.06829983429
0.08481064744
0.08671032523
0.07963861293
0.1031735182
0.09441715235
0.09085894774
0.0657577995
0.06240952069
0.05760070342
0.07334821393
0.06767987048
0.07069533568
0.0719362991
0.07008374364
0.07724085129
0.1390928291
0.1069810015
0.1124034123
0.09677878655
0.1010700994
0.1349785837
0.1160632204
0.1210047659
0.1140445721
0.1157519166
0.1189362254
0.1284869947
0.0406449549
0.04425958174
0.04320094744
0.04690379854
0.04503361853
0.04210431949
0.05349278512
0.05024197812
0.05181783973
0.09435914034
0.06913630367
0.07160253405
0.0555320223
0.06164850572
0.08983696611
0.1027255466
0.07665754767
0.07732576999
0.07463035665
0.07513846768
0.1010945066
0.07545391084
0.04936714468
0.04974362165
0.04859961162
0.04900803194
0.07469939481
0.07934223834
0.05108923291
0.05242591903
0.05009522082
0.05050339175
0.07803170317
0.1193392341
0.08802529572
0.08905051239
0.0860249555
0.0870326748
0.1177992105
0.1262266042
0.09248635529
0.09415711437
0.09010619021
0.09121336651
0.1243161361
0.1078796807
0.08023431191
0.08114596553
0.07839777017
0.07925486373
0.1065171409
0.1133562898
0.08401962368
0.08501472228
0.08208462232
0.08303244162
0.1119335123
0.07255323216
0.04793532259
0.04825875651
0.04723970213
0.04757347575
0.07185722136
0.1004242454
0.07661277564
0.07744051606
0.06259101862
0.0664470042
0.09058023531
0.04347031387
0.06802499478
0.06513629374
0.07574270478
0.07205706851
0.04844089605
0.1239451078
0.09737077193
0.100112778
0.0865288223
0.08760741992
0.1158704883
0.03921086864
0.06159388221
0.06095328909
0.06341394056
0.06236542085
0.03948535916
0.07441273994
0.05290579673
0.05354240785
0.04781296347
0.04987561348
0.06907742228
0.2844119885
0.2803892961
0.220557379
0.3955338106
0.3389995202
0.3427983731
0.3311500466
0.3351130182
0.3916610192
0.3713231135
0.3543676304
0.3582607641
0.3466312541
0.3505162245
0.376385826
0.2324374477
0.2923619732
0.2884040742
0.3802421807
0.3231246312
0.3271465148
0.3150383132
0.3191048856
0.3764159861
0.2002689921
0.2599338277
0.2558575913
0.1258992125
0.127536663
0.157298093
0.0692772113
0.09785370277
0.09651130417
0.1015159181
0.09945227881
0.07044296365
0.07991808544
0.1073816101
0.1042326082
0.1128401626
0.1103506912
0.08399545801
0.1677512368
0.1386049225
0.1408410668
0.03467311408
0.03305184212
0.03120951401
0.03811425012
0.03592406647
0.03765875553
0.03210551427
0.03452835673
0.03738383841
0.06636158153
0.09301527772
0.09191655606
0.09529219254
0.09413364801
0.06700748464
0.1519502784
0.122807743
0.1243246648
0.114117077
0.1155452668
0.1434653706
0.06385189841
0.08873149097
0.08765752197
0.09084560367
0.08977061428
0.06447100622
0.09474251987
0.1225591111
0.1211075474
0.1255656477
0.1240740636
0.09589734044
0.1832703508
0.1534659506
0.155253365
0.142852872
0.1446801893
0.173815893
0.09007225612
0.116541978
0.114932005
0.1195862278
0.1181569376
0.09152523954
1.155585896
1.155611662
1.156034143
1.15565385
1.155707239
1.156069496
1.15579006
1.155902065
1.156125703
1.156053054
1.156248225
1.156236324
1.156489092
1.156775614
1.156399939
1.157140555
1.157425039
1.156585003
1.097042855
1.047110563
1.085479368
1.154675214
1.154698758
1.155129577
1.154747571
1.154826644
1.155204355
1.154934441
1.155144236
1.155490189
1.155433109
1.155542042
1.155638958
1.155945459
1.156136879
1.156098534
1.156786673
1.157074249
1.156830517
1.15797818
1.105448686
1.157760439
1.014010753
0.9686151189
1.017465379
1.153833663
1.15389758
1.154285284
1.154016726
1.154197994
1.154486777
1.154463923
1.155042855
1.155074355
1.155225158
1.155458225
1.155423926
1.156413249
1.156818909
1.156549265
1.104407322
1.03671654
1.116319139
0.8801051779
0.8400719285
0.9100786245
0.7561765317
0.7365405577
0.7994911377
1.153071888
1.153207279
1.153529606
1.15344907
1.153821904
1.153974423
1.15438048
1.155551369
1.155104576
1.155638859
1.156121678
1.155866554
1.093288562
1.009725455
1.085682513
0.8003226049
0.7452279033
0.8104125465
0.6156899073
0.5826489978
0.6418282691
0.5095349591
0.4928797225
0.5507143923
1.152426937
1.15268202
1.152915057
1.15312661
1.15380274
1.153763071
1.154827958
1.15690175
1.155805755
1.156894539
1.110263656
1.157232393
0.8375146656
0.76361105
0.8159538999
0.5841734206
0.5354566462
0.580605664
0.416736494
0.3849578585
0.428484423
0.3115732895
0.2945239231
0.3389495655
1.151918042
1.152364379
1.152496169
1.15311725
1.15425218
1.153966332
1.155898629
1.028644485
1.153008215
1.009247813
0.9118856268
0.9538278388
0.6723609456
0.6077604074
0.6399356697
0.4460963662
0.3997681515
0.4278826616
0.2822004825
0.2496757379
0.2778252679
0.1703606228
0.1513247025
0.1823514876
1.151540882
1.15229947
1.152311558
1.153465604
1.15518608
1.154662724
1.157507421
0.9231619189
1.002920805
0.8772005391
0.7904494222
0.8140654021
0.5789297989
0.520085844
0.5361590079
0.3692941989
0.3256374921
0.3382616843
0.2093737201
0.1742140769
0.1870701765
1.151385078
1.152523287
1.152396656
1.15418706
1.156522496
1.155821135
1.097319604
0.8622316634
0.9056262142
0.8062199181
0.7303217391
0.7404219988
0.5433780337
0.4911046167
0.4937089532
0.3557598443
0.3165773814
0.3127148674
1.15150427
1.153045896
1.152778556
1.155241059
1.158141097
1.157300577
1.048492992
0.8427227404
0.8520355106
0.7772275337
0.711890625
0.7098230691
0.5505675772
0.5056262048
0.4998632093
0.3915945078
0.3599287538
0.3462579401
1.151888644
1.153860461
1.153464972
1.156576142
1.159898921
1.159044196
1.024761924
0.8415244014
0.8426116032
0.7766022545
0.7196713935
0.7161964004
0.5792437563
0.5407483474
0.5310682831
0.4459320823
0.4209350612
0.405585814
1.152538512
1.154925965
1.154430845
1.158106771
1.156738128
1.160871989
1.019421773
0.8548787654
0.8495724037
0.7920281896
0.7414063814
0.7350698018
0.6154901406
0.5809504233
0.5709153991
0.496450339
0.4746926752
0.4627316454
1.155616785
1.152249863
0.8710133739
0.8192057959
0.7737303094
0.763922798
0.6545551818
0.621186539
0.6108432999
0.5364562916
0.5131241127
0.5044228608
0.06550658353
0.06536732605
0.0808324701
0.06161554016
0.05096111224
0.3082248452
0.3014008297
0.3167209689
0.1987408917
0.2153281019
0.2123102745
0.4325576096
0.4207420335
0.4321284908
0.3331646714
0.3477398197
0.3563004669
0.4804068199
0.4679179775
0.4653409542
0.4439917155
0.4520184689
0.4680512223
0.1379079481
0.165170163
0.1633466714
0.4640666118
0.4596292016
0.4683776099
0.08143674098
0.1064648096
0.1046379449
0.1315081736
0.1297937163
0.1037700261
0.2477825665
0.3076888099
0.3039294067
0.3268404591
0.3270280865
0.2669896396
0.164452261
0.1663865664
0.1968834695
0.1910176713
0.160705087
0.162567025
0.1082710265
0.1349929416
0.1332291029
0.1615844782
0.1597265673
0.1326648581
0.1028754962
0.1012471599
0.07586623165
0.4223118316
0.1573239287
0.1677316499
0.1824626036
0.1152399109
0.118057059
0.1008345574
0.05922184919
0.06593037053
0.07208586194
0.04378726499
0.04495654801
0.03917106418
0.2792639408
0.2868312233
0.306320315
0.1727781022
0.188484101
0.1910466035
0.1403920296
0.1427504239
0.1568380735
0.07928771881
0.08718538333
0.08168123787
0.02544521313
0.02552240899
0.03123992714
0.1180798442
0.1163082329
0.09236761308
0.0214681424
0.02404276592
0.02660750831
0.01609277769
0.01699837777
0.01497002746
0.1843484084
0.189253531
0.2076791521
0.2059087574
0.1774918365
0.1805478525
0.0106515292
0.01065795384
0.01275011286
0.1740524242
0.1731540877
0.1482049653
0.158784092
0.1743490292
0.1746324405
0.09671118981
0.1214226702
0.1196383559
0.1469994739
0.1449603494
0.118595362
0.1243217234
0.1507562441
0.1488649832
1.155429715
1.155470676
1.155337009
1.155795443
1.155613628
1.155611601
1.155727906
1.155652895
1.155800082
1.15635236
1.156218021
1.155983012
1.156748119
1.15645529
1.156654504
1.156249354
1.156321733
1.156561443
1.157798893
1.157374314
1.157034507
1.142768149
1.157735916
1.139572769
1.157049336
1.15732909
1.157673878
0.9786065339
1.043288294
1.110302795
0.9694958014
1.020034247
0.9471172967
1.144963073
1.090299646
1.025049028
0.8606748427
0.9174178119
0.9526602645
0.907144473
0.8462287449
1.006889152
0.9627477064
1.155672901
1.155539435
1.155258346
1.156254038
1.15587178
1.156071224
1.155649577
1.155733261
1.156050797
1.157621003
1.157181129
1.156689872
1.091150359
1.157716252
1.085730451
1.156919742
1.157277885
1.157776807
0.8810436216
0.95691934
1.021781546
0.8508621429
0.9011408411
0.8278986507
1.059084366
0.9787316974
0.9245436412
0.7047325268
0.7710649758
0.8084182324
0.7132604009
0.7402861077
0.6750762523
0.8768308352
0.8078902753
0.7789069904
0.611084255
0.6733451195
0.69150877
0.6603245034
0.5983481637
0.7849116357
0.7228948317
1.156797641
1.156454448
1.155872942
1.10818774
1.157106725
1.130670649
1.156342437
1.156677611
1.157315698
0.8740034314
0.93859905
1.021432171
0.7974653936
0.8640183755
0.8024584096
1.006366758
0.9319584344
0.8622014445
0.6305382552
0.6853431379
0.7382034079
0.5966121691
0.6383676477
0.5849271928
0.7597009248
0.6965700333
0.6534625914
0.4759494677
0.5273332022
0.5597375613
0.4750801892
0.4992792091
0.4480230954
0.6129630207
0.5543046483
0.5299083689
0.3867745121
0.4381539243
0.4547501931
0.4253808175
0.3740787691
0.537975518
0.4800490941
1.001447186
1.053604691
1.15178304
0.8702826211
0.9596778952
0.9067153338
1.070442461
1.015766206
0.9223958042
0.6772501675
0.7188094176
0.7916480034
0.5947772045
0.6530394568
0.616084569
0.7472992978
0.6968886288
0.6377152466
0.4589302485
0.4952090511
0.5424287531
0.4131754251
0.4524893261
0.4163519529
0.5360610764
0.4917017393
0.4522183924
0.3096600345
0.3455595151
0.3776241481
0.2921080139
0.3170549374
0.2810285466
0.4005368717
0.3568701562
0.3323826214
0.21619575
0.2537230871
0.2709138624
0.2406822356
0.2029347877
0.3261921624
0.2816300015
0.8423845266
0.8742232442
0.9680632855
0.712420057
0.7886438465
0.7590842666
0.8617836356
0.8229542537
0.7441070805
0.5561903574
0.579974509
0.6429206124
0.4687460598
0.5220264228
0.4996662338
0.5807063939
0.5485640331
0.4939977715
0.3547785846
0.3750502482
0.4202759422
0.2949238543
0.3334548349
0.3131495826
0.3846550185
0.3570144359
0.3185045755
0.2045345317
0.225102696
0.2581280893
0.1679073156
0.1948133759
0.1737571549
0.2486146004
0.2202558971
0.1936552097
0.1008948958
0.1249358497
0.1426433583
0.1116842279
0.0863471114
0.1690414642
0.1374077908
0.7539215316
0.7702148762
0.8533972451
0.6271934492
0.6951405173
0.6811142814
0.7340787906
0.7126937931
0.642639092
0.4993066374
0.5079050809
0.5651688378
0.4062085108
0.4552978728
0.4478810115
0.4811303292
0.4663124569
0.4159811984
0.312782587
0.3170274142
0.3601456495
0.2382260999
0.2764443638
0.2728370491
0.2968239303
0.2845895431
0.2461882264
0.1645756725
0.1663462844
0.2019523818
0.1029859623
0.1340907301
0.1317046368
0.1563109212
0.1437277635
0.1118378323
0.06201060046
0.07278202138
0.06701440896
0.7138486809
0.7225664758
0.7966774085
0.5961070416
0.6561336256
0.650947938
0.6700798728
0.662066612
0.6001085506
0.4940527391
0.4908830317
0.5412796722
0.4008516031
0.4442119705
0.449827149
0.4436799111
0.4426490318
0.3976298794
0.3334382594
0.3234347461
0.3607974473
0.2560940752
0.2884913249
0.3005422073
0.2740347665
0.2794260608
0.2445430044
0.7140948422
0.7132470377
0.7771567799
0.603830966
0.6558082312
0.6588903063
0.6500260877
0.6529240599
0.5994613463
0.5217007803
0.5129138641
0.5563694777
0.4367450674
0.4730684925
0.4837261151
0.4574924875
0.4642090722
0.4262510593
0.3899371558
0.3745082674
0.4040071183
0.3240440238
0.3478463419
0.3652892754
0.3148646411
0.3308638838
0.3046988454
0.729332008
0.7242049113
0.7802773474
0.629024557
0.6742048861
0.6807976251
0.6629469285
0.6681657943
0.6215742441
0.5608541926
0.5507240473
0.5880010564
0.4865337347
0.5169486971
0.5280910663
0.4947558169
0.5058027164
0.4742186639
0.4497344678
0.4357345559
0.4594551679
0.4001072179
0.415804216
0.4308535541
0.3827089339
0.3996781944
0.382290495
0.3753840296
0.3667279559
0.3778570041
0.3531671366
0.3637801646
0.3649651299
0.7557724636
0.748323328
0.7991615602
0.6621615315
0.7031426363
0.7114305408
0.6877859152
0.6952728031
0.6534811126
0.6006550075
0.5908186208
0.6248295635
0.5320453211
0.5599282539
0.5700125714
0.538985499
0.549651152
0.5214724512
0.4953316667
0.4854667407
0.5071869622
0.4534796516
0.4673138409
0.476626961
0.4445563932
0.4567216308
0.4432791081
0.4006784538
0.4540314831
0.450052037
0.4616517019
0.4577185747
0.4046120163
0.7203521041
0.7300462654
0.6907907148
0.5802137895
0.5904706608
0.5622554542
0.4847495821
0.4925728874
0.4751057493
0.3336771343
0.3886210706
0.383800778
0.3972608495
0.392928115
0.33798183
0.4162386926
0.469207256
0.4653063426
0.4546415929
0.4714278967
0.4199604918
0.3509790213
0.4057640775
0.4013366986
0.4141467432
0.4098799188
0.3552250971
0.04032835443
0.05274570474
0.05265667423
0.06109566593
0.05614944124
0.04365382614
0.0826927123
0.06701413897
0.07129995792
0.06364154394
0.05554720124
0.06522394455
0.03887986169
0.04694307018
0.05421500944
0.04148962235
0.03372343679
0.2678998594
0.284296025
0.2908708884
0.312457585
0.3002287163
0.3013323056
0.2323875368
0.2330388735
0.2501474862
0.3929301937
0.4063477939
0.418150006
0.3969208031
0.3966465978
0.3880960949
0.4198283714
0.4135934702
0.4022514891
0.3458331099
0.3429954346
0.3311770554
0.3702808185
0.3605081471
0.3554683933
0.3716915344
0.3633643967
0.3773659052
0.4060236364
0.3968807701
0.4108879405
0.3807127678
0.3927310039
0.3919688764
0.4675197295
0.4673847328
0.4823431083
0.454374248
0.4550133072
0.4589427942
0.4552767633
0.4616313463
0.4459631237
0.4357428374
0.438045509
0.4349453781
0.4497773172
0.4503389414
0.4340235393
0.475677314
0.4600280281
0.4637615369
0.3844819492
0.4384864395
0.4343943702
0.4463163429
0.4422907153
0.3885608089
0.1686494587
0.166901742
0.139745291
0.4588832267
0.4530538841
0.4610931029
0.4424537967
0.4456402258
0.448998173
0.4618000429