/*--------------------------------*- C++ -*----------------------------------*\
| =========                 |                                                 |
| \\      /  F ield         | OpenFOAM: The Open Source CFD Toolbox           |
|  \\    /   O peration     | Version:  v2012                                 |
|   \\  /    A nd           | Website:  www.openfoam.com                      |
|    \\/     M anipulation  |                                                 |
\*---------------------------------------------------------------------------*/
FoamFile
{
    version     2.0;
    format      ascii;
    class       volScalarField;
    location    "2.83";
    object      omega;
}
// * * * * * * * * * * * * * * * * * * * * * * * * * * * * * * * * * * * * * //

dimensions      [0 0 -1 0 0 0 0];


internalField   nonuniform List<scalar> 
3019
(
826.972019
151.4093519
72.33497202
46.27062141
36.9052626
33.38830498
31.7627647
31.13135162
30.74076943
30.58732167
30.50422894
30.46078068
510.9536822
141.0833218
70.4637467
45.79699742
36.910985
33.48022591
31.78368671
31.10473025
30.67898943
30.51077662
30.41763908
30.36915773
365.4393197
130.2232937
66.9464243
44.90928455
36.75385655
33.51012801
31.77664382
31.07041428
30.61805568
30.43727451
30.33442086
30.28166001
302.7977145
115.5522786
62.3105752
43.6617963
36.51252507
33.47452792
31.74515821
31.02599674
30.55256392
30.36194497
30.25192787
30.19525199
221.0081015
97.78443627
57.23938778
42.37848829
36.30850021
33.40318078
31.69264275
30.97124014
30.48345717
30.28566906
30.16894129
30.10901806
167.147397
83.31856977
53.40352071
41.57480183
36.13517866
33.30680219
31.62091928
30.90269849
30.40554179
30.20247661
30.08183879
30.01908711
140.4777304
76.06346666
51.8547682
41.21062885
35.94940649
33.19212834
31.53552717
30.82343961
30.32157687
30.11541321
29.99186992
29.92746508
132.9095401
74.6409944
51.20491552
40.88246724
35.76346581
33.06724681
31.44002798
30.73478501
30.22929666
30.020758
29.8952925
29.82991798
128.3338276
73.57653423
50.713782
40.59389548
35.58408204
32.93761415
31.33713135
30.63822618
30.13222282
29.92300952
29.79652982
29.73066411
124.5715826
72.67630582
50.36085173
40.35161105
35.41570519
32.80714028
31.22900863
30.53535455
30.02774118
29.81759929
29.69055
29.6246752
121.4127766
71.9042821
50.10163132
40.15806884
35.26202996
32.67887623
31.11766693
30.42768435
29.92115602
29.71156341
29.58450912
29.51887209
118.7068833
71.236096
49.9019895
40.00789669
35.12513711
32.55505371
31.00485877
30.31664675
29.80819917
29.59794658
29.47087807
29.40572101
116.3495142
70.65401516
49.74372188
39.89192869
35.00486724
32.43699672
30.89193518
30.20341173
29.69634984
29.48711842
29.36044023
29.29583222
114.2661165
70.14340879
49.61665489
39.80183798
34.89959606
32.32517258
30.77981896
30.08900956
29.57810863
29.36772385
29.24109833
29.17711583
112.4001028
69.69151833
49.51421187
39.73155586
34.80730555
32.21952354
30.66912156
29.97414049
29.46469593
29.2555007
29.12932024
29.06593522
110.7097233
69.28755087
49.43127722
39.67660861
34.72603966
32.11971721
30.56020609
29.85947462
29.34299976
29.13170524
29.00540042
28.9425985
109.1595426
68.92085217
49.36299255
39.63348448
34.6540877
32.02533817
30.45329809
29.74530724
29.23117937
29.02121254
28.89524287
28.83294858
107.7144746
68.58043911
49.30485424
39.59941493
34.59000145
31.93594899
30.34852754
29.63214108
29.10625845
28.89301273
28.76666528
28.70482432
106.3446463
68.25733433
49.25321079
39.57219906
34.53254322
31.85112653
30.24597757
29.51997674
28.99933747
28.78757906
28.66135895
28.59987479
105.0285218
67.94480339
49.20506632
39.5499917
34.48063067
31.7704525
30.1457016
29.40935523
28.86950885
28.65337305
28.52654109
28.46535177
103.7512086
67.63726757
49.15793737
39.53125603
34.4333168
31.6935199
30.0477828
29.30003164
28.77206909
28.55723027
28.43022978
28.36923204
102.5041742
67.33112541
49.11013406
39.51477695
34.38978159
31.61998325
29.95245702
29.19301198
28.6326989
28.41333865
28.28555901
28.22470061
101.2852561
67.02502037
49.06043076
39.49945095
34.34924251
31.54943747
29.86038521
29.08832008
28.55235531
28.3323147
28.20403642
28.14319616
100.0999505
66.71963806
49.00764459
39.48416034
34.31105855
31.4816514
29.77339225
28.98925238
28.37355813
28.14809859
28.01845632
27.95755484
1014.296909
863.6024039
183.9402808
629.9453611
993.0973702
533.574671
178.979273
181.8985534
476.654537
620.5588803
352.80764
723.3443373
743.1953751
653.5484599
311.9023256
340.5208112
1439.908769
875.9739206
1590.512594
1197.313367
620.4356822
832.7643247
382.2761223
163.8604091
175.266843
540.6067477
596.4144862
1122.661177
285.4905552
302.6045856
635.813885
576.0110272
6258.255851
2425.502841
1383.671378
669.0203467
4896.879988
3622.6674
1206.349275
5038.724858
6134.270403
3580.457882
4808.025594
6509.850312
2395.390953
3235.287008
1667.575413
2149.349105
5851.944228
6469.565683
2149.782209
6201.940379
5421.430598
166.6621766
85.67340659
1147.132087
3303.038453
2440.905911
4662.0888
3055.212444
1557.959804
886.151714
6285.197541
6617.638718
6756.502361
5633.699828
6451.431426
1266.95831
1518.280225
5995.592035
5506.992785
6067.131559
5624.152809
6386.088452
6336.568515
6201.254205
3994.125125
5509.55789
5059.988168
6152.356704
6357.191297
4396.133081
4681.662335
5112.415243
6411.969314
5289.356236
3930.995565
4238.669522
6026.844431
4681.167656
4922.956352
3841.721643
4274.202592
6203.025992
72.89342384
50.51853922
46.25637263
38.40991974
36.85944062
33.94096816
734.4109279
483.3505225
522.380364
144.0693342
82.60740103
84.98237237
70.78204844
49.99574061
50.48577937
45.96737979
38.45008457
38.46344975
36.93082099
34.05716094
33.98164597
464.2608423
254.3071699
279.1020182
133.0966092
78.56782598
81.96361571
67.88357849
48.86930095
49.73831449
45.15621632
38.20633613
38.39808049
36.80935782
34.09913892
34.07563351
497.5766848
573.8332262
322.3724982
146.9745602
160.3205135
119.7083961
72.66207691
77.29526171
63.58076564
47.23682804
48.51970886
43.99831912
37.84685496
38.13126424
36.57631071
34.06755542
34.09485892
336.8571173
460.0904518
239.7356557
123.5774276
141.5328803
102.1681845
65.57345401
70.9197801
58.45035665
45.35084288
46.76848807
42.6762929
37.46242964
37.74272324
36.34941059
33.99063429
34.05048771
220.6308318
300.4648213
177.6464394
101.703746
117.5840759
86.3350925
59.55085476
63.87962324
54.17648632
43.88668724
44.91714867
41.70197441
37.22756508
37.39102418
36.18032522
33.88727038
33.96714785
170.9476986
203.1976314
144.9553962
88.61185601
97.44506363
77.16657507
56.3367362
58.43824058
52.04388238
43.29553458
43.66224851
41.29821604
37.01152197
37.17395007
35.99623067
33.76335647
33.85763146
157.4027666
165.1979135
134.2144992
85.12848755
86.90993708
74.94064196
55.48082043
56.08256529
51.35268894
42.89549501
43.19078799
40.96104444
36.79829472
36.95757768
35.80953864
33.62911232
33.73041025
151.6328835
155.8686504
129.3916774
83.5221326
84.69699783
73.82531106
54.87142556
55.30890551
50.82209401
42.54982699
42.8037226
40.66195429
36.59554605
36.74643387
35.62805658
33.49089635
33.59474332
146.7433832
150.3358486
125.4487187
82.17719773
83.16492224
72.88826709
54.43357813
54.74873018
50.43856476
42.26655795
42.47292721
40.40757106
36.40814052
36.54709713
35.45654945
33.35282945
33.45624933
142.553208
145.6375824
122.15511
81.02796181
81.87364253
72.08675145
54.10271387
54.34297909
50.15985455
42.04724864
42.20599389
40.20207108
36.24029025
36.3642214
35.29891857
33.21815655
33.31873862
138.9130421
141.5975084
119.3473966
80.0325064
80.76625655
71.39448754
53.8386763
54.03151356
49.94750955
41.88218556
42.00146323
40.0418668
36.09432635
36.20173968
35.15776169
33.08948802
33.18535827
135.7028555
138.0748306
116.9107197
79.16164211
79.80423099
70.79231339
53.62248732
53.78071091
49.78005627
41.75787268
41.84781876
39.91821216
35.96959066
36.06125086
35.03345363
32.96836597
33.05847643
132.8332795
134.9570577
114.7647403
78.39399082
78.96101991
70.26511929
53.44369625
53.57469064
49.64590304
41.66322613
41.73181199
39.82230423
35.86348051
35.9414506
34.92461827
32.8552408
32.93934559
130.2399081
132.1617144
112.848821
77.71139585
78.21620869
69.79962183
53.29494614
53.40401744
49.53781173
41.59075753
41.64329374
39.74753698
35.77303632
35.83952807
34.82927317
32.74988078
32.82820052
127.8767122
129.6297027
111.1179193
77.09892864
77.55242491
69.38464795
53.17037806
53.261833
49.45045906
41.53530526
41.57550503
39.68911855
35.6955655
35.75256486
34.74542449
32.6517253
32.7247001
125.7029098
127.317753
109.5359602
76.54280329
76.95535814
69.00967604
53.06435168
53.14243519
49.37895836
41.49284827
41.52364604
39.64332423
35.62877612
35.67796111
34.67128803
32.56011891
32.62824145
123.676147
125.1848227
108.0676615
76.02850881
76.41105786
68.66363807
52.97126708
53.04015077
49.31866059
41.46014338
41.48390339
39.60721527
35.57079508
35.61353659
34.60535814
32.47442564
32.53817373
121.7577031
123.1886923
106.6812012
75.54292922
75.90504151
68.3369012
52.88640747
52.94951639
49.26569212
41.4346181
41.45321283
39.5784703
35.52007036
35.5575053
34.54634971
32.39404023
32.45386217
119.9170403
121.2926622
105.3528872
75.07620844
75.42500241
68.02228329
52.80605981
52.86610552
49.21693041
41.41414685
41.42913776
39.55516822
35.47527814
35.5083807
34.49314537
32.31839282
32.37471235
118.1345418
119.4692055
104.0658718
74.62036239
74.96170865
67.71390441
52.72711129
52.7863721
49.16973795
41.39693441
41.40963471
39.53568938
35.43527529
35.46488585
34.44476224
32.24694442
32.30016324
116.3979121
117.7021209
102.8086439
74.16971545
74.5076839
67.40744695
52.64736784
52.70738868
49.12221622
41.38158801
41.39300426
39.51874856
35.39909729
35.42592432
34.40035633
32.17923302
32.22969142
114.6969575
115.9828867
101.5734229
73.72107214
74.05831162
67.10045393
52.56541803
52.62724276
49.07304168
41.36694426
41.37794383
39.50323604
35.36585761
35.39056408
34.35913745
32.11477335
32.16283752
113.0193597
114.3082941
100.3504422
73.26963541
73.61218405
66.78910222
52.47918249
52.54471535
49.02039283
41.35164507
41.36329938
39.48790231
35.33461069
35.35792653
34.32026165
32.05302153
32.09911615
111.2474025
112.6844223
99.05105905
72.77879517
73.17109412
66.44676052
52.37936971
52.45884126
48.95778165
41.33290982
41.34786008
39.47026149
35.30251246
35.32724533
34.28057445
31.98978234
32.0382309
1060.69229
1274.019257
1210.053296
732.7502452
760.2933931
912.2904672
190.9509768
316.0680008
287.408264
660.31546
1205.456794
2187.304302
1605.991763
974.8427311
418.8830237
435.04284
583.2101464
174.1124514
253.1905309
242.6067772
278.7457096
259.4503937
175.49678
554.7835777
625.959174
365.6219619
504.9184893
466.9028186
522.9398715
349.5861395
1892.080622
1333.503288
853.9515449
820.7626737
701.3339191
769.7924957
944.617375
895.6972004
433.507523
473.6175435
709.1723596
319.5250063
390.0136235
379.0202463
449.1671086
406.6586268
330.3919476
2187.16219
1941.209513
1351.710173
3409.847009
3639.755063
5067.688176
913.3675748
1480.149878
1247.364904
1730.122415
2803.208943
2487.991764
867.1192216
914.3424897
1438.798185
642.6121848
759.1332181
730.1593877
793.3297573
669.4923463
1065.083463
987.4222869
799.3579096
2893.423145
3117.565941
1222.716963
1219.469837
267.6319294
277.2682959
443.1069045
167.3573621
208.3245019
203.00664
236.0888169
214.2932936
171.2047178
556.4626164
651.762735
630.4494048
701.4017479
676.548744
577.695107
966.6699899
793.5967117
829.2236972
289.0341766
348.0124039
341.734054
366.137942
357.8469274
297.3264598
600.4901312
441.5995998
461.5773405
597.4496984
845.9174056
809.9009697
2742.798848
4275.093366
3831.631463
1065.848801
1114.437858
957.3906413
989.409769
1465.999145
688.4166531
788.1400213
769.5255028
4455.597259
3050.575588
3414.060818
2429.189968
2720.309359
3982.176444
1260.946252
1729.719166
1574.481786
2626.485038
3725.048522
3410.684593
4549.311626
4138.897423
2923.462494
1787.076647
2626.305148
2435.375175
3100.103605
2861.731314
1986.232447
3428.789849
3128.776553
1929.64917
124.0202284
125.2570243
168.676201
86.13751722
102.4607852
101.6927196
1457.854948
1359.067695
1097.611512
3027.223539
1974.238649
2178.167086
1613.653498
1761.675657
2713.191243
1183.860143
1241.511333
1711.592882
930.4573177
1027.394943
1022.265075
1085.093888
946.9924554
2459.790994
2636.415145
1338.229519
1856.126652
1716.64085
2218.275944
2032.993441
1442.33776
33.35618303
32.27578251
31.74413702
31.38663109
31.14618585
30.97672161
791.4086426
682.9090748
705.7144366
149.0198081
120.6187789
121.9209862
71.96723463
62.76563702
62.96388188
46.11835252
42.93168032
42.99367542
36.93606238
35.72771392
35.68269891
33.46472405
32.34745914
32.31774652
31.77536757
31.386272
31.38740036
31.12267482
30.93514871
30.95765299
495.0873734
391.3459634
404.5465559
138.3314597
113.6150431
115.4861646
69.45612364
61.02411179
61.65567585
45.66780647
42.57354048
42.71896413
36.88472063
35.72583199
35.73997055
33.5102087
32.37434401
32.36645893
31.7824291
31.37417911
31.38210135
31.09313384
30.89068945
30.9143339
352.7644274
252.7462655
259.398045
127.0628611
105.0636666
107.5067737
65.9187031
58.39486351
59.15239162
44.62977884
41.89173279
42.08603773
36.69999661
35.63071599
35.66129045
33.48758688
32.36278451
32.37117059
31.76643689
31.34501467
31.36054694
31.0536383
30.84131188
30.86716397
281.6384784
212.2645971
224.135914
111.1729142
93.1640022
96.38973023
61.01369606
54.84955504
55.78952329
43.32910841
40.98352661
41.21750543
36.45075179
35.49177545
35.52609056
33.42412921
32.31534797
32.34234486
31.72214426
31.30111473
31.32282416
31.00450948
30.7849896
30.81426708
204.4226196
165.653283
176.4593074
93.62547614
80.46000622
83.45702189
56.1097147
51.3261836
52.13271751
42.11182519
40.17308221
40.34577345
36.26723196
35.36426891
35.39832234
33.33358187
32.24734701
32.28411538
31.65876121
31.24001567
31.27184233
30.94118851
30.71929162
30.75355015
158.2807221
131.9325455
138.7708105
80.77729721
71.19315465
73.03901761
52.78738434
49.01540434
49.43478581
41.47940821
39.77256318
39.84965969
36.08930806
35.21309343
35.25257509
33.22237029
32.16042832
32.20585737
31.57970885
31.16538224
31.20380561
30.86657479
30.64364181
30.68249791
137.2012016
116.0454539
118.2794375
75.59731233
67.55238919
67.89601425
51.67796324
48.26128938
48.40854522
41.12521733
39.47503567
39.54747743
35.90261476
35.04966905
35.09101798
33.09930055
32.06051706
32.11178397
31.48886675
31.07940641
31.12334011
30.78192652
30.55918434
30.60234921
131.6749863
112.3395859
113.1870743
74.35646952
66.51405879
66.74284048
51.06734575
47.74029492
47.85991355
40.80637452
39.20079864
39.26686165
35.71782199
34.88422014
34.92541124
32.97035182
31.95214807
32.00716244
31.38936814
30.98428717
31.03260878
30.68870079
30.4665783
30.51375391
127.3268251
109.2996338
110.0112363
73.33795818
65.73574852
65.91351427
50.61428802
47.33598713
47.4260324
40.52876991
38.95550128
39.01379304
35.54080199
34.72253981
34.7623807
32.83973904
31.83866458
31.89587181
31.28359822
30.88215476
30.93379148
30.58844232
30.36714196
30.4175971
123.7324141
106.7299993
107.3339115
72.47247155
65.10613212
65.25283817
50.28896653
47.0407509
47.10576824
40.29876313
38.74479772
38.79399085
35.3757968
34.56862458
34.60618498
32.71065871
31.72269053
31.78084722
31.17362599
30.77501211
30.82897118
30.4827282
30.26194134
30.31520816
120.6990241
104.5329763
105.0518491
71.72840839
64.57688022
64.70128908
50.04709877
46.82596501
46.87375829
40.11681627
38.57133418
38.6112792
35.22621175
34.42569689
34.46026716
32.5855487
31.60634572
31.6644508
31.06135344
30.66455451
30.72001318
30.37301376
30.15259541
30.20777428
118.0884882
102.6307273
103.0820296
71.08320984
64.12457459
64.23126145
49.85906956
46.66491246
46.70119138
39.97607766
38.43222196
38.46409458
35.0935674
34.29561753
34.32689825
32.46596593
31.49125145
31.5485646
30.94834577
30.55218816
30.60847029
30.2606027
30.03992149
30.09672712
115.8058008
100.9654898
101.3621646
70.52030876
63.73521868
63.82728928
49.70937025
46.54097823
46.56909585
39.86727081
38.32133651
38.34676221
34.97722907
34.17854822
34.20663786
32.35256367
31.37845165
31.43452194
30.83573208
30.43900425
30.49559625
30.1465726
29.92547923
29.98300109
113.7814119
99.49159201
99.84423466
70.02548179
63.39751479
63.47763746
49.58898672
46.44439889
46.46635082
39.78262223
38.23263913
38.25301321
34.87539351
34.0735288
34.09872506
32.2453888
31.26852062
31.32310532
30.72426598
30.32582595
30.38233932
30.03178546
29.80944258
29.86778628
111.96274
98.17239489
98.48930511
69.5865363
63.10196573
63.17235092
49.49187931
46.36903056
46.38615177
39.7165495
38.16138212
38.17777909
34.78603519
33.97921401
34.00186704
32.14415713
31.16172074
31.2147235
30.61442145
30.21323375
30.2694046
29.91689937
29.69338526
29.75154545
110.3106967
96.97883516
97.26687023
69.19292199
62.84021647
62.90293486
49.41305946
46.31014042
46.32355725
39.66485616
38.10384567
38.11711637
34.70724729
33.89421543
33.91466296
32.04845745
31.05812817
31.10952677
30.50648284
30.10164694
30.1572833
29.80239813
29.57662558
29.63525876
108.7899492
95.88334195
96.14954821
68.8337784
62.60365822
62.66090638
49.34770347
46.2634641
46.27420111
39.62422888
38.05708401
38.06790074
34.6373878
33.81728049
33.8358215
31.95785981
30.9577226
31.00753982
30.40061753
29.99134085
30.04632072
29.68865203
29.46114834
29.51887723
107.3660263
94.85871122
95.10950911
68.49841557
62.38399208
62.43770446
49.29149625
46.22533948
46.23423952
39.59206171
38.01877621
38.02767024
34.57506674
33.7473079
33.76420497
31.87193621
30.86041161
30.90870949
30.29690887
29.88252262
29.9367715
29.5759002
29.34510486
29.40339747
106.0111295
93.88399359
94.12394824
68.17853224
62.17480551
62.22640201
49.24099229
46.19282577
46.20057003
39.5662605
37.98704234
37.9944519
34.5190927
33.68332954
33.69881236
31.79026455
30.76609232
30.81294631
30.1953858
29.77529487
29.82881226
29.46434999
29.23157978
29.2882434
104.7052372
92.94402426
93.17670824
67.86770866
61.97103775
62.02171138
49.1933067
46.16343187
46.17060774
39.54505164
37.96028714
37.96658677
34.46841306
33.62446953
33.63874928
31.71242615
30.67463378
30.72018243
30.09598502
29.66969995
29.72260887
29.35402299
29.11679954
29.17475422
103.4342132
92.02712865
92.25552655
67.56068003
61.76866231
61.81929745
49.14613381
46.13515534
46.14220376
39.52698434
37.93719335
37.94268577
34.42211779
33.56995755
33.58321635
31.63807829
30.58575886
30.63037735
29.99852344
29.56556611
29.61830109
29.24489065
29.00597512
29.06168218
102.1889105
91.12601973
91.35305592
67.25422312
61.56527992
61.61643609
49.09794973
46.10659481
46.11383218
39.51089792
37.9166749
37.92162058
34.37940428
33.51910315
33.53151207
31.56681764
30.49890259
30.54354454
29.90250354
29.4624825
29.5162414
29.1364266
28.89159389
28.95137645
100.9615384
90.23503066
90.46760115
66.94587119
61.35900362
61.4119431
49.04735723
46.07642211
46.0842762
39.49565298
37.89766583
37.90235056
34.33947727
33.47121286
33.48295557
31.49817836
30.41263585
30.46017627
29.80663613
29.35909339
29.4171476
29.02738461
28.78193786
28.84210867
99.73657204
89.3403799
89.60341661
66.6280484
61.14390532
61.20572903
48.99153832
46.04234656
46.05226248
39.47973215
37.8787743
37.88386695
34.30117671
33.42518489
33.43702952
31.42764238
30.32065749
30.38239195
29.70361804
29.2474501
29.32310108
28.90891316
28.65348066
28.73984504
185.9680612
210.3941187
207.4826228
646.033375
738.8729043
724.3836155
1134.63266
1115.286449
936.8514667
204.106965
201.7210478
179.5064153
415.5497432
369.913609
575.4623791
588.642931
668.5367914
1007.506669
1051.342762
1258.9649
1786.181108
1902.159724
1105.391835
934.3774966
986.7183283
624.1127001
551.0156324
563.1001537
1536.779484
1645.752278
63.30871828
63.34015834
73.03832096
50.47315945
56.05765174
56.07089759
42.96241964
42.94467134
46.21838621
38.38692712
40.38294387
40.40454662
35.64469442
35.6027341
36.82356745
33.90352176
34.65149309
34.6852962
641.3035415
660.1275275
760.4254746
495.893584
571.5150462
556.9296143
608.8228734
590.5527436
508.5711765
117.5952542
118.5218312
145.7156416
83.61067376
98.63375595
97.70547095
100.6395431
99.80149199
84.31811011
61.98382447
62.43275073
71.50333212
50.23022805
55.50165509
55.24347875
55.93037007
55.73511514
50.27639462
42.83441648
42.88253188
46.10270255
38.44489389
40.38690146
40.37644021
40.44724776
40.44050098
38.47450207
35.73812013
35.72664424
36.92020074
34.04156242
34.79162703
34.79524003
34.7335841
34.76162713
34.01363856
369.2492282
380.6779966
474.130254
330.1905054
324.4762258
272.4126785
109.735543
111.7363706
135.7841468
79.72556995
93.58575466
92.08434913
96.3738752
94.98764729
80.76635303
59.83298808
60.43357832
68.71779975
49.17329511
54.07790355
53.64999781
54.86980535
54.6078701
49.61539678
42.25674866
42.47470448
45.40295716
38.32514832
40.15849245
39.98867131
40.29440055
40.20036036
38.34330934
35.70082095
35.71015356
36.86707454
34.09355821
34.81078034
34.81015915
34.81194889
34.81100165
34.08568332
528.5539676
550.2665802
235.1342097
244.7655959
339.3039435
151.939811
188.1750801
181.7560591
198.4844811
193.7352865
156.3840444
99.48303947
102.3864363
123.5608099
74.32617431
86.50523573
84.31112337
90.4185288
88.54597266
75.88739817
56.71131683
57.58135138
64.79800848
47.69427505
52.01097058
51.38267426
53.15778931
52.60920295
48.12436127
41.45060673
41.67809212
44.32267417
37.94904273
39.5963531
39.44119064
39.87371186
39.74209482
38.04513711
35.56063482
35.59713648
36.64020649
34.07961352
34.76334594
34.74393419
34.79392846
34.78007444
34.08988525
376.9620392
418.6760578
188.0120685
200.0597419
260.1992665
129.677945
158.6517729
150.4362369
174.5611276
166.7786926
135.7196837
86.61953264
89.88268337
106.6729389
67.33687454
77.16537879
74.76287266
81.99290427
79.59414816
69.13237404
53.00086613
53.91327938
59.7175302
45.81285206
49.37561287
48.72252856
50.72737109
50.04896608
46.29190292
40.5433789
40.76028277
42.99728008
37.54545639
38.97524742
38.83654009
39.28247706
39.12469246
37.64108791
35.43035967
35.46077343
36.39642219
34.01197099
34.67831232
34.65251731
34.7239413
34.70236997
34.03317833
242.4130574
268.8872878
146.7332829
155.7000446
190.001488
106.5222178
127.4196696
120.8881964
142.3566149
134.6348993
111.8573514
75.20633318
77.69892919
89.78739592
60.83953509
68.23162553
66.42076389
72.44126397
70.2489715
62.29276851
49.96274727
50.59903896
55.08166408
44.17571353
47.02711032
46.59231544
48.10434452
47.53530397
44.52225623
39.92943197
40.03302398
41.88385674
37.28049556
38.52901566
38.46371051
38.71108615
38.60888025
37.33301031
35.29111061
35.32844183
36.22445338
33.91534523
34.56617198
34.53402794
34.62563197
34.59679985
33.94226333
179.0704628
189.5351878
121.6675401
126.2030791
150.9367421
90.85451224
106.0624524
102.9150744
115.0910652
110.1725887
93.84929764
68.60215792
69.72693347
78.70493209
56.818315
62.51127987
61.73183823
64.85447294
63.53363021
57.52833183
48.56256979
48.73380257
52.31390418
43.40340107
45.8175793
45.6858488
46.23805251
45.97738417
43.51599043
39.62130609
39.69638578
41.3878418
37.0656937
38.2711479
38.20767797
38.39939768
38.33512093
37.11989855
35.13213753
35.17288877
36.04292043
33.7955446
34.43069245
34.39464886
34.50056581
34.46605911
33.82715317
159.0108085
160.9513246
114.0743348
115.004764
135.5980329
85.58467923
98.49554155
97.87355061
100.5326085
99.17065586
86.08018388
66.99009099
67.25879892
75.25739464
55.66697464
60.82134949
60.60092083
61.32561948
61.06110163
55.86734526
47.98677129
48.12064284
51.51044858
42.99068233
45.32022311
45.20755089
45.55947746
45.43756723
43.08912409
39.3346446
39.4040654
41.0419844
36.85084355
38.02172109
37.96162803
38.14485403
38.08282677
36.90396642
34.96676653
35.00822346
35.85595238
33.66321615
34.28386433
34.24643139
34.35807731
34.32109871
33.69705565
152.986151
154.3965747
110.7538022
111.5292689
130.5036482
83.89567662
96.1516191
95.62218577
97.27632205
96.70261322
84.28657852
66.10144222
66.30102147
74.08491534
55.00501714
60.04123236
59.88295565
60.39849694
60.21248351
55.15047914
47.52333184
47.62807667
50.93978723
42.630711
44.89908928
44.80679479
45.09967064
44.99676998
42.71538171
39.07416879
39.13653873
40.73281768
36.64497538
37.78815349
37.73287798
37.90261392
37.84475707
36.69528993
34.80264125
34.84328162
35.67265863
33.52557866
34.1339031
34.09652428
34.20892565
34.1713716
33.56021217
147.8936573
149.089542
107.9625526
108.6173213
126.3658951
82.49320937
94.15232222
93.69920675
95.11308278
94.62328484
82.82204303
65.40625108
65.56698653
73.10863409
54.53081938
59.46994185
59.34881875
59.73590975
59.59861004
54.6354893
47.17630915
47.25289278
50.52278168
42.33122906
44.56283
44.49237088
44.71996892
44.63864325
42.40000642
38.84553468
38.89939389
40.46663196
36.45331099
37.57573346
37.52653409
37.67899331
37.62657487
36.49964589
34.64438935
34.68319738
35.49826824
33.38715697
33.98567026
33.94930421
34.05934074
34.02235
33.42163658
143.5442453
144.5711303
105.590207
106.1492102
122.9273812
81.29951297
92.43749968
92.04700872
93.2628894
92.84249588
81.58110243
64.83075508
64.96559368
72.27600474
54.17809218
59.02231996
58.92393039
59.23427836
59.12560496
54.25797205
46.92521378
46.98073423
50.22213436
42.09648311
44.31046059
44.25865389
44.42700975
44.366465
42.1493264
38.65346855
38.69796427
40.2489332
36.2802452
37.38929386
37.34714089
37.47902563
37.43326048
36.32156251
34.49562886
34.53176307
35.33685118
33.25135409
33.8427095
33.80814843
33.91333522
33.87777437
33.28488641
139.7789149
140.6726983
103.5489548
104.0323111
120.0107357
80.26881027
90.95395042
90.61383119
91.67003828
91.30582865
80.51318353
64.34207977
64.45722398
71.55848162
53.89969984
58.65410541
58.57185003
58.82995165
58.74006724
53.96388014
46.7399667
46.78147233
49.99579545
41.9191249
44.12493625
44.08664248
44.21067039
44.16618703
41.95880635
38.49783566
38.53354973
40.07812115
36.12875664
37.23138409
37.19627899
37.30678399
37.26820518
36.16455426
34.35900316
34.39193902
35.19144962
33.12099162
33.70788545
33.67568239
33.77414637
33.74070789
33.15295208
136.4707668
137.2605247
101.7714922
102.1941367
117.4898548
79.36897819
89.6575961
89.35890182
90.28469834
89.96602822
79.58298502
63.92276378
64.02181291
70.93528741
53.67271033
58.34493838
58.27549548
58.49299985
58.41738446
53.72538243
46.59903191
46.63092442
49.81845891
41.78581013
43.9868557
43.95799517
44.05100449
44.01779712
41.81573063
38.37365648
38.40211275
39.94622089
35.99891457
37.1005304
37.07159822
37.16280863
37.1309097
36.02945029
34.23550092
34.2651582
35.06301173
32.99790274
33.58290007
33.55325781
33.64411731
33.61318098
33.02793694
133.5230102
134.2301184
100.2070756
100.580685
115.2775578
78.5773523
88.51586995
88.25135211
89.06930389
88.78835446
78.76618027
63.56053817
63.64636815
70.39068215
53.48534995
58.08327694
58.02424148
58.208812
58.14475208
53.52895819
46.48970665
46.51455824
49.67678119
41.68457757
43.88218275
43.86013519
43.93101191
43.9057695
41.70739736
38.27453976
38.29729335
39.84408931
35.88843197
36.99269568
36.96882733
37.04402294
37.01773837
35.91440338
34.12461168
34.15121641
34.95048845
32.88278278
33.4681086
33.44095378
33.52425265
33.4958665
32.91081193
130.8654213
131.50533
98.81455034
99.14852634
113.3089197
77.87500314
87.50146924
87.26516371
87.99433203
87.74440223
78.04312153
63.24499464
63.32002049
69.91087599
53.32967041
57.86021417
57.80965279
57.96744523
57.9127734
53.36598043
46.40437489
46.4237724
49.5627141
41.60711076
43.80210018
43.78523623
43.83948906
43.8201579
41.62459273
38.19508393
38.21335371
39.7645396
35.79433564
36.9036094
36.88383918
36.9460583
36.92433121
35.81648395
34.02512255
34.04900439
34.85196061
32.77552334
33.36299443
33.3381325
33.41439465
33.38840766
32.80162456
128.4484514
129.0320598
97.56157473
97.86329004
111.5352737
77.2462721
86.59214933
86.37902234
87.03501495
86.81069811
77.39728695
62.96738884
63.03369815
69.48423661
53.19957652
57.66849175
57.62472118
57.76089488
57.71384418
53.23001443
46.33780381
46.35294454
49.47063662
41.54781395
43.74089236
43.72802861
43.76944935
43.7546768
41.56118905
38.13110154
38.14584336
39.70241694
35.71385259
36.82965747
36.81318287
36.8649502
36.84689859
35.7328392
33.93563436
33.95714567
34.76541521
32.67562641
33.26668262
33.24387017
33.31380297
33.28998677
32.69994627
126.2313081
126.7687841
96.42058756
96.69690495
109.9194033
76.67740489
85.76821776
85.57330509
86.1708254
85.96726364
76.81477162
62.71933534
62.77907258
69.10029445
53.08945368
57.50135925
57.46264291
57.58232683
57.541214
53.11543485
46.28552431
46.29749048
49.3956272
41.50244129
43.69413912
43.684278
43.7159766
43.70468634
41.51268668
38.0792774
38.09124959
39.65377071
35.64458368
36.76786635
36.75403859
36.79741126
36.78231235
35.660968
33.85481329
33.87427378
34.68900235
32.58244322
33.17820629
33.1572087
33.22152615
33.19963969
32.60514642
124.1718555
124.6737931
95.36363135
95.62151981
108.4259917
76.15399556
85.00939101
84.82758522
85.38204981
85.19409891
76.28136897
62.49215959
62.54745605
68.74802807
52.99362296
57.35184523
57.31649895
57.4248666
57.3879353
53.0165438
46.24353255
46.25326472
49.3329288
41.46756288
43.65809908
43.65041423
43.67500557
43.66628111
41.47546606
38.03700084
38.04679841
39.61547882
35.58455694
36.71585323
36.70415627
36.74077503
36.72805011
35.59879519
33.78148881
33.79917708
34.62114918
32.49532971
33.09666344
33.07726769
33.13662583
33.11644462
32.51657566
122.2298798
122.7055267
94.36612861
94.61108696
107.021727
75.66227571
84.29647384
84.12369577
84.64830227
84.47123679
75.78284898
62.27841922
62.33093588
68.4172171
52.90708409
57.21370932
57.18041405
57.28172566
57.24745316
52.92808439
46.20854701
46.2167964
49.27844202
41.44045511
43.62973325
43.62356561
43.64314007
43.63624497
41.44663833
38.00219522
38.01029783
39.58508516
35.53214963
36.67170493
36.66171607
36.69291056
36.68209458
35.5446196
33.71462776
33.73078981
34.56052067
32.41367046
33.02122885
33.00324139
33.05823586
33.03955558
32.43360854
120.3728424
120.8291631
93.4104418
93.64643072
105.680991
75.1916589
83.6150768
83.44830698
83.95266342
83.78306051
75.30779041
62.07252283
62.1235472
68.10016101
52.82592423
57.08217158
57.04988383
57.14741638
57.11465928
52.84590667