/*--------------------------------*- C++ -*----------------------------------*\
| =========                 |                                                 |
| \\      /  F ield         | OpenFOAM: The Open Source CFD Toolbox           |
|  \\    /   O peration     | Version:  v2012                                 |
|   \\  /    A nd           | Website:  www.openfoam.com                      |
|    \\/     M anipulation  |                                                 |
\*---------------------------------------------------------------------------*/
FoamFile
{
    version     2.0;
    format      ascii;
    class       pointVectorField;
    location    "2.83";
    object      pointDisplacement;
}
// * * * * * * * * * * * * * * * * * * * * * * * * * * * * * * * * * * * * * //

dimensions      [0 1 0 0 0 0 0];


internalField   nonuniform List<vector> 
6426
(
(0 0 0)
(0 0 0)
(0 0 0)
(0 0 0)
(0 0 0)
(0 0 0)
(0 0 0)
(0 0 0)
(0 0 0)
(0 0 0)
(-0.0008484001827 -0.08613753274 0)
(-0.0008620984338 -0.0864155691 0)
(-0.0008739274192 -0.08669370594 0)
(-0.0002986502847 -0.08670210126 0)
(-0.0002722462761 -0.08614636633 0)
(0.008516431616 -0.08633035126 0)
(0.008469259549 -0.08744279849 0)
(0.008421628435 -0.08855492218 0)
(0.01078319693 -0.08861038164 0)
(0.01087548513 -0.08638465469 0)
(0.009696396859 -0.08635761824 0)
(0.01721534998 -0.08266520959 3.433364704e-13)
(0.01690759495 -0.08358439988 3.384514891e-13)
(0.01804548537 -0.07860581968 3.181899189e-13)
(0.01853124864 -0.07848014904 3.258227022e-13)
(0.01870951119 -0.05832744535 2.421673972e-13)
(0.0180330495 -0.05773065329 2.337019467e-13)
(0.01673530921 -0.0491872945 1.992017662e-13)
(0.01744277337 -0.04993747604 2.074174166e-13)
(0.01062278006 -0.02439103458 1.015160178e-13)
(0.009983133714 -0.02352048203 9.545142454e-14)
(0.007305058016 -0.01614449528 6.557254739e-14)
(0.007868411552 -0.01694826367 7.061018437e-14)
(0.001119448881 -0.002036192531 8.493206138e-15)
(0.0009100172253 -0.001698420115 6.911138328e-15)
(7.215587427e-05 -0.0001281547918 5.273559367e-16)
(0.0001378575922 -0.0002386078033 9.992007222e-16)
(0 0 0)
(0 0 0)
(0 0 0)
(0 0 0)
(0 0 0)
(0 0 0)
(0 0 0)
(0 0 0)
(0 0 0)
(0 0 0)
(0 0 0)
(0 0 0)
(0 0 0)
(0 0 0)
(-0.001426682512 -0.09495819203 0)
(-0.001441185047 -0.09551667715 0)
(-0.001455701559 -0.0960756813 0)
(-0.0002662370808 -0.096106571 0)
(-0.0002372165417 -0.09498908176 0)
(0.008089002162 -0.09520530877 0)
(0.008030974563 -0.0974397682 0)
(0.01037443418 -0.0971276914 3.580469254e-13)
(0.01046053207 -0.09519154683 3.591293929e-13)
(0.01600814435 -0.08606632686 3.241712454e-13)
(0.01560586145 -0.08617993923 3.172462293e-13)
(0.01640028521 -0.07953345544 2.927241782e-13)
(0.01688307995 -0.07978767614 3.00454106e-13)
(0.0156952472 -0.05417686741 2.040867475e-13)
(0.01505989157 -0.05325291933 1.960515084e-13)
(0.01343283563 -0.04353434275 1.603439603e-13)
(0.01435209479 -0.0454428555 1.712519015e-13)
(0.007534977346 -0.01909636774 7.209510766e-14)
(0.006567003764 -0.01702960331 6.283862319e-14)
(0.004463241536 -0.01085816218 4.007905119e-14)
(0.005085752606 -0.01208916029 4.567179968e-14)
(0.0001873654387 -0.0003763664205 1.415534356e-15)
(8.46319559e-05 -0.0001740397551 6.52256027e-16)
(0 0 0)
(0 0 0)
(0 0 0)
(0 0 0)
(0 0 0)
(0 0 0)
(0 0 0)
(0 0 0)
(0 0 0)
(0 0 0)
(0 0 0)
(0 0 0)
(0 0 0)
(0 0 0)
(0 0 0)
(0 0 0)
(-0.00165881816 -0.1038970679 0)
(-0.001716859238 -0.1061320464 0)
(0.000662064099 -0.1061938256 0)
(0.0007201051772 -0.1039588471 0)
(0.007798329045 -0.1032139478 3.562150575e-13)
(0.007641372478 -0.1037861693 3.506778201e-13)
(0.0096957138 -0.1006551785 3.399225346e-13)
(0.009952325577 -0.1009054092 3.480549182e-13)
(0.01428699596 -0.08457420999 2.914196662e-13)
(0.01367016373 -0.08264092575 2.788325126e-13)
(0.01398892705 -0.0741062251 2.500222251e-13)
(0.01471176991 -0.07634028376 2.630257123e-13)
(0.01246057343 -0.04705242603 1.622174617e-13)
(0.01157743694 -0.04461672337 1.506156311e-13)
(0.009829796903 -0.0347157257 1.172395514e-13)
(0.01069657338 -0.03701444323 1.2766177e-13)
(0.004203386457 -0.01163956716 4.021782907e-14)
(0.003611709923 -0.01021056626 3.454181385e-14)
(0.001848333526 -0.004903768131 1.659783422e-14)
(0.002510555838 -0.006524621033 2.255140519e-14)
(0 0 0)
(0 0 0)
(0 0 0)
(0 0 0)
(0 0 0)
(0 0 0)
(0 0 0)
(0 0 0)
(0 0 0)
(0 0 0)
(0 0 0)
(0 0 0)
(0 0 0)
(0 0 0)
(0 0 0)
(0 0 0)
(0 0 0)
(0 0 0)
(-0.001756985058 -0.108334838 3.450711938e-13)
(-0.001660787298 -0.1053196595 3.289452044e-13)
(0.000529751189 -0.1036184922 3.23477356e-13)
(0.0005380071868 -0.1070203507 3.406996907e-13)
(0.006781559153 -0.09791586109 3.112787805e-13)
(0.006355750005 -0.09305668356 2.901290319e-13)
(0.0078379153 -0.08749619813 2.726985304e-13)
(0.008432238943 -0.09277209367 2.948197242e-13)
(0.0111031655 -0.07092571775 2.252642517e-13)
(0.01003034432 -0.06508919934 2.027683577e-13)
(0.009882226877 -0.05621338544 1.751238043e-13)
(0.01106870111 -0.06195585522 1.967731533e-13)
(0.008241619805 -0.03359672162 1.067756994e-13)
(0.006986008474 -0.0289749249 9.033052084e-14)
(0.005458867278 -0.02077026646 6.478151349e-14)
(0.006628638979 -0.02477879518 7.878420138e-14)
(0.001664043139 -0.004990739076 1.589006704e-14)
(0.001071804365 -0.003275782848 1.022792961e-14)
(0.0002402174653 -0.0006898109813 2.164934898e-15)
(0.0005552891423 -0.001564169701 4.982125823e-15)
(0 0 0)
(0 0 0)
(0 0 0)
(0 0 0)
(0 0 0)
(0 0 0)
(0 0 0)
(0 0 0)
(0 0 0)
(0 0 0)
(0 0 0)
(0 0 0)
(0 0 0)
(0 0 0)
(0 0 0)
(0 0 0)
(0 0 0)
(0 0 0)
(-0.001114524931 -0.08515851061 2.513128594e-13)
(-0.0008944780806 -0.07548160168 2.187278136e-13)
(0.0005566884914 -0.07319266871 2.120248421e-13)
(0.0005570040284 -0.08288518837 2.445127434e-13)
(0.004703144417 -0.07047418699 2.077227279e-13)
(0.004057067024 -0.06096316274 1.764699498e-13)
(0.004777157969 -0.05530810162 1.600802824e-13)
(0.005616436883 -0.06460713614 1.904032487e-13)
(0.006412458099 -0.04333571562 1.276895256e-13)
(0.005171748229 -0.03537074084 1.023625629e-13)
(0.004717846423 -0.02838291206 8.215650382e-14)
(0.006003493945 -0.0356483464 1.050409759e-13)
(0.003287201682 -0.01431650477 4.221623051e-14)
(0.002222104204 -0.009830980856 2.847722058e-14)
(0.001310467459 -0.005331746173 1.544597783e-14)
(0.002178779616 -0.008720145281 2.571554081e-14)
(1.831898297e-05 -5.916763719e-05 1.665334537e-16)
(0 0 0)
(0 0 0)
(0 0 0)
(0 0 0)
(0 0 0)
(0 0 0)
(0 0 0)
(0 0 0)
(0 0 0)
(0 0 0)
(0 0 0)
(0 0 0)
(0 0 0)
(0 0 0)
(0 0 0)
(0 0 0)
(0 0 0)
(0 0 0)
(0 0 0)
(0 0 0)
(0 0 0)
(-0.0003301078249 -0.04261553305 1.171424069e-13)
(-0.0002050015402 -0.03188429587 8.618106229e-14)
(0.0003522876458 -0.03021710993 8.165690346e-14)
(0.0004346307113 -0.04070769235 1.118827253e-13)
(0.002059631457 -0.0310266436 8.52512505e-14)
(0.001452730964 -0.02191500765 5.920264279e-14)
(0.001555905134 -0.01839426543 4.969635814e-14)
(0.002280920606 -0.02681418063 7.366329768e-14)
(0.001880929322 -0.01331845477 3.659572645e-14)
(0.001068859469 -0.007661299927 2.070565941e-14)
(0.0007323206482 -0.004641810031 1.254552018e-14)
(0.001467272902 -0.009175171952 2.521594045e-14)
(0.0001686376234 -0.0007823967545 2.137179322e-15)
(4.734860268e-07 -2.233284867e-06 0)
(0 0 0)
(1.971700379e-06 -8.431890691e-06 1.387778781e-17)
(0 0 0)
(0 0 0)
(0 0 0)
(0 0 0)
(0 0 0)
(0 0 0)
(0 0 0)
(0 0 0)
(0 0 0)
(0 0 0)
(0 0 0)
(0 0 0)
(0 0 0)
(0 0 0)
(0 0 0)
(0 0 0)
(0 0 0)
(0 0 0)
(0 0 0)
(0 0 0)
(0 0 0)
(0 0 0)
(-2.322058143e-05 -0.006861756552 1.765254609e-14)
(-6.45234637e-06 -0.002287937847 5.800915304e-15)
(2.621664254e-05 -0.001873325838 4.74620343e-15)
(8.397581766e-05 -0.006112924402 1.572353359e-14)
(0.0001839107473 -0.002819865913 7.258083023e-15)
(2.27881209e-05 -0.0003534659334 8.881784197e-16)
(4.200052021e-06 -5.167825945e-05 1.387778781e-16)
(0.0001396434008 -0.001695018736 4.357625372e-15)
(0 0 0)
(0 0 0)
(0 0 0)
(0 0 0)
(0 0 0)
(0 0 0)
(0 0 0)
(0 0 0)
(0 0 0)
(0 0 0)
(0 0 0)
(0 0 0)
(0 0 0)
(0 0 0)
(0 0 0)
(0 0 0)
(0 0 0)
(0 0 0)
(0 0 0)
(0 0 0)
(0 0 0)
(0 0 0)
(0 0 0)
(0 0 0)
(0 0 0)
(0 0 0)
(0 0 0)
(0 0 0)
(0 0 0)
(0 0 0)
(0 0 0)
(0 0 0)
(0 0 0)
(0 0 0)
(0 0 0)
(0 0 0)
(0 0 0)
(0 0 0)
(0 0 0)
(0 0 0)
(0 0 0)
(0 0 0)
(0 0 0)
(0 0 0)
(0 0 0)
(0 0 0)
(0 0 0)
(0 0 0)
(0 0 0)
(0 0 0)
(0 0 0)
(0 0 0)
(0 0 0)
(0 0 0)
(0 0 0)
(0 0 0)
(0 0 0)
(0 0 0)
(0 0 0)
(0 0 0)
(0 0 0)
(0 0 0)
(0 0 0)
(0 0 0)
(0 0 0)
(0 0 0)
(0 0 0)
(0 0 0)
(0 0 0)
(0 0 0)
(0 0 0)
(0 0 0)
(0 0 0)
(0 0 0)
(0 0 0)
(0 0 0)
(0 0 0)
(0 0 0)
(0 0 0)
(0 0 0)
(0 0 0)
(0 0 0)
(0 0 0)
(0 0 0)
(0 0 0)
(0 0 0)
(0 0 0)
(0 0 0)
(0 0 0)
(0 0 0)
(0 0 0)
(0 0 0)
(0 0 0)
(0 0 0)
(0 0 0)
(0 0 0)
(0 0 0)
(0 0 0)
(0 0 0)
(0 0 0)
(0 0 0)
(0 0 0)
(0 0 0)
(0 0 0)
(0 0 0)
(0 0 0)
(0 0 0)
(0 0 0)
(0 0 0)
(0 0 0)
(0 0 0)
(0 0 0)
(0 0 0)
(0 0 0)
(0 0 0)
(0 0 0)
(0 0 0)
(0 0 0)
(0 0 0)
(0 0 0)
(0 0 0)
(0 0 0)
(0 0 0)
(0 0 0)
(0 0 0)
(0 0 0)
(0 0 0)
(0 0 0)
(0 0 0)
(0 0 0)
(0 0 0)
(0 0 0)
(0 0 0)
(0 0 0)
(0 0 0)
(0 0 0)
(0 0 0)
(0 0 0)
(0 0 0)
(0 0 0)
(0 0 0)
(0 0 0)
(0 0 0)
(0 0 0)
(0 0 0)
(0 0 0)
(0 0 0)
(0 0 0)
(0 0 0)
(0 0 0)
(0 0 0)
(0 0 0)
(0 0 0)
(0 0 0)
(0 0 0)
(0 0 0)
(0 0 0)
(0 0 0)
(0 0 0)
(0 0 0)
(0 0 0)
(0 0 0)
(0 0 0)
(0 0 0)
(0 0 0)
(0 0 0)
(0 0 0)
(0 0 0)
(0 0 0)
(0 0 0)
(0 0 0)
(0 0 0)
(0 0 0)
(0 0 0)
(0 0 0)
(0 0 0)
(0 0 0)
(0 0 0)
(0 0 0)
(0 0 0)
(0 0 0)
(0 0 0)
(0 0 0)
(0 0 0)
(0 0 0)
(0 0 0)
(0 0 0)
(0 0 0)
(0 0 0)
(0 0 0)
(0 0 0)
(0 0 0)
(0 0 0)
(0 0 0)
(0 0 0)
(0 0 0)
(0 0 0)
(0 0 0)
(0 0 0)
(0 0 0)
(0 0 0)
(0 0 0)
(0 0 0)
(0 0 0)
(0 0 0)
(0 0 0)
(0 0 0)
(0 0 0)
(0 0 0)
(0 0 0)
(0 0 0)
(0 0 0)
(0 0 0)
(0 0 0)
(0 0 0)
(0 0 0)
(0 0 0)
(0 0 0)
(0 0 0)
(0 0 0)
(0 0 0)
(0 0 0)
(0 0 0)
(0 0 0)
(0 0 0)
(0 0 0)
(0 0 0)
(0 0 0)
(0 0 0)
(0 0 0)
(0 0 0)
(0 0 0)
(0 0 0)
(0 0 0)
(0 0 0)
(0 0 0)
(0 0 0)
(0 0 0)
(0 0 0)
(0 0 0)
(0 0 0)
(0 0 0)
(0 0 0)
(0 0 0)
(0 0 0)
(0 0 0)
(0 0 0)
(0 0 0)
(0 0 0)
(0 0 0)
(0 0 0)
(0 0 0)
(0 0 0)
(0 0 0)
(0 0 0)
(0 0 0)
(0 0 0)
(0 0 0)
(0 0 0)
(0 0 0)
(0 0 0)
(0 0 0)
(0 0 0)
(0 0 0)
(0 0 0)
(0 0 0)
(0 0 0)
(0 0 0)
(0 0 0)
(0 0 0)
(0 0 0)
(0 0 0)
(0 0 0)
(0 0 0)
(0 0 0)
(0 0 0)
(0 0 0)
(0 0 0)
(0 0 0)
(0 0 0)
(0 0 0)
(0 0 0)
(0 0 0)
(0 0 0)
(0 0 0)
(0 0 0)
(0 0 0)
(0 0 0)
(0 0 0)
(0 0 0)
(0 0 0)
(0 0 0)
(0 0 0)
(0 0 0)
(0 0 0)
(0 0 0)
(0 0 0)
(0 0 0)
(0 0 0)
(0 0 0)
(0 0 0)
(0 0 0)
(0 0 0)
(0 0 0)
(0 0 0)
(0 0 0)
(0 0 0)
(0 0 0)
(0 0 0)
(0 0 0)
(0 0 0)
(0 0 0)
(0 0 0)
(0 0 0)
(0 0 0)
(0 0 0)
(0 0 0)
(0 0 0)
(0 0 0)
(0 0 0)
(0 0 0)
(0 0 0)
(0 0 0)
(0 0 0)
(0 0 0)
(0 0 0)
(0 0 0)
(0 0 0)
(0 0 0)
(0 0 0)
(0 0 0)
(0 0 0)
(0 0 0)
(0 0 0)
(0 0 0)
(0 0 0)
(0 0 0)
(0 0 0)
(0 0 0)
(0 0 0)
(0 0 0)
(0 0 0)
(0 0 0)
(0 0 0)
(0 0 0)
(0 0 0)
(0 0 0)
(0 0 0)
(0 0 0)
(0 0 0)
(0 0 0)
(0 0 0)
(0 0 0)
(0 0 0)
(0 0 0)
(0 0 0)
(0 0 0)
(0 0 0)
(0 0 0)
(0 0 0)
(0 0 0)
(0 0 0)
(0 0 0)
(0 0 0)
(0 0 0)
(0 0 0)
(0 0 0)
(0 0 0)
(0 0 0)
(0 0 0)
(0 0 0)
(0 0 0)
(0 0 0)
(0 0 0)
(0 0 0)
(0 0 0)
(0 0 0)
(0 0 0)
(0 0 0)
(0 0 0)
(0 0 0)
(0 0 0)
(0 0 0)
(0 0 0)
(0 0 0)
(0 0 0)
(0 0 0)
(0 0 0)
(0 0 0)
(0 0 0)
(0 0 0)
(0 0 0)
(0 0 0)
(0 0 0)
(0 0 0)
(0 0 0)
(0 0 0)
(0 0 0)
(0 0 0)
(0 0 0)
(0 0 0)
(0 0 0)
(0 0 0)
(0 0 0)
(0 0 0)
(0 0 0)
(0 0 0)
(0 0 0)
(0 0 0)
(0 0 0)
(0 0 0)
(0 0 0)
(0 0 0)
(0 0 0)
(0 0 0)
(0 0 0)
(0 0 0)
(0 0 0)
(0 0 0)
(0 0 0)
(0 0 0)
(0 0 0)
(0 0 0)
(0 0 0)
(0 0 0)
(0 0 0)
(0 0 0)
(0 0 0)
(0 0 0)
(0 0 0)
(0 0 0)
(0 0 0)
(0 0 0)
(0 0 0)
(0 0 0)
(0 0 0)
(0 0 0)
(0 0 0)
(0 0 0)
(0 0 0)
(0 0 0)
(0 0 0)
(0 0 0)
(0 0 0)
(0 0 0)
(0 0 0)
(0 0 0)
(0 0 0)
(0 0 0)
(0 0 0)
(0 0 0)
(0 0 0)
(0 0 0)
(0 0 0)
(0 0 0)
(0 0 0)
(0 0 0)
(0 0 0)
(0 0 0)
(0 0 0)
(0 0 0)
(0 0 0)
(0 0 0)
(0 0 0)
(0 0 0)
(0 0 0)
(0 0 0)
(0 0 0)
(0 0 0)
(0 0 0)
(0 0 0)
(0 0 0)
(0 0 0)
(0 0 0)
(0 0 0)
(0 0 0)
(0 0 0)
(0 0 0)
(0 0 0)
(0 0 0)
(0 0 0)
(0 0 0)
(0 0 0)
(0 0 0)
(0 0 0)
(0 0 0)
(0 0 0)
(0 0 0)
(0 0 0)
(0 0 0)
(0 0 0)
(0 0 0)
(0 0 0)
(0 0 0)
(0 0 0)
(0 0 0)
(0 0 0)
(0 0 0)
(0 0 0)
(0 0 0)
(0 0 0)
(0 0 0)
(0 0 0)
(0 0 0)
(0 0 0)
(0 0 0)
(0 0 0)
(0 0 0)
(0 0 0)
(0 0 0)
(0 0 0)
(0 0 0)
(0 0 0)
(0 0 0)
(0 0 0)
(0 0 0)
(0 0 0)
(0 0 0)
(0 0 0)
(0 0 0)
(0 0 0)
(0 0 0)
(0 0 0)
(0 0 0)
(0 0 0)
(0 0 0)
(0 0 0)
(0 0 0)
(0 0 0)
(0 0 0)
(0 0 0)
(0 0 0)
(0 0 0)
(0 0 0)
(0 0 0)
(0 0 0)
(0 0 0)
(0 0 0)
(0 0 0)
(0 0 0)
(0 0 0)
(0 0 0)
(0 0 0)
(0 0 0)
(0 0 0)
(0 0 0)
(0 0 0)
(0 0 0)
(0 0 0)
(0 0 0)
(0 0 0)
(0 0 0)
(0 0 0)
(0 0 0)
(0 0 0)
(0 0 0)
(0 0 0)
(0 0 0)
(0 0 0)
(0 0 0)
(0 0 0)
(0 0 0)
(0 0 0)
(0 0 0)
(0 0 0)
(0 0 0)
(0 0 0)
(0 0 0)
(0 0 0)
(0 0 0)
(0 0 0)
(0 0 0)
(0 0 0)
(0 0 0)
(0 0 0)
(0 0 0)
(0 0 0)
(0 0 0)
(0 0 0)
(0 0 0)
(0 0 0)
(0 0 0)
(0 0 0)
(0 0 0)
(0 0 0)
(0 0 0)
(0 0 0)
(0 0 0)
(0 0 0)
(0 0 0)
(0 0 0)
(0 0 0)
(0 0 0)
(0 0 0)
(0 0 0)
(0 0 0)
(0 0 0)
(0 0 0)
(0 0 0)
(0 0 0)
(0 0 0)
(0 0 0)
(0 0 0)
(0 0 0)
(0 0 0)
(0 0 0)
(0 0 0)
(0 0 0)
(0 0 0)
(0 0 0)
(0 0 0)
(0 0 0)
(0 0 0)
(0 0 0)
(0 0 0)
(0 0 0)
(0 0 0)
(0 0 0)
(0 0 0)
(0 0 0)
(0 0 0)
(0 0 0)
(0 0 0)
(0 0 0)
(0 0 0)
(0 0 0)
(0 0 0)
(0 0 0)
(0 0 0)
(0 0 0)
(0 0 0)
(0 0 0)
(0 0 0)
(0 0 0)
(0 0 0)
(0 0 0)
(0 0 0)
(0 0 0)
(0 0 0)
(0 0 0)
(0 0 0)
(0 0 0)
(0 0 0)
(0 0 0)
(0 0 0)
(0 0 0)
(0 0 0)
(0 0 0)
(0 0 0)
(0 0 0)
(0 0 0)
(0 0 0)
(0 0 0)
(0 0 0)
(0 0 0)
(0 0 0)
(0 0 0)
(0 0 0)
(0 0 0)
(0 0 0)
(0 0 0)
(0 0 0)
(0 0 0)
(0 0 0)
(0 0 0)
(0 0 0)
(0 0 0)
(0 0 0)
(0 0 0)
(0 0 0)
(0 0 0)
(0 0 0)
(0 0 0)
(0 0 0)
(0 0 0)
(0 0 0)
(-0.0008362661193 -0.0858589883 0)
(-0.00112568204 -0.08585438092 0)
(-0.001137234572 -0.08613299239 0)
(-0.0002470794692 -0.08558987213 0)
(-0.0008239161361 -0.08558044948 0)
(0.008560986243 -0.08521669339 0)
(0.007384684605 -0.08519035258 0)
(0.00733966554 -0.0863038945 0)
(-0.001412168267 -0.09439918782 0)
(-0.002006914094 -0.09438374262 0)
(-0.002021420723 -0.09494274703 0)
(-0.001149690756 -0.0864113207 0)
(-0.0002081960026 -0.09387159252 0)
(-0.0007605164646 -0.09387490829 0)
(-0.001317990706 -0.09388691981 0)
(0.008209567899 -0.09299470323 0)
(0.007032826085 -0.0929673122 0)
(0.005849045571 -0.0929389593 0)
(0.005793399683 -0.09404770658 0)
(0.005745436262 -0.09516262633 0)
(0.007292341805 -0.08741618198 0)
(0.003989049627 -0.0817671261 0)
(-0.001629797621 -0.1027795787 0)
(-0.002819261884 -0.102748689 0)
(-0.002848282424 -0.1038661782 0)
(-0.002035919062 -0.09550123226 0)
(-0.0009750369563 -0.08194797483 0)
(-0.0006847531797 -0.08195338384 0)
(0.003805881326 -0.0862237585 0)
(0.003854081491 -0.08511092245 0)
(0.002682537824 -0.08508636724 0)
(0.002657845836 -0.08564297764 0)
(0.002632641952 -0.08619889955 0)
(0.003382036977 -0.08231266521 0)
(0.003967228061 -0.08232500564 0)
(-0.0003924315348 -0.08195952097 0)
(-0.001091888555 -0.09057068048 0)
(-0.001660275471 -0.09056542461 0)
(-0.001695678481 -0.09111682267 0)
(-0.001128079992 -0.09112179837 0)
(-0.001055178196 -0.09001916055 0)
(-0.001625110513 -0.09001329322 0)
(-0.0005175285926 -0.0905780132 0)
(-0.0004809204759 -0.09002675031 0)
(0.00359530552 -0.09066596729 0)
(0.003650308002 -0.08955699556 0)
(0.002468038834 -0.08952904548 0)
(0.002406551735 -0.09063571932 0)
(0.002607028029 -0.08675481081 0)
(0.002581166717 -0.0873102482 0)
(0.003755995293 -0.08733551199 0)
(-0.0007597993326 -0.08390833401 0)
(-0.001056241863 -0.08390099914 0)
(-0.001063054691 -0.08418149962 0)
(-0.0007692327078 -0.08418788348 0)
(-0.002988915331 -0.08832450742 0)
(-0.002971583966 -0.08804833133 0)
(-0.00327289616 -0.08803931184 0)
(-0.0009592113099 -0.08835903906 0)
(-0.0009291699426 -0.08780480094 0)
(-0.001501569172 -0.08779798659 0)
(-0.001516281121 -0.08807547723 0)
(-0.001530722046 -0.08835235165 0)
(-0.0007506340909 -0.08362882952 0)
(-0.001049228678 -0.08362076356 0)
(-0.0004668199656 -0.08391438435 0)
(-0.0004565137614 -0.083635325 0)
(0.001564292564 -0.08395045878 0)
(0.001587660662 -0.08339282716 0)
(0.001006754278 -0.08338189647 0)
(0.000983225076 -0.08393973166 0)
(0.001050411633 -0.08226618969 0)
(0.001632076759 -0.08227750365 0)
(-0.003478619321 -0.0927686606 0)
(-0.003466879083 -0.09249078114 0)
(-0.00156116432 -0.08890652742 0)
(-0.0009896236889 -0.08891316366 0)
(-0.002997751169 -0.08860474761 0)
(-0.003072115014 -0.09055566428 0)
(-0.003058890931 -0.09027844662 0)
(0.0007781327762 -0.1017243877 0)
(-0.0004113262971 -0.1016934981 0)
(-0.001600790561 -0.1016626085 0)
(0.007904093488 -0.1017444594 3.588240816e-13)
(0.005535984641 -0.1018479463 0)
(0.005476951021 -0.1040573075 3.593236819e-13)
(0.005681073857 -0.09626101917 0)
(0.005652066797 -0.09737798937 0)
(0.001466476606 -0.08617604218 0)
(0.001491846381 -0.08562033233 0)
(0.0009110966532 -0.08560976928 0)
(0.0008858487519 -0.08616558617 0)
(0.0009598354718 -0.0844967914 0)
(0.001540779738 -0.08450746338 0)
(-0.0004774310543 -0.08419338384 0)
(0.003331171059 -0.09508175069 0)
(0.003406648164 -0.09398416588 0)
(0.00222181388 -0.09395859031 0)
(0.002141706795 -0.095050861 0)
(0.002341305715 -0.09174073739 0)
(0.00354011524 -0.09177457058 0)
(-0.0005550705755 -0.09112883633 0)
(-0.001542749488 -0.09942762998 0)
(-0.001513728963 -0.09831014074 0)
(-0.002703193207 -0.09827925106 0)
(-0.002732213746 -0.09939674029 0)
(-0.001788822457 -0.08281172305 0)
(-0.001583281207 -0.08277789896 0)
(-0.001662578683 -0.08242047421 0)
(-0.0007179980049 -0.08279091699 0)
(-0.0007084491092 -0.08251079919 0)
(-0.001006585571 -0.08250347228 0)
(-0.001013933109 -0.08278406275 0)
(-0.003086033261 -0.09083281196 0)
(-0.002924192954 -0.0927708531 0)
(-0.002884097041 -0.0922184862 0)
(-0.003440701739 -0.09221857437 0)
(-0.00124824715 -0.09277069588 0)
(-0.001208085759 -0.09222092762 0)
(-0.001771318337 -0.09221845448 0)
(-0.001805821629 -0.09277044723 0)
(-0.003515048553 -0.09303883521 0)
(-0.001936049763 -0.08388298136 0)
(-0.001945305217 -0.08416237963 0)
(-0.001654695701 -0.08416748546 0)
(-0.001653761129 -0.08388537804 0)
(-0.001969946364 -0.08500003233 0)
(-0.001676787092 -0.0850062951 0)
(-0.001665525206 -0.08472819547 0)
(-0.001954429882 -0.08472334166 0)
(-0.0008005277553 -0.08502411685 0)
(-0.0007898291345 -0.08474584677 0)
(-0.001080051246 -0.08474054325 0)
(-0.001090898002 -0.08501875754 0)
(-0.002227247648 -0.08472389175 0)
(-0.002256871405 -0.08499600902 0)
(-0.00214885391 -0.08391339663 0)
(-0.00222604056 -0.08414361062 0)
(-0.002016183882 -0.08611489303 0)
(-0.002011246765 -0.08583398026 0)
(-0.00230908416 -0.08582655723 0)
(-0.002311945527 -0.08610793941 0)
(-0.002295855049 -0.08526554597 0)
(-0.001992637985 -0.08527461494 0)
(-0.003256801238 -0.08715214725 0)
(-0.002912998952 -0.08722220759 0)
(-0.002900522022 -0.08694336043 0)
(-0.003177089549 -0.086926102 0)
(-0.002049108052 -0.08723409875 0)
(-0.002038522714 -0.08695489083 0)
(-0.002327885282 -0.08695012901 0)
(-0.002337627485 -0.08722967046 0)
(-0.002317828037 -0.0863882563 0)
(-0.002022716337 -0.08639503722 0)
(-0.002103684038 -0.08834484748 0)
(-0.002089323663 -0.08806807485 0)
(-0.002379307327 -0.08806282945 0)
(-0.002393578318 -0.08833976022 0)
(-0.002349275504 -0.08750879884 0)
(-0.002061280098 -0.08751300576 0)
(-0.003192825401 -0.08750423991 0)
(-0.002922898215 -0.0875017969 0)
(-0.002020905659 -0.0835241138 0)
(-0.00102489485 -0.08306336477 0)
(-0.0007286567207 -0.08307059045 0)
(-0.001865913753 -0.08305066523 0)
(-0.00160984414 -0.08305191357 0)
(-0.001659045736 -0.08360103156 0)
(-0.003412607276 -0.09166454539 0)
(0.00974017832 -0.08524373254 0)
(0.01746756059 -0.08140532727 3.470279619e-13)
(0.01557807063 -0.08362361191 3.566869022e-13)
(0.01540574993 -0.08531273322 3.545219673e-13)
(-0.00110244546 -0.08529695363 0)
(-0.0008128588678 -0.08530192902 0)
(-0.0016917566 -0.08528336355 0)
(-0.001720693485 -0.08612189153 0)
(-0.001712526261 -0.08584199755 0)
(0.005161853752 -0.08179254506 0)
(0.008691639683 -0.08187164234 0)
(0.007515704068 -0.08184520715 0)
(-0.001259078205 -0.0819445458 0)
(-0.00129328995 -0.08221649198 0)
(-0.0009943161629 -0.08222425615 0)
(-0.000697301033 -0.08223150201 0)
(-0.000423714279 -0.08279752059 0)
(-0.0004133709371 -0.08251763118 0)
(0.0004493367186 -0.08281328534 0)
(0.0004603397819 -0.08253419215 0)
(0.0001701731067 -0.08252899394 0)
(0.0001589701131 -0.08280818582 0)
(0.0001907993357 -0.08197134305 0)
(0.0004816545812 -0.08197702659 0)
(-0.0026032189 -0.08610255665 0)
(-0.002591282373 -0.08582431872 0)
(-0.002804455439 -0.08585513991 0)
(-0.002883380806 -0.0860839064 0)
(-0.002670993515 -0.08546714292 0)
(-0.003096457894 -0.08669743176 0)
(-0.002885536649 -0.08666572106 0)
(-0.002961428474 -0.08630947548 0)
(-0.002610797094 -0.08666516894 0)
(-0.002611519525 -0.08638218747 0)
(-0.003426829261 -0.09194178907 0)
(-0.003229119622 -0.08777301568 0)
(-0.003024537896 -0.0894430198 0)
(-0.003015745935 -0.08916386919 0)
(-0.002160660273 -0.08945522225 0)
(-0.002146517492 -0.08917802845 0)
(-0.002432462356 -0.08917486162 0)
(-0.002446092637 -0.08945212066 0)
(-0.002406762086 -0.08861822546 0)
(-0.002118748413 -0.08862232898 0)
(-0.001513496657 -0.08194323646 0)
(-0.001590098152 -0.08219013801 0)
(-0.001306751767 -0.08277848403 0)
(-0.001305649461 -0.0824957577 0)
(-0.001952239624 -0.08444220175 0)
(-0.002301786595 -0.0843695511 0)
(-0.0024320505 -0.08475820246 0)
(-0.002511398947 -0.08499506042 0)
(-0.002006192563 -0.08555275891 0)
(-0.002311232195 -0.08554307129 0)
(-0.002593196614 -0.08523923009 0)
(-0.002626449309 -0.08722528625 0)
(-0.002616141555 -0.08694596725 0)
(-0.002944235146 -0.08777641468 0)
(-0.002654103254 -0.08778135229 0)
(-0.002637566762 -0.08750458423 0)
(-0.001945788886 -0.08329540422 0)
(-0.001646401768 -0.08332255231 0)
(-0.001341434591 -0.08333228998 0)
(-0.001320723552 -0.08305651329 0)
(-0.00135579086 -0.08389280452 0)
(-0.001352960954 -0.08361121377 0)
(0.009869523381 -0.08189906302 0)
(0.01340748384 -0.08198138503 0)
(0.01104756279 -0.08192648774 0)
(0.01886097756 -0.07758810758 3.306244167e-13)
(0.01920573401 -0.05825342672 2.482181127e-13)
(0.01977634591 -0.06578778289 2.802758026e-13)
(0.01932178293 -0.06609411414 2.74363865e-13)
(0.0181768518 -0.05065509415 2.159245005e-13)
(0.0114925991 -0.02570387358 1.097871793e-13)
(0.0141228674 -0.03381770079 1.443289932e-13)
(0.01326002411 -0.03260067357 1.355859869e-13)
(0.008700230595 -0.01825541667 7.804867863e-14)
(0.001529432786 -0.002709689951 1.16157084e-14)
(0.003485471719 -0.006511012385 2.788047571e-14)
(0.002882980885 -0.005528526398 2.306488334e-14)
(-0.0003836452803 -0.08836738994 0)
(-0.00035396081 -0.0878129348 0)
(0.001356131048 -0.08839730089 0)
(0.001385309557 -0.08784272873 0)
(0.0008036930355 -0.08783214317 0)
(0.0007751410139 -0.0883869913 0)
(0.000859597759 -0.08672142895 0)
(0.001440281359 -0.08673193834 0)
(0.01058028361 -0.09305393208 0)
(0.01630803728 -0.08528698488 3.288896933e-13)
(0.01480641967 -0.08967194245 3.459593723e-13)
(0.01458251265 -0.09080751084 3.421429806e-13)
(0.01522566281 -0.08692965476 3.521766212e-13)
(0.01731592921 -0.07969150082 3.072264665e-13)
(0.0166023295 -0.05593468514 2.156885781e-13)
(0.01750069118 -0.06476709967 2.496752805e-13)
(0.01673278474 -0.06347257895 2.390310172e-13)
(0.01870144166 -0.06571848268 2.659955589e-13)
(0.01510334093 -0.04667783987 1.800781746e-13)
(0.008159758786 -0.02019175984 7.804867863e-14)
(0.01071845241 -0.02840652315 1.097177904e-13)
(0.01002206068 -0.0272044672 1.026262408e-13)
(0.01256783859 -0.0317067826 1.285638263e-13)
(0.005612911687 -0.01302772564 5.039024753e-14)
(0.0004342489267 -0.0008516620314 3.302913498e-15)
(0.001678899647 -0.003470323832 1.34336986e-14)
(0.001189975173 -0.002518899042 9.534040224e-15)
(0.002537963545 -0.004993488769 2.031708135e-14)
(-0.0003532852189 -0.09945851967 0)
(-0.0003242646798 -0.09834103043 0)
(0.003215102382 -0.0995511886 0)
(0.003244122921 -0.09843369936 0)
(0.002054658657 -0.09840280967 0)
(0.002025638118 -0.09952029891 0)
(0.002112686256 -0.09616835024 0)
(0.00330215052 -0.09619923993 0)
(0.01014124212 -0.1002510573 3.53370111e-13)
(0.01478498969 -0.08559700102 3.0137004e-13)
(0.01369539213 -0.09211584263 3.244071678e-13)
(0.01330073706 -0.0915316404 3.154698724e-13)
(0.01426769817 -0.09137258799 3.364808432e-13)
(0.01530219633 -0.07769108406 2.735034421e-13)
(0.01319863345 -0.04879299937 1.718625242e-13)
(0.0144878055 -0.05892129649 2.074729277e-13)
(0.01377223824 -0.05721855301 1.97189487e-13)
(0.01612762935 -0.06269457675 2.307321001e-13)
(0.01166461146 -0.03953417787 1.39305234e-13)
(0.005217799689 -0.01415201488 4.994615832e-14)
(0.007461276187 -0.02167551055 7.646661082e-14)
(0.006384665165 -0.01893470995 6.537825836e-14)
(0.00901600814 -0.02504304509 9.234280007e-14)
(0.003124035576 -0.00794545084 2.806088695e-14)
(0 0 0)
(0.0003311111266 -0.0007506138036 2.650657471e-15)
(0.000154561352 -0.0003581566879 1.249000903e-15)
(0.0008973825144 -0.001944445407 7.188694084e-15)
(-0.00179518949 -0.1093314418 3.552852457e-13)
(-0.004168470074 -0.1096944615 3.566591467e-13)
(-0.004078616644 -0.1090227858 3.474442956e-13)
(-0.004037741497 -0.1038352886 0)
(-0.004095782575 -0.1060702671 0)
(0.0005633997051 -0.1085141296 3.524402992e-13)
(0.00713740331 -0.1012883174 3.284594818e-13)
(0.005088982718 -0.1046922107 3.396727344e-13)
(0.004867669939 -0.1019466262 3.242267566e-13)
(0.005391201488 -0.1055664868 3.568811913e-13)
(0.008940296872 -0.09670345509 3.13471471e-13)
(0.0120743117 -0.07582667891 2.456229664e-13)
(0.01147947259 -0.08389188856 2.717825964e-13)
(0.01065250774 -0.07917744583 2.514932707e-13)
(0.01280347268 -0.09002709476 3.038125307e-13)
(0.01215873882 -0.06689655008 2.166877788e-13)
(0.009444874402 -0.03781646899 1.225824997e-13)
(0.01079768984 -0.04755652454 1.540989558e-13)
(0.009584432613 -0.04296567404 1.365157987e-13)
(0.01291015744 -0.0547414606 1.847411113e-13)
(0.0077688868 -0.02851558304 9.246770016e-14)
(0.002309356507 -0.006794146252 2.206568261e-14)
(0.004025703292 -0.01267661406 4.114764085e-14)
(0.003168624802 -0.01016824411 3.236300117e-14)
(0.005665589118 -0.01715156885 5.798139746e-14)
(0.0009522036606 -0.002630254294 8.54871729e-15)
(0 0 0)
(0 0 0)
(0 0 0)
(1.481511703e-05 -3.506450341e-05 1.110223025e-16)
(-0.001326334653 -0.0935471618 2.812472477e-13)
(-0.003246797575 -0.09480209007 2.851191505e-13)
(-0.002836495814 -0.08648520076 2.553096623e-13)
(-0.003887010378 -0.1062599989 3.320538289e-13)
(0.0005468280049 -0.09137291746 2.745859096e-13)
(0.005309330415 -0.07916695711 2.37670994e-13)
(0.003923340899 -0.08418562414 2.527977827e-13)
(0.003521553274 -0.07551689127 2.226413498e-13)
(0.004598909848 -0.09756958302 3.04312131e-13)
(0.006418083643 -0.07324223413 2.198241589e-13)
(0.007658337448 -0.0511078962 1.533495553e-13)
(0.007620317242 -0.05905777751 1.772054725e-13)
(0.006489162729 -0.05086943327 1.498801083e-13)
(0.009723703499 -0.07339309686 2.286504319e-13)
(0.007318231027 -0.04286959916 1.28647093e-13)
(0.00446679285 -0.01914691503 5.749567489e-14)
(0.005650549388 -0.02659512609 7.983891326e-14)
(0.004364724459 -0.02085776978 6.147859999e-14)
(0.008299712081 -0.03784024867 1.179334408e-13)
(0.003190340661 -0.01255898508 3.771982726e-14)
(0.0002082256663 -0.0006603705541 1.984523657e-15)
(0.0009086558109 -0.003079338145 9.256484468e-15)
(0.0004004606817 -0.001381405962 4.080069615e-15)
(0.002335722566 -0.007635323803 2.382816167e-14)
(0 0 0)
(0 0 0)
(0 0 0)
(0 0 0)
(0 0 0)
(-0.0004907356981 -0.05377339571 1.503935865e-13)
(-0.0015295105 -0.05502323486 1.539185446e-13)
(-0.001141467418 -0.04375812612 1.203065425e-13)
(-0.002397588581 -0.07682846147 2.227107387e-13)
(0.0004980057704 -0.05167540128 1.444955267e-13)
(0.00271333014 -0.0408492662 1.141725603e-13)
(0.002140229441 -0.04513421627 1.26162969e-13)
(0.001662930748 -0.03482574921 9.570122472e-14)
(0.003084005932 -0.06588446113 1.907640712e-13)
(0.00308075855 -0.03603726322 1.007111061e-13)
(0.002863592571 -0.02004095278 5.601075159e-14)
(0.003148797539 -0.02544704512 7.112366252e-14)
(0.002177673448 -0.01777609783 4.88359353e-14)
(0.005343484938 -0.0423335722 1.225131108e-13)
(0.002405139177 -0.0148449122 4.149458555e-14)
(0.0006195136668 -0.002828427675 7.91033905e-15)
(0.001202184364 -0.006007330318 1.679212325e-14)
(0.0005314015863 -0.002696076558 7.410738689e-15)
(0.003163915084 -0.0153467568 4.443667656e-14)
(0.0001817994405 -0.00076447497 2.137179322e-15)
(0 0 0)
(0 0 0)
(0 0 0)
(8.59150868e-05 -0.0003016533605 8.743006319e-16)
(0 0 0)
(0 0 0)
(0 0 0)
(0 0 0)
(0 0 0)
(-5.699698404e-05 -0.01357033755 3.548550342e-14)
(-0.000307182001 -0.01422789766 3.720634911e-14)
(-0.0001499792167 -0.007325426391 1.884603584e-14)
(-0.0008039452157 -0.03288814005 8.89011087e-14)
(0.0001653724479 -0.01249380613 3.26683125e-14)
(0.0004892803275 -0.007441506768 1.945665851e-14)
(0.0004502850559 -0.009337868952 2.441102875e-14)
(0.0001924211021 -0.004004691753 1.029731855e-14)
(0.001207430323 -0.02514040595 6.791789353e-14)
(0.0004571715248 -0.005489136073 1.434963259e-14)
(0.0001019998726 -0.00075124323 1.970645869e-15)
(0.0002351017171 -0.001987053837 5.19029264e-15)
(1.776737733e-05 -0.0001523336626 3.885780586e-16)
(0.001344211675 -0.01108919495 2.996214388e-14)
(1.179966216e-05 -7.703755388e-05 2.081668171e-16)
(0 0 0)
(0 0 0)
(0 0 0)
(0.0001209151772 -0.0006231414448 1.679212325e-15)
(0 0 0)
(0 0 0)
(0 0 0)
(0 0 0)
(0 0 0)
(0 0 0)
(0 0 0)
(0 0 0)
(0 0 0)
(0 0 0)
(0 0 0)
(0 0 0)
(0 0 0)
(-5.008757353e-05 -0.002553101036 6.467049118e-15)
(0 0 0)
(0 0 0)
(0 0 0)
(0 0 0)
(3.931595705e-05 -0.0008251137976 2.081668171e-15)
(0 0 0)
(0 0 0)
(0 0 0)
(0 0 0)
(0 0 0)
(0 0 0)
(0 0 0)
(0 0 0)
(0 0 0)
(0 0 0)
(0 0 0)
(0 0 0)
(0 0 0)
(0 0 0)
(0 0 0)
(0 0 0)
(0 0 0)
(0 0 0)
(0 0 0)
(0 0 0)
(0 0 0)
(0 0 0)
(0 0 0)
(0 0 0)
(0 0 0)
(0 0 0)
(0 0 0)
(0 0 0)
(0 0 0)
(0 0 0)
(0 0 0)
(0 0 0)
(0 0 0)
(0 0 0)
(0 0 0)
(0 0 0)
(0 0 0)
(0 0 0)
(0 0 0)
(0 0 0)
(0 0 0)
(0 0 0)
(0 0 0)
(0 0 0)
(0 0 0)
(0 0 0)
(0 0 0)
(0 0 0)
(0 0 0)
(0 0 0)
(0 0 0)
(0 0 0)
(0 0 0)
(0 0 0)
(0 0 0)
(0 0 0)
(0 0 0)
(0 0 0)
(0 0 0)
(0 0 0)
(0 0 0)
(0 0 0)
(0 0 0)
(0 0 0)
(0 0 0)
(0 0 0)
(0 0 0)
(0 0 0)
(0 0 0)
(0 0 0)
(0 0 0)
(0 0 0)
(0 0 0)
(0 0 0)
(0 0 0)
(0 0 0)
(0 0 0)
(0 0 0)
(0 0 0)
(0 0 0)
(0 0 0)
(0 0 0)
(0 0 0)
(0 0 0)
(0 0 0)
(0 0 0)
(0 0 0)
(0 0 0)
(0 0 0)
(0 0 0)
(0 0 0)
(0 0 0)
(0 0 0)
(0 0 0)
(0 0 0)
(0 0 0)
(0 0 0)
(0 0 0)
(0 0 0)
(0 0 0)
(0 0 0)
(0 0 0)
(0 0 0)
(0 0 0)
(0 0 0)
(0 0 0)
(0 0 0)
(0 0 0)
(0 0 0)
(0 0 0)
(0 0 0)
(0 0 0)
(0 0 0)
(0 0 0)
(0 0 0)
(0 0 0)
(0 0 0)
(0 0 0)