/*--------------------------------*- C++ -*----------------------------------*\
| =========                 |                                                 |
| \\      /  F ield         | OpenFOAM: The Open Source CFD Toolbox           |
|  \\    /   O peration     | Version:  v2012                                 |
|   \\  /    A nd           | Website:  www.openfoam.com                      |
|    \\/     M anipulation  |                                                 |
\*---------------------------------------------------------------------------*/
FoamFile
{
    version     2.0;
    format      ascii;
    class       volScalarField;
    location    "0.63";
    object      nut;
}
// * * * * * * * * * * * * * * * * * * * * * * * * * * * * * * * * * * * * * //

dimensions      [0 2 -1 0 0 0 0];


internalField   nonuniform List<scalar> 
3019
(
0.05212819721
0.2033203407
0.269671294
0.3485636518
0.4483306717
0.5867096804
0.7935888449
1.026820089
1.157066519
1.151694017
1.149360158
1.148808411
0.1065432748
0.3008398576
0.3775588958
0.4515818057
0.5438670061
0.6709038233
0.8569359994
1.065366514
1.158411763
1.152559027
1.149924428
1.149279374
0.1527282222
0.4155578874
0.5709334643
0.6077137461
0.6762244068
0.7892166319
0.9545385974
1.13535452
1.159738633
1.153528521
1.150662222
1.149926726
0.1769154569
0.4519257765
0.7455901932
0.8282251362
0.854421522
0.9411004256
1.085880772
1.170908742
1.160965565
1.154516037
1.15149548
1.150716846
0.2321954066
0.5097331075
0.7946432514
0.9997440079
1.090565996
1.130477528
1.173651025
1.172308097
1.162030818
1.155449531
1.152325805
1.151496664
0.3000040166
0.577058126
0.8385726854
1.015826644
1.11276999
1.158178951
1.175318627
1.17331314
1.162887312
1.156272939
1.153126295
1.152278008
0.351608276
0.6227525371
0.8598969371
1.023440072
1.11673161
1.160385519
1.176371317
1.173949315
1.163504647
1.156920222
1.153785303
1.152927521
0.370251557
0.6345657568
0.8697036967
1.029049101
1.119470779
1.161754208
1.176930824
1.174268805
1.163962322
1.157474727
1.154371623
1.15350539
0.3816665946
0.6427289409
0.8764611812
1.033132524
1.121312485
1.162511327
1.177105072
1.174334795
1.16421269
1.157841769
1.15477983
1.153908742
0.3907058357
0.6488358069
0.8805388198
1.035879714
1.12245447
1.162817613
1.17698619
1.174207344
1.164367353
1.158147382
1.155127263
1.154246057
0.3979102914
0.6533727373
0.8826359179
1.037373934
1.122996135
1.162773385
1.176647857
1.173935552
1.164355839
1.158273994
1.155291704
1.154400151
0.4036343161
0.6566524873
0.8833978481
1.03776581
1.122993362
1.162437207
1.176142814
1.173555627
1.164308761
1.158385016
1.155434586
1.154525443
0.4081301111
0.6588993347
0.883230678
1.037276537
1.122507795
1.161851256
1.175508583
1.173093854
1.164117571
1.158323934
1.155399148
1.154472731
0.4115961324
0.6602818045
0.8823708485
1.036119893
1.121614186
1.161053604
1.174773565
1.172569058
1.16394122
1.158296296
1.155391076
1.154441029
0.4141863147
0.660945144
0.8809709464
1.034459565
1.120385281
1.160079459
1.173960148
1.171995561
1.163625121
1.158096
1.155206725
1.154235537
0.4160550053
0.6610115095
0.8791338422
1.032406447
1.118880183
1.158958301
1.173085104
1.171383741
1.163368198
1.157974256
1.155095312
1.154097484
0.4173204888
0.660572026
0.8769292252
1.030033161
1.117142502
1.157712524
1.172160296
1.170740972
1.162964288
1.157675293
1.154807071
1.153787237
0.4180762284
0.6596995548
0.8744081215
1.027387914
1.115202638
1.156357717
1.171193664
1.170073202
1.162654787
1.157485502
1.154621795
1.153574524
0.4184216885
0.6584543778
0.8716074914
1.024502306
1.113081526
1.154904776
1.170190363
1.169382963
1.162194736
1.157127427
1.15427268
1.153204668
0.4184287686
0.6568775146
0.8685500828
1.021397754
1.110794858
1.153361295
1.169153596
1.168675075
1.16183401
1.156868893
1.154016393
1.152921338
0.4181394866
0.6549906698
0.8652527543
1.018093236
1.108356911
1.151733677
1.16808567
1.167946288
1.161366216
1.156506119
1.153661831
1.152549237
0.4175804063
0.6528198854
0.8617413263
1.014613454
1.105784511
1.15003034
1.166991055
1.167207145
1.160903804
1.156137605
1.153298044
1.152158848
0.4167913483
0.6504157673
0.8580580205
1.010991708
1.103097608
1.14825901
1.165885794
1.1664571
1.160540622
1.155856831
1.153023557
1.151871608
0.4158503922
0.6478697452
0.8542746751
1.007275904
1.100319848
1.146425453
1.164840739
1.165770896
1.159861265
1.155307062
1.152486151
1.151305192
0.03938792943
0.04892672481
0.1793352657
0.07759929556
0.04044376562
0.1009157172
0.2442634104
0.1824360019
0.1083069897
0.07946785618
0.1411574505
0.06249151678
0.05987451058
0.0748587856
0.1578390875
0.1450875883
0.02710360814
0.04735844156
0.02448688739
0.03277802329
0.08539404664
0.05068132365
0.1470557263
0.3426626527
0.2740945832
0.1015495279
0.08978528184
0.03506078803
0.1950797193
0.164159062
0.07805294417
0.0861390136
0.008603091009
0.01666713014
0.02737455871
0.07076719899
0.01261320701
0.01318363066
0.03243518846
0.01281974988
0.01258659973
0.01346199748
0.0127105103
0.01300249275
0.01718007031
0.01414567216
0.02335460432
0.01877197031
0.01311231638
0.008947415929
0.01847072858
0.01230326348
0.01271692688
0.1858418341
0.2350604501
0.03430409385
0.013836764
0.01684699441
0.01202712121
0.01406185357
0.02508632564
0.04897744807
0.01287101329
0.009305463182
0.009368810568
0.01316441426
0.0129210116
0.03113732575
0.02577668031
0.01254895994
0.01238002774
0.01262519183
0.01274836685
0.008902776187
0.01257946697
0.01281919291
0.01294034485
0.01313017219
0.01293147785
0.01293915196
0.01283544188
0.01288699057
0.01333422823
0.01328548472
0.01296774271
0.0133643005
0.01375694549
0.0136133854
0.01272132675
0.01226076553
0.01240603795
0.01266219272
0.01243327041
0.01267538324
0.251435965
0.3072107892
0.3287918541
0.4018720195
0.4299956607
0.5260574864
0.06228256815
0.1164171683
0.1059819426
0.2681497083
0.3272668131
0.2525608314
0.3449753866
0.4014654247
0.327288967
0.4219921418
0.4902678114
0.4205312204
0.5153443116
0.6019302277
0.5438573885
0.1191848534
0.231052217
0.2092927306
0.4085972146
0.5030923476
0.361515396
0.5129573461
0.5478041431
0.4322761747
0.5627125756
0.6181558548
0.5183652954
0.6404476776
0.7136019375
0.6270875999
0.09782143956
0.08417971552
0.1682331277
0.3700387354
0.3484113375
0.4409761138
0.6613021446
0.5668688958
0.7343322168
0.7657669319
0.5954608606
0.7670971391
0.7912617964
0.6550000481
0.8054672558
0.8676321727
0.7500603104
0.1438223506
0.1058896713
0.2158834988
0.4182860754
0.3797650677
0.4934631096
0.7131380072
0.6731704301
0.7821656226
0.951182772
0.83364363
0.994065267
1.019699176
0.8430333431
1.022949481
1.060582072
0.913757585
0.2193238501
0.1609241649
0.2836635205
0.4854203436
0.4339973652
0.5609116821
0.7676160272
0.7272712354
0.8290667676
0.9762082095
0.9584095758
1.013062383
1.092893584
1.087622975
1.111535414
1.149484004
1.119622693
0.2853359629
0.2387321079
0.3416010276
0.54383022
0.5023963037
0.6148955031
0.8033117688
0.7791956847
0.8569161853
0.9877201771
0.9803694588
1.021752772
1.097977982
1.094334826
1.115871747
1.152292873
1.150294952
0.3097123844
0.2953918296
0.366956438
0.5644934169
0.5531783007
0.6321124766
0.8152427334
0.8068517864
0.8675445479
0.9948285462
0.9896971322
1.02780267
1.101569397
1.098997707
1.118880536
1.154123568
1.152830963
0.3202088632
0.3125218992
0.3790581022
0.5744735771
0.5672588358
0.6409065063
0.8231933554
0.8175638076
0.8750451129
1.000073615
0.9963020458
1.03224092
1.104072289
1.10228564
1.120923475
1.155231789
1.154460145
0.3288581803
0.3225363063
0.3886399984
0.5820873754
0.576571375
0.6474714268
0.8280961948
0.8246686639
0.879734842
1.003672556
1.001124967
1.03531407
1.105731073
1.104560235
1.122227946
1.15580326
1.155419601
0.3358827613
0.3307594203
0.3962589561
0.5879226043
0.5836966969
0.6523668619
0.8309010855
0.8289606581
0.8822580589
1.005727336
1.00432583
1.037111456
1.106662619
1.106029926
1.122913838
1.155958749
1.155878253
0.3415349962
0.3374141461
0.4023275689
0.5923475522
0.5891501626
0.6559370753
0.8323245191
0.8313670412
0.8833066681
1.006453938
1.00602267
1.03775958
1.106926563
1.106789269
1.123042064
1.155767019
1.155941915
0.3460560948
0.342763348
0.4071096081
0.5956184834
0.5932655934
0.6584246942
0.8327692538
0.8325171929
0.8833448154
1.006154224
1.006463941
1.037469103
1.106594501
1.106896282
1.122670476
1.155274099
1.155670877
0.3496229822
0.3470315481
0.410816314
0.597922666
0.5962791712
0.6600091002
0.8324614097
0.8327565818
0.8826414775
1.005099816
1.005952762
1.036461734
1.10576124
1.106429556
1.121871702
1.154522182
1.155109221
0.3523724735
0.3503822723
0.4136123268
0.5994143878
0.5983662473
0.6608395216
0.8315528424
0.8322859232
0.8813652752
1.003488149
1.004743396
1.034915051
1.104521707
1.10548629
1.120720451
1.153552262
1.154299036
0.3544332031
0.3529469595
0.4156481005
0.6002286536
0.5996768264
0.6610454798
0.8301556424
0.8312460288
0.8796299684
1.001448847
1.003014842
1.032952161
1.102953321
1.104158093
1.119279769
1.152400111
1.15328044
0.3559168214
0.3548539565
0.4170560454
0.6004720778
0.6003395012
0.6607251778
0.8283488923
0.8297399571
0.8775118431
0.9990641105
1.000882735
1.030653566
1.101112631
1.102517006
1.117596888
1.151093554
1.152087332
0.3569314145
0.3562095511
0.4179293672
0.6002271609
0.6004536695
0.6599547309
0.8261912299
0.827840483
0.8750657949
0.996388271
0.9984209385
1.028072773
1.099039239
1.100615008
1.115705296
1.149652563
1.150745566
0.357576809
0.3571231524
0.4183694801
0.5995646187
0.6000974958
0.6587979312
0.8237277384
0.8256026386
0.8723323953
0.993457285
0.9956784946
1.02524496
1.096759961
1.098487994
1.113627879
1.148090933
1.149273269
0.3579200426
0.3576876685
0.4184564395
0.5985451989
0.5993413975
0.6573014388
0.8209876053
0.8230678163
0.8693376284
0.9902944716
0.992687656
1.022193429
1.094293966
1.096160391
1.111381284
1.146418464
1.14768307
0.3579991107
0.3579606521
0.4182401698
0.5972001846
0.5982379384
0.655490706
0.817988397
0.8202613113
0.8660983906
0.9869180015
0.989469633
1.018936874
1.091657476
1.09365021
1.108979696
1.144643112
1.145984117
0.3578418164
0.3579754965
0.4177486453
0.5955685177
0.5968174873
0.6533872251
0.8147524927
0.8172002029
0.8626372788
0.983351073
0.9860429537
1.015498162
1.088868905
1.090973782
1.106439176
1.142774637
1.144184492
0.3574767789
0.357758097
0.4170167959
0.5936806107
0.5951169302
0.651036638
0.8113187088
0.8139102094
0.8589921489
0.9796268985
0.9824330646
1.011908308
1.085950651
1.088150458
1.103778904
1.140823291
1.142294292
0.3569444063
0.3573410747
0.4160930857
0.5915852335
0.5931711295
0.6484938032
0.8077402857
0.8104349673
0.8552143829
0.9757883612
0.978675991
1.008206684
1.08293042
1.085203692
1.101022673
1.138802377
1.140323844
0.3562756356
0.3567914458
0.4149832436
0.5892036186
0.5910650465
0.6456669018
0.8038425111
0.8068515494
0.8511173494
0.9716512381
0.9748259766
1.004219058
1.079677456
1.082162814
1.098055582
1.136641518
1.138282239
0.03741731528
0.03065375551
0.0323554584
0.06436243667
0.0608034526
0.04545193405
0.1628238074
0.143304697
0.1528323906
0.07227972494
0.02731598752
0.01838102514
0.02420274067
0.0413581072
0.1370814369
0.1314056858
0.08869374029
0.2119724617
0.1799043837
0.2152927523
0.1570293506
0.17252564
0.2051737208
0.09033550069
0.0775664871
0.1379290515
0.1108302407
0.1215247198
0.1063974311
0.1362143449
0.02074904497
0.02944522653
0.04849858865
0.05115405461
0.06558762108
0.05678395276
0.04280070988
0.04566676483
0.1261608021
0.119396148
0.06578016229
0.1530954943
0.1375155602
0.1418637431
0.126908541
0.1327077114
0.1490379561
0.01823655843
0.02014138908
0.0287869344
0.01408824568
0.01412346088
0.0134448143
0.04479287154
0.02625825137
0.0314733352
0.02255564842
0.01500694278
0.01633416847
0.0499747076
0.04635988684
0.02717955089
0.08152814188
0.06284600724
0.06658688677
0.05891251137
0.07723631166
0.03728675419
0.04058058572
0.05371691026
0.01498199707
0.01430815637
0.03245425668
0.03243196787
0.2171875207
0.211001308
0.1249557022
0.3366994307
0.2781914954
0.284083032
0.2372207411
0.271330632
0.3176255392
0.09798664185
0.07839661217
0.08211495428
0.07058797089
0.07435981154
0.09352194472
0.04215044935
0.05702746205
0.05342334587
0.1822078604
0.1621745695
0.1715792978
0.147180066
0.1540363462
0.1717831261
0.0850891559
0.1291081025
0.1227497604
0.0824618684
0.0511894624
0.05444284219
0.01516471582
0.01214310216
0.01247867161
0.03772780634
0.03587908933
0.04203577862
0.04052135738
0.02534234409
0.06762416643
0.05403896834
0.05606908968
0.01256846996
0.01429539947
0.01337094929
0.01675708165
0.01541606497
0.01279132574
0.03099768818
0.02249563868
0.02468446124
0.0161204458
0.01357276522
0.01398141361
0.01312070816
0.01315411699
0.01497031383
0.02205151731
0.01622299448
0.01702089957
0.01470187853
0.01534664981
0.01995827882
0.01320182093
0.01390184913
0.02027396144
0.2050843546
0.1919534735
0.1729851367
0.219508654
0.2042045135
0.2183493619
0.02669555496
0.02868569765
0.0359330688
0.01450226815
0.0199175514
0.01832719446
0.02399278332
0.02214806688
0.01561552264
0.03324445923
0.03168704676
0.02288582834
0.04546158089
0.03922377114
0.03924429584
0.03677991372
0.04427472029
0.01641022676
0.0156666589
0.02941088392
0.02132193957
0.02294684137
0.01813619964
0.01966507156
0.02715991555
0.5595280771
0.6624200045
0.7699659306
0.8797640149
1.001902436
1.141783876
0.0555552945
0.0716573069
0.06812976516
0.2203102061
0.2396571223
0.2206313924
0.2909008299
0.3096386824
0.2884486487
0.3703152347
0.3935477862
0.3710434813
0.4692760941
0.4984537596
0.4782729083
0.6362895438
0.7331603169
0.6924003213
0.8215648216
0.9222055612
0.8995648987
1.024807141
1.15443596
1.127699045
0.110900215
0.1474253923
0.1423870362
0.3424429207
0.3607991546
0.3195469934
0.4169671265
0.4334332331
0.3953748407
0.4846867974
0.5049639261
0.4723259897
0.5720991113
0.598716857
0.5703962934
0.7410000041
0.8277443182
0.7785225393
0.9016197629
0.9918557148
0.9546385185
1.073919431
1.165253417
1.156012047
0.1569971628
0.2265089688
0.2224230898
0.4230429257
0.4949729592
0.4866616199
0.63812552
0.6374677766
0.5776424078
0.6565493456
0.6678934192
0.6217181416
0.7163390081
0.7366132316
0.6989600229
0.8815569401
0.9483777123
0.8840614917
1.015085068
1.089249087
1.03779009
1.15705818
1.166729602
1.166050739
0.1878094101
0.2561486014
0.2460935054
0.4643649757
0.5386646779
0.5258840809
0.7574187257
0.8231690419
0.8125127663
0.8959382227
0.8905927256
0.8293816152
0.9066677933
0.9196903288
0.8685912951
1.055183083
1.104909913
1.020610022
1.168307353
1.173402958
1.152898337
1.171632118
1.168025355
1.167430083
0.2493039265
0.3121828051
0.2963337596
0.5267237998
0.5998522646
0.5835696402
0.8068225358
0.8659114181
0.8556251206
1.004884121
1.038508719
1.034670133
1.108706039
1.124466727
1.093992747
1.15746646
1.170487937
1.169271283
1.174570023
1.175010055
1.174293912
1.172878063
1.169056868
1.168601838
0.315306684
0.3784582219
0.3623839462
0.5917629216
0.6602925268
0.6467812024
0.846489898
0.8979210943
0.8917146931
1.017970567
1.048042105
1.04622613
1.113898921
1.128945196
1.127976093
1.15992449
1.172268972
1.171478798
1.175914392
1.176039649
1.17558295
1.173690242
1.169795125
1.169482756
0.3594230657
0.4238604091
0.4165395058
0.6265589369
0.690900467
0.6874060657
0.8626445092
0.9104257103
0.9079738617
1.025005748
1.054024581
1.052700658
1.117516263
1.132022144
1.131360143
1.16147809
1.173343059
1.172882834
1.176705948
1.176616574
1.176375487
1.174157733
1.170263397
1.170085184
0.3733608482
0.4368838375
0.4339391318
0.6368390794
0.7013309826
0.6991047249
0.8716723686
0.918572308
0.91677595
1.030202288
1.058385114
1.057422693
1.120005941
1.134089778
1.133651388
1.162369555
1.17388133
1.173669788
1.17706026
1.176834642
1.176761965
1.174340318
1.170499968
1.170433101
0.384128767
0.4471651236
0.4448041008
0.644425875
0.7083613454
0.7068432689
0.877708556
0.9242103334
0.9230279518
1.033941821
1.061494802
1.0608228
1.121658651
1.13540914
1.135139002
1.162776159
1.174020339
1.173993671
1.177077308
1.17678161
1.176834904
1.174300962
1.17054582
1.170570178
0.3926616353
0.4553809229
0.4535007022
0.6501035714
0.7132241701
0.7121682251
0.8812202666
0.9275642187
0.9269166248
1.036367052
1.063517024
1.063109361
1.122643982
1.136142528
1.136008398
1.162812465
1.17385923
1.173972501
1.176840833
1.176527882
1.176674522
1.174094437
1.170446847
1.170537951
0.399469659
0.4618833694
0.4604001762
0.6543009703
0.7165810435
0.7158604403
0.8829322007
0.929119246
0.9288679944
1.037567525
1.064524652
1.064362963
1.123044585
1.136376922
1.136362034
1.162544809
1.173465038
1.173688019
1.176413625
1.176123997
1.176340787
1.1737634
1.170233339
1.170378456
0.4048648304
0.4669824388
0.4658250267
0.6573040548
0.7187877268
0.7183302925
0.8834322103
0.9294074384
0.9294303647
1.037717366
1.064628736
1.064678882
1.122914607
1.136165704
1.136257466
1.162017648
1.17288432
1.173195602
1.175839954
1.175606138
1.175876424
1.173338355
1.169935758
1.170118127
0.4090863269
0.4709168412
0.4700317759
0.6593203058
0.7200654667
0.7198238227
0.8830739648
0.9288100623
0.9290275314
1.037042809
1.063992841
1.06421175
1.122319798
1.13556322
1.135747257
1.161269546
1.17215275
1.172535433
1.175152175
1.175000825
1.175312213
1.172842011
1.169567764
1.169783548
0.4123202727
0.473871178
0.4732134564
0.6605098942
0.720574511
0.7205114958
0.8820669866
0.9275657264
0.9279280399
1.035747075
1.062781191
1.063130234
1.121335936
1.134629561
1.134890785
1.160336598
1.17129988
1.171739827
1.174375539
1.174328275
1.174671283
1.172290189
1.169149749
1.169386207
0.4147155081
0.4760444609
0.475567347
0.6610137542
0.72045085
0.7205346129
0.8805496859
0.9258259009
0.9263013176
1.033979923
1.061124046
1.06157451
1.12003306
1.133421112
1.133746298
1.159249928
1.170349627
1.17083564
1.173529593
1.173603808
1.173971222
1.171695916
1.168686159
1.168944738
0.416424037
0.4775483362
0.477230413
0.6609460635
0.7198020666
0.7200088225
0.8786150453
0.9236868402
0.9242551633
1.031841058
1.059112483
1.05964482
1.118466274
1.131983205
1.132362173
1.158033653
1.169319842
1.169843688
1.172628637
1.172838577
1.17322526
1.171067071
1.168191857
1.168461621
0.4175528968
0.4784698853
0.4782891291
0.6603918941
0.7187070096
0.7190189667
0.8763269999
0.9212121302
0.9218595552
1.029395966
1.056808019
1.057409063
1.116675611
1.13034922
1.130774696
1.156704981
1.168222891
1.168778917
1.171682539
1.172040434
1.172442448
1.17041161
1.167667368
1.167952367
0.4181975954
0.4788888407
0.4788263924
0.6594210878
0.717229167
0.7176315385
0.8737330409
0.9184469272
0.9191635959
1.026688099
1.054251777
1.054912816
1.114688688
1.128542289
1.129009298
1.155275811
1.167066592
1.167651155
1.170698066
1.171215088
1.171629517
1.169732426
1.167121016
1.167412569
0.4184529188
0.4788939539
0.4789271525
0.6580900858
0.7154176347
0.7158999265
0.8708665711
0.9154219749
0.9162014157
1.023746026
1.051471159
1.052186219
1.11252487
1.126578785
1.127083629
1.153754352
1.165857083
1.166466628
1.16967996
1.170366671
1.170790329
1.169036175
1.166558282
1.166857557
0.4183841923
0.4785411238
0.4786607757
0.6564341604
0.7133012248
0.713857891
0.8677474515
0.9121562522
0.9129943635
1.02058957
1.048485817
1.049250332
1.110198985
1.124471249
1.125010989
1.152146937
1.164600506
1.165230841
1.168631858
1.169498504
1.16992825
1.168321854
1.165971332
1.166276777
0.4180266778
0.4778633085
0.4780602081
0.6544729256
0.710899276
0.7115252009
0.8643935498
0.9086680579
0.9095595889
1.017238557
1.045315254
1.046123983
1.107725692
1.122232091
1.122803428
1.150461708
1.163300165
1.16394827
1.16755644
1.1686123
1.16904374
1.167597708
1.165390897
1.165686538
0.4174096312
0.4768963056
0.4771588325
0.6522391235
0.7082419199
0.7089272942
0.8608345548
0.9049867479
0.9059229633
1.013719791
1.041984591
1.042830614
1.105122663
1.119876291
1.120475262
1.148706081
1.161956102
1.162621806
1.166451414
1.167705801
1.168141794
1.166853761
1.164761625
1.165072672
0.4165755995
0.47569499
0.4760070115
0.6497865213
0.7053806091
0.7061109262
0.8571169266
0.9011566231
0.9021249786
1.01006904
1.038526168
1.03940048
1.102411098
1.117421468
1.118043061
1.146889253
1.160546539
1.161265019
1.165286751
1.166751032
1.167233975
1.166075734
1.164161315
1.164460017
0.41556817
0.4743010926
0.4746918286
0.6471447669
0.7023383907
0.7031641149
0.8532679912
0.897204311
0.8982319828
1.006311083
1.034963855
1.035875149
1.09961096
1.114886093
1.1155252
1.144955976
1.158967922
1.159950299
1.164011465
1.16571958
1.166384764
1.165234732
1.163437237
1.16388773
0.1715911418
0.1638869463
0.1687300441
0.07473678721
0.05980892488
0.06160969795
0.03458430027
0.03519698684
0.04353466081
0.1789012877
0.1805418883
0.1894531539
0.1312358489
0.1367228781
0.09174374603
0.08904312149
0.07220199189
0.03998998665
0.03800471709
0.03109229815
0.02209515867
0.02106518764
0.03550492064
0.04428689273
0.04111658244
0.08035101379
0.09744347244
0.09468036242
0.02526127928
0.0241134319
0.2692917128
0.2524265612
0.2353028206
0.2899932484
0.2706938235
0.2877312417
0.3513924884
0.3338007476
0.3113429934
0.3840640425
0.3577650595
0.3755728851
0.460357671
0.4429189437
0.4123490531
0.5105652061
0.4754339957
0.4926346804
0.07870796951
0.07537108148
0.05902572736
0.1129287041
0.09368191562
0.09702929309
0.08613613965
0.08975262337
0.1093544343
0.2868393175
0.2612432647
0.2419108403
0.2980788767
0.2770336433
0.3054489504
0.2345137196
0.2536577597
0.2733718715
0.3631042387
0.3349268658
0.3160702383
0.3731764946
0.3537728422
0.3817115416
0.3073252873
0.3286021906
0.3488370161
0.4428622633
0.4162936212
0.3935768854
0.4656159306
0.4398938366
0.4657749282
0.3949389913
0.4168634884
0.4423537538
0.5440062512
0.5214595069
0.4919765501
0.5812397306
0.551078818
0.5744135911
0.509952666
0.5295081381
0.5603491474
0.156224384
0.1516048468
0.1164093112
0.1777421849
0.1808867487
0.2163671584
0.4748062581
0.412079441
0.3958567406
0.4490894716
0.4319755419
0.4906705003
0.3403463029
0.3823243063
0.4018157257
0.5239360142
0.4756595371
0.4615655114
0.5058630532
0.4903532663
0.5357021409
0.4137668767
0.4496758018
0.4661791289
0.5794515323
0.540477501
0.5228936766
0.5808126106
0.5597990229
0.5977751799
0.4949604552
0.526342181
0.5482109566
0.6628505386
0.6292013577
0.6039845262
0.6829643217
0.6553947716
0.6871218098
0.5988325985
0.6266514787
0.6530690536
0.09215743913
0.08815634516
0.2378952708
0.2314615454
0.1616964099
0.3617332365
0.2995511548
0.306598489
0.2889101173
0.2937793639
0.3546307714
0.5143921318
0.5041378691
0.4314158485
0.6502987188
0.5772551382
0.5879614938
0.5586142153
0.5675287883
0.6401353243
0.783783192
0.705551102
0.7161746547
0.7045502813
0.7022355878
0.7703575498
0.5858408507
0.6414611691
0.6476111236
0.7717255557
0.7178710762
0.7097591741
0.74275913
0.7289312855
0.779862587
0.6375161509
0.6815155702
0.6974853589
0.8214166865
0.7774881203
0.7594441152
0.8267060274
0.7989585278
0.8427105357
0.7219797588
0.7589798792
0.7855823949
0.1288630213
0.1162345398
0.281498787
0.2680254341
0.2009029018
0.4039080359
0.3374129316
0.3509643347
0.3151842224
0.325449879
0.3910428754
0.5677384329
0.5526719626
0.4782468536
0.6992477443
0.6264569514
0.6411180289
0.5997435846
0.6126031729
0.6858545841
0.8449229936
0.8340311916
0.7696739197
0.9435716138
0.8921906306
0.9014316047
0.8481729457
0.8828194711
0.9109531668
1.030321978
0.9590239565
0.9732756722
0.9563540468
0.9545963293
1.024679553
0.8344328142
0.8924900143
0.8982436594
1.031238352
0.9735780753
0.9623654641
1.010218188
0.9889028704
1.04447465
0.8881770069
0.9376227367
0.9590546764
0.1994312671
0.1797516122
0.3456171656
0.3287596603
0.2666093242
0.4680474189
0.3988230662
0.4158586146
0.3659330946
0.3819885384
0.4507058168
0.6319577359
0.6161049629
0.5439510567
0.7548876041
0.6868388266
0.7013751198
0.656309024
0.6716881297
0.741293936
0.8842179367
0.875512875
0.8184100602
0.9710792861
0.9265081309
0.9333180075
0.9103627991
0.9187837135
0.9650905162
1.044235725
1.041721811
1.00935968
1.091322304
1.068742333
1.0705888
1.063751941
1.066501464
1.089600992
1.126912695
1.125745956
1.110184271
1.148589239
1.138411946
1.139428797
1.103358799
1.137295978
1.147608146
0.2721047581
0.2565937301
0.4061981851
0.3933526895
0.3291961498
0.5323280061
0.4629840871
0.4750428848
0.4327024724
0.4485053097
0.5180926367
0.6810530066
0.6717393357
0.6046677444
0.7973429543
0.7365603745
0.7445221752
0.7147530752
0.7267370705
0.7891601524
0.9053392768
0.9023895504
0.8528951629
0.9855954815
0.9464797442
0.9489529051
0.9390552761
0.9435119508
0.9832893064
1.051268406
1.049719105
1.019933293
1.096866925
1.075250685
1.076564771
1.072273891
1.073823737
1.095655302
1.130630517
1.129827702
1.114929867
1.151693666
1.141954464
1.14264517
1.140352927
1.14119252
1.151030196
0.3067617649
0.3031754698
0.4308282119
0.4275390613
0.3634558262
0.5615179455
0.4942535917
0.4972903674
0.4848463048
0.4909436342
0.558248112
0.6966429428
0.6939182362
0.6294573071
0.812688396
0.7554028257
0.758078848
0.7491734972
0.7524497459
0.809893835
0.9148214274
0.912706246
0.8651918941
0.9932416788
0.9553712156
0.9572205207
0.9512465827
0.953382356
0.9915334848
1.05637887
1.055248353
1.026456938
1.100786637
1.079912853
1.08085611
1.077774493
1.078887785
1.099931162
1.133163283
1.132621683
1.118230559
1.153742229
1.144338648
1.144792641
1.143269423
1.143832289
1.153312909
0.3177665595
0.3152048265
0.4423084358
0.439670997
0.3762922502
0.5722316042
0.5054585916
0.5078915192
0.50016526
0.5028853281
0.5698311691
0.7051779959
0.7033476491
0.6389471008
0.8215272998
0.7645923998
0.7663245089
0.7604903247
0.7626545196
0.8196543865
0.9216963577
0.920212024
0.8734508182
0.9989209752
0.9619745309
0.9633043509
0.9589349873
0.960518514
0.9976642589
1.060082031
1.059270456
1.031264818
1.103532886
1.083246553
1.083912116
1.081722776
1.082517937
1.102938315
1.134830686
1.134481919
1.12048886
1.1550113
1.145875401
1.146154234
1.145197757
1.145557417
1.154754845
0.3268568091
0.3247505801
0.4515072836
0.4493974969
0.386449576
0.580368892
0.5144072469
0.5163390033
0.5101896368
0.5123594096
0.578532705
0.7110120831
0.7097467814
0.646003582
0.8271033212
0.7704820408
0.7715822677
0.7678704611
0.7692501003
0.8259658506
0.9261474575
0.9252480361
0.8787954002
1.00292281
0.9665453488
0.967383736
0.9645083121
0.9655878301
1.00207383
1.062637053
1.062099221
1.034668358
1.105387593
1.085554136
1.085989742
1.084517036
1.085063666
1.104997677
1.135842264
1.135643043
1.121963066
1.15570331
1.146779833
1.14692491
1.146396483
1.146604149
1.155575683
0.3342663456
0.3325600275
0.4588252866
0.4571539744
0.394510789
0.586608151
0.5214887336
0.523007443
0.5181596032
0.5198743349
0.5852010601
0.7150642192
0.7141874298
0.6512785695
0.8303512822
0.7742165276
0.7749071844
0.772563641
0.7734381373
0.8297077239
0.9285308104
0.928099274
0.8817893948
1.005349223
0.9692246304
0.9696334133
0.9681061693
0.9687176584
1.004883161
1.064142374
1.063860976
1.036776663
1.106494592
1.086974475
1.087198742
1.08637102
1.086698847
1.106283832
1.136318503
1.136245659
1.122796683
1.155954842
1.147190154
1.147225588
1.147040922
1.147128769
1.155927886
0.3402364691
0.3388638562
0.4645918616
0.4632793781
0.4009406439
0.5913583133
0.5270303052
0.5282073751
0.5244343457
0.525773777
0.5902935437
0.7178122606
0.7172304676
0.6551543401
0.8320722293
0.7765154758
0.7769155202
0.7755164503
0.7760505774
0.8317547383
0.9293938106
0.9292922687
0.8831533532
1.006380603
0.9703349014
0.9704164609
0.9699500827
0.9701815169
1.006238367
1.064680069
1.06462959
1.037694705
1.106919858
1.087572866
1.087603361
1.087372278
1.087496371
1.106874389
1.136323812
1.136363968
1.123059466
1.155845214
1.147184451
1.147124089
1.147236029
1.147221867
1.155903265
0.3450211189
0.3439244157
0.4690829168
0.4680674178
0.4060221201
0.5948978986
0.5312952784
0.5321874772
0.5293083078
0.5303364835
0.5941143947
0.7195319379
0.7191874651
0.6578937258
0.8327357722
0.7777612299
0.7779360968
0.7772540991
0.7775348046
0.8326526815
0.9292019522
0.9293299309
0.8834131006
1.006309412
0.9702844261
0.97013204
0.9704315724
0.9703857489
1.00641394
1.064392451
1.064532387
1.037617157
1.106728473
1.08743612
1.087301344
1.08758934
1.087532797
1.106829513
1.135909643
1.136049499
1.122806488
1.155423613
1.146813147
1.146668752
1.147041675
1.146937578
1.155555628
0.3488126917
0.3479497611
0.472505757
0.4717402884
0.4099809431
0.5974286345
0.5344891834
0.5351400272
0.5330154446
0.5337817684
0.5968815237
0.7204071042
0.7202591969
0.659689312
0.832599986
0.7781739429
0.7781659005
0.7780614662
0.7781398511
0.8326990338
0.9282577246
0.9285526245
0.8828766157
1.005422194
0.9694048009
0.9690838403
0.9699321628
0.9696885259
1.005707397
1.063449868
1.063738173
1.03677022
1.106011211
1.086687399
1.086419762
1.08713022
1.08692482
1.106234415
1.135134044
1.135358558
1.12210731
1.154732489
1.146124142
1.145908037
1.146505345
1.146323372
1.154927949
0.3517547014
0.351092297
0.4750469835
0.4744820259
0.4129912525
0.5991098587
0.5367748031
0.5372208733
0.5357370589
0.5362811565
0.5987611468
0.7205842578
0.7205981737
0.6606950347
0.8318296164
0.7779078671
0.7777506551
0.7781174498
0.778030714
0.8320744738
0.9267507313
0.9271727602
0.8817311241
1.003935304
0.9679207792
0.9674737702
0.9687279194
0.9683394358
1.004354295
1.062001784
1.062404536
1.03534477
1.104865119
1.085451478
1.085079008
1.086123432
1.085800083
1.105187
1.134056558
1.134351264
1.121037643
1.153813389
1.145166488
1.144890502
1.145675999
1.145428436
1.154062119
0.3539757147
0.3534811826
0.4768746307
0.4764797827
0.4152022335
0.6000822419
0.5382967438
0.5385745096
0.5376217646
0.537979745
0.5998988278
0.7201866818
0.7203344522
0.6610466536
0.8305460124
0.77708709
0.7768068056
0.777560406
0.7773387004
0.8309098154
0.9248018107
0.925325738
0.8801022335
1.001993715
0.9659763982
0.9654298861
0.9669996781
0.9665000408
1.002516069
1.0601582
1.060651613
1.033476992
1.103372859
1.083829457
1.083372791
1.084683684
1.084266743
1.103774701
1.132728511
1.13308169
1.119664271
1.152703821
1.143984617
1.143658471
1.144601209
1.144298941
1.15299707
0.3555941119
0.3552411259
0.4780764761
0.4778298914
0.4167576463
0.6004599134
0.5391876818
0.539323192
0.5388146364
0.5390185545
0.6004161712
0.7193061248
0.7195675086
0.660850208
0.8288355612
0.7758039962
0.7754193379
0.7764987432
0.7761641101
0.8292995092
0.9224882883