/*--------------------------------*- C++ -*----------------------------------*\
| =========                 |                                                 |
| \\      /  F ield         | OpenFOAM: The Open Source CFD Toolbox           |
|  \\    /   O peration     | Version:  v2012                                 |
|   \\  /    A nd           | Website:  www.openfoam.com                      |
|    \\/     M anipulation  |                                                 |
\*---------------------------------------------------------------------------*/
FoamFile
{
    version     2.0;
    format      ascii;
    class       surfaceScalarField;
    location    "0.85";
    object      phi;
}
// * * * * * * * * * * * * * * * * * * * * * * * * * * * * * * * * * * * * * //

dimensions      [0 3 -1 0 0 0 0];
oriented        oriented;


internalField   nonuniform List<scalar> 
6430
(
-0.006797051652
0.9298121672
-0.01376338874
0.9294387189
-0.02081598453
0.9285681523
-0.006438875806
0.9272133608
-0.02183623295
-0.4590029619
0.4599360204
-0.007371934375
-0.4573153105
0.008388825686
0.4584579293
-0.00953144446
-0.4620819744
0.01065653859
0.4644578092
-0.0066116673
-0.006379017272
-0.245558054
0.008213419755
0.2463164591
-0.008909535897
-0.2505033123
0.008388945636
0.2503791504
-0.008175300677
-0.2374766824
0.007543211788
0.2384644354
-0.008471431049
-0.2167969562
0.009538511223
0.2176853088
-0.005178735138
-0.005248128725
-0.05274040311
0.003283449746
0.05279330947
-0.003336356106
-0.003247423041
0.9330595903
-0.006582134931
0.9327734309
-0.01009631077
0.9320823281
-0.00686431571
0.9310128022
-0.007031436387
-0.4628857181
0.4638703352
-0.007848932758
-0.4613974959
0.008946356459
0.4625727527
-0.01012161323
-0.4672646968
0.01139527666
0.4671612194
-0.005747598164
-0.00549321899
-0.2476399137
0.005453889584
0.2475229891
-0.005270284777
-0.2511904766
0.004895272726
0.2513243738
-0.004942093825
-0.2383800493
0.006060405974
0.239238248
-0.006866319012
-0.2210141738
0.01076130859
0.2220536106
-0.005887788312
-0.005912957061
-0.05451078155
0.007907049475
0.1094175925
-0.05444803682
-0.004167149635
-0.004198673975
-0.003410825478
0.9364704158
-0.006908689821
0.9362712952
-0.01058295413
0.9357565925
-0.00720165781
0.9349543546
-0.007322848717
-0.4649452139
0.4660034825
-0.008259926376
-0.4637710324
0.009403845509
0.4649831304
-0.01061594347
-0.4661650735
0.01192040424
0.4651514921
-0.005356559358
-0.005527793968
-0.245994086
0.003583282048
0.2451180575
-0.002649981779
-0.2511601711
0.0003367605705
0.2508458794
6.207504533e-05
-0.2425391151
0.0005857755862
0.2435932435
-0.001577144336
-0.2274678853
0.007259802537
0.2302808003
-0.01005905765
-0.112476562
0.01524867011
0.224003755
-0.01482106998
-0.1119547931
-0.003491837565
0.9399622534
-0.007063784553
0.9398432422
-0.01079595479
0.9394887627
-0.007356253678
0.9389316273
-0.007416973807
-0.4670805264
0.4681575467
-0.008433273908
-0.4661923704
0.009577133446
0.4673922813
-0.01077704435
-0.465218079
0.01205656559
0.4665555025
-0.006683457925
-0.006710392138
-0.2415638803
0.004173191662
0.2401338119
-0.002707853622
-0.2488179369
-0.001493213317
0.2477681873
0.002613990215
-0.2455846921
-0.004356622606
0.2457266568
0.004282823345
-0.2365464277
-0.002089533313
0.2378293581
0.0008457955192
-0.2250606112
0.003010437
0.2258556664
-0.003793479398
-0.003497651795
0.9434599052
-0.00706506631
0.9434106567
-0.01076850179
0.9431921982
-0.007347106369
0.9428424816
-0.007332249753
-0.4692113642
0.4702661824
-0.008401924549
-0.468568486
0.009509252844
0.4697177245
-0.01065849138
-0.4678851786
0.01186937725
0.4691647882
-0.006598487423
-0.006550499357
-0.2354936169
0.007252720625
0.2343082769
-0.006062402115
-0.2436666217
0.0009897526844
0.2420736807
0.000646830564
-0.2445039591
-0.00467968287
0.2436245077
0.00561495687
-0.2395412658
-0.007039260106
0.2395198408
0.007103703309
-0.2280011493
-0.006632454542
0.2285665252
0.006085947546
-0.00344079675
0.9469007019
-0.006938972838
0.9469088328
-0.0105446281
0.9467978534
-0.007195922955
0.9466109878
-0.007117211346
-0.4712818675
0.4722874841
-0.008201539553
-0.4708294352
0.009247788764
0.4719035289
-0.01032188239
-0.4703883227
0.01143855245
0.4715508247
-0.006339027392
-0.006262026999
-0.2349943291
0.006949003986
0.2353060275
-0.007260702306
-0.2371486385
0.007314345261
0.235601563
-0.005759315756
-0.2401195904
0.001233692018
0.2388172211
9.684051435e-05
-0.238275359
-0.003187831082
0.2376116741
0.003879622252
-0.2296396588
-0.005005358307
0.229777102
0.00488178404
-0.003333869097
0.950234571
-0.006711748062
0.9502867118
-0.01016714879
0.9502532542
-0.006932025311
0.9501829227
-0.006807058395
-0.4732480034
0.4741905912
-0.007874613185
-0.4729324355
0.008846148115
0.4739186701
-0.00983238272
-0.4726506081
0.01084424837
0.4736876759
-0.005988291948
-0.005893024183
-0.2361756717
0.006523508814
0.2364448363
-0.006792673342
-0.2358057826
0.007601636269
0.2360746503
-0.007870503946
-0.2351826986
0.00866705515
0.2353062566
-0.008790355427
-0.2354256927
0.006709613721
0.2347409757
-0.006018817637
-0.2294587587
0.004697010593
0.2290552729
-0.004289199301
-0.00318983557
0.9534244066
-0.006410656602
0.9535075328
-0.009680918979
0.9535235165
-0.006590222931
0.9535270119
-0.006434785211
-0.4750853916
0.4759576301
-0.007462461419
-0.4748570693
0.008353538864
0.4757517607
-0.009248230238
-0.4746645617
0.01015449061
0.4755812339
-0.005584117903
-0.00548704493
-0.237191781
0.006051184265
0.2374223591
-0.006281762398
-0.2368056817
0.00696068623
0.2370263523
-0.007181356826
-0.2359938252
0.007819369253
0.2361965041
-0.008022048155
-0.2347894816
0.008589425114
0.2349611428
-0.008761086339
-0.2277292009
0.009020325361
0.2274109619
-0.00870208639
-0.00302123867
0.9564456453
-0.006061769566
0.9565480637
-0.009127009213
0.9565887562
-0.006200255193
0.9566287455
-0.006028487631
-0.4767820051
0.4775829581
-0.007001208201
-0.4765993103
0.00781200791
0.4774050141
-0.008617711729
-0.4764400748
0.009424092652
0.4772443216
-0.005157005221
-0.005071334311
-0.2380615925
0.005567807752
0.2382589632
-0.005765178435
-0.2376275358
0.006335908721
0.237809557
-0.006517929935
-0.2367379991
0.007034223277
0.2368990117
-0.007195235906
-0.2354126839
0.007639444064
0.2355445482
-0.007771308391
-0.2266350405
0.007870765972
0.2264294735
-0.007665198927
-0.002838422588
0.9592840679
-0.005686157591
0.9593957987
-0.008538119528
0.9594407181
-0.005784930885
0.959485863
-0.005610306171
-0.478336417
0.4790687166
-0.006517230547
-0.478166383
0.007251481058
0.4788890891
-0.007974187146
-0.4779971034
0.008690053258
0.4787018241
-0.004733795386
-0.004660978551
-0.238806368
0.005095255182
0.2389756196
-0.005264506794
-0.2383073546
0.005746520368
0.2384586814
-0.005897847202
-0.2373329175
0.006320751921
0.2374630839
-0.00645091829
-0.2358923816
0.006806188342
0.2359940142
-0.006907820927
-0.2259432885
0.00691772168
0.2258186504
-0.006793083517
-0.002650866728
0.9619349346
-0.00530287123
0.9620478032
-0.007943224137
0.962081071
-0.005367836251
0.9621071353
-0.005196660196
-0.4797540316
0.4804213138
-0.00603511841
-0.4795714291
0.006698551983
0.4802189541
-0.007346076939
-0.4793618867
0.007981669211
0.4799804048
-0.004331137375
-0.004269049955
-0.2394459124
0.004649650428
0.2395917149
-0.004795452938
-0.2388745593
0.005205418853
0.239001619
-0.005332478521
-0.2378171632
0.005683718769
0.2379243999
-0.005790955481
-0.236261986
0.006080212081
0.2363402107
-0.006158436787
-0.225535106
0.006120639595
0.2254664229
-0.006051956474
-0.002465393053
0.9644003276
-0.004925453554
0.9645078637
-0.007362089303
0.9645177068
-0.004962223942
0.9645067746
-0.004799504671
-0.4810433261
0.4816504983
-0.005569396167
-0.4808303719
0.006168675616
0.481411001
-0.006749304722
-0.4805601534
0.007314894246
0.4811049212
-0.003958257492
-0.0039014046
-0.2399978253
0.00423837174
0.2401241102
-0.004364656639
-0.2393525929
0.004716116743
0.2394604268
-0.004823950633
-0.2382187603
0.005119958457
0.2383087351
-0.005209933252
-0.2365463153
0.005448741777
0.236606476
-0.005508902502
-0.2253229494
0.00544794332
0.2252931181
-0.00541811205
-0.00228733811
0.9666876657
-0.004564381439
0.9667849071
-0.006809667212
0.9667629925
-0.004577939621
0.9667025051
-0.004427458085
-0.4822149009
0.4827674445
-0.005130483217
-0.4819597445
0.005672479096
0.4824814996
-0.006194234142
-0.4816174362
0.006699032325
0.4821000668
-0.003616728787
-0.003564934107
-0.2404767164
0.003862866464
0.240586768
-0.003972918033
-0.239759832
0.004276728937
0.2398523658
-0.004369262655
-0.2385576282
0.004622326431
0.2386343033
-0.004699001513
-0.2367649936
0.004898413893
0.2368113045
-0.004944724843
-0.2252477119
0.004874396632
0.2252453248
-0.00487200948
-0.002120007987
0.9688076737
-0.004226032349
0.9688909314
-0.006294698433
0.9688316586
-0.00422133482
0.9687133413
-0.004084199748
-0.4832802358
0.4837838003
-0.00472489934
-0.4829753423
0.00521623081
0.48344568
-0.005686568573
-0.482555253
0.006138795473
0.4829849884
-0.003306722063
-0.003261808853
-0.2408952086
0.00352429181
0.2409918353
-0.003620918483
-0.2401108344
0.003885999634
0.2401911885
-0.003966353736
-0.2388478994
0.00418574285
0.238914128
-0.004251971481
-0.236933477
0.004420281261
0.2369692056
-0.004456009856
-0.2252696121
0.004383970701
0.2252868265
-0.004401185021
-0.001966305139
0.9707739789
-0.003915969953
0.9708405962
-0.005824766532
0.9707404552
-0.003896316271
0.9705592611
-0.003774370106
-0.4842507036
0.4847109374
-0.004356550013
-0.4838916765
0.004803513412
0.484317472
-0.005229308961
-0.4833913876
0.005636487062
0.4837762748
-0.003030505052
-0.002990869197
-0.2412638078
0.00322410099
0.2413493812
-0.003309674451
-0.2404170815
0.00354339921
0.2404877568
-0.003614074565
-0.2390998299
0.003806890614
0.2391577715
-0.003864832276
-0.2370636115
0.004008476435
0.237091262
-0.004036126886
-0.2253609993
0.00396657243
0.2253922488
-0.003997821914
-0.001827667564
0.9726016464
-0.003636841001
0.9726497697
-0.005403172659
0.9725067869
-0.003604974698
0.9722600334
-0.00349897021
-0.4851376082
0.4855599721
-0.004027338661
-0.484722223
0.004435823745
0.4851097247
-0.00482332548
-0.4841414389
0.00519211651
0.4844884051
-0.00278742089
-0.002751661806
-0.2415913138
0.002960953827
0.2416678158
-0.003037455907
-0.2406876867
0.003245838484
0.240750653
-0.003308804785
-0.2393212121
0.003480489496
0.2393725283
-0.003531805718
-0.2371644353
0.003655798507
0.2371859061
-0.003677269247
-0.2255020046
0.003612337613
0.2255431823
-0.003653515337
-0.001704994103
0.9743066405
-0.00339023062
0.9743350062
-0.00503173821
0.9741482944
-0.003348165655
0.9738349256
-0.003258464779
-0.4859516879
0.486341399
-0.003737876761
-0.4854791854
0.004113369904
0.48583411
-0.004468294465
-0.4848184713
0.004804772656
0.4851334136
-0.002575771819
-0.002543943159
-0.2418850989
0.002731991682
0.2419541328
-0.002801025575
-0.2409298263
0.002988865927
0.2409866135
-0.003045653157
-0.2395180834
0.003200386914
0.2395640602
-0.003246363711
-0.2372427935
0.003354605296
0.2372595136
-0.003371325422
-0.2256777937
0.003312038621
0.2257258304
-0.003360075253
-0.001598771297
0.9759054118
-0.003176946717
0.9759131816
-0.004711185484
0.9756825332
-0.003126401331
0.9753028306
-0.003052689197
-0.4867031265
0.4870650579
-0.003488332724
-0.4861737411
0.003835947424
0.4865013308
-0.004163537159
-0.4854346357
0.00447317128
0.4857234388
-0.002395681347
-0.00236629302
-0.2421511725
0.002536310429
0.2422140822
-0.002599220115
-0.2411491908
0.002770485145
0.2412010387
-0.002822333023
-0.2396952361
0.002963496681
0.23973692
-0.0030051806
-0.2373038901
0.003100820423
0.2373169579
-0.003113888144
-0.2258774577
0.003060687697
0.2259301232
-0.003113353178
-0.001508884829
0.9774142967
-0.002996538339
0.9774008351
-0.004440392035
0.9771263869
-0.00293752944
0.9766808103
-0.002880842239
-0.4874012968
0.4877402641
-0.003276496757
-0.4868160702
0.003600923485
0.4871209772
-0.003905830535
-0.4860010532
0.004193372427
0.4862687847
-0.002244411978
-0.002216691909
-0.2423946722
0.002371523304
0.2424526022
-0.002429453267
-0.2413504051
0.002587443886
0.2413983273
-0.002635366068
-0.2398565696
0.00276571533
0.239894813
-0.002803958717
-0.2373517139
0.002889525217
0.2373619695
-0.002899780885
-0.2260929631
0.002852672022
0.2261485443
-0.00290825326
-0.00143532842
0.9788496251
-0.002849099794
0.9788146065
-0.004219024848
0.9784963119
-0.002782712279
0.9779874238
-0.002742926061
-0.4880553516
0.4883753781
-0.003102738803
-0.4874152937
0.003408203588
0.4877017701
-0.003694679962
-0.4865284159
0.00396409381
0.4867797721
-0.002119689635
-0.002095760337
-0.2426199488
0.002236814631
0.2426740062
-0.002290872026
-0.2415373059
0.002438583362
0.241582194
-0.002483471428
-0.2400052912
0.002605405875
0.2400408276
-0.002640942218
-0.2373893273
0.002718545389
0.2373974348
-0.002726652952
-0.2263181602
0.002685223958
0.2263754151
-0.00274247882
-0.001378627981
0.9802282531
-0.002734829014
0.9801708075
-0.004047347175
0.9798088301
-0.002655092169
0.9792303329
-0.002635164179
-0.4886722455
0.4889813829
-0.002964229637
-0.4879797259
0.003255837052
0.4882518388
-0.003527949997
-0.4870236623
0.003783109734
0.4872611832
-0.002019402805
-0.002001227831
-0.2428313616
0.00213054559
0.2428825324
-0.002181716376
-0.2417132491
0.002321755969
0.2417558703
-0.002364377173
-0.2401441446
0.002479960655
0.2401776042
-0.002513420245
-0.2374192228
0.002584863808
0.2374257454
-0.002591386391
-0.2265485718
0.002555181052
0.2266065871
-0.002613196403
-0.001336402593
0.9815646557
-0.002651057866
0.9814854628
-0.003922381469
0.9810801537
-0.002571175521
0.980440929
-0.002561802061
-0.4892669523
0.4895617744
-0.002865997627
-0.4885170858
0.003144414723
0.4887777781
-0.00340510708
-0.4874932077
0.003649590708
0.4877205061
-0.001944512668
-0.001932376375
-0.2430323169
0.002050807278
0.2430813235
-0.002099813823
-0.2418810671
0.002234226214
0.2419220459
-0.002275204995
-0.2402755018
0.002386164817
0.2403074261
-0.00241808916
-0.2374434864
0.002484938926
0.2374488797
-0.002490332242
-0.2267808978
0.002458995166
0.2268389921
-0.002517089427
-0.001316418004
0.9828810737
-0.002605010699
0.9827740555
-0.003853008755
0.9823281518
-0.002525626603
0.9816248775
-0.002511330644
-0.4898378474
0.4901116974
-0.002799476601
-0.4890338205
0.003070976822
0.4892872637
-0.003324420104
-0.4879441626
0.00356158889
0.4881641272
-0.001893330132
-0.001888223402
-0.2432256724
0.001996530767
0.243273191
-0.002044049467
-0.2420431686
0.002174612854
0.2420830373
-0.002214481501
-0.2404014966
0.002322333928
0.2404323863
-0.002353223674
-0.2374638573
0.002416977818
0.2374685406
-0.002421661042
-0.2270128164
0.002394998644
0.2270705325
-0.002452714818
-0.001294514501
-0.00257497965
-0.003811650602
-0.002505505645
-0.002455835181
-0.4903923596
0.4906649919
-0.002778137924
-0.4895361758
0.003038262717
0.4897840457
-0.003286132698
-0.4883827566
0.003518915679
0.4885982727
-0.001869686159
-0.001864745639
-0.243413911
0.001967987028
0.2434604959
-0.002014572004
-0.2422015219
0.002142680149
0.2422406925
-0.002181850778
-0.240524107
0.002287852416
0.2405544481
-0.002318193532
-0.2374821491
0.002380634241
0.2374867039
-0.00238518896
-0.2272428101
0.00236332881
0.2273001094
-0.002420628114
0.003235700243
-0.003297641473
-0.05267846188
0.003888325193
-0.003992400946
-0.0544067058
0.009161105175
-0.2159489638
-0.004940885936
-0.005068211603
0.1058977592
-0.003212219418
-0.1056323098
0.00618247023
0.026358765
-0.2197860263
-0.02180386597
-0.005783046499
0.109228308
-0.003852593225
-0.1088512699
0.007363880334
-0.003307020616
0.006351870751
0.1061363588
0.05324830892
0.003523004677
-0.003593445843
-0.05317786775
0.02610681802
-0.0003582704691
-0.02666982925
0.000921281697
-0.02780291847
-0.0008684849102
0.001267577229
0.02740382616
0.007940128578
-0.00817099577
-0.1122456947
-0.001403671494
-0.0280439214
0.001644674419
0.02721430892
-0.0008915148147
-0.0277264656
-0.003462035966
0.04523218246
0.004556016848
-0.02475560727
-0.02157055607
-0.0002848450233
0.0007362753705
0.02565538767
0.003559412227
0.05331760048
-0.003628703794
-0.0222302869
0.02205023708
-0.0001047952027
0.02855873816
-0.005965856918
-0.01300094679
-0.01305397041
0.02672186305
-0.0003760390435
-0.0226263705
3.781313498e-05
0.005728556141
0.02621316665
-0.02417415188
-0.001257664514
0.001693599176
0.02373821722
-0.05201423483
0.003673191912
0.0520879841
-0.003746941173
0.05226176871
0.003774681905
-0.05222863439
-0.00192605644
-0.001881759783
-0.0520022626
0.003471522708
0.05200702371
-0.003476283816
0.003614401709
-0.003630963094
-0.05199767345
-0.0008202915227
-0.02464664991
0.001292789548
-0.02508800109
-0.001177798184
0.001452657719
0.02481314156
-0.05177920626
0.003287021345
0.05181640883
-0.003324223913
0.003444966221
-0.003491546744
-0.05195568208
0.00323227593
-0.00325594579
-0.0517555364
-0.000992589756
-0.02541284162
0.001317430286
0.02476593099
-0.0005546035205
-0.02520391723
0.02432612348
-0.0007379906762
0.003804120174
0.05226892877
-0.001918205695
-0.001893074538
0.05249889205
0.01430419684
-0.05238018047
-0.005464268783
-0.008958639634
-0.01216051937
0.02486488189
-0.02423528257
0.01153092005
0.01182414132
-0.01533428333
-0.008650377355
0.02434013087
-0.02430800265
0.005281902009
-0.02492765688
-0.006071617843
0.006088179832
0.02491109489
0.02368089536
-0.0002855163265
-0.02421567056
0.0299160412
-0.02379410972
-0.0003933753364
-0.006209716464
-0.02500425866
0.006286318245
-0.007194159929
0.01429217002
0.02281803111
0.022949251
-0.0005260201525
0.02597299354
0.02546077122
-0.02561710768
0.009107395448
-0.01182843605
-0.2247408978
0.2250070567
0.01436333245
-0.008004841267
-0.1117048745
-0.1117205448
0.007502451374
0.1096329061
0.1109220741
0.008117385254
-0.008635828056
-0.1104036313
-0.008600689514
0.09271770063
-0.09281301749
0.008696006386
-0.003422619504
0.004629010308
0.04402579166
-0.004787229859
-0.02624481336
0.00373280604
0.02729923718
-0.02627909134
0.002099439634
0.0265819124
-0.002402260691
0.02651473678
0.001815451896
-0.001658498659
-0.02667169002
0.03086058123
-0.005724462581
0.08975292802
-0.01188486387
-0.08646875365
0.02647530521
0.0009335009031
-0.0005361682883
-0.02687263783
-0.02479463716
0.004299971214
0.02667768371
-0.006183017758
-0.03102358945
0.02331226693
0.03257620442
0.02432280081
0.05374824034
-0.01905013643
-0.006522012664
0.00432529306
0.05396923058
-0.004436175036
-0.0538583486
0.001774845074
0.02631186289
-0.001571971183
0.02571051764
0.001904151608
-0.001742297539
-0.02587237171
-0.0005151364116
0.02419855587
-0.02468772884
0.001004309381
0.02527142509
0.02126247511
-0.02155150894
-0.0002261025827
0.0234051845
-0.004552522044
-0.01794988244
-0.0009027800105
-0.009231255265
0.05116276615
-0.05084096252
0.00890945164
0.002786612512
0.02434601907
-0.01919944813
0.02541483816
0.0005401834627
-0.000142702551
-0.02581231907
-0.03061540237
0.0257952636
3.290890856e-05
-0.02550402182
0.001878287201
0.02551635417
-0.001890619547
0.002067163113
-0.002459399377
-0.02588685508
-0.006021329639
-0.02448028291
0.00425679919
-0.0005690695407
-0.02600825291
0.001022004532
0.02555531791
-0.02587112321
0.001732642068
0.02574980435
-0.001611323209
0.001812743714
-0.001743744056
-0.02557302148
0.0009008458496
0.02606144205
-0.0004869826846
0.003677272121
-0.004653680605
-0.02381822868
-0.001278397269
0.001722452968
0.02375450018
0.002236976785
0.02564171717
-0.002168176309
0.02647313036
0.009451442245
-0.009918278816
-0.02600629379
-0.002392358397
0.02871389146
-0.02281148471
-0.003510048356
-0.005189498147
0.01004353412
0.01855114852
0.0203904683
-0.0004063904622
-0.01913632
0.02502419056
-0.005186026019
-0.0007018445435
0.02137937354
-0.005229056231
-0.02070283935
0.02458096112
-0.005482322673
-0.02474225111
0.005643612669
0.02502823276
-0.0001824641449
0.01520457343
-0.0008091135676
-0.0246675181
-0.006714869924
0.00654399834
0.02483838969
-0.004825125527
-0.013627144
-0.0006840504725
-0.00696323815
-0.02463513973
0.006930859785
-0.01468591701
-0.02195081499
-0.02622940764
0.001773369445
0.02612658508
-0.001670546884
0.00167132743
-0.001594974478
-0.02594747616
-0.02646765813
0.0009995886848
-0.02577088262
0.003094411701
0.02697644213
-0.02584174832
0.001851092779
0.0259835037
-0.00199284816
0.00169227007
-0.001740367067
-0.02618131065
-0.0239120335
0.02306626573
-4.574704721e-05
0.002368164323
-0.02626179582
-1.840200492e-05
-0.02779431093
0.002436009653
0.02181483785
0.0001886913532
4.670787136e-05
-0.0001435144455
0.02625180621
0.0006135712878
-0.02275479747
0.02250642038
0.0001048626399
-6.457077923e-05
-0.02351327511
0.000884057793
2.846818455e-06
-0.02561525585
0.001647795881
0.02560658186
-0.001639121889
0.001795025136
-0.001940210362
-0.02569656309
-0.02490864666
0.002815036164
-0.02642743068
0.001235471054
0.02609280547
-0.02577044011
0.001592624478
0.02572422107
-0.001546405436
0.00162410156
-0.001594828217
-0.02564452919
-0.0248121381
0.02440005945
-0.0001425248698
0.0004861072204
-0.0001047632655
-0.02519348206
0.0009178008502
-0.02563561086
-0.001213537383
0.02392696269
0.001612698179
-0.02389535874
0.02319952006
-0.0005176987054
-0.0002332899659
0.006884099843
-0.007360247813
-0.0237591346
0.02521431422
-0.02475334274
0.006423128366
0.02612223045
0.01062300382
0.0002245243779
0.005736178994
-0.005960703371
-0.01832145572
-0.004373075422
0.00550315672
0.02449562701
0.02161348604
-0.00542361065
0.02286676939
-0.002630986886
-0.02262814089
-0.02163473474
0.02134737989
1.838525166e-06
0.0002470338079
-0.0218131533
-6.861524318e-05
-0.02463522432
0.0006665875721
-0.01989223172
-0.0004114108839
0.01524266346
-0.0009504934398
-0.00563784134
0.0214398632
-0.0005593584006
0.02405561587
-0.006875426094
-0.0015079203
0.02210049328
0.002356678016
-0.02077586521
0.01928497852
-1.703361194e-05
4.549452219e-05
0.02603496212
-0.0261830641
0.02265341216
0.0002270835
-4.157770352e-05
0.02252176563
0.000189406461
-5.775993423e-05
0.01504497875
-0.01502419348
-2.078526009e-05
-0.004838671328
0.003722044109
-0.03108822104
-1.22461024e-05
-0.02222626006
0.01997577447
0.02714270264
-0.02064534674
0.02664675696
0.001921344581
-0.001818375285
-0.02674972625
-0.0004732648347
0.02197901892
-0.0227904756
0.001284721509
0.0007232539172
-0.0002311400718
-0.02517984269
0.0254120605
-0.0259005912
0.001211784614
0.02497102691
0.001445342972
3.218884545e-05
-0.01279566488
-0.004157836391
-0.0009963811655
-0.01143421548
-0.001361449403
0.01210667244
-0.002120809503
-0.01045912777
0.01989013925
-0.005014442514
-0.01976810372
0.004892406985
0.003225907788
0.004365179264
0.02112280441
-0.0222995865
0.0221415963
1.528764792e-05
9.241229299e-05
0.0001144215869
0.000531899433
0.002427599148
-0.0001456106586
0.02205009366
-0.02220434976
4.949283809e-05
0.02187663476
3.093402463e-05
0.0223650651
0.000124251706
3.244882453e-05
9.362601682e-05
6.708932425e-05
-0.02236142855
-0.004518512115
0.002352041013
-0.001513949495
0.002460775025
0.01955471926
-0.02107770278
9.034021567e-06
1.201366386e-05
0.02161827231
2.50724897e-05
2.287082451e-05
0.02468293819
0.00201054169
-0.003534135823
0.003463731276
-0.003538770243
0.001103881642
-0.0193596907
-0.004555675643
0.01990403199
-0.01607661742
-0.002723532924
0.01661850801
0.01177584912
-0.001732314998
-0.002730958812
-0.001569809484
-0.003539500995
-0.001469757666
-0.005783982056
0.01937395714
-0.02232724043
-0.006008990099
0.02255224848
-0.02170769853
-0.005805567922
-0.0002115381023
0.0006045465441
-0.02198240655
-4.228485603e-05
-2.327438753e-05
-0.0004888033753
-0.02029466868
0.02658180244
-0.005620875675
-0.000666258085
-0.01440896729
-0.005227146951
-0.0006585544335
-0.02044099
-0.006091834055
0.01254654072
-0.006405728281
-0.001080603271
-0.01346478779
-0.0009441795033
0.006094688506
-0.006674212371
0.02804960343
-0.0005150517262
0.02151567543
-0.0148940324
0.0002081153855
0.004429464698
-3.851856881e-05
0.004579142989
0.006042708002
-0.005897103608
-0.2456350855
-0.00691069341
0.2526115075
-0.2508203511
0.005217555155
-0.007052271277
-0.2502672566
-0.007654065558
0.242168803
-0.2418534615
0.007412606383
-0.007953670818
-0.237116768
0.2199412003
-0.2194695552
0.008697105938
0.02228796334
-0.0225624854
-0.2472995005
-0.02303123555
0.2519173869
-0.2517059334
0.02290583651
0.01008252452
0.2510075233
-0.02314479437
-0.2509911545
-0.02372501944
0.2428677008
-0.2425383146
0.02345967776
0.007685331356
0.2420978884
-0.02410596276
-0.237948226
0.2225991376
-0.2215942594
0.02535675576
0.009032672591
0.2204533997
0.2186134497
0.009838131112
-0.005356443531
-0.005409828448
0.1085046969
-0.005928719858
-0.1082470439
0.005671066786
-0.1075193168
-0.005624450793
0.005388168469
0.1077555992
0.05298249913
0.003386976427
-0.003458638607
-0.05291083695
0.05233675113
-0.05229334632
0.003570996899
-0.05219188969
0.003435540803
0.05222787159
0.003866375296
-0.003106656354
-0.2466929798
-0.001295001787
0.2512318021
-0.2516138632
0.001761595993
0.004956183724
0.2519437449
-0.001038416458
-0.2513308122
-0.002042392156
0.2457548377
-0.2450112534
0.00136936966
0.005492127845
0.2435014529
-0.003112294762
-0.2414093619
0.2310746328
-0.2285645189
0.006616274813
0.009332754215
0.2240315417
-0.01197816795
0.2231204299
0.01091137093
0.2225667211
-0.00660090424
-0.1107458379
-0.1106182141
-0.006579932835
-0.1099849005
-0.006455471465
0.006152305969
0.110288066
0.1099009968
0.008029135889
-0.004247373828
-0.004265166354
0.0548200173
-0.004646899564
-0.05460724046
0.004434122721
-0.05417193359
-0.004409846085
0.004282894782
0.05429888489
0.003746037953
-0.002380796464
-0.2428872807
0.001400636808
0.2479960825
-0.2490684955
-0.0002571776782
0.00096114529
0.2506897862
0.002339866093
-0.2496814604
0.003396721193
0.2472448448
-0.2471886462
-0.003379293218
1.035603345e-05
0.2464024915
0.003044989499
-0.2451647458
-0.0001804295202
0.2388593077
-0.2374074453
-0.001227779558
0.004903333552
0.2334570907
-0.001829935486
-0.2348623144
-0.006913349652
0.2313475941
-0.2298493034
0.005427709295
0.0139948834
0.2262608434
-0.007623939815
-0.2243420111
0.006531418123
-0.004946547983
-0.2370661678
5.891730328e-05
0.2422558844
-0.2438620826
0.001591651147
-0.0001901696772
0.2467586272
0.001612547145
-0.2451686165
0.005201058358
0.2449824929
-0.2458985602
-0.004223654909
-0.004087288039
0.2470477755
0.005926345364
-0.2451685567
0.006593489723
0.2410793756
-0.2410161859
-0.006606857567
-0.003117755339
0.2399348702
0.006389544755
-0.2392931443
0.005254299753
0.2344382037
-0.2340098258
-0.005657661985
0.001900375863
0.2324751872
0.004612472516
-0.2273408384
0.0070453459
-0.007367535683
-0.2346721394
-0.005510866622
0.2356274604
-0.2372349398
0.007127305209
0.00269152694
0.2405900975
-0.003869925895
-0.2387724938
0.000737015757
0.2398716228
-0.241279645
0.0007044101178
-0.003521922953
0.2438802506
0.002039854098
-0.2413864867
0.004925784076
0.2390868655
-0.2398324037
-0.004144788552
-0.006786100038
0.2408740692
0.005526498091
-0.2388430703
0.006400940313
0.2346177256
-0.2347513342
-0.006246400999
-0.006856272018
0.234687303
0.00616943647
-0.2293922986
0.006636473313
-0.006915586824
-0.2358965582
-0.007760512492
0.2359352073
-0.2356528623
0.007478167518
0.007895983499
0.2350479587
-0.008043024429
-0.2355232707
-0.008060538526
0.2352746432
-0.2357641784
0.00855171841
0.002676348188
0.2384540439
-0.006955554589
-0.2362832783
-0.004006564028
0.2356195286
-0.2364806036
0.004878785917
-0.002323021205
0.2382518468
-0.003268353511
-0.2361522884
-0.001893201745
0.2335003971
-0.2338232326
0.002224785804
-0.004773257559
0.2344038812
-0.001637796791
-0.2297074002
0.006170402404
-0.006409620578
-0.2369525628
-0.007118871682
0.2369420477
-0.236707659
0.006884482934
0.007332063242
0.2362047803
-0.007350593395
-0.23657396
-0.008024288644
0.2362395524
-0.2360191911
0.007803927318
0.008403938124
0.2355377602
-0.008239494352
-0.2357786195
-0.008844802345
0.235115109
-0.2349212633
0.008650956661
0.007516482625
0.2348176335
-0.009028534517
-0.2346057495
-0.009342065188
0.2327815194
-0.2327801483
0.009340694035
0.005027904696
0.2331749823
-0.008993649566
-0.2280776165
0.005687329963
-0.005891979871
-0.2378569426
-0.00648773382
0.2377786155
-0.2375836413
0.006292759553
0.006736872483
0.2371658615
-0.006678557607
-0.237436712
-0.007222184587
0.237006213
-0.2368302161
0.007046187666
0.007611270606
0.236447651
-0.007392419133
-0.2365677645
-0.007863543051
0.2357755695
-0.2356257513
0.007713724832
0.008408100814
0.2352964333
-0.008004253999
-0.2352719729
-0.008135551623
0.2325784733
-0.2326505711
0.008207649457
0.009045113771
0.232756731
-0.007904930751
-0.2268656614
0.005212740248
-0.005388087466
-0.2386310208
-0.005890738506
0.2384768369
-0.2383136797
0.005727581273
0.006149512638
0.2379650116
-0.006049106355
-0.2381489867
-0.006493168441
0.2376239088
-0.2374812616
0.006350521233
0.006867437974
0.2371729983
-0.006630229599
-0.2371958564
-0.007005288139
0.2362933147
-0.2361748898
0.006886863263
0.007498406133
0.2359166074
-0.007113787881
-0.2357838819
-0.007141292518
0.2322288187
-0.2323215071
0.007233980957
0.007951176446
0.2324980628
-0.006999071894
-0.2260855092
0.004759722957
-0.004910517897
-0.2392951174
-0.005337257291
0.2390636663
-0.2389260992
0.005199690154
0.005590332259
0.238633025
-0.005469895106
-0.2387419215
-0.005837421812
0.2381291847
-0.2380117626
0.005719999709
0.006185115765
0.237759545
-0.005949810206
-0.2377047748
-0.006253962905
0.236706239
-0.236611312
0.00615903591
0.00669427822
0.2364052248
-0.006337512791
-0.2361784361
-0.006308783176
0.2318551903
-0.2319474228
0.006401015675
0.007011580168
0.2321349602
-0.006227973351
-0.2256159159
0.004337480823
-0.004467832407
-0.2398674737
-0.004832798287
0.2395611121
-0.2394441201
0.004715806327
0.005073445097
0.2391956401
-0.004945012571
-0.2392403787
-0.005253479328
0.2385493154
-0.2384510702
0.005155234145
0.005571610776
0.2382412927
-0.005347325147
-0.2381249145
-0.005597526007
0.2370391414
-0.2369623725
0.005520757154
0.005990276309
0.2367961748
-0.005661755261
-0.236482086
-0.005604978271
0.2315068069
-0.2315902665
0.005688437798
0.006211121379
0.2317647085
-0.00556669064
-0.225361237
0.003952685921
-0.004066058087
-0.2403633443
-0.004380830944
0.2399866979
-0.23988623
0.004280363041