/*--------------------------------*- C++ -*----------------------------------*\
| =========                 |                                                 |
| \\      /  F ield         | OpenFOAM: The Open Source CFD Toolbox           |
|  \\    /   O peration     | Version:  v2012                                 |
|   \\  /    A nd           | Website:  www.openfoam.com                      |
|    \\/     M anipulation  |                                                 |
\*---------------------------------------------------------------------------*/
FoamFile
{
    version     2.0;
    format      ascii;
    class       pointVectorField;
    location    "0.68";
    object      pointDisplacement;
}
// * * * * * * * * * * * * * * * * * * * * * * * * * * * * * * * * * * * * * //

dimensions      [0 1 0 0 0 0 0];


internalField   nonuniform List<vector> 
6426
(
(0 0 0)
(0 0 0)
(0 0 0)
(0 0 0)
(0 0 0)
(0 0 0)
(0 0 0)
(0 0 0)
(0 0 0)
(0 0 0)
(-0.001741074735 -0.02026218519 0)
(-0.001765272102 -0.02066126414 0)
(-0.001786786559 -0.02106051782 0)
(-0.0009607390266 -0.02108193653 0)
(-0.0009137751587 -0.0202842476 0)
(0.01170508894 -0.02069150012 0)
(0.01161923937 -0.02228837336 0)
(0.0115327358 -0.02388477447 0)
(0.01492339945 -0.02400285356 0)
(0.01509215951 -0.02080787806 0)
(0.01339925208 -0.02074986176 0)
(0.02424135681 -0.02018544446 3.435723928e-13)
(0.02378101563 -0.02290216044 3.386874114e-13)
(0.02547358127 -0.02158366081 3.184119635e-13)
(0.02617919655 -0.01921935081 3.260447468e-13)
(0.02663188859 -0.01428696366 2.423339307e-13)
(0.02566170012 -0.01584935413 2.338684801e-13)
(0.02386385984 -0.01346953221 1.993405441e-13)
(0.02487728531 -0.01219630172 2.075561945e-13)
(0.01521649946 -0.005865511382 1.015854068e-13)
(0.01430006954 -0.006357139119 9.550693569e-14)
(0.01047434617 -0.00434060827 6.561418076e-14)
(0.01128195441 -0.004049811979 7.065181773e-14)
(0.001607699435 -0.0004789663181 8.507083926e-15)
(0.001306954589 -0.0004508978995 6.911138328e-15)
(0.0001036445049 -3.396446661e-05 5.273559367e-16)
(0.0001980165131 -5.599408604e-05 9.992007222e-16)
(0 0 0)
(0 0 0)
(0 0 0)
(0 0 0)
(0 0 0)
(0 0 0)
(0 0 0)
(0 0 0)
(0 0 0)
(0 0 0)
(0 0 0)
(0 0 0)
(0 0 0)
(0 0 0)
(-0.002715117852 -0.03292056276 0)
(-0.002745034177 -0.03372239507 0)
(-0.00277497902 -0.03452497255 0)
(-0.001067232507 -0.03458869153 0)
(-0.001007369197 -0.03298428183 0)
(0.01094680953 -0.03343031298 0)
(0.01082711071 -0.03663838719 0)
(0.01419710213 -0.03662331358 3.582828478e-13)
(0.01435274513 -0.03353081452 3.593791931e-13)
(0.02244276455 -0.03055312685 3.2439329e-13)
(0.02186027228 -0.03269768305 3.174682739e-13)
(0.02308370901 -0.03020432601 2.92932345e-13)
(0.02377687365 -0.02835535333 3.006622729e-13)
(0.02232633629 -0.01922680748 2.042255254e-13)
(0.02141989013 -0.02019806252 1.961902862e-13)
(0.01915329406 -0.01648148728 1.604549826e-13)
(0.02046188942 -0.01609885322 1.713629239e-13)
(0.01079629645 -0.006704886609 7.213674103e-14)
(0.009411297469 -0.006394889283 6.288025656e-14)
(0.006402273005 -0.004067195652 4.010680676e-14)
(0.007294417151 -0.004230767692 4.569955525e-14)
(0.0002691237977 -0.0001308537186 1.429412144e-15)
(0.0001215642404 -6.48503138e-05 6.383782392e-16)
(0 0 0)
(0 0 0)
(0 0 0)
(0 0 0)
(0 0 0)
(0 0 0)
(0 0 0)
(0 0 0)
(0 0 0)
(0 0 0)
(0 0 0)
(0 0 0)
(0 0 0)
(0 0 0)
(0 0 0)
(0 0 0)
(-0.003193966274 -0.04575435007 0)
(-0.003313692894 -0.04896316948 0)
(0.0001017920652 -0.04909060715 0)
(0.0002215186854 -0.04588178774 0)
(0.01039843456 -0.04584845779 3.564509798e-13)
(0.01016323208 -0.04826075497 3.509137425e-13)
(0.01316192414 -0.0468855888 3.40158457e-13)
(0.01352742484 -0.04491075522 3.483047184e-13)
(0.01998154034 -0.03779023181 2.91627833e-13)
(0.01911957808 -0.03862290216 2.790129239e-13)
(0.01967856624 -0.03464352944 2.501887586e-13)
(0.0206917406 -0.034124307 2.632061236e-13)
(0.01773133647 -0.02099023949 1.62328484e-13)
(0.01647954967 -0.02081608413 1.507266534e-13)
(0.01402862472 -0.01617316064 1.173228181e-13)
(0.01526129377 -0.0164860128 1.277589146e-13)
(0.006027598296 -0.005153705403 4.024558464e-14)
(0.00518005006 -0.004732080686 3.456956943e-14)
(0.002653159694 -0.0022692674 1.659783422e-14)
(0.003602992362 -0.002884469318 2.256528298e-14)
(0 0 0)
(0 0 0)
(0 0 0)
(0 0 0)
(0 0 0)
(0 0 0)
(0 0 0)
(0 0 0)
(0 0 0)
(0 0 0)
(0 0 0)
(0 0 0)
(0 0 0)
(0 0 0)
(0 0 0)
(0 0 0)
(0 0 0)
(0 0 0)
(-0.003405622437 -0.05625642544 3.453071162e-13)
(-0.00321747243 -0.05657121124 3.29167249e-13)
(-4.472175226e-05 -0.05573565454 3.236855228e-13)
(-8.830400799e-05 -0.05566111349 3.409494909e-13)
(0.009019134996 -0.05114296012 3.114869473e-13)
(0.008478776665 -0.05024125697 2.903233209e-13)
(0.01068301182 -0.04728385127 2.728928195e-13)
(0.01146377855 -0.04851067945 2.950140132e-13)
(0.01556948426 -0.03715473065 2.254169074e-13)
(0.01408907676 -0.03522433995 2.029071355e-13)
(0.01395730258 -0.03041831351 1.752487044e-13)
(0.01560983896 -0.03245525521 1.969119312e-13)
(0.01175333507 -0.01756611962 1.068589661e-13)
(0.009971696016 -0.01565037942 9.039990978e-14)
(0.007808777829 -0.01120789117 6.482314685e-14)
(0.009475227689 -0.01294153757 7.883971254e-14)
(0.002388380794 -0.002597804649 1.590394483e-14)
(0.001538748968 -0.001762718333 1.022792961e-14)
(0.00034501593 -0.0003709940997 2.15105711e-15)
(0.0007974409126 -0.000813574201 4.982125823e-15)
(0 0 0)
(0 0 0)
(0 0 0)
(0 0 0)
(0 0 0)
(0 0 0)
(0 0 0)
(0 0 0)
(0 0 0)
(0 0 0)
(0 0 0)
(0 0 0)
(0 0 0)
(0 0 0)
(0 0 0)
(0 0 0)
(0 0 0)
(0 0 0)
(-0.002140002754 -0.04997526791 2.514793929e-13)
(-0.001706739291 -0.04545758356 2.188804693e-13)
(0.0004028285781 -0.04411165425 2.121774978e-13)
(0.0002892325174 -0.0486848447 2.446792768e-13)
(0.006386032651 -0.04148709571 2.078615058e-13)
(0.005552162566 -0.03680665001 1.766087276e-13)
(0.006635214375 -0.0334046498 1.601913047e-13)
(0.007756822563 -0.03805191375 1.90514271e-13)
(0.009071126456 -0.02553470217 1.277727923e-13)
(0.007336018728 -0.02136744265 1.024458296e-13)
(0.006717060231 -0.01714220463 8.221201497e-14)
(0.008528896078 -0.02100055913 1.051103649e-13)
(0.004706530818 -0.008421732367 4.224398609e-14)
(0.003184699384 -0.005930069502 2.849109837e-14)
(0.001880267254 -0.003214637204 1.545985562e-14)
(0.003123972014 -0.005126620732 2.57294186e-14)
(2.631337625e-05 -3.474479019e-05 1.804112415e-16)
(0 0 0)
(0 0 0)
(0 0 0)
(0 0 0)
(0 0 0)
(0 0 0)
(0 0 0)
(0 0 0)
(0 0 0)
(0 0 0)
(0 0 0)
(0 0 0)
(0 0 0)
(0 0 0)
(0 0 0)
(0 0 0)
(0 0 0)
(0 0 0)
(0 0 0)
(0 0 0)
(0 0 0)
(-0.0006068237057 -0.02749557368 1.172117958e-13)
(-0.0003683411277 -0.02099700427 8.623657344e-14)
(0.000439674841 -0.01990372693 8.171241461e-14)
(0.0005032542974 -0.02627341734 1.11965992e-13)
(0.002888141344 -0.02003936067 8.529288387e-14)
(0.002051814324 -0.01444184939 5.924427615e-14)
(0.002210330047 -0.0121222308 4.97379915e-14)
(0.003223805939 -0.017320321 7.371880884e-14)
(0.002688831431 -0.008601430007 3.662348202e-14)
(0.001531058231 -0.005047951046 2.070565941e-14)
(0.001050349406 -0.003058012757 1.254552018e-14)
(0.002101459937 -0.005924516889 2.522981823e-14)
(0.0002421886612 -0.0005049170346 2.164934898e-15)
(6.801214134e-07 -1.470834447e-06 0)
(0 0 0)
(2.832172078e-06 -5.441095795e-06 2.775557562e-17)
(0 0 0)
(0 0 0)
(0 0 0)
(0 0 0)
(0 0 0)
(0 0 0)
(0 0 0)
(0 0 0)
(0 0 0)
(0 0 0)
(0 0 0)
(0 0 0)
(0 0 0)
(0 0 0)
(0 0 0)
(0 0 0)
(0 0 0)
(0 0 0)
(0 0 0)
(0 0 0)
(0 0 0)
(0 0 0)
(-3.671862834e-05 -0.004775342255 1.766642388e-14)
(-9.640035097e-06 -0.00161895665 5.800915304e-15)
(3.740868633e-05 -0.001325590235 4.74620343e-15)
(0.0001179539308 -0.004254369832 1.573741137e-14)
(0.0002636037188 -0.001962594492 7.258083023e-15)
(3.272429326e-05 -0.0002501168906 8.881784197e-16)
(6.032822227e-06 -3.656794093e-05 1.387778781e-16)
(0.0002003803875 -0.001179694654 4.357625372e-15)
(0 0 0)
(0 0 0)
(0 0 0)
(0 0 0)
(0 0 0)
(0 0 0)
(0 0 0)
(0 0 0)
(0 0 0)
(0 0 0)
(0 0 0)
(0 0 0)
(0 0 0)
(0 0 0)
(0 0 0)
(0 0 0)
(0 0 0)
(0 0 0)
(0 0 0)
(0 0 0)
(0 0 0)
(0 0 0)
(0 0 0)
(0 0 0)
(0 0 0)
(0 0 0)
(0 0 0)
(0 0 0)
(0 0 0)
(0 0 0)
(0 0 0)
(0 0 0)
(0 0 0)
(0 0 0)
(0 0 0)
(0 0 0)
(0 0 0)
(0 0 0)
(0 0 0)
(0 0 0)
(0 0 0)
(0 0 0)
(0 0 0)
(0 0 0)
(0 0 0)
(0 0 0)
(0 0 0)
(0 0 0)
(0 0 0)
(0 0 0)
(0 0 0)
(0 0 0)
(0 0 0)
(0 0 0)
(0 0 0)
(0 0 0)
(0 0 0)
(0 0 0)
(0 0 0)
(0 0 0)
(0 0 0)
(0 0 0)
(0 0 0)
(0 0 0)
(0 0 0)
(0 0 0)
(0 0 0)
(0 0 0)
(0 0 0)
(0 0 0)
(0 0 0)
(0 0 0)
(0 0 0)
(0 0 0)
(0 0 0)
(0 0 0)
(0 0 0)
(0 0 0)
(0 0 0)
(0 0 0)
(0 0 0)
(0 0 0)
(0 0 0)
(0 0 0)
(0 0 0)
(0 0 0)
(0 0 0)
(0 0 0)
(0 0 0)
(0 0 0)
(0 0 0)
(0 0 0)
(0 0 0)
(0 0 0)
(0 0 0)
(0 0 0)
(0 0 0)
(0 0 0)
(0 0 0)
(0 0 0)
(0 0 0)
(0 0 0)
(0 0 0)
(0 0 0)
(0 0 0)
(0 0 0)
(0 0 0)
(0 0 0)
(0 0 0)
(0 0 0)
(0 0 0)
(0 0 0)
(0 0 0)
(0 0 0)
(0 0 0)
(0 0 0)
(0 0 0)
(0 0 0)
(0 0 0)
(0 0 0)
(0 0 0)
(0 0 0)
(0 0 0)
(0 0 0)
(0 0 0)
(0 0 0)
(0 0 0)
(0 0 0)
(0 0 0)
(0 0 0)
(0 0 0)
(0 0 0)
(0 0 0)
(0 0 0)
(0 0 0)
(0 0 0)
(0 0 0)
(0 0 0)
(0 0 0)
(0 0 0)
(0 0 0)
(0 0 0)
(0 0 0)
(0 0 0)
(0 0 0)
(0 0 0)
(0 0 0)
(0 0 0)
(0 0 0)
(0 0 0)
(0 0 0)
(0 0 0)
(0 0 0)
(0 0 0)
(0 0 0)
(0 0 0)
(0 0 0)
(0 0 0)
(0 0 0)
(0 0 0)
(0 0 0)
(0 0 0)
(0 0 0)
(0 0 0)
(0 0 0)
(0 0 0)
(0 0 0)
(0 0 0)
(0 0 0)
(0 0 0)
(0 0 0)
(0 0 0)
(0 0 0)
(0 0 0)
(0 0 0)
(0 0 0)
(0 0 0)
(0 0 0)
(0 0 0)
(0 0 0)
(0 0 0)
(0 0 0)
(0 0 0)
(0 0 0)
(0 0 0)
(0 0 0)
(0 0 0)
(0 0 0)
(0 0 0)
(0 0 0)
(0 0 0)
(0 0 0)
(0 0 0)
(0 0 0)
(0 0 0)
(0 0 0)
(0 0 0)
(0 0 0)
(0 0 0)
(0 0 0)
(0 0 0)
(0 0 0)
(0 0 0)
(0 0 0)
(0 0 0)
(0 0 0)
(0 0 0)
(0 0 0)
(0 0 0)
(0 0 0)
(0 0 0)
(0 0 0)
(0 0 0)
(0 0 0)
(0 0 0)
(0 0 0)
(0 0 0)
(0 0 0)
(0 0 0)
(0 0 0)
(0 0 0)
(0 0 0)
(0 0 0)
(0 0 0)
(0 0 0)
(0 0 0)
(0 0 0)
(0 0 0)
(0 0 0)
(0 0 0)
(0 0 0)
(0 0 0)
(0 0 0)
(0 0 0)
(0 0 0)
(0 0 0)
(0 0 0)
(0 0 0)
(0 0 0)
(0 0 0)
(0 0 0)
(0 0 0)
(0 0 0)
(0 0 0)
(0 0 0)
(0 0 0)
(0 0 0)
(0 0 0)
(0 0 0)
(0 0 0)
(0 0 0)
(0 0 0)
(0 0 0)
(0 0 0)
(0 0 0)
(0 0 0)
(0 0 0)
(0 0 0)
(0 0 0)
(0 0 0)
(0 0 0)
(0 0 0)
(0 0 0)
(0 0 0)
(0 0 0)
(0 0 0)
(0 0 0)
(0 0 0)
(0 0 0)
(0 0 0)
(0 0 0)
(0 0 0)
(0 0 0)
(0 0 0)
(0 0 0)
(0 0 0)
(0 0 0)
(0 0 0)
(0 0 0)
(0 0 0)
(0 0 0)
(0 0 0)
(0 0 0)
(0 0 0)
(0 0 0)
(0 0 0)
(0 0 0)
(0 0 0)
(0 0 0)
(0 0 0)
(0 0 0)
(0 0 0)
(0 0 0)
(0 0 0)
(0 0 0)
(0 0 0)
(0 0 0)
(0 0 0)
(0 0 0)
(0 0 0)
(0 0 0)
(0 0 0)
(0 0 0)
(0 0 0)
(0 0 0)
(0 0 0)
(0 0 0)
(0 0 0)
(0 0 0)
(0 0 0)
(0 0 0)
(0 0 0)
(0 0 0)
(0 0 0)
(0 0 0)
(0 0 0)
(0 0 0)
(0 0 0)
(0 0 0)
(0 0 0)
(0 0 0)
(0 0 0)
(0 0 0)
(0 0 0)
(0 0 0)
(0 0 0)
(0 0 0)
(0 0 0)
(0 0 0)
(0 0 0)
(0 0 0)
(0 0 0)
(0 0 0)
(0 0 0)
(0 0 0)
(0 0 0)
(0 0 0)
(0 0 0)
(0 0 0)
(0 0 0)
(0 0 0)
(0 0 0)
(0 0 0)
(0 0 0)
(0 0 0)
(0 0 0)
(0 0 0)
(0 0 0)
(0 0 0)
(0 0 0)
(0 0 0)
(0 0 0)
(0 0 0)
(0 0 0)
(0 0 0)
(0 0 0)
(0 0 0)
(0 0 0)
(0 0 0)
(0 0 0)
(0 0 0)
(0 0 0)
(0 0 0)
(0 0 0)
(0 0 0)
(0 0 0)
(0 0 0)
(0 0 0)
(0 0 0)
(0 0 0)
(0 0 0)
(0 0 0)
(0 0 0)
(0 0 0)
(0 0 0)
(0 0 0)
(0 0 0)
(0 0 0)
(0 0 0)
(0 0 0)
(0 0 0)
(0 0 0)
(0 0 0)
(0 0 0)
(0 0 0)
(0 0 0)
(0 0 0)
(0 0 0)
(0 0 0)
(0 0 0)
(0 0 0)
(0 0 0)
(0 0 0)
(0 0 0)
(0 0 0)
(0 0 0)
(0 0 0)
(0 0 0)
(0 0 0)
(0 0 0)
(0 0 0)
(0 0 0)
(0 0 0)
(0 0 0)
(0 0 0)
(0 0 0)
(0 0 0)
(0 0 0)
(0 0 0)
(0 0 0)
(0 0 0)
(0 0 0)
(0 0 0)
(0 0 0)
(0 0 0)
(0 0 0)
(0 0 0)
(0 0 0)
(0 0 0)
(0 0 0)
(0 0 0)
(0 0 0)
(0 0 0)
(0 0 0)
(0 0 0)
(0 0 0)
(0 0 0)
(0 0 0)
(0 0 0)
(0 0 0)
(0 0 0)
(0 0 0)
(0 0 0)
(0 0 0)
(0 0 0)
(0 0 0)
(0 0 0)
(0 0 0)
(0 0 0)
(0 0 0)
(0 0 0)
(0 0 0)
(0 0 0)
(0 0 0)
(0 0 0)
(0 0 0)
(0 0 0)
(0 0 0)
(0 0 0)
(0 0 0)
(0 0 0)
(0 0 0)
(0 0 0)
(0 0 0)
(0 0 0)
(0 0 0)
(0 0 0)
(0 0 0)
(0 0 0)
(0 0 0)
(0 0 0)
(0 0 0)
(0 0 0)
(0 0 0)
(0 0 0)
(0 0 0)
(0 0 0)
(0 0 0)
(0 0 0)
(0 0 0)
(0 0 0)
(0 0 0)
(0 0 0)
(0 0 0)
(0 0 0)
(0 0 0)
(0 0 0)
(0 0 0)
(0 0 0)
(0 0 0)
(0 0 0)
(0 0 0)
(0 0 0)
(0 0 0)
(0 0 0)
(0 0 0)
(0 0 0)
(0 0 0)
(0 0 0)
(0 0 0)
(0 0 0)
(0 0 0)
(0 0 0)
(0 0 0)
(0 0 0)
(0 0 0)
(0 0 0)
(0 0 0)
(0 0 0)
(0 0 0)
(0 0 0)
(0 0 0)
(0 0 0)
(0 0 0)
(0 0 0)
(0 0 0)
(0 0 0)
(0 0 0)
(0 0 0)
(0 0 0)
(0 0 0)
(0 0 0)
(0 0 0)
(0 0 0)
(0 0 0)
(0 0 0)
(0 0 0)
(0 0 0)
(0 0 0)
(0 0 0)
(0 0 0)
(0 0 0)
(0 0 0)
(0 0 0)
(0 0 0)
(0 0 0)
(0 0 0)
(0 0 0)
(0 0 0)
(0 0 0)
(0 0 0)
(0 0 0)
(0 0 0)
(0 0 0)
(0 0 0)
(0 0 0)
(0 0 0)
(0 0 0)
(0 0 0)
(0 0 0)
(0 0 0)
(0 0 0)
(0 0 0)
(0 0 0)
(0 0 0)
(0 0 0)
(0 0 0)
(0 0 0)
(0 0 0)
(0 0 0)
(0 0 0)
(0 0 0)
(0 0 0)
(0 0 0)
(0 0 0)
(0 0 0)
(0 0 0)
(0 0 0)
(0 0 0)
(0 0 0)
(0 0 0)
(0 0 0)
(0 0 0)
(0 0 0)
(0 0 0)
(0 0 0)
(0 0 0)
(0 0 0)
(0 0 0)
(0 0 0)
(0 0 0)
(0 0 0)
(0 0 0)
(0 0 0)
(0 0 0)
(0 0 0)
(0 0 0)
(0 0 0)
(0 0 0)
(0 0 0)
(0 0 0)
(0 0 0)
(0 0 0)
(0 0 0)
(0 0 0)
(0 0 0)
(0 0 0)
(0 0 0)
(0 0 0)
(0 0 0)
(0 0 0)
(0 0 0)
(0 0 0)
(0 0 0)
(0 0 0)
(0 0 0)
(0 0 0)
(0 0 0)
(0 0 0)
(0 0 0)
(0 0 0)
(0 0 0)
(0 0 0)
(0 0 0)
(0 0 0)
(0 0 0)
(0 0 0)
(0 0 0)
(0 0 0)
(0 0 0)
(0 0 0)
(0 0 0)
(0 0 0)
(0 0 0)
(0 0 0)
(0 0 0)
(0 0 0)
(0 0 0)
(0 0 0)
(0 0 0)
(0 0 0)
(0 0 0)
(0 0 0)
(0 0 0)
(0 0 0)
(0 0 0)
(0 0 0)
(0 0 0)
(0 0 0)
(0 0 0)
(0 0 0)
(0 0 0)
(0 0 0)
(0 0 0)
(0 0 0)
(0 0 0)
(0 0 0)
(0 0 0)
(0 0 0)
(0 0 0)
(0 0 0)
(0 0 0)
(0 0 0)
(0 0 0)
(0 0 0)
(0 0 0)
(0 0 0)
(0 0 0)
(0 0 0)
(0 0 0)
(0 0 0)
(0 0 0)
(0 0 0)
(0 0 0)
(0 0 0)
(0 0 0)
(0 0 0)
(0 0 0)
(0 0 0)
(0 0 0)
(0 0 0)
(0 0 0)
(0 0 0)
(0 0 0)
(0 0 0)
(0 0 0)
(0 0 0)
(0 0 0)
(0 0 0)
(0 0 0)
(0 0 0)
(0 0 0)
(0 0 0)
(0 0 0)
(0 0 0)
(0 0 0)
(-0.001719115507 -0.01986235111 0)
(-0.002134685152 -0.0198510244 0)
(-0.002155810303 -0.02025096422 0)
(-0.0008685757416 -0.01948544811 0)
(-0.001696846278 -0.01946252861 0)
(0.01178719918 -0.01909284564 0)
(0.01009828245 -0.01903587373 0)
(0.0100155071 -0.02063435414 0)
(-0.002685176264 -0.03211798517 0)
(-0.003539069029 -0.03208612495 0)
(-0.003568999683 -0.03288870295 0)
(-0.002178228628 -0.02065048267 0)
(-0.0009475058865 -0.03137987213 0)
(-0.001740774778 -0.03137564587 0)
(-0.002541586779 -0.03138382415 0)
(0.0111559343 -0.03025751426 0)
(0.009466402498 -0.03019902693 0)
(0.007766777725 -0.03013904366 0)
(0.007668818688 -0.0317304653 0)
(0.007581792377 -0.03333087657 0)
(0.009929442305 -0.02223099549 0)
(0.005277349782 -0.01406434874 0)
(-0.003134102964 -0.04414994037 0)
(-0.004841849169 -0.0440862214 0)
(-0.004901712479 -0.0456906311 0)
(-0.003598909984 -0.03369053548 0)
(-0.001854765318 -0.01424329153 0)
(-0.001437962347 -0.01425578361 0)
(0.004941767624 -0.02046175978 0)
(0.005029100027 -0.01886434487 0)
(0.003346987398 -0.01881001478 0)
(0.003302468002 -0.0196089889 0)
(0.00325722465 -0.02040696589 0)
(0.004396710839 -0.01483794641 0)
(0.005236932087 -0.01486519224 0)
(-0.001018244542 -0.01426935455 0)
(-0.002162903374 -0.02662488711 0)
(-0.00297910661 -0.02660808925 0)
(-0.003038923817 -0.02739940334 0)
(-0.002223848321 -0.02741578601 0)
(-0.002101206635 -0.02583341928 0)
(-0.002919619349 -0.02581571811 0)
(-0.001338155746 -0.02664476485 0)
(-0.001276610026 -0.0258536645 0)
(0.004567058906 -0.02683801034 0)
(0.004664097568 -0.02524625586 0)
(0.00296663676 -0.02518687569 0)
(0.002860322611 -0.02677522453 0)
(0.003211392593 -0.02120492092 0)
(0.003165212961 -0.02200219137 0)
(0.004852031679 -0.02205759253 0)
(-0.00157755376 -0.01706216368 0)
(-0.002003170283 -0.01704680555 0)
(-0.002017519251 -0.0174495354 0)
(-0.00159565075 -0.01746348508 0)
(-0.004850764927 -0.02336817481 0)
(-0.004821380137 -0.0229718266 0)
(-0.005253962812 -0.02295396985 0)
(-0.001936367812 -0.02345079781 0)
(-0.00188420451 -0.02265531771 0)
(-0.002706144667 -0.02263621633 0)
(-0.002731788976 -0.02303449506 0)
(-0.002757034026 -0.02343189321 0)
(-0.001559842582 -0.01666090251 0)
(-0.001988537883 -0.0166444594 0)
(-0.001156889955 -0.01707562067 0)
(-0.001137547428 -0.01667501736 0)
(0.001759504882 -0.01716048229 0)
(0.001802139594 -0.01636002001 0)
(0.0009680488751 -0.01633486852 0)
(0.0009251794817 -0.01713562053 0)
(0.001048903839 -0.01473325689 0)
(0.001884077987 -0.01475897117 0)
(-0.005626375179 -0.02974267539 0)
(-0.005604992365 -0.02934378991 0)
(-0.002809772076 -0.02422727724 0)
(-0.001989062095 -0.02424610884 0)
(-0.004868015005 -0.02377049791 0)
(-0.005006560882 -0.02657109637 0)
(-0.004983057814 -0.02617318549 0)
(0.000341217501 -0.04267371354 0)
(-0.001366521253 -0.04260999484 0)
(-0.003074267458 -0.04254627587 0)
(0.01057468086 -0.04298574893 3.590738817e-13)
(0.007172194871 -0.04292858916 0)
(0.007051444763 -0.04612549673 3.595734821e-13)
(0.007471483617 -0.03490728585 0)
(0.007411648111 -0.03651095035 0)
(0.001582808467 -0.02035516167 0)
(0.001628286612 -0.01955749193 0)
(0.0007944148926 -0.01953287097 0)
(0.0007491100341 -0.02033069643 0)
(0.0008825231906 -0.01793526115 0)
(0.001716672524 -0.01796004171 0)
(-0.001176669368 -0.01747613307 0)
(0.004115861968 -0.03317543848 0)
(0.004242119952 -0.03160037052 0)
(0.002540936612 -0.03154435877 0)
(0.002408115762 -0.0331117195 0)
(0.002748637032 -0.02836113424 0)
(0.004469756532 -0.02842923261 0)
(-0.001401035482 -0.02743521844 0)
(-0.002954540845 -0.03933745646 0)
(-0.002894677555 -0.03773304676 0)
(-0.004602423733 -0.03766932779 0)
(-0.004662287043 -0.03927373749 0)
(-0.003037539431 -0.01547052023 0)
(-0.002741800964 -0.01542528865 0)
(-0.002849867467 -0.01491068272 0)
(-0.001499336498 -0.01545806568 0)
(-0.001481064355 -0.01505592995 0)
(-0.001909113746 -0.01504055568 0)
(-0.001924232102 -0.01544340606 0)
(-0.005031059734 -0.02696889547 0)
(-0.004830171531 -0.02975484661 0)
(-0.004763598847 -0.02896221748 0)
(-0.00556296802 -0.0289532862 0)
(-0.002423259707 -0.02978189433 0)
(-0.002356635275 -0.02899299831 0)
(-0.003165481394 -0.02898028075 0)
(-0.003224016149 -0.02977246355 0)
(-0.005683089702 -0.03013009378 0)
(-0.003266413029 -0.01700661176 0)
(-0.003284252036 -0.01740771891 0)
(-0.002866976323 -0.01741978089 0)
(-0.00286104326 -0.01701464758 0)
(-0.003333271962 -0.0186103127 0)
(-0.002912353243 -0.0186240777 0)
(-0.002891653832 -0.01822486823 0)
(-0.003306485242 -0.01821319595 0)
(-0.001654203576 -0.01866393221 0)
(-0.001634310324 -0.0182644688 0)
(-0.002051026451 -0.0182521292 0)
(-0.002071131539 -0.01865151009 0)
(-0.003698301379 -0.01820954626 0)
(-0.003745273834 -0.01859986534 0)
(-0.003572526629 -0.01704682957 0)
(-0.003687124611 -0.01737619525 0)
(-0.003417818658 -0.02021066723 0)
(-0.003406156783 -0.01980731476 0)
(-0.003833775105 -0.01979180732 0)
(-0.003842463531 -0.02019586773 0)
(-0.003805646499 -0.01898632639 0)
(-0.003370328951 -0.01900428518 0)
(-0.005216410814 -0.02168013051 0)
(-0.00472379935 -0.02178634252 0)
(-0.004701342788 -0.02138607926 0)
(-0.005098254337 -0.02135679285 0)
(-0.0034833161 -0.02181747854 0)
(-0.003463570276 -0.0214166664 0)
(-0.003879060786 -0.02140511877 0)
(-0.003897601168 -0.02180642363 0)
(-0.003855473436 -0.02059834904 0)
(-0.00343175917 -0.02061288996 0)
(-0.003579771168 -0.02341179199 0)
(-0.003554643458 -0.02301453872 0)
(-0.003971018084 -0.02300228649 0)
(-0.00399602 -0.02339976833 0)
(-0.003918871865 -0.02220710425 0)
(-0.003505335776 -0.02221783272 0)
(-0.005130261709 -0.02218682943 0)
(-0.004742566073 -0.02218771356 0)
(-0.003382438775 -0.01648984327 0)
(-0.001944520028 -0.01584434722 0)
(-0.001519195279 -0.01585954522 0)
(-0.003152142508 -0.01581242246 0)
(-0.002784408494 -0.01581838242 0)
(-0.002864005433 -0.01660619743 0)
(-0.005513604167 -0.02815807477 0)
(0.01348025565 -0.0191508675 0)
(0.02462680815 -0.01732028709 3.472638843e-13)
(0.02188779555 -0.01770477593 3.569367024e-13)
(0.02161097097 -0.02074909708 3.547578897e-13)
(-0.002092242644 -0.01905085345 0)
(-0.001676433879 -0.01906271144 0)
(-0.002938360575 -0.01902174589 0)
(-0.002993564067 -0.0202255268 0)
(-0.002977279854 -0.01982369002 0)
(0.006961258561 -0.01411993982 0)
(0.0120292728 -0.01429097735 0)
(0.01034088327 -0.01423387586 0)
(-0.002262635303 -0.01423374457 0)
(-0.002316194013 -0.01462374329 0)
(-0.001886949213 -0.01463975916 0)
(-0.001460508903 -0.01465499878 0)
(-0.001076808442 -0.01547233846 0)
(-0.001057399071 -0.01507054367 0)
(0.0001767670442 -0.01550918662 0)
(0.0001971109163 -0.01510854604 0)
(-0.0002195273091 -0.0150963586 0)
(-0.0002401599171 -0.01549713765 0)
(-0.0001808300188 -0.01429582403 0)
(0.0002367891988 -0.01430871969 0)
(-0.004260688137 -0.02018339723 0)
(-0.00423901759 -0.01978400012 0)
(-0.00454566762 -0.01982479491 0)
(-0.004662739104 -0.02015205347 0)
(-0.004347682229 -0.01926974499 0)
(-0.004978733934 -0.02102970029 0)
(-0.004675303381 -0.0209875914 0)
(-0.004778498048 -0.02047473434 0)
(-0.004280727234 -0.02099126945 0)
(-0.004277159652 -0.0205848539 0)
(-0.005538540795 -0.02855600679 0)
(-0.005186759573 -0.02257224108 0)
(-0.004920126385 -0.02497394645 0)
(-0.004902957053 -0.02457318743 0)
(-0.003679667269 -0.02500552931 0)
(-0.003654845202 -0.02460766765 0)
(-0.004065453331 -0.02459846627 0)
(-0.004089540433 -0.02499642998 0)
(-0.004019485471 -0.02379947158 0)
(-0.003605921465 -0.02381005184 0)
(-0.00262799701 -0.01422772389 0)
(-0.002742026188 -0.01458106493 0)
(-0.002344672781 -0.01543062901 0)
(-0.002338488755 -0.01502460957 0)
(-0.003298764571 -0.01780947255 0)
(-0.00379958411 -0.01769944698 0)
(-0.003992987315 -0.01825548872 0)
(-0.004110798082 -0.01859436096 0)
(-0.003394321733 -0.01940352101 0)
(-0.003832246695 -0.01938464408 0)
(-0.004232245283 -0.01894369405 0)
(-0.004312321232 -0.02179542711 0)
(-0.004292972254 -0.02139445092 0)
(-0.004777678096 -0.02258175861 0)
(-0.004361085584 -0.02259357123 0)
(-0.004332832717 -0.02219635993 0)
(-0.003270837928 -0.01616260446 0)
(-0.002841314966 -0.01620646526 0)
(-0.002403494877 -0.01622541291 0)
(-0.002369262867 -0.01582969331 0)
(-0.002433234167 -0.01703016214 0)
(-0.002424587528 -0.01662580168 0)
(0.01372044403 -0.01434952585 0)
(0.01880014564 -0.01452532762 0)
(0.01541183882 -0.0144080827 0)
(0.02667036295 -0.01656891054 3.308464613e-13)
(0.02734954545 -0.01244767358 2.483846462e-13)
(0.02810354958 -0.01407981456 2.804700916e-13)
(0.02744229762 -0.0162113888 2.745442762e-13)
(0.02592978422 -0.01079316646 2.160632784e-13)
(0.01646209472 -0.005377780706 1.098704461e-13)
(0.02020643828 -0.007126523353 1.444400155e-13)
(0.01897134096 -0.007887186593 1.356831314e-13)
(0.01247396148 -0.003789898995 7.810418978e-14)
(0.002196390506 -0.0005513298283 1.16157084e-14)
(0.005003643903 -0.001332116986 2.789435349e-14)
(0.004138996372 -0.001305851113 2.307876112e-14)
(-0.00110990466 -0.0234721574 0)
(-0.001058250384 -0.02267635982 0)
(0.001388188046 -0.02354342627 0)
(0.00143911759 -0.0227474524 0)
(0.0006040013909 -0.02272278501 0)
(0.0005539670858 -0.0235191654 0)
(0.0007023641644 -0.02112854274 0)
(0.001536141788 -0.02115308556 0)
(0.01455967338 -0.03038115561 0)
(0.02288755439 -0.02808559404 3.291117379e-13)
(0.0206743871 -0.02946070843 3.461814169e-13)
(0.02033293735 -0.03217916236 3.42378903e-13)
(0.02132438618 -0.0237416036 3.524125436e-13)
(0.02440327917 -0.02627993738 3.074346333e-13)
(0.0236165582 -0.01842791199 2.15827356e-13)
(0.02482803838 -0.02136678457 2.498418139e-13)
(0.02373510196 -0.02255703899 2.391836729e-13)
(0.02655029337 -0.01806497712 2.661759702e-13)
(0.02153372135 -0.01534411686 1.801891969e-13)
(0.01169078339 -0.006569673405 7.810418978e-14)
(0.01533666598 -0.009278121533 1.097871793e-13)
(0.01434086783 -0.009583588479 1.027095076e-13)
(0.01798009877 -0.008613256999 1.286609708e-13)
(0.008049988683 -0.004222514363 5.043188089e-14)
(0.0006237079059 -0.0002738874941 3.302913498e-15)
(0.002410710994 -0.00111817304 1.344757639e-14)
(0.001708827366 -0.000876975347 9.534040224e-15)
(0.003643778153 -0.001329996435 2.031708135e-14)
(-0.001246794632 -0.03940117544 0)
(-0.001186931322 -0.03779676574 0)
(0.003876436532 -0.03959233208 0)
(0.003936299842 -0.03798792238 0)
(0.002228553637 -0.03792420341 0)
(0.002168690327 -0.03952861311 0)
(0.002348252452 -0.0347161292 0)
(0.004055998658 -0.03477984818 0)
(0.01381022236 -0.04244855075 3.536199111e-13)
(0.0206846846 -0.03640985529 3.015643291e-13)
(0.01903244918 -0.03914073313 3.246292124e-13)
(0.01847250014 -0.04086247679 3.156919171e-13)
(0.01986943792 -0.03461296024 3.367167656e-13)
(0.02152489207 -0.03306387089 2.736838534e-13)
(0.01877920548 -0.02072291807 1.719735465e-13)
(0.02054861962 -0.02505606716 2.076117056e-13)
(0.0195352674 -0.02555548491 1.973421426e-13)
(0.02287150034 -0.02380973504 2.308986335e-13)
(0.0166374368 -0.01676535471 1.394023785e-13)
(0.007479862817 -0.005963379432 4.998779168e-14)
(0.01068213093 -0.009153968399 7.652212197e-14)
(0.00914399876 -0.008400495936 6.541989173e-14)
(0.01290387783 -0.009431910594 9.241218901e-14)
(0.004482665154 -0.003341748481 2.807476474e-14)
(0 0 0)
(0.0004755702527 -0.0003148072448 2.650657471e-15)
(0.0002220043832 -0.0001579957576 1.235123115e-15)
(0.001288731086 -0.0007252703181 7.188694084e-15)
(-0.003477908926 -0.05474571261 3.555350458e-13)
(-0.006892307755 -0.05483192814 3.569089468e-13)
(-0.006751145474 -0.05652366122 3.476802179e-13)
(-0.006609451233 -0.0456269124 0)
(-0.006729177853 -0.0488357318 0)
(-7.718274144e-05 -0.05443032508 3.526900993e-13)
(0.00947852552 -0.05104981714 3.286954042e-13)
(0.006483736772 -0.05268686107 3.39894779e-13)
(0.006209720844 -0.0531790198 3.244626789e-13)
(0.006903528718 -0.04899581549 3.571309914e-13)
(0.01213633465 -0.0488028789 3.136796378e-13)
(0.01690947132 -0.03835438725 2.457894999e-13)
(0.01595784377 -0.04241546668 2.719768855e-13)
(0.01482883321 -0.04146459233 2.516598041e-13)
(0.01777838769 -0.04204430056 3.040206975e-13)
(0.01712698778 -0.03383963485 2.168404345e-13)
(0.01345881293 -0.0190923082 1.226657664e-13)
(0.01533919563 -0.02403312431 1.541961003e-13)
(0.01362808114 -0.02248502109 1.366129432e-13)
(0.01831777179 -0.02556810146 1.848660114e-13)
(0.01109799202 -0.01437918647 9.25370891e-14)
(0.003313713971 -0.003412445092 2.20795604e-14)
(0.00577046444 -0.006374947915 4.117539643e-14)
(0.004543676058 -0.005298249037 3.237687896e-14)
(0.008115938649 -0.007962641327 5.803690861e-14)
(0.001367237362 -0.001319771022 8.54871729e-15)
(0 0 0)
(0 0 0)
(0 0 0)
(2.128054323e-05 -1.620128381e-05 1.110223025e-16)
(-0.002557925921 -0.05340501024 2.81427659e-13)
(-0.005333864156 -0.0540623448 2.853273173e-13)
(-0.004630203469 -0.05070689346 2.554900735e-13)
(-0.006429716103 -0.05699476005 3.322619957e-13)
(0.0001624541501 -0.05221930479 2.747801986e-13)
(0.007158235333 -0.04536605131 2.378236497e-13)
(0.005106300464 -0.0482040586 2.529781939e-13)
(0.004634090958 -0.0444274854 2.227940055e-13)
(0.005890888468 -0.05261872737 3.045202979e-13)
(0.008818217848 -0.0419973467 2.199768145e-13)
(0.01080532625 -0.02932628947 1.534605776e-13)
(0.01068526331 -0.03388715743 1.773303726e-13)
(0.009128466515 -0.02997491896 1.499911306e-13)
(0.01356215811 -0.03971024081 2.288030876e-13)
(0.01037466356 -0.02459444289 1.287303597e-13)
(0.006388780616 -0.01096708903 5.753730825e-14)
(0.008063685458 -0.01524347321 7.989442441e-14)
(0.006237172839 -0.0122766996 6.152023335e-14)
(0.01181416397 -0.02045584391 1.180028297e-13)
(0.004570871247 -0.007188436195 3.774758284e-14)
(0.0002990656397 -0.0003773417363 1.984523657e-15)
(0.001304497871 -0.001760260246 9.270362256e-15)
(0.0005750852676 -0.0008113639106 4.080069615e-15)
(0.003350686706 -0.004111930644 2.384203945e-14)
(0 0 0)
(0 0 0)
(0 0 0)
(0 0 0)
(0 0 0)
(-0.0009171432197 -0.03395172396 1.50490731e-13)
(-0.002419196609 -0.03472429396 1.540156891e-13)
(-0.001779462827 -0.02822276377 1.203759314e-13)
(-0.003880896454 -0.04623333511 2.228495166e-13)
(0.0005193051247 -0.03264189245 1.445926712e-13)
(0.003774918299 -0.02582960456 1.14255827e-13)
(0.002924665338 -0.02853152027 1.262462357e-13)
(0.002300039877 -0.02248919865 9.575673587e-14)
(0.004108234602 -0.03975820904 1.908889713e-13)
(0.004329862524 -0.02279076699 1.007804951e-13)
(0.004083805944 -0.01267313957 5.605238496e-14)
(0.004475415773 -0.01609382598 7.116529588e-14)
(0.003104949759 -0.01148177709 4.887756866e-14)
(0.007542589582 -0.02557583803 1.225963775e-13)
(0.003438591208 -0.009385401774 4.152234112e-14)
(0.0008892905367 -0.001786759239 7.91033905e-15)
(0.001724184296 -0.003795930205 1.680600104e-14)
(0.0007627814565 -0.001740178949 7.410738689e-15)
(0.00452723616 -0.009261605839 4.446443214e-14)
(0.0002610962887 -0.0004828332964 2.137179322e-15)
(0 0 0)
(0 0 0)
(0 0 0)
(0.0001234028607 -0.0001817611427 8.743006319e-16)
(0 0 0)
(0 0 0)
(0 0 0)
(0 0 0)
(0 0 0)
(-9.51064059e-05 -0.009280510649 3.5513259e-14)
(-0.0004557888168 -0.009729275991 3.72202269e-14)
(-0.0002192664287 -0.005097790587 1.885991363e-14)
(-0.001233390091 -0.02165266409 8.895661985e-14)
(0.0002263243447 -0.008545014972 3.268219029e-14)
(0.0006988287642 -0.005090175034 1.947053629e-14)
(0.0006405284071 -0.006387238006 2.442490654e-14)
(0.0002752503304 -0.002787228315 1.029731855e-14)
(0.001688431261 -0.01656566448 6.797340468e-14)
(0.0006545217687 -0.003754659609 1.436351038e-14)
(0.0001464734438 -0.0005137933202 1.970645869e-15)
(0.0003374195261 -0.001359062809 5.19029264e-15)
(2.551964461e-05 -0.0001060160629 3.885780586e-16)
(0.001921905975 -0.00730739033 2.998989945e-14)
(1.694876886e-05 -5.268602645e-05 2.081668171e-16)
(0 0 0)
(0 0 0)
(0 0 0)
(0.0001736559882 -0.000410419592 1.693090113e-15)
(0 0 0)
(0 0 0)
(0 0 0)
(0 0 0)
(0 0 0)
(0 0 0)
(0 0 0)
(0 0 0)
(0 0 0)
(0 0 0)
(0 0 0)
(0 0 0)
(0 0 0)
(-7.240944083e-05 -0.001806559856 6.467049118e-15)
(0 0 0)
(0 0 0)
(0 0 0)
(0 0 0)
(5.642562039e-05 -0.0005838641658 2.095545959e-15)
(0 0 0)
(0 0 0)
(0 0 0)
(0 0 0)
(0 0 0)
(0 0 0)
(0 0 0)
(0 0 0)
(0 0 0)
(0 0 0)
(0 0 0)
(0 0 0)
(0 0 0)
(0 0 0)
(0 0 0)
(0 0 0)
(0 0 0)
(0 0 0)
(0 0 0)
(0 0 0)
(0 0 0)
(0 0 0)
(0 0 0)
(0 0 0)
(0 0 0)
(0 0 0)
(0 0 0)
(0 0 0)
(0 0 0)
(0 0 0)
(0 0 0)
(0 0 0)
(0 0 0)
(0 0 0)
(0 0 0)
(0 0 0)
(0 0 0)
(0 0 0)
(0 0 0)
(0 0 0)
(0 0 0)
(0 0 0)
(0 0 0)
(0 0 0)
(0 0 0)
(0 0 0)
(0 0 0)
(0 0 0)
(0 0 0)
(0 0 0)
(0 0 0)
(0 0 0)
(0 0 0)
(0 0 0)
(0 0 0)
(0 0 0)
(0 0 0)
(0 0 0)
(0 0 0)
(0 0 0)
(0 0 0)
(0 0 0)
(0 0 0)
(0 0 0)
(0 0 0)
(0 0 0)
(0 0 0)
(0 0 0)
(0 0 0)
(0 0 0)
(0 0 0)
(0 0 0)
(0 0 0)
(0 0 0)
(0 0 0)
(0 0 0)
(0 0 0)
(0 0 0)
(0 0 0)
(0 0 0)
(0 0 0)
(0 0 0)
(0 0 0)
(0 0 0)
(0 0 0)
(0 0 0)
(0 0 0)
(0 0 0)
(0 0 0)
(0 0 0)
(0 0 0)
(0 0 0)
(0 0 0)
(0 0 0)
(0 0 0)
(0 0 0)
(0 0 0)
(0 0 0)
(0 0 0)
(0 0 0)
(0 0 0)
(0 0 0)
(0 0 0)
(0 0 0)
(0 0 0)
(0 0 0)
(0 0 0)
(0 0 0)
(0 0 0)
(0 0 0)
(0 0 0)
(0 0 0)
(0 0 0)
(0 0 0)
(0 0 0)
(0 0 0)