/*--------------------------------*- C++ -*----------------------------------*\
| =========                 |                                                 |
| \\      /  F ield         | OpenFOAM: The Open Source CFD Toolbox           |
|  \\    /   O peration     | Version:  v2012                                 |
|   \\  /    A nd           | Website:  www.openfoam.com                      |
|    \\/     M anipulation  |                                                 |
\*---------------------------------------------------------------------------*/
FoamFile
{
    version     2.0;
    format      ascii;
    class       volScalarField;
    location    "3";
    object      k;
}
// * * * * * * * * * * * * * * * * * * * * * * * * * * * * * * * * * * * * * //

dimensions      [0 2 -2 0 0 0 0];


internalField   nonuniform List<scalar> 
3019
(
36.90870067
36.90874842
36.90881238
36.9088789
36.95439636
36.95484541
36.95566289
36.95758043
36.9614529
36.96834063
36.97868085
36.98998944
36.72744466
36.72764152
36.72785558
36.7283176
36.77387324
36.77623902
36.78128837
36.81123098
36.82952402
36.86195864
36.91085694
36.97006398
36.54737572
36.54786055
36.54845259
36.54944382
36.59603745
36.60221886
36.61465767
36.65694104
36.7022442
36.7804406
36.89346288
36.99959353
36.36864997
36.36915677
36.37014345
36.37271919
36.42095124
36.43413797
36.46102949
36.52812566
36.62406225
36.78422517
36.96323891
37.11925573
36.19189709
36.19264204
36.19454658
36.19943721
36.25146805
36.2754685
36.32795222
36.43399466
36.62163816
36.87004717
37.1492009
37.39929837
36.0167771
36.01782605
36.02108769
36.03002252
36.0888256
36.13008372
36.22199837
36.39251796
36.67486988
37.04781268
37.51086493
38.00769187
35.84430695
35.84620008
35.85203857
35.86636175
35.93441175
35.99933687
36.14670207
36.39767451
36.78319409
37.33530117
38.1341338
39.39073573
35.67521603
35.67818277
35.68720096
35.70921826
35.79146984
35.88616003
36.10270235
36.42567081
36.93146415
37.70134791
38.99790314
41.80090087
35.5117568
35.5166327
35.53069622
35.56451642
35.65942687
35.79222741
36.08283806
36.47392355
37.10373586
38.08187559
39.79987846
43.93427158
35.35506011
35.36198573
35.38149781
35.42812802
35.53912579
35.71659358
36.08043594
36.53643182
37.27945886
38.42347039
40.39183283
44.93857612
35.20749961
35.21745129
35.24439321
35.30729151
35.43282462
35.65711042
36.08774783
36.60905284
37.45337262
38.72979342
40.87743565
45.17684294
35.06892464
35.08161449
35.11541211
35.194125
35.33909787
35.61028968
36.10415002
36.6879017
37.62322098
39.01684238
41.33835348
44.82411455
43.76286545
44.8499877
45.19252667
44.88538536
41.43166936
40.25836006
43.87284581
42.99864286
40.76277757
44.48468712
43.97570577
45.13746936
47.02014237
47.97457117
41.23579155
44.55982341
44.51705361
45.07886455
43.42303667
45.3966626
44.55104616
44.59876389
38.64842975
41.09275921
48.1196556
50.00098898
43.9371719
47.69809094
48.09125106
48.78077096
44.48898391
49.45782695
48.17688313
50.12511445
49.60233663
45.5854982
46.85777149
45.17465709
46.51445041
44.69662044
48.09383252
46.62671669
41.228071
43.30002272
45.03653386
42.34037092
39.80977636
44.5742901
42.47959959
38.47087612
44.56641088
36.51383885
39.6640406
36.72592235
39.62183035
42.83609739
41.11384158
42.8186526
46.66351227
43.51119551
44.37726332
48.85475837
48.75439577
48.58864342
46.98878268
43.09781588
55.77164556
46.06750257
53.6726849
41.35249891
43.45534599
39.97858458
44.13696536
43.78152785
60.10941491
56.24239581
49.07190949
56.57294088
57.57144387
52.15917291
56.23475146
49.32779329
45.67097807
51.27932384
45.42960119
56.77839952
52.06200455
46.26178946
54.39472995
59.93112397
48.85578637
44.8383939
48.77446766
50.06235509
48.28744382
51.60112369
45.23935272
47.85316336
49.96815721
45.68883377
45.57152875
47.45853387
47.36597787
41.34275041
41.16988365
43.59043183
43.44838015
43.65779084
38.64224563
38.49738403
43.05734076
45.61761282
44.30492981
45.68892038
45.43384679
46.00403971
45.77047957
44.44872964
44.57487813
44.24879998
40.12043112
46.15772953
46.27576408
46.07674501
40.9925378
41.51192704
45.07893531
42.27888933
44.97582445
44.67834862
45.34552515
45.07105671
42.41786857
41.92312955
36.42023197
36.76755776
33.71026998
33.9576403
40.30744347
44.16427462
40.1598792
40.84821759
36.90651173
37.29863805
42.89516593
39.22971428
33.37629031
33.63187029
32.8337348
37.71497954
53.73045446
53.62418671
49.02924027
49.96386281
58.69353122
58.12108162
57.67904794
52.18730711
52.78250269
51.12863715
51.94956453
57.98776485
54.64663756
53.04686823
52.87353503
52.91849148
53.0606856
54.93354472
55.10056741
49.86173427
50.85213466
58.24842884
58.71472514
43.40592446
48.95589522
48.06234268
49.79474513
49.19723087
44.00373024
46.82246576
46.20715073
47.75120142
47.03416782
49.61429359
52.08363804
51.53530172
52.74189042
52.25886639
50.08838121
46.28668977
50.58352992
49.9961149
51.34773785
50.7766896
46.66789458
40.48783238
39.98161771
41.36661239
40.66536512
39.17558376
38.68158945
39.82155873
39.32275017
45.22284758
44.64191646
46.00847811
45.42194451
43.48312247
41.82363091
44.43012268
43.84763667
35.95195013
36.28309486
41.78274059
34.12738267
33.90817216
34.44188498
34.22009414
33.79529819
40.52001085
34.05827408
35.63183379
38.17362074
39.88194571
44.02579618
37.76913105
35.4231
38.58194899
37.82589568
34.82432066
34.54431981
35.26084406
34.93254
43.03296453
37.43935978
37.91356142
33.07190476
33.30363748
39.08516484
37.9668689
32.84722164
33.01592414
47.46357574
46.63298796
46.53234502
46.70473991
46.6575128
47.59871107
46.48903273
46.33472235
46.33926875
46.16235709
43.08030595
43.73071151
44.04726377
45.01907334
46.96252965
55.01344932
59.7978761
60.58315426
56.91019468
56.96323915
55.79935936
55.6399013
52.74479184
53.78716942
53.39631627
55.4592445
55.23640964
55.78924654
48.34731508
49.53881206
54.55808869
55.94167794
61.60069857
57.83024914
61.73934998
62.09804876
59.28654082
41.71369544
43.97199479
43.43293982
47.733338
47.49202176
44.59358814
41.26929287
41.02137715
42.98357875
42.6244233
48.72372473
50.9753954
50.63789965
53.03322521
52.68538766
51.07692108
45.54411432
48.35986977
48.07507157
50.29816893
49.96692744
47.44885865
42.37226771
42.89880328
46.04830614
45.19954343
41.67864148
42.20045758
45.97867431
46.49345483
47.73915424
39.57949764
39.42729343
40.80500172
40.60926329
37.20236314
39.19930229
39.07292605
47.06333917
45.25908949
45.80003961
36.51454368
38.86157283
38.72905348
33.804885
35.44304111
35.34111026
35.77042157
35.56528969
33.88727243
32.89956429
32.84911195
33.46710384
35.08395391
34.98888788
35.25628349
35.16818856
33.54408757
33.03107148
32.95618062
33.84110169
33.19402044
32.90217657
54.63926253
51.79080561
51.07165345
54.26887852
61.12814855
62.65163523
55.21292741
59.93160609
63.71681362
59.2980487
57.46020101
54.58494029
54.19682024
53.30699481
55.470165
55.04791662
54.7784402
62.82717188
62.51378705
57.31067466
63.17230096
65.30895681
59.14318523
62.61350661
62.79876575
46.3213846
46.15855265
43.36037925
44.16448809
47.10348206
46.93290297
41.77489135
41.51176143
42.32345199
42.03962732
51.65415433
51.31195173
49.15144511
50.57762998
52.34205619
51.99791905
48.9951692
48.69167777
45.9483234
47.03481204
49.63427128
49.31777163
40.31328018
37.3888305
37.5471028
37.1030409
37.25013678
40.14864095
41.07592747
38.06803781
38.30236782
37.70245078
37.87831774
40.85808415
38.9984504
36.26581971
36.41791379
36.01773583
36.16690336
38.86982108
39.65345584
36.81893756
36.96828596
36.5332595
36.68931514
39.49659342
39.97658322
39.80228154
45.03091485
42.9075014
43.10178092
42.50604443
42.68312357
44.82813442
40.38672054
40.19598227
38.39017707
38.27886798
43.20554897
41.12957336
41.19896963
38.6478373
39.13175032
42.48439307
44.25556155
42.11849357
42.26488817
41.72454854
41.82990043
44.01392733
38.82697618
38.72917199
36.02405526
38.26946277
38.13488252
38.57456012
38.45105864
36.20498834
34.06995112
33.96260025
34.37130973
34.27488805
33.75921497
33.71917061
34.26301453
36.87201525
36.17356693
37.84438197
37.57018129
35.34014851
36.11373819
34.7318532
35.35796612
35.68088781
38.35255699
35.77231425
35.93603711
35.49215572
35.6977047
38.27494117
34.73330225
34.62703008
35.14448157
35.03059554
33.15213509
34.71600432
34.60965446
34.90177383
34.80085216
33.21684699
32.90579814
34.31788448
34.13676464
34.52848225
34.4102728
32.95102176
36.69361629
36.71934164
36.82356643
36.73037042
36.77624963
36.85183614
36.79435114
36.86432989
36.89661115
36.88970704
36.9645032
36.95368943
36.98519872
36.55742327
36.61249797
36.68848256
36.6372408
36.73747625
36.75794295
36.77592362
36.89696016
36.86545972
36.93673946
37.04750346
36.97650638
37.07838748
36.4541114
36.56673719
36.59412292
36.61712534
36.78060362
36.74113098
36.84015742
37.02689266
36.91896676
37.08893576
37.26116288
37.0853281
37.30832791
36.39756569
36.58453014
36.56663431
36.65563502
36.90101833
36.80365486
36.99308521
37.29524536
37.07910371
37.40009067
37.71883375
37.34318356
37.81156413
36.39328689
36.65018901
36.59688622
36.75201844
37.11343663
36.94562425
37.25395824
37.75337996
37.38821209
37.94910308
38.66013359
37.88200557
38.92508078
36.4173758
36.75596653
36.67335289
36.89328321
37.39896785
37.17811477
37.60711001
38.4126967
37.90237397
38.77281159
40.80306764
38.99753346
40.08168817
40.69136793
39.68402864
36.46011077
36.88570261
36.7849701
37.05994962
37.71385653
37.47521881
37.98974185
39.1025504
38.59336237
39.21908357
39.77017999
39.49810905
42.16183336
42.82130796
42.36098301
36.51977328
37.02808835
36.92085338
37.23552882
38.01376825
37.79108953
38.34189969
39.65546539
39.25429745
39.96419949
40.67283103
40.47991921
44.09472512
45.21221753
45.03050634
36.59030898
37.17385869
37.06441693
37.41010791
38.28880655
38.08473633
38.65559572
40.10329197
39.77408363
40.52001175
41.30759654
41.16246813
45.01636699
46.22645362
46.21675255
36.66774143
37.31929975
37.21050183
37.58092148
38.5461988
38.35456211
38.94603043
40.51459757
40.2061806
40.99846247
41.85546711
41.71508245
45.15048281
45.6787038
45.83891612
37.35564744
38.60900364
40.61566296
41.47463361
42.59656161
42.21470632
44.75890233
44.56916305
44.80797125
44.8342021
44.60187647
43.56605941
46.20320717
46.12060894
44.74862858
45.88731735
46.01848821
45.19853183
44.88383414
45.10098795
44.94019933
43.10328559
41.14079428
40.37830617
39.85586994
40.95262726
41.01089895
40.84850491
40.1160938
43.53249865
41.53917942
41.80367942
41.12655306
41.44513234
43.41401442
41.58423799
41.44592418
40.64161644
44.3192407
42.20148183
42.42669704
41.88603253
42.12429864
44.24471239
46.17320696
46.22126628
45.08302344
47.17524344
47.13529091
47.03133261
47.6270571
47.55843652
47.85101929
42.13179612
41.97521114
41.10800685
44.56883867
42.78027936
42.97335927
42.50055361
42.71199308
44.5647631
45.43363198
45.62052623
45.11724804
43.79324993
44.98965045
44.82787988
45.90020282
45.75090885
45.1754575
43.03156938
43.17467547
44.50573147
44.22792028
44.48645535
44.69772734
39.30739886
42.05433148
41.99700528
43.23222224
43.03663539
40.68278849
48.47717922
50.61616125
49.76168671
52.07060548
52.09041489
49.79406206
44.44270218
44.97083903
44.36456022
49.16759252
48.5705017
47.27612954
48.42019495
46.70258712
46.71064115
46.65050552
46.69242243
48.51930902
44.63292453
46.06317561
45.61565189
49.30912546
49.48697308
49.95252665
47.33772374
47.84942725
48.43588633
50.15001868
51.7315063
52.00731961
50.10460999
50.5543591
49.73646804
45.78235757
46.17803846
46.03890476
46.92272856
46.80936705
46.68971169
45.19567866
46.05629208
46.14910271
46.39532818
45.88188919
46.02885775
43.8718064
44.02046434
44.82805998
47.83248699
46.66448756
47.16948551
46.17905412
46.33008332
46.74400586
41.65366362
43.60774624
43.42041636
44.66340239
44.4968584
42.92842345
44.99042436
45.16974508
45.36953207
42.20144503
40.84958698
40.99707783
37.85437509
38.00649513
39.96130593
44.44115896
43.57203512
43.72584199
41.14728705
41.29580571
42.61840871
41.91882434
44.13801479
36.35111272
34.00730472
34.11416667
39.51939253
37.57976791
37.7157563
34.2899717
34.62609232
37.01758308
40.26634026
40.02974402
39.42835377
42.2301548
40.60291725
41.0098845
39.95723809
40.45580126
41.98485774
43.669557
43.26452785
42.50562353
45.46548632
43.92263844
44.6455543
42.91777149
43.66250861
44.97339942
45.53560197
45.36068981
44.23258325
49.00438122
46.36908729
46.60377971
45.99510358
46.28517939
49.01301754
48.02094815
45.51523122
45.89314559
44.84387483
45.37565925
47.80048301
43.34668257
44.3364694
44.02565987
46.99518161
47.88574123
46.60083036
57.48537836
55.37034224
52.27865384
41.61404478
42.59414956
42.05534626
42.37877517
41.49650091
44.62861252
42.8270399
42.35069645
42.44618279
42.18987892
39.50320561
44.01867941
43.34059074
43.50949099
43.01898194
43.19623605
43.90297137
51.45830224
50.84549672
48.79089466
54.71736066
55.3051713
58.16491925
49.5653639
52.03007548
51.62961116
46.56102773
45.75184087
45.03749067
48.50076756
46.81904164
47.96276564
44.9880305
45.62774658
47.60681706
56.10254049
53.59782723
54.12357339
50.41779152
51.04189667
52.93520452
46.79043075
48.00134128
47.28894184
48.76440979
49.32027324
49.13605873
48.51625252
48.02263723
48.56763567
51.25357676
51.62123541
50.12648879
49.85934353
50.69984667
51.1211301
45.03250981
45.17453961
45.81173202
45.44646707
44.74658612
44.89050015
47.23690981
47.35502711
47.55626773
47.26472861
46.99621227
47.11768604
39.93002065
40.09324961
41.49508228
40.97325495
39.44891061
39.70937486
42.39127217
42.59853303
43.73247861
43.30868869
42.04611072
42.20936309
42.85348947
36.77419814
36.91663712
38.79280116
38.3375344
36.49337847
36.65288213
43.59986926
44.09003742
45.30348313
45.14843941
43.91699937
45.60563303
45.50270339
45.61692502
45.26761961
45.38618717
45.52053033
45.92830351
45.94510164
46.04977614
45.72887866
45.83872276
45.85022271
45.00456648
45.60759206
45.45504621
44.4688069
43.95433324
44.09869115
43.65560418
43.80948862
44.36082581
40.54470896
42.84343261
42.63155506
46.44294938
46.31194931
45.97078661
46.21298392
46.34394814
46.43681006
46.15021722
46.2486854
46.14658184
41.17628529
42.84882606
42.6810899
43.17469666
43.00892276
41.33402959
44.9501719
44.16539547
44.31234628
43.97763769
43.79372503
41.81028497
44.87875627
44.5111285
44.64390188
44.23835905
44.37604854
44.77959441
45.25567458
45.02478897
45.14709592
44.77364211
44.90037698
45.16425386
42.80422055
44.32777696
44.15534099
40.55425098
40.69917017
42.06191149
39.15583649
39.01391695
36.65497964
40.12372897
38.18102477
38.40759597
43.23951537
43.41693846
44.31130903
40.49290136
42.17218997
41.93989914
42.52293524
42.34340195
40.63616082
37.0296673
39.45511522
39.30801025
39.75786847
39.60765718
37.16873065
42.75707546
41.44532656
41.5937294
37.31176823
37.44768314
39.37559674
37.38155975
35.23493619
35.86620893
50.94286274
48.87966033
47.65855645
47.53056349
49.44313661
51.3910929
54.16180402
51.93028492
55.91358238
55.88617373
57.31057373
52.41155445
54.09381397
53.92142822
54.25036118
54.20731778
52.60850246
51.4150621
53.02167864
52.59762061
53.68888557
53.3891631
51.68705139
58.17456931
55.67783559
55.87713472
53.0234597
53.86131346
53.96641974
53.4356428
53.66797345
52.96922326
53.00792601
54.19816748
54.24112741
54.03282053
54.12507095
53.05504173
52.67383656
53.15093599
55.6493321
50.21488281
51.37351823
50.94219363
52.17532161
51.76160434
50.50922569
48.72108462
47.78575608
48.07146794
46.42147132
47.07879567
48.40710155
49.60121374
48.95168655
49.18124874
48.45337518
48.66605149
49.39165372
46.61448654
44.61467003
44.84856338
44.16085844
44.38642695
46.40940261
47.48692336
45.60398121
45.94081389
45.08588216
45.33367187
47.25308345
51.90417439
51.97483275
52.22434094
51.47085752
51.72383385
51.72088661
52.5908457
52.95835239
53.19795518
52.47191293
52.71669816
52.42870962
50.38968495
49.94838635
50.19789298
49.44511283
49.68964397
50.19186774
51.15850203
50.96007768
51.215164
50.45228538
50.70430077
50.96790799
45.81354495
43.73836077
43.9444218
43.31949752
43.52289843
45.61631963
41.64220763
40.25772932
40.40264489
38.71805311
39.10080698
40.75159732
38.59785334
40.95788672
40.65253195
41.67660488
41.326051
39.21294409
43.86252824
42.82371159
43.04537758
41.7426348
41.89229209
43.17056344
37.5784033
40.06791574
39.91196096
40.42036511
40.23404411
37.7336755
38.93718601
37.04315588
37.18128906
36.11401821
36.36302098
38.17716008
47.3236516
47.23273139
47.32273143
46.6043303
46.96047034
47.01352854
46.83854836
46.90224811
46.57065393
46.69430446
47.14400161
47.17854864
47.0618507
47.10529409
46.67800511
47.72896219
47.48621087
47.40804214
46.44151484
46.69303532
46.76860689
46.52670781
46.61217929
46.38993006
46.51683819
46.69152298
46.56922596
45.59686423
45.73864075
46.28211667
43.27134963
44.81238542
44.64367001
45.18016638
44.98910599
43.48090511
44.41844962
45.61093737
45.39044467
46.00693178
45.82026825
44.76438605
46.85148035
46.47567385
46.61448117
48.77655082
49.51779257
48.95165753
50.51581266
50.01091948
49.14058924
53.79306736
51.62475584
52.19557291
42.54643801
44.15335763
43.99099106
44.4788056
44.31554758
42.72063934
45.92729472
45.31526784
45.45630911
44.45705249
44.60289545
45.3270283
41.85521109
43.50225376
43.33718759
43.82878739
43.6652182
42.02603572
46.1493007
46.92748682
46.78308389
47.21307212
47.07130314
46.32330293
47.64544449
47.4710612
47.58633139
46.7461801
46.87275465
47.16857697
45.43832729
46.33464265
46.1796935
46.63562326
46.48835674
45.62968961
36.86516932
36.86624626
36.95516972
36.86801513
36.87102221
36.95628066
36.87396847
36.87897107
36.95921679
36.88598531
36.89538306
36.96445709
36.90746126
36.92228395
36.97312039
36.93945148
36.95835157
36.98454655
36.97816094
36.99421936
36.99521184
36.68554603
36.68650251
36.77482936
36.68859443
36.69193103
36.77832395
36.6965617
36.68833731
36.80826092
36.7707702
36.77546657
36.81460275
36.79415013
36.80302283
36.83577194
36.83545508
36.8498877
36.8721643
36.89721228
36.91612416
36.92442065
36.97115789
36.98534669
36.98079266
36.50957066
36.51226101
36.59857471
36.51744599
36.52528817
36.60746361
36.53554281
36.54494137
36.64983719
36.62205049
36.63270008
36.66587712
36.67701532
36.69689405
36.71880944
36.7725593
36.80559479
36.80667688
36.90240139
36.93476342
36.92291227
37.01947738
37.04272627
37.0208059
36.3373038
36.3430924
36.42621995
36.35326876
36.36886834
36.44555347
36.39146824
36.4279622
36.51251819
36.50145209
36.52331648
36.54661568
36.61607437
36.65889044
36.65904434
36.79758649
36.84711325
36.82879368
36.99693097
37.04507056
37.00648994
37.16997635
37.20168444
37.14844353
36.17179935
36.18263152
36.26123341
36.20107276
36.22888532
36.29649636
36.27151102
36.35032752
36.40320829
36.41819535
36.46114503
36.47088008
36.62878049
36.69279941
36.67961144
36.90595735
36.98244787
36.9386798
37.22047952
37.29918636
37.21761689
37.51229602
37.5665157
37.44951533
36.01356374
36.03184711
36.10543654
36.06288236
36.1096683
36.16647639
36.18027422
36.32005816
36.33805835
36.39051082
36.45975108
36.45598988
36.69745186
36.79008646
36.75909665
37.11003385
37.23144415
37.15637804
37.63894338
37.78797412
37.6356011
38.2530179
38.39052763
38.12557043
35.86385335
35.89251434
35.96014287
35.94043111
36.01322261
36.05830486
36.12115873
36.32344327
36.31829539
36.40324707
36.49266993
36.48165734
36.818077
36.94838885
36.90316978
37.42111792
37.61298545
37.5068609
38.33477988
38.64357445
38.38779178
35.72420154
35.76805579
35.82806186
35.83711585
35.94115871
35.97410248
36.09060001
36.34633678
36.32759786
36.43626116
36.55043231
36.53320929
36.9745151
37.1476268
37.09374459
37.79956224
38.07709867
37.95778186
35.59682131
35.65928014
35.71100939
35.7528128
35.89046122
35.91318268
36.07985229
36.38331169
36.35431659
36.48848921
36.62829159
36.60743637
37.14760281
37.36047708
37.30719021
38.17116519
38.51948498
38.41473687
35.4836292
35.56641105
35.60932888
35.68626867
35.85734298
35.87163865
36.08290547
36.43210523
36.39444531
36.55394062
36.71796797
36.694618
37.32325661
37.57007546
37.5183805
38.50281006
38.8996958
38.80973186
35.38508852
35.4886608
35.52261842
35.63518525
35.83765188
35.84516002
36.09654446
36.48920099
36.44561187
36.62834607
36.81478288
36.79025648
37.49591787
37.77145426
37.72209674
38.80260205
39.23683381
39.15502752
35.44844546
35.83017698
36.50446744
36.70761334
36.9145262
36.89019536
37.66448079
37.96584385
37.91825683
39.08723195
39.55750293
39.47764117
41.82837301
41.38678152
41.06079923
40.12371231
40.38440643
43.76328888
42.95808222
43.06030166
42.24350002
42.38250231
43.1489261
44.44108931
43.67175932
43.74229328
43.15769233
43.25321299
44.0723618
44.56547732
44.06426746
44.09262732
43.80527835
43.86295744
44.54029637
43.54660231
44.1939846
44.08602114
44.11677328
44.13823348
44.53845658
38.85550057
40.28531469
40.14253247
42.1363422
42.01385848
40.95716854
48.20456311
47.75563539
47.69217204
48.0630135
48.02514309
48.6991389
48.138534
48.24687764
48.26550294
48.00600496
47.92114493
48.03034042
41.36522018
42.37509015
42.25351725
43.98286561
43.87370488
43.1761269
39.99939736
39.85823618
38.31460275
44.53934958
42.65390884
41.93410738
42.09609977
40.70089798
40.92610159
41.42178082
46.30650129
45.53882887
45.84359996
43.27419112
43.65931234
43.95764152
48.91931069
48.10318931
48.09168817
47.64274389
47.77896969
48.89245996
48.40915921
47.35120862
47.50364166
46.11911684
46.37603781
47.28658612
43.76122508
43.29710462
43.04750596
41.14180149
41.00839649
39.82987405
50.34647613
49.14603178
49.80829851
45.27758214
45.770602
46.07966018
48.98779359
49.07892465
48.94983828
48.6853352
48.78056206
48.8858001
45.99459187
45.12456322
44.92073566
44.80562426
44.70601224
44.17080533
44.60998536
44.96573728
44.89555975
40.26417023
41.39745316
41.26426768
43.1086354
42.98643827
42.12947044
42.55007776
43.33610894
43.22087691
36.70091827
36.73748198
36.73141087
36.75233605
36.74389835
36.70903104
36.81893999
36.7805839
36.78717038
36.74413507
36.77234803
36.76103953
36.79840316
36.78376025
36.75854537
36.84368947
36.81222285
36.82377383
36.8162484
36.83096741
36.81279273
36.8696362
36.84830714
36.83786673
36.88452645
36.86400233
36.88113238
36.91653364
36.91439901
36.88951618
36.95711614
36.93508096
36.93982331
36.9397343
36.93405576
36.95405618
37.0044987
36.99294663
36.97557819
37.00721943
37.02025036
36.99544439
36.99902851
36.57280708
36.60155101
36.58858955
36.63467126
36.61668983
36.59100513
36.6760253
36.64514164
36.66012684
36.66615857
36.67904207
36.65516414
36.73732071
36.7059879
36.69929
36.73672207
36.71887777
36.74446027
36.81586576
36.8084019
36.7724511
36.8809434
36.84413933
36.85621367
36.83519524
36.8374901
36.87038719
36.97590181
36.95217038
36.91665496
37.01716951
36.98540699
37.01274614
36.94975317
36.96473266
36.99385483
37.1055982
37.07053035
37.04538594
37.09011716
37.12787996
37.03789067
37.06101625
36.48547696
36.50306923
36.47683698
36.57111465
36.53412762
36.52298343
36.56842664
36.54926529
36.57995701
36.66879975
36.66188807
36.61488026
36.76261661
36.71103244
36.72330762
36.69949245
36.70305238
36.74949854
36.90156969
36.87128282
36.81614123
36.98327465
36.92717532
36.96406699
36.87374901
36.89722849
36.94753918
37.14950503
37.09212539
37.03849052
37.18965607
37.14272623
37.20729193
37.04721629
37.09057275
37.13286366
37.34855291
37.26830187
37.23186988
37.29676162
37.38480156
37.17265697
37.23012559
36.45463148
36.45555226
36.40582852
36.5752457
36.5134533
36.51747874
36.5148538
36.51217879
36.56897833
36.7323193
36.70985225
36.64003273
36.86394018
36.78441984
36.8140064
36.74015209
36.76075712
36.83205287
37.09031217
37.03427909
36.94776071
37.2127605
37.12256581
37.19159447
37.00857834
37.0611568
37.14091343
37.50671647
37.39462792
37.30409497
37.56466946
37.48202748
37.61373837
37.2826489
37.37571103
37.44854558
37.89180482
37.71899075
37.64488226
37.77132544
37.97414623
37.48624874
37.61895254
36.47246498
36.46508858
36.3910842
36.6303445
36.54421806
36.55736526
36.52425519
36.53321074
36.61200366
36.86313878
36.82428636
36.72340236
37.05185433
36.93349475
36.98330122
36.84920487
36.88954471
36.99637326
37.40741869
37.31547408
37.17893905
37.61724323
37.46132584
37.57381585
37.26997855
37.36028833
37.49613936
38.16124175
37.9605052
37.78383158
38.33730569
38.14481192
38.39847596
37.76020585
37.94354082
38.10494177
39.19264569
38.75864872
38.55024358
38.91563861
39.60370417
38.20763841
38.53318515
36.51890212
36.50480856
36.40959976
36.72618077
36.60999619
36.63146042
36.57304937
36.59095191
36.69921443
37.04484484
36.99492291
36.85411112
37.32141479
37.14991394
37.21245948
37.03408604
37.09120965
37.24837242
37.84132895
37.72368934
37.51139711
38.23388533
37.9627877
38.10740663
37.6951185
37.82626352
38.06378284
39.21601723
38.91770222
38.55044784
39.88234038
39.34150009
39.76483684
38.66778395
39.01106784
39.44863722
40.35876976
40.21847815
40.51497728
36.58710148
36.56789924
36.44740455
36.85122226
36.70219551
36.72862984
36.65260026
36.67753169
36.81846139
37.25375232
37.20002025
37.01643182
37.63477485
37.4048597
37.47032231
37.27390466
37.34029622
37.55612423
38.30564998
38.19270988
37.89491233
38.94134075
38.53725191
38.6720446
38.2519564
38.39710754
38.77121687
36.67186385
36.64973852
36.50370444
36.99208943
36.81213095
36.8408928
36.75601978
36.78382058
36.9562845
37.46618989
37.41362678
37.19163446
37.94122559
37.66185945
37.72396773
37.53473002
37.59859153
37.86683486
38.71666637
38.6201036
38.2579153
39.5298882
39.039047
39.14934003
38.80079971
38.92306225
39.39662203
36.76578657
36.74168086
36.57175325
37.13743362
36.92978116
36.95983696
36.87018672
36.89984935
37.10088859
37.67179375
37.6212801
37.36687611
38.2221949
37.90470695
37.96301367
37.7851529
37.84538143
38.15417125
39.07184921
38.98688308
38.58011453
39.99659349
39.45363676
39.5488093
39.25466023
39.35600422
39.88788134
46.22800687
45.75050738
45.76523714
45.70753808
45.72870789
46.22440133
36.86470402
36.83997658
36.64795776
37.28345067
37.05125232
37.08138628
36.99023329
37.02037916
37.2466465
37.86960261
37.82115778
37.5389843
38.48319413
38.1341688
38.18961217
38.02080545
38.07744053
38.41899655
39.39793523
39.31765919
38.8747897
40.41045952
39.82361174
39.91420623
39.64153755
39.73331376
40.3100723
45.73475904
45.53401334
45.49445127
45.60162228
45.56646584
45.78797495
37.11210059
37.14196481
37.39098267
38.24507206
38.29952641
38.6710068
40.00413895
40.0950531
40.72003078
44.65137528
44.77190709
44.70968064
44.88417872
44.82941116
44.73081608
45.93364478
45.66063895
45.62963648
45.71130161
45.68449282
45.97738856
44.95797793
44.99226766
44.93664176
45.0957871
45.04170564
45.03018418
42.06221871
41.80753421
42.31662124
40.92258578
41.31612523
41.58083081
40.70154328
40.94456429
40.57499816
40.2049522
40.2600638
39.9709275
41.02383828
40.68893593
40.50793364
40.83586584
41.19872278
42.74462265
42.85425025
43.64951884
42.38199831
42.28865628
41.7182189
43.28381616
42.50970582
42.63148597
43.51611092
43.59687529
44.38528298
42.27711153
42.8912902
42.81114608
43.04567928
42.96995692
42.35289481
41.96692017
42.55938559
42.47152873
42.72887481
42.64491179
42.04628041
44.161612
43.34389315
43.43259177
46.1937944
45.78549252
45.7821336
45.77840333
45.78305087
46.20994996
43.99815024
44.03364476
44.56824493
42.84282895
43.43733121
43.38149739
43.54259267
43.49176251
42.91040616
42.57117494
43.18943716
43.1196725
43.32040984
43.25729945
42.64362083
44.55545611
43.91322526
43.95877022
45.49782524
45.3761629
45.33014631
45.4582307
45.41529984
45.55984795
44.40287943
44.29615796
43.66957218
43.08992371
43.63566766
43.59099416
43.71490031
43.67694987
43.12666164
44.52219771
44.15756493
44.17355665
44.31500459
44.53215957
44.47171193
44.65345769
44.58805629
44.40023475
40.58336541
40.41255131
39.08395173
41.35166526
41.54681104
42.03849512
40.82094292
41.89496214
41.76888879
50.35266656
49.5801149
49.76121178
49.26244406
49.41670339
50.07624518
52.10886248
51.25127112
51.25944072
51.11364746
51.20209652
52.11889145
47.875668
47.81714835
48.31460014
46.71069141
47.26599006
47.29128118
47.20990513
47.23889989
46.71227923
46.68081839
47.3517421
47.35405546
47.31621962
47.34011599
46.68314653
48.60730118
47.98068412
47.93060755
49.64303357
49.6230316
49.49628742
49.86110708
49.7362468
49.79916822
47.50709586
48.03948631
47.90331911
48.31201193
48.17573346
47.67772037
48.34704253
48.35417413
48.46200393
51.83507362
51.17025519
51.10330698
51.25036887
51.2173641
51.92819763
50.25616613
50.09175048
49.97137133
50.31126156
50.19767566
50.40542604
46.09067261
45.7511099
45.73104811
45.77634651
45.76375947
46.12169828
47.69988386
47.81085602
47.92002688
46.83331397
47.4925132
47.35374205
47.76703689
47.63038892
47.00198709
42.61715847
42.49339783
41.50595212
43.05282234
43.77001432
43.65985823
45.23783326
45.19484546
45.14220999
45.28839572
45.23860346
45.30380654
41.82450495
41.03529031
41.18545225
44.40769348
41.57255522
41.76111344
42.45331815
41.71504062
41.15476918
41.37146315
44.85753811
45.21367174
45.90608029
44.18181937
44.5833071
44.25370129
45.16212948
44.8765749
44.41312352
43.91024727
43.51718085
43.35565232
44.44424244
44.07270166
44.47618311
48.06764081
48.10375417
48.97458591
46.45482796
47.24917866
47.16690886
47.3402448
47.30468659
46.53379848
46.09874497
46.86675
46.75190276
47.07573367
46.97095284
46.19027711
48.97668784
47.89816411
48.00464489
47.01153223
47.19137983
48.22354176
45.65584827
46.36742117
46.20779385
46.63596853
46.50360956
45.77393367
45.04221648
45.64658424
45.40888261
46.04316611
45.84861055
45.20870744
47.55573421
46.60584824
46.82049311
41.8822494
42.20135954
42.08997029
41.99255199
42.23662735
43.89546559
43.67055956
44.09512076
42.70933143
43.02349891
43.2773067
42.67083785
42.84914373
42.47134991
39.67802356
40.87609745
40.72253504
51.26478396
50.24988361
50.41628914
49.92187818
50.09562451
51.06761903
51.92771975
50.85873424
50.99745904
50.56318555
50.7195083
51.79087216
47.71230733
48.4829745
49.51088362
48.40702769
47.7706473
47.48844649
46.74116715
46.37018505
46.98006843
48.96222246
49.11638134
48.98811897
49.37513985
49.24099796
49.14814944
48.56841002
48.67552327
48.60534388
48.19846764
48.5840137
48.44808558
48.85483387
48.71958518
48.37910813
51.38209841
50.88954061
50.79876213