/*--------------------------------*- C++ -*----------------------------------*\
| =========                 |                                                 |
| \\      /  F ield         | OpenFOAM: The Open Source CFD Toolbox           |
|  \\    /   O peration     | Version:  v2012                                 |
|   \\  /    A nd           | Website:  www.openfoam.com                      |
|    \\/     M anipulation  |                                                 |
\*---------------------------------------------------------------------------*/
FoamFile
{
    version     2.0;
    format      ascii;
    class       surfaceScalarField;
    location    "3";
    object      meshPhi;
}
// * * * * * * * * * * * * * * * * * * * * * * * * * * * * * * * * * * * * * //

dimensions      [0 3 -1 0 0 0 0];
oriented        oriented;


internalField   nonuniform List<scalar> 
5999
(
0
0
0
0
0
0
0
0
0
0
0
0
0
0
0
0
0
0
0
0
0
0
0
0
0
0
0
0
0
0
0
0
0
0
0
0
0
0
0
0
0
0
0
0
0
0
0
0
0
0
0
0
0
0
0
0
0
0
0
0
0
0
0
0
0
0
0
0
0
0
0
3.616637744e-09
7.173360268e-08
0
0
0
0
0
0
0
0
0
0
0
0
0
0
0
0
0
0
0
0
0
0
0
0
0
0
0
0
0
-1.677869625e-08
-1.223168366e-06
1.559472463e-06
7.72396266e-06
-6.082464592e-06
-6.789413303e-05
1.41349156e-05
9.594544376e-05
-7.377153707e-06
-0.0001779441685
1.214107521e-05
0.0001994439792
0
0
0
0
0
0
0
0
0
0
0
0
0
0
0
0
0
0
0
0
0
0
0
0
0
-8.216901124e-07
-2.700847156e-06
4.302002088e-06
1.920037043e-05
-3.142788444e-05
-0.0001658811353
4.941598842e-05
0.0002366917144
-5.348991061e-05
-0.0004725500342
6.916781186e-05
0.0005499523784
-2.472486869e-05
-0.0007471601629
2.629996205e-05
0.0007954064269
0
0
0
0
0
0
0
0
0
0
0
0
0
0
0
0
0
0
0
0
0
0
0
2.713568165e-07
1.057762244e-06
-3.733491087e-05
-0.0001271588663
5.577551973e-05
0.0002166674723
-0.0001181064571
-0.0005692012233
0.0001428219594
0.0007011127213
-0.0001119987038
-0.001085019807
0.0001226722515
0.001198115772
-1.988133939e-05
-0.001461562682
1.475744017e-05
0.001520581716
0
0
0
0
0
0
0
0
0
0
0
0
0
0
0
0
0
0
0
0
0
-8.762677535e-06
-1.53978636e-05
1.455533393e-05
6.617233951e-05
-0.0001208754992
-0.000396822144
0.000143017716
0.0005500776852
-0.0002244876224
-0.001080556166
0.0002349169703
0.001261847858
-0.0001420596283
-0.00169696869
0.0001597687904
0.001790065094
1.562114006e-06
-0.001987732356
-2.907862277e-06
0.002014995046
0
0
0
0
0
0
0
0
0
0
0
0
0
0
0
0
0
0
2.385767901e-07
1.175021245e-08
4.485018068e-07
-3.448718825e-05
-7.899824022e-05
4.210285123e-05
0.0001773668649
-0.0002045176348
-0.0006508687894
0.0002134296362
0.0008619471787
-0.0002638564426
-0.001476043648
0.0002721053974
0.001658501347
-0.0001529209825
-0.002070110688
0.000130806625
0.002156952357
-2.525695582e-05
-0.00223349624
5.950394021e-05
1.630234711e-05
0.001075356741
0.001107590168
0
0
0
0
0
0
0
0
0
0
0
0
0
0
0
0
-9.993148131e-07
0
2.135710736e-06
4.175247571e-06
6.410446224e-06
-5.813991207e-05
-0.0001359206723
6.010475006e-05
0.0002657781495
-0.0002456346944
-0.0008413478736
0.0002495900126
0.001068496639
-0.0002812393037
-0.001727868926
0.0002808581292
0.001911837197
-0.0001088640636
-0.002253785992
0.0001038164566
0.002280595163
-1.833794427e-06
-0.00115297045
3.718379652e-06
0.001151085865
0
0
0
0
0
0
0
0
0
0
0
0
0
0
0
0
-2.767157593e-06
0
3.49620774e-06
1.167077345e-05
1.322024887e-05
-7.005256684e-05
-0.0001738699459
7.21822425e-05
0.0003202172848
-0.000262840831
-0.0009424252703
0.0002655083914
0.001182062427
-0.0002815758706
-0.001860696963
0.0002817859092
0.002041951359
-9.76128806e-05
-0.002346461615
9.685439852e-05
0.002356971428
2.682824656e-06
-0.00117639757
-2.683833468e-06
0.001176398579
0
0
0
0
0
0
0
0
0
0
0
0
0
0
0
0
-4.212417394e-06
0
5.199107233e-06
1.80757575e-05
2.022823201e-05
-7.748580536e-05
-0.0002015206729
7.963218899e-05
0.00035976496
-0.0002721980623
-0.001016978953
0.0002748034907
0.001266365983
-0.0002825491641
-0.001962803811
0.0002827622828
0.002145288748
-9.53466818e-05
-0.002438553003
9.495647791e-05
0.002444577105
2.818959799e-06
-0.001218733533
-2.426289048e-06
0.0006081839428
0.0006101569191
0
0
0
0
0
0
0
0
0
0
0
0
0
0
0
0
-6.276028595e-06
0
7.517765328e-06
2.753569558e-05
3.032656263e-05
-8.634880127e-05
-0.0002356855955
8.871451078e-05
0.0004073672361
-0.0002826643681
-0.001102719794
0.0002853532438
0.001362326872
-0.0002832482803
-0.002076112285
0.0002833585567
0.002259030348
-9.361907462e-05
-0.002537340144
9.327213697e-05
0.002539858522
2.632643385e-06
-0.001266801799
-2.521703766e-06
0.0006325532745
0.0006341375849
0
0
0
0
0
0
0
0
0
-9.032619343e-06
0
4.059709605e-05
4.218847504e-05
-9.64417066e-05
-0.0002759265856
9.946179545e-05
0.0004618259901
-0.0002937924496
-0.001195529413
0.0002969679467
0.00146475786
-0.0002834969189
-0.002192532183
0.0002834415576
0.002374456771
-9.245767939e-05
-0.002632949431
9.250507392e-05
0.002633107145
2.282333064e-06
-0.001313604635
-2.29315661e-06
0.0006558302833
0.000657785175
-0.001172281066
0.001172334714
2.6291762e-06
-0.001212934364
3.09528387e-06
0.0006059357779
0.0006067222623
-0.001260818562
2.801219992e-06
0.0006297384981
0.0006309114875
-0.001307375587
2.51458021e-06
0.0006528998095
0.0006542435307
-0.001146747645
0.001146221885
-1.308035052e-06
-0.002414376014
0.002421358354
-9.573930313e-05
3.775136489e-06
-3.725621989e-06
-0.001212983879
-3.869995066e-06
-0.001176285864
3.758288945e-06
-0.002513285639
0.002516566467
-9.39983167e-05
3.827160907e-06
-3.778060551e-06
-0.001260867663
-0.001218783304
3.824908044e-06
-2.551678571e-06
-0.001237864786
2.60511435e-06
0.0006180571344
0.0006197542163
-1.183939088e-05
0.0003101086776
1.179416248e-05
-0.0006197677753
0.0003097043261
1.191984365e-05
0.0003034527275
-0.0006079535666
-1.168372049e-05
0.0003042647159
-0.002608595729
0.002609278951
-9.253221547e-05
3.971995635e-06
-3.925052526e-06
-0.00130742253
-0.001266791595
3.81695724e-06
-2.904039519e-06
-0.001284463388
2.655478554e-06
0.0006417117049
0.0006430002435
-6.209308477e-06
0.0003216180932
6.289024109e-06
-0.0003216978088
1.147230684e-05
0.0003160175434
-0.0006325496316
-1.152019569e-05
0.000316579977
-0.001313651835
4.019195511e-06
-3.568667858e-07
-0.0006667035968
0.0006667689418
2.915217863e-07
-7.84506661e-06
0.0003341959267
7.468796868e-06
-0.000333819657
7.033351414e-06
0.0003271315122
-0.0003272991989
-6.865664773e-06
1.353203751e-05
-0.0005782687266
-1.307344987e-05
0.0002883768774
0.0002894332616
-1.398228663e-05
-0.0005864281167
1.388992368e-05
0.000293502046
0.0002930184337
-0.0005793689549
2.771033452e-06
-1.551052541e-06
0.000578148974
-0.000578405668
0.0005788477803
1.308992519e-05
0.0003029697186
1.220898688e-05
-0.000606492976
0.0003032341141
0.0005972433645
1.195593127e-05
-0.0005973025028
-1.189679298e-05
2.856964504e-06
-0.001196795311
-2.805373708e-06
0.001196743721
1.366459857e-05
-1.325911649e-05
0.0002983091443
0.0002985287381
-6.691592565e-06
0.0003029655092
6.695802051e-06
-0.0005871312512
-1.370777961e-05
0.0002931856903
0.0002936710538
-0.0005963805714
1.357366638e-05
0.0002982404701
0.0002982310336
0.0003154786601
1.172992818e-05
-0.0006307260766
0.0003149897952
0.000310777542
-0.0006217465634
-1.208730158e-05
0.0003112169321
-0.001244198146
-2.845959997e-06
0.0006216270884
0.0006228653389
6.956882631e-06
-7.029281356e-06
0.0003108499407
-6.269770404e-06
0.0003153991286
6.349301935e-06
-6.624919561e-06
0.0003033860545
0.0003102779313
6.787628918e-06
0.0003267795911
7.132100937e-06
-0.0003268783406
0.0003219249846
-0.000321946991
-6.187302098e-06
-0.001289368986
-2.494738604e-06
0.0006440474839
0.0006449122008
6.86259713e-06
-6.639658166e-06
0.0003217020457
-8.13971874e-06
0.0003265258751
8.393434717e-06
-6.258423839e-06
0.0003160061968
0.0003215152447
6.965445611e-06
0.0003338580435
-0.0003339969388
-7.706171312e-06
0.0006679888232
8.968689421e-06
-8.728364679e-06
0.0003336177188
-7.815398184e-06
0.0003268071917
0.0003344575817
8.707034396e-06
-0.002323544867
0.002336435075
-9.907414388e-05
-3.979456141e-06
-0.001172171605
-8.013584006e-06
-0.001151394612
6.437745198e-06
-1.296884176e-06
-0.001156185148
0.001156083187
1.398845569e-06
-1.166640104e-05
1.159078491e-05
-0.0005783300518
8.606000434e-06
-0.0005810576919
-6.917263357e-06
-0.001191587279
0.00119170119
2.743054311e-06
1.196421515e-05
-0.0005963888553
1.195940891e-05
-0.0005871317901
-1.195886997e-05
1.195048511e-05
-0.0005864191929
-0.0005782993094
-1.16358182e-05
-0.001154977101
-2.046022021e-06
0.001155726239
7.947206013e-06
-0.0002907948248
-8.479804069e-06
0.0002913274229
-0.0002989352962
-1.639189187e-06
-2.392133354e-06
0.0003029666188
-0.0002909521773
-6.14808997e-06
0.0002913104129
5.7898544e-06
-0.001173893445
2.308596039e-06
1.569850968e-05
1.878200892e-06
0.0005717077263
0.0005823004118
-0.0005728015394
0.0005845245627
-8.951989878e-06
0.0003306204676
5.482887745e-06
-0.0003307859088
-5.317446607e-06
6.589259031e-06
-0.0006616384175
-6.52700254e-06
0.000661576161
-6.530621999e-06
-0.0006666524228
0.0006667151864
6.467858376e-06
-0.0002971751296
5.451389232e-06
-8.326100806e-05
0.0003749847484
-0.0002891834752
8.220123249e-06
0.000288910558
-1.324800329e-05
-0.0005820925595
1.347999099e-05
0.0002903164058
0.000291544166
-8.918909984e-06
9.551921214e-06
-0.0002898164865
9.099321343e-06
-0.0002939968409
-1.227761007e-05
-1.263005661e-05
3.047093611e-05
-0.0002939439019
0.0002761030224
-0.0002912609522
-8.452782549e-06
-0.0005840683766
-1.388249178e-05
0.0002925110007
0.0002921918644
-1.174031454e-05
-0.0005836148841
0.0005840022288
1.135296988e-05
-7.997583623e-06
8.320629136e-06
-0.0002912752228
-8.295217201e-06
-0.0002898537036
-7.863754623e-07
0.0002933510967
7.913876642e-06
-0.000292165652
0.0002909556086
-0.0002909574841
-7.995708126e-06
-0.0005803985807
-1.211986825e-05
0.0005807781344
-8.017884398e-06
0.000292825403
0.0002928767985
5.925687438e-06
-6.765429218e-06
-0.0003009575925
0.000301035485
6.687536684e-06
8.055602237e-06
-0.000297633958
-8.010500905e-06
0.0002975888567
-0.0003014428363
-6.773078928e-06
0.000301450486
-1.385775777e-05
-0.0005917065262
1.360676829e-05
0.0002957467983
0.0002962107174
-8.735498873e-06
8.719108239e-06
-0.0002953970025
0.0002954133932
-0.0002926098481
-9.698994914e-06
0.0002896787864
8.207133584e-06
-0.0002974897338
0.0002973382024
-0.0002955019877
-8.636591137e-06
0.0002954030799
-0.0005924116217
-1.378209457e-05
0.0002962081917
0.0002961277669
-6.721362394e-06
-0.0003127660342
0.0003126963074
6.791089199e-06
-0.0003133235718
-6.695153981e-06
0.0003132973634
-6.451470029e-06
-0.0003069185715
0.0003068526619
6.517379633e-06
-0.0003073410844
-6.444575839e-06
0.0003073341902
-5.871891177e-06
-0.0003249100499
0.000324925184
5.856757002e-06
-0.0003254599918
-6.201480806e-06
0.0003257895814
-7.645537742e-06
-0.0003189956551
0.0003191738799
7.467312884e-06
-0.0003192147363
-7.658743642e-06
0.0003192279422
-0.000667995273
0.0006679945933
-5.63278289e-06
-0.0003303657856
0.0003300371262
5.961442291e-06
-5.309865677e-06
0.0003302975504
-1.272060742e-05
-0.0005942974981
9.170111646e-06
-0.0003032449092
0.0003033355606
-1.729840581e-06
6.622772355e-06
-0.0003192078467
-6.62966199e-06
6.903205168e-06
-0.0006387771445
-6.843560188e-06
0.0006387174995
-6.840969208e-06
-0.0006430615644
0.0006430607474
6.841786232e-06
6.904319691e-06
-0.0006325546534
-6.903934897e-06
0.0006325542686
-0.0006372509188
0.0006372508179
6.903306081e-06
6.475586082e-06
-0.0003188484688
6.72063883e-06
-0.0006558323866
-6.657775434e-06
0.0006557695232
-0.0006608461082
0.0006608435608
6.59180641e-06
5.652647121e-06
-0.000330535545
1.174129333e-05
0.0003139102985
-0.000627199466
-1.177569756e-05
6.965605016e-06
-0.0006272113883
-6.964928366e-06
0.0006272107116
-0.0006308537107
0.0006307946012
6.963429209e-06
-6.815693446e-06
0.000314772976
7.033784196e-06
-0.0003149910668
0.0003139704922
7.908724606e-06
-0.000314299961
-7.579255872e-06
6.523802496e-06
-0.000314669621
-6.444864165e-06
0.0003145906827
5.788937689e-06
-0.0003252888776
-5.960051807e-06
6.838836363e-06
-0.0006502754019
-6.898925386e-06
0.0006503354909
-0.0006541241126
0.000654123008
6.721743362e-06
-0.0006440497074
-6.840294802e-06
0.000644049033
-0.0006488661452
0.0006489259694
6.779012161e-06
5.655095411e-06
-0.0003247762076
-6.26542765e-06
-0.0003220010419
0.0003218953641
6.371105472e-06
-7.131144751e-06
0.0003209474248
7.475697443e-06
-0.0003212919775
8.229908739e-06
0.0003210216082
-0.0003212332163
-8.01830062e-06
-7.497283281e-06
7.62769653e-06
-0.0003259322219
0.0003258018087
3.067227896e-05
-0.0003270808729
-1.092482395e-05
0.0003073334179
8.300075534e-06
-0.0003264443143
-8.566773728e-06
0.0003267110125
-6.376415679e-06
-0.0003174165268
0.0003175262271
6.26671534e-06
-6.03112391e-06
0.0003182352577
5.945152614e-06
-0.0003181492864
0.0003153898837
-0.0003157273816
-6.478195594e-06
0.0003207155175
8.501818997e-06
-0.0003209874278
0.0003196166043
9.261110556e-06
-0.0003198908841
-8.986830851e-06
7.391035795e-06
-0.0003205786361
-7.229943189e-06
0.0003204175435
-6.950866736e-06
-0.0003287699645
0.0003285015162
7.219315083e-06
-6.695033668e-06
6.816945946e-06
-0.0003276654176
0.0003275435053
-0.000326028738
-7.062876728e-06
0.0003255943314
-5.137830582e-07
-0.000335386371
3.182665735e-05
0.0003040734967
5.239243188e-06
-0.0003331745081
-6.234260084e-06
0.000334169525
-2.461621418e-06
-0.0002916595498
7.186683079e-06
0.0002869344881
-0.0002963150736
2.555749168e-05
0.0002682959605
-7.022902987e-06
-0.0002975753409
0.0002983446505
6.25359343e-06
-0.0002989236271
-5.529413394e-06
0.0002974301375
-9.91215261e-06
-0.0002878571156
1.335155063e-05
0.0002844177176
-0.0002875356557
-9.465057176e-06
0.0002870885603
1.200311893e-05
-0.000288539833
-1.099894164e-05
9.474385626e-06
-0.0002902815342
-9.137961441e-06
0.00028994511
-8.128395392e-06
-0.0002913811566
0.0002910272251
8.482326922e-06
7.276832387e-06
-0.000289000964
-8.683632408e-06
0.000290407764
-0.0002904694798
0.0002903288061
9.615059294e-06
1.328623232e-05
-0.000289140229
6.174432837e-06
-0.0002963463616
-6.143144894e-06
7.992453388e-06
-0.0002934326893
-8.631220476e-06
0.0002940714564
-1.036909197e-05
-0.0002932874173
0.0002936116911
1.004481814e-05
-0.0002924641722
-7.947024601e-06
0.0002922828014
-0.000292062158
0.000292316922
7.737689459e-06
7.019194719e-06
-0.0002925043116
0.0002877214613
1.141425168e-05
-0.0002893860832
-9.749629744e-06
8.078815187e-06
-0.0002903160894
-8.136263486e-06
0.0002903735377
-0.0002896416469
0.0002895535908
7.364888471e-06
-1.328261161e-05
-0.0002884418191
0.0002867744608
1.494996986e-05
-1.036485318e-05
0.0002848037028
6.886547996e-06
-0.0003016193059
-3.198735537e-06
0.0002979314934
7.160062411e-06
-0.0003014836459
-7.471684331e-06
0.0003017952678
-1.040799088e-05
-0.0003020102055
0.0003028986323
9.519564031e-06
7.533518113e-06
-0.0002982078215
-7.302255145e-06
0.0002979765585
-0.0003002845868
0.000300353655
7.090994233e-06
7.254161906e-06
-0.0002996937797
0.0002993261657
1.034728374e-05
-0.0003026637335
-1.020643803e-05
0.0003025228878
-9.664513453e-06
-0.0003026684817
0.0003025231644
9.809830729e-06
-0.0003020206731
-1.072801843e-05
0.0003023407006
-0.000302376771
0.0003021825228
1.054153203e-05
9.102425145e-06
-0.0002936060718
-9.002218763e-06
0.0002935058655
9.673585033e-06
-0.0002943328486
-9.483383771e-06
0.0002941426473
-8.866261806e-06
-0.0002960986451
0.0002959141445
9.050762431e-06
-0.0002931321383
-1.037216693e-05
0.0002931352132
-0.0002944585444
0.0002942145098
9.917619601e-06
9.267493411e-06
-0.0002934469016
0.0002932818333
8.064949319e-06
-0.0002967995716
-8.064215517e-06
0.0002967988378
8.13997015e-06
-0.0002973921008
-7.958145748e-06
0.0002972102764
-0.0002980581981
0.0002979364329
7.655283249e-06
-0.000296086013
-8.629036044e-06
0.0002958487872
-0.0002963082199
0.0002961813967
8.26679337e-06
8.392425774e-06
-0.0002957171965
0.0002953897201
1.001506607e-05
-0.0003109949172
-9.802524481e-06
0.0003107823756
-9.108252695e-06
-0.0003120722341
0.0003118590697
9.321417027e-06
1.102631177e-05
-0.0003116028018
-1.113188589e-05
0.0003117083759
-0.0003109423338
0.0003106608372
1.029656264e-05
8.150692081e-06
-7.943589817e-06
0.00031376339
-7.131197843e-06
0.0003144960107
7.408163154e-06
-0.0003126704309
-8.836982027e-06
0.0003123991602
-0.0003138372249
0.0003136300966
8.357820421e-06
8.698784918e-06
-0.0003053800565
-8.368844213e-06
0.0003050501158
-7.602031595e-06
-0.0003064779337
0.0003062023714
7.877593969e-06
-0.0003030246151
-9.454639447e-06
0.0003028147411
-0.0003049586275
0.0003046865716
8.970840786e-06
6.457461732e-06
-0.0003097757951
-6.543242322e-06
0.0003098615757
-0.0003121596335
0.0003134502401
9.735705179e-06
-0.0003069070707
-7.325532549e-06
0.0003066305717
-0.0003086189959
0.000308363867
6.712590624e-06
0.0003239668755
-5.354520554e-06
6.034360387e-06
-0.0003246467153
0.0003217845667
-0.0003221348279
-6.780883503e-06
-0.0003229674227
-6.040615422e-06
0.0003227426105
6.581147431e-06
-6.579279397e-06
0.0003217826986
-5.693734916e-06
6.117463339e-06
0.0003235431471
7.320456457e-06
-7.271411388e-06
0.0003209725631
7.062673925e-06
0.0003204658983
-0.0003253790367
-9.092049637e-07
0.0003205945068
-0.0003262687979
0.0003269365664
7.632307083e-06
8.864249737e-05
-0.0003293631573
0.0002713929389
-0.0003260850262
-4.648531096e-06
0.0003199121825
-1.055606022e-05
1.044993528e-05
-0.0003198060575
0.0003208271711
-0.0003197121399
-7.146155126e-06
-0.0003178754903
-6.69753911e-06
0.0003181966137
5.225603607e-06
-5.340436208e-06
0.0003209420037
-1.134747651e-05
3.049338887e-05
0.0003007662701
-6.843268149e-06
0.000315101954
0.0003175399884
5.92087293e-06
7.759450227e-06
-7.648198046e-06
0.0003195053522
7.429380613e-06
0.0003206065934
-0.0003187900374
-8.348777477e-06
0.0003157913384
-0.0003192536923
7.873773655e-06
0.0003191393689
-0.0003201544498
0.0003199961802
7.549305442e-06
9.539395244e-06
-0.000319531977
-0.0003191511775
-1.019492008e-05
-6.024994222e-06
6.147798106e-06
-0.0003293209283
0.0003291981244
-0.0003280942187
-6.513631333e-06
0.0003279128164
-0.0003291368641
-6.620974281e-06
0.0003288069716
-0.0003314389956
0.0003316988708
4.979368004e-06
4.779500383e-06
-0.0003306023224
0.000325309039
-0.0003295117325
-6.019796403e-06
0.0003295065347
1.176753919e-05
0.0003076562451
-0.0006150047352
-1.176013351e-05
6.969994467e-06
-0.0006150099098
-6.969178641e-06
0.0006150090939
-6.968879466e-06
-0.0006197548788
0.0006197547786
6.968979685e-06
-0.0006080711
7.028787546e-06
-7.028683617e-06
0.000608070996
-0.0006135430275
0.0006134858385
7.027183469e-06
0.0003065520625
1.177738216e-05
-0.0006134804769
-0.0006216849404
-6.968778397e-06
0.0006216848394
-0.000625221137
0.0006252198873
6.966854641e-06
0.00031218747
1.193839624e-05
-0.0006251506071
-7.030328847e-06
-0.0003114734787
0.0003114730589
7.030748698e-06
-9.973431622e-06
1.02403747e-05
-0.0003112092769
1.027977733e-05
-0.0003113049569
-1.057762221e-05
9.355007221e-06
-0.0003112348634
6.769999141e-06
-0.0003094248631
-7.120931071e-06
6.443325775e-06
-0.0003088890411
-6.526798694e-06
0.000308972514
-0.0002905690619
-8.439154573e-06
0.0002905284124
-3.162025299e-05
-0.0002942650406
0.0002426242856
-2.746618319e-05
0.0004024509316
-0.0002876053801
8.983683159e-06
0.0002868418202
-0.0002883540445
1.030058554e-05
-9.474236432e-06
1.022208018e-05
-0.0002891018882
-8.787679245e-06
-0.0002905030437
-0.0002968768706
8.342367138e-05
0.0002439241353
-1.206550818e-05
1.078710079e-05
-0.0002955984632
-1.205582204e-05
-0.0002939535881
-8.221385604e-06
-0.0002918272459
0.0002910888001
-7.727931633e-06
-0.0002915822541
-7.933044294e-06
7.666422859e-06
-0.000290775199
-8.14430284e-06
0.000291253079
-0.0002910524101
0.0002909574083
8.173816999e-06
1.246538414e-05
-0.0002894929516
0.000297884168
-1.297234842e-05
-0.0002929297039
4.903112243e-06
-8.409905125e-05
0.000377080107
0.0002908458472
6.882668037e-06
1.890621604e-06
0.0002635199937
-0.0002870594597
7.68463258e-06
0.0002812654487
8.096087572e-06
-0.0002892298598
-0.0003827106254
-2.489119523e-05
0.0004076018206
-8.439059645e-05
6.604381699e-06
-0.0003049244106
-3.008592933e-05
-0.0003040444716
0.0002497398044
-7.909050899e-06
8.107335297e-06
-0.0002978322424
0.0002977829189
-7.698397529e-06
-0.0002979935723
-7.793367653e-06
0.0002975657857
-8.715787101e-06
8.754392905e-06
-0.0003025957267
0.0003025571209
-8.739709578e-06
-0.0003024425026
0.0003024664251
-1.193265606e-05
-0.000302527877
0.0002843746037
-9.23771749e-06
-0.0003017498628
0.0002990549243
-0.0002948356788
8.618566895e-06
0.0002949362201
-9.825607907e-06
1.003972959e-05
-0.0002950498005
-9.57115896e-06
-0.0002956514515
-1.168240229e-05
-0.0002929832678
0.0002926314552
-1.119577906e-05
-0.0002931180784
-9.183403308e-06
0.0002921158636
-0.0002976194421
8.299144536e-06
0.0002975274311
-8.300048656e-06
8.490866831e-06
-0.0002978102603
-0.0002976824471
-9.428863893e-06
-0.0002956442827
0.0002953824359
-9.234167446e-06
-0.0002955771323
-8.596435193e-06
0.0002953422799
-8.942058588e-06
9.216580781e-06
-0.0003123467563
-0.0003112647486
-9.703600254e-06
-0.0003116924494
-6.885450588e-06
0.0003115475712
-0.0003144739766
0.000314398445
6.599334124e-06
8.179664891e-06
-0.0003141081652
-0.0003128869175
-8.725571927e-06
-7.314172161e-06
7.563509015e-06
-0.0003067272706
8.19566357e-06
-0.0003055712104
-8.004509605e-06
6.54472029e-06
-0.0003058202598
-6.534620986e-06
0.0003058101605
-7.809565217e-06
7.917222371e-06
-0.0003055670231
0.000305459366
-7.642795117e-06
-0.0003059882069
0.0003058214368
-8.227698939e-06
-0.0003025484035
0.0003020363929
-8.288757689e-06
-0.0003034134496
0.0003034745084
-2.703132224e-05
-0.0003944968702
0.0004215281925
-7.588461628e-06
-0.0003062984396
0.0003062441061
-0.0003067291581
-7.412336187e-06
0.0003065530327
-0.0003084569408
0.0003085212487
6.37901796e-06
6.770999958e-06
-0.0003086199967
-0.0003070980384
-7.12320444e-06
-0.0003209983187
0.0003207267742
7.747241937e-06
-7.171469635e-06
-0.0003213373701
7.510521071e-06
-6.826325647e-06
-0.0003216371215
-0.0003258563316
7.924310833e-06
0.0003255597173
-9.349440328e-06
9.792296544e-06
-0.0003262991878
-9.046164607e-06
-0.0003262354977
-1.022986294e-05
1.020123471e-05
-0.0003270522446
0.0003260736095
-0.0003265111759
0.0003230730963
-7.096290405e-06
1.033500237e-05
-0.0003331048411
0.0003298661291
-0.0003327682472
0.0003324645232
-0.0003272381811
6.939115121e-06
0.0003271160119
-7.911102385e-06
8.328079953e-06
-0.0003276551587
-7.555870083e-06
-0.0003280206499
-8.685457663e-06
-0.0003263894449
0.0003266915559
-0.0003270489336
0.0003265677943
-3.032702721e-05
8.929812595e-05
-0.0003369834288
0.00027801233
-0.0003344098524
0.0003144178276
-3.325180561e-06
3.35886842e-06
-0.0003354200588
0.0004239984802
-0.0003380255348
0.0004558251376
-0.0002898727566
0.0002886202851
-0.000376294965
0.0004018524567
-2.487791991e-06
-0.0002999165417
6.867441083e-07
-1.728467751e-07
-0.0002963858525
-3.136283633e-05
8.300338595e-05
-0.0002958074339
-6.192517123e-06
-0.0002886790506
0.0002635087314
9.059045664e-07
-0.0002950978604
0.0003850136194
-0.0003011043289
-0.0002899192046
0.0002716505022
-0.0002872463941
0.0002867650201
-8.425494789e-06
7.192911923e-06
-0.0002951137787
0.0002990144385
-0.0002966528325
-0.0002907866062
-7.263525112e-06
-0.0002912510127
-0.0002925749248
3.290168083e-05
-1.350051063e-05
0.0002673732906
-0.0002932441439
0.0002420467735
-0.0002912665224
2.917905748e-05
0.0002554742726
0.0004062591644
0.0002856509303
-0.0002879196959
8.885921424e-06
0.0002844496414
0.0002801891136
-6.463525712e-06
6.858042487e-06
-0.0003020138227
0.0003040938691
-0.0003039530132
0.0002760039384
-0.0002982771828
0.000297737977
-7.282039606e-06
-0.0002986935407
-0.0003001177768
-8.796933117e-06
8.84335792e-06
-0.0003022674742
0.0003022210494
-0.00030257207
0.0003025295298
-8.960051996e-06
-0.0003016541897
0.0003013765242
-0.0003019715278
0.0003018548337
-1.025293229e-05
1.046318962e-05
-0.0002938163292
0.0002939711271
-0.0002941843298
0.0002935874752
-0.0002933452039
0.000293429294
-1.090110566e-05
-0.0002936398773
-0.0002938848176
-8.575883142e-06
8.725521465e-06
-0.0002969492099
0.0002976264513
-0.0002977114676
0.0002978613803
-0.0002953083601
0.0002951043507
-8.983828772e-06
-0.0002955586988
-0.0002959755038
0.0003109665396
-9.650685918e-06
-0.0003111183781
8.308155286e-06
-8.202715247e-06
0.0003108610995
8.475146531e-06
0.0003106153844
8.032846933e-06
-7.864802673e-06
0.0003116910255
-0.0003112056526
0.0003110357843
-0.0003115349215
0.0003107091198
-1.065662538e-05
-0.0003111843803
1.176251148e-05
-8.763537971e-06
0.0003077101463
3.046244238e-05
0.000293008445
8.655191915e-06
0.0003104807918
-0.0003107422346
0.0003106338886
-0.0003111022974
0.0003138940606
-7.677417139e-06
-0.0003141602332
7.504400186e-06
-7.458861343e-06
0.0003138485217
7.551273506e-06
0.0003137165166
7.235104835e-06
-7.00284264e-06
0.0003142637485
-0.0003140201744
0.0003137964179
-0.0003142894284
0.0003130005953
-8.624136517e-06
-0.0003132134408
7.755323404e-06
-7.760026707e-06
0.0003130052986
0.0003122896809
7.714431947e-06
0.0003134669382
-0.0003134349492
0.0003133893545
-0.0003137012653
-7.967083764e-06
-0.0003048956576
8.131807798e-06
0.0003047309335
-0.0003052035623
0.0003051537009
0.0003054715188
-8.095185825e-06
-0.0003057451772
8.728144259e-06
-8.460187727e-06
8.882602452e-06
8.190943655e-06
-7.976779169e-06
-0.0003058362672
-0.0003060538591
-8.183475879e-06
-0.0003040583204
0.0003039530386
-0.0003044185957
0.0003043669276
-2.21982041e-06
-0.0003091667515
6.667311672e-06
0.0003047192602
-0.0003124558456
0.000283204703
0.0003123988234
-7.718464629e-06
-0.0003112236011
5.739580048e-06
-5.796602281e-06
6.434404212e-06
8.601753433e-05
0.0002578951481
-0.0003142759382
-0.0003122586976
0.0003069582895
-7.047292274e-06
-0.0003072365298
7.644647072e-06
-7.415515676e-06
6.983403408e-06
0.0003078148678
-0.0003074960196
0.0003070639073
-0.0003078307213
-7.146881397e-06
0.0003067984525
0.0003073352981
-0.0003236549018
6.420806452e-06
0.0003232684558
-5.776488069e-06
6.126002788e-06
-0.0003240044166
-5.508423587e-06
-0.0003249147798
-6.477209873e-06
-0.0003224839437
0.0003229958479
-0.000323347055
0.0003226357709
-6.451893409e-06
0.0003225083849
0.0003229340257
-7.343986902e-06
-0.0003210264781
0.0003210990536
0.0003204454612
2.968882825e-05
-0.0003287782713
0.0002981802381
-0.000414441701
0.0004441305293
-0.0003304924189
4.693215207e-06
-8.865813788e-06
6.682426764e-06
-0.0003283090319
-0.0003280277364
-5.522782091e-06
-0.0003260706677
0.0003287335872
-0.0003275739426
0.0004048576224
-8.743638358e-05
-0.0003227616751
-2.825794933e-05
0.0004331155718
1.609914699e-06
0.0002910741397
-0.0003218230267
0.000264880032
0.0003156712838
-6.527731475e-06
-0.0003159868204
6.940706021e-06
-6.674763523e-06
0.0003154053413
0.0003150398174
6.255900043e-06
0.000312894003
-0.0003161903503
0.0003157714868
-0.0003167972088
-7.538458307e-06
-0.0003200419587
0.000319932219
-0.0003204092229
0.0003203001452
-8.119183301e-06
-0.0003186963972
0.0003184668031
-0.0003189593943
0.0003187139847
-0.0003288278075
6.331353112e-06
0.0003286442525
-6.4910403e-06
6.84676426e-06
-0.0003291835314
-6.19495363e-06
-0.0003296170149
-7.201413659e-06
-0.0003284486752
0.0003284608127
-0.0003288154621
0.0003282785344
-0.0003289246987
5.930532403e-06
0.0003277736667
-4.326430077e-06
5.317939307e-06
-0.0003299162079
-0.0003315698841
-5.76813761e-06
-0.0003299385485
0.0003294082465
-0.0003298584448
0.0003293189825
0
0
0
0
0
0
0
0
0
0
0
0
0
0
0
0
0
0
0
9.909732074e-08
0
2.270546245e-05
4.010780067e-06
-4.679548749e-07
-1.042922492e-05
0
0
0
3.866457869e-05
-1.365693579e-06
9.203522191e-05
8.296879904e-06
-3.531877086e-06
-7.483364153e-05
0
0
0
0.0001068927634
-3.450448545e-06
0
0
0
0
0
0
0
0
0
3.674713396e-06
0
9.663125323e-05
2.11804205e-05
-9.791611305e-06
-5.206803402e-05
0
2.236787502e-07
0.0001508115324
-1.7184585e-05
0.0003431704966
5.249724144e-05
-3.614955044e-05
-0.0002767348972
-4.243761505e-05
1.132049715e-05
0.0004086319139
-3.853315585e-05
0.0005786677065
3.543370695e-05
-2.885018144e-05
-0.000528219428
-0.0001525858017
1.455070728e-05
0.0006207379551
-2.147366406e-05
0
0
0
7.90121164e-05
1.914342649e-05
-9.480322901e-06
-2.86515842e-05
0
6.307273203e-07
0.0001506937548
-2.277457667e-05
0.0004547942837
0.000102072658
-7.797082664e-05
-0.0003425393817
-0.0001038963443
3.672282877e-05
0.0005727410811
-9.367212501e-05
0.0009254172716
0.0001241642106
-0.0001070981628
-0.0008113389851
-0.000392825211
7.039687393e-05
0.001032239757
-9.918708144e-05
0.001288074531
4.599624626e-05
-4.618227393e-05
-0.001215163278
-0.0006891491029
4.08014567e-05
0.001347283938
-2.378116435e-05
-5.558496176e-06
4.142023179e-05
-4.338978777e-06
0.0003263128924
8.564710703e-05
-6.716736255e-05
-0.0002058027538
-6.302749175e-05
3.414255941e-05
0.0004667482568
-9.972426157e-05
0.0009703505841
0.000214903574
-0.0001956649969
-0.0007991016402
-0.000441729148
0.0001275798945
0.001138621238
-0.0001982306701
0.001548051204
0.0001787745374
-0.0001630259119
-0.001419888344
-0.0009624884185
0.0001393344476
0.001660040191
-0.0001370527888
0.001887899119
3.388550196e-05
-3.683960223e-05
-0.001830259869
-0.001387761294
4.409134346e-05
0.001929550713
-3.280030408e-06
-5.964446286e-05
0.0001462303178
-2.660285896e-05
0.0006001570443
0.0001537019633
-0.0001417067917
-0.0004251682973
-0.0002615700481
0.0001049299491
0.0007925215493
-0.0001841171153
0.001385061186
0.0002709618213
-0.0002570101076
-0.001191467013
-0.0008931225963
0.0002250060828
0.001566854984
-0.0002543516074
0.002014503771
0.0001851049284
-0.0002037100879
-0.001882418041
-0.001584745634
0.0002034889455
0.002106172122
-0.0001656091497
0.002157631701
6.826959436e-05
-4.514973466e-05
-0.002179509462
-0.001945246385
3.498643916e-05
0.002138291118
-5.916373195e-06
-0.0001271423335
0.0002520876975
-5.430165976e-05
0.0008104708356
0.0002010940103
-0.0001938626636
-0.0006010187354
-0.0004693283998
0.0001697245515
0.001032097453
-0.0002381765132
0.001681859284
0.0002969459772
-0.0002931634256
-0.001476252925
-0.001278546014
0.0002884782234
0.001868524969
-0.0002827285157
0.002234359914
0.0001555880669
-0.0001600123668
-0.002155745029
-0.00195558896
0.000170246899
0.002268296301
-0.0001125938618