/*--------------------------------*- C++ -*----------------------------------*\
| =========                 |                                                 |
| \\      /  F ield         | OpenFOAM: The Open Source CFD Toolbox           |
|  \\    /   O peration     | Version:  v2012                                 |
|   \\  /    A nd           | Website:  www.openfoam.com                      |
|    \\/     M anipulation  |                                                 |
\*---------------------------------------------------------------------------*/
FoamFile
{
    version     2.0;
    format      ascii;
    class       volScalarField;
    location    "3";
    object      nut;
}
// * * * * * * * * * * * * * * * * * * * * * * * * * * * * * * * * * * * * * //

dimensions      [0 2 -1 0 0 0 0];


internalField   nonuniform List<scalar> 
3019
(
1.155894897
1.155864771
1.155833158
1.155804888
1.156028375
1.156022492
1.156031578
1.156057417
1.156110255
1.156205803
1.15634911
1.156493313
1.155157835
1.155072502
1.154984346
1.154916667
1.155116549
1.155120386
1.155184607
1.155403199
1.155658152
1.156110665
1.156792837
1.157649183
1.154392055
1.154242308
1.154095018
1.153993117
1.154213956
1.154265829
1.154434103
1.154838574
1.15548327
1.156590703
1.122475971
0.9327634702
1.153601731
1.153402061
1.153214405
1.153114105
1.153337669
1.153490435
1.153868087
1.154630124
1.156002752
1.052217297
0.7873577095
0.6428706336
1.152795542
1.152534891
1.152312453
1.152220064
1.152522903
1.152842542
1.153628531
1.154934333
1.109936377
0.7559493138
0.5283595117
0.3962476074
1.151983145
1.151682894
1.151449622
1.151412414
1.151793704
1.152372303
1.153733807
1.155980182
0.8814959513
0.5618524331
0.3513078345
0.2210738961
1.151162196
1.15082581
1.150595461
1.150617707
1.151179677
1.152115793
1.154294469
1.1503419
0.7371852743
0.4486329051
0.2490743771
0.1116531155
1.150377173
1.15002062
1.1498167
1.149959269
1.150735897
1.152114766
1.155303287
1.056013268
0.6724448431
0.4152081212
0.2332594745
0.09460901411
1.149634827
1.149262181
1.149103931
1.149439424
1.150393438
1.152388667
1.156628691
0.999042748
0.6653518105
0.4473811196
0.3084816457
0.2266134556
1.148985487
1.148613038
1.148522085
1.149059659
1.150195608
1.152925093
1.158167671
0.9822028173
0.6893332242
0.5083156751
0.4182537914
0.4437675626
1.148417876
1.148052553
1.148052943
1.148832224
1.150228038
1.153688499
1.159737885
0.9830066495
0.7235853154
0.5665728569
0.5052155586
0.5535161965
1.147990273
1.147641566
1.14773623
1.148754376
1.150444659
1.154618844
1.161360805
0.998703462
0.7592803532
0.6075344452
0.5363067689
0.482936272
0.1996342565
0.4241129732
0.5620655179
0.4907113773
0.09149265587
0.3912164501
0.4076329123
0.2329100999
0.4882124261
0.561443098
0.4276011707
0.4996775417
0.2153631696
0.2474407702
0.5329119084
0.5853013667
0.5763844902
0.5274398798
0.1341985899
0.1779769339
0.578825616
0.4695091195
0.07636912548
0.1025452817
0.07482580334
0.189114719
0.03527047727
0.06749396722
0.2519632505
0.2855631724
0.3456723639
0.2197112009
0.1995897881
0.2244560667
0.223647553
0.1811829411
0.2107366704
0.5220738657
0.1620808156
0.1342027041
0.1974024488
0.1644167124
0.104052924
0.1323795477
0.5186863634
0.1051721299
0.07839573018
0.1326265693
0.1066361884
0.07454445164
0.4672904019
0.05170215578
0.07728483597
0.0532772339
0.2832721226
0.2084699196
0.1104813
0.1207289605
0.07464963654
0.04170691817
0.316711803
0.2900911969
0.2085642783
0.1852087269
0.08320896794
0.1362274651
0.04204744284
0.01386054236
0.02425318225
0.04259659648
0.03430552832
0.09107877776
0.2651091794
0.2508594202
0.0519901919
0.04239261322
0.1120535018
0.06850582249
0.06372844099
0.04009539575
0.06792790066
0.1270635993
0.04300049676
0.0253608654
0.01589686359
0.05714330219
0.02827434458
0.04768730476
0.02695667394
0.06645949825
0.2148852626
0.03051896238
0.2139983327
0.2441992259
0.03450069124
0.0389956882
0.03096623988
0.03396185731
0.2390234209
0.1483363212
0.1465362742
0.1820958605
0.1800384406
0.09514844928
0.0932336951
0.1189801903
0.1172243394
0.2460697111
0.06993458412
0.06905804958
0.01741704639
0.01384085783
0.1496879067
0.339751625
0.3256175739
0.3586938037
0.3444784445
0.1532353161
0.2837236314
0.2696283941
0.09243221623
0.1937128569
0.377631237
0.3633898014
0.05911194991
0.06115526356
0.1394494443
0.1182688985
0.3023276577
0.2883305273
0.3209434705
0.3069948835
0.1201991757
0.1009521094
0.03574006866
0.03647026341
0.02067136676
0.02147334517
0.08296977179
0.1269954738
0.05481209808
0.05869428534
0.03678077625
0.03746851399
0.1110393555
0.0740853078
0.02003501888
0.02052564009
0.01960103141
0.06257179946
0.03864713916
0.04047274536
0.01630143991
0.01770432841
0.04624690133
0.04525216457
0.07126786423
0.08831730959
0.1109701447
0.06608549732
0.08260895981
0.07237655073
0.06189560914
0.1509526894
0.137212932
0.1223849961
0.1550079487
0.06180727162
0.04153076976
0.04840928781
0.06048494847
0.03575873151
0.04027696802
0.02863255976
0.09807995014
0.08509164551
0.1053446357
0.1008404338
0.02979438987
0.07584032864
0.07337640683
0.08140332961
0.07673306092
0.03614634928
0.1249052378
0.1194782598
0.1338524146
0.1268559403
0.03678898588
0.03216151969
0.1113375778
0.1069200349
0.1177623065
0.1128914894
0.03253054877
0.04240625781
0.04160632779
0.04464803079
0.04268129055
0.04015329456
0.03907939197
0.04134428134
0.04042828813
0.06966385431
0.06753321273
0.07261424946
0.07041236621
0.06170516131
0.04742980794
0.06663982193
0.06440370723
0.03476837591
0.0353806142
0.09951325447
0.02058294716
0.02038491516
0.02122509703
0.02076830761
0.01974872689
0.08541127187
0.02206166311
0.03269293619
0.03964852604
0.0528791076
0.1250491659
0.0362603523
0.02331145996
0.03893998367
0.0359595656
0.02198616796
0.02145954118
0.02289182306
0.02220684481
0.1125378961
0.03770492322
0.03860891705
0.01943025741
0.0199253739
0.07310835021
0.0647856217
0.01854803893
0.01936213626
0.2292364969
0.4153807593
0.4012621356
0.434139607
0.4200522706
0.233774923
0.3965461897
0.3823458582
0.197781915
0.1558742752
0.06714878246
0.07116667276
0.07440104405
0.08578136697
0.1714896417
0.04068684158
0.04966246453
0.03783140963
0.04338584347
0.06953788715
0.1002446887
0.09850283201
0.04176334718
0.06926379862
0.06522822295
0.0973153432
0.0950307326
0.06621505782
0.03644198296
0.04383121464
0.03781518343
0.02883004413
0.02967971251
0.02432334661
0.04883521987
0.04724655698
0.05470747542
0.0228804684
0.03327853511
0.03160395851
0.05244908392
0.05204532109
0.03025489726
0.02784673243
0.02742065083
0.03055202284
0.02982708007
0.0350838462
0.05923281347
0.05853796275
0.06339971331
0.06252070118
0.03817794706
0.03131727743
0.05380260449
0.05323857714
0.05782624119
0.05712817844
0.03346584399
0.0643674137
0.06639595785
0.1539367637
0.1411343962
0.06176792995
0.06372605569
0.09324164864
0.09674190092
0.1885900493
0.02579604896
0.02565609255
0.02717610084
0.02695529428
0.01961273339
0.02537866636
0.02527901714
0.1736388341
0.08816807496
0.09193860548
0.03589997271
0.05504733179
0.05456974635
0.02092097633
0.03449018019
0.03425177149
0.03576533041
0.03483302999
0.02112465366
0.0198744808
0.01966290671
0.02021639019
0.03379555278
0.0335821947
0.03410799122
0.03393369583
0.02034657338
0.02075207813
0.02016952787
0.03029024672
0.02169768816
0.0155790242
0.04044066044
0.0308177529
0.010832723
0.01210289518
0.01905667776
0.02149907799
0.01288606042
0.01585010846
0.01508820361
0.04766761191
0.04404620637
0.08665858119
0.07696107554
0.04383919266
0.06590896127
0.09396637517
0.08982811426
0.036837405
0.0336803362
0.03235444639
0.02373697441
0.03056425046
0.04671577755
0.04723493295
0.04058380025
0.04769276642
0.04790480864
0.03012886762
0.02975786083
0.05096139353
0.05095374942
0.02856128664
0.0281527006
0.02936033342
0.02892185389
0.06052142759
0.05984815684
0.03551600059
0.03746579069
0.06184149526
0.06118538935
0.05513613963
0.05452797303
0.03179020946
0.03294869934
0.05641819623
0.05577312738
0.04212624152
0.02450967346
0.02477922155
0.02409573616
0.0242972982
0.04187259833
0.0435065106
0.02570729889
0.02617688929
0.02503984186
0.02534845723
0.04301254472
0.03976127798
0.02288991729
0.02313021516
0.02252699001
0.02275713047
0.03952774183
0.04105557708
0.02370982801
0.02389671503
0.02329047695
0.02352538755
0.04077812991
0.02623841533
0.02605736898
0.0689621887
0.04551867855
0.04585473019
0.0447827666
0.04507301446
0.06817916211
0.02668987316
0.02648488101
0.02415897227
0.02541223675
0.05954400097
0.0409283093
0.04061108466
0.02705879409
0.02845166309
0.05290388462
0.06613384209
0.04404762436
0.04425223872
0.04329711105
0.04324234094
0.0648052742
0.0249462323
0.0249972956
0.03469780872
0.05243465884
0.05212154194
0.05385963136
0.05349450535
0.03528247442
0.0205430264
0.02030898442
0.02110731385
0.02083589923
0.02088239062
0.01644665217
0.02315421182
0.04272656845
0.03805866107
0.04993989501
0.04815072965
0.03275264953
0.02532391021
0.01763505141
0.02266641925
0.02404956287
0.03825312987
0.02218343867
0.0224676471
0.02153064224
0.02224154024
0.03832217008
0.02182605184
0.02160153418
0.02263520659
0.02239399353
0.01964688208
0.03302499625
0.03268001737
0.03343439211
0.0331635267
0.01972890731
0.01908776747
0.03199849828
0.03023141826
0.03255336929
0.0319991948
0.01907852166
1.154952253
1.155316224
1.155581105
1.155475952
1.15612043
1.155980432
1.156382149
1.157366058
1.156609448
1.157733275
1.0438022
1.157411331
1.010021212
1.154638784
1.155426014
1.155283999
1.155782337
1.157213727
1.156267735
1.136191124
0.9217171457
1.157784639
0.8654839905
0.7404225461
0.9683957884
0.7126869351
1.154801973
1.156404075
1.155574175
1.157125413
0.8994327478
1.133280683
0.8203167054
0.6332283111
0.8410731356
0.5851910127
0.4765470647
0.6687954724
0.4508748526
1.155646023
1.037158086
1.156814678
0.9330255689
0.6715087208
0.8325702789
0.6010827932
0.4330674802
0.5750929377
0.3886358427
0.284188532
0.4215959894
0.2585383208
1.157163468
0.8598350126
0.9850744212
0.7641267911
0.5324080116
0.6288887269
0.4693443686
0.3118263735
0.3953152517
0.2674797343
0.1603915399
0.246793091
0.1336314271
1.075551645
0.7661910119
0.8301028674
0.6821244511
0.4743236364
0.5101491445
0.4165028011
0.2691840475
0.2934711381
0.2286129202
0.1084318563
0.1413715022
0.09910241466
0.0599827161
0.09442758243
1.010093097
0.7350876909
0.7539364628
0.6626273847
0.4835973109
0.4709753143
0.4345231171
0.3152001194
0.272733845
0.243581097
0.2113268201
0.198618029
0.09987473915
0.08599224848
0.07765001824
0.9846305528
0.7445522158
0.7347467429
0.6817724486
0.5311786608
0.4943961262
0.4922836846
0.4067704816
0.3358205977
0.3354838383
0.3152873661
0.2832778262
0.2554649961
0.2561854453
0.2211252706
0.9800553177
0.7696752695
0.7497646415
0.7147537062
0.5854463143
0.5451787962
0.5534223731
0.492947363
0.4305106967
0.4440205984
0.4422489879
0.4126694843
0.4609587421
0.4746511763
0.4601104677
0.9920322229
0.8009252329
0.7770942572
0.750270148
0.6293980209
0.5976607606
0.5988557743
0.539089605
0.5089128869
0.5183206296
0.5242751206
0.5110887949
0.544889636
0.4030670796
0.4171417985
0.8094090128
0.6385579967
0.5438393779
0.5284792771
0.5404499048
0.5290311841
0.4702290399
0.3267673958
0.3412923753
0.1899595626
0.1630118929
0.1753478214
0.4509665387
0.4448893458
0.3995339823
0.4217692188
0.4356743846
0.5677179112
0.3460528814
0.3603854915
0.5008022803
0.04074216311
0.053992158
0.09467513902
0.07994275116
0.05067556006
0.3810774315
0.3482512601
0.3634160565
0.339672331
0.3290252393
0.3864158487
0.2543098503
0.3099763672
0.3133564914
0.4925458185
0.4692264203
0.4675986099
0.5046120833
0.4644397747
0.512380641
0.4012987735
0.4555443439
0.4849137243
0.4584196443
0.4718374551
0.4789535967
0.2201118868
0.28315613
0.2783444282
0.3114585601
0.3067749094
0.2428757301
0.5345407031
0.5318541064
0.527230504
0.5982536092
0.535092287
0.5476671622
0.5131237446
0.5445710866
0.5984078494
0.3841329267
0.3983721826
0.5362522107
0.1399503523
0.211266024
0.2073199674
0.2375071656
0.232450091
0.1726615014
0.5326985006
0.5355035421
0.5478901967
0.3076452224
0.3220399122
0.4668000473
0.08390642301
0.1473682696
0.1494019059
0.1705712892
0.1664212941
0.09814798889
0.086304539
0.08331589558
0.07231238288
0.1746218854
0.1775201023
0.1625373947
0.03703688528
0.03037956446
0.02883569743
0.06152173948
0.05366670036
0.06035567888
0.2653705496
0.4533074966
0.4388731791
0.3913548922
0.4549842828
0.2701072094
0.3691416652
0.4316330107
0.3677068595
0.2133541167
0.1296818404
0.135383878
0.1029318462
0.1069388883
0.2063334088
0.2554407327
0.1629337363
0.1712694914
0.1372662358
0.1430065308
0.2289956111
0.1856466699
0.2462400064
0.2414881141
0.273585782
0.2688799598
0.2063054584
0.5451645031
0.4402478169
0.4539636787
0.1599219057
0.1291519088
0.1313013852
0.1072301714
0.1087131532
0.136017988
0.1907461075
0.09796986391
0.1016550095
0.1337736199
0.1364007844
0.1667988265
0.1092772934
0.1785842502
0.1744409346
0.2033329042
0.1993291023
0.1271197286
0.5094921886
0.3651580461
0.379402556
0.1037629396
0.07846990969
0.07943339422
0.05447256783
0.05522777454
0.07964210433
0.1308453618
0.1043314385
0.1058847093
0.08048822455
0.08149041898
0.1080832024
0.1487874857
0.3028932021
0.05073916578
0.03190625686
0.03224060383
0.076189488
0.05327035701
0.0538634632
0.03310233119
0.03521194012
0.05583323636
0.2538914307
0.2289268918
0.2609341331
0.1503439677
0.1953924554
0.2357299219
0.1549096337
0.184150824
0.1357741871
0.1050054057
0.09347211321
0.1082410027
0.05364055981
0.07730836807
0.09324976134
0.05992121987
0.07009111321
0.04874927378
0.3308605018
0.2932794855
0.2854536015
0.3055075836
0.2969409092
0.3670167756
0.2126354438
0.2724459731
0.3112442667
0.1313403176
0.1472719206
0.1922288986
0.1025190077
0.1326625057
0.1166484338
0.1543192087
0.1398424976
0.1206260166
0.01403899596
0.01146648897
0.01138661296
0.02208034374
0.0196743585
0.02155420432
0.03113645242
0.02010837752
0.03819858547
0.0238446702
0.03507124888
0.01694777388
0.02146894073
0.03691192024
0.1551209582
0.1499498902
0.08613872817
0.2602068967
0.2039004415
0.2089770549
0.1948393035
0.2001932681
0.2556715673
0.1086645348
0.09090080157
0.09857240329
0.06195914379
0.06931439343
0.07378674721
0.143532206
0.1550096046
0.1188366078
0.03752135716
0.03364821258
0.0394193611
0.01969380019
0.02686829161
0.0331399277
0.02345125453
0.02493002478
0.01824544006
0.05073044168
0.05211984852
0.05647956901
0.03122226024
0.03408466742
0.03117563543
0.05365711831
0.04691760334
0.04148532006
0.1172866601
0.1272257699
0.2114051048
0.2084674554
0.108366465
0.1141739683
0.1534891838
0.1604583932
0.2494301097
0.2337682011
0.1449978121
0.1512892127
0.1190493502
0.1206080669
0.150191617
0.1447110837
0.1159950476
0.1175187858
0.1512980173
0.1532289874
0.1842832817
0.1778716107
0.1474775673
0.1493771908
0.07222986403
0.07326210763
0.0966650683
0.09092527696
0.06789860801
0.07023299976
0.09030499108
0.09278942059
0.1208106472
0.1155969454
0.08697036082
0.0884159481
0.1903777103
0.0497761528
0.0505053436
0.07108782733
0.06774470054
0.04834018908
0.04938642533
0.01480490301
0.01453511896
0.2192038048
0.2152070198
0.1420466041
0.3350184162
0.2750475547
0.2796353639
0.2660790258
0.2705345665
0.3303102484
0.3539130751
0.2935147177
0.2983373108
0.2843080245
0.2890287585
0.3492137517
0.1703714768
0.2287583592
0.2235201295
0.2789942171
0.2217910896
0.2263291738
0.2129110054
0.2176274018
0.2744347241
0.09674654061
0.1627502367
0.1583502389
0.255173199
0.2505342796
0.1894362179
0.3728736041
0.3122674776
0.3170390264
0.3028540753
0.3076398982
0.368157292
0.0599003544
0.08314673843
0.0819781728
0.08523566673
0.08411065121
0.06045076702
0.1376646463
0.1100909373
0.1115741763
0.187118682
0.1827826594
0.1114725953
0.2976621199
0.2395289624
0.2440306853
0.2306178085
0.2351069113
0.2930249233
0.3162817372
0.25724833
0.2616511408
0.2484542668
0.2528480677
0.3116318301
0.1254031997
0.195310801
0.1912622811
0.07650084291
0.07739826649
0.1023139006
0.05624966746
0.05570181174
0.0362628795
0.08109179179
0.05623030349
0.05787363584
0.1008229501
0.1028151583
0.1291380115
0.05719244814
0.07864990346
0.07653786886
0.08109014007
0.07972500632
0.05752949091
0.03699500949
0.0574475341
0.05687366603
0.05864917152
0.05805827975
0.03726318141
0.1095645447
0.0825417621
0.08357432892
0.05213152071
0.05272414301
0.07516526218
0.05938590373
0.03943858276
0.04435892761
0.01397945063
0.01222395126
0.01482971714
0.009237976671
0.01004618205
0.01953544677
0.01752583474
0.01598730884
0.0966856879
0.1019487697
0.07025976646
0.09454084624
0.09788024267
0.08891145017
0.1198402034
0.1078377678
0.1020415303
0.07236112463
0.06836497669
0.06313665555
0.08112556732
0.07431125394
0.07770309046
0.074546223
0.07757029485
0.08660066476
0.1463796833
0.111044591
0.1171804519
0.0996137551
0.1044183425
0.141488092
0.1369910237
0.1270659
0.1301089694
0.1210785632
0.1248551817
0.1556462339
0.04372745247
0.04761727568
0.04575497267
0.0516042609
0.04926753872
0.04605531929
0.05852648148
0.05498839183
0.0570812499
0.09501920859
0.06891264593
0.07148324038
0.05486913596
0.06117264829
0.09024697981
0.1040732587
0.07688130917
0.07759342481
0.07468371155
0.07522865145
0.1022702432
0.07499313124
0.04848298071
0.04888085044
0.04767700561
0.04810457575
0.07417991592
0.07917415315
0.05030235032
0.05167838744
0.04925320036
0.04968552705
0.07777675572
0.1230349611
0.08955847517
0.09073876726
0.08728051823
0.08842174563
0.1212343654
0.1311907968
0.09473089115
0.09665203961
0.09196423253
0.09326056699
0.1289202249
0.1098540265
0.08080658144
0.08180583301
0.07879343678
0.07970944719
0.1083122417
0.1160938316
0.0850209263
0.08613829852
0.08285605378
0.08391150646
0.1144633728
0.07187820781
0.04697889839
0.04731732265
0.04625386811
0.04659937107
0.07113460747
0.09817805579
0.07455882497
0.07539366157
0.06061125794
0.06444088663
0.08824893358
0.04213695896
0.06637421641
0.0634847571
0.0740939836
0.07040679152
0.0470425284
0.1224367623
0.095693317
0.09848065939
0.08464609999
0.08575012794
0.1140445058
0.03791637218
0.05992074573
0.05927143914
0.06175708018
0.06070257118
0.0381922381
0.07200851137
0.05097801469
0.05161108224
0.04598345271
0.04799299832
0.06668819711
0.2926531219
0.2879169218
0.2247098266
0.4106924813
0.350481837
0.3552528259
0.3408945656
0.3456939155
0.4059763359
0.4293445653
0.3695244318
0.3742691501
0.360018194
0.3647773704
0.4246794366
0.2383302913
0.3020850717
0.2973736348
0.3918113629
0.3312943895
0.3360927037
0.321749772
0.326532246
0.3870898372
0.2020533366
0.2642818133
0.2596500616
0.125482874
0.1272279032
0.157833915
0.06804057052
0.09692931786
0.0955215648
0.1007537322
0.09860213867
0.06924087896
0.07891677167
0.1068531999
0.1035797083
0.112561646
0.1099483887
0.08308341973
0.1691633559
0.1389950579
0.1413894894
0.03799308643
0.03596749735
0.03393469944
0.04147565817
0.03916955396
0.04117670504
0.03430957996
0.03698352406
0.04005852426
0.06502450931
0.09185602232
0.09070558105
0.09424234781
0.0930271351
0.06569191444
0.1520543307
0.1221937808
0.1238066524
0.1130093811
0.1145121869
0.1429597101
0.06244261971
0.08738755163
0.08627008535
0.08958829687
0.08846675767
0.0630759113
0.09433918112
0.12297751
0.1214048258
0.1262506056
0.1246254882
0.09557987794
0.1863764026
0.1551829049
0.1571605789
0.1435573054
0.1455400385
0.1758244391
0.08938094515
0.1164893974
0.1147714548
0.119759777
0.1182214485
0.09091614462
1.155567386
1.15557946
1.156025155
1.155602499
1.15563577
1.156044996
1.155684826
1.155755352
1.156079283
1.155853497
1.155984877
1.156151955
1.156153599
1.156360367
1.156272162
1.156599078
1.156868656
1.156426889
1.157165465
1.157410859
1.156556029
1.154655071
1.154661677
1.155110523
1.154684216
1.154726798
1.155145311
1.154787445
1.154872587
1.155361979
1.155234882
1.155303239
1.155453957
1.155565209
1.155693278
1.155753751
1.156145716
1.15635263
1.156266479
1.157007576
1.157276014
1.15699878
1.158057832
1.100903733
1.157776796
1.153770742
1.153801028
1.15422568
1.153865562
1.153970895
1.154335098
1.154106885
1.154456291
1.154737522
1.154746352
1.154897072
1.154962946
1.155531871
1.155810667
1.155714032
1.156887799
1.157364155
1.156950058
1.035640193
0.9790620175
1.062512835
0.8573295733
0.825317435
0.8967523872
1.15293371
1.153006206
1.153390588
1.153144162
1.153363363
1.153645438
1.153710618
1.15442089
1.154412355
1.154655725
1.154969545
1.154893325
1.156294624
1.15691996
1.15649484
0.9688682631
0.8926032059
0.9735013415
0.7145983173
0.6701153647
0.7408685043
0.5747786738
0.5555240742
0.6248738979
1.152172985
1.152316675
1.152645019
1.152578241
1.152984908
1.153145113
1.15362755
1.154949933
1.154487379
1.155121873
1.155739178
1.155460705
1.04849977
0.9464315264
1.013203749
0.6985404121
0.6326210462
0.6881767866
0.4767249111
0.4364559862
0.4874418612
0.3459881026
0.3254971769
0.3753621981
1.151509901
1.151757755
1.152018917
1.152206172
1.152899686
1.152907889
1.153950111
1.156144796
1.155189595
1.156350761
1.152376882
1.156872375
0.8366243314
0.7458525007
0.7877802786
0.5261190746
0.4656723087
0.4996636154
0.3189540157
0.2800162457
0.3125386077
0.1879350663
0.1663269804
0.2004470341
1.150959183
1.151361336
1.151544681
1.152065603
1.153149735
1.152988818
1.154744904
1.157738868
1.156524504
1.123436587
1.01356038
1.04343629
0.7143431822
0.6334823248
0.6537217641
0.4328831618
0.3772929984
0.3921480075
0.2362062322
0.1960305918
0.2100765094
1.150517136
1.151167434
1.151259362
1.152192491
1.153742785
1.153420248
1.15593202
1.113655824
1.158169027
1.03954163
0.9319396855
0.9468597375
0.6663384091
0.595130126
0.5987648773
0.4183092428
0.3688314551
0.3638838377
1.150239948
1.151188923
1.151180651
1.152586941
1.154627301
1.154181566
1.157355084
1.080023095
1.102346423
0.9941954886
0.8981914407
0.8994519032
0.6693940992
0.6086077362
0.6029493345
0.4614512535
0.4223621452
0.4056633239
1.150178781
1.151428297
1.151316507
1.153225107
1.155738913
1.155212841
1.158901651
1.066237262
1.077232304
0.9797956616
0.8961970058
0.8949364576
0.6974587067
0.6455251557
0.635459916
0.5240640678
0.4944941969
0.4767262922
1.150327542
1.151879973
1.151662633
1.154068102
1.156993303
1.156442938
1.160503831
1.068536656
1.071658547
0.9842728264
0.9100877188
0.9055208314
0.7324138921
0.6859070026
0.676080737
0.5784965251
0.5533161549
0.540914923
1.152177052
1.157820329
1.081826325
1.003450396
0.9359168323
0.9280662035
0.7686771531
0.7237828378
0.7143165384
0.6155765802
0.588045043
0.5811182902
0.07324118489
0.07306663702
0.0905392976
0.06737352225
0.05566817185
0.3863722467
0.3745357361
0.3941582751
0.2394264263
0.2612787258
0.2590081824
0.5437717896
0.5251993474
0.5391965861
0.4149668124
0.4333571153
0.4467074043
0.5909002952
0.5774818238
0.5727818537
0.5540413537
0.5636550958
0.5876878253
0.1360518006
0.163554116
0.1616323989
0.5700535773
0.5634186073
0.5712647475
0.07867216702
0.1031908986
0.1013534327
0.1286310487
0.1268706039
0.101060894
0.2564527138
0.3208134706
0.3161292363
0.3499396356
0.3448747931
0.2799312114
0.1674366234
0.1696143622
0.2018775675
0.1951411039
0.1632320097
0.1653181184
0.1056388407
0.1322097717
0.1303957346
0.159781379
0.1578315828
0.1306002517
0.09958124023
0.09795414927
0.07315558644
0.4212017545
0.1863280597
0.1988251008
0.2180391263
0.1305928473
0.1347557929
0.1147600372
0.06673528751
0.07471633606
0.08191525499
0.04887791628
0.05027537528
0.04358515862
0.2953964696
0.3598592473
0.3545710537
0.2060504038
0.2263950122
0.237661303
0.1658366598
0.1684127042
0.1860863918
0.09043600189
0.09981693465
0.09284657455
0.02799969646
0.02807884296
0.03441627244
0.1149205067
0.1131200903
0.08953927303
0.02305283276
0.02580195769
0.028441241
0.01739205283
0.01837935889
0.01614293355
0.1897654412
0.1952060409
0.2151301859
0.2124992456
0.1821337982
0.1855498033
0.01156389782
0.01161747343
0.01388353345
0.1730166434
0.1720222788
0.146798063
0.1577636302
0.1734843234
0.1736391297
0.09391359749
0.1183210246
0.1165047203
0.144563859
0.1424561443
0.1161186773
0.1219783081
0.1484621974
0.1464954605
1.155054777
1.155169179
1.155084513
1.155379439
1.15526099
1.155172454
1.155510286
1.155373944
1.155469257
1.155667252
1.155662257
1.155503977
1.156029506
1.15582535
1.155875501
1.155855877
1.155819471
1.155985794
1.156683496
1.156486893
1.156234521
1.157026032
1.156733783
1.156991844
1.15642471
1.156545292
1.156790982
1.141903837
1.157671165
1.157314552
1.115025024
1.157954359
1.098388946
1.157191655
1.157534777
1.157825968
0.9690495171
1.036999362
1.090117256
1.019782777
0.9453484313
1.146190199
1.090631683
1.154858517
1.154860946
1.154678315
1.155333422
1.155079229
1.155120695
1.155109867
1.155077108
1.155287821
1.156191792
1.155965039
1.155628568
1.156792547
1.15635148
1.156664913
1.155973032
1.156127524
1.156483373
1.059645593
1.145529184
1.157307817
1.007315119
1.07597879
0.9872977425
1.157376434
1.157809932
1.095116254
0.8163597425
0.8961637722
0.9486829812
0.8147832785
0.8526762653
0.7752884871
1.015353601
0.9331539366
0.8912248802
0.6911540396
0.757192798
0.784081823
0.7358296155
0.6678457651
0.8762441932
0.8070712385
1.155252066
1.155090835
1.154714087
1.15606668
1.15553827
1.155786702
1.155207443
1.155342529
1.155779936
1.083131062
1.153398815
1.156697566
0.9732809435
1.063208249
0.9878875388
1.157086274
1.13913432
1.052983574
0.7500537095
0.8180990087
0.8912290307
0.6968181066
0.7536012384
0.6879776036
0.9032805069
0.8253240173
0.7660700427
0.5433761502
0.6042544022
0.6472285586
0.5362117493
0.5674517893
0.5073266125
0.7017199992
0.6323529555
0.6005370703
0.4294155126
0.488892269
0.5101815787
0.4763752599
0.4143333523
0.6040898308
0.5409701404
1.156464388
1.156064978
1.155355443
1.0931576
1.15688259
1.140933132
1.156081715
1.156466414
1.148705121
0.8359025524
0.8888945658
0.990197256
0.7173964056
0.7989922114
0.7503609022
0.9186059883
0.8540812146
0.7720902946
0.5375378041
0.5829682171
0.6459976378
0.4753301801
0.5262582119
0.482282672
0.6281424112
0.5742143182
0.5224863857
0.3488617409
0.3905673232
0.4303115553
0.3253955292
0.3556029164
0.3142782963
0.4519996883
0.4014343212
0.3712794188
0.2378869961
0.2797002258
0.3000679073
0.2639566727
0.2225062254
0.3589416055
0.3093496707
1.077635113
1.112930995
1.156760213
0.8962739796
1.003006881
0.9662542091
1.092221249
1.046114811
0.9378861667
0.6791103145
0.7099033618
0.7981190999
0.5589826751
0.6306844585
0.6023042126
0.7047395065
0.6647514106
0.5911651161
0.4117616349
0.436540222
0.4949151378
0.3350746344
0.3830614471
0.3593641248
0.4447716589
0.4111945626
0.3629122772
0.2293727842
0.2523540995
0.2912117116
0.1854622899
0.2168979535
0.1934545776
0.277581803
0.2454924654
0.2142098114
0.1107928213
0.1370272703
0.1575349649
0.1221394815
0.09436143198
0.1852202021
0.15048651
0.9650484548
0.9870903251
1.096822657
0.7826516097
0.879597211
0.8600539432
0.9330317633
0.9040361816
0.803845707
0.606059019
0.6173753697
0.695885071
0.4817078583
0.5464885017
0.5372133261
0.5786274755
0.5607774078
0.493788484
0.3633379823
0.3677609139
0.4223544862
0.2717294507
0.3175585847
0.3142235121
0.3404383859
0.3264693921
0.2800703546
0.1871630207
0.1875448403
0.2289601396
0.1146254601
0.1515430024
0.1489697993
0.1745092508
0.1614045921
0.1245884875
0.06833898739
0.08022159608
0.07394301612
0.9072204436
0.9194953589
1.024794515
0.7385724645
0.8235521253
0.8159935091
0.8449388264
0.8331211024
0.745151484
0.5974358596
0.5940379331
0.6625617379
0.4756251311
0.5318299629
0.5380784989
0.5318824317
0.5304665788
0.4719073154
0.3908902048
0.3781366616
0.4246463848
0.2971211375
0.3356118155
0.3509263821
0.3165089192
0.3237727271
0.2824757554
0.8950680593
0.8966710041
0.9897972875
0.7402783596
0.8136042308
0.8151211642
0.8122215723
0.8126161149
0.736954448
0.6256267456
0.616315836
0.6749481254
0.517551666
0.5638898554
0.5754828478
0.5463535127
0.5540455747
0.5052675348
0.4584930447
0.4402060142
0.4764767627
0.3825246517
0.4089343969
0.430065126
0.3683970606
0.3880483403
0.3585407049
0.9016422845
0.8985532914
0.9804880577
0.7625565751
0.826316391
0.8316096397
0.8177810947
0.8216383314
0.7558456349
0.6659946568
0.6557626681
0.7060014712
0.572497665
0.6113382506
0.6229368679
0.5874929193
0.5994725249
0.5590115288
0.5268545408
0.5113188303
0.5391888851
0.4742119984
0.4894712253
0.5064816216
0.4508207353
0.4707705509
0.453203719
0.4713871043
0.4605576637
0.476405221
0.4470310199
0.4611649694
0.459341964
0.9213106557
0.9152925912
0.9891728163
0.7926664315
0.8503540238
0.8576382651
0.8373885933
0.8436593732
0.7847532119
0.7050113331
0.6955238864
0.7412807939
0.6195788333
0.655006719
0.6647734916
0.6341430453
0.6448192
0.6090191465
0.5732364164
0.5640557119
0.5892332298
0.5318492151
0.5446177973
0.5530097274
0.5214233456
0.5341437784
0.5219161385
0.4077898645
0.4637185346
0.4589898971
0.4728244705
0.4681582788
0.412445451
0.8653579643
0.873608706
0.8184678773
0.6741343261
0.6834138445
0.6473750391
0.5595017285
0.5650860322
0.5476043296
0.3317205991
0.3880711441
0.3827021312
0.3977522358
0.3929048289
0.3364612686
0.4264292443
0.4817971914
0.4772096321
0.4905917779
0.4861057355
0.4310375236
0.3508774564
0.4073680279
0.4023512158
0.4169249765
0.4120530867
0.3556237071
0.04414091527
0.05892709611
0.05894521575
0.06720944779
0.06219521477
0.04798164508
0.09245373896
0.07510683759
0.07975262924
0.06993500246
0.06082777745
0.07142157066
0.04264345795
0.05140903944
0.06002668133
0.04530817474
0.03667325745
0.3307677497
0.3522810335
0.3638371053
0.3848988421
0.3691781801
0.3659693454
0.286109869
0.2847244404
0.307322741
0.4909236634
0.5075659553
0.5244113028
0.4861338825
0.4909183358
0.4796692062
0.5196779914
0.5113697868
0.4913800552
0.4223748334
0.4225666495
0.4077220596
0.4576825342
0.4447355566
0.4339084143
0.4657600192
0.4533428183
0.4711519721
0.4628351329
0.4997640301
0.5122302043
0.4774798419
0.4962404066
0.4673431274
0.5799942039
0.5782555633
0.5954296516
0.5492130938
0.5558389163
0.5612379044
0.552394611
0.5606910969
0.5360800274
0.5323761236
0.5410985265
0.5371845964
0.5529156949
0.5540475023
0.5278496919
0.5950450222
0.573043517
0.5765547236
0.3888993852
0.4452274787
0.4404151217
0.4545103473
0.4497478139
0.3936226086
0.1672283326
0.1653797564
0.1379674803
0.5476550145
0.5469936497
0.5561824209
0.5307192326
0.5363890678
0.5338847272
0.5620957788
0.5548091073
0.5481561276
0.312364331
0.3700117327
0.3658166977