/*--------------------------------*- C++ -*----------------------------------*\
| =========                 |                                                 |
| \\      /  F ield         | OpenFOAM: The Open Source CFD Toolbox           |
|  \\    /   O peration     | Version:  v2012                                 |
|   \\  /    A nd           | Website:  www.openfoam.com                      |
|    \\/     M anipulation  |                                                 |
\*---------------------------------------------------------------------------*/
FoamFile
{
    version     2.0;
    format      ascii;
    class       volScalarField;
    location    "3";
    object      omega;
}
// * * * * * * * * * * * * * * * * * * * * * * * * * * * * * * * * * * * * * //

dimensions      [0 0 -1 0 0 0 0];


internalField   nonuniform List<scalar> 
3019
(
31.93084489
31.93171842
31.93264713
31.93348574
31.96668625
31.96723738
31.96769327
31.96863743
31.97052594
31.97384112
31.9788207
31.9846116
31.79430859
31.79682788
31.79944014
31.80170367
31.83563883
31.83758115
31.84018221
31.86007363
31.86887399
31.88445514
31.90792315
31.93546416
31.65941376
31.66394119
31.66849524
31.67215063
31.70645897
31.71038936
31.71654197
31.74204765
31.76354445
31.80074031
31.85480826
31.91815452
31.52617493
31.53207195
31.53805857
31.54303553
31.57874074
31.58599053
31.59895825
31.63621396
31.68163933
31.76160084
31.87706693
32.00905122
31.3948968
31.40264327
31.41035792
31.41712104
31.45401098
31.4661085
31.4901645
31.54637768
31.63808731
31.80311971
32.07189877
32.41422602
31.26502089
31.27408269
31.28325112
31.29202194
31.3327165
31.35278732
31.39545548
31.48195663
31.64382335
31.98908278
32.66482692
33.87226617
31.13749485
31.14824136
31.15955155
31.17139736
31.21529373
31.24628365
31.31497466
31.4424669
31.72132779
32.39703113
34.11083885
39.65370142
31.01175587
31.0239505
31.03729574
31.05259396
31.10311404
31.14807751
31.24954526
31.42348587
31.8619755
32.99897596
36.4997667
54.25006608
30.88959726
30.90385578
30.92035041
30.94074875
30.99759238
31.05916298
31.19656147
31.42583219
32.04077296
33.62528119
38.51072196
64.99199825
30.77067596
30.78668321
30.80611009
30.83227902
30.89833203
30.97911026
31.15303324
31.44410027
32.22363682
34.14578944
39.74728022
71.9706395
30.65739427
30.67581811
30.69927517
30.73320088
30.8050434
30.90705198
31.11715871
31.47391688
32.4020852
34.58708428
40.77543999
81.61792415
30.54810261
30.56844186
30.59536782
30.63677121
30.71777299
30.84159752
31.08779793
31.51137519
32.57444603
34.99618231
41.91717356
92.8157961
64.34073601
70.9124708
80.404375
91.47003196
51.95331268
39.48743634
60.76110559
56.78157592
40.54929437
67.43035977
61.44298123
75.52410225
218.3295429
193.8830498
41.68602797
75.54702083
68.37721404
85.46730399
323.5729727
255.0704836
76.5840979
94.9901973
506.0740123
400.7279373
154.5346501
185.256867
97.90112146
149.0174583
190.8661321
170.8230461
67.85600241
225.1038033
241.3794994
191.1356597
221.7879694
251.5992837
222.3522437
76.77448073
286.9830722
333.0530538
243.6334139
283.5886693
396.2221283
327.0899734
86.82806614
402.5816627
507.8054158
336.0886912
398.3600709
516.0796716
95.37198003
706.2343591
513.2189271
689.3361321
38.11075109
56.1995935
48.39769705
60.08544943
122.5516888
85.5743352
67.28314575
168.4117233
146.983437
143.8448159
125.694399
61.40318032
1326.398035
215.0586233
507.9781389
58.55046952
89.77122895
438.9451151
166.4859944
174.5261462
1156.16836
1326.702733
166.8657303
825.8121547
653.1711037
1300.87687
827.8594055
170.5413077
123.4690916
362.4130175
175.0778336
571.3277525
391.8965227
131.803626
534.5951479
830.598298
227.3575478
1469.197849
227.9198489
205.0061989
1399.60801
1323.252033
1460.924959
1409.026689
209.0513014
308.0084056
310.9914524
260.6239029
263.0881367
434.507874
441.5773032
366.3671382
370.6429941
177.4204173
552.5484439
557.4641083
100.9742115
197.3933818
295.9820254
134.4774153
139.5313104
128.2543474
132.868922
290.0684436
157.1066813
164.1103123
434.0524631
238.2791223
122.542204
126.797023
693.4729417
678.7956527
323.2636425
357.4810443
148.7651668
154.9553183
141.2881997
146.8137064
352.8965012
415.2774003
1019.030834
1008.151692
1630.77122
1581.385668
485.8087783
347.7625878
732.6827581
695.9488024
1003.418511
995.4661681
386.3059699
529.5208382
1665.897623
1638.529671
1675.102402
602.7472417
1390.282842
1324.94562
334.1771015
362.7618081
1269.134353
1284.382353
809.3275779
285.306892
308.1945987
258.5018544
278.6583542
801.1954737
882.8839124
351.4138664
385.339299
316.5956264
342.3094496
888.7877313
505.0768185
233.8856234
252.6883337
739.4646859
773.6330122
1515.963813
499.1427417
564.8303355
472.6842027
487.8720669
1476.913286
617.3821581
629.7276294
586.6001016
612.9583161
1372.59487
416.98522
431.3362263
394.0301755
411.9544286
1361.50481
1439.194734
454.3257623
467.6028673
436.0286356
449.7831489
1434.58676
954.7607941
960.9504092
926.5047452
952.7679365
975.6505459
989.8206574
963.1696919
972.6543464
649.1579891
661.0364687
633.6012346
645.0847622
704.6918206
881.8005539
666.7203092
680.8247313
1034.041689
1025.507772
419.8711098
1658.041601
1663.395304
1622.696232
1647.707401
1711.264649
474.4105779
1543.776365
1089.893963
962.800501
754.2098858
352.0678915
1041.6096
1519.557336
990.8054743
1051.900796
1583.919522
1609.74177
1540.324856
1573.052827
382.3864317
992.9567968
981.9897659
1702.082687
1671.418446
534.6197079
586.0385052
1770.92693
1705.179826
207.0506938
112.2656428
115.9649538
107.5800023
111.0754924
203.6091402
117.2348491
121.1853649
234.2947724
296.151222
641.5649602
614.483013
592.0248073
524.8117969
273.8505323
1352.118945
1204.085956
1601.398278
1311.722676
819.1683913
556.631579
564.8558541
1262.944553
776.5552929
818.6075576
569.8920918
581.2478567
842.5462181
206.5204088
228.4285557
477.2887606
606.723854
1090.229674
784.3769059
1264.23819
1314.340192
834.3453157
1823.113702
1321.332043
1374.287965
910.0890699
912.5128016
1473.929584
1482.015636
1496.003046
1406.897965
1429.051158
1388.779453
860.5938569
865.0437644
836.4899847
842.6870888
1337.864527
1454.280769
898.8388245
903.0119539
869.8156389
874.6459068
1417.829434
658.28756
646.1056465
299.1378085
320.2588783
674.7618305
662.2166887
493.113056
480.5927358
253.1371852
1534.324024
1536.761428
1501.503176
1506.54127
1896.847441
1544.576919
1545.666346
271.0415526
513.3274092
498.1589548
1017.118982
705.9665122
709.7165751
1615.836875
1027.627021
1031.803867
1000.142349
1021.021993
1604.157539
1655.367233
1670.613223
1655.444099
1038.123393
1041.888066
1033.66637
1036.379554
1648.635716
1591.699457
1633.958952
1117.227668
1529.841345
2111.953621
1351.097186
1680.551005
545.7122359
735.2176191
1137.187273
1243.273778
764.7068669
1111.433122
1451.223886
1243.990339
1304.5437
629.8849986
704.2107957
1215.966618
841.6179519
585.8256906
609.8139837
1204.626453
1167.71879
695.735989
1196.614483
1536.381588
778.2503587
1258.953487
1242.162615
971.2454965
963.5473757
1439.163921
1484.128457
924.2973711
921.0883105
1462.640387
1474.521469
1441.518098
1453.559218
853.4853917
857.3689557
1383.923986
1349.968306
846.3905339
849.8420882
888.6216831
892.96695
1445.360826
1427.516503
879.7564368
884.2568805
956.9636105
1525.472404
1515.265632
1539.817695
1533.097897
958.8285073
944.1328875
1480.826047
1463.213119
1505.698438
1494.304659
949.9108786
980.8148124
1584.357831
1574.473629
1598.870324
1589.255878
983.3554683
965.8482149
1552.897707
1547.002838
1568.592158
1559.562624
968.5729462
1523.589848
1527.486584
652.9797807
942.6350405
939.9636796
949.1607521
946.9773451
657.5049184
1513.185181
1517.695407
1589.064992
1506.316361
725.607085
1004.917478
1014.475973
1428.291194
1375.376554
803.048649
669.1817706
956.2035225
955.0903952
963.6797359
967.3366315
679.1719945
1556.426466
1549.33448
1038.222775
729.8505153
731.6529999
716.205424
718.7851984
1026.14652
1658.467962
1672.294367
1628.407573
1644.992025
1616.635547
2050.214856
1479.7746
862.9762835
950.4687218
757.7985888
780.2619309
1079.001211
1426.072747
1969.47842
1559.927297
1483.639765
1002.599189
1612.568492
1599.457075
1648.448538
1605.001466
998.7675827
1591.368998
1602.989389
1552.646821
1564.285329
1687.399301
1051.203884
1059.046391
1043.888393
1049.371271
1683.663797
1723.920736
1072.48422
1129.181712
1060.673073
1075.348083
1727.126574
31.77067814
31.78293604
31.86584332
31.78808727
31.81005083
31.87929062
31.81850497
31.85191896
31.90066553
31.86373566
31.90299292
31.92787942
31.91568785
31.66135053
31.68744473
31.75711132
31.6990835
31.74649194
31.79016575
31.76533864
31.83648078
31.8413792
31.86156836
31.94391227
31.903923
31.96664674
31.5674135
31.62107257
31.66748074
31.64490635
31.74078025
31.73796028
31.78135777
31.93737058
31.84569288
31.99784557
32.19916854
31.97407037
32.23969657
31.49542765
31.59137865
31.60975997
31.63650897
31.832908
31.75222579
31.9242645
32.29953639
31.99527148
32.4594457
33.09136734
32.30520894
33.23268171
31.45042848
31.61253529
31.5923112
31.69612043
32.08228716
31.87849303
32.2730765
33.17436256
32.45440317
33.63724181
36.12948549
33.43835332
37.12461474
31.42698806
31.68789991
31.62631738
31.82464285
32.48876012
32.1690497
32.84191106
34.72645944
33.50414185
35.87850095
46.74749944
37.26248986
43.43644517
50.11623555
41.62929045
31.42340358
31.79891117
31.71095889
31.99498197
32.95784142
32.6015665
33.47769662
36.3313645
35.16448629
37.10258982
39.33797133
38.5106204
56.45322227
64.18907748
61.04808556
31.43841915
31.9276868
31.83053609
32.17811943
33.38510382
33.0702705
34.0252847
37.43108508
36.64625609
38.87486309
41.74042175
41.26546925
65.80314272
78.10290574
76.83275444
31.46572142
32.06030776
31.96079719
32.35779741
33.75649391
33.48233497
34.48203178
38.25992454
37.64540615
40.0275645
43.2699313
42.89040101
73.09228542
97.00949582
94.12420528
31.50136493
32.19262431
32.09380548
32.53182655
34.09665073
33.84314553
34.8971605
39.06120834
38.44383967
41.09244732
44.86431375
44.3584187
82.86170231
113.3277961
109.8880915
32.22568478
34.17779171
39.25769434
42.33463025
48.08133442
46.12201813
95.18532148
136.3941557
131.2891072
75.85888206
74.55408228
63.45560104
93.11031981
89.67021053
69.89933477
108.7972173
105.6258753
79.20322622
129.7022408
125.146514
89.73641116
79.97812502
54.07180283
45.29374845
42.81958076
53.11049416
42.54134145
42.14671622
39.18454939
58.94472399
45.76728145
46.45166021
44.72439713
45.53396221
58.42401639
44.01926943
43.60390065
40.26301742
64.6109996
47.64966131
48.50410617
46.67676076
47.39653748
63.74526319
100.7225749
97.96014661
74.27208886
214.3239247
166.4639608
168.9681123
152.9161924
155.027139
197.0185299
45.88655784
45.20106856
41.31697863
72.27470725
50.24785738
51.54005563
48.81243505
49.87242729
71.28215876
118.2758072
114.5173489
84.13438144
312.9198977
212.9526064
216.2255784
193.2581811
196.8203525
261.6417507
51.94920981
53.24774677
80.49167207
143.7627405
138.1395711
95.75347646
468.4671024
285.3689711
281.1008669
253.4554464
258.6005332
414.5045553
159.0773555
222.3631018
203.9997448
298.190604
278.2772779
179.150355
105.4856304
124.8298433
113.4275119
192.5289941
184.5554975
144.4623066
182.4625793
103.0262845
106.4331187
99.03311107
101.9962481
179.6298186
68.92442824
88.16662246
81.14751191
231.11401
381.6029516
368.9695361
459.8938569
447.4464624
234.7457284
196.3274148
317.5002763
303.6578155
365.0177313
353.5108418
217.1939794
246.610174
187.53264
190.6466698
171.5101136
174.090204
226.3135064
77.99914641
104.6144701
101.6581389
290.1124018
355.2552154
350.5588132
409.1367741
404.9230755
329.574497
250.7652063
476.3147125
464.0153567
345.2029941
339.6614141
280.2418149
381.1740053
244.1858461
248.9118535
219.6565409
223.233125
337.7007166
88.30444385
123.6991641
119.581514
406.7101912
520.5764495
516.1189224
694.9254753
688.1771979
501.7610504
339.646422
417.6309247
412.9570955
511.2212039
506.7565761
394.3111211
281.7362236
145.721378
716.4310285
1065.850653
1058.111903
518.6987545
705.4536523
700.2103849
1035.877851
983.3622403
663.0026394
40.72973782
40.08500936
37.63735971
53.8161054
43.19718815
44.41537959
40.8660847
42.72417885
52.76246054
69.56118121
67.04352322
58.40412344
110.0826669
77.53823641
82.76376528
70.1366898
75.5833812
104.290058
80.85261773
78.97039534
66.35987456
160.4031581
94.18192707
97.87713063
90.85723407
93.30545044
157.474443
136.1663124
87.89617857
90.18698667
83.97233432
87.14482225
133.7961928
62.56745746
73.25220128
71.53133291
252.9672664
321.856041
257.3859431
785.8381789
676.7862319
450.4749733
65.5552744
90.7640265
68.00224329
81.0147004
63.0447808
146.2508824
90.91289418
72.63224663
273.6328042
281.359852
458.5998244
169.1679966
212.557611
208.2022402
220.7921151
215.7726704
171.7162837
244.2232024
227.726324
163.0690474
436.7405076
472.2112391
732.5922604
174.5724062
271.0828002
250.093135
152.37743
139.4771082
114.8048096
279.2959961
184.5795063
199.7331224
138.6922031
152.6325674
249.7366445
547.4216565
392.3447302
409.4199541
305.4499185
319.6524368
415.6561983
138.1125521
175.1919828
164.6792539
415.7711519
387.6594599
232.4260749
232.7281849
443.1503531
425.3827419
333.9230523
321.7110328
200.9640651
213.2853968
349.659391
337.9033388
378.2675816
374.5565349
305.0218976
314.049663
385.7629016
381.9857381
312.2110299
309.0474454
258.0606732
265.7238467
318.6668531
315.4275817
552.8187154
547.2576602
429.2665697
450.6255721
580.9973395
565.3948285
469.4233582
459.0882534
361.9919239
374.6525354
483.4533319
477.3953568
225.0971997
738.7914909
730.9451731
545.7024447
565.9119325
754.9283352
742.165117
122.3699214
138.7078939
206.6728868
209.7907375
309.1731734
136.1287345
165.4357678
163.130029
170.1284777
167.764836
137.811438
129.7728362
156.5342345
154.3547336
160.8427294
158.5957155
131.2955818
264.1555226
199.370166
203.3599673
159.3897084
198.178986
194.8431588
205.0415576
201.3050207
161.6443617
419.0817439
263.2465149
269.2231813
182.0055929
184.8527451
242.6715815
123.9373971
148.4110625
146.4703276
152.3843362
150.333834
125.3447449
687.4130496
515.3398302
520.639683
506.5332192
511.3374126
683.7635256
326.5193579
401.1719453
397.1559347
235.0253711
239.5945281
375.0723205
150.7708011
185.8277515
182.9438041
191.8254247
188.7483796
152.8183811
143.0865879
175.0246113
172.5469103
180.2087873
177.5784857
144.9282438
341.3327622
226.9601924
230.8627751
530.1150868
525.8408491
411.1065188
696.107875
700.4066067
1010.812714
494.7939623
679.0115365
663.6458107
428.8658023
422.2814921
343.1314183
708.0113315
536.2014207
547.9627244
524.3909457
531.1182013
706.3535619
1000.936824
686.8025902
691.146061
677.8930962
682.2051454
997.4653061
390.2455449
502.1134213
497.6854728
715.723764
710.2568388
523.8536473
629.4685675
893.4128389
808.5454466
467.6250147
369.6775543
278.8714523
339.3185171
451.3342641
421.2389988
616.0364033
508.4442615
536.6210723
548.1789915
815.6954772
292.6079293
387.9539218
376.2210762
408.4120407
398.2370524
299.9706746
265.1266495
336.3690527
321.5076721
364.2666821
351.0043838
271.7530568
780.3825193
501.8740771
522.3719857
362.2323707
485.0422068
460.541147
536.4283551
513.9707466
374.372306
325.3668755
426.5358959
416.8899934
446.2624853
433.5028005
333.3448424
365.8983253
376.2515111
513.9725226
240.4841899
287.590993
277.9015761
308.7292399
297.3942075
245.667041
512.7498465
693.4250664
672.4858538
846.0397728
769.6053217
536.3847261
476.5990261
636.7176506
633.8326844
648.7810283
646.9084657
482.9523445
621.5834139
920.2130186
917.5078374
926.250671
922.7069621
625.6329902
599.7781027
906.5974238
888.9753756
915.3899003
912.4120155
607.547628
421.865248
580.3452175
575.5460705
589.7175975
584.9673457
426.6190237
400.8729803
559.0399472
550.4069588
570.5687035
565.2624669
406.6755986
458.6967503
618.1227501
613.622417
627.5283177
623.3846266
463.3997687
440.6651181
599.3827625
594.5690231
608.9148961
604.259212
445.2770065
637.3773964
931.0214217
928.7174197
936.5594553
933.9803828
641.2676088
424.1498499
539.9458661
535.8891457
638.793096
606.7701583
461.7800541
916.0094674
617.075258
640.351067
562.4829825
586.9611454
833.5637013
358.2463911
447.5099508
437.0947336
493.1430368
488.5391205
378.5413699
991.0864656
668.6818605
673.3759386
654.5057667
662.806259
987.9933039
540.7303285
726.6496372
720.4128928
785.3698685
757.6734576
572.4725173
161.70561
164.0498624
210.5948464
113.4774373
133.9883137
132.3382254
137.3989294
135.6756541
114.7127303
108.7571807
127.5802019
126.0551361
130.7207566
129.134365
109.9135044
200.263936
157.194828
159.4224793
118.530291
140.9412197
139.1538893
144.605255
142.7490849
119.8428003
230.2205892
176.6732352
179.3538029
363.3712139
359.5016471
293.2330271
635.9639447
462.3202392
467.3674484
448.4217646
456.2690688
627.9658169
562.8518334
426.8560738
438.217537
408.7265369
416.7434267
538.7884394
276.959984
334.3692542
329.6884469
214.7423765
245.3759672
232.8001124
267.9917781
256.8334898
221.0897317
455.1608657
337.6338073
350.886876
654.313865
480.6800525
484.9865968
471.9619856
476.3722706
650.318075
302.0452921
370.8475794
367.1556271
393.3925843
389.5034812
317.0615572
670.2987685
497.80836
502.3431635
489.2244737
493.5776935
666.2771074
489.1848769
381.5940558
385.3478111
373.9631338
377.7020563
484.6553891
255.6409707
305.9039346
302.787962
325.6273164
322.0608923
268.2708798
508.3670487
397.7584544
402.3621866
389.4097368
393.2311551
501.8876439
31.90222375
31.90282239
31.96744427
31.90371703
31.90540062
31.96785661
31.90659568
31.90897711
31.96944822
31.91233612
31.91683886
31.97197126
31.922628
31.92973835
31.97613988
31.93799147
31.94688642
31.98174213
31.95581103
31.96291022
31.98739266
31.77186586
31.77251245
31.83663264
31.77370394
31.77542178
31.83869909
31.77776297
31.76829872
31.85863963
31.82969177
31.83187351
31.86159216
31.84082546
31.8449744
31.87164385
31.86056444
31.86734457
31.8889849
31.89020803
31.8991526
31.9139668
31.92513955
31.93334051
31.94121075
31.64369605
31.64519716
31.70833517
31.64792085
31.6518279
31.71303001
31.65698367
31.65554352
31.73867351
31.71436778
31.71945012
31.74636661
31.74037535
31.74991812
31.77153554
31.7857612
31.80122231
31.81353993
31.85209357
31.87191565
31.87119981
31.92570515
31.9433922
31.93305386
31.51725333
31.52029209
31.5818599
31.52534606
31.53287984
31.59164184
31.54297764
31.55518278
31.62866201
31.61241165
31.62275285
31.64501422
31.66673407
31.6866263
31.69840718
31.76312707
31.79401465
31.78850159
31.90406351
31.94603948
31.9095267
32.05851649
32.10012528
32.03244248
31.39441718
31.39990274
31.45915075
31.40877684
31.42182095
31.47608741
31.44126631
31.47350935
31.53192398
31.52757835
31.54790087
31.56392935
31.63286065
31.67288172
31.67129343
31.83345801
31.90416924
31.86068812
32.1697139
32.27441193
32.15173989
32.58160993
32.72624993
32.45680645
31.27507953
31.28422357
31.34101011
31.29898385
31.32073739
31.36978828
31.35341283
31.41480054
31.45635876
31.47013176
31.50441972
31.5125425
31.65685685
31.73301569
31.7081507
32.06894485
32.22994839
32.120625
32.92494544
33.24583911
32.90734023
34.49651837
35.14780876
34.0953269
31.15996977
31.1739792
31.22774431
31.19651434
31.23030905
31.27376804
31.28063922
31.37446991
31.40296229
31.43612876
31.48999403
31.48997826
31.75288541
31.88814836
31.83934259
32.53451272
32.87511368
32.68254433
34.64944038
35.69242528
34.88512997
31.05056016
31.07111506
31.12075613
31.10341036
31.15179499
31.18906794
31.22207827
31.3494372
31.36640422
31.42214108
31.50351294
31.49693381
31.90641052
32.11650266
32.05248796
33.16454131
33.74516034
33.52027887
30.9473005
30.97604523
31.02120362
31.01962335
31.08402269
31.11571328
31.17440168
31.33900241
31.34569827
31.42924045
31.54129617
31.53016119
32.08657493
32.36807922
32.30541326
33.76542503
34.5319862
34.35282378
30.85053365
30.88894996
30.92922639
30.94475523
31.02547
31.0519736
31.13543366
31.34135438
31.33871173
31.45080233
31.59337028
31.57925845
32.26877411
32.61048449
32.55139091
34.26210554
35.14596877
35.00382047
30.76088091
30.8093392
30.84463922
30.8778877
30.97481357
30.99604731
31.10420102
31.35275257
31.34332574
31.48268056
31.65422653
31.63870459
32.44525531
32.83747078
32.78222674
34.69183278
35.66770527
35.53948222
30.76649148
30.9462324
31.35649049
31.52088434
31.71960379
31.70391128
32.61691907
33.0551407
33.00099097
35.10139299
36.17289953
36.04072006
56.89523349
53.40026433
49.58257447
45.55768013
48.16026753
60.11219667
53.76906118
54.19466009
51.33857424
51.77970875
57.36475304
66.47429066
57.88316792
58.55483651
54.63175187
55.09956333
62.16759087
74.36405024
63.85737636
64.72559531
59.24680216
59.97353721
69.33377786
320.0736934
270.2101646
272.7548526
65.55799545
66.48400469
77.96385558
493.8913219
390.3960062
396.0648533
327.5752053
331.1551865
405.2721771
187.9666719
148.8579495
150.8628958
137.3465838
139.2538511
173.9682355
287.5030147
284.4504263
239.083042
246.006628
293.5768849
290.5328277
391.5720763
320.5140559
324.0406398
275.2690326
277.977982
330.597578
401.6760312
406.9070732
523.741311
105.7435044
55.50132485
50.34530067
50.87755356
45.44175569
46.43438413
50.02884356
119.0241553
101.8503657
104.4307949
78.93046778
83.66454311
91.47969655
165.6056037
133.6722335
135.6334299
120.3967645
122.3855638
150.6583952
141.0379718
117.0630403
118.7283821
106.6553369
108.7366711
128.60965
101.3317826
92.30824357
83.35584876
358.0022632
362.5208958
444.8313315
337.116312
272.9818552
287.8809664
163.3189258
178.9540161
198.1486493
258.1491829
251.4211365
227.5358898
229.1082731
267.828171
263.4645751
228.2653824
187.9804028
169.6329154
258.9671339
259.8850135
300.8950147
282.7646987
259.1919339
258.5566964
428.7363205
349.8740254
354.1853718
298.197874
301.752083
362.8139025
348.8331525
291.8999564
295.0321926
31.77417989
31.80268541
31.7997605
31.80975427
31.80571202
31.77796606
31.86379249
31.83435467
31.83742894
31.7947359
31.81928614
31.81385808
31.8317162
31.82466993
31.80147459
31.87567775
31.84945725
31.8548671
31.82914644
31.84728476
31.83851724
31.86586575
31.85547762
31.83934867
31.89531159
31.87424012
31.8822786
31.87710323
31.88677418
31.87509923
31.90801645
31.89683657
31.88848852
31.92188101
31.90751283
31.91676227
31.9288084
31.92815306
31.91689161
31.93690168
31.9385846
31.94798121
31.93985529
31.66864733
31.69347022
31.6872579
31.70917638
31.70058721
31.67721373
31.7511142
31.72527737
31.73246197
31.71286876
31.73023478
31.71881102
31.75791616
31.74293331
31.7285409
31.77991271
31.76023147
31.77257981
31.7872412
31.79183643
31.77413179
31.83318018
31.81064118
31.81135135
31.8264604
31.81652627
31.8334346
31.88914523
31.87676313
31.85426826
31.92027329
31.89811812
31.91679892
31.88734558
31.89000092
31.90886337
31.99354669
31.96231304
31.94227334
31.98098206
32.00879378
31.94434017
31.95612825
31.58226506
31.60190362
31.58949681
31.63408763
31.61654491
31.60010698
31.65529001
31.6350038
31.64958645
31.6718586
31.67800749
31.65467045
31.73549564
31.70413146
31.70502268
31.71716171
31.70873949
31.73413812
31.8283216
31.80646042
31.76888121
31.89438984
31.8484548
31.88047188
31.81606621
31.82733575
31.86471688
32.06258865
31.99233683
31.94296208
32.0880859
32.03799091
32.13471971
31.94086335
31.98962293
32.02937636
32.31537721
32.17571426
32.14731513
32.22635859
32.34218976
32.06448955
32.12061804
31.52248514
31.53417234
31.51050073
31.59399861
31.56193518
31.55390508
31.58501109
31.57219124
31.60041253
31.69040662
31.6781673
31.63320246
31.7982098
31.73271595
31.75536504
31.70937431
31.71810414
31.77192234
32.03201038
31.96212361
31.8747755
32.17232392
32.06054322
32.15714583
31.92453207
31.98436418
32.07322547
32.63900417
32.43398919
32.29747912
32.70647466
32.55815429
32.86429214
32.22331772
32.399069
32.51408475
33.52019013
33.0005239
32.91363551
33.17629593
33.65653518
32.54674784
32.78066439
31.4932555
31.49757151
31.45948815
31.60225438
31.54501492
31.54656694
31.54849462
31.54487572
31.59550167
31.79970593
31.76209354
31.67395961
32.00257445
31.86983413
31.92647606
31.78527991
31.82482272
31.9360616
32.51167491
32.35944998
32.16341216
32.88797605
32.59747983
32.80760497
32.27423673
32.42249039
32.65176905
34.21966778
33.68168083
33.24476368
34.78369026
34.16106176
35.03813343
33.14724788
33.66716728
34.14924918
38.80064055
36.46570468
35.75690137
37.47616154
41.32869525
34.47235342
35.54174738
31.49343599
31.49092929
31.43059576
31.6638012
31.5667746
31.57920595
31.55049932
31.55789512
31.64446055
31.99652655
31.93882779
31.78582135
32.37317143
32.13046836
32.2129689
31.985464
32.05663182
32.2685349
33.30158973
33.07865473
32.68108736
34.2886152
33.59884959
33.90937432
33.04365185
33.3130801
33.8810668
37.61357311
36.58755337
35.25155261
41.67441854
38.3966241
40.31671962
35.84841915
37.25339679
39.52567073
46.56143704
45.37003156
47.1821712
31.51966044
31.51061637
31.42225998
31.76826496
31.62438392
31.64309456
31.59125828
31.6078433
31.73992488
32.24228907
32.17837074
31.94953331
32.84054613
32.46866643
32.55602526
32.29337804
32.38264955
32.72356568
34.16170887
33.95798989
33.32229711
35.9762014
34.81037184
35.07872196
34.2168261
34.52361603
35.58920593
31.56581888
31.55315666
31.43340166
31.89501115
31.70495451
31.72675587
31.66312771
31.68369311
31.86250673
32.49128029
32.43030981
32.13254463
33.28406669
32.80592505
32.88527501
32.64075683
32.72409848
33.1789435
34.85621636
34.69882925
33.8985186
37.18971753
35.75903084
35.95322072
35.32470475
35.55227438
36.93535255
31.62302467
31.6080259
31.45782882
32.02731251
31.79550154
31.81883933
31.74926637
31.77215236
31.9939578
32.72563846
32.6686735
32.31366258
33.66763351
33.11135995
33.18314679
32.962512
33.03788073
33.57661282
35.41283536
35.28038546
34.37325809
38.05344984
36.46631656
36.62854244
36.13169864
36.30508137
37.86099557
96.06761178
85.44538505
86.27191309
83.89480517
84.67420281
95.09079819
31.68675653
31.6708931
31.49197268
32.16014086
31.89099918
31.91465915
31.84285111
31.866335
32.12644133
32.94737164
32.89298109
32.48915717
34.01242574
33.39167123
33.45973164
33.25377244
33.32296805
33.92860326
35.91915617
35.79060881
34.79332431
38.83949169
37.09063831
37.25346429
36.78107933
36.94043093
38.65387092
112.1527606
98.19321408
99.11863324
96.44514006
97.33132555
111.0158321
31.93918353
31.96283376
32.25796386
33.5260292
33.59396226
34.26235475
37.40560111
37.57696897
39.49455753
134.6053739
115.3703587
116.8263174
112.8445667
114.097379
132.9449189
107.71692
94.77149257
95.61759323
93.17584124
93.98056737
106.6667889
128.1301409
110.4462417
111.6851149
108.1628342
109.3104435
126.6231224
65.57826767
59.38742768
63.2410584
51.08307366
53.81494927
59.64787761
47.28452415
49.97033492
47.0861769
45.86495599
46.69282103
44.32672124
55.59917675
51.47654231
48.57865974
53.04994052
59.43557512
52.96943718
53.36874277
59.50814452
49.68582453
49.37792905
46.22309538
57.87046333
52.18056056
52.58245705
56.66105343
57.2561484
65.51897754
47.92001042
51.74810558
51.36447254
52.59520346
52.16321043
48.1995553
46.90973399
50.31631848
49.99717634
50.99533888
50.6499465
47.14615128
62.92886567
55.58583556
56.10989693
99.80615366
88.5944359
89.37804373
87.04347936
87.84508792
98.87799188
62.24801929
63.05998752
73.33487347
50.65316182
55.73645717
55.16339047
56.95547881
56.33677265
51.06617132
49.145404
53.54720424
53.06438012
54.5985414
54.0674893
49.49227826
70.2921087
60.70981881
61.47882153
116.9912501
101.9168067
102.9259534
100.0158324
100.9794788
115.7449978
265.522467
267.8451034
316.5207634
52.48103293
58.25284153
57.59336399
59.60480846
58.92361071
52.82589129
78.98261406
67.38386121
68.34289697
141.8696061
120.3533716
121.5682942
117.9809143
119.4959858
140.0383489
377.8646468
385.2024064
480.3639347
312.9563017
304.648855
281.145027
409.7808284
334.7390563
338.5489457
216.5015346
195.9016353
197.966421
193.1684292
194.4165853
210.5376803
292.1595163
238.5865511
243.4213718
227.9600644
233.6670399
285.4741906
144.9458919
146.8922111
185.1839801
104.1439684
121.7252205
120.3735784
124.5725196
123.1241512
105.268544
100.4006114
116.5292901
115.0665916
119.0843135
117.8447352
101.061002
176.227287
141.0640592
142.999834
377.0646386
304.7784474
308.6226409
298.4535182
301.6048363
372.7632722
455.7545271
351.739951
355.4018521
344.4669464
348.0997304
451.6168957
236.9139476
281.3887799
278.2655668
313.1769004
254.4673794
257.7175198
247.3280234
251.1976059
308.6095017
361.2103666
292.2727663
295.5319389
286.1053027
289.2616932
357.3443716
103.6059313
91.63215905
92.43026603
90.1093115
90.89595091
102.6279232
299.6997224
296.6241805
248.3247059
472.2334238
366.4654311
370.1756448
359.0747468
362.7484769
468.0814427
313.2077303
316.8690796
386.6240814
334.1447739
280.5845735
283.4168945
122.2926279
105.9829441
107.0897045
103.904184
104.9558277
120.9251185
283.1287984
326.0547563
319.9665439
122.9697234
49.07929784
49.76268246
54.73962063
51.49645482
47.42149481
48.31358399
95.75025615
99.02926492
114.8476407
79.55177177
85.9628467
83.07506988
90.66343356
88.32416097
81.12848297
80.01497144
76.11705696
72.77572573
97.79040474
88.03178358
92.08985086
129.3959867
131.6806483
163.1098807
95.28533301
110.1735657
108.3993149
113.5574214
111.8917913
96.45239475
91.64683717
104.187918
103.0014494
106.8433207
105.406988
92.38683439
154.133016
124.5006913
127.0558095
113.8931198
115.5321725
138.6224277
88.73143532
99.69847736
98.46294125
101.9223068
100.7794405
89.40593779
85.22698755
94.35191708
92.52242143
97.26359521
95.80680981
86.15149725
131.2490762
110.5433016
112.3120378
72.0814481
78.03637169
74.56178905
70.261828
74.60422677
120.1279593
106.4835876
116.6130432
83.8414418
90.89824698
104.5144923
77.19629709
83.39430728
76.31624646
450.7715576
366.8583684
372.5044142
238.5184685
204.6642795
207.6961802
199.8479943
202.3356613
233.2082495
263.6941819
218.1020844
222.9612903
210.580903
214.3160104
256.6048041
234.6607447
253.9906972
308.7391184
220.5656407
206.2371488
190.7198927
222.0243719
197.2349562
213.0692917
405.0112074
319.8724403
324.1873479
311.8954596
316.9289583
395.4436282
275.0401406
271.6132111
230.8048547
438.439856
337.0803841
340.8210325
328.7998545
333.1197635
432.7916687
329.8964571
267.3709607
270.5886101
260.9546215
264.2203764
325.8393906