/*--------------------------------*- C++ -*----------------------------------*\
| =========                 |                                                 |
| \\      /  F ield         | OpenFOAM: The Open Source CFD Toolbox           |
|  \\    /   O peration     | Version:  v2012                                 |
|   \\  /    A nd           | Website:  www.openfoam.com                      |
|    \\/     M anipulation  |                                                 |
\*---------------------------------------------------------------------------*/
FoamFile
{
    version     2.0;
    format      ascii;
    class       volScalarField;
    location    "3";
    object      p;
}
// * * * * * * * * * * * * * * * * * * * * * * * * * * * * * * * * * * * * * //

dimensions      [0 2 -2 0 0 0 0];


internalField   nonuniform List<scalar> 
3019
(
819.3048399
818.5121212
816.4869522
812.15345
805.6654759
791.7324916
768.5390203
731.0594989
674.3212418
592.12175
479.5891343
335.8793122
819.8042319
819.3499706
817.9996675
814.9328745
808.4811216
796.7644593
776.3808
746.1331665
695.4303351
619.6073645
512.1137676
369.7799256
820.9486702
821.247234
821.4812297
820.9981753
816.9228437
810.0432841
796.4150619
770.7992871
728.9988118
661.3210432
554.7063452
399.5965438
822.1410977
823.5043
826.0385394
829.1636692
828.9916831
829.1483477
825.7820187
810.4600171
784.6997925
729.9243952
624.8638908
450.6204803
822.3033993
824.8816217
830.0476092
837.5811706
841.7205179
851.3055488
860.8942768
861.9196493
858.8610642
831.0961003
748.1357501
556.0120401
820.2323142
824.0192507
831.7527639
843.7016835
853.5784974
872.7655613
897.1069007
917.2088942
947.9529748
974.3055157
963.4162492
804.8847834
814.7799482
819.61796
829.5568128
845.3724362
861.0286249
889.0683967
927.0185369
967.0497189
1036.117227
1135.886085
1278.66326
1411.241231
804.9574634
810.5526029
822.0697113
840.5977728
861.433475
895.9247234
943.5598501
1000.350907
1098.843612
1254.176542
1521.463671
2058.91911
790.0209268
795.9785874
808.2340825
828.0143936
852.6529949
890.3342545
942.3092215
1008.383551
1117.563588
1277.483156
1504.54376
1773.465136
769.5718647
775.4573981
787.5295066
806.9647999
833.7862147
871.1297246
921.8878289
989.1606677
1091.536801
1228.043766
1385.232906
1521.720833
743.6119237
749.022417
760.049767
777.5926217
805.0931264
838.9729072
884.1443883
946.6220934
1034.473718
1143.098649
1257.295916
1356.42027
712.5128755
717.1104758
726.4654693
740.5677249
768.1459788
795.6942321
832.2148024
885.8400689
955.6388691
1038.526214
1127.187101
1228.141206
1818.266473
1546.407059
1373.938323
1244.551359
2025.20318
1417.103163
1532.340013
1741.869111
1289.111383
1363.365459
1508.419431
1452.806505
1484.010944
1573.222048
1160.69736
1230.519049
1345.561619
1307.578089
1345.204413
1395.222304
1213.765982
1167.607503
1228.211965
1287.003804
2259.456424
1872.527292
2780.453049
2339.08567
1585.014393
1670.550956
1629.153271
1673.200654
1588.43622
1838.816028
1687.640797
1403.596122
1472.147872
1431.521253
1478.569497
1405.074215
1582.262202
1485.115674
1291.117284
1342.360446
1291.977874
1345.677114
1295.356733
1400.642153
1348.272686
1224.03481
1157.689317
1229.371803
1291.129897
1233.598083
1525.769749
1779.820338
1947.461615
2009.637682
2297.916494
2635.721352
1660.656415
1685.508544
1841.425356
1874.714983
2229.707541
1965.022091
1956.594723
3658.017839
3099.67177
2008.824084
2748.950291
1255.735544
1226.649332
1200.604585
2273.464222
1989.748535
2056.898392
2001.068436
2297.667887
1818.591972
1970.213273
2002.540788
2674.504043
3042.902307
3503.161639
2359.831581
2943.67975
2595.208175
2980.670108
2347.103203
1632.288419
1679.906408
1626.419938
1759.336344
1731.504037
1808.014122
1683.121952
1723.862483
1738.615002
1440.898646
1435.625149
1537.72486
1530.58173
1323.065748
1319.419245
1372.912871
1369.471109
1191.391134
1263.117706
1259.838241
2733.828112
3622.686853
1367.185229
1348.50748
1326.467167
1380.586982
1356.205076
1370.939933
1259.264886
1234.933558
1259.288173
1430.215142
1416.371022
1389.161354
1411.29634
1422.433904
1417.379075
1315.920181
1290.111631
1267.183382
1319.302246
1297.56967
1319.526275
1337.30326
1350.890157
1355.680465
1307.801627
1324.9647
1307.118373
1388.378874
1393.426875
1407.081953
1356.893674
1362.575212
1356.499014
1278.071438
1285.978388
1304.141822
1263.773062
1244.913507
1890.609699
1869.695419
3542.724531
3450.235137
2128.945977
2090.343432
2104.572692
2136.511727
2032.457067
2311.982288
2176.116343
2145.81941
1876.735133
1903.415527
1846.979388
2002.319985
1925.324413
1898.600452
2577.455506
2537.46196
2367.134649
2670.832097
2574.736754
1653.590116
1654.378008
1640.041709
1678.944593
1660.46337
1661.357421
1620.316051
1607.628724
1636.697482
1624.276687
1759.114853
1777.882668
1746.419954
1831.366645
1789.93864
1769.078146
1701.842725
1705.854143
1685.097146
1737.268696
1713.351781
1709.515797
1461.220209
1446.502544
1484.914399
1465.382477
1423.662617
1413.63615
1440.793962
1426.848507
1573.867787
1550.955845
1602.401942
1581.440503
1512.468693
1490.607917
1543.289718
1520.326851
1333.055324
1347.31527
1334.042
1352.771613
1335.543146
1358.623351
1356.869987
1332.291517
1309.850855
1325.581767
1329.344822
1379.793805
1389.052196
1384.072402
1392.015545
1382.378875
1409.325528
1395.635283
1363.464929
1358.999651
1375.984057
1365.779247
1359.511445
1365.097694
1375.561228
1272.438782
1281.332538
1273.936411
1249.095881
1268.469266
1271.010931
1522.181693
1502.219299
1467.918711
1550.089438
1514.039403
1535.238528
1456.962372
1426.029986
1439.950787
1461.684546
1465.138895
1483.750052
1489.767434
1510.587306
1503.81648
1928.240225
2216.135527
2279.496496
2022.680995
2033.410918
2046.200178
2013.756219
1830.535031
1845.62295
1830.14587
1983.493536
1955.895791
1942.601759
2795.021516
2603.352331
2663.545748
2869.315693
2871.653542
3017.916418
2338.041865
2399.918608
2414.769095
1642.662246
1641.650027
1644.047971
1679.086756
1673.77042
1675.023371
1623.20228
1620.679958
1642.471083
1637.563966
1741.52295
1746.343159
1736.967986
1816.242964
1802.532878
1795.475421
1686.720754
1688.73343
1683.696463
1728.798098
1722.399573
1719.41469
1445.19552
1460.177146
1455.859849
1422.036085
1426.169396
1439.965947
1547.683654
1569.660898
1557.244719
1565.04736
1556.824295
1616.947571
1609.675887
1497.812122
1548.681771
1540.616724
1510.907314
1518.044071
1540.279374
1353.045531
1348.396287
1345.796911
1311.894631
1308.499405
1304.005228
1317.672723
1313.651757
1318.09623
1236.519654
1231.310807
1291.993699
1289.431465
1284.167232
1299.819707
1294.962088
1298.724791
1246.372755
1243.757262
1256.629831
1241.179296
1248.084421
1908.119388
1844.305314
3992.137993
3864.108299
3319.085335
3176.464862
3695.355481
3487.756111
3613.450092
2170.572238
2055.112535
1886.488948
1864.032064
1848.963386
1919.476258
1931.329969
1908.691157
2655.211214
2751.009848
2770.572209
3039.767957
2912.746744
2489.53232
2474.447153
2562.50808
1654.350609
1649.239528
1648.31067
1668.745802
1667.624526
1661.027766
1627.676011
1625.354089
1633.235022
1630.207995
1765.47735
1755.770996
1750.632612
1781.595917
1788.929442
1776.379393
1702.831233
1695.282763
1693.245704
1715.24352
1716.554438
1710.148248
1456.901291
1458.327135
1461.699409
1447.792769
1453.709703
1451.980738
1477.498106
1475.696137
1485.129052
1464.324922
1468.340554
1470.573616
1420.664534
1422.495799
1424.642033
1416.322273
1419.801387
1417.383274
1435.437957
1435.283785
1441.265163
1426.858591
1430.344463
1430.703522
1581.738347
1573.438554
1566.297596
1570.090033
1577.9593
1554.126335
1562.100657
1558.64263
1599.580983
1590.080328
1517.047316
1509.934001
1504.733014
1507.305578
1514.745841
1491.477689
1492.99141
1495.907484
1535.640675
1538.345062
1546.212804
1522.783036
1530.547275
1527.999506
1532.761852
1524.986728
1337.216119
1333.911924
1329.794646
1342.432008
1338.299877
1342.322762
1346.122815
1339.879539
1358.520111
1358.095391
1330.521127
1321.879409
1317.275338
1317.680293
1318.203057
1325.800545
1322.464833
1327.181513
1380.706843
1384.615745
1394.679459
1384.804255
1404.660576
1406.635517
1411.727979
1398.05002
1402.134844
1400.171675
1361.403406
1359.876084
1371.083972
1368.138201
1274.762525
1272.841655
1270.092539
1279.728872
1276.026823
1277.708458
1270.230363
1263.976862
1260.719935
1267.82187
1265.931177
1270.498721
763.0228673
731.7492961
710.8149541
718.3387348
668.6658951
641.9995294
647.9135262
572.5469792
542.8046072
541.6620534
432.9843966
408.6719235
390.7052439
799.2916748
778.3769565
741.5768408
768.8609218
728.7019044
681.382486
710.2695187
635.7147913
585.9491108
603.5870408
483.0480641
442.9795271
434.6894409
848.3475255
842.788708
793.0245002
838.6229891
815.0191816
747.5159457
802.077682
740.6475106
657.0143215
710.3654591
579.7943803
501.2167435
521.0470277
903.5258384
920.0762661
861.2423159
925.0614623
934.7965963
841.6254082
934.8581957
915.5569146
776.6527102
898.7679029
787.6170737
617.6056181
720.4939332
955.6904701
998.7137756
940.1789247
1015.440246
1074.011587
969.1365194
1096.602021
1171.199497
973.2779242
1195.788819
1235.102442
870.7804839
1209.303867
994.2016539
1060.00412
1016.384108
1087.018088
1189.316519
1107.378961
1232.68089
1405.816839
1238.901629
1484.263243
1918.700473
1394.7512
1683.994387
1768.165364
1282.661538
1008.881278
1085.422569
1070.116664
1116.69948
1232.84662
1207.921735
1280.497062
1455.567701
1438.275445
1538.56931
1636.114998
1619.567148
2063.842272
2188.614623
2191.861007
996.3176194
1071.539924
1086.222651
1101.247243
1205.323356
1231.532823
1244.807034
1373.290683
1441.759029
1477.950202
1535.247731
1571.465276
1732.523554
1752.378407
1798.918052
959.1850142
1025.681328
1062.744459
1051.102059
1136.008403
1190.954546
1166.491651
1259.381227
1346.018263
1353.112461
1386.969392
1423.112997
1497.987412
1507.258707
1543.330689
902.4879273
956.755181
1010.293483
977.0272011
1043.025089
1114.571601
1066.242719
1137.109929
1229.574172
1225.444957
1250.857924
1283.962986
1339.615336
1350.544377
1375.139649
936.7202863
1016.981543
1104.7262
1092.609224
1111.520805
1150.24567
1211.317446
1226.893822
1251.483212
1851.706235
1910.235024
1866.29694
1555.749653
1594.513017
1572.472515
1383.761535
1410.928938
1392.207389
1259.508809
1282.76207
1260.605386
2607.800019
1977.101356
1783.799305
1205.58669
1749.749181
1459.980582
1497.608094
1448.298332
1611.221162
1543.859917
1481.547009
1633.90695
1568.322557
1640.640372
1317.506909
1351.774477
1321.038928
1421.027947
1381.851709
1329.419053
1458.946136
1402.050346
1441.741447
1461.759183
1495.459631
1475.002246
1496.401036
1491.159431
1479.259966
1565.349584
1553.165308
1560.943261
1184.473663
1217.845456
1193.340184
1279.276699
1243.711814
1194.576454
1310.856885
1261.55215
1295.413749
1320.076436
1342.690959
1323.392649
1353.972355
1345.566822
1339.009676
1390.713545
1382.4567
1386.96762
1176.299097
1122.551692
1160.643308
1191.906253
1218.443699
1193.978202
1240.430129
1227.133484
1213.95487
1274.986224
1266.961328
1274.4958
2185.204216
2177.005587
2306.122775
1852.79756
1910.091128
1910.973165
2775.849215
2938.530675
2952.180913
2370.523599
2471.985374
2423.130545
1619.286329
1600.008408
1562.297592
1658.006807
1613.183467
1630.967872
1600.044998
1608.621903
1642.064641
1659.754728
1659.82588
1678.741923
1602.099478
1616.265949
1604.602007
1809.129453
1794.393235
1836.784151
1685.2178
1706.859123
1703.234457
1412.106637
1407.850479
1399.172177
1467.750521
1456.682539
1460.839347
1411.339155
1420.524886
1450.992645
1473.094371
1474.482096
1480.493034
1407.00608
1411.118523
1408.980472
1564.091364
1576.856406
1596.639164
1486.635569
1492.999258
1490.880857
1302.550057
1290.455396
1282.882856
1332.548227
1326.002835
1333.469637
1276.382754
1290.387999
1312.650454
1343.046238
1346.701138
1349.017584
1299.807598
1304.367468
1299.632179
1396.705692
1398.587485
1402.838357
1351.293847
1353.645115
1350.906951
1209.366522
1182.663131
1224.490936
1228.837336
1233.863402
1286.841011
1290.900131
1295.442245
1238.784293
1240.863941
1236.658541
1603.725963
1627.726106
1538.450787
1894.933324
1708.552251
1658.309351
1698.579994
1720.896489
1925.820501
2103.67927
2158.148846
2044.844819
2503.958497
2264.944351
2160.404351
2363.84759
2289.181307
2563.313067
1675.113754
1711.605323
1694.932706
1738.817505
1731.778838
1676.774766
1828.267186
1755.340244
1760.541863
1998.910187
1957.394089
1859.204565
2116.195402
1996.592171
2049.663317
1916.081995
1973.695545
2039.443019
3651.549545
3845.088183
3835.538033
3156.713684
3296.542332
3222.485998
1781.7262
2428.632993
2350.791479
2463.121518
1860.042215
3364.471284
2708.68312
2470.763818
1243.343815
1235.382675
1244.530668
1218.22793
1226.704917
1234.943658
1209.358656
1218.179286
1209.558223
2038.120595
2139.057922
2117.558869
2310.57416
2255.57947
2242.675241
1954.090251
1931.89941
2008.928751
2793.615137
2880.743898
2737.852932
3333.748678
3050.189557
2855.518808
3158.450735
3136.130108
3407.017606
2426.093728
2430.998341
2368.766787
2895.615007
2812.719333
2849.271955
2509.565649
2581.447574
2692.575516
1638.32183
1653.818929
1647.179312
1610.369446
1620.720165
1634.115686
1749.465924
1782.145998
1782.739584
1720.101864
1714.531352
1740.035709
1442.280702
1447.307856
1445.539101
1431.189059
1432.524215
1437.332459
1540.896984
1547.808937
1544.008535
1524.289277
1527.021566
1533.970085
1326.476513
1330.391752
1326.788963
1316.017087
1319.29644
1322.673197
1375.266437
1378.506592
1376.619557
1366.071705
1368.232637
1371.844101
1200.478126
1266.743327
1269.864807
1266.510612
1256.548219
1261.080999
1263.866332
3063.519688
3268.594392
1359.56269
1352.403362
1357.111558
1341.022011
1346.813339
1354.119874
1332.786284
1339.711534
1333.676864
1372.246044
1377.498042
1385.787656
1361.658957
1369.436145
1364.107354
1379.014922
1374.443995
1366.7857
1251.239645
1259.107809
1267.098066
1243.033186
1251.06807
1243.114278
1270.444516
1258.979074
1251.135981
1426.195775
1416.840531
1420.932467
1407.028477
1412.105883
1421.468568
1394.306159
1403.056252
1397.954198
1415.206393
1413.148301
1409.122463
1420.955326
1417.0564
1418.870885
1413.432722
1415.178394
1419.280118
1304.947553
1297.731917
1305.795145
1282.585285
1290.115152
1297.504703
1274.968702
1282.62668
1274.941435
1312.14754
1319.036527
1325.924928
1304.827604
1312.012161
1304.905682
1330.176001
1319.216043
1312.155411
1341.368412
1344.198431
1340.281331
1352.358114
1350.502468
1354.518469
1303.725483
1308.895403
1312.22742
1390.091557
1394.331247
1392.259122
1398.117527
1396.221124
1391.796106
1404.936532
1400.608225
1402.632436
1358.39114
1356.171508
1354.190746
1360.887476
1358.40026
1360.294179
1353.64157
1356.149135
1358.824868
1281.374958
1286.088088
1282.436567
1240.250408
1242.363738
1249.537861
3684.241376
3787.460207
3611.653435
4046.908538
4061.709002
3341.869929
3430.63594
3561.896599
2118.550376
2080.987556
2067.464387
2099.439093
2091.736294
2129.523471
2024.125151
2056.700806
2064.872318
2262.649686
2262.375411
2314.002824
2170.340346
2214.485314
2218.218621
2191.899344
2205.006144
2159.561792
1882.917362
1875.217676
1895.875171
1839.423405
1856.223046
1864.054112
1974.471804
1965.98005
1993.834637
1917.527592
1940.689794
1948.937577
2570.767475
2498.404102
2497.423425
2480.663133
2489.906446
2556.432682
2368.714113
2427.330027
2418.7959
1648.779898
1648.953972
1654.640828
1641.34516
1643.416756
1643.900043
1672.826211
1673.319384
1679.133134
1660.899651
1667.189855
1666.648645
1616.347843
1620.941894
1624.179984
1613.779485
1617.580903
1612.186665
1632.773473
1635.405043
1639.284823
1627.461942
1631.128449
1628.445967
1766.705982
1761.935563
1772.525083
1742.471831
1751.961394
1756.26436
1816.747124
1810.241058
1824.35558
1784.093369
1796.739132
1802.931327
1698.523912
1697.360567
1704.606001
1684.703535
1690.64784
1691.576579
1728.839608
1726.116539
1733.784978
1711.911898
1719.013086
1720.971846
1596.198201
1602.525191
1609.037723
1585.909544
1594.329194
1589.029305
1330.504218
1334.357798
1338.08843
1313.972059
1316.008077
1312.746409
1381.685395
1380.310287
1377.646618
1387.635535
1383.454963
1383.13
1380.443786
1382.091927
1386.039772
1361.685172
1364.794717
1362.708634
1367.824275
1366.609543
1363.599612
1374.106295
1370.14491
1371.181519
1270.096142
1273.292313
1277.096073
1254.083186
1258.044373
1253.053504
1515.77745
1503.369702
1509.185865
1490.579408
1497.122368
1509.114738
1473.780812
1485.311202
1479.110924
1537.99393
1545.537041
1557.643816
1521.232318
1533.377632
1525.937225
1548.214251
1540.774442
1528.280815
1446.320145
1451.706896
1462.557244
1431.177971
1441.240643
1435.993078
1450.125069
1446.080325
1435.936302
1462.939405
1468.582228
1466.859011
1470.78947
1469.94461
1464.26286
1482.182062
1476.022314
1477.234735
1496.060969
1494.795268
1488.327945
1508.573119
1501.628069
1503.325672
1497.769304
1499.603521
1506.328113
2734.907892
2771.274704
2843.001928
2626.306415
2699.152754
2666.061703
2755.876977
2729.968857
2648.266662
1450.377631
1448.913069
1443.837274
1459.010354
1453.956621
1455.365605
1451.028436
1452.394335
1457.567139
1423.495928
1427.902431
1426.196359
1430.309066
1429.303316
1424.99474
1438.800719
1433.919818
1434.941837
1555.069319
1551.445443
1544.319079
1565.500814
1558.514618
1562.404879
1551.055214
1554.6469
1561.426348
1513.183107
1520.087957
1517.130771
1525.461122
1522.828204
1515.685097
1537.160623
1529.994099
1532.87333
793.1257011
783.3563316
781.604493
770.7186931
754.2260711
751.8145793
733.8680533
708.7574665
705.4926931
678.0383422
640.8941163
636.7659532
596.5746148
544.4742663
539.833913
484.2047114
415.7535321
411.4359026
339.6024032
256.7556863
253.944655
811.9099289
808.1077335
803.4807806
802.5455223
795.0638024
787.890967
785.0837463
771.2528932
756.1698966
750.6953161
740.3992669
736.0178715
701.6268472
685.6177896
679.7778472
627.1262408
603.5203649
596.6093903
520.0628627
487.3097696
480.1759487
376.007579
333.7552608
328.81774
822.7536432
821.3702843
814.1460949
819.0118558
815.3928806
804.3149875
810.1512304
804.237449
778.323748
779.4254868
771.7050917
762.3308481
740.9382969
727.7684564
715.0020245
676.1364549
654.0295704
639.0426081
568.9429313
534.1211339
520.6355582
409.5979597
362.0197428
353.8801094
835.5355179
837.8122349
829.2909747
840.0689934
841.817217
828.0352648
842.908309
848.7551316
814.400872
822.3642443
818.7698898
805.6800821
801.617407
792.6995827
774.5736772
751.6338798
731.993369
709.2109262
649.3671536
612.5143694
588.3229072
469.656675
411.2846846
395.815056
848.5596525
854.9761921
846.4000117
862.4082278
870.6150257
856.2019196
879.125132
897.8053977
860.8282076
875.7670938
877.9918372
862.4214681
880.3431715
878.7677817
855.0543956
862.7689466
851.989744
817.2543511
791.6451219
758.3650847
712.8222745
599.3279777
522.7570716
484.5815703
858.8375135
869.2836188
862.6174583
881.8386231
896.5266478
884.3367976
913.4017078
943.762097
909.7336392
930.6304913
939.898195
924.6661703
970.8789675
981.8681403
955.5227717
1014.864097
1024.392454
977.2990626
1035.160986
1026.835984
945.2352842
911.1102358
817.8436587
713.5040924
863.2447147
877.104479
874.1364238
893.9149297
913.786251
906.5442058
937.3061179
976.6056874
953.3566376
977.4094901
994.1644101
982.0422222
1055.157881
1079.92095
1057.718954
1172.585862
1211.003367
1167.256672
1357.721623
1420.28964
1320.754025
859.2721315
875.2914986
877.4167524
894.8083314
917.90109
917.7108867
945.3346073
988.2320416
981.5328213
1004.828855
1026.575338
1021.22542
1107.60873
1141.165846
1130.991666
1269.018346
1323.274685
1306.947399
845.4712838
862.1490501
870.1151144
882.4255727
906.2759039
914.11719
934.4288413
975.495389
987.1556437
1005.998928
1029.331865
1031.907651
1114.277701
1148.295901
1152.04327
1270.09186
1317.594606
1327.80125
821.4848172
837.3746068
851.1498081
856.5686661
878.9234735
894.4803078
904.9967526
940.2778048
968.5263281
980.5438247
1002.467396
1011.642496
1079.794886
1109.509056
1122.536651
1209.192456
1245.045711
1266.632888
788.2054209
801.9858973
820.9286594
818.5713158
837.6884945
859.8872043
859.7368268
886.7023997
928.3522941
932.9299649
951.7758729
966.3443226
1016.507435
1040.624256
1060.019735
1118.54673
1145.5762
1172.049668
780.9235843
812.7041662
870.988207
868.3721311
883.2670988
901.7622678
933.3362314
951.6080949
975.4024622
1009.79636
1029.981326
1060.396397
2155.37978
2080.314256
1964.146317
949.4276911
1081.464044
1557.31624
1540.212131
1516.433686
1707.471318
1676.462692
1705.897935
1381.882175
1370.967311
1352.701515
1493.500307
1471.388716
1485.406808
1246.954265
1234.648167
1217.941094
1334.944611
1317.673293
1328.405593
1348.042546
1344.969747
1342.262963
1200.953507
1183.639856
1196.635348
1232.020917
1227.552973
1223.054322
1282.774945
1279.072094
1282.86529
1596.475655
1589.192491
1577.324805
1666.621585
1652.144084
1656.58603
1592.536201
1598.01499
1593.675135
1576.650724
1580.842721
1586.839489
1295.169083
1290.749679
1287.159016
1338.916083
1336.226602
1339.516616
1218.778054
1214.386593
1219.423392
1165.757447
1819.086857
1770.899396
1739.179171
1856.533582
1863.35023
1955.616182
2368.37641
2311.227972
2252.798856
2511.48522
2522.426184
2637.595416
1701.663499
1699.336284
1682.283837
1840.70322
1811.530665
1811.494353
1911.783505
1908.01595
1872.723475
2194.706899
2138.758571
2165.326975
2916.461109
2828.389558
2682.450449
1251.413851
1248.057856
1252.179036
3144.95774
3071.760666
2981.776994
3334.220992
3343.086361
3490.850781
1634.333298
1640.283537
1636.593745
1621.29687
1623.830916
1628.922024
3779.551775
3668.096166
3520.626158
1364.93889
1361.612871
1363.756761
1375.214675
1371.206456
1368.554082
1262.868962
1258.868931
1255.5032
1312.122483
1308.952025
1312.454081
1323.131141
1319.284014
1316.061196
753.9356249
746.5531871
756.1843842
723.1395819
735.3219774
743.3583406
723.4826424
728.8817286
715.9540575
703.6949872
693.8326118
709.0412325
657.6208234
676.3651859
686.9061591
661.0990044
668.0242356
648.453092
625.4532592
613.4680666
636.258933
560.3780398
587.7168703
600.0202602
570.1518362
578.0454113
550.0034206
508.5555285
497.3814142
529.6892118
423.817861
461.4357371
471.8121341
445.2447406
452.7402771
415.1187567
346.7806509
340.2313594
382.6394572
294.7059546
299.845169
286.349993
290.5626352
793.4240247
782.0814834
788.9274364
764.8826985
774.0836062
786.4859457
752.5356467
762.7622191
752.6095844
757.6824193
742.0332616
754.2307102
711.4603469
727.862935
744.376202
699.0518407
712.7104993
695.695049
688.836072
670.553216
692.4033767
617.0414904
645.4374717
664.0203372
613.8047722
628.8451292
600.6284981
567.5444399
549.6188736
585.0732343
467.6002794
510.3856464
527.328986
483.118036
495.7916679
454.3740092
382.7732287
371.6015612
421.1705117
318.4525355
327.1334701
305.30602
311.2113069
847.3164681
832.6383579
834.9766517
825.2984273
829.5319785
845.6060657
799.9144539
814.2950672
808.7101487
832.8665031
812.1059708
819.5917083
790.5197535
802.5400372
825.1367937
762.2661825
781.613316
768.0621474
785.7934522
757.4426851
775.6295518
709.0241332
735.4165176
765.536576
684.995025
708.6846021
681.305249
673.9471828
640.7981463
677.6607178
548.6222587
597.8951268
630.6201849
547.1094588
570.3692777
522.7885314
454.2455493
430.1938084
492.7302673
361.8647046
379.7898766
337.3835384
348.9770832
909.1874168
893.5920732
889.6668973
900.0865177
897.0837714
914.6947623
862.5513366
879.6358836
880.3335099
929.3897575
903.673577
902.4523261
901.6235091
903.592501
932.8172066
849.4327783
875.5922328
870.4273041
932.3133452
890.2216006
897.3393346
863.6354099
879.3517615
926.1216477
799.3757289
837.2162431
817.492962
873.6670783
811.6103365
841.6026384
719.4831431
771.5675586
837.5160973
669.6257797
716.1373465
663.5700004
633.3772052
571.2655612
653.2047908
473.2863537
524.9536022
403.4108776
433.8334951
968.8183981
954.7645139
943.5102904
979.7555136
966.9165789
983.2268212
932.3268465
949.8035328
960.1663583
1033.448411
1008.016502
993.4814961
1039.329962
1023.350085
1052.989818
962.7285175
993.0436493
1004.120247
1120.554783
1072.483187
1055.891643
1102.826916
1088.506478
1145.659541
977.2379563
1031.896718
1036.113082
1217.776276
1118.472211
1113.478631
1092.667548
1113.524359
1232.024649
915.7828572
1007.585093
971.6085971
1130.578094
954.0915467
1044.006572
806.6150087
1081.990238
593.2554875
684.7341232
1013.928788
1004.893652
986.5303502
1047.520266
1025.121234
1035.752644
998.4557525
1012.547461
1032.794572
1117.213907
1100.051985
1072.367842
1165.835419
1131.051859
1151.12467
1081.418389
1107.470083
1138.225016
1282.221669
1249.809702
1205.142344
1359.658463
1300.746874
1339.199518
1201.593976
1254.104467
1302.865445
1578.189492
1508.83122
1427.934689
1728.866604
1608.211427
1699.637468
1361.69467
1490.828453
1564.090771
1583.78078
1598.735098
1754.166342
1031.794273
1030.248007
1007.751662
1082.951304
1055.219485
1057.238926
1044.366746
1050.722277
1077.604554
1151.408188
1148.2017
1113.810818
1229.595424
1186.617413
1189.972714
1167.140174
1178.824646
1221.195021
1333.183888
1331.699678
1277.664561
1461.260943
1392.690149
1391.245903
1367.638639
1385.225744
1456.244788
1019.202992
1025.068225
1001.924181
1078.313821
1050.465755
1044.231185
1057.769254
1055.011981
1083.258425
1133.433261
1141.997304
1108.770675
1217.162046
1178.125994
1168.143581
1189.914196
1185.521852
1226.081473
1286.312834
1303.526159
1259.007707
1398.994375
1350.351202
1329.335871
1382.536011
1368.428292
1422.260341
979.7171164
991.7904693
970.5170317
1039.641429
1014.819227
1001.878126
1036.13722
1026.280488
1052.045475
1078.065693
1094.617561
1066.257595
1156.022693
1124.60548
1106.437676
1155.712938
1141.105931
1174.420375
1197.534753
1221.925081
1188.591279
1288.804359
1255.511761
1228.672083
1306.169566
1281.435038
1317.736927
1519.094271
1512.719981
1501.987957
1536.988359
1525.936065
1531.194512
919.4333333
936.103925
918.1873147
975.7170071
955.2907664
937.534809
987.5697261
972.0059754
993.601833
998.253123
1019.996983
997.3188868
1067.98736
1043.612182
1020.304347
1086.787994
1065.807772
1091.863216
1089.776054
1118.153749
1092.912684
1168.576169
1143.462197
1113.454021
1201.02283
1172.625997
1199.34322
1358.531184
1352.365826
1344.989322
1369.08514
1361.34441
1366.757274
918.7389212
899.0983423
915.8034542
995.8942341
970.51466
989.945214
1082.488152
1050.449345
1071.279308
1235.170697
1226.893536
1219.322624
1243.379747
1236.053311
1243.420281
1392.56998
1386.560267
1378.417147
1404.869233
1396.357945
1401.647813
1267.336637
1259.421655
1252.300906
1275.084455
1268.138203
1275.141597
2393.673782
2220.9555
2319.778998
1919.352676
2079.692719
2189.362008
1881.674608
1973.878464
1850.249023
1358.428874
1247.521907
1098.197741
1663.920035
1431.987729
1536.078422
1252.459997
1476.817878
1590.935064
1565.01894
1583.564392
1499.139225
1521.40796
1500.52062
1672.134446
1646.616683
1618.106077
1409.202299
1389.790787
1401.099125
1364.96291
1377.474016
1396.325524
1341.135613
1359.060872
1345.680749
1440.960662
1456.269493
1477.23273
1415.77222
1435.688439
1419.660111
1463.19498
1449.98993
1429.273724
1472.680464
1466.405026
1456.558299
1489.098337
1478.778449
1483.993209
1267.628559
1251.192341
1263.179565
1228.259204
1239.53361
1256.130766
1205.977553
1222.843844
1210.340248
1295.095904
1306.401279
1323.579393
1272.754447
1289.468719
1277.024726
1311.734147
1300.753118
1284.122072
1327.483672
1320.803335
1313.957302
1336.319049
1329.256963
1335.054468
1351.210928
1348.352435
1350.969961
1160.099194
1171.459499
1188.891859
1135.00619
1153.595783
1141.762961
1178.944839
1165.836493
1147.422621
1201.066589
1192.989599
1183.337646
1209.913988
1202.249225
1209.93916
1235.72729
1231.924932
1236.129773
1218.662964
1223.981525
1216.876056
1278.660011
1274.63582
1270.914305
2217.977212
2216.222271
2177.752949
2295.96291
2260.446204
2261.274654
1870.452789
1874.960545
1857.511695
1914.485211
1894.4606
1889.372181
1613.115274
1601.087121
1607.826828
1587.223923
1594.093075
1606.497055
1569.721221
1581.835107
1574.621936
1643.99265
1647.243393
1662.348277
1619.207286
1632.718724
1627.575314
1643.397035
1638.462692
1625.484982
1666.040892
1665.195502
1659.271022
1678.27352
1671.916379
1672.319279
1607.09333
1602.395321
1597.121364
1612.316369
1607.43285
1611.773439
1599.544525
1603.299563
1608.483857
1807.713168
1810.703135
1797.379554
1840.557442
1825.250346
1821.646037
1692.120579
1692.210974
1685.179067
1707.430459
1699.52619
1699.218129
1430.353218
1424.20916
1415.258882
1444.776569
1435.317024
1440.567114
1568.069671
1574.585032
1570.08967
1583.908586
1579.101592
1572.387993
1591.51829
1585.51418
1590.578891
1298.161246
1294.94176
1299.059906
1336.549014
1332.776716
1329.93683
1297.846716
1290.447091
1283.625011
1305.60045
1298.841031
1305.308887
1205.211205
1209.486619
1213.89751
1174.051366
1828.644079
1801.453035
1858.249442
1947.154623
1860.508008
1849.202375
2416.56162
2366.584971
2438.040422
2238.392265
2297.815577
2335.596525
2205.643158
2253.692318
2197.957576
2373.112467
2404.056008
2296.233309
2610.532513
2500.456539
2461.897615
1738.22593
1717.937233
1719.289111
1713.639806
1715.646408
1736.085819
1678.858285
1696.438513
1692.727996
1803.453442
1808.013021
1836.142399
1758.298343
1782.062111
1776.386287
1784.666196
1784.871318
1760.491262
1989.218229
1946.799121
1953.032932
1923.194895
1936.165803
1974.915345
1866.797857
1900.010737
1887.619778
2076.985635
2108.249433
2156.53327
2017.024772
2061.628354
2034.127966
2105.217175
2085.564705
2035.554007
1963.906659
2172.721186
2238.074921
2260.115341
2446.742429
3190.618546
2996.382525
3115.461625
2644.758743
2832.789011
2961.948239
2586.281088
2702.443161
2557.301481
1248.461038
1243.824896
1240.22251
2069.949343
2071.984205
2041.14809
2139.086312
2104.847753
2103.0776
1955.760472
1960.071574
1936.916284
2012.261302
1985.513996
1981.071066
3224.914271
3156.887872
3243.650299
2919.689097
2999.339978
2905.663942
3456.079752
3320.050684
3288.741444
1642.969736
1641.526096
1636.222907
1652.774588
1647.484781
1648.214225
1613.602533
1618.728639
1615.408051
1625.248507
1621.990149
1617.148436
1631.483743
1626.802239
1629.791961
1759.782193
1762.043579
1751.50063
1784.77636
1772.990156