/*--------------------------------*- C++ -*----------------------------------*\
| =========                 |                                                 |
| \\      /  F ield         | OpenFOAM: The Open Source CFD Toolbox           |
|  \\    /   O peration     | Version:  v2012                                 |
|   \\  /    A nd           | Website:  www.openfoam.com                      |
|    \\/     M anipulation  |                                                 |
\*---------------------------------------------------------------------------*/
FoamFile
{
    version     2.0;
    format      ascii;
    class       surfaceScalarField;
    location    "3";
    object      phi;
}
// * * * * * * * * * * * * * * * * * * * * * * * * * * * * * * * * * * * * * //

dimensions      [0 3 -1 0 0 0 0];
oriented        oriented;


internalField   nonuniform List<scalar> 
5999
(
0.0004346856359
0.9162153144
0.000539350745
0.9165953349
0.0006370026392
0.9165523481
0.0003126145687
0.9165717426
0.0004026454304
0.4583377563
0.0003248582779
0.4583035782
0.0004044709157
-0.0004080490743
-0.0005129654473
0.4582772246
0.0005857408432
-0.0006565474003
0.4582237083
0.0007678391244
-0.0008895976841
0.4581978025
0.0010217952
-0.001172727828
0.4581732036
0.001334524226
-0.001497617267
0.4581734059
0.001659211362
-0.001815615575
0.4582062692
0.001940846373
0.001195291271
0.9150200231
0.00189787244
0.9158927537
0.00217160067
0.9162786199
0.0006442964226
0.9170551945
0.001043852414
0.4580534476
0.0007761544598
-0.4581853056
-0.458162191
-0.00096005778
0.457930841
0.001191407711
-0.4580063002
-0.001478472055
0.4576599118
0.0008572297241
0.0009676307048
-0.2289369331
-0.001043917099
0.2288454183
0.001135431849
-0.001526882107
-0.2288692898
0.2287480854
0.001648086443
-0.002140722273
-0.2288135867
0.2286568209
0.002297488049
-0.002858653447
-0.2288059387
0.2286328547
0.003031737385
-0.003560726517
-0.2288698989
0.2287535282
0.003677021929
0.001511241158
0.9135087819
0.004059351579
0.9133446433
0.006890260254
0.9134477112
0.002851575765
0.9147813227
0.006312556235
-0.4579879346
0.4577910482
0.003048462125
-0.4577166809
-0.003060789597
0.458326995
0.002450475534
-0.4571875853
-0.002581221779
0.4568964228
0.001389717051
0.001482667207
-0.2284010912
-0.001730764163
0.2282077534
0.001924102029
-0.2281416714
-0.002618911631
0.2278717715
0.002888811558
-0.2279566223
-0.003232800984
0.2306188284
0.0005625513641
-0.2332888722
0.008611910865
0.235736481
-0.01109562339
-0.2324076635
0.01641883055
0.2334268468
-0.01746427761
0.0005022397479
0.9130065422
0.001113115835
0.9127337672
0.002349231866
0.9122115952
0.003204876018
0.9117635364
0.00216214213
-0.45701353
0.4565611828
0.003657223227
-0.4598282402
-0.004899242982
0.456736476
0.007991007234
-0.458303662
-0.009306407832
0.4597874446
0.002228605842
0.005594019368
-0.2274970779
-0.00225701564
0.2272686638
0.002485429727
-0.2284355734
-0.002364741448
0.2317916307
-0.001011295719
-0.2401087523
0.01046150048
0.2426650054
-0.01310655225
-0.2414109396
0.01887465909
0.2424766058
-0.02003340559
-0.2351364159
0.02154657332
0.2351038637
-0.02156384249
9.689641598e-05
0.9129096458
0.0002617190174
0.9125689446
0.0006140059336
0.9118593083
0.001272707818
0.9106554429
0.0004493916734
-0.4562664958
0.4554339746
0.002105229004
-0.4552616045
-0.002569425685
0.454580928
0.003250102204
-0.4536167081
-0.004181652104
0.452755844
0.00266583578
0.002376680386
-0.2278213789
-0.004556936135
0.2262816896
0.006095296371
-0.2411419983
-0.001471823381
0.2455233935
-0.003017521059
-0.2475457493
0.01168862249
0.2482056726
-0.01250517279
-0.2423997372
0.01187056478
0.2411769054
-0.01077150247
-0.2325471558
0.005868004089
0.2307298466
-0.004104590036
-0.0002113991361
0.9131210449
-0.0003096993136
0.9126672448
-0.0001342883095
0.9116838973
0.0001875829105
0.9101843807
0.0001491909951
-0.4545354909
0.4541969794
0.0005260944316
-0.4540199553
-0.001524200059
0.4532047035
0.002339451865
-0.4518393683
-0.002957612165
0.450729662
0.002010837527
0.002056480917
-0.2312815087
-0.0008611557606
0.232834994
-0.0007488965848
-0.2457797585
0.004445952457
0.2462539805
-0.005095572292
-0.2475689378
0.002565170777
0.2446434244
0.0001686215887
-0.2343455288
-0.009301696488
0.2340723891
0.009464030669
-0.2221884818
-0.02128769371
0.219432018
0.02401824059
-0.000664986351
0.9137860313
-0.001185349595
0.913187608
-0.001523842315
0.91202239
-0.0002336780314
0.9099085035
-0.001014287149
-0.4540570384
0.4537351343
8.822605152e-05
-0.4521124176
-0.000345611426
0.4517066891
0.0007513399107
-0.4502591834
-0.001778035024
0.4498634465
0.001094818985
0.001078254101
-0.2352445615
0.0004325562994
0.2357530346
-0.001047013669
-0.247324759
0.001564699246
0.2446088623
0.0009312071367
-0.2385526061
-0.00362235955
0.2366483319
0.005335927077
-0.2192815305
-0.01394027146
0.2142199469
0.01893712775
-0.2088062423
-0.03723030461
0.1059988945
0.1002386105
0.0177327674
0.02206627445
-0.001145980948
0.9149320122
-0.002226623437
0.9142682505
-0.003088702037
0.9128844686
-0.001613590413
0.9106622793
-0.002228887344
-0.4537162669
0.4537252752
-0.001622598691
-0.4515178987
0.001678196583
0.4514119612
-0.001572259001
-0.4487839786
0.001384379501
0.4488209434
-0.0005279415886
-0.0009051248761
-0.2356474858
-0.000124738304
0.235165353
0.0004750488337
-0.2418787869
-0.002196096279
0.2410214736
0.002822305555
-0.2311702423
-0.005642765822
0.2298348346
0.006794586377
-0.2058648702
-0.01045287132
0.2046507533
0.01164522664
-0.09302553454
-0.007609820973
0.0929489767
0.007686378815
-0.001626056808
0.916558069
-0.003172654785
0.9158148485
-0.004775744881
0.9144875587
-0.002794811682
0.9120892393
-0.003407893232
-0.4539641207
0.4541930688
-0.003023759819
-0.4515010359
0.003286176692
0.4517419714
-0.003527112217
-0.4488397273
0.003741824781
0.4491595947
-0.001926654093
-0.002160658115
-0.2343447216
0.002029704132
0.2339209615
-0.001754420972
-0.2378800153
0.0001782277578
0.236949549
0.0005099338558
-0.2266183709
-0.002520921747
0.2259307885
0.003027039785
-0.204295254
-0.003400750448
0.2047792049
0.002907048258
-0.09659909049
0.0002984688713
0.09716729399
-0.0008666723782
-0.002070477991
0.918628547
-0.004248611673
0.9179929822
-0.006358528447
0.9165974755
-0.003977582381
0.9143096379
-0.004601344607
-0.4546580169
0.4551186875
-0.004438253039
-0.4520864634
0.004964922948
0.4526801392
-0.005558598787
-0.4496414369
0.006129299058
0.4504417258
-0.003280515412
-0.003688363203
-0.2327355409
0.003538251474
0.2323975193
-0.003360620491
-0.2345221617
0.002271808233
0.2338203945
-0.001822033456
-0.2245295789
0.0007171120752
0.2241979763
-0.0005682075048
-0.2067456974
0.001224281027
0.2074489358
-0.001933153295
-0.09992308017
0.002351706761
0.1002055999
-0.001301718959
-0.001332507524
-0.00259628989
0.9212248369
-0.005182838648
0.920579531
-0.007912738842
0.9193273757
-0.00512083203
0.9172436558
-0.0057259248
-0.4557997461
0.4564779653
-0.005799051197
-0.4533667089
0.006618659421
0.4541369745
-0.007388925076
-0.4515862413
0.008279228688
0.4529602502
-0.004743958487
-0.004968383039
-0.231502721
0.004879181321
0.2312330045
-0.004783512215
-0.2319476259
0.004049847055
0.2313881522
-0.003752669316
-0.2235027946
0.003203217136
0.2233547407
-0.003238191617
-0.209608873
0.004306859239
0.2103431307
-0.005043288451
-0.101855003
0.003626578302
0.1020414375
-0.001891458612
-0.001921554179
-0.003072918822
-0.006167913285
-0.009396590756
-0.00615372608
-0.4573352455
-0.006998475211
-0.4551266536
0.007975704279
-0.009024742746
-0.454290437
0.01017223131
-0.005763599392
-0.00582920609
-0.2304795958
0.00596665409
0.2302460027
-0.005921980461
-0.2298672753
0.005406916647
0.2294062931
-0.005218338343
-0.2231251899
0.00502812432
0.2231127445
-0.005197548189
-0.2126641018
0.006661670481
0.2134993225
-0.007497096211
-0.1032593616
0.004911097741
0.1034403978
-0.002526383098
-0.002565750919
-0.0001553775081
-0.00046492196
-0.09597879101
0.002166548377
-0.09962483858
-0.001218077851
-0.001246712123
0.003480750542
-0.1016553428
-0.001828109793
-0.001852300973
0.004737531822
-0.1030829203
-0.002438804679
-0.002475168449
-0.00929284313
0.009756843724
-0.09348953513
0.0002551597848
-0.0009618382892
-0.2060456086
0.100306737
-0.1000101391
0.001869950485
-0.09725839795
-0.0001887008908
0.09774556772
0.003622489049
-0.004349669694
-0.2088845939
0.1022231449
-0.1020166161
0.003274221687
0.002074685099
0.1005837586
0.1009816689
0.002870756103
-0.1007396508
-0.001545693879
-0.001567080298
0.05015570372
-0.001065029729
-0.04991546896
0.001964447892
-0.001139652923
-0.04939651303
-0.0008485886029
0.001643146001
0.04943893506
-0.0008369794314
0.006108174682
-0.006926489609
-0.2118463956
0.1037053386
-0.1035188033
0.004550996435
0.003432475838
0.1024172474
0.102574083
0.00407829004
-0.1023992613
-0.002110701057
-0.002142410696
0.02546042816
-0.001038450107
-0.02552765091
0.001105672854
-0.05014892629
-0.001014866246
0.00210125697
0.05015783668
-0.001095301108
0.004716345241
0.1039000911
0.05208060005
0.002745560453
-0.002804329202
-0.0520218313
0.02716346754
-0.002050994281
-0.02691782189
0.001805348637
-0.02638630742
-0.001039090515
0.001201473285
0.02622392465
-0.04446524848
0.001072485443
0.0450522782
-0.0008377345059
-0.0008217806525
0.0478778451
0.001603794604
-0.04750635246
-0.001057719536
-0.0009175677025
-0.004517072171
-0.04099384968
0.04102134565
0.004489576208
0.0008005686076
-0.001401358466
-0.04386445862
-0.0008139017107
-0.04934787063
0.001602746418
-0.0008374870978
-0.001484898241
-0.04868955082
0.001405434529
0.04876901453
-0.09856573182
0.001516581837
0.09895090666
-0.001901756671
-0.04851824904
0.04855116182
-0.0007255174062
-0.0007922936123
0.02478030707
-0.0008200788303
-0.02477412995
0.001552145814
0.04808369338
-0.0009596171375
-0.0007983769594
0.001457664608
-0.04848564281
-0.0007276444893
-0.0007626263458
-0.001020272096
-0.05018403639
0.002048925262
-0.0009935430697
-0.001125027765
0.001950392778
0.05028952797
-0.0009591892571
0.003027573937
0.101221845
-0.001621936485
-0.001645813623
-0.02542304049
0.02548432708
-0.001186314354
0.0248857591
-0.0009597573949
-0.02494627381
0.02476271901
-0.0008310005427
-0.001274849744
-0.02521322047
-0.00107979135
-0.02651917516
0.001212659095
-0.001047582369
0.001123241244
0.02538476929
0.004236340433
0.1027449214
-0.0021855258
-0.002221653016
-0.02565453905
0.02550835546
-0.0009013987874
0.02699632551
-0.0008409567181
-0.02723516014
0.02485932389
-0.000988431029
-0.0008937118064
-0.02579927735
-0.001487419173
0.001542244159
0.02710864255
-0.002850418942
-0.02768261945
0.02748751635
-0.001292316069
0.02672641044
-0.000769175446
-0.002292529186
-0.02744108455
-0.004921621761
0.004652561052
-0.2040376223
-0.09674915304
-0.0006646224216
-0.09474471743
-0.007430275078
0.09456517154
0.09401679269
-0.003237312524
0.002656117727
-0.09343559789
0.04476056853
-0.04425784518
0.0002978452527
-0.04190574445
-0.004547257485
0.04193592977
0.001268364869
-0.001688098105
-0.09814599859
-0.04862012891
0.001388242702
-0.04769764978
0.001329170831
0.04792062476
-0.04741428671
0.001320431537
0.0006000539345
0.04523300004
-0.002155912154
0.0946537418
0.001518963051
-0.02074222343
-1.77523913e-05
0.02063041285
0.0001295629725
-0.002924351499
-0.01683239015
0.0166896413
0.003067100356
0.001579046605
0.01931093711
-0.001792259577
-0.01909772414
-0.02746801344
-0.09574385142
0.04684365291
0.04540790316
0.01545890888
0.0155013999
-0.005494444767
0.0062520988
-0.04175150371
-0.001160525291
-0.02500978924
0.001311431159
0.02485888337
-0.05127484364
0.00279673883
0.05130601582
-0.002827911009
0.0514444334
0.002947388748
-0.002992125193
-0.05139969696
0.005173819777
-0.02005602517
0.02833017164
-0.01344796624
-8.732691894e-05
-0.02083173289
0.0001768363853
0.0463533135
0.001435253617
-0.04598363622
-0.0009031614067
-0.0009017694921
0.02292335878
-0.02324762636
0.0002369406576
-0.0219819609
0.003491301113
0.02366447956
0.02319527718
-0.02529844946
0.002116823808
-1.365153169e-05
0.0003120473629
0.02259355903
0.001498618673
0.04669293328
-0.0009079721181
-0.0009302663308
0.04198876751
-0.00149073886
0.0009158096607
-0.04141383831
0.01978887666
-0.01935040473
0.001140574674
-0.01797746693
-0.002477549985
0.01753066542
-0.003592927031
-0.02122282133
0.00283378746
-0.002243969193
0.00158740957
0.02044543628
-0.0006460491092
0.04262059163
1.422499042e-05
0.01990339396
-0.002836426045
-0.00353223258
-0.02011671962
0.02470081694
0.0007987550649
-0.0008952856426
-0.02460428637
-0.02128985525
8.835898553e-05
0.02121908318
-1.758690845e-05
0.0008339945584
0.02474139257
-0.0008745701842
0.04834791831
0.001468411972
-0.0482800683
-0.0007953819723
-0.0007408800107
0.02178308935
-0.02182270063
8.467615518e-05
-4.506487065e-05
0.0006886130793
0.02246923642
3.742767792e-05
-0.02135266072
8.955899274e-05
-2.675352492e-05
8.967735278e-05
0.02172038686
-2.69748682e-05
0.001458184561
0.04840641566
-0.0007746831099
-0.0007419988042
0.02533577246
0.0009247954428
-0.0009038196817
-0.02535674822
0.00099498189
0.02525560894
-0.0009148183752
0.02470564799
0.0009062439084
-0.0008981780398
-0.02471371385
0.000912793176
0.02470281289
-0.0009099580847
0.02476750181
0.001357731054
-0.001417389007
-0.02470784385
0.001609672359
0.02508053225
-0.001922702799
0.02646790858
0.001273522022
-0.001488042653
-0.02625338795
0.00116534541
0.02651941054
-0.001216847372
0.002990428075
-0.003026960758
0.02474002496
0.001106509053
-0.000824887786
-0.02502164623
0.02447808553
-0.0008985858608
-0.04360479614
-0.01676355331
0.03976811512
-0.004072660759
0.004206476535
-0.01696620593
-0.02583210162
0.001131803879
0.02586564315
-0.0507640649
0.002108774658
0.05080193066
-0.002146640408
0.0508970259
0.002217720071
-0.002248760249
-0.05086598572
-0.05059769371
0.00198186126
0.05064146059
-0.002025628142
0.002081576068
-0.002121018487
-0.05072462249
-0.02571611369
0.001157534099
-0.05118084362
0.002598188354
0.05120598111
-0.002623325845
0.002740594603
-0.002762424939
-0.0512530133
-0.02517654929
0.001273269108
-0.05027390356
-0.0009462833427
0.001970154033
0.05024501475
-0.05041053315
0.001854922442
0.05046121612
-0.001905605416
0.001947429699
-0.001992606434
-0.05055251697
0.02403897819
-0.0003434938899
-0.02431638071
0.0006208964078
-0.0003318226739
-0.0251097244
0.0005934076117
0.02484813946
-0.02510902621
0.0009930527399
0.02504918239
-0.0009332089218
-0.025076573
0.001412945231
0.02527330012
-0.05102195483
0.002445194864
0.05104982802
-0.002473068049
0.002554404956
-0.002583861485
-0.05115138709
0.002256816897
0.05092777637
-0.002287567374
0.002382374001
-0.002414474047
-0.05098985479
-0.02501758823
0.001298746284
0.02505985307
0.001071612227
-0.0009199063401
-0.02521155896
0.02451005348
-8.888612354e-05
-0.02478486959
0.0003637022382
-0.02551112137
-0.0001386550598
0.0003824865182
0.02526728992
0.02286296815
-0.02301473753
0.0001669609169
-1.519153891e-05
-0.02638953679
0.002260472576
0.02410991397
1.915025068e-05
-0.02712190336
0.00164925473
0.02741078886
-0.00193814023
0.02509651864
0.001277924557
-0.001464719358
-0.02490972384
0.02326687044
-0.002183112062
-0.02322107119
0.002137312816
-0.0004017249801
0.0006877149495
0.02375298822
-0.0001309380442
-0.02575651416
0.0003763308322
-0.0001153359844
-0.02649754438
0.0003655596119
0.02624732075
-0.02622646604
0.001019949162
0.02608604035
-0.0008795234701
0.02587808524
0.001038806483
-0.0007542925768
-0.02616259915
0.02236774869
-0.02248578014
0.0001031454802
1.48859675e-05
0.0001006137923
0.02272063642
4.171793976e-05
-0.01947498629
0.004437057558
0.01499045757
4.747116952e-05
-0.02444129008
0.002589710276
0.02532675829
-0.003475178481
0.01869331227
0.00128788345
-0.0200848155
0.0001036197817
0.004168508432
0.01442869069
9.611314532e-05
0.01737963714
-0.0004736362054
0.0001346330401
-0.01704063397
0.0001825242931
0.01790475728
-0.0007076444333
0.02122905506
0.0005340900617
-0.02192909237
0.0001659472539
9.921287042e-05
0.02100732908
0.0001225131078
-0.02431887199
0.000507333661
0.0239107512
-0.02351838834
0.001035122018
0.0234851708
-0.001001904477
0.02318503662
0.0009671962777
-0.0008582804309
-0.02329395247
-0.02242718258
0.001291967968
0.0228606004
-0.001725385791
0.001109644622
-0.001176601018
-0.02345143194
-0.02475258972
0.0009678077883
-0.02098105347
0.004159611867
0.02098995004
-0.0234529131
0.001588123408
0.02406398831
-0.002199198615
0.02580904967
0.001331848947
-0.001661470603
-0.02547942801
0.0009844943976
0.02309507535
-0.0008945331262
0.001372407758
-0.001687223154
-0.02313809771
-0.02167775618
0.001984586161
-0.0007671991652
-0.02207053001
0.001071639014
0.02176609016
-0.02140621217
0.0008760941203
0.02154829189
-0.001018173836
0.001176327506
-0.001603551101
-0.02199995898
0.0221600759
0.00142771163
-0.001305653556
-0.02228213397
0.02157617325
-0.0001832965153
-0.02047794716
0.00143616372
0.01904253783
-7.543827169e-07
-0.02307180703
0.00155676364
0.02346877905
-0.00195373566
0.02686972945
0.002159919746
-0.003185452639
-0.02584419656
-0.02341808673
0.000636842267
0.02326204916
-0.0004808046993
0.001069645363
-0.001116747314
-0.02302470508
-0.02094491219
0.0004265049311
4.046009264e-05
-0.0268626452
0.0005179983831
0.02665193461
-0.0003072877966
0.02601196777
0.0004932058775
-0.0002758302461
-0.02622934341
0.00160123073
0.02726539315
-0.001996894427
0.0005778660168
-0.0003713732431
-0.02706913797
-0.02203404246
7.054126652e-05
0.02198514738
-2.164618895e-05
-0.02543640413
0.0006686866887
0.02525896489
-0.0004912474448
0.02473398554
0.0006421120188
-0.0004728387494
-0.02490325881
0.001053085705
0.02586117586
-0.001105211902
0.0006925321381
-0.0005198626591
-0.02560907361
-0.02210254361
7.334388994e-05
-4.84273313e-06
-0.02153933648
3.959885907e-05
0.02145723335
4.250427386e-05
-0.02407020717
0.0006166529199
0.02390190796
-0.0004483537118
0.0006234378188
-0.0004644599395
-0.02357706461
0.0006389739475
0.02456808222
-0.000473070628
0.000620318319
-0.0004522333054
-0.02423829218
-0.02161541291
4.721385876e-05
2.88625764e-05
-0.02666627881
0.0003488594166
0.02643306121
-0.0001156418142
0.02575077397
0.0002983016829
-6.944576716e-05
-0.02597962989
-0.02753715505
0.002083206015
0.02763041552
-0.002176466479
0.0004215105946
-0.0001528318855
-0.02693495752
-0.02485051094
0.02462934725
-0.0001106589803
0.02392583947
-9.248469178e-05
-0.02417684867
0.0002991341885
0.02552121776
-6.957797175e-05
0.0003278030839
-0.0001077900443
-0.02507052398
-0.02504498829
0.0005003580809
0.02479637365
-0.0002517434419
0.02403867696
0.0005270134922
-0.0002712764461
-0.024294414
0.0004847498403
0.02577558117
-0.0002483632379
0.0004935570036
-0.0002476144625
-0.02529093083
-0.0230100148
0.002062864745
0.02306862097
-0.002121470921
0.00331335973
-0.0045895917
-0.02626092308
0.0005529010454
0.02377918377
-0.0002934078626
0.001221661161
-0.0009939943158
-0.02323768164
-0.000496497836
0.02288823848
-0.02349033475
0.001098594107
-8.627350955e-05
0.0003738864575
0.02422244053
0.0010874269
0.02491280316
-0.0009403769846
-0.02202778387
0.02190926973
3.224062849e-05
0.02104751103
-0.02155095363
6.944762035e-06
-0.02243149987
0.022329419
-3.657418079e-05
-0.02215340275
3.673275852e-05
0.001505078105
0.01954936746
-6.934533439e-06
0.001910093717
-0.002542032136
-0.02648996494
-0.03109873894
0.004727121326
-1.791917813e-05
0.00224682686
0.02214648973
-0.002232255129
0.02780238508
-0.02772136682
0.002151236871
-0.004496286966
0.003340051095
0.02442310631
0.001413468211
0.02539849534
-0.001715444907
-0.0219995964
0.02200434955
-0.004501040109
0.02414794588
-0.02638154224
1.341228014e-06
0.02364115425
-0.0001170397543
-0.001479807006
-0.02270290146
-0.02283557413
0.02273274787
-1.250972324e-05
-0.02253272229
-2.971563261e-05
0.0007782919453
0.02337290244
-3.24850874e-06
0.000121824019
-0.02294651736
-1.088078545e-05
0.001021183611
-0.0008903148843
-0.02635733477
-0.02676041832
0.0003846979549
0.00115622744
0.02742444958
0.0218694551
-0.02200249048
0.0001534459655
-2.041058262e-05
0.0001142482829
0.02225149721
2.003198899e-06
0.001050051006
0.02559217619
-0.0007641419578
0.002042276343
-0.002297066633
-0.02418649979
-0.02099922546
0.001452293481
7.194568844e-05
0.0001917501659
0.0217151669
-3.746196109e-05
-0.04957841519
-0.0009401591411
0.001797684363
0.04963368314
-0.04992098653
0.001598110826
0.04998722108
-0.001664345373
0.05019039121
0.001700845736
-0.001766902686
-0.05012433426
0.001436798452
-0.04963909023
0.04971233098
-0.001510039192
0.001556422226
-0.001628195523
-0.04984921324
-0.0008995141943
-0.04953134682
0.001758689731
0.001733547951
0.05025435198
-0.001797508722
0.001828994516
-0.001877339548
-0.05036218812
-0.0009991828795
-0.05029669628
0.001946771041
0.02554311997
0.000904562739
-0.0009257152736
-0.02552196743
0.0272190864
-0.02747097736
0.0006734015535
-0.02741078611
0.001731235599
0.02776275653
-0.02641186947
0.002314443091
-0.02373159071
0.001702824978
0.02409163048
-0.02476186461
0.001034560772
0.02487128769
-0.001143983853
0.0001521143017
0.02052375485
-4.545630272e-05
0.02400751964
0.004143530513
0.0001791214847
-0.01382441747
0.0003764512259
-9.427560185e-05
-0.02093560579
0.0001981485008
0.0002385607219
-0.02358046268
0.02343747223
-0.02380841284
0.0006095013369
0.02307297972
0.0006014331638
0.00444750929
-0.02973755158
-8.40716322e-06
0.02634437547
-0.02509634464
0.003199478463
0.02645509342
0.002006105851
0.02272416462
0.0006608624654
-0.0005094695641
0.02240089303
0.0008327411466
0.02223620377
-0.0203091507
0.0003658543287
0.0205729172
-0.0006296208243
0.0007124486715
-0.0009670869484
-0.02115157389
-0.02199757721
0.001354758831
-0.004166814839
0.02130362686
0.002766581946
-0.01833029778
0.02581199891
-0.01164851597
-0.002707808446
-0.01845891537
-0.0176423631
0.0002857130507
0.0008865700175
-0.01884750289
0.0003185697791
-0.02088053392
0.001650384315
0.01471505793
-0.01465162372
-6.34342153e-05
0.03028719497
-0.02135107598
0.005778938946
0.02580415965
0.00449125397
-8.218651143e-06
0.02294726775
-0.02313293021
0.0002740214468
-0.0001036347156
0.02272883497
0.000322067494
0.02113613292
-2.068445852e-05
0.02236497788
-0.02242807803
0.0001104461084
-4.734595773e-05
0.02232086703
0.0001007674284
-5.665658318e-05
0.02367462692
0.002143374248
-1.384151638e-05
0.02295325136
0.0007403894265
-1.901386797e-05
3.466280731e-05
-0.02191300806
5.564462133e-05
0.02471129311
-0.02491585272
0.0002392224157
0.02453756276
0.0002584065054
0.02611059709
0.001033109418
-0.0002061933565
0.02577622476
0.00054056568
0.02221930431
4.373875471e-05
9.299513231e-05
-0.02140394279
-4.171306292e-05
0.02330462517
-0.02346963431
0.0002580042658
0.0002612539592
0.02436370371
0.0002635364003
-9.265520887e-05
0.02419353322
0.0002628257002
0.02166538497
-3.765330944e-05
0.02616864678
-0.02643622648
0.000565881385
0.0006061195382
0.02696182628
0.001010799386
0.02545163322
-0.0009193126369
0.0009707224253
-0.0009261455106
-0.02515360312
-0.02537055469
0.0005886333725
0.0005673347805
0.02590044619
0.0242360504
-0.02443801386
0.0007289769526
-0.02503947316
0.0006993540901
0.02484047715
-0.02474502276
0.0008846466551
0.02473004323
-0.0008696671278
0.02179667625
-0.02186939567
5.125608154e-05
2.146333357e-05
0.02171824842
5.384206187e-05
2.45857719e-05
0.02222017346
3.691173205e-05
6.378184826e-05
0.02214821686
3.731789901e-05
3.463869176e-05
-0.01494101354
0.01490742285
3.359070162e-05
0.02163485571
6.400465354e-05
1.938805503e-05
9.102664007e-05
0.02152925898
1.457008601e-05
0.0009943512267
-0.001039966238
-0.0247162496
-0.0237209606
0.001211031053
0.0007512933832
0.02403765806
0.0003821462387
-0.0001414892675
-0.02502552657
0.02504811377
0.0006748026017
-0.02534077013
0.02473920609
0.0006726099169
0.000302887565
-0.02331008661
-7.538480465e-06
0.02700907224
-0.02741927453
0.0007130898545
0.02667093136
0.0005051017986
0.0278458385
-0.02781821215
0.002232846233
-0.0007948585209
0.001221422488
4.96883266e-06
0.02307830719
-0.02390435261
0.0008208578677
5.187550257e-06
0.0003389462079
-1.75279322e-05
9.577896431e-05
-0.02260160565
2.004654727e-05
0.02574638634
-0.02604658036
0.0003959729876
0.02544708013
0.0004024516875
0.02635147017
0.0004200749822
-9.255273651e-05
0.0003974425439
2.647803542e-05
0.02620055598
-0.03093381412
0.004723250321
1.000782369e-05
0.002284580383
1.162298582e-05
0.02197240606
-0.0220419294
0.004506580898
-0.01495616111
0.005994753045
3.429645689e-05
0.0003780315733
6.090777861e-05
0.01439290659
3.578410381e-05
0.01543853753
-0.0005142523968
-0.01482121607
0.01575661645
0.0002416982178
0.01867594239
-0.02217321469
0.002326350878
0.01631454409
0.001476898872
0.0008844994218
0.01585243128
0.001230960058
-0.008792544115
0.002471760712
0.001892287613
0.0001861396571
-9.583566803e-06
8.130685617e-05
0.02316928629
-0.02212047618
0.003110801764
-0.005645305041
0.003718246689
0.0009364791565
0.02212342894
0.001213943249
0.001987538919
-0.02193304969
0.01996268331
0.0006647128325
0.003410360088
0.0004685891259
0.002431852975
0.01275387921
0.0008528564395
0.001105363239
-0.0001087141135
0.0008043534468
-0.01928255664
0.0003263396308
0.0004968301543
0.02126527296
-0.02189328335
0.002064174111
-0.004435881795
0.004350078767
-4.496768484e-05
0.0001520700829
3.915065135e-05
0.02240320986
0.000477695188
0.0009364314481
0.0225019228
-0.02258505168
0.0001101502368
-2.702134843e-05
0.0001069819213
-3.31371542e-05
0.02270435428
0.0002623083463
-1.341125687e-05
0.0001390300538
-1.972746351e-05
0.02511627046
-0.02530717565
0.0002614464599
-4.275715398e-05
0.0002431748949
2.938216584e-05
8.89897586e-05
2.777093889e-05
0.02551794295
0.000347271568
0.0002841111941
0.02364147427
-0.02383364059
0.0002317651769
-7.452257603e-05
0.0002463625369
-2.123202016e-05
8.260098151e-05
-3.262893007e-05
0.02402238216
0.0002537520424
0.0002359554311
-9.687982761e-05
0.02621010209
0.0003198389379
-0.02279561694
0.0227144093
-1.567219166e-05
-0.02288980868
-2.145007005e-05
-0.02262067392
0.02253466321
1.656494206e-05
7.218302011e-05
2.155236197e-05
0.0003026552246
-0.000744996867
0.0272711832
0.001104229182
-0.02403828097
0.02327551493
1.776917116e-05
-0.02624805978
3.331234045e-05
-0.02302191252
-2.072804708e-05
0.0002815307594
-2.792835439e-05
0.0006177564428
-0.0001114602081
0.02440685873
0.0003339487209
-0.0221048256
0.02202142489
-2.805949293e-05
-0.02219208009
-2.340449205e-05
-0.02193302031
0.02182565535
1.488027472e-05
0.0001032768404
-1.487226437e-05
0.0003332869028
-7.51426145e-05
0.0252906127
0.0003057476707
-0.02244923694
0.02235513439
1.895993091e-05
1.584830233e-05
-0.0222771303
-2.273983491e-05
9.944842443e-05
-2.1444336e-05
0.0003195371461
0.02193880282
4.382641309e-05
-0.02201065916
2.802992179e-05
4.984570782e-05
1.956145092e-05
-0.0002577582687
0.02454668634
0.0005074455779
-0.02455039044
0.02434247788
-0.02475830747
-0.02413073776
0.02391330338
0.0002629961978
0.0005152685346
0.02208383244
4.325850324e-05
2.11259225e-05
3.961863083e-05
3.355464849e-05
0.01940436177
0.001439308381
-0.02086419317
2.052301927e-05
0.004441231277
2.211695498e-05
-0.00441704505
0.02422921291
0.003256453112
-0.02183351812
0.02185770434
-0.02251568066
-0.03086168536
2.403387767e-05
0.005903441829
0.003871731662
-0.0003544957807
0.02351143523
0.0006222443188
-0.02368390017
0.02342043103
-0.02306145242
-0.0004482225549
0.0005276200413
-0.0001686414307
0.0008013736357
0.02133523425
2.538330134e-05
2.281852327e-05
0.0006182006985
-0.02390266847
-0.0002058669785
0.02376061888
-0.02409199792
0.0009495797406
0.02347663002
0.00138258296
0.02441983966
0.0006932528843
-0.0004360222362
0.0007638639809
-0.0001162501742
0.02177291227
2.010729033e-05
1.609166104e-05
0.02223256678
0.0001442226421
-4.737042698e-05
-6.232523654e-05
0.01502201451
0.004533193128
-5.840177503e-06
0.01506638031
-4.436580535e-05
0.006077896433
-0.02211025506
0.02659209532
-0.02459407917
0.004079880283
0.003501004496
0.02348122542
0.002242231466
-0.004569427796
0.003456574041
-0.01502134637
0.0310429118
0.005982784115
-0.01501535272
-5.993641367e-06
-0.01952730375
1.091091558e-05
0.004661692001
-3.224391538e-07
-0.0002026897607
0.02326648613
0.0005773578737
-0.02170266191
0.02149713402
2.838130594e-06
5.953684953e-06
-0.02101244607
5.335318473e-06
0.0004847810318
-9.308507681e-08
0.001048365707
0.02263279501
0.0001178926808
-1.793981816e-05
0.0001254932836
-2.542056277e-05
0.02309401763
0.0002867175316
-7.832718767e-06
0.0001565989713
-9.098702328e-06
0.0001315593331
-0.02213011222
-3.937593428e-06
0.02454047262
-0.02484711613
0.0004382028368
0.02422543598
0.0004684826124
0.02514832128
0.0004130071361
-0.0001218486569
0.0004230538069
-4.636707726e-07
0.0005457180852
-0.02148438388
-6.055966652e-05
0.02283161211
-0.02344740982
0.001161515797
0.002241976198
0.02387938624
0.0005377999022
-0.0002795966797
0.0007115730996
-4.881365891e-05
-0.00156781491
0.001743020596
-0.2285762969
0.002364502301
0.2282222548
-0.2284490433
-0.002137713787
-0.2289649334
-0.001373564931
0.2288116163
0.002600737651
-0.2283779068
0.003412907156
0.2279758237
-0.2282712522
-0.003117478633
-0.2289069501
-0.001962463827
0.2287286917
0.003653984764
-0.2281978158
-0.003343376688
0.232513053
-0.2296531807
0.0004676853161
-0.2288823081
-0.002660124267
0.2286837789
-0.005954571551
-0.2306983532
-0.01169837464
0.2331782498
-0.2316508181
0.01014897634
-0.228910282
-0.003389035552
0.2287385911
-0.01287904944
-0.231245773
-0.002105295354
0.002360399199
-0.2277521817
0.003288011623
0.227047446
-0.2273802903
-0.002955167387
-0.002369606911
0.2279729501
0.002092338674
-0.2272443969
-0.008063583238
0.2381481669
-0.2349731493
0.004832613604
-0.003483289658
0.2282248655
-0.01105385732
-0.2371869018
-0.01805350999
0.2420075938
-0.2401203802
0.01608351308
0.005811252804
0.2352809448
-0.0196647376
-0.2398801301
-0.02242346206
0.2371382989
-0.2365929829
0.02182111418
0.01501508027
0.2345503879
-0.02276323279
-0.2348419666
-0.009397689673
0.01064974797
-0.2290734372
-0.002597547179
0.2391692338
-0.2341984384
-0.002433271929
-0.003103898165
0.2277832712
-0.005943820205
-0.2378819672
-0.01257688859
0.247083449
-0.245514949
0.01087203187
0.007521185945
0.2410109543
-0.0138343579
-0.2464306611
-0.01490038824
0.244522145
-0.2447456176
0.01499271643
0.01733186488