/*--------------------------------*- C++ -*----------------------------------*\
| =========                 |                                                 |
| \\      /  F ield         | OpenFOAM: The Open Source CFD Toolbox           |
|  \\    /   O peration     | Version:  v2012                                 |
|   \\  /    A nd           | Website:  www.openfoam.com                      |
|    \\/     M anipulation  |                                                 |
\*---------------------------------------------------------------------------*/
FoamFile
{
    version     2.0;
    format      ascii;
    class       pointVectorField;
    location    "3";
    object      pointDisplacement;
}
// * * * * * * * * * * * * * * * * * * * * * * * * * * * * * * * * * * * * * //

dimensions      [0 1 0 0 0 0 0];


internalField   nonuniform List<vector> 
6506
(
(0 0 0)
(0 0 0)
(0 0 0)
(0 0 0)
(0 0 0)
(0 0 0)
(0 0 0)
(0 0 0)
(0 0 0)
(0 0 0)
(0 0 0)
(0 0 0)
(0 0 0)
(0 0 0)
(0 0 0)
(0 0 0)
(0 0 0)
(0 0 0)
(0 0 0)
(0 0 0)
(0 0 0)
(0 0 0)
(0 0 0)
(0 0 0)
(0 0 0)
(0 0 0)
(0 0 0)
(0 0 0)
(0 0 0)
(0 0 0)
(0 0 0)
(0 0 0)
(0 0 0)
(0 0 0)
(0 0 0)
(0 0 0)
(0 0 0)
(0 0 0)
(0 0 0)
(0 0 0)
(0 0 0)
(0 0 0)
(0 0 0)
(0 0 0)
(0 0 0)
(0 0 0)
(0 0 0)
(0 0 0)
(0 0 0)
(0 0 0)
(0 0 0)
(0 0 0)
(0 0 0)
(0 0 0)
(0 0 0)
(0 0 0)
(0 0 0)
(0 0 0)
(0 0 0)
(0 0 0)
(0 0 0)
(0 0 0)
(0 0 0)
(0 0 0)
(0 0 0)
(0 0 0)
(0 0 0)
(0 0 0)
(0 0 0)
(0 0 0)
(0 0 0)
(0 0 0)
(0 0 0)
(0 0 0)
(0 0 0)
(0 0 0)
(0 0 0)
(0 0 0)
(-5.534268002e-07 7.816839441e-06 2.775557562e-17)
(0 0 0)
(0 0 0)
(0 0 0)
(0 0 0)
(0 0 0)
(0 0 0)
(0 0 0)
(0 0 0)
(0 0 0)
(0 0 0)
(0 0 0)
(0 0 0)
(0 0 0)
(0 0 0)
(0 0 0)
(0 0 0)
(0 0 0)
(0 0 0)
(0 0 0)
(0 0 0)
(0 0 0)
(0 0 0)
(0 0 0)
(0 0 0)
(0 0 0)
(0 0 0)
(0 0 0)
(0 0 0)
(-3.447793885e-05 0.0001158228621 4.996003611e-16)
(-0.0001984060531 0.0007265433337 3.080868893e-15)
(-2.594633814e-06 9.714569041e-06 2.775557562e-17)
(-0.0003766234302 0.001931807776 8.007483565e-15)
(-0.0009347740645 0.004697780072 1.992850329e-14)
(-0.00110877739 0.006363445096 2.699229729e-14)
(-0.0005174615631 0.003028733608 1.255939797e-14)
(-0.000628936244 0.006382355045 2.646494135e-14)
(-0.001100639916 0.01099408971 4.662936703e-14)
(-0.0009167579878 0.01214791376 5.151434834e-14)
(-0.0005409710761 0.007263228723 3.012867733e-14)
(0 0 0)
(0 0 0)
(0 0 0)
(0 0 0)
(0 0 0)
(0 0 0)
(0 0 0)
(0 0 0)
(0 0 0)
(0 0 0)
(0 0 0)
(0 0 0)
(0 0 0)
(0 0 0)
(0 0 0)
(0 0 0)
(0 0 0)
(0 0 0)
(0 0 0)
(0 0 0)
(0 0 0)
(0 0 0)
(-9.629124989e-05 0.0002210844175 1.026956298e-15)
(-0.0005259466924 0.001287965179 6.022959909e-15)
(-0.000124598492 0.0003126666924 1.429412144e-15)
(-0.001776354818 0.005574743629 2.53824739e-14)
(-0.002839720354 0.008707948622 4.06341627e-14)
(-0.003620398322 0.01212569784 5.65658631e-14)
(-0.002440840452 0.008362647567 3.806677196e-14)
(-0.00378491012 0.01789523835 8.142098107e-14)
(-0.005001332505 0.02315391428 1.079691891e-13)
(-0.00502247232 0.02663671937 1.241923231e-13)
(-0.003883848298 0.02102135761 9.564571357e-14)
(-0.003015040871 0.0287620479 1.308814168e-13)
(-0.003736358902 0.03505717648 1.634942182e-13)
(-0.002934251465 0.03695891864 1.723898801e-13)
(-0.002391906776 0.03054477432 1.390138005e-13)
(0 0 0)
(0 0 0)
(0 0 0)
(0 0 0)
(0 0 0)
(0 0 0)
(0 0 0)
(0 0 0)
(0 0 0)
(0 0 0)
(0 0 0)
(0 0 0)
(0 0 0)
(0 0 0)
(0 0 0)
(0 0 0)
(0 0 0)
(0 0 0)
(0 0 0)
(-4.14285915e-05 7.176044759e-05 3.747002708e-16)
(0 0 0)
(-0.001762719788 0.003745831951 1.891542478e-14)
(-0.002619497117 0.005408624143 2.807476474e-14)
(-0.004097488487 0.009043492155 4.692080058e-14)
(-0.003009282706 0.006829059606 3.447242491e-14)
(-0.006864086661 0.01956991052 9.865719353e-14)
(-0.008326670917 0.02313320343 1.198069421e-13)
(-0.009301392814 0.02826031346 1.463135169e-13)
(-0.007828802287 0.02440430781 1.229710778e-13)
(-0.008871509358 0.0383551552 1.931788063e-13)
(-0.01010691717 0.04261044019 2.205041705e-13)
(-0.009637696499 0.04661817561 2.412514633e-13)
(-0.008544205292 0.04237604925 2.134264987e-13)
(-0.005816472719 0.05141161163 2.591260539e-13)
(-0.006415123608 0.05534154228 2.86659585e-13)
(-0.004899917731 0.05710780236 2.959299472e-13)
(-0.004467171379 0.05331096578 2.68798872e-13)
(0 0 0)
(0 0 0)
(0 0 0)
(0 0 0)
(0 0 0)
(0 0 0)
(0 0 0)
(0 0 0)
(0 0 0)
(0 0 0)
(0 0 0)
(0 0 0)
(0 0 0)
(0 0 0)
(0 0 0)
(0 0 0)
(0 0 0)
(-0.0001914774848 0.0002884566102 1.637578961e-15)
(-0.0004354402507 0.0006357850323 3.73312492e-15)
(-0.001546473966 0.002377149275 1.393329896e-14)
(-0.001039725924 0.001648652808 9.36750677e-15)
(-0.006106736344 0.01152233511 6.535050279e-14)
(-0.007223783871 0.01321844003 7.731315588e-14)
(-0.009308769443 0.01819281175 1.063177324e-13)
(-0.008071156445 0.01626424543 9.217626662e-14)
(-0.0127240419 0.03224004786 1.822708651e-13)
(-0.01405064825 0.03448142578 2.011169009e-13)
(-0.01480014834 0.03969511245 2.313982339e-13)
(-0.01352972593 0.03750580589 2.118860642e-13)
(-0.01333723757 0.05147598887 2.904343432e-13)
(-0.01416232245 0.05278981748 3.072403443e-13)
(-0.01305986248 0.0558785071 3.252120795e-13)
(-0.01234230853 0.05464277036 3.083644451e-13)
(-0.007723885596 0.06097078129 3.44474449e-13)
(-0.007987351006 0.06075362758 3.54022367e-13)
(-0.00597642731 0.06129565242 3.573807916e-13)
(-0.005815937969 0.0619197886 3.500533197e-13)
(0 0 0)
(0 0 0)
(0 0 0)
(0 0 0)
(0 0 0)
(0 0 0)
(0 0 0)
(0 0 0)
(0 0 0)
(0 0 0)
(0 0 0)
(0 0 0)
(0 0 0)
(0 0 0)
(-1.822522962e-05 2.034686613e-05 1.387778781e-16)
(-4.973166485e-07 5.763719664e-07 0)
(0 0 0)
(-0.001366976601 0.00180577666 1.169897512e-14)
(-0.001725329865 0.002199291232 1.476596623e-14)
(-0.003579075572 0.004804911207 3.223810108e-14)
(-0.003053583584 0.00424795204 2.750577544e-14)
(-0.009910833239 0.01642173941 1.060262989e-13)
(-0.01078748985 0.01724982396 1.153799278e-13)
(-0.01309977621 0.02237074984 1.494637747e-13)
(-0.01241135566 0.02196953933 1.416922135e-13)
(-0.01713667711 0.03804777929 2.448596881e-13)
(-0.01784427252 0.03820688416 2.547129174e-13)
(-0.01830669292 0.04277697069 2.851052727e-13)
(-0.01766694556 0.04281836639 2.755018436e-13)
(-0.01590974248 0.05301671424 3.411715355e-13)
(-0.01624356043 0.05208312286 3.473193955e-13)
(-0.01460372772 0.05341002951 3.563260798e-13)
(-0.01439844862 0.05481816678 3.528149994e-13)
(-0.008358458009 0.05580855378 0)
(-0.008486589454 0.05379864377 0)
(-0.007441153344 0.05379300091 0)
(-0.006338523704 0.0538315353 0)
(-0.006265843733 0.05482627369 0)
(-0.006234319172 0.05579778236 0)
(0 0 0)
(0 0 0)
(0 0 0)
(0 0 0)
(0 0 0)
(0 0 0)
(0 0 0)
(0 0 0)
(0 0 0)
(0 0 0)
(0 0 0)
(0 0 0)
(0 0 0)
(0 0 0)
(-0.0001642186919 0.0001554495743 1.276756478e-15)
(-9.358358887e-05 9.255663493e-05 7.21644966e-16)
(-7.655953393e-05 7.895743679e-05 5.967448757e-16)
(-0.002479031702 0.002812810003 2.120525977e-14)
(-0.002571012907 0.00279735809 2.198241589e-14)
(-0.004760115209 0.005455050118 4.282685317e-14)
(-0.004634373128 0.005538481384 4.171663015e-14)
(-0.0124626057 0.01773549995 1.330879851e-13)
(-0.01266183252 0.0172765019 1.351418977e-13)
(-0.01507348152 0.02195559396 1.715294573e-13)
(-0.01486095437 0.02257770725 1.692257445e-13)
(-0.01927960603 0.03664673838 2.740863092e-13)
(-0.01947976931 0.03548090464 2.76584311e-13)
(-0.0197328916 0.03917435446 3.053390873e-13)
(-0.0195523803 0.04052096523 3.029937412e-13)
(-0.01676733354 0.04748860518 3.554517791e-13)
(-0.01685323782 0.04565811335 3.563260798e-13)
(-0.01492834695 0.04599781593 0)
(-0.01488106133 0.0479639116 3.592959263e-13)
(-0.008690938039 0.04784763878 0)
(-0.00871928158 0.04685074364 0)
(-0.007688181348 0.04683339902 0)
(-0.00765996378 0.04782872564 0)
(0 0 0)
(0 0 0)
(0 0 0)
(0 0 0)
(0 0 0)
(0 0 0)
(0 0 0)
(0 0 0)
(0 0 0)
(0 0 0)
(0 0 0)
(0 0 0)
(0 0 0)
(0 0 0)
(-0.0002695751509 0.000209600645 2.095545959e-15)
(-0.0002434801221 0.0001995921193 1.887379142e-15)
(-0.0002136011284 0.0001841251789 1.665334537e-15)
(-0.00305487204 0.002897307728 2.611799665e-14)
(-0.003158881324 0.002849365251 2.700617507e-14)
(-0.005508658543 0.005234117908 4.954370247e-14)
(-0.005378482843 0.005373251059 4.83779683e-14)
(-0.0134536528 0.01599848353 1.433991814e-13)
(-0.01361668891 0.01539877265 1.450783937e-13)
(-0.01600956655 0.01931838599 1.817435091e-13)
(-0.01584934473 0.0201127647 1.800365412e-13)
(-0.02005717288 0.03177057835 2.837174939e-13)
(-0.02018096095 0.03038009356 2.851052727e-13)
(-0.02032072038 0.03330403557 3.125139036e-13)
(-0.02021464089 0.03486955705 3.113481695e-13)
(-0.01704584866 0.03999149242 3.577138585e-13)
(-0.01709743389 0.03807257656 3.579359031e-13)
(-0.01510009962 0.03817367782 0)
(-0.01505849257 0.04012487185 0)
(-0.0088786361 0.03998665201 0)
(-0.008900042853 0.03901038997 0)
(-0.007871646296 0.03898753234 0)
(-0.007850103877 0.03996379131 0)
(0 0 0)
(0 0 0)
(0 0 0)
(0 0 0)
(0 0 0)
(0 0 0)
(0 0 0)
(0 0 0)
(0 0 0)
(0 0 0)
(0 0 0)
(0 0 0)
(0 0 0)
(0 0 0)
(-0.0003976624802 0.000242100008 3.094746681e-15)
(-0.0003585185321 0.0002333866046 2.803313137e-15)
(-0.0003236667489 0.0002243502383 2.525757381e-15)
(-0.003417855311 0.002607791593 2.922662112e-14)
(-0.003522759715 0.002524701977 3.011479954e-14)
(-0.005959685859 0.004499830497 5.358213873e-14)
(-0.005830521314 0.004686502078 5.243028234e-14)
(-0.01401878036 0.01340922408 1.491584634e-13)
(-0.01417736328 0.01273888296 1.507682867e-13)
(-0.01656170548 0.01587377384 1.875305466e-13)
(-0.01640628346 0.0167405898 1.859068455e-13)
(-0.02049568444 0.02605064349 2.884498196e-13)
(-0.02061490372 0.02460062991 2.897543316e-13)
(-0.02069631182 0.02686140862 3.163719287e-13)
(-0.02059451258 0.02847654246 3.152894612e-13)
(-0.01724143639 0.03229519052 3.584077479e-13)
(-0.01728932433 0.0303675065 3.585604036e-13)
(-0.01526317183 0.03038524967 0)
(-0.01522272151 0.03233131195 0)
(-0.009046885679 0.03219336405 0)
(-0.009067618615 0.03122088733 0)
(-0.008040618817 0.03119828752 0)
(-0.008030160882 0.03168456906 0)
(-0.008019712154 0.03217044359 0)
(0 0 0)
(0 0 0)
(0 0 0)
(0 0 0)
(0 0 0)
(0 0 0)
(0 0 0)
(0 0 0)
(0 0 0)
(0 0 0)
(0 0 0)
(0 0 0)
(0 0 0)
(0 0 0)
(-0.0005694918353 0.0002506483714 4.427014311e-15)
(-0.0005229442708 0.0002522117745 4.066191828e-15)
(-0.0004779237652 0.0002506533288 3.719247132e-15)
(-0.00385082724 0.00222465625 3.291811268e-14)
(-0.003966431911 0.002107723162 3.390343561e-14)
(-0.00650022184 0.003640584493 5.841160888e-14)
(-0.006360266218 0.003872128716 5.716260798e-14)
(-0.01466310796 0.01062783712 1.556949014e-13)
(-0.01483073013 0.009891995592 1.573879915e-13)
(-0.01719976797 0.01223611218 1.942196404e-13)
(-0.0170364629 0.01317022083 1.925126725e-13)
(-0.02097588193 0.02016397265 2.936817456e-13)
(-0.02109860539 0.01865795005 2.950140132e-13)
(-0.02110658822 0.02027999805 3.206601651e-13)
(-0.02100299373 0.02194239863 3.195776976e-13)
(-0.01742838711 0.02456513603 3.589489816e-13)
(-0.0174731145 0.02262634257 3.590461262e-13)
(-0.01542299524 0.02259643131 0)
(-0.01538337855 0.02454364358 0)
(-0.009211335212 0.02440605293 0)
(-0.009231500727 0.02343265848 0)
(-0.008206265599 0.02341005335 0)
(-0.008196069787 0.02389674802 0)
(-0.008185830799 0.02438335122 0)
(0 0 0)
(0 0 0)
(0 0 0)
(0 0 0)
(0 0 0)
(0 0 0)
(0 0 0)
(0 0 0)
(0 0 0)
(0 0 0)
(0 0 0)
(0 0 0)
(0 0 0)
(0 0 0)
(-0.000719781322 0.0001953857653 5.606626274e-15)
(-0.000744370425 0.0002334666486 5.787037516e-15)
(-0.0006794980439 0.0002417707347 5.287437155e-15)
(-0.004344403769 0.001705245989 3.712308239e-14)
(-0.004492216172 0.00155537625 3.838596108e-14)
(-0.00712944789 0.002604782063 6.401823516e-14)
(-0.006953710682 0.002878912755 6.245004514e-14)
(-0.01536568153 0.007590057286 1.627725732e-13)
(-0.01556921897 0.006794487427 1.648403636e-13)
(-0.01791520999 0.008343122082 2.016858902e-13)
(-0.01771886482 0.009337867976 1.996319776e-13)
(-0.02148229909 0.01406322038 2.99149594e-13)
(-0.0216234674 0.01250844228 3.007039062e-13)
(-0.02154378902 0.01352685819 3.252259573e-13)
(-0.02142751997 0.01522960142 3.239908342e-13)
(-0.01760227553 0.01680077348 3.59254293e-13)
(-0.01764375517 0.01485559032 3.592959263e-13)
(-0.01557991751 0.01480985481 0)
(-0.01554071804 0.01675662406 0)
(-0.009369698435 0.0166197805 0)
(-0.009389002691 0.01564645705 0)
(-0.008365706982 0.01562412202 0)
(-0.008355960318 0.01611096258 0)
(-0.008346176617 0.01659744035 0)
(-0.007828300567 0.0409415827 0)
(-0.008856969478 0.04096440125 0)
(-0.008009263426 0.03265631813 0)
(-0.007998802422 0.03314273533 0)
(-0.009026151719 0.03316588598 0)
(-0.008175594881 0.02486981875 0)
(-0.008165353847 0.0253565124 0)
(-0.0091910813 0.02537935489 0)
(-0.008336394962 0.01708382767 0)
(-0.008326566039 0.01757030441 0)
(-0.009350309874 0.01759283056 0)
(-0.007628962254 0.04882511408 0)
(-0.008660199076 0.0488444209 0)
(-0.0009527528785 0.05571703007 0)
(-0.0009776011885 0.0547504378 0)
(-0.01518213142 0.03427755205 0)
(-0.01719427654 0.03422288335 3.582550923e-13)
(-0.01005418446 0.03318882588 0)
(-0.01007478377 0.03221625565 0)
(-0.009907575318 0.04000952192 0)
(-0.009928889582 0.03903334827 0)
(-0.01534353269 0.02649098639 0)
(-0.01738302209 0.02650213105 3.588379593e-13)
(-0.01021780465 0.02540217467 0)
(-0.01023792392 0.02442882442 0)
(-0.01009533685 0.03124372962 0)
(-0.009129652699 0.02830073877 0)
(-0.00810328805 0.02827806284 0)
(-0.008092815793 0.02876497747 0)
(-0.00808239285 0.02925171225 0)
(-0.009109027806 0.02927443954 0)
(-0.005025739665 0.02821011525 0)
(-0.00502115874 0.02845361001 0)
(-0.00501737474 0.02869707756 0)
(-0.005530069693 0.02870835926 0)
(-0.005540134954 0.02822143541 0)
(-0.004941575026 0.03210212073 0)
(-0.005454711105 0.0321135029 0)
(-0.005465562736 0.03162781845 0)
(-0.004952784339 0.03161662536 0)
(-0.004947062536 0.03185955137 0)
(-0.01550156994 0.01870312301 0)
(-0.01755869481 0.01874314163 3.59184904e-13)
(-0.01037581633 0.01761544184 0)
(-0.01039507025 0.01664234348 0)
(-0.01025790855 0.02345542588 0)
(-0.009291465864 0.02051196542 0)
(-0.008266960421 0.02048910532 0)
(-0.008256944474 0.0209758493 0)
(-0.008246880235 0.02146272793 0)
(-0.009271615878 0.02148541225 0)
(-0.005199808941 0.02042157392 0)
(-0.005193141842 0.02066488576 0)
(-0.005451064999 0.02067067536 0)
(-0.005456977919 0.02042730122 0)
(-0.00511866516 0.02431604572 0)
(-0.005628144417 0.02432707369 0)
(-0.005638880844 0.02384048174 0)
(-0.005129809605 0.02382941776 0)
(-0.005124620233 0.02407280827 0)
(-0.01041428509 0.01566897277 0)
(-0.009446229972 0.01272678793 0)
(-0.008934536895 0.01271561939 0)
(-0.008925013271 0.01320260073 0)
(-0.009436752592 0.01321372507 0)
(-0.00533800876 0.01263620269 0)
(-0.005337878513 0.0128801601 0)
(-0.005606839538 0.01288683283 0)
(-0.005609320722 0.01264315483 0)
(-0.00526940093 0.01652973647 0)
(-0.005534419214 0.01653609379 0)
(-0.005541135895 0.01629319028 0)
(-0.005277852079 0.01628696269 0)
(-0.004676018258 0.04381276617 0)
(-0.004687564064 0.04332239649 0)
(-0.004172984226 0.04331143412 0)
(-0.004167204601 0.04355671608 0)
(-0.004161736739 0.04380141692 0)
(-0.004766050887 0.03989497266 0)
(-0.004249506705 0.03988324192 0)
(-0.004244196524 0.04012717264 0)
(-0.004240227649 0.04037181237 0)
(-0.004755497602 0.04038346903 0)
(-0.004562306342 0.04778967666 0)
(-0.00457966146 0.04728791272 0)
(-0.004061583341 0.04728698796 0)
(-0.004044242075 0.04778773963 0)
(-0.004149730268 0.04429354978 0)
(-0.00466403847 0.04430451958 0)
(-0.004935863453 0.03234459453 0)
(-0.004930457179 0.03258757293 0)
(-0.005443859474 0.03259918734 0)
(-0.004856267405 0.0359950505 0)
(-0.005368678913 0.03600646151 0)
(-0.005379549982 0.03551991786 0)
(-0.004867273115 0.03550855513 0)
(-0.008963422941 0.03608674275 0)
(-0.008984409608 0.03511305017 0)
(-0.007956693423 0.03509011743 0)
(-0.007935572114 0.03606376173 0)
(-0.004356403074 0.03549740521 0)
(-0.004350977689 0.03574042842 0)
(-0.004344839253 0.03598357123 0)
(-0.004683692568 0.03209633205 0)
(-0.004677840808 0.03233880267 0)
(-0.004777042066 0.03940711961 0)
(-0.004260574168 0.03939561683 0)
(-0.004254233955 0.039639479 0)
(-0.004339084609 0.03622694896 0)
(-0.004332938419 0.03647063453 0)
(-0.004845024332 0.03648203819 0)
(-0.005112848821 0.02455915058 0)
(-0.00510680842 0.02480215987 0)
(-0.005617142799 0.02481338817 0)
(-0.005550616419 0.02773411378 0)
(-0.005035592117 0.02772259841 0)
(-0.005029801133 0.02796638251 0)
(-0.009150240555 0.0273266752 0)
(-0.008124061908 0.02730377725 0)
(-0.008113677025 0.0277908296 0)
(-0.004768237196 0.02796032956 0)
(-0.004764626923 0.02820411775 0)
(-0.004865399248 0.0243105877 0)
(-0.004858842296 0.02455363055 0)
(-0.004689549873 0.0318538163 0)
(-0.004761988486 0.02844774695 0)
(-0.005261469831 0.01677252201 0)
(-0.005527929665 0.01677895719 0)
(-0.005462798349 0.02018401548 0)
(-0.005206470496 0.02017830721 0)
(-0.009311163816 0.01953923907 0)
(-0.008286877321 0.01951670064 0)
(-0.008276969208 0.0200026779 0)
(-0.004948455873 0.02017256078 0)
(-0.004940259848 0.02041565704 0)
(-0.004997612094 0.01652286402 0)
(-0.004987178779 0.01676545723 0)
(-0.004871734183 0.02406735884 0)
(-0.004932065277 0.02065888908 0)
(-0.005614558385 0.01239962968 0)
(-0.005343886525 0.01239278251 0)
(-0.009455704282 0.01223998645 0)
(-0.008944011205 0.01222881791 0)
(-0.005068315269 0.01238550778 0)
(-0.005060419161 0.01262874657 0)
(-0.005008876464 0.01628033486 0)
(-0.005062659986 0.01287289335 0)
(-0.01501624035 0.042078585 0)
(-0.01698916988 0.0418985067 3.573946694e-13)
(-0.009886046407 0.04098718379 0)
(-0.009721994875 0.04786690171 0)
(-0.009749854301 0.04687140636 0)
(-0.00879095059 0.04389869371 0)
(-0.007761622795 0.04387700042 0)
(-0.007738183331 0.04486111624 0)
(-0.008767599932 0.04488288392 0)
(-0.005178126845 0.04431560657 0)
(-0.005190109621 0.0438239211 0)
(-0.005077762413 0.04779810614 0)
(-0.005095480263 0.047294908 0)
(-0.007914345015 0.03703808231 0)
(-0.008942378776 0.03706097698 0)
(-0.005357752393 0.03649345636 0)
(-0.00528058884 0.03990638653 0)
(-0.00529158002 0.03941853349 0)
(-0.005269673781 0.04039487472 0)
(-0.005201610717 0.04333352779 0)
(-0.008813033006 0.04292056477 0)
(-0.007783991068 0.04289823547 0)
(-0.002673492052 0.04180764177 0)
(-0.002696159682 0.04156324407 0)
(-0.00246836717 0.04155836231 0)
(-0.002443444266 0.04180325193 0)
(-0.002484162906 0.04779092896 0)
(-0.002498193739 0.04753171137 0)
(-0.002237780914 0.04753257481 0)
(-0.002221900938 0.04779533169 0)
(-0.002554956362 0.0457501819 0)
(-0.002296347212 0.04574771585 0)
(-0.00228834895 0.04599787026 0)
(-0.002550716904 0.04599998247 0)
(-0.004323281751 0.05185149656 0)
(-0.004424418256 0.05081366823 0)
(-0.003897230709 0.05081621579 0)
(-0.003353483525 0.05083256396 0)
(-0.003302143772 0.05134698143 0)
(-0.003252105571 0.05185346525 0)
(-0.004022301526 0.0482953975 0)
(-0.004545809835 0.04828708666 0)
(-0.005338853242 0.01458487322 0)
(-0.005589347655 0.01459004232 0)
(-0.005595847434 0.0143467267 0)
(-0.005346933736 0.01434168385 0)
(-0.007364755615 0.01462807987 0)
(-0.007374538293 0.01414164732 0)
(-0.006865735315 0.01413072514 0)
(-0.006855772773 0.01461710837 0)
(-0.007403791791 0.01268252853 0)
(-0.006895169701 0.01267161044 0)
(-0.006885375769 0.01315854043 0)
(-0.007394089326 0.01316941534 0)
(-0.002599961079 0.04376839776 0)
(-0.002569077001 0.04351659456 0)
(-0.002249130486 0.04344947953 0)
(-0.002365737 0.04376621641 0)
(-0.002417207085 0.04204643776 0)
(-0.002649372701 0.04205101124 0)
(-0.004722501973 0.04185200459 0)
(-0.004208948237 0.04184088445 0)
(-0.004202827076 0.04208606367 0)
(-0.004196835337 0.0423305219 0)
(-0.004710877897 0.04234183409 0)
(-0.002907911897 0.04205676953 0)
(-0.002927304717 0.04181293118 0)
(-0.002856278312 0.0437737755 0)
(-0.002842182304 0.04352447408 0)
(-0.002614800858 0.03983902171 0)
(-0.002597455122 0.04006897096 0)
(-0.002870943918 0.04009189854 0)
(-0.002866188928 0.03984728768 0)
(-0.002945328668 0.0415682022 0)
(-0.004733954369 0.041361764 0)
(-0.004220770161 0.04135010928 0)
(-0.00421501282 0.04159520625 0)
(-0.004625307265 0.04578939 0)
(-0.004110664752 0.04577959804 0)
(-0.004095400045 0.04628135769 0)
(-0.004610018779 0.04629080072 0)
(-0.002811986549 0.04600464427 0)
(-0.002816612416 0.04575456287 0)
(-0.002748959182 0.04778109988 0)
(-0.002758887755 0.04752981819 0)
(-0.002612718605 0.0440174653 0)
(-0.00286301222 0.04402191046 0)
(-0.002818423406 0.04550511004 0)
(-0.002553327841 0.04550076889 0)
(-0.004638906226 0.04529206285 0)
(-0.004124212495 0.04528193493 0)
(-0.002293152727 0.04549672456 0)
(-0.002375372343 0.0440148966 0)
(-0.00489788408 0.03404743103 0)
(-0.004639342408 0.03404158219 0)
(-0.004634952008 0.03428485504 0)
(-0.0048926988 0.03429064065 0)
(-0.002873608689 0.03595250541 0)
(-0.003100786185 0.03595737325 0)
(-0.00311461872 0.03571472121 0)
(-0.002888318525 0.03570987322 0)
(-0.004902800076 0.03380412483 0)
(-0.004644009685 0.03379827036 0)
(-0.004811148195 0.03794349562 0)
(-0.00429695452 0.03793186331 0)
(-0.004290612691 0.03817599691 0)
(-0.004284788435 0.03842005173 0)
(-0.004799746951 0.03843147512 0)
(-0.002752444306 0.03789624405 0)
(-0.002736885428 0.03813980718 0)
(-0.002971216409 0.03814506308 0)
(-0.002986123071 0.03790153044 0)
(-0.002876530078 0.03960396847 0)
(-0.002633246381 0.0395980576 0)
(-0.00285900986 0.03619523061 0)
(-0.003086945035 0.03620020608 0)
(-0.003000712588 0.03765821685 0)
(-0.002767842269 0.037652994 0)
(-0.004822489896 0.03745614821 0)
(-0.004308982568 0.03744457666 0)
(-0.004302827927 0.03768803583 0)
(-0.005070820755 0.02626275514 0)
(-0.004811943419 0.02625694395 0)
(-0.004805178878 0.02650016309 0)
(-0.005064430531 0.02650602799 0)
(-0.0050765719 0.02601933209 0)
(-0.004818648743 0.02601354249 0)
(-0.004986616485 0.03015711245 0)
(-0.004731204587 0.03015151539 0)
(-0.004725254037 0.03039475295 0)
(-0.004980976942 0.03040040229 0)
(-0.004992302274 0.02991377842 0)
(-0.004737125528 0.02990818668 0)
(-0.005249489987 0.01847707781 0)
(-0.004999497536 0.01847192006 0)
(-0.004995728556 0.01871552368 0)
(-0.005245200958 0.01872066966 0)
(-0.005251348134 0.01823334047 0)
(-0.004998280175 0.01822793217 0)
(-0.005149632548 0.02236836632 0)
(-0.004881220159 0.02236184173 0)
(-0.004879543922 0.02260553794 0)
(-0.00514588268 0.02261192513 0)
(-0.005154538047 0.02212492414 0)
(-0.004885700573 0.02211838994 0)
(-0.007413537432 0.01219573319 0)
(-0.006905096228 0.01218481919 0)
(-0.005090372649 0.01457988541 0)
(-0.005078979448 0.01482290935 0)
(-0.005330336573 0.01482814321 0)
(-0.005101126177 0.01433693749 0)
(-0.00232247885 0.04986159531 0)
(-0.002377412612 0.04934050861 0)
(-0.001833764258 0.0493554881 0)
(-0.001761167408 0.04988015224 0)
(-0.002203425616 0.04805881305 0)
(-0.002466549957 0.04805429002 0)
(-0.005411255273 0.0223744206 0)
(-0.005416400447 0.02213098384 0)
(-0.007202963725 0.02241391278 0)
(-0.007213299294 0.02192704029 0)
(-0.006702104679 0.02191583778 0)
(-0.00669167969 0.022402663 0)
(-0.007244076823 0.02046655339 0)
(-0.006733289204 0.02045536009 0)
(-0.00672291046 0.0209421411 0)
(-0.007233833743 0.02095333747 0)
(-0.007161590549 0.02436076859 0)
(-0.007171965202 0.02387416846 0)
(-0.006660409837 0.02386291254 0)
(-0.00664994474 0.02434951063 0)
(-0.006681299922 0.02288948924 0)
(-0.0071926744 0.02290074106 0)
(-0.005406426651 0.02261786451 0)
(-0.007324778175 0.01657523872 0)
(-0.007334787984 0.01608876607 0)
(-0.006825037396 0.01607773196 0)
(-0.006814802501 0.01656415428 0)
(-0.006845571846 0.01510402915 0)
(-0.007354826018 0.01511500678 0)
(-0.005582574499 0.01483344224 0)
(-0.005583738317 0.02627399662 0)
(-0.005594890946 0.02578700689 0)
(-0.005082856231 0.02577574013 0)
(-0.00711980424 0.02630788653 0)
(-0.007130323765 0.02582088247 0)
(-0.006618362427 0.02580957212 0)
(-0.006607752459 0.02629657414 0)
(-0.006639439538 0.02483588158 0)
(-0.007151174767 0.02484718681 0)
(-0.004119731524 0.02429521196 0)
(-0.004106579361 0.0245377889 0)
(-0.004355708077 0.0245429271 0)
(-0.004365927396 0.02430019332 0)
(-0.004067131323 0.02526574615 0)
(-0.004324629396 0.02527152613 0)
(-0.004334996063 0.02502847897 0)
(-0.004080256946 0.02502294238 0)
(-0.005094853053 0.02528863376 0)
(-0.005100810172 0.02504530586 0)
(-0.004845515851 0.02503971146 0)
(-0.004838836207 0.02528297777 0)
(-0.005502105729 0.01848247588 0)
(-0.005505852099 0.01823887174 0)
(-0.007284646446 0.01852121772 0)
(-0.007294525706 0.01803451589 0)
(-0.006784462658 0.01802329374 0)
(-0.006774401488 0.0185100367 0)
(-0.006804615897 0.01705044195 0)
(-0.007314772457 0.01706153049 0)
(-0.007254266497 0.01998013005 0)
(-0.006743614543 0.01996893982 0)
(-0.006764158409 0.01899682078 0)
(-0.007274540055 0.01900795966 0)
(-0.005497321307 0.01872596604 0)
(-0.005226452463 0.01945022631 0)
(-0.004973177506 0.01944476808 0)
(-0.00496489734 0.01968718377 0)
(-0.005219781166 0.01969272364 0)
(-0.00421846253 0.0194289162 0)
(-0.004201574355 0.01967063946 0)
(-0.004455129686 0.01967610403 0)
(-0.00446916394 0.01943413523 0)
(-0.004153362242 0.02039740305 0)
(-0.004414325752 0.02040339717 0)
(-0.004427848303 0.02016064763 0)
(-0.00416936542 0.02015480012 0)
(-0.004215185952 0.01650335384 0)
(-0.004196131493 0.0167454353 0)
(-0.004433248562 0.0167509352 0)
(-0.004450676062 0.01650877169 0)
(-0.004140238572 0.01745732055 0)
(-0.004410711672 0.01747995369 0)
(-0.004406481951 0.01723612388 0)
(-0.004158226131 0.01722820024 0)
(-0.005247966033 0.01750224255 0)
(-0.005249838607 0.01725886749 0)
(-0.004973586979 0.01725166787 0)
(-0.004974546738 0.01749524273 0)
(-0.005138090061 0.02334258927 0)
(-0.004883147446 0.02333704807 0)
(-0.004881469756 0.02358060851 0)
(-0.00513463618 0.02358606429 0)
(-0.004144011623 0.02332213681 0)
(-0.004149402949 0.02356621913 0)
(-0.004386980746 0.02357055309 0)
(-0.004382004437 0.0233265254 0)
(-0.00437554236 0.0240571744 0)
(-0.004132363207 0.02405244226 0)
(-0.00413735804 0.02064005121 0)
(-0.004400819243 0.02064623757 0)
(-0.004089280081 0.0213680847 0)
(-0.004360357483 0.02137480531 0)
(-0.004373805203 0.02113196359 0)
(-0.004105311415 0.02112543715 0)
(-0.00517318824 0.02139491283 0)
(-0.005179815663 0.02115155485 0)
(-0.004915703267 0.02114535376 0)
(-0.004907581051 0.02138858743 0)
(-0.00530409979 0.01555771143 0)
(-0.005043941227 0.01555173552 0)
(-0.005032196319 0.01579470626 0)
(-0.005295304793 0.01580088464 0)
(-0.004294434666 0.01553505132 0)
(-0.004274624411 0.01577734191 0)
(-0.004505862819 0.01578230162 0)
(-0.004524358144 0.01553993604 0)
(-0.004468899894 0.01626680718 0)
(-0.00423497284 0.01626169616 0)
(-0.004452207512 0.01360227571 0)
(-0.004652848213 0.01360197349 0)
(-0.004628344626 0.01335632768 0)
(-0.004471687851 0.01337956869 0)
(-0.005357658384 0.01361321255 0)
(-0.005352003749 0.01336916951 0)
(-0.005097913778 0.01336373809 0)
(-0.005112369853 0.01360852317 0)
(-0.002739134701 0.04083238045 0)
(-0.002534155353 0.0408322678 0)
(-0.00251224208 0.04107252004 0)
(-0.002732803963 0.04107642381 0)
(-0.002713832365 0.04058504251 0)
(-0.002554161939 0.04060789863 0)
(-0.002530194109 0.04676417012 0)
(-0.002271827845 0.04676096755 0)
(-0.002260855502 0.04701858795 0)
(-0.002519875146 0.04702110854 0)
(-0.0017392293 0.04701830232 0)
(-0.001758247558 0.0467642211 0)
(-0.001692734688 0.04781354564 0)
(-0.001713614952 0.04754375649 0)
(-0.001776206953 0.04651054575 0)
(-0.001588584107 0.04653820795 0)
(-0.002539033419 0.04650643812 0)
(-0.002279425341 0.0465045286 0)
(-0.002575740372 0.0427786476 0)
(-0.002335545319 0.0427728066 0)
(-0.002306152638 0.04301347781 0)
(-0.002555523656 0.04302210536 0)
(-0.002599976114 0.04253573321 0)
(-0.002363583615 0.04253020446 0)
(-0.002850322133 0.0427862619 0)
(-0.002868471785 0.0425425764 0)
(-0.003664815804 0.04280826207 0)
(-0.003672169473 0.04256320122 0)
(-0.003408139069 0.04255677576 0)
(-0.00339880076 0.04280156549 0)
(-0.003695473425 0.0418296756 0)
(-0.003438849585 0.04182405112 0)
(-0.003428620407 0.0420688207 0)
(-0.003687681106 0.04207472653 0)
(-0.003644669398 0.04379041184 0)
(-0.003648606248 0.04354518772 0)
(-0.003384422337 0.0435391479 0)
(-0.003383273112 0.0437855481 0)
(-0.003391244453 0.04304698372 0)
(-0.003658247808 0.04305379315 0)
(-0.002836710962 0.04303072874 0)
(-0.002968489037 0.04083562347 0)
(-0.002942694807 0.04058822916 0)
(-0.003716972785 0.04085051998 0)
(-0.003716958811 0.0406053377 0)
(-0.003455262709 0.040599327 0)
(-0.003461178979 0.04084500477 0)
(-0.003717087975 0.03987042815 0)
(-0.003438437119 0.03986308376 0)
(-0.003439360376 0.0401074722 0)
(-0.003715048779 0.0401145686 0)
(-0.003702944403 0.04158402922 0)
(-0.003448430371 0.04157854296 0)
(-0.003461329374 0.04108955671 0)
(-0.003714471734 0.0410948762 0)
(-0.002970419123 0.04108030616 0)
(-0.002560992314 0.04475456929 0)
(-0.002831923105 0.0447617707 0)
(-0.002845575951 0.04451486158 0)
(-0.002582320232 0.04450899206 0)
(-0.003621651095 0.04477731069 0)
(-0.00362826214 0.0445296767 0)
(-0.003369556668 0.04452406847 0)
(-0.003362025882 0.04477175857 0)
(-0.003381024446 0.0440315479 0)
(-0.003639948353 0.04403650049 0)
(-0.002288785429 0.04474617621 0)
(-0.002269115449 0.0449912661 0)
(-0.002547807255 0.04500100035 0)
(-0.002321321874 0.04450293833 0)
(-0.002933835749 0.03498223425 0)
(-0.003151766158 0.03498625947 0)
(-0.003151363544 0.03474165658 0)
(-0.002948633657 0.03474050895 0)
(-0.003863104509 0.03499972748 0)
(-0.00386099849 0.03475522178 0)
(-0.003613553044 0.03475007641 0)
(-0.003619680729 0.03499480882 0)
(-0.003834048335 0.03402232384 0)
(-0.003551157134 0.03401501925 0)
(-0.003570244506 0.03425968288 0)
(-0.003842445453 0.03426633842 0)
(-0.003839841469 0.03597264465 0)
(-0.003847340056 0.03572957785 0)
(-0.003601348704 0.03572455586 0)
(-0.003592012662 0.03596744536 0)
(-0.003617013543 0.03523870884 0)
(-0.003860121795 0.03524357511 0)
(-0.002918385566 0.03522539264 0)
(-0.003141463661 0.03522967004 0)
(-0.003850133397 0.03304870135 0)
(-0.003859375066 0.03280558349 0)
(-0.003579434798 0.03279843615 0)
(-0.003567842621 0.03304145559 0)
(-0.003888399925 0.03207757143 0)
(-0.00361563123 0.03207081255 0)
(-0.003603353033 0.03231295682 0)
(-0.003878571722 0.03231981636 0)
(-0.003831590283 0.03377857935 0)
(-0.003544659328 0.03377104764 0)
(-0.003557019215 0.03328449242 0)