/*--------------------------------*- C++ -*----------------------------------*\
| =========                 |                                                 |
| \\      /  F ield         | OpenFOAM: The Open Source CFD Toolbox           |
|  \\    /   O peration     | Version:  v2012                                 |
|   \\  /    A nd           | Website:  www.openfoam.com                      |
|    \\/     M anipulation  |                                                 |
\*---------------------------------------------------------------------------*/
FoamFile
{
    version     2.0;
    format      ascii;
    class       volVectorField;
    location    "3";
    object      U;
}
// * * * * * * * * * * * * * * * * * * * * * * * * * * * * * * * * * * * * * //

dimensions      [0 1 -1 0 0 0 0];


internalField   nonuniform List<vector> 
3019
(
(99.9991971 0.00199515165 -4.037366457e-21)
(99.99879623 0.007020948258 -1.098230024e-25)
(99.99780926 0.01568430673 -4.034695743e-21)
(99.99601474 0.03066883864 -4.016570458e-21)
(99.99969678 0.02493553536 3.886343852e-21)
(99.99794149 0.04230860083 0)
(99.99678604 0.06992045076 0)
(99.99637466 0.1086411567 -6.959137754e-21)
(99.99522351 0.1609403282 8.1922384e-22)
(99.99430331 0.2265754443 -5.487715501e-21)
(99.99412017 0.299576306 6.226741503e-22)
(99.99537855 0.3668616463 0)
(99.99270874 0.005073919626 1.615769109e-20)
(99.98842959 0.01833887481 4.040158692e-21)
(99.97914067 0.04172728909 2.825272338e-20)
(99.96316166 0.0836570992 -1.210178618e-20)
(99.96459076 0.1175439453 3.913159493e-21)
(99.93923166 0.2020555463 -3.782308475e-23)
(99.90586753 0.3343290757 0)
(99.88712944 0.4573099858 -6.953846577e-21)
(99.84712557 0.6855754917 -6.511498473e-21)
(99.81168148 0.978882988 -1.154909439e-20)
(99.796398 1.315541052 -4.887880138e-21)
(99.82167856 1.638510443 -5.047943146e-21)
(99.98107298 0.005528916985 -1.612170906e-20)
(99.96906011 0.0214987891 -3.235087694e-20)
(99.94338258 0.05284392678 -7.26882065e-20)
(99.90086889 0.1099072412 9.67583268e-20)
(99.87528269 0.1808989807 -7.997772173e-21)
(99.80143631 0.324012626 -7.824161131e-21)
(99.69880052 0.5486027178 -1.359956466e-20)
(99.63675367 0.8002418639 0)
(99.50843178 1.229755519 2.690996843e-20)
(99.39184683 1.799029231 -7.095361922e-20)
(99.34734947 2.483993018 -3.984271064e-20)
(99.45167316 3.171606125 0)
(99.97013608 0.001676886523 -8.113838424e-21)
(99.94715928 0.01108476828 5.683604315e-20)
(99.89842893 0.04011025541 -1.625809637e-20)
(99.81847881 0.09824354746 0)
(99.75300382 0.1961467098 0)
(99.60568317 0.3778928563 -6.303840829e-20)
(99.39907671 0.6723137371 -1.262922718e-19)
(99.22588554 1.040001293 2.988573176e-20)
(98.93235477 1.657918186 -5.680066801e-20)
(98.65020236 2.541352095 -8.182401503e-19)
(98.51256989 3.702708795 7.335257159e-19)
(98.73104324 4.963926802 -1.11633101e-18)
(99.970082 -0.007545128254 0)
(99.9343329 -0.01634079583 0)
(99.8593245 -0.003514508621 8.172739272e-21)
(99.73487509 0.04131303851 1.23788675e-20)
(99.61844974 0.1501036018 2.049789695e-20)
(99.37702818 0.3395958 0)
(99.03735304 0.653189969 0)
(98.69984952 1.105274534 3.113550303e-19)
(98.15757563 1.886874789 7.10118199e-19)
(97.5601084 3.118565651 -2.275813689e-19)
(97.11878019 4.951928362 0)
(97.43815529 7.196954558 2.97309401e-19)
(99.99251132 -0.02251048204 0)
(99.94369987 -0.06173680482 0)
(99.84260838 -0.08020621017 -1.639315767e-20)
(99.67265416 -0.06727633954 3.330837491e-20)
(99.49295306 0.03261147168 0)
(99.15335312 0.1929201041 0)
(98.66080475 0.4785870637 2.609090619e-20)
(98.12402084 0.9503334016 3.942437026e-19)
(97.25637781 1.782079136 5.25976443e-19)
(96.08082029 3.262747026 0)
(94.84983076 5.83481669 -3.435811592e-20)
(94.69471254 9.865510525 0)
(100.0486582 -0.04287200744 3.996781819e-21)
(99.98803006 -0.123882198 -4.025546952e-21)
(99.86396986 -0.1879897939 8.210063297e-21)
(99.65352286 -0.2251805666 -3.00720759e-20)
(99.41000959 -0.1574025171 7.966069208e-23)
(98.97862467 -0.06364088614 2.564214557e-20)
(98.34516171 0.1394977355 1.878003936e-20)
(97.6095381 0.5405416346 -6.782353427e-20)
(96.36645444 1.259410165 0)
(94.43455375 2.628725924 0)
(91.64781625 5.216461347 -7.700900461e-19)
(88.18961617 11.2253914 3.752568126e-19)
(100.1482384 -0.06759444606 -3.997203507e-21)
(100.0784368 -0.199518369 4.026994278e-21)
(99.93721407 -0.3204908543 -5.106405137e-21)
(99.69672057 -0.4223124262 -3.428827566e-21)
(99.39701124 -0.4077936568 1.460528867e-20)
(98.89537535 -0.411305132 8.680615966e-21)
(98.15755607 -0.3445248683 -2.176788932e-21)
(97.28043274 -0.1049607222 -5.959095753e-19)
(95.73911408 0.3066881765 0)
(93.24815923 1.054620289 4.411968991e-19)
(89.2225889 2.134964619 9.17862675e-19)
(81.72035467 3.814935058 0)
(100.2984483 -0.09507196384 -1.924381333e-21)
(100.2231664 -0.283635177 -1.445661762e-21)
(100.0725722 -0.4682845883 -4.953731523e-22)
(99.81579925 -0.6433018347 1.497676512e-21)
(99.47441459 -0.6972099927 -2.796182943e-23)
(98.93390969 -0.8163630472 0)
(98.14714627 -0.914286554 1.95451868e-21)
(97.20375909 -0.8853641494 5.67448161e-19)
(95.55039749 -0.8653277246 0)
(93.01306668 -0.8645951639 9.096475597e-20)
(89.42055662 -1.320031146 -9.338565332e-19)
(85.15037452 -3.22233605 1.017368903e-18)
(100.5029966 -0.1233499521 3.791594606e-21)
(100.4263963 -0.370185049 5.799849955e-23)
(100.2750324 -0.6201432152 0)
(100.0171411 -0.870908349 1.949555686e-22)
(99.65155581 -1.001029179 -2.002033686e-21)
(99.10634972 -1.239153381 2.126641696e-21)
(98.32970399 -1.504470096 -7.176301016e-20)
(97.39242058 -1.682767419 0)
(95.79787089 -2.008855474 0)
(93.50183759 -2.516990876 7.194606538e-19)
(90.65464671 -3.500535832 2.335029167e-20)
(87.97823407 -5.066391466 -1.480270185e-18)
(100.7617113 -0.1505216285 -1.867050491e-21)
(100.687754 -0.4531522601 1.882706514e-21)
(100.5435146 -0.764935491 1.835748074e-21)
(100.3002969 -1.088319236 -1.714507201e-21)
(99.92601923 -1.29480832 -1.973228202e-21)
(99.40724939 -1.641536029 0)
(98.68787036 -2.056684785 -2.105542902e-21)
(97.80748085 -2.41366945 5.910380337e-19)
(96.35133857 -2.999411316 7.308538278e-19)
(94.33802872 -3.80330859 -1.050719017e-20)
(91.94578179 -4.935903031 -1.539145051e-18)
(89.73807308 -6.184507101 7.828626118e-21)
(101.0706481 -0.1748743256 6.854482809e-21)
(101.002906 -0.5270662061 0)
(100.8719006 -0.8911892751 -1.832160875e-21)
(100.6542776 -1.286111828 0)
(100.2820051 -1.55823129 0)
(99.81949283 -1.992935031 -5.863892349e-21)
(99.18936274 -2.529112604 -1.304967064e-19)
(98.39867696 -3.028216733 0)
(97.11829849 -3.798621793 5.536174394e-19)
(95.36374575 -4.798490852 -1.203371734e-18)
(93.2259492 -6.06506728 6.906489247e-19)
(91.09910822 -7.309169499 0)
(84.63099128 -2.82317735 2.508996279e-20)
(87.71523626 -4.895025833 2.176163241e-19)
(89.55130069 -6.059550679 -1.325795957e-18)
(90.92759008 -7.154018885 1.74486132e-19)
(82.02774811 5.252688253 1.134211868e-18)
(90.32721182 -3.049497548 8.481312544e-19)
(88.01197136 -4.609086553 -1.720901876e-18)
(85.68042757 -2.751621614 -4.027111374e-18)
(91.62823526 -4.617508455 7.719315799e-19)
(89.79617342 -5.865426194 7.510946322e-19)
(88.26931245 -4.79501841 1.710794586e-18)
(88.7091137 -5.534534508 -1.014016709e-20)
(87.90525682 -6.380467811 -7.330071632e-19)
(86.93427388 -5.913467385 -7.690303017e-19)
(92.89851019 -5.799430651 -1.399535362e-18)
(91.16903484 -6.97886849 0)
(89.98071425 -5.99890661 7.459067632e-19)
(90.26048795 -6.573606359 1.898687008e-19)
(89.27720265 -7.122638028 -5.23552402e-19)
(88.83874328 -6.752674335 0)
(91.34063062 -7.130698725 0)
(91.74612654 -7.788427901 5.290516601e-19)
(90.20104777 -8.444303181 0)
(89.77539915 -7.796071951 0)
(78.5416386 -5.023961965 -3.035373461e-19)
(83.4250661 -5.809047487 9.385512405e-19)
(71.65097175 5.049138369 0)
(77.53086811 -4.542127451 0)
(86.80292822 -5.833710986 1.946733174e-19)
(85.84568098 -5.453282211 -8.096147787e-19)
(86.80610698 -4.30574589 -1.852633461e-18)
(85.69246766 -5.618509799 -8.400909693e-19)
(86.67049838 -5.948425866 1.16572593e-18)
(83.83588568 -5.779941931 -9.017200049e-19)
(85.53247854 -5.60536884 1.046254563e-18)
(88.75291551 -6.707761797 0)
(88.03178258 -6.425413408 7.324153118e-19)
(88.935101 -5.674800646 -9.857558121e-19)
(87.85915744 -6.511465185 0)
(88.61384926 -6.775682371 0)
(86.73468003 -5.995868306 -5.806030531e-19)
(87.79596104 -6.485752613 -5.618802822e-19)
(89.73965608 -7.753535207 0)
(89.30262382 -7.156509372 5.262453211e-19)
(90.42677213 -6.711629674 0)
(89.15002675 -7.175157829 0)
(89.51529157 -7.782441103 0)
(88.65453329 -6.802065284 0)
(89.12902744 -7.142365209 0)
(90.22887222 -8.496344875 1.438675164e-22)
(91.84092564 -7.875800008 5.215223858e-19)
(89.85324961 -8.509388034 -5.090580589e-19)
(89.54941865 -7.824230996 0)
(89.837654 -8.460120466 5.042899026e-19)
(89.19810365 -0.5797364831 0)
(85.24913987 -2.31877887 3.104225869e-18)
(83.22690162 3.672647265 0)
(82.39246984 -0.0167445725 0)
(78.20781494 -3.574377369 -1.258773462e-18)
(73.68767635 4.994358216 -1.403265645e-18)
(86.45059499 -4.083186388 0)
(85.67788772 -5.427861612 -8.170231405e-19)
(83.8725844 -5.373819193 0)
(83.45823043 -5.341293314 -9.520019939e-19)
(79.05426917 -4.083009898 0)
(82.91959057 -0.9543060654 0)
(81.42583495 -8.369417168 0)
(57.9134295 6.716719726 0)
(66.45595565 -8.108536399 0)
(79.72098593 16.81015169 0)
(71.89881892 7.189621482 1.605163888e-18)
(90.03208577 -8.110011635 -1.226846794e-22)
(90.88639773 -7.906354628 0)
(91.1497509 -8.17134117 5.929388149e-19)
(77.55190908 -10.25958334 0)
(81.03282999 -8.606765279 0)
(81.09609471 -5.712185798 2.688372047e-19)
(81.19154627 -8.315839145 0)
(77.59781907 -9.374557305 0)
(83.07090863 -7.078824474 0)
(81.55440622 -8.124040599 0)
(81.78274396 -5.77981864 0)
(73.24513383 -0.5885926159 0)
(67.46595313 -6.558755712 0)
(60.60595397 6.464370757 0)
(76.8015657 -9.362756985 0)
(68.83883714 -7.440044166 0)
(74.27278304 -1.990669771 0)
(68.09225311 -8.983285812 0)
(76.80338487 -10.19389709 0)
(86.18207929 -5.682656204 5.84004704e-19)
(84.56888993 -5.977893603 -2.669453488e-18)
(86.24429012 -5.710806282 -5.840435167e-19)
(84.73384892 -5.651324745 -5.4391349e-21)
(84.03947495 -6.28525598 0)
(83.18753523 -6.961598284 0)
(84.53586891 -5.976253999 8.862936356e-19)
(84.11565591 -6.200517988 0)
(84.96424195 -5.623154325 -6.37880479e-19)
(88.25558981 -6.626645287 -5.583484274e-19)
(88.3055765 -6.648688873 1.120494699e-18)
(87.23139872 -6.26885197 5.794778936e-19)
(87.30416726 -6.308568025 5.764624225e-19)
(89.33509052 -7.44966448 1.118911475e-18)
(89.36109284 -7.486474312 -2.775501233e-19)
(88.91262599 -6.946155075 0)
(88.94347146 -6.969903204 0)
(91.24219092 -8.263531411 0)
(89.7609109 -8.079696804 -1.117502968e-18)
(89.78090991 -8.121075353 5.618288163e-19)
(68.17328987 23.30957705 0)
(58.15183509 9.591131088 -2.065243803e-19)
(89.07141057 -6.941468049 -5.143002922e-19)
(89.62009456 -6.709638545 -6.361974191e-19)
(89.85386293 -6.896146967 -6.324641207e-19)
(89.27726316 -6.484801229 6.458052785e-19)
(89.5382321 -6.651348901 1.275645453e-18)
(89.03771223 -6.919095506 0)
(90.55399902 -7.5735568 -6.086320412e-19)
(90.80245552 -7.820757904 6.00549739e-19)
(90.00566228 -8.066528968 -5.313958543e-19)
(88.47594997 -6.584010018 -1.799503209e-19)
(88.8907301 -6.270763115 0)
(89.18506377 -6.430502589 0)
(88.05855948 -6.86513598 6.451784236e-19)
(87.9667724 -6.805639041 6.307367243e-19)
(88.48958199 -6.71826048 0)
(89.5370921 -7.462636317 -5.28556047e-19)
(90.23503608 -7.256652322 6.182783943e-19)
(90.47262818 -7.492532974 0)
(89.92938552 -6.963885355 6.30602133e-19)
(90.15751492 -7.180534351 -3.530011761e-21)
(89.50686089 -7.423833516 -5.328227079e-19)
(89.21804874 -7.290022456 5.549707181e-19)
(88.1543226 -7.287040482 -1.349184015e-21)
(88.15152711 -7.14297976 1.236485504e-18)
(87.50871473 -7.712151466 -1.348678289e-18)
(87.48090572 -7.586216098 -1.257620839e-18)
(89.4270675 -7.646418862 -5.175602843e-19)
(88.77427442 -6.862231836 0)
(88.18558395 -6.952934629 0)
(88.0936258 -6.888468226 -6.520642176e-19)
(88.15492878 -7.113634571 -1.839294037e-18)
(88.14256263 -7.060461604 5.989644322e-19)
(89.0597428 -7.060278317 -5.356441541e-19)
(89.65435174 -7.938294873 0)
(87.68519159 -7.870161841 0)
(87.53605543 -7.767210384 6.779306883e-19)
(87.67836741 -8.230799652 0)
(89.84704187 -8.326131846 5.471011397e-19)
(82.2114345 -7.754251386 0)
(82.45330155 -7.612180598 0)
(60.04421999 -1.628318169 0)
(61.44411933 -3.754672958 0)
(79.30135304 -9.533733274 0)
(79.78281774 -9.259637576 0)
(79.95198576 -8.850710866 0)
(79.92450215 -7.220166628 -8.778456487e-19)
(81.25935171 -7.135291977 -8.280382344e-19)
(77.68463308 -7.027903082 9.98484996e-19)
(79.41496655 -7.215703171 0)
(79.45751122 -9.031872878 1.765716759e-18)
(82.6317425 -7.476245998 4.476273059e-19)
(82.80227964 -6.770405854 7.281008838e-19)
(83.4237897 -6.537177269 3.390516228e-19)
(81.63983558 -7.079377331 1.613707994e-18)
(82.55610936 -6.851075806 -7.412186233e-19)
(82.38519829 -7.597514049 -4.518605576e-19)
(73.85860558 -9.201809087 0)
(74.72844809 -6.246673524 0)
(76.99550825 -6.897128274 -5.269013266e-19)
(72.44329129 -10.37425654 0)
(73.74777906 -10.44496101 0)
(84.81427436 -5.974358574 -1.398593601e-18)
(85.55699165 -5.872342267 0)
(85.66790402 -5.896908107 -8.007999208e-19)
(85.29803571 -5.861519682 7.159052195e-19)
(85.49722717 -5.868610579 -7.185519115e-19)
(84.75362435 -5.998497102 0)
(85.85611356 -6.03923583 -1.295679922e-18)
(85.98776244 -6.183994555 6.678338075e-23)
(85.69568623 -5.920673114 6.338825542e-19)
(85.81554964 -6.003856343 0)
(83.73287358 -6.525219412 0)
(84.20017533 -6.203928721 -3.326781985e-21)
(84.55232202 -6.051550193 -6.859404183e-19)
(83.59859426 -6.464791313 0)
(84.06496652 -6.264498749 -3.145457487e-21)
(83.62197194 -6.625293314 8.987314711e-19)
(84.35302902 -6.083171559 2.655866146e-18)
(85.00290527 -5.905321172 -7.033475126e-19)
(85.23029264 -5.865265418 1.090846514e-22)
(84.65379592 -6.009246253 6.927705437e-19)
(84.91965119 -5.923808406 7.013026527e-19)
(84.27049551 -6.10249315 -8.854296963e-19)
(87.2660372 -6.746616416 6.270907118e-19)
(87.3928172 -6.788263393 6.396405528e-19)
(87.08290763 -6.767648825 -1.879212401e-20)
(87.231291 -6.744322224 -2.491905803e-18)
(87.58120594 -6.805304007 -6.581007249e-19)
(87.65339791 -6.869024555 6.718663684e-19)
(87.44274803 -6.796350939 6.432909518e-19)
(87.55841073 -6.797929985 0)
(86.3457914 -6.45063158 -3.400312111e-18)
(86.58704955 -6.560908061 0)
(86.04338509 -6.244320633 -6.664116183e-19)
(86.26566077 -6.407422688 2.028183786e-18)
(86.96763142 -6.697963167 0)
(87.05285644 -6.753472254 0)
(86.66705693 -6.59192647 1.053022585e-21)
(86.89993497 -6.673607813 -7.060312501e-19)
(88.27251347 -7.463073493 -1.321914786e-18)
(88.17775982 -7.346515961 -6.419064861e-19)
(89.24529481 -7.331649171 -5.584170977e-19)
(87.22827392 -7.29541276 -2.182335551e-18)
(87.35491717 -7.397220514 -3.677526007e-19)
(87.23570058 -7.054391785 0)
(87.19868535 -7.221899546 7.240912704e-19)
(87.33807999 -7.420111701 3.841805935e-19)
(89.41212678 -7.600210885 5.213364242e-19)
(87.59934665 -7.547997175 1.151448408e-18)
(88.25648686 -7.496394237 -2.514019333e-19)
(88.07335405 -7.018089756 8.828175267e-21)
(88.20767661 -6.983387222 6.306547749e-19)
(88.81079914 -6.887570649 0)
(87.77620154 -6.985250531 -2.069999648e-18)
(87.21400197 -6.978967496 -1.016052323e-20)
(87.68704899 -6.894730063 -6.787846603e-19)
(87.75684204 -6.960799123 0)
(87.25676838 -6.993930666 -7.047106897e-19)
(87.25132189 -7.029071185 1.42150777e-18)
(87.2083974 -6.977367858 -6.795069056e-19)
(87.24781139 -6.987042512 2.104675733e-18)
(89.03324592 -7.036658598 1.065312859e-18)
(88.1309573 -7.048818085 -1.186576181e-18)
(88.08063371 -7.029602956 0)
(87.76208103 -7.939486589 -2.064567868e-18)
(87.720024 -7.886942793 -1.499772697e-21)
(89.6858836 -7.972405387 0)
(89.8336578 -8.269582072 -9.840400614e-19)
(87.67492276 -8.163224082 0)
(87.75464779 -7.964923839 2.073813254e-18)
(87.49454494 -6.213220897 -1.890982447e-19)
(87.9505437 -5.796713859 -6.858470456e-19)
(88.32850095 -5.991338603 -1.350437364e-18)
(87.42137434 -5.500188092 0)
(87.82003445 -5.725368895 6.932280979e-19)
(87.35236412 -6.145194739 -5.711098616e-19)
(88.44860892 -6.050689407 0)
(88.78597588 -6.217014682 0)
(88.37357824 -6.545141202 -7.235562383e-19)
(88.04080328 -6.558496734 1.094181358e-21)
(87.57763355 -6.719533705 1.178086556e-18)
(87.40736002 -6.70306125 0)
(87.3558811 -6.686055931 0)
(87.187172 -6.630582426 -1.633418333e-19)
(87.59305559 -6.424251474 0)
(81.75084576 -8.11253378 0)
(78.22240986 -10.0918561 3.634687076e-18)
(77.22480901 -10.51245774 0)
(80.62599069 -8.810048415 4.092274923e-18)
(80.80490753 -8.490931147 0)
(80.8769076 -8.069938872 0)
(81.26132073 -7.924792827 8.389279816e-19)
(82.95908164 -7.218416586 -1.527041169e-18)
(83.10592941 -7.027722692 0)
(83.26536652 -6.920586624 -1.441722334e-18)
(81.61636493 -7.769920886 -8.500664143e-19)
(81.93617367 -7.614982057 -8.420741991e-19)
(81.87433145 -7.922192788 0)
(71.36937596 -4.157450614 0)
(73.91868378 -5.772571592 0)
(72.68415792 -9.008031298 0)
(69.62711978 -9.701319326 0)
(69.25737595 -11.84290381 0)
(67.35540291 -10.58524894 0)
(76.59818408 -10.74506124 0)
(75.78152628 -11.04866462 0)
(75.92732209 -10.29272724 0)
(84.69185037 -5.913928149 2.553222797e-17)
(85.05415867 -5.931863285 -9.30917798e-18)
(84.98964074 -5.943159815 7.050398429e-19)
(84.9276198 -5.967249577 0)
(84.98501287 -5.970216009 0)
(84.61645305 -5.987112697 -1.783046823e-18)
(85.05827743 -6.137241286 -5.413723386e-21)
(85.07385233 -6.210672418 1.654937533e-18)
(84.95604881 -5.958833111 7.631258523e-19)
(84.96822105 -5.972924761 -7.996523764e-19)
(83.93517 -6.375626722 0)
(84.19681967 -6.322644885 -1.515296926e-18)
(84.29907964 -6.252064759 1.519581392e-18)
(83.41738951 -6.826633083 2.204630858e-18)
(83.57035245 -6.738780085 1.484566283e-18)
(83.33034321 -6.854361916 0)
(84.50074906 -5.997168419 0)
(84.82254707 -5.992867965 0)
(84.87666466 -5.972541168 0)
(84.38610415 -6.183926564 0)
(84.45664882 -6.131549793 1.533998395e-18)
(84.16340172 -6.145034469 0)
(87.76448667 -6.764242398 -1.82067919e-18)
(87.62428044 -6.726800095 5.926406352e-19)
(88.09662488 -6.580552549 5.578374362e-19)
(88.44648168 -6.695180945 0)
(87.93557308 -6.794419928 6.238279858e-19)
(87.81284893 -6.774051963 -6.10135483e-19)
(86.80785398 -6.491639044 -2.280757636e-21)
(86.5734613 -6.379931829 6.495850132e-19)
(87.01182465 -6.163339281 1.929004268e-21)
(85.62164851 -6.626889238 0)
(85.70153572 -6.657021944 1.646940343e-18)
(85.11022192 -6.308927419 0)
(85.18356347 -6.399225732 7.141377808e-21)
(85.89710047 -6.784850092 0)
(85.77996345 -6.683797718 8.200818316e-19)
(85.856409 -6.707280445 -1.643970812e-18)
(87.5227923 -6.391987025 0)
(87.11618655 -6.607017963 6.632999492e-19)
(86.88614916 -6.523661184 -1.320830757e-18)
(88.14643497 -7.229233982 6.298022599e-19)
(88.66539097 -7.259795364 0)
(88.68004263 -7.308235893 -6.074064519e-19)
(87.48797776 -7.667925088 0)
(88.56898311 -7.749533983 5.609567868e-19)
(88.59327927 -7.787683114 2.844654984e-18)
(88.55278878 -7.664201929 6.781159392e-20)
(88.54843361 -7.711505874 -5.517077599e-19)
(87.46559076 -7.627675044 0)
(88.00056796 -8.400219896 6.26063561e-19)
(88.00813294 -8.424833011 0)
(87.63634965 -7.848902773 -6.811230193e-19)
(88.69674212 -7.907525231 -1.164235691e-18)
(88.7349362 -7.933963357 0)
(88.62046305 -7.830766742 -1.15109854e-18)
(88.65570184 -7.873266329 1.159559347e-18)
(87.58076786 -7.816579293 1.492013043e-21)
(88.13052433 -8.368780737 0)
(88.01837126 -8.381731119 4.47126151e-19)
(88.78554494 -8.333717925 0)
(88.30489874 -8.346328337 -5.783783407e-18)
(87.29972431 -8.258668334 1.995487083e-17)
(81.99364843 -7.904460446 0)
(82.59401538 -7.403029732 0)
(52.09386368 -1.089261752 0)
(54.22678485 -4.378341184 0)
(62.23679953 -11.74900415 0)
(64.51250348 -12.21918963 0)
(56.86602475 -7.171136188 0)
(59.61694642 -10.49762215 0)
(57.39849031 -11.43646317 0)
(78.78007339 -9.824288673 -4.01123239e-18)
(80.21882826 -9.014758671 0)
(82.71818204 -7.251285935 0)
(82.92578071 -7.142840667 0)
(82.79601682 -7.358950355 0)
(82.14378461 -7.741638704 9.022082991e-19)
(82.21898934 -7.473039965 8.003681035e-21)
(82.47487173 -7.351633616 0)
(72.28199224 -12.03386406 0)
(70.9060861 -12.13600088 0)
(71.0540195 -10.14356125 0)
(66.65226963 -12.40632589 0)
(68.47267052 -12.58875213 0)
(74.91284724 -10.40254957 0)
(74.79136304 -11.40814264 0)
(73.59893697 -11.76943306 0)
(85.17093356 -5.968408128 -4.105080704e-19)
(85.21576751 -5.955337113 -2.424165594e-18)
(84.84873434 -5.935552378 2.163005457e-18)
(84.6788592 -5.999405673 0)
(85.04942648 -5.975407042 0)
(85.1173773 -5.97628806 8.121071163e-19)
(85.03169958 -6.043475209 2.887530893e-21)
(85.0457059 -6.082791995 0)
(84.99334044 -5.990214077 0)
(85.01450678 -6.013579579 0)
(83.98048808 -6.466816359 7.537200922e-19)
(84.09017433 -6.390951756 -4.979959001e-21)
(83.83057989 -6.447681044 -5.948047246e-21)
(83.48431413 -6.740463344 8.925758037e-19)
(83.72100333 -6.647704798 -1.486842747e-18)
(83.85929211 -6.554299662 -2.239395891e-18)
(84.67434412 -6.052761358 -2.331989613e-18)
(84.75446701 -6.024060159 1.557678176e-18)
(84.43906747 -6.041381893 -2.655076892e-18)
(84.20880537 -6.115883057 8.872200324e-19)
(84.52242477 -6.097062678 0)
(84.59429327 -6.074078037 7.727946114e-19)
(87.30236088 -6.758094818 -2.004567593e-21)
(86.59463933 -6.741805084 0)
(86.57120471 -6.729175156 -1.490101396e-18)
(86.68352688 -6.777476189 0)
(86.63221408 -6.762071694 0)
(87.34472135 -6.773976338 -6.369280545e-19)
(87.1353373 -6.765497165 1.216370525e-18)
(86.47663541 -6.779947434 -1.446976191e-18)
(86.43238095 -6.805440557 2.16809475e-20)
(86.55352512 -6.729641421 2.966658596e-18)
(86.52488254 -6.748758831 -2.302780001e-21)
(87.18909935 -6.753169362 6.143245676e-19)
(87.60201032 -6.820871271 -6.636554685e-19)
(86.868442 -6.775117051 0)
(86.86148189 -6.759824381 0)
(86.90274123 -6.831616177 0)
(86.88045165 -6.799971123 0)
(87.62520829 -6.842838773 0)
(87.4893115 -6.798632079 6.442157499e-19)
(86.7914898 -6.776662611 7.484263104e-19)
(86.74001845 -6.781324574 -7.456053618e-19)
(86.85252255 -6.756123128 -7.476374489e-19)
(86.8303194 -6.764712421 -7.464350115e-19)
(87.52846647 -6.797623666 -6.499015724e-19)
(85.45786057 -6.555039025 8.23379861e-19)
(85.54008919 -6.593597308 -2.474325867e-18)
(86.42599296 -6.490603438 2.499441652e-21)
(86.09552042 -6.553590357 1.43879386e-18)
(86.01302626 -6.514949488 1.429422234e-18)
(86.2605304 -6.620063775 7.229010582e-19)
(86.17834367 -6.588326305 0)
(86.5065766 -6.527301105 0)
(85.28070704 -6.46147953 0)
(85.37370571 -6.510345089 0)
(86.0531385 -6.769691273 -1.725861212e-18)
(86.10298752 -6.77606209 1.990625496e-18)
(87.03211018 -6.730466387 6.72668083e-19)
(86.70342567 -6.781879188 -1.484272031e-18)
(86.63264238 -6.753405987 -7.563265265e-19)
(86.44027519 -6.816210679 0)
(86.48588097 -6.803757612 0)
(87.03807811 -6.737583237 1.2650518e-18)
(86.74618475 -6.620532502 2.106092064e-18)
(86.42166065 -6.676041627 -1.463095798e-18)
(86.34178449 -6.649311283 -7.301401314e-19)
(86.57482404 -6.726946937 7.434975709e-19)
(86.49908149 -6.701846685 0)
(86.82405652 -6.647477777 0)
(85.9292861 -6.730681891 8.259969656e-19)
(86.00126318 -6.750834948 0)
(88.24806205 -7.431443749 6.984575348e-22)
(88.76262275 -7.441949207 1.875342428e-18)
(88.78740217 -7.478406032 1.255899987e-18)
(88.7028645 -7.358088663 -1.715490371e-21)
(88.73254288 -7.403127027 6.203651813e-19)
(88.21395999 -7.394835175 -6.44985454e-19)
(87.28076519 -7.344030328 0)
(87.32702238 -7.37478638 -1.455308906e-18)
(87.21740407 -7.092460827 0)
(87.19969123 -7.145788057 0)
(87.31202783 -7.429111065 -1.777828015e-18)
(86.91760401 -7.444453747 5.262890212e-18)
(87.79002819 -7.518622645 -2.527757084e-19)
(88.69549644 -7.568363948 0)
(88.60752834 -7.607605115 0)
(88.79352649 -7.51317571 -7.823192932e-20)
(88.79497441 -7.559999408 1.205116372e-18)
(88.25002353 -7.53206845 6.648810354e-19)
(87.42098558 -6.972500683 5.28015393e-19)
(86.68479844 -6.918018108 0)
(86.99930769 -6.91828735 0)
(87.29277527 -6.979590005 -1.195634419e-18)
(87.72146271 -6.917196844 0)
(86.97156699 -6.878649645 0)
(86.93621719 -6.85891517 0)
(87.00039874 -6.912641854 8.002241938e-19)
(87.0013682 -6.894059922 -7.709700278e-19)
(87.75330659 -6.937708209 0)
(87.26202419 -7.001940633 0)
(87.2604543 -7.012533801 -1.417457184e-18)
(87.22448839 -6.97790892 6.946065978e-19)
(87.23763665 -6.981435298 0)
(87.75722866 -7.920537779 -6.84875669e-19)
(88.80450487 -8.005097349 6.030647104e-19)
(88.81452399 -8.033893795 -6.083399939e-19)
(88.76547485 -7.956934767 -1.184644315e-18)
(88.7882006 -7.979971064 -5.988005422e-19)
(87.74294117 -7.903276957 2.731764285e-18)
(87.7091244 -8.070328133 1.423201097e-18)
(88.80858527 -8.176370481 -6.36565526e-19)
(88.77958709 -8.253302113 0)
(88.81784996 -8.068998129 -6.168215633e-19)
(88.81384193 -8.115590757 1.876028809e-18)
(87.73394173 -8.008188439 -6.950320201e-19)
(99.71672885 0.7213713013 -1.400979014e-20)
(99.64607121 0.9952010287 6.687676893e-21)
(99.87955295 0.6144731344 6.716483211e-21)
(99.61755574 1.101123415 -2.004019212e-20)
(99.55329093 1.464204729 -6.253816167e-21)
(99.85136054 0.890440256 -3.734939345e-22)
(99.52941721 1.598984255 0)
(99.50143932 2.037429405 1.719684572e-19)
(99.83983673 1.218614596 4.886977262e-21)
(99.49544713 2.189537814 4.010483845e-20)
(99.55178608 2.633469714 5.326877043e-19)
(99.86338905 1.552985315 -1.908224116e-21)
(99.57711667 2.770488443 0)
(99.34151718 0.9930980727 -1.483976256e-20)
(99.16080521 1.403614668 -1.453037402e-20)
(99.54294326 1.109620716 0)
(99.09716839 1.565921653 5.364471556e-20)
(98.91467839 2.145762232 0)
(99.42018386 1.64390582 -2.475767821e-20)
(98.86379275 2.368151829 -1.003957923e-19)
(98.77025459 3.11787388 7.09251206e-19)
(99.35003031 2.307723469 4.314898388e-20)
(98.76420272 3.390504924 -1.383453139e-18)
(98.86800706 4.221041502 0)
(99.41393884 3.008607017 -1.640753549e-20)
(98.94825435 4.481992127 0)
(98.8393891 1.108856357 4.841885456e-19)
(98.48939838 1.6386501 -2.695163721e-19)
(99.00931568 1.481228926 1.447157626e-20)
(98.36470769 1.857652776 -4.775831244e-19)
(97.99188578 2.666132375 2.374991194e-19)
(98.71206925 2.295037727 2.160694268e-19)
(97.87022915 2.998032107 1.354117227e-18)
(97.58132128 4.191239442 -2.684344413e-20)
(98.52378744 3.39047457 -1.495700311e-18)
(97.53538581 4.648111952 0)
(97.67778859 6.11108822 1.751183608e-19)
(98.63154783 4.661628175 -1.124341944e-19)
(97.8469515 6.590300541 3.179397618e-19)
(98.26746711 1.012097562 -3.78704228e-19)
(97.70306084 1.590600427 -2.584448765e-19)
(98.30043465 1.655685143 -4.820864453e-19)
(97.48898632 1.841503474 1.014485765e-18)
(96.75199271 2.847325764 4.960165771e-19)
(97.71019506 2.75729125 0)
(96.48531769 3.287763491 0)
(95.71696585 4.992569076 -6.255811795e-20)
(97.18724056 4.437854081 2.683489772e-20)
(95.51728241 5.697198514 0)
(95.38755815 8.242261618 2.405376128e-19)
(97.24542976 6.634091044 -1.757071219e-19)
(95.6098481 9.185970693 4.11263462e-19)
(97.72494825 0.6669080505 -6.062564958e-19)
(96.91257301 1.193192761 -1.356789331e-19)
(97.50015633 1.527709585 -5.277971868e-19)
(96.57436993 1.434395561 0)
(95.32808458 2.430941265 -1.514422322e-19)
(96.39886523 2.808913428 -1.132930508e-20)
(94.8324242 2.879263116 -7.406439886e-20)
(93.11485297 4.731513835 0)
(95.12610073 5.062039027 3.356517598e-20)
(92.486189 5.592687902 6.932983285e-19)
(90.70477472 9.418506035 -1.447524343e-18)
(94.50525214 8.726695538 0)
(90.36602671 11.406136 3.056235356e-19)
(97.33984099 0.07454481022 0)
(96.29963582 0.4167219606 0)
(96.7346019 1.032444959 9.897581738e-19)
(95.85610509 0.5770573321 0)
(94.16726362 1.229127445 3.315765931e-19)
(94.99195781 2.201481695 2.617161999e-19)
(93.46212318 1.513306832 1.737038672e-19)
(90.7578405 2.616322261 8.050992786e-19)
(92.43014366 4.392061351 -3.536148269e-19)
(89.58880642 3.080354097 0)
(83.50037607 4.848633533 -2.204874247e-18)
(89.06029892 9.108449304 0)
(85.56118352 9.560204395 3.451579293e-20)
(83.22528383 14.83855288 4.512352549e-19)
(88.72186641 14.79484932 7.432432573e-19)
(97.19768944 -0.6828588836 -1.792850605e-20)
(96.0418357 -0.6070479913 0)
(96.20023053 0.1748062295 0)
(95.55394105 -0.5670851731 -1.564121413e-19)
(93.72970578 -0.4320883061 3.395261135e-19)
(93.98208054 0.8334351623 -1.001786934e-18)
(92.98439248 -0.3960309044 -8.316151979e-19)
(90.27333837 -0.4464401167 -8.622511274e-19)
(90.43579451 1.840148574 0)
(89.05700428 1.171202796 -9.211765417e-19)
(87.67453253 1.267368791 -9.875195948e-19)
(87.81702856 2.426729037 1.954632362e-18)
(81.71728827 2.41299529 0)
(80.0468189 2.266812656 0)
(79.9567332 3.940597245 1.257783122e-18)
(97.32236356 -1.486752436 3.575348032e-20)
(96.17708588 -1.666662644 1.52178452e-19)
(96.03904898 -0.8762924256 0)
(95.70382636 -1.734550263 -1.521982315e-19)
(93.99840359 -2.008619875 -6.78827189e-19)
(93.74214693 -0.8477971461 0)
(93.3363251 -2.140073973 0)
(91.11604909 -2.746588592 -8.362239416e-19)
(90.41643965 -1.111094529 8.642190146e-19)
(89.69760743 -1.971354455 -2.64571581e-20)
(88.75552477 -2.303771 -9.516103446e-19)
(88.37122935 -1.605021463 2.608236357e-18)
(85.62585481 -3.552436231 3.17004505e-21)
(85.2464418 -4.088804964 1.021386859e-18)
(84.70375784 -3.807955329 -1.026575009e-18)
(97.68505637 -2.240088372 0)
(96.62117 -2.622778061 0)
(96.26222179 -1.918604609 0)
(96.18984017 -2.768934672 0)
(94.67788559 -3.297143765 3.301258353e-19)
(94.13934938 -2.358965629 6.80026784e-19)
(94.10817492 -3.51207152 6.970565709e-19)
(92.26158328 -4.30233768 7.463092659e-19)
(91.39238363 -3.18922884 2.369361109e-20)
(90.98232744 -3.906674051 0)
(90.30168518 -4.262214093 6.40995831e-19)
(89.92980074 -3.86236135 -2.58570142e-18)
(88.23024884 -5.22983225 1.67610751e-18)
(87.95384394 -5.590430004 0)
(87.55913555 -5.363632923 -6.927092574e-19)
(98.23688598 -2.887144066 -9.848843923e-19)
(97.29061977 -3.417456168 0)
(96.77045808 -2.837871366 -1.456940379e-19)
(96.9101188 -3.61752183 -5.688253983e-19)
(95.58812604 -4.308874261 -3.007902427e-19)
(94.88777925 -3.574338318 3.187863389e-19)
(95.09201346 -4.573541629 0)
(93.46926674 -5.470834778 6.732096538e-19)
(92.55767462 -4.620358581 -7.465601227e-19)