/*--------------------------------*- C++ -*----------------------------------*\
| =========                 |                                                 |
| \\      /  F ield         | OpenFOAM: The Open Source CFD Toolbox           |
|  \\    /   O peration     | Version:  v2012                                 |
|   \\  /    A nd           | Website:  www.openfoam.com                      |
|    \\/     M anipulation  |                                                 |
\*---------------------------------------------------------------------------*/
FoamFile
{
    version     2.0;
    format      ascii;
    class       surfaceVectorField;
    location    "3";
    object      Uf;
}
// * * * * * * * * * * * * * * * * * * * * * * * * * * * * * * * * * * * * * //

dimensions      [0 1 -1 0 0 0 0];


internalField   nonuniform List<vector> 
5999
(
(99.99899647 0.004043082752 -2.041839037e-21)
(99.99621362 0.003532607333 6.0471464e-21)
(99.99830222 0.01041776567 -2.017528287e-21)
(99.99403297 0.01267621556 2.037911045e-21)
(99.99691125 0.02180950887 -4.025632846e-21)
(99.98933904 0.02870148252 1.214314475e-20)
(99.99846921 0.02627569535 1.252120824e-21)
(99.98053992 0.05715375407 -8.014036891e-21)
(99.99147554 0.05894277781 -1.338783885e-21)
(99.99731818 0.04842721473 1.943324267e-21)
(99.9991592 0.02913884702 9.64441289e-22)
(99.98986285 0.08355133331 1.933326334e-21)
(99.99767445 0.047735629 9.470541172e-22)
(99.99828106 0.03689387761 -9.741186169e-22)
(99.99709657 0.0614063528 9.470154367e-22)
(99.98409195 0.13913275 1.886135276e-21)
(99.99678816 0.07841851519 0)
(99.99658221 0.09731470694 -3.479675889e-21)
(99.9789431 0.2162412605 -3.479657778e-21)
(99.99608741 0.1198385562 -9.036116258e-22)
(99.99551182 0.1459879813 3.033284229e-21)
(99.9722123 0.3208826438 3.318021272e-21)
(99.99496356 0.1757383821 4.096010606e-22)
(99.99450355 0.2087311709 -2.743964674e-21)
(99.96678141 0.4527046625 3.902089663e-22)
(99.99418622 0.2442799546 -2.819966428e-21)
(99.994095 0.2812851565 2.601563279e-22)
(99.96570288 0.5999145909 -1.895550765e-21)
(99.99433671 0.3179853438 2.506939902e-21)
(99.99496639 0.3522768317 2.160865204e-21)
(99.97245868 0.7362950548 -9.615136094e-22)
(99.9959845 0.3818106646 0)
(99.99056858 0.01109373373 1.009948149e-20)
(99.98578852 0.005299234209 2.494523832e-22)
(99.98378286 0.02890895591 1.61467312e-20)
(99.9773382 0.01991255955 -1.411543374e-20)
(99.97114983 0.06084100901 8.445367487e-21)
(99.95945928 0.04727142136 -2.192759817e-20)
(99.96411351 0.1036536069 -1.421373894e-21)
(99.92965245 0.09674719108 4.219203463e-20)
(99.9381126 0.1268901005 -9.302773917e-21)
(99.94613696 0.1341748917 -1.994613732e-21)
(99.95841902 0.134437072 3.938492219e-21)
(99.97494295 0.09473107294 1.956500574e-21)
(99.95897149 0.1634246413 1.914800911e-21)
(99.94574009 0.1773644508 1.946439547e-21)
(99.90841926 0.2358273229 -3.929363336e-21)
(99.93166677 0.2314070217 -1.806185322e-23)
(99.93582657 0.2713368592 1.886431281e-21)
(99.91498545 0.298458757 -1.626788993e-23)
(99.86009463 0.3921775994 0)
(99.9063243 0.3536828487 0)
(99.88059186 0.4051877628 -2.354578804e-21)
(99.91092827 0.4128040801 -4.6348172e-21)
(99.89986881 0.4339548542 -5.342868755e-23)
(99.87090273 0.5027739712 -1.042600356e-20)
(99.89135297 0.4766952186 -3.583856499e-21)
(99.86333966 0.6528774287 3.14377798e-23)
(99.88118467 0.6172933206 -2.368009933e-21)
(99.82595945 0.7562645614 -1.296314858e-20)
(99.85575562 0.7118567885 -3.15709193e-21)
(99.83152139 0.9378198272 -5.961749152e-21)
(99.85658971 0.8788048737 -5.606826492e-21)
(99.78795217 1.082919238 5.323235538e-22)
(99.82704205 1.01111365 -7.156359413e-21)
(99.81811736 1.269579761 -6.270030032e-23)
(99.8507478 1.177049892 -4.729648665e-21)
(99.77500031 1.459690967 -2.44407917e-21)
(99.82119506 1.350452172 -3.55942319e-21)
(99.84253333 1.596070711 -3.47813662e-21)
(99.87835079 1.460802755 -4.9164952e-21)
(99.81056395 1.822776406 2.843603601e-20)
(99.85773328 1.668365645 -2.931515863e-21)
(99.97506677 0.01292391168 -2.423470034e-20)
(99.97359346 0.003595712342 -1.211191951e-20)
(99.95621823 0.03602441777 -5.251661985e-20)
(99.95560328 0.01628129104 1.136132495e-20)
(99.92214562 0.08062721552 1.137348651e-20)
(99.91762505 0.04646868743 -4.446263848e-20)
(99.8837707 0.1523364716 2.685785612e-20)
(99.85599567 0.1040723505 4.837136717e-20)
(99.84445548 0.1665839201 -4.391827751e-20)
(99.89909743 0.165844127 -8.01400797e-21)
(99.84519357 0.1857160596 -5.920183948e-20)
(99.85837789 0.2100117644 -3.998540087e-21)
(99.839814 0.2967950597 -7.843466304e-21)
(99.82147239 0.2829425553 -3.910336398e-21)
(99.755058 0.342586805 2.741069224e-20)
(99.77768837 0.3737251304 7.726220031e-21)
(99.75686512 0.4993112831 -6.798520053e-21)
(99.72638057 0.4858939072 5.000742361e-21)
(99.62789282 0.5871323253 -3.866770364e-20)
(99.69468823 0.6021669992 2.735435165e-21)
(99.64501095 0.6454878166 -1.685985456e-20)
(99.67663308 0.760804223 -7.005291104e-21)
(99.65209424 0.7569086093 0)
(99.59211392 0.8363228114 7.229947253e-21)
(99.62201215 0.8472522663 -6.987678449e-21)
(99.5628909 1.165436567 3.429015243e-21)
(99.52568674 1.169924367 1.345569377e-20)
(99.44697927 1.290349474 6.672857633e-21)
(99.49364044 1.293849046 1.672679968e-20)
(99.46034548 1.699024395 -3.548319287e-20)
(99.40604757 1.721675631 -4.77632403e-20)
(99.31334898 1.897050283 -2.29652577e-19)
(99.38265219 1.879864446 1.145897344e-19)
(99.42175297 2.336855668 3.492790115e-23)
(99.34866309 2.396197544 1.698534688e-21)
(99.26418517 2.632665105 -1.991350142e-20)
(99.3548071 2.571628657 -1.969379274e-20)
(99.51567493 2.971102605 0)
(99.43278703 3.090780654 -8.187752216e-21)
(99.38072295 3.380277064 -2.533929123e-19)
(99.48128562 3.246635727 1.322306746e-20)
(99.95864894 0.006083293992 2.432791695e-20)
(99.96787261 -0.002938010963 -4.056308169e-21)
(99.92279882 0.02479294579 2.045469001e-20)
(99.9380054 -0.002636864664 2.840819224e-20)
(99.85847589 0.06974390179 -8.13328635e-21)
(99.87533279 0.01828054736 -4.035856719e-21)
(99.77486037 0.1644819624 0)
(99.77161708 0.069746218 6.195356998e-21)
(99.7304433 0.1547756797 1.888556759e-20)
(99.78448054 0.1933644472 -5.528397471e-20)
(99.71844967 0.1864065223 1.419891429e-20)
(99.7196438 0.2347972106 0)
(99.65703912 0.3695585067 3.127411282e-22)
(99.64604232 0.3260721382 -3.145381705e-20)
(99.54859663 0.3747954482 -3.143265719e-20)
(99.55820939 0.4421291981 6.381770494e-20)
(99.47833425 0.6489356091 -9.492277096e-20)
(99.4550411 0.587683554 3.38757316e-20)
(99.31102849 0.6768007678 -6.344125954e-20)
(99.36815947 0.7613791443 -3.155929671e-20)
(99.30017506 0.7758034356 -5.189060183e-20)
(99.2836188 1.016547252 7.516719023e-21)
(99.25856278 0.9791184769 1.494808588e-20)
(99.16427933 1.058240097 3.774654655e-20)
(99.1913518 1.106715673 7.454814124e-21)
(99.01469832 1.611927175 -1.577789618e-21)
(98.97104684 1.568892488 -2.0969428e-20)
(98.84342857 1.698294142 -2.839650381e-20)
(98.89425344 1.754329492 -2.860968911e-20)
(98.75746448 2.454756532 -4.593076292e-19)
(98.681277 2.417325026 -2.992694165e-19)
(98.5327844 2.623499395 -4.092389936e-19)
(98.62356308 2.673204499 -2.054572158e-19)
(98.63941756 3.546573725 -3.252111414e-19)
(98.51827584 3.545992846 -3.821002092e-19)
(98.37098869 3.860492886 3.669199009e-19)
(98.51889911 3.86227122 3.658524334e-19)
(98.84061194 4.722898839 -5.580517257e-19)
(98.68163597 4.812658348 -6.115032526e-19)
(98.60646495 5.218892349 2.425854538e-20)
(98.79722657 5.103042135 -5.55495944e-19)
(99.9522087 -0.01195702786 0)
(99.97916828 -0.01502990755 0)
(99.89683127 -0.0102031336 4.086077502e-21)
(99.93641762 -0.03903814383 0)
(99.79710005 0.01913657269 1.029912775e-20)
(99.84777672 -0.04185073431 -3.513504049e-21)
(99.65730485 0.1104951032 1.81122495e-20)
(99.69954866 -0.01295812014 2.283746875e-20)
(99.61292619 0.08123432283 -6.884694953e-21)
(99.65407921 0.1634003809 2.445826599e-20)
(99.58095528 0.1235450131 1.988428781e-21)
(99.56349902 0.1885449426 -9.746553456e-21)
(99.43425132 0.355630654 0)
(99.44278921 0.2852604607 -2.046461093e-20)
(99.318354 0.3101018139 -1.678785763e-20)
(99.2988362 0.409084916 4.176091808e-21)
(99.12932125 0.6671692565 0)
(99.12898811 0.5681336489 4.175644702e-21)
(98.94106787 0.6193616885 -4.301214614e-21)
(98.96295051 0.7776234721 2.094673978e-20)
(98.88713861 0.7603715047 5.39317578e-21)
(98.76969169 1.107062524 3.974495891e-19)
(98.75834968 1.033152187 1.553038136e-19)
(98.62740733 1.096910094 1.063433505e-19)
(98.63797929 1.184520081 -2.044069963e-19)
(98.26153775 1.872191702 1.133140266e-19)
(98.22924204 1.770580712 1.120666193e-19)
(98.05081669 1.889159458 5.357687795e-19)
(98.08517886 2.014539562 2.388358478e-19)
(97.71541749 3.05824121 5.639873905e-19)
(97.6352717 2.936877716 -1.137324743e-19)
(97.39256397 3.166751986 -1.139913545e-19)
(97.48902569 3.317699665 -6.781498461e-19)
(97.32882459 4.799882046 0)
(97.15311489 4.693534609 1.336184537e-20)
(96.88472318 5.094836237 4.594409791e-19)
(97.10824884 5.222718869 5.014381224e-20)
(97.64461612 6.893408701 3.048605413e-19)
(97.34236845 6.916544182 6.209655965e-20)
(97.19582674 7.5158505 -1.805311704e-20)
(97.57969874 7.464547429 -3.08340444e-19)
(99.96810898 -0.04193834901 0)
(100.0187503 -0.03269321696 1.998614072e-21)
(99.89316102 -0.07067309907 -8.195478232e-21)
(99.96360804 -0.09282036128 -2.013391012e-21)
(99.75764332 -0.07339251859 8.454145941e-21)
(99.85051029 -0.1341187356 -4.087430041e-21)
(99.55284319 -0.002675763898 1.110106517e-20)
(99.65920073 -0.1462085549 3.073337753e-21)
(99.52019153 -0.05766075618 -2.636209256e-24)
(99.52595658 0.06480916666 -8.262629959e-21)
(99.46283984 -0.01101957955 -8.317124921e-21)
(99.41597209 0.06445612069 0)
(99.20667314 0.2367784096 -1.678744321e-20)
(99.24620643 0.1466126521 0)
(99.10435206 0.1355377102 -9.548985302e-23)
(99.04120306 0.2559903377 -6.270237656e-23)
(98.75156201 0.5321052243 8.632047922e-21)
(98.79492053 0.4003382853 1.298323867e-20)
(98.57409869 0.404239628 1.746709685e-20)
(98.53795122 0.6138667169 -2.360687375e-21)
(98.46495006 0.565906655 -2.525006229e-20)
(98.19564199 0.9812380587 7.333008979e-21)
(98.21643392 0.8764837186 2.626926516e-19)
(98.05382007 0.9116350157 2.804292073e-19)
(98.02718711 1.033712461 1.344046196e-19)
(97.37192271 1.811738447 7.700121685e-19)
(97.3789153 1.654093378 -3.691813636e-21)
(97.13965729 1.738897769 1.305117617e-19)
(97.12380631 1.928476282 -2.596328162e-19)
(96.28190734 3.27518373 0)
(96.23997342 3.034266366 -5.667292026e-21)
(95.86994866 3.226913276 2.814563014e-19)
(95.91964674 3.51938903 0)
(95.18445691 5.765716859 -1.710441975e-20)
(94.98671035 5.44752062 -2.653027237e-22)
(94.48285955 5.857321989 -8.974935353e-20)
(94.74028737 6.264369998 -1.706111483e-20)
(95.1628413 9.524846856 2.059437295e-19)
(94.60046241 9.289645551 0)
(94.13546564 10.18157304 -2.806418715e-19)
(94.91277624 10.44137526 -9.942974032e-20)
(100.018346 -0.08301349512 -1.414029879e-23)
(100.0970705 -0.0552341879 6.362077418e-23)
(99.92600713 -0.1549727654 2.091568038e-21)
(100.0315473 -0.161707242 -7.716505558e-23)
(99.75877142 -0.205668296 -1.097131964e-20)
(99.89847682 -0.2542672035 1.647990201e-21)
(99.49123671 -0.1805097662 -9.929102015e-21)
(99.67237832 -0.3238559257 -1.667155315e-20)
(99.47971146 -0.2581091655 -1.41751976e-20)
(99.4323666 -0.1059794783 -7.803540363e-21)
(99.39440927 -0.2157072759 -3.085685263e-21)
(99.3122525 -0.1400937596 3.983602123e-23)
(99.01716538 0.007359930018 1.261920704e-20)
(99.09656508 -0.09169582507 1.281928755e-20)
(98.95009421 -0.1458974028 6.335399454e-21)
(98.83578556 -0.02046037469 2.1795183e-20)
(98.41698959 0.2348409228 1.389568658e-20)
(98.51904859 0.08066953322 1.832840098e-20)
(98.28737856 0.02579006686 -3.073019685e-20)
(98.1637716 0.2590281773 9.83045306e-20)
(98.10927644 0.1809005343 -2.688125698e-19)
(97.66701733 0.603782161 -3.37328116e-19)
(97.73014919 0.4811920187 -1.363937857e-19)
(97.5574895 0.4703267451 -5.098514064e-20)
(97.48159045 0.6087915774 3.435484578e-20)
(96.46994544 1.346892716 0)
(96.55167483 1.145234886 4.979625037e-19)
(96.27002774 1.158471961 0)
(96.1608664 1.393189921 2.847610892e-19)
(94.63170064 2.754219029 -3.71061536e-20)
(94.71145599 2.416914189 1.300130759e-19)
(94.24863697 2.470774788 0)
(94.127246 2.876954437 -5.279475387e-21)
(92.05677476 5.404076744 -4.098474008e-20)
(92.03642973 4.806552247 -5.632041896e-19)
(91.23649414 4.94079499 -5.851262369e-21)
(91.22329281 5.722114364 -7.902864859e-19)
(89.28727451 11.3169941 3.371065394e-19)
(88.62599618 10.12708528 1.860315567e-19)
(86.83037992 11.37073657 -1.022146132e-18)
(87.08602494 10.62850646 1.333173694e-18)
(88.36869102 12.66124722 1.049474707e-19)
(87.4377 12.73530322 1.228924979e-19)
(100.1133378 -0.1330764753 1.486543231e-23)
(100.2226061 -0.08133344968 -2.960785845e-21)
(100.0078264 -0.2585521334 -5.396407918e-22)
(100.1499312 -0.2415780549 1.290594975e-21)
(99.81696566 -0.3702023112 -4.252851037e-21)
(100.0038602 -0.3943923621 -2.800751265e-21)
(99.49692646 -0.4092893427 8.757687991e-21)
(99.754977 -0.5328160191 -9.653827178e-22)
(99.51447185 -0.5060547867 9.075261574e-22)
(99.40115103 -0.3408709034 4.265302429e-21)
(99.40316315 -0.4749162649 8.858266816e-21)
(99.28358042 -0.4113192549 6.241401774e-21)
(98.90875367 -0.319652553 -2.13593445e-21)
(99.03276127 -0.4126312351 3.294703248e-21)
(98.89638856 -0.5100509939 2.177350335e-21)
(98.7288801 -0.3993726309 6.595740246e-21)
(98.19386484 -0.2163682287 -4.155474836e-20)
(98.36014078 -0.3667402185 1.16069204e-21)
(98.1423324 -0.483629949 -1.088047758e-21)
(97.92974106 -0.257480363 -5.423329482e-23)
(97.90760843 -0.364092458 -6.019828322e-21)
(97.30988802 -0.01518530833 -2.97840815e-19)
(97.4202212 -0.1356039479 -2.776615915e-19)
(97.25848616 -0.1982502295 -2.986117799e-19)
(97.1246887 -0.06744131869 2.626175411e-19)
(95.79718429 0.4419925739 0)
(95.97025504 0.2412071506 0)
(95.69449321 0.1651119096 -2.851144575e-19)
(95.47959503 0.3841875696 0)
(93.3537674 1.283941861 3.079250104e-19)
(93.6132939 0.9467676862 -2.748799513e-19)
(93.17391484 0.8147258843 4.919906167e-19)
(92.8331762 1.179509003 3.371924743e-20)
(89.40333186 2.606018376 4.605884058e-19)
(89.82345787 1.994717062 4.634552292e-19)
(89.14572879 1.652430709 -1.128480642e-20)
(88.51668847 2.286893568 1.438732858e-18)
(81.87085752 4.533741475 5.669486849e-19)
(82.47378791 3.745895805 0)
(81.72939706 3.109718507 0)
(80.8406875 3.916408045 6.287688929e-19)
(100.2608069 -0.1888293579 -1.685018849e-21)
(100.4007302 -0.109211165 9.337934609e-22)
(100.1478696 -0.3742419853 -9.81078219e-22)
(100.3248566 -0.3269113547 -6.921328517e-22)
(99.9441839 -0.5545743659 5.011658794e-22)
(100.1740071 -0.5442175007 -2.47674711e-22)
(99.58822396 -0.6721002917 5.683921771e-22)
(99.91676461 -0.757115154 8.396350086e-22)
(99.63882995 -0.779949789 4.99277897e-22)
(99.45551743 -0.6196102894 1.46523228e-21)
(99.50566454 -0.7670980951 -1.397904819e-23)
(99.35210616 -0.7251667556 -1.398103644e-23)
(98.91591912 -0.7125584944 -2.171391435e-21)
(99.08185335 -0.7859990355 0)
(98.96871709 -0.9221619221 -1.063408225e-21)
(98.7551865 -0.8418349709 -1.125124842e-21)
(98.1375729 -0.7685146169 9.775940003e-22)
(98.36203458 -0.8914703474 -1.435930786e-22)
(98.1813072 -1.062624658 3.690794734e-20)
(97.89471883 -0.8764883194 -1.844691903e-19)
(97.9105988 -0.9975152101 1.867254916e-19)
(97.20064235 -0.7841458848 2.748476313e-19)
(97.35331074 -0.8807102955 2.814653665e-19)
(97.21585894 -0.9862786106 -1.437590031e-21)
(97.03447664 -0.8863497529 8.587102754e-19)
(95.55663408 -0.7160751255 -7.816217774e-20)
(95.79513361 -0.8698903281 0)
(95.56796622 -1.013078761 3.092516347e-19)
(95.27858867 -0.8585571699 -4.816275011e-19)
(93.00157004 -0.6304850489 -3.694766186e-19)
(93.3758497 -0.8553473357 4.570504533e-20)
(93.0509127 -1.089011819 4.543834763e-20)
(92.61217913 -0.8842432755 -1.473144797e-19)
(89.31615157 -0.9504428101 -4.672662445e-19)
(89.91440627 -1.215501702 -4.227902503e-20)
(89.56403412 -1.646137253 -4.798315656e-19)
(88.89466624 -1.466028 8.358136524e-19)
(84.8921399 -3.022971899 5.21624971e-19)
(85.41508378 -2.992948543 -1.509016105e-18)
(85.38722202 -3.387432327 5.099861975e-19)
(84.92723772 -3.509956453 -4.897055655e-21)
(100.4646963 -0.2462820773 1.924789326e-21)
(100.6330526 -0.1369352843 9.460600467e-22)
(100.3507141 -0.4934107184 2.899915155e-23)
(100.5579829 -0.411664775 9.915971856e-22)
(100.1460816 -0.7442731867 9.748168732e-23)
(100.4106689 -0.6925296169 9.177543255e-22)
(99.77343329 -0.9471099788 -1.399245977e-21)
(100.1600814 -0.9796059614 -7.915434761e-22)
(99.85726983 -1.057227203 6.575021228e-22)
(99.60755967 -0.919001009 -1.001075e-21)
(99.7085438 -1.067407912 -5.05542475e-22)
(99.52792571 -1.054096719 -1.001011999e-21)
(99.05506431 -1.13354627 2.673680737e-24)
(99.25531771 -1.176402682 1.063355113e-21)
(99.1743558 -1.342032653 1.063364536e-21)
(98.92781908 -1.302791794 1.063344823e-21)
(98.27278505 -1.357672712 -1.599422066e-22)
(98.53974611 -1.435357687 -3.58380747e-20)
(98.40980697 -1.646394525 -3.477298365e-20)
(98.07329317 -1.51953571 -2.439747038e-20)
(98.12391873 -1.640248875 -2.421683762e-20)
(97.35752987 -1.584816734 1.786531651e-20)
(97.53952117 -1.645504068 -2.780207224e-19)
(97.43462982 -1.778303675 -1.767352327e-20)
(97.2264672 -1.719763701 0)
(95.75115922 -1.871825716 -7.602381595e-20)
(96.03030904 -1.963411657 0)
(95.85512405 -2.141058959 0)
(95.54339355 -2.059038671 1.607131165e-19)
(93.42004864 -2.328672954 3.600022958e-19)
(93.81925633 -2.438482817 6.998260822e-19)
(93.59546903 -2.693748515 3.487369544e-19)
(93.16263096 -2.611615426 -7.1135631e-21)
(90.49182581 -3.275081423 4.356930625e-19)
(91.02111704 -3.347425886 2.597984671e-20)
(90.81905715 -3.703603408 1.167673847e-20)
(90.29171574 -3.683323394 -1.28013302e-18)
(87.84615354 -4.980688547 -6.313912835e-19)
(88.12379616 -4.928968104 1.132405149e-19)
(88.10390197 -5.148066208 9.707048309e-20)
(87.79245925 -5.168215996 -9.643541084e-19)
(87.8797567 -5.224718462 -4.932367037e-19)
(100.7247337 -0.3014752628 7.773312319e-24)
(100.917459 -0.1626951935 2.492778468e-21)
(100.6156343 -0.6076081211 1.859227256e-21)
(100.8468169 -0.4900862314 9.419334021e-22)
(100.4219 -0.9245053862 6.053500705e-23)
(100.7097042 -0.8280010936 -4.642987984e-23)
(100.0507903 -1.212819054 -1.886981804e-21)
(100.4819687 -1.187141626 -8.578711681e-22)
(100.1640369 -1.318399754 -4.67442586e-22)
(99.85776718 -1.214299935 -4.911955124e-22)
(100.0064378 -1.352459013 -9.803308119e-22)
(99.80807673 -1.370377687 7.889029438e-23)
(99.32481055 -1.543236241 0)
(99.54869365 -1.549195314 9.858814558e-22)
(99.50455621 -1.733364361 1.957093897e-21)
(99.23966801 -1.739693967 1.057368621e-21)
(98.58891389 -1.922523137 6.273332693e-23)
(98.88034979 -1.94638317 -7.673889585e-24)
(98.80610814 -2.180725131 6.533494635e-20)
(98.4403478 -2.120995023 -7.089062887e-22)
(98.5197568 -2.231594262 -3.455874637e-19)
(97.7464247 -2.326915495 2.9566622e-19)
(97.94352503 -2.349700762 3.027495643e-19)
(97.8742306 -2.496609932 2.489802209e-20)
(97.65381535 -2.479858356 1.363384248e-18)
(96.27086014 -2.884254994 3.657191002e-19)
(96.56104325 -2.918530465 2.923005234e-19)
(96.43890085 -3.108686609 3.596462857e-19)
(96.12402296 -3.086994653 9.716206711e-19)
(94.22336274 -3.657775543 3.430623697e-19)
(94.61197941 -3.689523854 1.535921689e-19)
(94.4587051 -3.940036835 3.175793495e-19)
(94.0491414 -3.929440189 -9.260892401e-20)
(91.78675115 -4.776702448 -3.832736996e-19)
(92.25038373 -4.779410018 -1.144560795e-18)
(92.10326891 -5.086260077 -7.695259074e-19)
(91.64330446 -5.103437357 -6.805629314e-19)
(89.6446475 -6.122026094 -6.590236899e-19)
(89.85935806 -6.091001901 3.760628919e-19)
(89.82773927 -6.247764006 -8.88016275e-20)
(89.59112593 -6.255988961 -4.120384592e-19)
(89.65174692 -6.302907528 2.607883838e-21)
(101.0367817 -0.3506610781 3.427716372e-21)
(100.9374116 -0.7091127264 -9.159640498e-22)
(100.7630714 -1.082702086 -9.159341841e-22)
(100.4060909 -1.452743213 0)
(100.1943316 -1.484171206 6.326521307e-24)
(100.1777715 -1.648989624 1.865575731e-21)
(99.71055954 -1.909069406 -9.846023878e-22)
(99.946526 -1.875986017 -1.06623461e-21)
(99.67089038 -2.119639844 1.045916817e-21)
(99.0567467 -2.416908997 6.822787313e-22)
(99.35625886 -2.386216345 -6.11168091e-20)
(98.95967191 -2.636040336 2.883053621e-19)
(99.06113082 -2.729443965 -3.548851374e-19)
(98.31805465 -2.957770879 -4.917487263e-19)
(98.51826446 -2.944358606 -3.928139717e-21)
(98.48349841 -3.094042161 0)
(98.26288104 -3.115886994 0)
(97.01451912 -3.708205204 -6.731574258e-21)
(97.30189817 -3.693187548 2.069577785e-19)
(97.22710439 -3.88268752 2.765377649e-19)
(96.91985612 -3.911294559 1.365499877e-19)
(95.2279334 -4.686091528 -6.020888328e-19)
(95.60284387 -4.661137222 -2.29680654e-19)
(95.50467814 -4.903232619 -5.923494614e-19)
(95.1109849 -4.945511431 -1.255110127e-19)
(93.06184897 -5.932216653 -3.551060457e-19)
(93.50569874 -5.895973352 1.033642497e-20)
(93.39536448 -6.191056277 7.526379257e-19)
(92.94026751 -6.237669085 2.601825208e-19)
(91.01326927 -7.231579639 8.72560778e-20)
(91.21972913 -7.220628571 0)
(91.1866352 -7.388441969 3.740023841e-22)
(90.93618341 -7.368811464 -1.266875333e-22)
(90.99293288 -7.429909915 0)
(84.93976988 -2.57634 1.568539728e-18)
(84.35868614 -3.13638031 -1.221761931e-19)
(84.35500703 -2.576647451 -5.212899767e-19)
(87.86361964 -4.750518184 -7.512895084e-19)
(87.57532934 -4.804177526 6.603350754e-19)
(87.5254684 -5.003604659 5.545120622e-19)
(87.61621493 -5.060663447 7.447293281e-20)
(89.67372166 -5.961421597 -2.87893097e-19)
(89.45377729 -5.997285141 -1.146732598e-18)
(89.40263321 -6.134742668 -2.53597639e-20)
(89.466404 -6.181336205 -1.271869304e-18)
(91.04818217 -7.067010088 8.732224547e-20)
(90.84315469 -7.078155887 8.725976882e-20)
(90.76701943 -7.212521163 5.63406724e-20)
(90.82251845 -7.27218465 -3.346526858e-19)
(82.76425934 5.056153496 -5.309089467e-19)
(81.15593566 5.54479831 5.510404268e-19)
(82.31726375 5.934289871 5.64932319e-19)
(90.71885956 -2.900881179 8.860930535e-21)
(89.93603915 -3.2331727 9.765194659e-19)
(90.1680079 -2.796830619 -4.679613431e-19)
(88.14044471 -4.702047888 -5.121551868e-21)
(87.87613274 -4.510175801 -1.748612222e-18)
(88.1761989 -4.475756223 -4.290373042e-19)
(85.46626738 -2.5354285 -4.652113432e-19)
(85.95855504 -2.557396201 -2.011894474e-18)
(85.8844921 -2.936059544 -2.497745651e-18)
(91.94335422 -4.461529022 7.591818569e-19)
(91.31691077 -4.788335279 1.27474991e-18)
(91.46767131 -4.446998134 -9.513330745e-21)
(89.8883646 -5.932162275 7.485007215e-19)
(89.70026034 -5.797363798 3.785848566e-19)
(89.92763607 -5.767655434 3.734374879e-19)
(88.42775877 -4.667871837 8.556672734e-19)
(88.39200181 -4.882717279 4.355848691e-19)
(88.82231673 -5.604662713 -4.978413173e-19)
(88.84355141 -5.41184011 -1.212109374e-18)
(88.59170113 -5.460193897 4.019190639e-19)
(88.54234138 -5.626401991 4.37234908e-19)
(88.62150802 -5.674151963 -4.374470986e-19)
(87.96851737 -6.402923053 -9.266897105e-22)
(87.83279647 -6.447661768 -6.193780903e-19)
(87.83919109 -6.35559764 -2.732821917e-19)
(87.98348475 -6.311017728 -7.015088175e-21)
(87.78871679 -6.437355437 -2.451770844e-19)
(86.86842639 -5.873584294 -2.872168178e-19)
(86.80159932 -5.963992002 -6.435933916e-19)
(87.02655476 -5.844845341 -3.820522941e-19)
(87.0023435 -5.953568412 -9.591517793e-20)
(86.84577719 -5.997754988 1.307318762e-19)
(93.1830593 -5.635325538 -3.662195855e-19)
(92.60870395 -5.967306206 -4.358561585e-19)
(92.73765705 -5.661478567 -6.996986362e-19)
(91.25474972 -7.054771174 0)
(91.08450995 -6.904321944 -3.420065963e-19)
(91.29095975 -6.890853209 3.375964257e-19)
(90.11022121 -5.904566221 3.731354669e-19)
(90.0694861 -6.065290879 3.729814161e-19)
(90.34340819 -6.642643052 9.488343195e-20)
(90.38043894 -6.487693593 8.081153063e-19)
(90.17569907 -6.506972288 2.790495727e-19)
(90.11106798 -6.63453268 -7.431056109e-19)
(90.16509441 -6.685762168 8.691864638e-19)
(89.28992871 -7.139585143 1.692532288e-21)
(89.20349727 -7.132687432 -2.631688626e-19)
(89.26412241 -7.107648824 -2.619112187e-19)
(89.33806343 -7.110397829 -2.609235218e-19)
(88.7957967 -6.730212742 0)
(88.7158764 -6.782589218 0)
(88.92251826 -6.708328668 6.87549134e-19)
(88.88054703 -6.775354573 0)
(88.74304377 -6.79816316 0)
(91.46169489 -7.041057046 0)
(91.4281487 -7.207677131 -3.325396478e-19)
(91.79786671 -7.832314052 5.252863832e-19)
(91.79160702 -7.729750464 1.416732691e-19)
(91.6809213 -7.842433261 -2.673216661e-19)
(91.68969713 -7.753369788 2.642717413e-19)
(90.21484533 -8.47031737 7.193057255e-23)
(90.02144285 -8.452691396 2.49223521e-19)
(90.18900048 -8.418587101 -3.765127655e-19)
(90.32684994 -8.429601286 -2.463959249e-19)
(89.75760658 -7.774826736 0)
(89.66374457 -7.809533483 0)
(89.86087419 -7.77913197 2.578511262e-19)
(89.79348844 -7.816022468 -2.588907731e-19)
(78.03962697 -4.783581445 -1.520369325e-19)
(78.79808997 -4.552335407 -1.517150158e-19)
(79.01210302 -5.194842747 4.203676504e-19)
(78.1528923 -5.548657486 -1.013432822e-19)
(78.51395834 -5.59314048 -9.390605226e-20)
(83.6296269 -5.79444201 1.786850692e-20)
(83.44155229 -5.577599565 -9.592858713e-21)
(83.18405448 -5.812151946 -1.634752674e-20)
(83.34622923 -6.066638406 1.680613815e-18)
(83.48087489 -6.025680438 3.116464763e-19)
(72.67199248 5.037417992 -7.028513232e-19)
(71.76602222 6.117352444 8.008912575e-19)
(71.747796 4.013803962 0)
(70.42413846 5.12980806 0)
(77.8688937 -4.069632077 -6.295604265e-19)
(77.25742111 -5.147798368 0)
(77.0050926 -4.235895477 0)
(86.71458526 -5.914212436 8.410521168e-19)
(86.73875758 -5.795723447 9.744032093e-20)
(86.89451218 -5.76631956 -2.793996749e-19)
(86.67309906 -5.881854308 -7.078358458e-19)
(85.76903479 -5.534508894 -8.24874272e-19)
(85.76158127 -5.440567809 -8.133168807e-19)
(85.91724287 -5.369062716 -4.05033725e-19)
(85.92375696 -5.469131788 -4.028276931e-19)
(86.62775153 -4.19447418 -9.266308153e-19)
(86.97633254 -4.14148907 -1.381930443e-18)
(86.96884417 -4.411124488 -9.205048637e-19)
(86.66351362 -4.497976201 -5.754835771e-19)
(85.61233473 -5.611935804 1.022944403e-19)
(85.76669461 -5.629246661 -4.202885765e-19)
(85.57634867 -5.689602251 -2.788346732e-19)
(85.62547948 -5.690016044 1.558889066e-19)
(86.70431969 -5.972225682 2.925393196e-19)
(86.6084522 -5.982620188 5.872135624e-19)
(86.63727069 -5.930209545 3.654398494e-21)
(83.85416001 -5.579001097 -4.49839619e-19)
(84.00667414 -5.758407844 -5.145554456e-21)
(83.74155429 -5.994981761 -3.058892218e-19)
(83.85652995 -5.953548845 -7.391970065e-19)
(85.60514058 -5.516238792 1.154269019e-19)
(85.44558822 -5.603428055 8.394810414e-19)
(85.4201815 -5.684648012 7.80778976e-19)
(85.47272232 -5.684294632 -9.568496942e-19)
(88.66001132 -6.753990257 0)
(88.70862687 -6.686055315 0)
(88.83524368 -6.66162708 0)
(88.63282789 -6.738735647 0)
(87.91732007 -6.479403161 2.462509858e-19)
(88.10900215 -6.358545468 8.389212449e-21)
(88.09204517 -6.446064706 9.103665129e-19)
(87.95901926 -6.487957485 6.164678101e-19)
(89.06549561 -5.556770342 2.978576172e-19)
(89.04316448 -5.741288492 2.873696947e-19)
(88.77393224 -5.761724666 -3.279380414e-19)
(88.84920263 -5.807762546 -3.284330479e-19)
(87.82988523 -6.498701473 -2.812730423e-19)
(87.88810313 -6.517746796 2.78635179e-19)
(87.80371984 -6.538379788 0)
(88.63561337 -6.788937208 0)
(88.54718304 -6.795253194 0)
(88.59180934 -6.767068059 0)
(86.76641909 -6.01456206 5.720154056e-23)
(86.67233983 -6.026050075 -2.916735454e-19)
(87.74046388 -6.51935694 -4.311679087e-21)
(87.76050754 -6.478202481 -2.805847914e-19)
(89.62898596 -7.767871061 0)
(89.72221857 -7.732765972 -2.551009952e-19)
(89.82476807 -7.7373153 -2.571766742e-19)
(89.22663266 -7.165604717 2.641494687e-19)
(89.36509958 -7.143917494 5.204553715e-19)
(89.31530119 -7.173754052 2.628595077e-19)
(90.54693303 -6.626502948 3.506617528e-19)
(90.50929765 -6.783103859 8.915629663e-20)
(90.27458578 -6.770483861 -3.993241889e-19)
(90.32799415 -6.824112173 4.003626645e-19)
(89.1394274 -7.158775626 0)
(89.1604863 -7.193010996 0)
(89.04918497 -7.180144943 0)
(89.53220202 -7.803362389 0)
(89.34838847 -7.790383304 -8.028530194e-19)
(89.49889743 -7.761104907 2.595131512e-19)
(88.67365236 -6.810697036 0)
(88.58718094 -6.817000369 0)
(89.03136162 -7.147797326 0)
(89.11810625 -7.127536235 0)
(90.04290385 -8.504146338 -2.518733843e-19)
(90.35774184 -8.481263273 4.940815966e-19)
(90.24588941 -8.521283426 -2.504657045e-19)
(91.7768458 -7.922738423 -3.386550141e-21)
(89.84639462 -8.484823699 -3.021373108e-21)
(89.86790206 -8.532531032 -2.539635483e-19)
(89.52771556 -8.504414092 1.294348672e-20)
(89.56683145 -7.844478096 2.653246479e-19)
(89.38088482 -7.832090676 0)
(89.5234529 -8.459150143 5.809437343e-20)
(89.83572616 -8.434138591 -4.319229037e-21)
(89.73114947 -0.5099738726 -4.273315835e-19)
(88.61131673 -0.6842228427 -4.849854691e-19)
(89.13942968 -0.1636901252 0)
(85.02816656 -2.061581758 4.990318521e-19)
(85.56432268 -2.120838996 2.557182549e-18)
(83.3700516 4.260026508 -1.101789195e-18)
(83.85583147 3.559153907 0)
(83.20798315 3.078308034 0)
(82.66854313 -0.4874202747 0)
(82.97813867 0.1937461668 -5.622254983e-19)
(81.75265715 -0.2914387302 0)
(82.19559314 0.5473880172 6.125583559e-19)
(78.63536746 -3.829210093 -6.285192412e-19)
(77.77662021 -3.247547507 -1.272598061e-22)
(78.54884585 -3.176813214 -6.293755837e-19)
(73.80821411 5.883577259 -7.135071884e-19)
(74.56007781 4.914098117 -7.013401718e-19)
(73.7280331 4.135238722 -1.411744728e-18)
(86.6349549 -3.904492768 9.397588784e-19)
(86.29817595 -4.29556008 -1.200176769e-19)
(86.25352829 -3.95908278 3.001972321e-21)
(85.58685822 -5.418890169 -4.067735307e-19)
(85.7463967 -5.337725004 -1.371109769e-20)
(83.66486904 -5.357536235 -4.757201784e-19)
(83.91039493 -5.167742986 0)
(84.05599474 -5.384514572 0)
(83.2267601 -5.317847111 1.360998939e-20)
(83.50535234 -5.117289839 -4.757565444e-19)
(79.32793255 -3.697157348 0)
(79.45458735 -4.276785145 0)
(83.4239498 -0.7080022371 0)
(83.21448914 -1.335595077 -5.680460261e-19)
(82.39598936 -1.274869361 5.878411371e-19)
(81.23973281 -8.488673532 0)
(81.48439646 -8.275917148 0)
(81.5963997 -8.240897422 0)
(81.2511818 -8.571686744 -1.561459225e-18)
(59.27077684 6.711289126 0)