/*--------------------------------*- C++ -*----------------------------------*\
| =========                 |                                                 |
| \\      /  F ield         | OpenFOAM: The Open Source CFD Toolbox           |
|  \\    /   O peration     | Version:  v2012                                 |
|   \\  /    A nd           | Website:  www.openfoam.com                      |
|    \\/     M anipulation  |                                                 |
\*---------------------------------------------------------------------------*/
FoamFile
{
    version     2.0;
    format      ascii;
    class       volVectorField;
    location    "2.18";
    object      U;
}
// * * * * * * * * * * * * * * * * * * * * * * * * * * * * * * * * * * * * * //

dimensions      [0 1 -1 0 0 0 0];


internalField   nonuniform List<vector> 
3259
(
(101.2972793 -0.1709578259 6.281140452e-21)
(101.2504949 -0.5159697035 9.921685217e-20)
(101.1607741 -0.8716168575 -1.998273436e-19)
(101.0136214 -1.263980999 -4.811037282e-22)
(100.7408365 -1.543568105 -1.578427517e-21)
(100.4193938 -1.975988244 0)
(99.96814705 -2.507535526 0)
(99.34809578 -3.068436072 0)
(98.38148628 -4.001384855 3.779766049e-20)
(96.87366493 -5.231868504 2.78454019e-20)
(95.03056284 -6.689166861 3.421151657e-19)
(93.14478855 -8.069382781 2.509593984e-21)
(101.6344945 -0.1843781518 0)
(101.5961278 -0.5575810445 0)
(101.5230524 -0.9409667595 0)
(101.4024045 -1.362848283 0)
(101.160725 -1.685691271 0)
(100.8902686 -2.162830566 0)
(100.5215823 -2.748142929 1.23704343e-19)
(100.0145142 -3.368879041 8.581196047e-20)
(99.25153615 -4.370327156 -3.507185819e-19)
(98.05693025 -5.695684451 4.995670403e-20)
(96.64861064 -7.385932803 -1.369551651e-20)
(95.22702009 -9.697403153 -2.812000527e-19)
(101.9932061 -0.1931953 0)
(101.9641126 -0.5851453359 0)
(101.9098904 -0.9867126939 0)
(101.8178224 -1.42246707 0)
(101.6080184 -1.771397645 0)
(101.3991201 -2.270557125 0)
(101.1194099 -2.863087622 0)
(100.739274 -3.494553096 -1.613998702e-19)
(100.2149191 -4.456149179 0)
(99.36319555 -5.726158705 6.384981895e-19)
(98.49339059 -7.336786745 5.000517427e-19)
(97.8742969 -9.482572619 -4.008784547e-20)
(102.3647849 -0.197521029 0)
(102.3446836 -0.5985795248 0)
(102.3088047 -1.008718576 0)
(102.2444103 -1.446314394 0)
(102.0659888 -1.808981733 0)
(101.9132418 -2.309675257 0)
(101.7133238 -2.885515485 -6.345137427e-22)
(101.4486863 -3.4864206 4.828478501e-21)
(101.1113468 -4.33873706 0)
(100.5435538 -5.411822994 9.943814528e-19)
(99.98158371 -6.685193735 4.600215011e-19)
(98.05598683 -7.875154201 -1.432241012e-19)
(102.7408968 -0.1978255661 0)
(102.7288076 -0.5992989209 0)
(102.7088908 -1.009228546 0)
(102.6687631 -1.439031995 0)
(102.5189402 -1.80456794 0)
(102.4141611 -2.290718987 0)
(102.2777731 -2.833055497 0)
(102.09244 -3.388921921 -3.078864252e-20)
(101.8855918 -4.102142139 -1.272301666e-19)
(101.4947647 -4.940683353 0)
(101.0259373 -5.853382669 2.219206486e-20)
(99.70018878 -6.498476412 -7.361585858e-20)
(103.1140786 -0.1947367959 0)
(103.1087474 -0.5893493859 0)
(103.1017886 -0.9916566345 0)
(103.0813955 -1.405767835 0)
(102.9565354 -1.764784426 0)
(102.8888531 -2.22548871 0)
(102.7994813 -2.72471035 0)
(102.6628906 -3.234326323 0)
(102.5217956 -3.821422751 5.431931214e-20)
(102.2165598 -4.45641824 3.591681514e-19)
(101.7703738 -5.105391916 -8.981785734e-19)
(100.9592041 -5.555375087 -1.396704161e-20)
(103.4782672 -0.1889151045 0)
(103.4783426 -0.5708785598 0)
(103.4812411 -0.9597242361 0)
(103.4757107 -1.352566657 0)
(103.3708375 -1.69788506 0)
(103.329315 -2.126823876 0)
(103.2704861 -2.578920922 0)
(103.1620723 -3.036403988 0)
(103.0365289 -3.53321375 0)
(102.7483667 -4.025030435 4.913994195e-21)
(102.2936135 -4.491463956 -6.212870883e-20)
(101.4301947 -4.845166767 -1.87464365e-19)
(103.8288188 -0.1810342688 0)
(103.832914 -0.5460528219 0)
(103.8426221 -0.9171875387 0)
(103.8471972 -1.285425635 0)
(103.7572324 -1.612236693 0)
(103.7319404 -2.006463482 0)
(103.6897854 -2.411918979 0)
(103.5928967 -2.816674137 0)
(103.4604696 -3.235195048 0)
(103.1499924 -3.630376174 0)
(102.6498491 -3.984565675 0)
(101.188143 -4.217379504 0)
(104.162429 -0.1717492025 0)
(104.1692177 -0.5169514629 0)
(104.1829169 -0.8675779828 0)
(104.1933106 -1.209736369 0)
(104.1136035 -1.515205227 0)
(104.0962264 -1.874212853 0)
(104.0599087 -2.237081415 0)
(103.9625403 -2.590920557 0)
(103.8099986 -2.94335552 0)
(103.4661931 -3.263149411 0)
(102.9196638 -3.539760642 0)
(100.8702393 -3.675051082 0)
(104.4769935 -0.1616449339 0)
(104.4853027 -0.4854257253 0)
(104.5005562 -0.8139825758 0)
(104.5131104 -1.12996944 0)
(104.439818 -1.412809374 0)
(104.4237545 -1.737965219 0)
(104.3846385 -2.062408281 0)
(104.2794494 -2.369998758 0)
(104.0993594 -2.667620777 0)
(103.7186505 -2.928855792 0)
(103.1295857 -3.149180197 0)
(100.5830902 -3.218591395 0)
(104.7714714 -0.1512069231 0)
(104.780321 -0.4530158194 0)
(104.7951546 -0.7589901669 0)
(104.8068755 -1.049577977 0)
(104.7370773 -1.309737693 0)
(104.7173249 -1.603421874 0)
(104.6693968 -1.893280647 0)
(104.5515872 -2.160460284 0)
(104.3404675 -2.41303811 0)
(103.9232776 -2.628805145 0)
(103.2939547 -2.807324803 0)
(100.3318271 -2.832907894 0)
(105.0457027 -0.1408194049 0)
(105.0543025 -0.4209251377 0)
(105.0672115 -0.7046355582 0)
(105.0757949 -0.971184998 0)
(105.0071387 -1.209416327 0)
(104.9802079 -1.474454056 0)
(104.9194426 -1.733287742 0)
(104.786138 -1.966010244 0)
(104.5429915 -2.18169198 0)
(104.0919009 -2.362085704 0)
(103.4228523 -2.508710525 0)
(100.1178949 -2.50512116 0)
(105.3001845 -0.1307763073 0)
(105.3079143 -0.3900507 0)
(105.3178045 -0.6524251134 0)
(105.3215819 -0.896690122 0)
(105.2522617 -1.114260896 0)
(105.2158114 -1.353608013 0)
(105.1396991 -1.584528483 0)
(104.989209 -1.788562011 0)
(104.7146248 -1.973993487 0)
(104.2331233 -2.126766139 0)
(103.5238708 -2.248502656 0)
(99.94030018 -2.225561501 0)
(105.5358811 -0.1212950242 0)
(105.5422674 -0.361036878 0)
(105.5483748 -0.6034232526 0)
(105.5461999 -0.8273966687 0)
(105.4748771 -1.025861002 0)
(105.4274289 -1.242356366 0)
(105.3347976 -1.448751288 0)
(105.1660075 -1.628638824 0)
(104.8615392 -1.789369122 0)
(104.3531249 -1.920448943 0)
(103.6028306 -2.022426031 0)
(99.79596612 -1.986759257 0)
(105.7540935 -0.1125286769 0)
(105.7587855 -0.3343251135 0)
(105.7606023 -0.5583460428 0)
(105.7517334 -0.764146836 0)
(105.6773945 -0.9452137393 0)
(105.6180742 -1.141573701 0)
(105.5083727 -1.326803886 0)
(105.3210038 -1.486198098 0)
(104.9886798 -1.626787812 0)
(104.4563786 -1.740701863 0)
(103.6642323 -1.826818212 0)
(99.68140266 -1.78286862 0)
(105.9563644 -0.1045783072 0)
(105.95911 -0.3101974608 0)
(105.9563215 -0.5176408247 0)
(105.9403177 -0.7074285962 0)
(105.8622106 -0.8728575103 0)
(105.79057 -1.051665154 0)
(105.6636447 -1.218749083 0)
(105.457966 -1.360781717 0)
(105.1000142 -1.484985899 0)
(104.546253 -1.585211818 0)
(103.7116352 -1.658498234 0)
(99.59320641 -1.609410795 0)
(106.1443514 -0.09750627548 0)
(106.1449753 -0.2888189578 0)
(106.1374098 -0.4815608971 0)
(106.1140485 -0.6574914601 0)
(106.0316107 -0.8090322394 0)
(105.9474916 -0.9727193194 0)
(105.8033661 -1.124119042 0)
(105.5800451 -1.251777414 0)
(105.1986876 -1.362660036 0)
(104.625339 -1.451910764 0)
(103.7478404 -1.514767148 0)
(99.52817378 -1.462852312 0)
(106.3198527 -0.09134488863 0)
(106.3182303 -0.2702669217 0)
(106.30581 -0.4502174399 0)
(106.2750242 -0.6144026955 0)
(106.1877641 -0.7537735928 0)
(106.0912099 -0.9045747819 0)
(105.930171 -1.042390693 0)
(105.6898551 -1.158412535 0)
(105.2872222 -1.258520611 0)
(104.6956985 -1.338967912 0)
(103.7750624 -1.393331667 0)
(99.48350154 -1.340268268 0)
(106.4844574 -0.08611319584 0)
(106.4805169 -0.2545727591 0)
(106.4632323 -0.423628196 0)
(106.4250657 -0.5781941083 0)
(106.3326875 -0.7069754242 0)
(106.223875 -0.8469172532 0)
(106.0464029 -0.9732627986 0)
(105.7896526 -1.079872056 0)
(105.3676772 -1.171353809 0)
(104.7590163 -1.244790655 0)
(103.7950489 -1.2922571 0)
(99.45667769 -1.239381561 0)
(106.6406274 -0.08180038935 0)
(106.6342648 -0.2417069129 0)
(106.6120886 -0.4017417543 0)
(106.5665994 -0.5486333125 0)
(106.4683248 -0.6684792884 0)
(106.3474429 -0.7993883931 0)
(106.1543485 -0.9168208257 0)
(105.881378 -1.015277957 0)
(105.4417764 -1.100058069 0)
(104.8167002 -1.168008815 0)
(103.8091941 -1.209916626 0)
(99.44543349 -1.158308913 0)
(106.7875437 -0.07845454988 0)
(106.7788389 -0.2317420623 0)
(106.7518583 -0.384551272 0)
(106.6992326 -0.5261603851 0)
(106.5964851 -0.6379961733 0)
(106.4637033 -0.7617131811 0)
(106.2553774 -0.8728823418 0)
(105.9669698 -0.9639586807 0)
(105.5110189 -1.04368254 0)
(104.8699576 -1.107454495 0)
(103.8186448 -1.144949193 0)
(99.44769944 -1.095401868 0)
(106.936587 -0.07591474065 0)
(106.9250636 -0.2244029613 0)
(106.8929779 -0.3718719076 0)
(106.8322217 -0.5082388515 0)
(106.719593 -0.6155394448 0)
(106.5742591 -0.7339703004 0)
(106.3509385 -0.8404960798 0)
(106.0478972 -0.9254474087 0)
(105.5766592 -1.001453191 0)
(104.9198313 -1.062173218 0)
(103.8243798 -1.096275316 0)
(99.46158412 -1.04931808 0)
(107.0522455 -0.07469501375 0)
(107.0390097 -0.2205203998 0)
(107.003033 -0.3647034422 0)
(106.9376219 -0.5011709971 0)
(106.8363833 -0.600422694 0)
(106.6803588 -0.7155058454 0)
(106.4424263 -0.8192398171 0)
(106.1254501 -0.8992208519 0)
(105.6397743 -0.972692599 0)
(104.9672641 -1.031351667 0)
(103.8272914 -1.063028462 0)
(99.48555926 -1.019095552 0)
(107.2759769 -0.07330773573 0)
(107.2587937 -0.2174519618 0)
(107.2150412 -0.359396274 0)
(107.1347274 -0.4903463905 0)
(106.9459409 -0.5937794839 0)
(106.7782662 -0.7066769296 0)
(106.5273071 -0.8092815301 0)
(106.2007086 -0.8849386122 0)
(105.7012062 -0.9568066959 0)
(105.01308 -1.014205899 0)
(103.828367 -1.044586289 0)
(99.51819352 -1.004176427 0)
(93.0472954 -7.977414149 2.144050677e-21)
(94.99580586 -9.461130108 1.986539547e-19)
(94.67280591 -6.468795069 -3.674113387e-19)
(93.17267971 -7.78757693 0)
(96.21378545 -7.273632501 -2.419412255e-19)
(95.07576301 -9.170739275 1.719897693e-19)
(93.36937134 -7.949487775 1.408830449e-19)
(93.90721082 -8.669529752 1.553050745e-21)
(90.92744298 -9.36316442 7.023787866e-19)
(91.10129575 -8.654373012 4.643454968e-19)
(98.17885643 -9.59672032 3.04811225e-19)
(91.08356893 -8.60462557 4.573832673e-19)
(90.32856006 -8.588713013 4.775641565e-19)
(80.17192126 -8.891973032 0)
(90.93513395 -9.427780161 2.373714779e-19)
(94.03032509 -8.768493337 -2.163484718e-19)
(89.4513093 -9.308145496 1.107547885e-21)
(47.43153309 -7.486067638 0)
(90.32999823 -8.634237364 -1.957703784e-18)
(89.45273335 -9.242917857 -1.38521329e-18)
(88.06624783 -28.01036058 1.602767323e-19)
(91.27108702 -9.021134918 2.581139049e-19)
(92.88764796 -8.847371048 -2.609140377e-19)
(93.19442487 -9.159468929 -3.100167993e-19)
(92.51640305 -8.46294655 2.681657672e-19)
(92.79236068 -8.747621901 0)
(91.26212198 -8.957644105 0)
(91.07968823 -8.338713768 -2.509304231e-19)
(92.16576076 -8.10582869 -2.722594864e-19)
(92.42801957 -8.371192696 -2.694498487e-19)
(92.07820635 -8.017640194 2.74004433e-19)
(91.04026676 -8.298386827 -2.502655855e-19)
(90.62462973 -8.318820511 0)
(90.66371161 -8.3558265 -2.673630265e-19)
(93.30665743 -9.268629368 3.130591901e-19)
(93.65854992 -9.605953894 1.113474724e-19)
(91.668515 -10.3163573 0)
(91.41876686 -10.42397713 -2.739164172e-18)
(89.60739212 -23.26653243 0)
(88.84295564 -26.13574807 9.39900561e-20)
(90.4737091 -8.904414859 0)
(80.84121559 -26.4748868 -3.348295741e-19)
(88.44774463 -26.39138921 -3.03577295e-20)
(82.25781349 -26.61267248 0)
(90.47601466 -8.975661012 -5.404011881e-19)
(88.8337264 -27.97222517 -5.759676035e-20)
(91.62572622 -26.7376893 3.866075286e-20)
(98.04969239 -7.418563082 4.961313433e-21)
(97.77601929 -9.113248841 4.59138913e-20)
(95.4216083 -9.298637414 0)
(96.51420962 -9.845372102 -2.006298108e-19)
(80.77335685 -8.323614201 0)
(77.85424662 -8.583286339 0)
(91.01126508 -9.23570594 1.340233199e-18)
(92.4644772 -9.181426894 -2.586370654e-19)
(92.58193265 -9.360300955 0)
(51.44957385 -7.749214236 0)
(76.26591138 -11.47862462 0)
(90.48373401 -8.103655293 -7.537522649e-19)
(90.5649375 -8.463187521 0)
(90.1174013 -9.223669125 0)
(93.63656586 -9.778019726 -3.550168869e-18)
(94.01249006 -10.28686799 0)
(92.62603461 -9.4220673 0)
(92.78488622 -9.609379661 2.102035964e-19)
(91.04523773 -9.685359295 0)
(91.69200008 -26.40003752 -7.438694429e-20)
(89.55723048 -9.585508838 9.960277711e-19)
(65.36998213 -20.55749041 -1.307379201e-18)
(87.93582125 -18.74156733 -3.481174152e-19)
(89.54235665 -22.75786936 3.198550581e-20)
(85.90928025 -9.756144527 0)
(90.44304711 -8.779425831 -5.052636473e-19)
(89.63290211 -9.20173715 2.816773836e-18)
(92.31741598 -8.974309858 -2.19802122e-19)
(92.42438477 -9.128086248 2.130507894e-19)
(91.12430562 -9.181715705 0)
(91.23083295 -8.827020182 4.842350153e-19)
(92.17321554 -8.775631307 -4.367076944e-19)
(92.28182439 -8.916122753 -4.396227552e-19)
(90.50659197 -8.162216939 -2.533229777e-19)
(90.69908887 -8.469666973 0)
(91.06645233 -9.784842496 0)
(92.84410122 -9.665848091 3.117120273e-19)
(92.93680316 -9.786815492 0)
(68.68982256 -20.03566606 -1.013546478e-18)
(67.02201267 -20.52635343 1.03196126e-19)
(89.54893378 -9.720840418 0)
(69.99875682 -22.43551986 0)
(74.41423215 -22.54549328 3.909063483e-19)
(89.50689539 -25.07178109 -1.076978394e-19)
(90.48238554 -8.790614605 -5.096510875e-19)
(81.26934898 -26.77647199 -3.837445614e-18)
(86.68272831 -26.89454224 0)
(70.47264953 -22.76428218 2.253931265e-19)
(85.76778294 -26.91997339 -2.528471377e-20)
(89.82980027 -9.163057585 -3.291916722e-18)
(92.01773297 -8.58725374 -4.343192545e-19)
(92.13475129 -8.723760265 6.546846707e-19)
(91.19918661 -8.796762522 0)
(91.13650602 -8.472176928 0)
(91.87933113 -8.403873036 1.097567275e-19)
(91.98146767 -8.534711634 2.178071362e-19)
(88.94146692 -8.456595804 -1.141131998e-18)
(88.99048763 -8.422432009 0)
(90.35577907 -8.543672882 0)
(89.47049975 -9.388967236 1.406356455e-18)
(90.34811832 -8.691391656 0)
(88.94554852 -8.605205194 0)
(88.92841033 -8.514631648 1.163618058e-18)
(89.47721431 -9.179332385 0)
(91.72486428 -8.235538382 6.667355235e-19)
(91.84384349 -8.357160417 2.207371841e-19)
(91.14758315 -8.449511951 0)
(90.92406616 -8.149458263 1.296826717e-21)
(91.55990438 -8.05208399 -2.245855652e-19)
(91.68317593 -8.186840611 -2.221298382e-19)
(89.92762826 -8.310746269 1.377319697e-18)
(89.87181236 -8.269675431 -1.09007187e-18)
(90.58034777 -8.275171808 1.044226037e-18)
(90.69408965 -8.391578018 -5.375456759e-19)
(90.00157562 -8.370840762 -5.673991422e-19)
(89.97120309 -8.341746629 2.767846859e-19)
(90.7508908 -9.950090381 0)
(91.96225387 -9.822745056 2.988812593e-21)
(91.97031179 -10.03599039 1.849516361e-19)
(41.59971841 -13.79037737 0)
(89.00829865 -10.13524697 1.249751301e-18)
(89.57663299 -24.71310688 1.328671041e-19)
(75.59077127 -22.31450184 -4.507114148e-19)
(77.75442252 -21.72698516 3.830471098e-19)
(89.11716211 -8.788852049 -1.514920344e-18)
(89.14053429 -8.724672845 2.985645043e-19)
(90.48247303 -8.845534993 0)
(81.4122723 -26.63295617 4.065843873e-19)
(77.14776749 -25.63056777 -3.332022258e-18)
(77.8710971 -25.65534483 -9.393046619e-19)
(83.88494879 -26.84646549 5.867855136e-20)
(90.44853391 -9.049536769 6.860790626e-20)
(89.11266649 -8.933443171 -1.595475199e-19)
(89.1225543 -8.864817081 1.526522932e-19)
(90.68998097 -27.79790196 -1.05816641e-20)
(88.49035448 -7.922597153 -1.237421986e-18)
(88.47732594 -7.979974638 -9.379502216e-19)
(88.29434543 -8.312328826 0)
(90.440571 -8.493273312 0)
(89.14996923 -8.406414931 0)
(89.39078 -8.396362659 0)
(92.75667522 -9.814223228 0)
(92.29513529 -10.21960325 0)
(79.3806767 -8.974914284 1.102770174e-18)
(90.99222516 -9.591916099 2.431611506e-19)
(91.86950445 -9.616466667 0)
(91.92333426 -9.696257603 0)
(89.50595897 -9.492594626 -9.962843365e-19)
(66.08305536 -20.97981791 2.623510084e-19)
(65.42311319 -21.08215674 2.760594924e-18)
(45.88235858 -2.607023819 -1.293098805e-18)
(64.64589322 -15.97020481 -1.351786635e-18)
(68.76228068 -19.47528792 0)
(89.11372202 -8.705431232 2.950224514e-19)
(89.01672077 -8.684335115 -2.930963893e-19)
(90.38868188 -8.747859862 -2.49730694e-19)
(89.52217916 -9.177307083 -1.022459489e-18)
(88.60811078 -8.223272285 -1.254914953e-18)
(88.69048079 -8.259331101 -2.501557739e-18)
(88.48275003 -8.065688414 -3.134068362e-19)
(88.52837318 -8.157509962 0)
(89.97394014 -8.432631248 -1.133648364e-18)
(89.98303631 -8.401981178 0)
(90.70037339 -8.424385563 0)
(88.78088598 -8.318907232 -1.758333964e-19)
(88.76353899 -8.314371585 1.538053629e-18)
(88.74916197 -8.282893518 0)
(88.78862537 -8.301180268 1.426387476e-18)
(91.97152464 -9.768451569 0)
(92.06167548 -9.860983744 -4.44129606e-19)
(91.20322038 -9.920939866 0)
(69.58039991 -20.47059466 0)
(59.09576114 -18.11557837 2.692263884e-18)
(56.05111956 -16.97516401 0)
(60.14991488 -19.02253585 8.763788212e-18)
(60.46058462 -18.75945689 3.122456801e-18)
(68.53874736 -20.50161418 0)
(89.68630516 -9.880518894 0)
(71.50078638 -22.41471179 -1.126690516e-18)
(79.27102696 -24.08250379 1.828322599e-19)
(78.22205458 -24.25291046 -5.997956221e-20)
(90.49100669 -8.807851202 -1.804708989e-18)
(89.17056043 -8.693275435 1.18134476e-18)
(89.17287443 -8.692657004 0)
(81.67123784 -26.81510273 -1.238654235e-18)
(73.86871968 -24.05660669 0)
(74.33551871 -24.32467817 0)
(77.09060608 -24.17562416 -1.747936784e-19)
(75.30113101 -24.05229556 -2.243223675e-20)
(69.69361246 -22.82740596 0)
(73.59110645 -24.33302973 0)
(84.85820913 -26.99900477 4.658193735e-20)
(77.46634604 -25.42731244 0)
(78.8617207 -25.45818523 0)
(88.6140216 -9.072314934 -1.076718512e-18)
(89.0902687 -8.965923106 -7.405244717e-19)
(90.43458734 -9.11247396 -1.082400329e-18)
(99.18841648 -2.976035346 4.919687812e-20)
(98.48647393 -3.627347674 0)
(98.17033915 -3.882943587 4.48883462e-19)
(97.02613106 -4.756038996 0)
(96.58990151 -5.079173723 1.185527131e-19)
(95.17237869 -6.112163296 5.595849676e-19)
(99.84429503 -3.309443748 0)
(99.28317306 -4.02484201 9.142348468e-21)
(98.68193251 -3.739288117 1.405243069e-19)
(99.02762234 -4.303606465 -7.219324375e-19)
(98.10149082 -5.259921166 -3.953145749e-19)
(97.29105088 -4.898128424 1.610678191e-19)
(97.75036185 -5.617728934 -5.176013904e-19)
(96.61369491 -6.801974921 4.783001577e-19)
(95.51227434 -6.306917459 2.664205854e-19)
(95.41400969 -6.891811075 -4.684473215e-19)
(94.90720237 -7.474866706 -4.938402024e-19)
(94.29459593 -7.12366118 2.665856521e-19)
(93.45348143 -8.318223994 -2.298453454e-19)
(92.99899886 -8.647877128 -2.527895066e-19)
(92.70900567 -8.368691263 0)
(100.5583914 -3.477220002 4.787923488e-19)
(100.1607677 -4.1836888 3.058744762e-19)
(99.4912279 -4.089457972 1.71083424e-19)
(99.97532702 -4.458614001 3.077747011e-19)
(99.2981591 -5.398779268 0)
(98.38429605 -5.334009703 -4.807673757e-20)
(99.04521362 -5.755165086 -2.536468349e-21)
(98.27657744 -6.957565267 -1.730186998e-19)
(97.00897882 -6.905124023 -2.221379216e-19)
(97.11541873 -7.442762425 -6.369065646e-19)
(96.83656241 -7.951614276 2.12112324e-19)
(96.07845146 -7.992620851 0)
(95.63114982 -9.812214974 1.191797417e-19)
(95.40984076 -10.56037571 0)
(94.60635307 -10.21828507 -4.306008131e-19)
(101.2762892 -3.499171047 -1.438420511e-19)
(101.0173625 -4.139626125 0)
(100.3812837 -4.188611439 -3.017276106e-19)
(100.8993844 -4.380650187 0)
(100.4386961 -5.207315085 5.353765938e-19)
(99.59654452 -5.376866961 -7.553110562e-20)
(100.2667239 -5.513136755 0)
(99.77938263 -6.520311477 6.295092192e-20)
(98.6815951 -6.892697847 3.298984744e-19)
(99.65802084 -6.884208788 0)
(99.61028052 -7.939858028 4.330790819e-19)
(98.44325924 -8.916584961 -1.589899022e-19)
(97.77108242 -8.250362573 -4.500696423e-19)
(101.9383688 -3.419068019 -3.565257101e-20)
(101.7797077 -3.967250984 -3.651048673e-19)
(101.2174932 -4.106479697 0)
(101.7048754 -4.168499277 4.793177959e-19)
(101.4012202 -4.827605626 -4.524380243e-19)
(100.7001117 -5.122155244 0)
(101.2797854 -5.064231329 8.602926073e-19)
(100.9068697 -5.806524996 -2.580262436e-20)
(100.0973426 -6.355066237 -3.781267729e-21)
(100.7975824 -6.057749409 0)
(100.6067964 -6.708291891 -5.235768721e-19)
(99.89145206 -7.590703497 3.94573257e-19)
(99.27632487 -6.804035098 -4.859491389e-19)
(102.5269723 -3.278015642 0)
(102.4261087 -3.732545317 2.858172827e-20)
(101.9527182 -3.911624146 4.206222148e-19)
(102.3755404 -3.892119855 -2.679775568e-20)
(102.1522249 -4.398166136 -4.796789886e-20)
(101.6080177 -4.720708214 5.272378083e-20)
(102.0554014 -4.573703156 -4.837356185e-20)
(101.7222007 -5.104979398 1.545517679e-20)
(101.1360729 -5.623645868 0)
(101.6069729 -5.280196435 -5.069170787e-21)
(101.3046889 -5.766392851 0)
(100.808144 -6.456337457 -8.017930667e-20)
(100.7250017 -5.760028726 0)
(103.0438771 -3.088773523 0)
(102.9609714 -3.476648435 0)
(102.5690759 -3.670938898 -2.733397048e-20)
(102.9170732 -3.606827101 0)
(102.7194699 -3.997668097 2.697092732e-20)
(102.3100292 -4.293747853 -1.449683676e-19)
(102.6308773 -4.127529757 -3.19937265e-20)
(102.3045803 -4.510160175 1.513426913e-19)
(101.887561 -4.945358695 2.9988218e-19)
(102.1811842 -4.632730467 -2.140624793e-22)
(101.7773498 -4.974447346 2.036085344e-19)
(101.4408276 -5.553736693 5.211602473e-19)
(101.3729225 -5.010132187 -2.13531774e-20)
(103.4912569 -2.872777503 0)
(103.4078447 -3.201682029 0)
(103.0804035 -3.408931892 0)
(103.3620585 -3.309653112 0)
(103.1532336 -3.625291381 0)
(102.8377533 -3.903407409 0)
(103.0586163 -3.726820938 0)
(102.7065591 -4.015451337 0)
(102.4191386 -4.379102945 -6.999136464e-20)
(102.570652 -4.104789625 0)
(102.0748239 -4.354847273 0)
(101.8647823 -4.803331256 2.078883572e-19)
(101.2722136 -4.366819352 0)
(103.8753937 -2.647372308 0)
(103.7802407 -2.925549308 0)
(103.507405 -3.132182096 0)
(103.7287769 -3.01509025 0)
(103.4977657 -3.271345831 0)
(103.2467866 -3.534631223 0)
(103.3938488 -3.351990912 0)
(103.0077433 -3.577001366 0)
(102.7893709 -3.90109935 0)
(102.8585286 -3.645688201 0)
(102.1942894 -3.821613428 0)
(102.1188743 -4.215716484 0)
(100.9473571 -3.802111718 0)
(104.2047199 -2.424532914 0)
(104.0910851 -2.660142456 0)
(103.8632448 -2.857862003 0)
(104.0319695 -2.734704572 0)
(103.774378 -2.944360782 0)
(103.5725825 -3.186873207 0)
(103.6605646 -3.009218503 0)
(103.2428432 -3.187963314 0)
(103.0718688 -3.475195948 0)
(103.0818417 -3.242031855 0)
(102.2031677 -3.360114257 0)
(102.2042577 -3.69946208 0)
(100.6516339 -3.325486757 0)
(104.4873402 -2.21173794 0)
(104.3517421 -2.41207026 0)
(104.1605504 -2.596328628 0)
(104.2841491 -2.474550412 0)
(103.999114 -2.647732339 0)
(103.8348896 -2.867304347 0)
(103.8758974 -2.700633238 0)
(103.4300035 -2.845357686 0)
(103.2935814 -3.098113586 0)
(103.2565314 -2.888530787 0)
(102.1524034 -2.964803737 0)
(102.1947309 -3.255496236 0)
(100.3911503 -2.923457778 0)
(104.7306714 -2.013288897 0)
(104.5717254 -2.184551529 0)
(104.4102198 -2.353190696 0)
(104.4955289 -2.23730519 0)
(104.1841993 -2.381917404 0)
(104.0486956 -2.578412753 0)
(104.0526035 -2.425733369 0)
(103.5809981 -2.544912347 0)
(103.4707811 -2.766471128 0)
(103.393505 -2.579583004 0)
(102.0694219 -2.625664543 0)
(102.1339055 -2.87510724 0)
(100.1678967 -2.582216911 0)
(104.9410993 -1.831484932 0)
(104.7587527 -1.978803416 0)
(104.6213046 -2.131058335 0)
(104.6742524 -2.023721456 0)
(104.3388706 -2.145914585 0)
(104.225412 -2.320182337 0)
(104.2000143 -2.18278007 0)
(103.7038555 -2.282251481 0)
(103.6140904 -2.475869754 0)
(103.5008852 -2.310198284 0)
(101.9703525 -2.334482683 0)
(102.0457001 -2.548653952 0)
(99.98144066 -2.291361535 0)
(105.1240151 -1.667146412 0)
(104.9190865 -1.794802754 0)
(104.8011207 -1.930783587 0)
(104.8268401 -1.833412064 0)
(104.4700532 -1.937968725 0)
(104.3736412 -2.091375678 0)
(104.3248476 -1.969442334 0)
(103.804462 -2.053369864 0)
(103.7308989 -2.222010586 0)
(103.584895 -2.07595345 0)
(101.8649842 -2.084544389 0)
(101.9443186 -2.268355774 0)
(99.82912509 -2.042984706 0)
(105.2840828 -1.520348196 0)
(105.0578236 -1.631895126 0)
(104.9556178 -1.752133356 0)
(104.9585163 -1.665433868 0)
(104.582855 -1.756056383 0)
(104.4998088 -1.890132191 0)
(104.4319359 -1.783277662 0)
(103.887254 -1.854771204 0)
(103.8266805 -2.001008438 0)
(103.650319 -1.873045777 0)
(101.7590666 -1.870484558 0)
(101.8384005 -2.027859684 0)
(99.70744 -1.830830023 0)
(105.4252316 -1.390716505 0)
(105.1791281 -1.489095513 0)
(105.0896398 -1.594352336 0)
(105.0734759 -1.518562651 0)
(104.681094 -1.59810664 0)
(104.6086535 -1.714401219 0)
(104.5248845 -1.62193087 0)
(103.95569 -1.683388671 0)
(103.9055915 -1.809484542 0)
(103.7009316 -1.698178886 0)
(101.6558119 -1.687701901 0)
(101.7329142 -1.822015539 0)
(99.61296654 -1.650131093 0)
(105.5507725 -1.277647633 0)
(105.2863817 -1.365288952 0)
(105.2071447 -1.456404515 0)
(105.1750591 -1.391487221 0)
(104.7676778 -1.462171972 0)
(104.703737 -1.56212755 0)
(104.6064586 -1.483260294 0)
(104.0124962 -1.536567343 0)
(103.9708902 -1.644471471 0)
(103.7397089 -1.548527173 0)
(101.5570426 -1.532450328 0)
(101.6306476 -1.646431552 0)
(99.54242398 -1.497137396 0)
(105.6634253 -1.180420924 0)
(105.3823149 -1.259340514 0)
(105.311331 -1.337172767 0)
(105.26592 -1.282918382 0)
(104.8448761 -1.346506122 0)
(104.7877789 -1.431419801 0)
(104.6788294 -1.365385804 0)
(104.059843 -1.412058333 0)
(104.0251447 -1.50342889 0)
(103.7689966 -1.421711685 0)
(101.4637671 -1.401648138 0)
(101.5331843 -1.49756496 0)
(99.49290658 -1.36880027 0)
(105.765535 -1.098215948 0)
(105.4691826 -1.170123208 0)
(105.4048022 -1.235510594 0)
(105.3482227 -1.191615967 0)
(104.9145323 -1.249548885 0)
(104.8629326 -1.320569672 0)
(104.7437665 -1.266653507 0)
(104.0994912 -1.307939956 0)
(104.0704156 -1.384185591 0)
(103.7906495 -1.315709894 0)
(101.3765571 -1.29273539 0)
(101.4413841 -1.372457257 0)
(99.46184196 -1.262675141 0)
(105.8590926 -1.030207723 0)
(105.5488688 -1.096586716 0)
(105.4897094 -1.150309046 0)
(105.4237616 -1.116449769 0)
(104.9781735 -1.16994561 0)
(104.9309519 -1.228070368 0)
(104.8027383 -1.185641113 0)
(104.13288 -1.222588449 0)
(104.1083747 -1.284901101 0)
(103.8061394 -1.228824648 0)
(101.2957235 -1.203674949 0)
(101.3557496 -1.26867877 0)
(99.44690564 -1.17681436 0)
(105.9460622 -0.9755994851 0)
(105.6230292 -1.037792256 0)
(105.5678667 -1.080537701 0)
(105.4940917 -1.056421503 0)
(105.0371072 -1.106526594 0)
(104.9933014 -1.1526148 0)
(104.8569995 -1.121126619 0)
(104.1612076 -1.154623607 0)
(104.1403939 -1.204015522 0)
(103.816667 -1.159624829 0)
(101.2213286 -1.132847952 0)
(101.2765315 -1.184314307 0)
(99.44597936 -1.109504695 0)
(106.02803 -0.9339373105 0)
(105.6930552 -0.992999357 0)
(105.6408745 -1.025308607 0)
(105.5605252 -1.01072294 0)
(105.0924529 -1.058329817 0)
(105.0512393 -1.093084356 0)
(104.9076273 -1.072108004 0)
(104.185497 -1.102936287 0)
(104.1676208 -1.140214195 0)
(103.8232466 -1.10696895 0)
(101.1532854 -1.078988216 0)
(101.2037387 -1.117833629 0)
(99.45711893 -1.059323372 0)
(106.1063095 -0.9046812951 0)
(105.7601214 -0.9615536612 0)
(105.7100568 -0.983910422 0)
(105.6241804 -0.9786534509 0)
(105.1452019 -1.024540081 0)
(105.105847 -1.048561195 0)
(104.9555869 -1.037742946 0)
(104.2066713 -1.066627061 0)
(104.191047 -1.092447513 0)
(103.8267805 -1.069933178 0)
(101.0913469 -1.041130295 0)
(101.1372535 -1.068056984 0)
(99.47870255 -1.025198708 0)
(106.182076 -0.8874399818 0)
(105.8252239 -0.9429002224 0)
(105.7765456 -0.9557105499 0)
(105.6860047 -0.959603534 0)
(105.1962429 -1.0044136 0)
(105.1580882 -1.018256804 0)
(105.0017758 -1.017263601 0)
(104.2256805 -1.044962366 0)
(104.2115828 -1.059863503 0)
(103.8282045 -1.047830496 0)
(101.0353894 -1.018675324 0)
(101.0768232 -1.034081677 0)
(99.50940841 -1.006547508 0)
(106.2651172 -0.8814910909 0)
(105.8965867 -0.9363135345 0)
(105.841231 -0.9401775031 0)
(105.7537703 -0.9527441421 0)
(105.2521152 -0.9966916925 0)
(105.2087631 -1.001415739 0)
(105.0522746 -1.009271298 0)
(104.2459953 -1.036414614 0)
(104.2301905 -1.041753013 0)
(103.8291256 -1.03932909 0)
(100.9808643 -1.01294537 0)
(101.0225031 -1.015382799 0)
(99.55307142 -1.005309904 0)
(92.61635813 -8.278489871 0)
(92.34455378 -8.015038618 2.64365833e-19)
(92.76374331 -7.734989202 -2.418483618e-19)
(94.38742231 -10.08750706 4.346069036e-19)
(93.96743719 -9.652827776 7.559694968e-18)
(94.54495696 -9.194870229 2.888220053e-18)
(91.22252752 -19.32105839 1.780938458e-19)
(94.10765297 -6.994716779 -2.66343549e-19)
(93.58912492 -6.61408161 5.654728593e-19)
(94.3350935 -6.236853231 5.998391302e-19)
(92.62807039 -7.308462597 0)
(93.33586783 -6.77609494 -5.694820903e-19)
(93.85748831 -7.189232303 2.750621639e-19)
(95.8153976 -7.919183082 0)
(95.13189195 -7.585180636 6.34701521e-21)
(95.81988123 -7.084188989 -1.253841435e-19)
(94.26833866 -8.604145821 -2.517014403e-19)
(94.90564097 -7.827196962 -2.395372895e-19)
(95.62265408 -8.204908016 0)
(94.0477118 -7.323810412 0)
(94.67294238 -7.709891823 -2.51961517e-19)
(94.02113819 -8.441819346 6.591824208e-20)
(93.42570972 -9.047212955 2.440794668e-19)
(93.10018039 -8.744629428 0)
(93.56107524 -8.413849994 0)
(90.9315725 -9.313165783 0)
(91.75385804 -9.344138043 4.33376413e-19)
(91.77243317 -9.401704616 -2.577099249e-21)
(91.53640762 -8.646369734 0)
(91.56793736 -8.695769643 -4.548006559e-19)
(91.12744079 -8.706469096 9.365084018e-19)
(81.2494304 -7.540226071 0)
(80.9585438 -8.306352949 0)
(96.96459033 -9.821804729 0)
(78.785356 -11.12667322 0)
(84.39481044 -11.00479354 -1.239562304e-19)
(91.72116967 -18.46051404 -1.397323152e-19)
(92.89920104 -16.27509064 -6.931294789e-21)
(91.08296131 -8.554229192 -4.518944169e-19)
(91.49030737 -8.545090672 -4.453450538e-19)
(91.50921661 -8.595940468 0)
(91.52159795 -8.000252892 2.22508622e-19)
(90.89417524 -8.096178622 1.212585089e-18)
(92.67318869 -7.645543162 2.435751967e-19)
(92.25558107 -7.927726584 -2.660455964e-19)
(79.1243445 -9.041515396 0)
(92.41283093 -10.45292499 2.162597877e-19)
(92.46730028 -11.2036991 0)
(91.79659167 -9.467671208 0)
(91.82866537 -9.539423396 9.082018935e-19)
(90.95805258 -9.502827571 -2.158567551e-18)
(94.43276252 -9.048374397 1.901866115e-19)
(93.92215356 -9.487932649 0)
(93.54355461 -9.151553353 2.392320251e-19)