/*--------------------------------*- C++ -*----------------------------------*\
| =========                 |                                                 |
| \\      /  F ield         | OpenFOAM: The Open Source CFD Toolbox           |
|  \\    /   O peration     | Version:  v2012                                 |
|   \\  /    A nd           | Website:  www.openfoam.com                      |
|    \\/     M anipulation  |                                                 |
\*---------------------------------------------------------------------------*/
FoamFile
{
    version     2.0;
    format      ascii;
    class       surfaceScalarField;
    location    "2.87";
    object      phi;
}
// * * * * * * * * * * * * * * * * * * * * * * * * * * * * * * * * * * * * * //

dimensions      [0 3 -1 0 0 0 0];
oriented        oriented;


internalField   nonuniform List<scalar> 
5975
(
-0.05827464064
0.006296020706
0.05777710514
-0.01222972515
0.006431239937
0.01501566139
-0.1244922475
0.2452737394
-0.02592538614
0.01457018165
-0.1244419488
-0.2756361694
0.02515858041
0.2774585174
-0.02698472913
-0.2953454416
0.02458128236
0.2941721442
-0.02341500555
-0.2835645357
0.01922511101
0.2818564084
-0.01752328514
0.01172279743
-0.2456790606
0.2435639957
-0.009609177977
-0.4648678116
0.01463263752
0.4628478893
-0.01261271524
-0.4616706853
0.01104097812
0.4602024689
-0.009572761628
-0.01314462369
0.9101981029
0.008782681015
0.00832306736
-0.008492570073
0.9040259008
-0.004185636353
0.9021849499
0.9012148709
-0.112065405
0.008219276691
0.1119190387
-0.01604366755
0.007970757097
0.02495547254
-0.238453226
0.2381462072
-0.02464870284
-0.2775565373
0.02501478639
0.2779784654
-0.02544444947
-0.2902630493
0.02459642935
0.2950427099
-0.02938636561
-0.2761100528
0.02585270176
0.2702741997
-0.02002316097
0.01124676325
-0.2344073014
0.2325835841
-0.009423222661
-0.4610737774
0.01551810206
0.4594797618
-0.01392408644
-0.4587191765
0.01235840162
0.4569919094
-0.01063113451
-0.01264502299
0.9053990722
0.008660180487
0.008783873304
-0.009214060803
0.9005949386
-0.00451779696
0.8974886861
0.8966970739
-0.2261314113
0.01632800654
0.2266946416
-0.01689123684
-0.2459434555
0.02578408793
0.2499550669
-0.02979951214
-0.2822389098
0.03624565585
0.2826495029
-0.03666769528
-0.2913593814
0.03376268658
0.2892568903
-0.03167382008
-0.2605694408
0.02320511203
0.2607013095
-0.02334342928
0.01159790515
-0.2309695093
0.2286502771
-0.009278672944
-0.4580588629
0.01727904084
0.4549633263
-0.01418350416
-0.4552377994
0.01272140905
0.4532280443
-0.01071165395
-0.01306693315
0.9006744178
0.008976723388
0.008814864134
-0.009291582155
0.8968195876
-0.004733685075
0.892930789
0.8919633889
-0.2361243797
0.04017777778
0.2387535834
-0.04280936501
-0.2600400208
0.05102768898
0.262090357
-0.05308526748
-0.2819446301
0.05426444824
0.2805220754
-0.05285366938
-0.2796788091
0.0436120989
0.2752281732
-0.0391726485
-0.2473583099
0.02355075147
0.2418329594
-0.01802932792
0.01112833227
-0.2267430192
0.2261463169
-0.01053162995
-0.4542397057
0.01769945634
0.4515622105
-0.01502196108
-0.4503908067
0.01163664846
0.4488128593
-0.01005870106
-0.01229859962
0.894468296
0.009523219395
0.008981502025
-0.006913029865
0.8914340179
-0.004797938079
0.8908156972
0.8871654508
-0.2425853203
0.07511636527
0.2426600703
-0.07519505922
-0.2626267516
0.07351415411
0.2609929447
-0.07188826321
-0.2714533514
0.06261859208
0.2668144958
-0.0579893225
-0.2580314577
0.04022487847
0.2511733666
-0.03337324176
-0.2256333011
0.01281094724
0.2247641268
-0.01194179378
0.01039191932
-0.2245264653
0.224026668
-0.009892122004
-0.4478841566
0.01684751063
0.4461528097
-0.0151161637
-0.4472423178
0.01346354019
0.4456432423
-0.01186446469
-0.01151791034
0.8873633498
0.01020799018
0.008414866422
-0.006538933895
0.8864550415
-0.004442393267
0.8887191566
0.8827230575
-0.2400968895
0.07810325154
0.2385300737
-0.07654003563
-0.251475242
0.06774756105
0.2471422542
-0.06342012612
-0.2490382154
0.04643182895
0.2422413941
-0.03963969741
-0.2286025025
0.01720574302
0.2238596232
-0.01246336952
-0.2233485861
0.01119050025
0.2229330805
-0.01077499463
0.009534482053
-0.222684421
0.2222728493
-0.009122910288
-0.4445328391
0.01571358779
0.4430233397
-0.01420408839
-0.4441542672
0.01273381978
0.44270777
-0.01128732253
-0.01437193186
0.8821791854
0.009671054481
0.009885041758
-0.009444279772
0.8815273894
-0.001869795506
0.8811446724
0.880853262
-0.2327256122
0.03976013491
0.2306860608
-0.03772191325
-0.2325353935
0.02706112318
0.2276506768
-0.02217747567
-0.2242167989
0.01223010636
0.2239843361
-0.01199764363
-0.2228279376
0.0111975108
0.2225335703
-0.01090314356
-0.2218290322
0.009963856211
0.2215030068
-0.009637830809
0.008641248637
-0.2211703311
0.2208309615
-0.008301879049
-0.4416195138
0.01443805477
0.4403180273
-0.01313656827
-0.4413738263
0.01184601566
0.4400847079
-0.01055689729
-0.01354609455
0.877411828
0.009023940732
0.009289511144
-0.008940938097
0.8769222329
-0.004439627047
0.8766433613
0.876413635
-0.2282005017
0.01132264912
0.22818369
-0.01130583734
-0.2255568451
0.01111352088
0.2254509533
-0.01100762908
-0.2233804764
0.01058129467
0.2232055081
-0.01040632634
-0.2217598387
0.009798094473
0.2215332301
-0.009571485894
-0.2206309673
0.008836595885
0.2203714426
-0.008577071209
0.007768501196
-0.2199226965
0.219640371
-0.007486175698
-0.4391118784
0.01313089912
0.4379947597
-0.01201378041
-0.4389026733
0.01088858955
0.4377628342
-0.009748750407
-0.01260228208
0.8730770332
0.008324848032
0.008612228869
-0.00835246761
0.8726724185
-0.004157311924
0.8724482056
0.8722563231
-0.2281304471
0.00979669179
0.2281114328
-0.009777677512
-0.2251699821
0.009618740888
0.2250864078
-0.009535166576
-0.2227434679
0.009202633844
0.2226072929
-0.009066458769
-0.2209302811
0.008590626615
0.2207515287
-0.008411874189
-0.2196719678
0.007825382169
0.2194621526
-0.007615567004
0.006951942245
-0.2188880556
0.2186513294
-0.006715215979
-0.4369593073
0.01186426369
0.4359993622
-0.01090431859
-0.4367213936
0.009924977132
0.4357169397
-0.008920523209
-0.01160996581
0.8691655331
0.007616024692
0.007905441198
-0.007722746177
0.8687851988
-0.00385193938
0.8685773989
0.8684043837
-0.2280512928
0.0085355407
0.2280303729
-0.008514620732
-0.2248595726
0.008377053013
0.224790786
-0.008308266444
-0.2222421168
0.008039606419
0.2221329025
-0.007930392181
-0.2202706232
0.007548511977
0.2201265384
-0.007404427223
-0.218892462
0.006927889204
0.2187203715
-0.006755798748
0.006205487412
-0.2180235805
0.2178248292
-0.006006736109
-0.4351077768
0.01067404459
0.4342792881
-0.009845555874
-0.4348012148
0.00899234212
0.4339170168
-0.008108144114
-0.01061748283
0.8656521967
0.006926260339
0.007204558903
-0.007084625683
0.8652523417
-0.003540195904
0.8650329691
0.8648641878
-0.2279657521
0.00748111602
0.2279437616
-0.007459125561
-0.2246011668
0.007337039399
0.224542884
-0.007278756597
-0.2218361372
0.007055584595
0.2217462835
-0.006965730956
-0.2197350064
0.006652279179
0.2196165717
-0.006533844464
-0.21824976
0.00614010743
0.2181066025
-0.005996949929
0.005535275866
-0.2172967315
0.2171283214
-0.005366865694
-0.4335084512
0.009580524355
0.4327910191
-0.008863092294
-0.4331114591
0.008117814582
0.4323323216
-0.007338677069
-0.009661199615
0.8625040942
0.006274119413
0.006535182664
-0.006463623721
0.8620547658
-0.003235137192
0.8618044826
0.8616290506
-0.2278769959
0.006590783224
0.2278545889
-0.00656837618
-0.2243804906
0.006458393169
0.224330083
-0.006407985498
-0.221499545
0.006218596411
0.2214240765
-0.006143127924
-0.2192919805
0.005880912759
0.2191929544
-0.005781886632
-0.2177125791
0.005451642668
0.2175919252
-0.005330988752
0.00493932538
-0.2166795434
0.2165355066
-0.004795288509
-0.4321220749
0.008590226146
0.4314979688
-0.007966120057
-0.4316225499
0.007312889628
0.4309346714
-0.00662501113
-0.008762530197
0.859685693
0.005670638774
0.005910292682
-0.00587545432
0.8591676899
-0.002944923657
0.8588739519
0.858684127
-0.2277873022
0.005831684931
0.2277649148
-0.005809297489
-0.2241885641
0.005709229538
0.224144314
-0.005664979439
-0.2212151302
0.005501615425
0.2211506981
-0.005437183362
-0.2189196283
0.005214404115
0.2188356367
-0.005130412504
-0.2172580033
0.004849846151
0.2171551567
-0.004746999526
0.004411426811
-0.2161506069
0.2160263879
-0.004287207827
-0.4309145153
0.007704082308
0.4303686932
-0.007158260236
-0.4303077037
0.006583377969
0.4296986927
-0.00597436699
-0.007935092831
0.8571609882
0.005122107205
0.005337690405
-0.005330519886
0.856563117
-0.002675072506
0.8562185045
0.8560090544
-0.2276981195
0.005182369651
0.2276760183
-0.005160268403
-0.2240193062
0.005068520772
0.2239800048
-0.005029219314
-0.2209710335
0.004886436867
0.2209152742
-0.004830677542
-0.2186023001
0.004638901785
0.218530171
-0.004566772669
-0.2168689946
0.004325689275
0.2167804252
-0.004237119914
0.003946976352
-0.2156933715
0.2155854156
-0.003839020424
-0.4298569233
0.006918709973
0.4293768414
-0.006438628105
-0.4291429703
0.005930375702
0.4286018658
-0.005389271197
-0.0071842086
0.8548957104
0.004628768288
0.004820718032
-0.004833532675
0.854212441
-0.00242824103
0.8538132129
0.8535808134
-0.2276103065
0.004628709816
0.2275886273
-0.004607030602
-0.2238683819
0.004522313493
0.2238331162
-0.004487047804
-0.2207588184
0.004360802111
0.2207099783
-0.004311961971
-0.2183285999
0.004144891925
0.2182659407
-0.004082232707
-0.2165327292
0.00387283158
0.2164556919
-0.00379579421
0.003542643963
-0.2152949554
0.2152003903
-0.003448078895
-0.4289254216
0.006228722142
0.4285006116
-0.005803912132
-0.4281074177
0.005352254176
0.4276245686
-0.00486940511
-0.006513516132
0.8528572154
0.004192104745
0.004359906372
-0.004387878879
0.8520868038
-0.002206385666
0.8516317197
0.8513744278
-0.2275243061
0.004157249543
0.2275031167
-0.004136060157
-0.2237325056
0.004057331493
0.223700572
-0.004025397939
-0.2205722018
0.003912619748
0.2205289551
-0.003869373034
-0.2180899164
0.003722229107
0.218034899
-0.003667211702
-0.216239243
0.003483466791
0.2161715898
-0.003415813544
0.00319296437
-0.2149450127
0.2148615204
-0.003109471995
-0.428099897
0.005627700258
0.4277215664
-0.005249369657
-0.4271824951
0.004845688912
0.4267494226
-0.004412616414
-0.005921869314
0.8510153436
0.003809776347
0.003953964812
-0.003993535381
0.8501584699
-0.002009706221
0.8496478905
0.8493647215
-0.2274403434
0.003755684102
0.2274196794
-0.003735020131
-0.2236091168
0.003661439328
0.2235799655
-0.00363228811
-0.2204063837
0.003530610896
0.2203677126
-0.00349193977
-0.2178796113
0.003361044532
0.2178308224
-0.003312255627
-0.2159806811
0.003149467372
0.2159207188
-0.003089505076
0.002891608189
-0.2146351483
0.2145608456
-0.002817305475
-0.4273634713
0.005109113745
0.4270241787
-0.004769821152
-0.4263519687
0.004406658627
0.4259611843
-0.004015874203
-0.005406909693
0.8493423138
0.003479306647
0.003600632763
-0.003649478996
0.8484010391
-0.00183785738
0.8478362689
0.8475268642
-0.2273584791
0.003416874952
0.2273383308
-0.003396726676
-0.2234961359
0.003327528481
0.2234693029
-0.003300695507
-0.22025757
0.003208169389
0.2202226449
-0.003173244344
-0.2176924191
0.003055608493
0.2176487087
-0.003011898123
-0.2157506994
0.002866225067
0.2156970347
-0.002812560301
0.002635151399
-0.2143582945
0.2142915777
-0.002568434611
-0.4267018338
0.00466745008
0.4263950751
-0.004360691351
-0.4256015009
0.004031437961
0.425246313
-0.003676250122
-0.004965615382
0.8478122517
0.003197956733
0.003297720794
-0.003354104619
0.8467895284
-0.001690155186
0.8461723194
0.845836709
-0.2272786224
0.003133499158
0.2272589572
-0.003113833939
-0.2233918059
0.003048337404
0.2233668984
-0.003023429935
-0.2201226608
0.002938435922
0.2200907997
-0.002906574795
-0.2175240525
0.002799748464
0.2174844794
-0.002760175382
-0.2155441186
0.002628480809
0.2154956224
-0.00257998462
0.002419580513
-0.2141086562
0.2140486082
-0.002359532459
-0.4261021322
0.004296035822
0.4258218517
-0.004015755363
-0.4249182443
0.003714560145
0.4245926445
-0.003388960393
-0.004593531909
0.8464021523
0.002962708781
0.003040922504
-0.0031047577
0.8453007542
-0.001565402941
0.8446329647
0.844271306
-0.2272006132
0.002901779538
0.2271813769
-0.002882543245
-0.2232946208
0.002820095721
0.2232712812
-0.002796756091
-0.2199990701
0.002717850862
0.219969672
-0.002688452752
-0.2173709472
0.002590285857
0.217334684
-0.002554022677
-0.215356646
0.002433525219
0.2153123034
-0.002389182663
0.002242570683
-0.2138819161
0.2138274981
-0.002188152725
-0.4255527507
0.003990594132
0.4252939838
-0.003731827226
-0.4242906736
0.003453508234
0.4239894118
-0.003152246491
-0.004287605195
0.8450881311
0.0027717445
0.00282988184
-0.002899706473
0.8439128554
-0.001462694198
0.8431959524
0.8428086118
-0.2271242295
0.002717348839
0.2271053536
-0.002698472953
-0.2232032202
0.002638455968
0.2231811236
-0.00261635936
-0.2198845271
0.002542254404
0.2198570607
-0.002514788052
-0.2172299701
0.002423384811
0.2171962852
-0.002389699917
-0.2151843556
0.00227790336
0.2151432261
-0.002236773929
0.002100587618
-0.2136734067
0.2136225707
-0.002049751663
-0.4250447554
0.003745171971
0.4248037922
-0.003504208742
-0.4237083629
0.003244026953
0.4234254201
-0.002961084226
-0.00404514637
0.8438586819
0.002619601238
0.002654994354
-0.002737461677
0.8426051707
-0.001381739758
0.8418402305
0.8414268721
-0.2270491882
0.002575677451
0.2270305968
-0.002557086067
-0.223116358
0.002498921091
0.2230952096
-0.002477772694
-0.2197770108
0.002407317745
0.219751007
-0.00238131401
-0.2170983518
0.002295015286
0.2170666105
-0.002263274026
-0.2150237493
0.002158051102
0.2149850597
-0.002119361583
0.001991216557
-0.2134784032
0.2134305442
-0.001943357617
-0.4245698325
0.003558503573
0.4243421585
-0.003330829545
-0.4231612022
0.003085123178
0.42289495
-0.002818871023
-0.003861901367
0.8426793613
0.002509996034
0.002531225816
-0.002613977038
0.8413572464
-0.001319343509
0.8405455969
0.8401075285
-0.226975149
0.002474416164
0.2269567571
-0.002456024263
-0.2230328455
0.002399133674
0.2230123586
-0.002378646818
-0.2196746656
0.002310750171
0.2196496867
-0.002285771294
-0.2169736067
0.002203049169
0.2169432298
-0.002172672277
-0.2148718007
0.002072086569
0.214834842
-0.002035127799
0.001912697592
-0.213293793
0.2132480117
-0.001866916315
-0.4241194913
0.003426919212
0.4239012188
-0.003208646761
-0.4226430094
0.002972731135
0.4223871044
-0.002716826166
-0.003746637128
0.8415455458
0.002425127393
0.002455325307
-0.002537225682
0.8401478349
-0.001284102848
0.8392924741
0.8388234257
-0.226901752
0.00241304378
0.2268834585
-0.00239475024
-0.2229515218
0.002338497371
0.2229313913
-0.002318366891
-0.2195757584
0.002251913817
0.2195513721
-0.002227527456
-0.2168534634
0.002146902053
0.2168238943
-0.002117332916
-0.2147257372
0.002019523955
0.2146898328
-0.001983619583
0.001864791252
-0.2131162145
0.2130719749
-0.001820551615
-0.4236863423
0.003349473847
0.4234738701
-0.003137001683
-0.4221451794
0.002908597965
0.4219030198
-0.002666438367
-0.003652530572
0.002339405461
0.002411482622
-0.002469942489
-0.001242501937
-0.006522725894
0.02898803215
-0.02913505562
0.006669749361
0.006546040903
-0.01258321733
-0.0587601901
0.1239292304
-0.01554562793
-0.1250481141
0.01666451157
-0.008757930909
0.0552747892
-0.05525933651
0.008742478222
0.006517612238
0.02876644062
-0.01744876242
0.0007712360343
-0.05205883607
-0.05208697342
0.2327055426
-0.02078258362
0.01282650234
0.01244521593
-0.1187746292
-0.1184200481
0.01604861626
0.1228962756
-0.009156818272
0.1120339778
-0.1116703325
0.008793172908
0.008294144355
0.05519992154
0.122262076
-0.02020927426
-0.1235181393
0.01063391457
0.01083142299
-0.05406671671
-0.009209627528
0.009561949367
0.05371439488
-0.009513105071
-0.0545226218
0.009969010157
0.05522109246
-0.009218356804
-0.05551584072
0.1189979565
-0.0167079746
-0.1193872739
0.01709729204
-0.01944482101
0.121053125
0.01022600752
0.01042776449
-0.03039055696
-0.007106054211
0.007432572156
0.03006403901
0.05567530086
-0.01147721822
-0.05611507731
0.005932179266
0.00598481541
-0.007162503365
-0.03064683221
0.007418778623
0.03036969634
-0.006960255453
-0.03057194425
0.06140082506
-0.01216289938
-0.06181222094
0.01257429527
-0.01114621028
0.01148533817
0.05533617297
-0.01943631104
0.009654419804
-0.1125109453
-0.1129953931
-0.02251115009
0.236345608
-0.2327982145
0.01896302561
0.2344434038
0.01323346387
0.009984147466
0.05975101775
-0.01134354416
-0.06015240135
0.01174492775
-0.01201503769
0.01244137301
0.06097448973
0.03015150778
-0.006887865652
0.1159159839
-0.01097092477
-0.1159665198
0.01102146065
-0.01583470245
0.01574931297
0.119083346
0.05480140994
-0.008789945012
-0.01237872227
0.1108059916
-0.1105050546
0.01207778531
0.01697442243
-0.01647181638
-0.0005026060526
0.03029846113
-0.007185850487
-0.03045301053
0.007340399889
0.04878417826
-0.008285081089
-0.04894822753
0.05202364515
-0.007705612999
-0.05278445334
0.008466421188
0.006633819997
-0.02526302649
0.02639298821
-0.00776378171
0.006146948296
0.02746373395
-0.006776645701
-0.02683403654
0.02949943317
-0.006846848849
-0.02955076657
0.006898182254
0.02511768279
-0.02356134563
0.004590611143
-0.01704037761
0.02407716402
-0.0004029664094
0.02700131931
-0.007314868773
-0.02694403857
0.007257588039
-0.005479528257
0.003733801762
0.02686340928
0.02748877012
-0.005923115839
-0.02111400039
0.02689745883
-0.006690834413
-0.02689032916
0.006683704745
-0.00716215593
0.007019401389
0.02714407385
0.02716536949
-0.006054357741
-0.02717909043
0.006068078674
-0.006493994979
0.006482910784
0.02690854303
0.02077128495
-0.006133066979
-0.01658121353
-0.0004591640781
-0.007056228351
0.006971374816
0.03038331467
0.02229801912
-0.005016774634
-0.0003068220499
-0.00830074183
-0.03354349819
-0.01460551227
-0.1254323632
-0.02354644921
0.2668903044
-0.2670442439
0.02369833509
-0.006617601922
0.006787019151
0.02933001594
0.02839623326
-0.006412027561
0.02825824369
-0.007095791788
-0.02847732067
-0.005977933171
0.004248862617
0.02898417891
-0.006811211377
0.03023979736
0.03077172036
-0.007067162093
-0.03089040875
0.03089917979
-0.006690663544
-0.03099285265
0.006784336405
-0.01578727099
0.02227377944
-0.006088507084
-0.00039800136
-0.01517653797
-0.0006107330258
-0.01436676278
0.0149950348
-0.02915050202
0.02209670652
-0.007312967269
-0.006468707733
-0.0004080148509
-0.005801803614
0.02661056583
-0.0266855845
0.005876822277
-0.005932550434
0.006148413336
0.02694950659
0.02740916584
-0.0002285236596
-0.03422492822
0.02550543737
-0.00775232553
-0.006558603895
-0.0002571584829
0.01519545568
-0.03137203652
-0.007384764785
0.01571674106
-0.0005212853824
0.02064671118
-0.000339358974
-0.006915019952
-0.0003798525524
0.00765827878
-0.02730592397
-0.007296393379
0.02359187299
-0.03111013217
0.02476095394
0.02471937525
-0.0003388623044
-0.005981450305
-0.0004093066207
-0.006423964997
-0.02326800453
0.02376196491
-0.006417076217
0.005658260623
-0.006829558633
-0.005133798086
0.02225889189
-0.02397693355
0.02464780865
-0.005804673184
-0.006348035619
-0.004043185307
0.02671297623
-0.0003717718068
-0.02697607564
0.02876432132
-0.005831430987
-0.006487412902
-0.02912103385
-0.00776350293
0.02858379496
0.006471014305
-0.006827726842
-0.0003595076558
-0.02295944867
-0.276226533
-0.02070348615
0.293702629
-0.2944240981
0.02141845371
-0.02322103405
-0.2928340665
-0.02171154549
0.2897146429
-0.2907976479
0.02278937402
-0.02033032751
-0.284950221
0.2568741207
-0.01343190173
-0.2596977119
0.01625369294
0.05666360716
-0.01115066538
-0.05699016
0.05835593931
-0.01017859686
-0.05874861088
0.01057126844
-0.01108450044
0.01145480839
0.0593807098
-0.01954442737
-0.239691411
-0.0225033177
0.2684338657
-0.2703105424
0.0243743786
0.02345157488
0.2685945405
-0.02455358492
-0.275513275
-0.03018384573
0.2938038841
-0.2930754387
0.02944638617
0.02543926737
0.2928381615
-0.02561098279
-0.2948449228
-0.02039197304
0.283134776
-0.2850785797
0.02232696132
0.0210442379
0.2878885801
-0.01836796819
-0.2781417344
0.2450884563
-0.01276989858
-0.2487180933
0.01639778269
0.01389435893
0.2546996453
0.1120679131
-0.01248719009
-0.1119594453
0.1145989551
-0.01235925261
-0.1147654324
0.01252572991
-0.01488528936
0.01532810373
0.1154731695
-0.02628737458
-0.2421699523
-0.03213288037
0.2747380386
-0.2736202243
0.03100573548
0.02410394462
0.2693387579
-0.03255542816
-0.281827511
-0.03035042059
0.2926333537
-0.2938913848
0.03159443353
0.02539665412
0.2929923742
-0.03350525221
-0.2882171135
-0.02975950017
0.2737118475
-0.2761872304
0.03222699021
0.0276683905
0.2813114865
-0.02041436396
-0.269920495
0.2317858623
-0.009894222652
-0.2347273748
0.0128351992
0.01421664542
0.2421164886
-0.02970452336
0.2311845981
-0.2283325402
0.223965343
-0.1108771018
-0.03305999082
-0.2327706001
-0.04380428863
0.2533783494
-0.2499513771
0.04037219272
0.02088463696
0.2412431643
-0.04659839153
-0.2572525218
-0.04995135521
0.2780215768
-0.2778278348
0.04974675764
0.03499956593
0.2759743174
-0.04922847943
-0.2826793869
-0.04199766527
0.2832417422
-0.2864244186
0.04516768138
0.03534670688
0.2910354815
-0.03821340793
-0.2834750705
-0.02439990028
0.2576826209
-0.2625778705
0.02928783342
0.02631393053
0.2705932776
-0.01939614735
-0.2523670757
0.2269919199
-0.01127536644
-0.227632931
0.01191637754
0.01418269386
0.229201057
-0.06847670509
0.237777161
-0.2369664762
0.2336196165
-0.06912202578
-0.241943724
-0.06979649877
0.2581326295
-0.2582896354
0.06994648542
0.04851286316
0.2558873014
-0.06907211328
-0.2633591774
-0.06241185919
0.2709921924
-0.2740286084
0.06543808815
0.05476135132
0.2775137175
-0.05857419092
-0.2753014318
-0.04280334058
0.2637483986
-0.2696331616
0.04867907204
0.04744744263
0.2793944092
-0.03647075895
-0.2643718783
-0.01620257268
0.2329825743
-0.2397981421
0.02301576202
0.02900577613
0.2522213517
-0.01222973747
-0.2296064551
0.2247034604
-0.01059318661
-0.2252349522
0.01112467847
0.01174167387
0.2263785783
-0.08133610941
0.2364028572
-0.2372476101
0.2380356536
-0.08008385564
-0.2413530243
-0.0726295258
0.2496111829
-0.2527538497
0.07576622969
0.0745308747
0.257108881
-0.06879871699
-0.2553124565
-0.05316221565
0.2512877974
-0.2571687765
0.05903664876
0.06647025736
0.267130982
-0.04671406745
-0.2554924752
-0.02480746483
0.2353128019
-0.2429224043
0.0324138364
0.04669585693
0.2572696756
-0.01708671301
-0.2363250422
-0.01151206125
0.2235475428
-0.2239893393
0.01195385781
0.01912447369
0.2266680578
-0.01106966302
-0.2237909844
0.2228274389
-0.009758017085
-0.2232603881
0.0101909663
0.01089791661
0.2241974631
-0.05272750474
0.2317232724
-0.2329815932
0.2353707917
-0.05069061332
-0.2347645373
-0.03996688903
0.2334598761
-0.2377766899
0.04428129409
0.07137363326
0.2459798468
-0.03498582814
-0.2375187336
-0.01694649295
0.2255018296
-0.2318958584
0.02333957807
0.05269989588
0.2450144834
-0.01287669126
-0.2282871582
-0.01158023531
0.2231365362
-0.2234393786
0.01188307774
0.02489869183
0.2276182478
-0.01126465614
-0.2231435168
-0.01026269586
0.2220419779
-0.2223831691
0.01060388703
0.01160401292
0.2231340301
-0.009916716359
-0.2221750117
0.2213048724
-0.008865285189
-0.2216561673
0.009216579985
0.009945642171
0.2224162788
-0.01175295229
0.2289316095
-0.2289215458
0.2304842889
-0.01173638509
-0.2282170689
-0.01153306482
0.2261789339
-0.2262706763
0.01162480721
0.03132967677
0.2291900114
-0.01141973078
-0.2256701791
-0.01096328005
0.2238751385
-0.2240456254
0.01113376693
0.01330647752
0.2244253107
-0.01077605871
-0.2235676978
-0.01012663023
0.2221165073
-0.2223462883
0.01035641119
0.01147938033
0.2228546666
-0.009885339327
-0.2220011296
-0.009105627318
0.220867599
-0.2211355106
0.00937353895
0.01028451618
0.2217213179
-0.008831339476
-0.2209052551
0.2200642628
-0.007980986683
-0.220351228
0.008267951839
0.008975505936
0.2209706151
-0.01014768389
0.2289462565
-0.2289467231
0.2289392898
-0.01012927116
-0.2281488598
-0.009963573629
0.2258631701
-0.2259355605
0.01003596404
0.01119962465
0.2260928301
-0.009875340557
-0.2252582152
-0.00952286454
0.2232956132
-0.2234270679
0.009654319269
0.01074052793
0.2237159052
-0.009378352377
-0.2228879801
-0.008873804466
0.2213291978
-0.2215084397
0.009053046413
0.01001356256
0.2219010392
-0.008684581514
-0.2211195041
-0.008065313549
0.2199352005
-0.2201493923
0.008279505296
0.009089573499
0.2206146214
-0.007844415664
-0.2198928657
0.219044719
-0.00714872004
-0.2192813381
0.007385339213
0.008042384267
0.2197903798
-0.0088311348
0.2289235487
-0.2289319061
0.2289434643
-0.008810611011
-0.2280718166
-0.008668379003
0.2256056862
-0.2256658411
0.008728533891
0.009687613324
0.2257942976
-0.008596374069
-0.2249315775
-0.008313764175
0.2228391378
-0.222944056
0.00841868236
0.009326534811
0.2231717122
-0.008198633369
-0.2223572476
-0.007795994222
0.2207056781
-0.2208489981
0.007939314206
0.008759780936
0.2211600435
-0.00764419414
-0.2204224233
-0.007142991257
0.219181985
-0.2193561661
0.007317172412
0.008028511603
0.2197320711
-0.00696237212
-0.2190730811
0.2181989629
-0.00638672769
-0.2183958889
0.006583653722
0.007178493957
0.2188181672
-0.00772989559
0.2288772162
-0.2288904334
0.2289137407
-0.007708096062
-0.2279875516
-0.007582488413
0.2253874115
-0.2254389752
0.007634052017
0.008434783018
0.2255479562
-0.007521857897
-0.2246617973
-0.007288551471
0.2224684384
-0.222554546
0.007374659149
0.008139206518
0.2227395377
-0.007194380954
-0.2219303077
-0.006865612445
0.2202005569
-0.2203176256
0.006982681179
0.00768447239
0.2205697177
-0.006741407848
-0.219859211
-0.006328933805
0.2185637805
-0.2187076039
0.006472757162
0.007093656023
0.2190162182
-0.006179191824
-0.218399502
0.217491226
-0.005697693991
-0.217656661
0.005863128996
0.006394378191
0.2180100721
-0.00679874841
0.2288165464
-0.2288326974
0.2288631229
-0.006776401174
-0.2278993431
-0.006663651318
0.2251978438
-0.2252429397
0.006708747212
0.00738681499
0.225337636
-0.006611472264
-0.2244326697
-0.006414520188
0.222159908
-0.2222321508
0.006486762919
0.007137825247
0.2223861977
-0.006335833895
-0.2215782313
-0.006062135096
0.219783156
-0.2198805516
0.006159530707
0.006763884102
0.220088952
-0.005958745404
-0.2193953702
-0.005614164883
0.2180488174
-0.2181692427
0.005734590159
0.006277488413
0.2184263996
-0.005488409043
-0.2178383349
0.2168928055
-0.005081234018
-0.2170331906
0.005221619062
0.005694419792
0.2173320821
-0.006008904461
0.2287472669
-0.2287651692
0.2287998635
-0.005986487013
-0.2278097197
-0.005884133281
0.2250304843
-0.2250705041
0.005924153079
0.006502120988
0.225154116
-0.005838484342
-0.2242342131
-0.005669239571
0.2218980975
-0.2219598032
0.0057309453
0.006287958613
0.2220905458
-0.00560231811
-0.2212820516
-0.005370636974
0.2194323682
-0.2195147084
0.005452977183
0.005974196717
0.219689872
-0.005283245292
-0.21900702
-0.004991408976
0.2176141175
-0.217716263
0.005093554476
0.005567108878
0.2179333512
-0.004884510839
-0.2173649014
0.2163817775
-0.004536522427
-0.2165020937
0.004656838626
0.005074797494
0.2167573334
-0.005336175364
0.2286729406
-0.2286918567
0.2287290516
-0.005313981746
-0.2277203132
-0.005220267944
0.2248809107
-0.2249168289
0.005256186147
0.005748151991
0.2249915619
-0.005179817124
-0.224059757
-0.005032286962
0.2216724314
-0.2217259125
0.005085768002
0.005561089804
0.2218386231
-0.004974533252
-0.2210287872
-0.004775631094
0.219133271
-0.2192038485
0.004846208542
0.005293550859
0.2193532214
-0.004700772979
-0.2186771583
-0.00445058587
0.2172427763
-0.2173304248
0.004538234306
0.004948074709
0.2175158889
-0.004358717664
-0.2169608628
0.2159413066
-0.004058396174
-0.2160453769
0.004162466449
0.004527818621
0.2162653857
-0.004760156526
0.2285958047
-0.2286152674
0.2286538569
-0.004738357963
-0.2276321051
-0.004651967338
0.2247459275
-0.2247784548
0.004684494651
0.005103522931
0.2248459086
-0.004615756256
-0.2239045929
-0.004485662574
0.2214754114
-0.2215223184
0.004532569529
0.004938125449
0.2216207428
-0.004435218001
-0.220809263
-0.004262425253
0.2188750751
-0.2189362783
0.004323628524
0.004706920971
0.2190652518
-0.00419757203
-0.2183934531
-0.003980819558
0.2169221838
-0.2169981567
0.004056792456
0.004410162095
0.2171583035
-0.003901102911
-0.2166124459
0.2155583996
-0.003639649418
-0.2156491656
0.003730415398
0.004047833881
0.2158404491
-0.004268378321
0.2285172784
-0.2285369835
0.2285762617
-0.004247060793
-0.2275456237
-0.004166915595
0.2246230657
-0.2246527621
0.004196611946
0.004554078134
0.2247141629
-0.004134203715
-0.2237652175
-0.004018296818
0.2213014563
-0.2213430388
0.004059879225
0.004406262947
0.2214299506
-0.003973754723
-0.2206167439
-0.003822001603
0.218649669
-0.2187033193
0.003875651832
0.004204040717
0.2188159263
-0.003765216728
-0.2181467012
-0.003575532143
0.2166426181
-0.2167091166
0.003642030641
0.003946233439
0.216848782
-0.003505705111
-0.2163090701
0.2152227191
-0.003276101584
-0.2153025444
0.003355926936
0.003630797342
0.2154702462
-0.003849008461
0.2284383285
-0.2284580641
0.2284975485
-0.003828217381
-0.2274611345
-0.003753441646
0.2245103717
-0.2245376815
0.003780751486
0.004086393824
0.2245940034
-0.003723648362
-0.22363891
-0.003619417624
0.2211462991
-0.2211835189
0.003656637398
0.003953031233
0.2212610449
-0.003579696227
-0.2204461051
-0.003445074592
0.2184508228
-0.2184983266
0.003492578439
0.003774225168
0.218597673
-0.003394857417
-0.2179298285
-0.003227260646
0.2163964645
-0.2164552193
0.003286015485
0.003547884156
0.2165782007
-0.003165533798
-0.216042408
0.2149259444
-0.002962152446
-0.2149967381
0.003032946121
0.003270674883
0.2151450085
-0.003495265827
0.2283595712
-0.2283792185
0.228418602
-0.003474996104
-0.2273787488
-0.003404786455
0.2244062317
-0.2244315409
0.003430095587
0.003688221876
0.2244835892
-0.003377419873
-0.2235235025
-0.003282791895
0.2210065584
-0.2210402042
0.003316437672
0.003566878605
0.2211100314
-0.003247007933
-0.2202933539
-0.003126334275
0.218273606
-0.2183161095
0.003168837734
0.00340721186
0.2184046554
-0.003081460407
-0.217737293
-0.002931862871
0.2161776087
-0.2162300463
0.002984300458
0.003206535402
0.2163393965
-0.002876753445
-0.2158058089
0.2146611782
-0.00269484522
-0.2147245707
0.002758237672
0.002960696679
0.2148568559
-0.003199931135
0.2282813312
-0.2283008325
0.2283399528
-0.00318014601
-0.2272984076
-0.003113774318
0.2243092539