/*--------------------------------*- C++ -*----------------------------------*\
| =========                 |                                                 |
| \\      /  F ield         | OpenFOAM: The Open Source CFD Toolbox           |
|  \\    /   O peration     | Version:  v2012                                 |
|   \\  /    A nd           | Website:  www.openfoam.com                      |
|    \\/     M anipulation  |                                                 |
\*---------------------------------------------------------------------------*/
FoamFile
{
    version     2.0;
    format      ascii;
    class       surfaceVectorField;
    location    "0.85";
    object      Uf;
}
// * * * * * * * * * * * * * * * * * * * * * * * * * * * * * * * * * * * * * //

dimensions      [0 1 -1 0 0 0 0];


internalField   nonuniform List<vector> 
5975
(
(104.500612 -28.81069304 -3.821823394e-21)
(103.8239665 -29.07593873 5.543978633e-20)
(103.8012777 -28.44541129 -1.013138478e-19)
(104.4901073 -28.29852637 -1.572186116e-19)
(103.6148811 -28.91633572 2.649199379e-19)
(107.7605708 -19.40950414 -2.056707622e-19)
(108.4543836 -18.88509139 4.107762926e-19)
(106.8633956 -17.94373755 -1.732179016e-19)
(107.7058984 -17.53920133 3.85830771e-21)
(107.190453 -19.09224625 -2.495096531e-20)
(108.4974343 -18.21672489 -3.298364812e-19)
(107.8816107 -12.83783397 3.647492547e-20)
(107.4485581 -13.38169496 -4.175228621e-19)
(106.8051076 -12.74168685 -6.778877479e-19)
(107.1904526 -12.28540519 -1.928527663e-20)
(106.4451746 -9.24499121 8.437065819e-19)
(106.2440205 -9.67538775 3.024403556e-19)
(105.714037 -9.328851867 3.232914444e-19)
(105.9013609 -8.960864512 0)
(104.939544 -6.810872339 -3.359725972e-19)
(104.8559201 -7.155036271 3.537354078e-19)
(104.4218996 -6.939708928 3.076967323e-19)
(104.5065992 -6.641164051 -1.597601996e-19)
(103.466661 -5.292784425 -7.272750566e-20)
(103.4789784 -5.014774659 -4.266748268e-22)
(103.1033909 -5.14092389 -1.53863383e-21)
(103.1274051 -4.897273884 1.44710076e-21)
(102.0411443 -3.525708278 -1.539102191e-20)
(102.0532406 -3.939416976 1.18193586e-20)
(101.5272298 -3.727213981 -3.287833651e-20)
(101.5656516 -3.389723526 -3.338717648e-20)
(101.1605109 -2.588137633 2.559700028e-22)
(101.1549039 -2.909279555 0)
(100.7641372 -2.75300689 -1.112043055e-20)
(100.8144645 -2.485722013 0)
(99.88489181 -1.536249366 5.910163968e-21)
(99.76460143 -1.922179838 -9.594898352e-21)
(100.2255546 -2.205524945 0)
(100.4678857 -2.13253552 0)
(99.55974389 -0.9865210103 7.012334559e-21)
(99.40544379 -1.302401098 1.427691869e-20)
(99.36899452 -0.4822004502 -2.433403724e-21)
(99.17656117 -0.7609840002 1.089605753e-21)
(99.05908571 -0.2506551993 6.293577556e-21)
(97.3077264 -19.22985537 2.082219755e-20)
(96.38508044 -18.77008475 -7.574934655e-20)
(97.26121452 -17.93906723 -2.748044369e-20)
(97.86438821 -18.48616088 1.116571704e-20)
(96.40579711 -18.29824724 8.422759177e-21)
(102.3499845 -15.52182245 -1.096124738e-19)
(103.1461448 -15.53035195 -6.904318264e-20)
(102.3174606 -14.59050644 -1.696881958e-19)
(102.9232263 -14.63514648 -5.001693061e-20)
(104.068405 -11.93460547 2.101691499e-19)
(103.6441928 -12.13366366 -2.556668817e-20)
(103.3279646 -11.55118457 -1.303787681e-22)
(103.6759366 -11.39435143 -2.528390685e-20)
(103.7153497 -9.198367121 -4.821874832e-19)
(103.47072 -9.436622556 3.127247965e-19)
(103.1248302 -9.058279065 4.950108383e-21)
(103.333988 -8.859395445 4.201986087e-21)
(102.945164 -7.081208397 5.747521639e-20)
(102.8075812 -7.316291358 1.801406405e-19)
(102.4782109 -7.055524342 1.295333717e-19)
(102.6013204 -6.844324645 1.921083608e-19)
(101.9262569 -5.579044119 -8.810695838e-20)
(101.9894483 -5.358366434 9.326167036e-20)
(101.6285872 -5.383335715 1.700790207e-21)
(101.6900421 -5.193374581 8.991796826e-20)
(101.0022915 -3.864029289 -4.535580416e-20)
(100.9261663 -4.221601435 -2.396831471e-20)
(100.4791079 -3.941595963 -4.238146289e-20)
(100.5788089 -3.661522042 -1.750678751e-20)
(100.3545257 -2.875727745 -2.846695057e-20)
(100.2825508 -3.165386938 1.02896392e-20)
(99.9392835 -2.960860101 -3.009109054e-20)
(100.0339522 -2.721701081 -1.564640966e-20)
(99.29618426 -1.679360877 -6.525497085e-22)
(99.12416199 -2.036288557 -2.735263284e-20)
(99.51518357 -2.388271356 -6.762910591e-21)
(99.76504641 -2.336672932 -4.218097714e-21)
(99.03302142 -1.079660037 9.421706175e-21)
(98.84093082 -1.388634212 1.767384752e-20)
(98.87594876 -0.5283115352 9.431873247e-21)
(98.65662678 -0.8140504633 3.671261755e-22)
(98.56085397 -0.2681037737 2.233577402e-21)
(98.48939425 -12.4709987 0)
(98.17374729 -11.70236784 4.15698685e-20)
(98.76536529 -11.5419233 0)
(98.99054058 -11.99319056 5.661061895e-21)
(100.7921771 -11.97297793 3.536908011e-20)
(100.4414928 -11.71921201 1.363317181e-20)
(100.4991776 -11.23126215 2.070039599e-20)
(100.7721419 -11.4152116 5.296225944e-20)
(101.5942284 -10.24818596 -2.771149424e-19)
(101.3133301 -10.24054046 -5.176786083e-20)
(101.1600447 -9.8148117 -2.794077358e-20)
(101.3869556 -9.815469094 -1.208664924e-19)
(101.6060274 -8.457779045 -1.896320536e-19)
(101.4021216 -8.548935464 1.313784263e-19)
(101.1818532 -8.219002053 -1.20078393e-19)
(101.352825 -8.138441981 -1.086550065e-21)
(101.2233711 -6.814982286 0)
(101.0878508 -6.952826496 0)
(100.8496375 -6.693225807 1.752371514e-19)
(100.9674529 -6.572137963 0)
(100.538342 -5.488339111 -1.198458647e-20)
(100.6223639 -5.337147524 1.681726458e-22)
(100.3069525 -5.287706196 -1.20158806e-20)
(100.3867155 -5.150267776 -1.0470553e-20)
(99.96971168 -3.965982199 3.40057542e-21)
(99.84720103 -4.244122096 6.294606142e-21)
(99.48172673 -3.944964369 0)
(99.61233548 -3.722086357 2.71307954e-21)
(99.53252647 -3.008895967 -1.27952938e-20)
(99.41648679 -3.250689751 2.710675693e-21)
(99.12883762 -3.024977135 4.288905563e-21)
(99.25059521 -2.81918938 0)
(98.67956293 -1.746074602 -7.888209616e-21)
(98.47556111 -2.065989793 -1.180308239e-20)
(98.80634748 -2.450564642 -1.500214839e-21)
(99.04977861 -2.427239308 -1.180574385e-20)
(98.47424942 -1.126935294 9.102998523e-21)
(98.25918967 -1.422020739 1.812744288e-20)
(98.34989246 -0.552760105 -6.115102378e-21)
(98.11539035 -0.8362008428 -1.02833571e-20)
(98.03962701 -0.2753634929 -6.487522112e-21)
(99.35562058 -9.445628939 -3.836937108e-20)
(99.22281337 -8.986470923 1.183870626e-20)
(99.49650176 -8.908345708 2.29198511e-20)
(99.52882296 -9.144116327 -1.637242475e-19)
(99.95979633 -9.389941205 -2.118021565e-20)
(99.85318502 -9.165765175 -6.592307211e-20)
(99.85468044 -8.884603427 -7.7137408e-20)
(99.93763204 -9.058733277 -1.044166085e-19)
(100.1938946 -8.587663135 -1.665716264e-19)
(100.0608089 -8.507777069 -6.131841909e-20)
(99.95812205 -8.212977712 -1.783859617e-19)
(100.0658432 -8.273808022 -1.592016029e-19)
(100.1328791 -7.473219444 -2.928358201e-21)
(100.0031937 -7.486728066 9.654021245e-20)
(99.8501565 -7.221222303 9.692383699e-20)
(99.95823673 -7.205079696 -1.973085221e-19)
(99.86619036 -6.257353734 3.561906303e-20)
(99.75940213 -6.328267583 3.540170203e-20)
(99.58136834 -6.098026627 3.51314971e-20)
(99.67277992 -6.03170583 1.816385114e-20)
(99.3731406 -5.160081174 0)
(99.45582591 -5.066480513 0)
(99.19563357 -4.975398133 0)
(99.27342443 -4.883132834 0)
(99.0224071 -3.88723715 -1.463021176e-20)
(98.88509705 -4.089624011 -1.461622918e-20)
(98.59314415 -3.80155914 5.391463584e-21)
(98.73187861 -3.630373024 -4.096039373e-20)
(98.74548444 -3.01254476 2.675844063e-20)
(98.60900427 -3.205027758 -3.61263871e-21)
(98.36930827 -2.975692925 2.593302609e-21)
(98.50336308 -2.803632867 1.264530139e-20)
(98.0638339 -1.747701608 1.487405316e-20)
(97.84606675 -2.029612028 2.437637787e-20)
(98.12438396 -2.414609286 3.009378244e-20)
(98.35419448 -2.425933952 -1.260389189e-20)
(97.90814202 -1.134011093 -1.673172811e-21)
(97.68349975 -1.410983802 -8.156820699e-21)
(97.81198882 -0.5577708484 -1.064206559e-20)
(97.57355176 -0.8317578763 -1.185395849e-20)
(97.51367677 -0.2740840761 1.201788266e-21)
(99.8433716 -7.583676615 1.052193874e-21)
(99.63222623 -7.259908863 -8.303664279e-21)
(99.93502484 -7.213922342 7.383090585e-20)
(99.89195398 -7.376039379 -1.373123517e-20)
(99.66843173 -7.614112289 2.71061178e-20)
(99.68498533 -7.440771789 -3.669906111e-21)
(99.63523874 -7.256906336 2.014034763e-21)
(99.61418103 -7.398329435 3.62127857e-21)
(99.42810743 -7.20207991 0)
(99.39475813 -7.111468337 8.420594236e-20)
(99.29626136 -6.900428673 0)
(99.32008443 -6.973104789 -7.209429591e-20)
(99.15794358 -6.485588065 -1.457309513e-19)
(99.09659094 -6.462678165 1.034007509e-19)
(98.96922686 -6.252353584 6.354631044e-20)
(99.01985561 -6.266857521 2.358841417e-20)
(98.84194187 -5.596616062 3.775742456e-21)
(98.77474554 -5.624665151 -4.424865896e-22)
(98.63028812 -5.42856087 -4.439014835e-22)
(98.68892653 -5.39935041 -4.438661743e-22)
(98.43745512 -4.72659782 0)
(98.50435192 -4.671894694 0)
(98.29617807 -4.563448946 0)
(98.35988857 -4.504966404 0)
(98.19601164 -3.694250754 1.997161001e-20)
(98.06313752 -3.834080527 0)
(97.82739318 -3.568760575 0)
(97.95930755 -3.441660906 0)
(98.01808437 -2.917602062 -1.991284577e-20)
(97.87854695 -3.066303344 0)
(97.67647942 -2.841921679 0)
(97.81044234 -2.702641444 0)
(97.47134087 -1.700649586 -2.353224928e-21)
(97.25340963 -1.944175805 1.889135788e-20)
(97.48851335 -2.313544211 1.256824801e-20)
(97.69894907 -2.353704987 1.258900515e-20)
(97.35409839 -1.11114158 -1.88730108e-20)
(97.13091734 -1.364601854 -1.767172828e-20)
(97.27977475 -0.5471769833 2.410438086e-23)
(97.04509814 -0.8065718043 -1.197782827e-21)
(96.99784059 -0.2665778208 1.201697125e-21)
(100.1331317 -6.285788033 -1.15644137e-19)
(99.75834484 -6.065613794 -4.158687109e-20)
(100.1779195 -6.027611759 -6.434517423e-20)
(100.1345474 -6.140947264 3.658428439e-20)
(99.58083153 -6.334064446 -1.270472689e-20)
(99.66166656 -6.200748287 1.103979929e-22)
(99.57094484 -6.067264265 -3.719319517e-21)
(99.49200803 -6.179440733 -2.480908697e-20)
(98.98772983 -6.088166035 2.497577382e-21)
(99.0184823 -6.004821651 -2.695354433e-20)
(98.90526604 -5.845191855 -2.08755616e-20)
(98.87421835 -5.914059832 3.176409928e-20)
(98.49539423 -5.594741707 0)
(98.4856669 -5.559158571 -9.416870609e-22)
(98.3619412 -5.390615021 0)
(98.36860225 -5.41716675 0)
(98.08219031 -4.940204333 0)
(98.04973705 -4.944455729 0)
(97.92448907 -4.784479794 0)
(97.95369916 -4.776556123 0)
(97.6998208 -4.258684052 0)
(97.74755065 -4.229437386 0)
(97.58151771 -4.117621687 0)
(97.6281759 -4.081917784 0)
(97.48772259 -3.430477305 0)
(97.37140612 -3.523197131 0)
(97.17588787 -3.284105649 0)
(97.29058757 -3.191227692 0)
(97.36200935 -2.753345258 0)
(97.23122363 -2.865668031 0)
(97.05953785 -2.655697361 0)
(97.18457045 -2.54366638 0)
(96.91477689 -1.617162059 0)
(96.70555891 -1.826262815 0)
(96.90944721 -2.170330713 0)
(97.0979227 -2.230379086 0)
(96.82485803 -1.062683677 0)
(96.61004096 -1.292915064 0)
(96.76649832 -0.5255981792 0)
(96.54185263 -0.7665849181 0)
(96.50371556 -0.2542755749 0)
(100.2865019 -5.35229986 1.107055905e-20)
(99.89488576 -5.184129548 -8.666964347e-21)
(100.3188653 -5.149181369 -4.852563127e-21)
(100.2771162 -5.22851089 6.482120833e-21)
(99.54154734 -5.363128317 -2.291870582e-21)
(99.65633115 -5.259748511 -2.294365625e-21)
(99.52877253 -5.155129015 -2.154451575e-21)
(99.41923026 -5.243445546 -2.196695655e-21)
(98.69216712 -5.187550206 0)
(98.76152296 -5.116539472 0)
(98.63006409 -4.990549627 0)
(98.56429087 -5.050437114 0)
(98.01986202 -4.828722478 0)
(98.04659431 -4.791274597 0)
(97.92217299 -4.6576541 0)
(97.89696134 -4.687294541 0)
(97.51174311 -4.342310996 0)
(97.5074993 -4.334848119 0)
(97.391443 -4.203670125 0)
(97.39610759 -4.20679807 0)
(97.11572615 -3.801880509 0)
(97.14456126 -3.787260364 0)
(97.01036322 -3.680387223 0)
(97.04010752 -3.659040311 0)
(96.88973059 -3.133756965 0)
(96.79655045 -3.195468255 0)
(96.62726795 -2.982705535 0)
(96.72097524 -2.916058774 0)
(96.78338416 -2.551900279 0)
(96.66798295 -2.636228116 0)
(96.51861567 -2.444677807 0)
(96.62999807 -2.354363903 0)
(96.40138098 -1.511285181 0)
(96.20806662 -1.69133919 0)
(96.3897485 -2.006378436 0)
(96.55690517 -2.075363469 0)
(96.32843219 -0.9982144919 0)
(96.12806292 -1.206382725 0)
(96.28070318 -0.4958497245 0)
(96.06995746 -0.7171100544 0)
(96.03791487 -0.238459567 0)
(100.4007134 -4.604361318 0)
(100.1069585 -4.491045474 0)
(100.4198446 -4.442666605 0)
(100.3609078 -4.511408853 0)
(99.48516852 -4.598109912 0)
(99.6202988 -4.51744636 0)
(99.47060743 -4.432172009 0)
(99.33990158 -4.501947238 0)
(98.46789883 -4.45924865 0)
(98.56323998 -4.400710831 0)
(98.42034795 -4.299741459 0)
(98.33071022 -4.350097744 0)
(97.66697102 -4.188180608 0)
(97.71975857 -4.153097157 0)
(97.59245434 -4.045053553 0)
(97.543772 -4.073781711 0)
(97.07265942 -3.814361983 0)
(97.09074835 -3.801814991 0)
(96.97850286 -3.693258169 0)
(96.96324695 -3.7015927 0)
(96.64732071 -3.379141169 0)
(96.6587037 -3.372752851 0)
(96.54947563 -3.275126284 0)
(96.56310978 -3.262878978 0)
(96.38619378 -2.833542893 0)
(96.31819748 -2.876146459 0)
(96.16430123 -2.688083778 0)
(96.23661168 -2.639926623 0)
(96.27788458 -2.335877642 0)
(96.18065179 -2.399710898 0)
(96.04698944 -2.227364297 0)
(96.14244603 -2.153907186 0)
(95.93414707 -1.394813458 0)
(95.76069336 -1.55038826 0)
(95.92713704 -1.835585362 0)
(96.07474595 -1.906508637 0)
(95.86981124 -0.9255317084 0)
(95.68722016 -1.112916002 0)
(95.8278166 -0.4609506931 0)
(95.63355437 -0.6629939577 0)
(95.6048983 -0.2209519172 0)
(100.4603079 -4.004102587 -2.692867473e-35)
(100.2420252 -3.918879838 9.562687002e-36)
(100.4692667 -3.8716017 -5.237201482e-35)
(100.3984843 -3.92841561 -2.693183171e-35)
(99.42690669 -3.983010705 0)
(99.57675015 -3.919130099 0)
(99.4123662 -3.847565511 0)
(99.26673905 -3.903652885 0)
(98.29256145 -3.866069015 0)
(98.40587159 -3.817847739 0)
(98.25409819 -3.734828365 0)
(98.147551 -3.77690751 0)
(97.39395189 -3.651369329 0)
(97.46575595 -3.620073159 0)
(97.33487862 -3.531024633 0)
(97.26868662 -3.557195659 0)
(96.72588135 -3.354786734 0)
(96.76151385 -3.340634353 0)
(96.65031132 -3.249842672 0)
(96.61908915 -3.260195983 0)
(96.2670195 -2.998441817 0)
(96.26339329 -2.997173057 0)
(96.17350092 -2.909561458 0)
(96.17350715 -2.902760511 0)
(95.95980409 -2.547384377 0)
(95.91601303 -2.577018199 0)
(95.77118715 -2.412094049 0)
(95.82312476 -2.376245853 0)
(95.83745832 -2.12024812 0)
(95.75903116 -2.16949139 0)
(95.6361042 -2.015641244 0)
(95.7149424 -1.955161013 0)
(95.51238457 -1.275868115 0)
(95.36046517 -1.410981158 0)
(95.51707379 -1.667236873 0)
(95.64714294 -1.736540078 0)
(95.45035016 -0.8498697936 0)
(95.28701457 -1.018299825 0)
(95.41046513 -0.4242214119 0)
(95.23369934 -0.6077251264 0)
(95.20636203 -0.2029718433 0)
(100.4857118 -3.509134812 -2.275453023e-35)
(100.3182415 -3.442667627 0)
(100.4882424 -3.398837408 0)
(100.4091466 -3.445361791 0)
(99.36893106 -3.477786272 0)
(99.5295796 -3.426437977 0)
(99.35453883 -3.365478967 0)
(99.19797842 -3.411115024 0)
(98.14858047 -3.37560285 0)
(98.27493684 -3.335778511 0)
(98.11624001 -3.266264987 0)
(97.99724761 -3.301347383 0)
(97.17489605 -3.199078081 0)
(97.26091363 -3.171883057 0)
(97.12654732 -3.097362955 0)
(97.0470284 -3.120408787 0)
(96.44515422 -2.957090595 0)
(96.4946439 -2.943159718 0)
(96.38308974 -2.866479101 0)
(96.33903168 -2.877081593 0)
(95.95301277 -2.660493753 0)
(95.93679195 -2.661875256 0)
(95.86169627 -2.584275091 0)
(95.85005565 -2.580543452 0)
(95.59686078 -2.282719391 0)
(95.57501942 -2.303601849 0)
(95.4355108 -2.159533912 0)
(95.4685324 -2.131833733 0)
(95.45345809 -1.91415854 0)
(95.39333344 -1.953046887 0)
(95.2775241 -1.816445653 0)
(95.34011112 -1.765753101 0)
(95.13345015 -1.159885169 0)
(95.00340764 -1.278102935 0)
(95.15403495 -1.507305873 0)
(95.26871456 -1.572647452 0)
(95.06931345 -0.7750942255 0)
(94.92554238 -0.9265134477 0)
(95.02892767 -0.3876410553 0)
(94.86974611 -0.5537533895 0)
(94.84221245 -0.1853399013 0)
(100.4887347 -3.095377533 -3.486620258e-35)
(100.3568613 -3.042576555 1.222301405e-35)
(100.48687 -3.002584177 -3.486620258e-35)
(100.4017192 -3.040591339 -3.486219206e-35)
(99.31167738 -3.056990281 0)
(99.4804254 -3.015273851 0)
(99.2975135 -2.962809555 0)
(99.13268197 -3.000194007 0)
(98.02617899 -2.965460925 0)
(98.16236443 -2.932498489 0)
(97.99820662 -2.873507323 0)
(97.86974945 -2.902717821 0)
(96.99380017 -2.816074454 0)
(97.09068931 -2.792818067 0)
(96.95316821 -2.729694811 0)
(96.86330743 -2.749559414 0)
(96.21280966 -2.613872715 0)
(96.27335654 -2.60106397 0)
(96.16077798 -2.535741521 0)
(96.10632465 -2.545667462 0)
(95.68958197 -2.363318138 0)
(95.66279047 -2.365835189 0)
(95.5991365 -2.297664618 0)
(95.57755946 -2.295549205 0)
(95.28577683 -2.042684685 0)
(95.2833915 -2.058008856 0)
(95.14662457 -1.932195025 0)
(95.16250623 -1.909871734 0)
(95.11779892 -1.722757512 0)
(95.07479514 -1.754364066 0)
(94.96349982 -1.633432457 0)
(95.01078247 -1.590102086 0)
(94.79378852 -1.050353697 0)
(94.68503486 -1.15472572 0)
(94.83235971 -1.359236873 0)
(94.93369795 -1.419292856 0)
(94.72468159 -0.7037464764 0)
(94.59993994 -0.840084498 0)
(94.68203466 -0.3525320348 0)
(94.53983365 -0.5026772688 0)
(94.51104425 -0.168590236 0)
(100.4763716 -2.746280444 2.990999733e-35)
(100.3708407 -2.703775448 0)
(100.4714742 -2.667623808 0)
(100.3818505 -2.698562606 0)
(99.25542927 -2.703066946 0)
(99.43032833 -2.668969251 0)
(99.24154857 -2.623476035 0)
(99.0703225 -2.654194338 0)
(97.91945903 -2.619677284 0)
(98.06326781 -2.592392525 0)
(97.89475298 -2.541841209 0)
(97.75890165 -2.566095445 0)
(96.84038497 -2.490404392 0)
(96.94578273 -2.470764039 0)
(96.80550018 -2.416797597 0)
(96.70745436 -2.43363272 0)
(96.0167497 -2.318048766 0)
(96.08623149 -2.306779215 0)
(95.97235083 -2.25073899 0)
(95.90939066 -2.259520104 0)
(95.46532472 -2.103637876 0)
(95.42962064 -2.106389214 0)
(95.37496148 -2.04685306 0)
(95.34490301 -2.04545875 0)
(95.01695185 -1.828012277 0)
(95.03162923 -1.839994367 0)
(94.89594502 -1.730013477 0)
(94.8964692 -1.7111743 0)
(94.82321711 -1.54851644 0)
(94.79588662 -1.57506107 0)
(94.68728916 -1.468144331 0)
(94.72046615 -1.430356448 0)
(94.48950566 -0.9493053692 0)
(94.4008649 -1.042396711 0)
(94.54674996 -1.224726653 0)
(94.63658249 -1.278887905 0)
(94.4136974 -0.6373860355 0)
(94.30692326 -0.7604932789 0)
(94.36767665 -0.3197236255 0)
(94.24143821 -0.4554674264 0)
(94.21069623 -0.1530517343 0)
(100.453428 -2.449920967 1.167645633e-35)
(100.3684358 -2.415425346 -4.575577099e-36)
(100.4464573 -2.382985617 1.167645633e-35)
(100.3534392 -2.408005683 1.167782522e-35)
(99.20039141 -2.403496741 0)
(99.38000693 -2.375593015 0)
(99.18683468 -2.335954125 0)
(99.0105873 -2.361162936 0)
(97.82464858 -2.32660194 0)
(97.97450976 -2.304094133 0)
(97.80248581 -2.260487118 0)
(97.66072885 -2.280504122 0)
(96.70784031 -2.212754058 0)
(96.82003992 -2.196386458 0)
(96.67737815 -2.149942348 0)
(96.57273213 -2.163962582 0)
(95.84854744 -2.063374022 0)
(95.92534576 -2.053815933 0)
(95.81009789 -2.005481129 0)
(95.74009612 -2.012889398 0)
(95.27194382 -1.877835221 0)
(95.22867918 -1.880280861 0)
(95.18121547 -1.8285545 0)
(95.14389244 -1.827314924 0)
(94.78271736 -1.638038502 0)
(94.81231498 -1.648173981 0)
(94.67662901 -1.551890105 0)
(94.6634986 -1.535235659 0)
(94.56346898 -1.392238937 0)
(94.55029582 -1.415316203 0)
(94.44312047 -1.320810615 0)
(94.46348935 -1.287196956 0)
(94.21667836 -0.8577413236 0)
(94.14662762 -0.9416886554 0)
(94.2923796 -1.104317953 0)
(94.37233411 -1.152412566 0)
(94.13324772 -0.5768665744 0)
(94.04305451 -0.6884699695 0)
(94.08321474 -0.2896904022 0)
(93.97166428 -0.4126346622 0)
(93.93854558 -0.1389036207 0)
(100.4232556 -2.197530719 1.010659931e-35)
(100.3549961 -2.169474058 0)
(100.4148716 -2.14049824 0)
(100.3191831 -2.160547972 0)
(99.14667045 -2.149049687 0)
(99.32991342 -2.126289987 0)
(99.13345221 -2.091642893 0)
(98.95322712 -2.112216936 0)
(97.73918399 -2.077481295 0)
(97.89393507 -2.059046104 0)
(97.71905638 -2.021259645 0)
(97.57250262 -2.037617333 0)
(96.59146779 -1.975781975 0)
(96.70919743 -1.962356232 0)
(96.56449186 -1.922196718 0)
(96.45444283 -1.93363643 0)
(95.70216177 -1.844474741 0)
(95.78501875 -1.836661177 0)
(95.66843374 -1.794802102 0)
(95.59254771 -1.800752001 0)
(95.10323218 -1.682337706 0)
(95.05352157 -1.684164426 0)
(95.01188416 -1.639447895 0)
(94.96831682 -1.638008614 0)
(94.57694992 -1.471349001 0)
(94.6195878 -1.480639643 0)
(94.48319462 -1.396207254 0)
(94.45796979 -1.380830705 0)
(94.33322258 -1.253707029 0)
(94.33273025 -1.274464493 0)
(94.22607698 -1.190883318 0)
(94.2349296 -1.160400657 0)
(93.9715346 -0.7759703555 0)
(93.91842768 -0.8525786575 0)
(94.06494262 -0.9978405948 0)
(94.13643208 -1.039942598 0)
(93.88011557 -0.5225490348 0)
(93.8049908 -0.6242502474 0)
(93.82576729 -0.2626549319 0)
(93.72753336 -0.3743779872 0)
(93.69180783 -0.1262230015 0)
(100.3881559 -1.982461908 0)
(100.3340107 -1.959722513 0)
(100.3788122 -1.93389234 0)
(100.2809338 -1.949774694 0)
(99.09428986 -1.932759066 0)
(99.2803098 -1.914335993 0)
(99.08140167 -1.883987949 0)
(98.89801707 -1.900614341 0)
(97.66124482 -1.865635907 0)
(97.81999518 -1.850705996 0)
(97.64276898 -1.817861296 0)
(97.49227171 -1.831035769 0)
(96.48791887 -1.773692755 0)
(96.61020076 -1.7629015 0)
(96.46372939 -1.728055197 0)
(96.34920796 -1.737148277 0)
(95.57316741 -1.65683751 0)
(95.66108411 -1.650723276 0)
(95.54322483 -1.61435418 0)
(95.4623873 -1.618844337 0)
(94.95447555 -1.513876551 0)
(94.8992502 -1.514914161 0)
(94.86235693 -1.476453039 0)
(94.81341001 -1.474598289 0)
(94.39476167 -1.326230669 0)
(94.44880606 -1.335355214 0)
(94.31124098 -1.261190067 0)
(94.27532472 -1.246441723 0)
(94.12798149 -1.132156492 0)
(94.13878772 -1.151433343 0)
(94.03201113 -1.077430459 0)
(94.03057854 -1.049266318 0)
(93.7505381 -0.7038687937 0)
(93.71268018 -0.7746656112 0)
(93.86061937 -0.9047239767 0)
(93.92489093 -0.9410543443 0)
(93.65112278 -0.4744679434 0)
(93.5894919 -0.5677338169 0)
(93.59237955 -0.2386676613 0)
(93.50603492 -0.3406796791 0)
(93.46760369 -0.1150149757 0)
(100.3497413 -1.799503689 0)
(100.3078447 -1.781262938 0)
(100.3397622 -1.758284206 0)
(100.2400027 -1.770641037 0)
(99.04320789 -1.749189208 0)
(99.23133247 -1.734485645 0)
(99.03062932 -1.707885752 0)
(98.844738 -1.721096743 0)
(97.5894534 -1.685809041 0)
(97.75150796 -1.673937787 0)
(97.5723327 -1.64534434 0)
(97.41855987 -1.655714539 0)
(96.39468251 -1.601801846 0)
(96.52075391 -1.593384116 0)
(96.37274579 -1.563084119 0)
(96.25448417 -1.57003471 0)
(95.45818704 -1.496634466 0)
(95.55036585 -1.492150654 0)
(95.4313071 -1.460479794 0)
(95.34627187 -1.463539071 0)
(94.82197652 -1.369519693 0)
(94.76201022 -1.369670958 0)
(94.72900238 -1.336798264 0)
(94.67540211 -1.334386202 0)
(94.23214226 -1.200865665 0)
(94.29617967 -1.2102956 0)
(94.15712929 -1.145040545 0)
(94.11176682 -1.130439155 0)
(93.94387871 -1.026521496 0)
(93.96471938 -1.044946146 0)
(93.8573451 -0.9793197396 0)
(93.8467666 -0.9528251857 0)
(93.55041278 -0.6410542843 0)
(93.52616012 -0.7073673729 0)
(93.67601959 -0.824186648 0)
(93.7341601 -0.8550270627 0)
(93.44320712 -0.4324547801 0)
(93.39353375 -0.5186349551 0)
(93.3801268 -0.2176693705 0)
(93.30427675 -0.3113987358 0)
(93.26312532 -0.1052429533 0)
(100.3091597 -1.644631999 0)
(100.2781467 -1.630287654 0)
(100.2987711 -1.609909604 0)
(100.1973202 -1.619229935 0)
(98.99333062 -1.594092494 0)
(99.18302216 -1.582643963 0)
(98.98103096 -1.559351474 0)
(98.79316253 -1.569551939 0)
(97.52272814 -1.533850862 0)
(97.6875356 -1.524695403 0)
(97.5067288 -1.499807712 0)
(97.35021087 -1.507665726 0)
(96.30982247 -1.456336067 0)
(96.43908179 -1.450084629 0)
(96.28972563 -1.423722744 0)
(96.16830518 -1.428693589 0)
(95.35458883 -1.360674835 0)
(95.45038985 -1.357757916 0)
(95.33020742 -1.330147922 0)
(95.24158543 -1.331805814 0)
(94.70279157 -1.246724989 0)
(94.63872527 -1.245924124 0)
(94.60891851 -1.218073801 0)
(94.55127295 -1.214998719 0)
(94.08578822 -1.093511058 0)
(94.15859635 -1.103588469 0)
(94.01783922 -1.046080624 0)
(93.96412883 -1.0312521 0)
(93.77760634 -0.9356460623 0)
(93.80734117 -0.9537079074 0)
(93.69900294 -0.8953924826 0)
(93.68031868 -0.8700291994 0)
(93.36817882 -0.5870227982 0)
(93.35596374 -0.6500254722 0)
(93.50814433 -0.7553805721 0)
(93.56111353 -0.7810166918 0)
(93.25350161 -0.3962343195 0)
(93.21430726 -0.4765720411 0)
(93.18621952 -0.1995410866 0)
(93.11951342 -0.2863268003 0)
(93.07567664 -0.09684656272 0)
(100.2671806 -1.51463429 0)
(100.2460321 -1.503703644 0)
(100.2565325 -1.485693453 0)
(100.1534959 -1.492369736 0)
(98.94450482 -1.464085553 0)
(99.13532623 -1.4555228 0)
(98.93244103 -1.435168089 0)
(98.74303339 -1.442681839 0)
(97.46017731 -1.406443304 0)
(97.62728786 -1.399729144 0)
(97.44509904 -1.378099303 0)
(97.28626828 -1.383679864 0)
(96.23178861 -1.334236039 0)
(96.36374871 -1.329979573 0)
(96.2131901 -1.307056982 0)
(96.08908371 -1.310183341 0)
(95.26025434 -1.246306942 0)
(95.35915186 -1.244897355 0)
(95.23790375 -1.220821028 0)
(95.14620069 -1.221106907 0)
(94.59448645 -1.143296915 0)
(94.52686615 -1.141497346 0)
(94.49967526 -1.118176126 0)
(94.43851236 -1.114354966 0)
(93.95292976 -1.002568745 0)
(94.03345458 -1.013552587 0)
(93.89081855 -0.9628033067 0)
(93.82971877 -0.9474386292 0)
(93.62629668 -0.8583933365 0)
(93.6639024 -0.8764913695 0)
(93.55429951 -0.8245431156 0)
(93.52844847 -0.7998543434 0)
(93.20106741 -0.5412214926 0)
(93.19943564 -0.6019958373 0)
(93.35430726 -0.6974817826 0)
(93.40295134 -0.7181922475 0)
(93.07928288 -0.3654805743 0)
(93.04920685 -0.4411267501 0)
(93.00796511 -0.1841322829 0)
(92.94915443 -0.2652309279 0)
(92.90269294 -0.08975683249 0)
(100.2243488 -1.406829495 -1.822807988e-36)
(100.2123013 -1.398907536 7.378315636e-37)
(100.2135663 -1.383088495 -3.548056108e-36)
(100.1089759 -1.387427867 -1.822598317e-36)
(98.89655814 -1.356430581 0)
(99.08816469 -1.350460883 0)
(98.88469297 -1.33274779 0)
(98.69410136 -1.337828401 0)
(97.40104124 -1.30091292 0)
(97.57008793 -1.296428105 0)
(97.38671508 -1.277692682 0)
(97.22592366 -1.281175821 0)
(96.15929978 -1.233014405 0)
(96.29356604 -1.230621503 0)
(96.14191776 -1.210731282 0)
(96.01550984 -1.212115811 0)
(95.17343425 -1.151347725 0)
(95.27500084 -1.151401493 0)
(95.1527339 -1.130428657 0)
(95.0583606 -1.129362467 0)
(94.49498872 -1.057462938 0)
(94.42423307 -1.054619984 0)
(94.39922456 -1.035481437 0)
(94.33491663 -1.030837734 0)
(93.83120718 -0.9266628992 0)
(93.91860856 -0.9388304315 0)
(93.77383142 -0.8940263154 0)
(93.70620521 -0.8777500007 0)
(93.48742204 -0.7936955618 0)
(93.53199008 -0.8121909868 0)
(93.42085348 -0.765769282 0)
(93.388692 -0.7413241986 0)
(93.04672003 -0.5031156797 0)
(93.05426453 -0.5626253032 0)
(93.21211855 -0.6496637189 0)
(93.25723163 -0.6656399927 0)
(92.91819562 -0.3398681201 0)
(92.89585227 -0.4118933096 0)
(92.84302417 -0.1712941048 0)
(92.79080483 -0.2478738523 0)
(92.74177944 -0.08389927147 0)
(100.1811348 -1.319094465 0)
(100.1776194 -1.313845192 0)
(100.1703179 -1.300098168 0)
(100.0641481 -1.30232893 0)
(98.84933899 -1.268956994 0)
(99.04146204 -1.265346691 0)
(98.8376295 -1.250033093 0)
(98.64614193 -1.252879952 0)
(97.34466843 -1.215130873 0)
(97.51534599 -1.212708538 0)
(97.33093712 -1.196564029 0)
(97.16847854 -1.19808956 0)
(96.09128356 -1.150669204 0)
(96.2275266 -1.150036379 0)
(96.07486574 -1.132835002 0)
(95.94647945 -1.132557219 0)
(95.0927002 -1.074012494 0)
(95.19657305 -1.075489069 0)
(95.07331901 -1.057248733 0)
(94.9766317 -1.054854518 0)
(94.40276436 -0.9877643086 0)
(94.32921331 -0.9839741242 0)
(94.3061092 -0.9686478168 0)
(94.23898191 -0.9631666171 0)
(93.71840487 -0.864756638 0)
(93.81189724 -0.878212843 0)
(93.66474438 -0.8386938929 0)
(93.5914293 -0.8210875754 0)
(93.35873306 -0.7406365355 0)
(93.40944193 -0.7598460993 0)
(93.29657746 -0.7181800625 0)
(93.25882817 -0.6936772053 0)
(92.90234296 -0.4721794906 0)
(92.91801377 -0.5315611067 0)
(93.07937294 -0.6114020439 0)
(93.1215206 -0.6230376495 0)
(92.76739898 -0.3190709569 0)
(92.75202228 -0.3885035719 0)
(92.68849691 -0.1608574844 0)
(92.64218737 -0.2340728754 0)
(92.5906701 -0.07922600223 0)
(100.1378989 -1.249792486 0)
(100.1425072 -1.246950304 0)
(100.1271162 -1.235189477 0)
(100.0192939 -1.235473233 0)
(98.80267488 -1.199944028 0)
(98.99510858 -1.198519125 0)
(98.79107195 -1.18541083 0)
(98.5989184 -1.186168713 0)
(97.29045774 -1.147389574 0)
(97.46251348 -1.146910944 0)
(97.27717473 -1.133109073 0)
(97.11329224 -1.132772521 0)
(96.02677996 -1.08556917 0)
(96.16472539 -1.086629319 0)
(96.01109656 -1.071830886 0)
(95.88100267 -1.069935935 0)
(95.01677621 -1.012773257 0)
(95.12263968 -1.015659315 0)
(94.9983989 -0.999829776 0)
(94.89971486 -0.9960981117 0)
(94.31635788 -0.9326341346 0)
(94.24046522 -0.9278574732 0)
(94.21867087 -0.9159079601 0)
(94.14927807 -0.9094362558 0)
(93.6126252 -0.8156451312 0)
(93.71132227 -0.8303073704 0)
(93.56198396 -0.7954788571 0)
(93.48355443 -0.7763963012 0)
(93.23818841 -0.6982326781 0)
(93.29426517 -0.718502936 0)
(93.17923506 -0.680900746 0)
(93.13682524 -0.6557430611 0)
(92.76780205 -0.4480627326 0)
(92.78960623 -0.5074800441 0)
(92.95413545 -0.5814297409 0)
(92.99444674 -0.5880780885 0)
(92.62679334 -0.3028920218 0)
(92.61564908 -0.3705893716 0)
(92.54438327 -0.1527744788 0)
(92.50117481 -0.2235659524 0)
(92.44715392 -0.07562787464 0)
(100.0948927 -1.197656895 -7.084043135e-36)
(100.1073477 -1.197015107 0)
(100.0841991 -1.187189656 -5.88724305e-36)
(99.97460427 -1.185632801 0)
(98.75637131 -1.148070127 0)
(98.94896627 -1.148710335 0)
(98.74482502 -1.137657267 0)
(98.55218275 -1.136420219 0)
(97.23784462 -1.096368028 0)
(97.41107225 -1.097760341 0)
(97.22487506 -1.086101337 0)
(97.05976731 -1.083955556 0)
(95.96491014 -1.036443788 0)
(96.10433439 -1.039167511 0)
(95.94975618 -1.026539348 0)
(95.81817435 -1.023037656 0)
(94.94444827 -0.9664545029 0)
(95.05204921 -0.9707738115 0)
(94.9268002 -0.9571011758 0)
(94.82636167 -0.9519888195 0)
(94.23403533 -0.891156125 0)
(94.15606496 -0.8851059024 0)
(94.13520826 -0.8764661423 0)
(94.0636656 -0.8689562857 0)
(93.51254289 -0.7781626225 0)
(93.61584609 -0.7945867197 0)
(93.46414921 -0.7636359846 0)
(93.38114041 -0.743068325 0)