/*--------------------------------*- C++ -*----------------------------------*\
| =========                 |                                                 |
| \\      /  F ield         | OpenFOAM: The Open Source CFD Toolbox           |
|  \\    /   O peration     | Version:  v2012                                 |
|   \\  /    A nd           | Website:  www.openfoam.com                      |
|    \\/     M anipulation  |                                                 |
\*---------------------------------------------------------------------------*/
FoamFile
{
    version     2.0;
    format      ascii;
    class       volScalarField;
    location    "1.13";
    object      nut;
}
// * * * * * * * * * * * * * * * * * * * * * * * * * * * * * * * * * * * * * //

dimensions      [0 2 -1 0 0 0 0];


internalField   nonuniform List<scalar> 
3019
(
0.04953013949
0.2057051845
0.27220613
0.3495710397
0.4450434715
0.5789091589
0.7829693847
1.015528735
1.15725492
1.151791121
1.149387332
1.148797653
0.1007285552
0.3055545922
0.3823096963
0.4538083157
0.5408381702
0.6643836726
0.8480632589
1.055232408
1.158621409
1.152661275
1.149941593
1.149255273
0.1444476637
0.3995505716
0.5822041619
0.6127686359
0.675644614
0.7845149858
0.9477450854
1.126851545
1.159974402
1.153629897
1.150664854
1.149883611
0.1657274494
0.428983634
0.7156968886
0.8395935215
0.8572248834
0.9390947099
1.081087926
1.170872902
1.161238127
1.154618154
1.151484847
1.150655632
0.211551149
0.4766153913
0.7605993547
0.9800308644
1.099756621
1.131826313
1.173203503
1.172446436
1.162349459
1.155560023
1.152307252
1.151422061
0.2700453189
0.5355642773
0.8048847906
0.9994283605
1.107791437
1.157122886
1.17534978
1.173649068
1.163261739
1.15640487
1.153113326
1.15220391
0.3173029345
0.580688184
0.8311869608
1.011441315
1.114150665
1.160460673
1.176870905
1.174489148
1.163944869
1.157089796
1.153795286
1.152872375
0.3392497008
0.599429221
0.8478509339
1.021626494
1.119120929
1.162832558
1.177861208
1.175008654
1.164481457
1.157702044
1.154426082
1.153489955
0.35721125
0.6169705585
0.8621802664
1.030119825
1.122887449
1.164418271
1.178406985
1.175262213
1.164821678
1.15814489
1.154899365
1.153953031
0.3749969965
0.6338973117
0.8741157636
1.036825059
1.125571235
1.16536396
1.178590471
1.17530408
1.165076748
1.158542963
1.155330689
1.154368505
0.392284014
0.6494879348
0.8836073753
1.041601753
1.127265197
1.165783735
1.17848626
1.175181284
1.165171848
1.158773792
1.155593728
1.154616069
0.408061572
0.662687588
0.8905519758
1.044507983
1.128067963
1.165762626
1.178154798
1.174930908
1.165235036
1.158997078
1.155845795
1.154846338
0.4212976799
0.6728127919
0.8950267982
1.045798189
1.128101655
1.16537135
1.177644221
1.17458094
1.165153494
1.159051575
1.155925415
1.154905831
0.4315359492
0.6798245463
0.8973290478
1.045791172
1.127503283
1.164675253
1.176992997
1.174151577
1.165083376
1.159139536
1.156034965
1.154990543
0.4388797141
0.684123494
0.8978757602
1.044788253
1.126401801
1.16373197
1.176231195
1.173658062
1.164867827
1.159051833
1.155966803
1.15490115
0.4438137005
0.6863051952
0.8971026231
1.043041421
1.124903569
1.162588459
1.17538155
1.173111667
1.164703953
1.159038433
1.155969904
1.154878985
0.4469303733
0.6869551527
0.8953806116
1.040743557
1.123091316
1.16128207
1.174461283
1.172520952
1.164384993
1.158840802
1.15578953
1.154678173
0.4487368486
0.6865274926
0.8929807996
1.038033131
1.121028132
1.159842133
1.173483516
1.171893374
1.164152385
1.158747781
1.155710404
1.154574468
0.4496016062
0.6853286617
0.8900871783
1.035008302
1.118762637
1.158292029
1.172458401
1.171233413
1.163760203
1.15847595
1.155455851
1.154301631
0.4497776742
0.6835671797
0.8868297045
1.031742582
1.116333565
1.156650114
1.171393719
1.170547999
1.163463329
1.158304401
1.155298366
1.154121152
0.4494554832
0.6813994533
0.8833098302
1.028294801
1.113772399
1.15493092
1.170295518
1.169836146
1.163048197
1.158012342
1.155023474
1.153831856
0.4487810621
0.6789525361
0.8796135454
1.02471508
1.111106139
1.153147978
1.16917098
1.169110075
1.16264439
1.157728345
1.154758226
1.153545264
0.4478843961
0.6763349589
0.8758140647
1.021046237
1.108357567
1.151310888
1.168037884
1.168371039
1.162317602
1.157499358
1.15454391
1.153321569
0.4468941322
0.6736614481
0.8719852513
1.017331155
1.105547064
1.149425452
1.166967988
1.167692413
1.161712333
1.157057159
1.154133411
1.15289002
0.03735384932
0.04651436761
0.1812633878
0.07295188602
0.03834698812
0.09545970591
0.2477432065
0.1844521677
0.1020245721
0.07469006234
0.1422548375
0.05896406733
0.05653173897
0.07085406582
0.1591473493
0.146219975
0.02578925101
0.04477375674
0.02330908401
0.03120336198
0.08201320475
0.04790212103
0.1392513496
0.3294705585
0.2784773066
0.09744428102
0.0862154612
0.03335211784
0.1973554769
0.1656196756
0.07385875942
0.08073077398
0.008427344328
0.01594773101
0.02659197861
0.06669220917
0.01228502198
0.01271337589
0.03080166155
0.01249487179
0.0123568952
0.01296736825
0.01237108401
0.01281450437
0.01632496048
0.01359140078
0.02187833085
0.01780974604
0.01288739418
0.008777894401
0.01765400014
0.01206379563
0.01241635095
0.1878567926
0.2374046603
0.03255810219
0.01330345976
0.01607232907
0.01166353855
0.01353129676
0.02395117466
0.04692153954
0.01267028849
0.009160500275
0.009236174445
0.01291771276
0.01271999795
0.02917459227
0.02416378214
0.01227800877
0.01207604277
0.01235760002
0.01247343202
0.008745622155
0.01236728229
0.01258192264
0.01250680513
0.01286202481
0.01261143546
0.01271022156
0.01262041057
0.01249526849
0.01298508527
0.01299111749
0.01278518549
0.01309805283
0.01329288174
0.01320766704
0.01246426953
0.01189588575
0.01206650296
0.01222237127
0.01204224256
0.01242929515
0.2537515562
0.308635582
0.3297152611
0.3996453621
0.4265499125
0.5190304484
0.05907709801
0.1117458707
0.1016815266
0.2720578376
0.331523669
0.2552156742
0.3489989865
0.4038676654
0.3287818143
0.4234770444
0.4887467264
0.418706743
0.5125918393
0.5959430853
0.5371725949
0.1126028938
0.2204584866
0.2017869341
0.3937738378
0.5130355485
0.3665670889
0.5213931728
0.5530939102
0.4353431952
0.5668220561
0.6179612351
0.5168678485
0.6390452421
0.7092380398
0.6211964963
0.09123850822
0.07865874347
0.1584820622
0.352008904
0.3343584914
0.4201484046
0.6333117946
0.5805144349
0.7058860881
0.7774757572
0.6018959124
0.7758565336
0.7946347099
0.6557766921
0.8072801091
0.8660139386
0.7463018007
0.1296148164
0.0979245698
0.1979225837
0.391049987
0.3598170929
0.4629985778
0.6784471066
0.6433682107
0.7488129479
0.9271618314
0.8501775687
0.9738377723
1.030360753
0.8475484198
1.029485313
1.062556218
0.9129944096
0.193325044
0.1438053117
0.2556259665
0.4476315693
0.4040158138
0.5209460458
0.7300217135
0.6913545967
0.7948063217
0.9546494477
0.9347466691
0.9956694889
1.085194157
1.077902275
1.105954712
1.147545061
1.122833785
0.2533898543
0.2101372834
0.3077671689
0.5012873324
0.4625730401
0.5721196317
0.7686693744
0.7417989285
0.8266534418
0.9707476458
0.9598164852
1.008621886
1.093131982
1.087343556
1.112700206
1.151742488
1.148709891
0.2799366564
0.2633445044
0.3347020652
0.5269105575
0.5109938745
0.5949674086
0.7873109469
0.7737424803
0.8438976813
0.9830616831
0.974000813
1.01923993
1.099495774
1.094862161
1.117997283
1.154834466
1.152611722
0.2959660026
0.2839471884
0.3527435475
0.5454771233
0.5316199849
0.6126301115
0.8032341754
0.7915204266
0.8588232471
0.9935690086
0.9858614738
1.028157712
1.104494948
1.100868991
1.122051443
1.157005034
1.155457589
0.3122138897
0.3000036673
0.3705717389
0.563479569
0.5500352749
0.6297530786
0.816950704
0.8068631508
0.8713572325
1.002133111
0.9959043702
1.035326511
1.108241919
1.105547574
1.124996725
1.158408895
1.157422912
0.3285142818
0.316311252
0.3880578062
0.5805325738
0.567868887
0.6457749481
0.8285190965
0.8200566153
0.8814711561
1.008527027
1.003942929
1.04058974
1.1107963
1.108990989
1.126929552
1.159176652
1.158656784
0.3439858379
0.3325095516
0.4043239365
0.5956127955
0.5845366409
0.6596614408
0.8376212148
0.8310427029
0.8890551676
1.012734307
1.009779432
1.043945099
1.112237686
1.111257435
1.127944632
1.159407421
1.159282031
0.3574824723
0.3475864723
0.4182631941
0.6077738802
0.5989539848
0.6705818738
0.8440539073
0.8394819119
0.8941265081
1.014998171
1.013470684
1.045609903
1.112699993
1.112439317
1.128157919
1.159181964
1.15939141
0.3683075964
0.3604552269
0.4292611951
0.6167081187
0.6103102309
0.6783470409
0.8479686774
0.8452580707
0.8969356704
1.015670829
1.015302241
1.045897472
1.112352676
1.112682648
1.127704785
1.158576574
1.15906386
0.3763525378
0.3705737452
0.4372926024
0.6226648745
0.6184597775
0.6832719395
0.8497583477
0.8485981129
0.89787938
1.015105588
1.015633114
1.045117637
1.111363733
1.112159786
1.126718115
1.157661653
1.158374792
0.3819541205
0.3779630494
0.4427733286
0.6261999148
0.6237517483
0.6859246266
0.8499080594
0.8499312839
0.8973978326
1.013613937
1.014809081
1.043536402
1.109875522
1.111033826
1.125310478
1.156496146
1.157392116
0.3856579027
0.3830360472
0.4462918331
0.6279395185
0.6267806044
0.6869087583
0.8488693126
0.849744606
0.895883579
1.011443315
1.013126994
1.041361318
1.107998866
1.109439164
1.123570088
1.155127086
1.156171641
0.3879961484
0.386352371
0.4483853879
0.6284078653
0.6281589593
0.6867165148
0.8469888393
0.848467321
0.8936330561
1.008773774
1.010817127
1.038743513
1.105817432
1.107479378
1.121564586
1.153591684
1.154757828
0.3893600738
0.3884158145
0.4494585739
0.6279670207
0.6283715169
0.6856880937
0.8445038457
0.8464169399
0.890849115
1.005730537
1.008044022
1.035789632
1.103394007
1.105232164
1.119345695
1.151919311
1.153185635
0.3900156142
0.3895808259
0.4497874597
0.6268671409
0.6277455846
0.6840511163
0.8415765942
0.8438080744
0.8876722867
1.002404188
1.004922383
1.032578177
1.100777514
1.102756264
1.116954334
1.150133338
1.151482823
0.3901541234
0.3900903637
0.4495755794
0.6252872829
0.6265106771
0.6819720896
0.8383288594
0.8407902036
0.8842094149
0.9988655219
1.001536785
1.029170892
1.098007223
1.100097894
1.114423487
1.148252308
1.149671456
0.3899240046
0.3901217039
0.4489792466
0.6233713272
0.6248336127
0.6795848473
0.8348617393
0.8374786545
0.8805499354
0.9951743667
0.997954675
1.025619899
1.095116375
1.097294511
1.111781224
1.146292924
1.147769345
0.3894575438
0.3898156946
0.448131496
0.6212522939
0.6228548805
0.6770010168
0.8312611866
0.8339704963
0.8767701659
0.9913819114
0.994233623
1.021969677
1.092133157
1.094378054
1.109051334
1.144268382
1.145792547
0.3888695813
0.3893026148
0.4471442702
0.619014897
0.6206985194
0.6743113378
0.8275953738
0.8303480249
0.8729315462
0.9875312964
0.9904229113
1.018258283
1.089082889
1.091375575
1.106255583
1.142191511
1.143753379
0.3882170535
0.3887107499
0.4460443499
0.616582177
0.6184721832
0.6714081008
0.8236806612
0.826693835
0.8688387788
0.9834303968
0.9865724035
1.014303851
1.085828133
1.088312322
1.103272773
1.139987177
1.141660244
0.03548852931
0.02903284998
0.03063231017
0.061367412
0.05801154661
0.04323146932
0.164441876
0.1444378062
0.1540222956
0.06808367755
0.02658060476
0.01744939546
0.02278836386
0.03914792281
0.1309391676
0.1255758026
0.08375668836
0.2146434356
0.1816766312
0.2182323476
0.1582860742
0.1741256294
0.2077314416
0.08472397675
0.07267986655
0.1389941568
0.1068535653
0.117198375
0.1025754731
0.1372775594
0.01981956212
0.02814010679
0.04550663294
0.04797685985
0.06187565794
0.05362333879
0.04019767834
0.04286601532
0.1270244834
0.1145925136
0.06237317276
0.1543431277
0.1386230042
0.1430712852
0.1224055772
0.1336751543
0.150231392
0.0173715172
0.01915528735
0.02737010778
0.013687618
0.0136076749
0.01315424542
0.04240049347
0.02463073004
0.02958753864
0.02147868187
0.01438770356
0.01561917778
0.04776204071
0.04432738309
0.02592884523
0.07834521197
0.06025482718
0.06379363293
0.05651559383
0.07424670631
0.03506617724
0.03815202246
0.05075116169
0.01453117939
0.01388869986
0.03029760127
0.0303810431
0.2063576232
0.2007881673
0.1180044311
0.3242931447
0.2668697401
0.2721458265
0.2384778687
0.2606654348
0.3183313804
0.09403150248
0.07498518129
0.07850491483
0.0675891224
0.07115988354
0.08976470018
0.04011069871
0.05443651593
0.05102900211
0.1841684795
0.1613508211
0.1643377787
0.148463395
0.1554876135
0.1734481193
0.08038992023
0.1235351423
0.1174355066
0.0772785953
0.04775404012
0.05039323991
0.01456414058
0.0117491928
0.01205386654
0.03515577601
0.03345429687
0.03972421873
0.03820908048
0.02458492587
0.06374931697
0.05067064872
0.05254618196
0.01218636062
0.01371421324
0.01288042787
0.01597698896
0.01477061804
0.01236560578
0.02945934021
0.02132406377
0.02340070358
0.01538957073
0.01308984972
0.01343549937
0.01275787111
0.01272105853
0.01432585886
0.02076357723
0.01550246221
0.01628804213
0.01408896053
0.01465825954
0.01883055141
0.01271378185
0.01337761298
0.01931088594
0.2073375298
0.1939872986
0.1747550433
0.2216640213
0.2062928128
0.220673626
0.0253149408
0.02718845576
0.03408559182
0.01391523506
0.01887411769
0.01743503631
0.02262601956
0.02096665398
0.01492575808
0.0317295952
0.03026239682
0.02185403645
0.04353180724
0.03748913438
0.03747200513
0.0351513736
0.0424026115
0.01590306109
0.01518618085
0.02757653898
0.02014141327
0.02153299821
0.01743477894
0.0186177658
0.02546461916
0.5515122919
0.6523248991
0.7584776166
0.8676034435
0.9891769836
1.129378756
0.05275830939
0.06824902828
0.06492598387
0.2230289647
0.242602245
0.223179249
0.2937935479
0.3124390805
0.290858647
0.3713326237
0.3935316717
0.3711186684
0.4663309921
0.4943020972
0.4739069732
0.629410027
0.7245839212
0.6830515738
0.8117773587
0.9117800433
0.8884416568
1.014495221
1.142639263
1.116372953
0.1048189511
0.1406325405
0.1359084969
0.3487068663
0.3671399401
0.3245683591
0.4226303087
0.438581005
0.3998380583
0.4874362267
0.5065418202
0.4733804615
0.5698340788
0.5952632504
0.5664869263
0.7357737998
0.820851754
0.7707420372
0.8937723976
0.9831945507
0.9450390595
1.065173195
1.165324746
1.144881592
0.1485414537
0.2146926967
0.2110269988
0.405664574
0.4751470536
0.4684561886
0.6536207335
0.6493915167
0.5866521934
0.6627548665
0.6724772514
0.6253244471
0.7164260525
0.7354943983
0.6971503495
0.8789385681
0.943623971
0.8781612515
1.009404929
1.082147881
1.030018019
1.149393636
1.166868819
1.166139461
0.1747169902
0.2392780958
0.2310236814
0.4390756963
0.510584889
0.5001010469
0.726189854
0.7935127258
0.7837606311
0.9121332791
0.9016273967
0.8375907357
0.9105655714
0.9220408027
0.8699232519
1.055740217
1.102520307
1.01709237
1.164250534
1.173128103
1.146367498
1.171667139
1.168261582
1.167616198
0.2259839957
0.2857086787
0.2724224074
0.4910551254
0.5626884583
0.5484770554
0.7723842754
0.8348065746
0.8245027067
0.9858226466
1.02324029
1.018708318
1.10194529
1.119490915
1.101384977
1.156116555
1.169929174
1.168350513
1.174361181
1.175043824
1.174175188
1.173112237
1.169407636
1.168893353
0.2837457063
0.343030853
0.3288392429
0.5492620103
0.6184953958
0.6054724181
0.8136769477
0.869515081
0.8622695481
1.002632515
1.036296215
1.033532223
1.109525685
1.125992618
1.124516036
1.159726686
1.172418537
1.171278905
1.176182807
1.176388249
1.175773938
1.174126615
1.170269137
1.169894233
0.3252075514
0.3864825672
0.3786279136
0.5858959547
0.6521767055
0.6471964527
0.8355634115
0.8877583566
0.8837521232
1.014150461
1.046193501
1.043883521
1.115515679
1.131034643
1.129895973
1.162320968
1.174143463
1.173367377
1.177427128
1.177275505
1.176881353
1.174797412
1.170865039
1.170622776
0.3437704797
0.4053933419
0.4007698324
0.6038612939
0.670256144
0.6658909411
0.8516600464
0.9024998829
0.8990125827
1.023910358
1.05442078
1.052511477
1.120170595
1.134860503
1.134007897
1.164087361
1.175242783
1.174763406
1.178184745
1.177781183
1.177568879
1.175174889
1.171231486
1.171100064
0.3616760339
0.4237082791
0.4191458661
0.6212804096
0.6869732574
0.6828953644
0.8653909132
0.9150177773
0.9121098198
1.031972297
1.061085644
1.059566443
1.123656776
1.137638692
1.137034822
1.165180114
1.175836442
1.175596151
1.178539188
1.177979141
1.177912319
1.175314677
1.171406706
1.171367477
0.3793991349
0.4417668274
0.4372969294
0.6379637571
0.7024919644
0.6987499121
0.876724721
0.9250946293
0.922811752
1.038203239
1.066142217
1.065033261
1.12608448
1.13949816
1.139113195
1.165721918
1.176022887
1.175975302
1.178570324
1.177933881
1.1779818
1.175267502
1.171433792
1.171463576
0.3964196463
0.4589275484
0.4547827735
0.6530524164
0.716164988
0.7129700563
0.8855854019
0.9326320757
0.9309852264
1.042496899
1.069546479
1.068847134
1.127545484
1.140547341
1.140355578
1.165803828
1.175879648
1.175988336
1.178345742
1.177697724
1.177835568
1.17507568
1.171340759
1.171427824
0.4116401387
0.4740360855
0.4705098663
0.6655207894
0.7271589112
0.7246918005
0.8918949966
0.9377040304
0.9366554624
1.044970419
1.071409133
1.071076237
1.128143492
1.140886117
1.140862388
1.165498707
1.175468881
1.175704256
1.177919322
1.17731231
1.177520494
1.174771214
1.171156571
1.171284773
0.4241444539
0.4862248223
0.4834728349
0.6748489518
0.7351162947
0.7334089059
0.8957919635
0.9405719374
0.9400424034
1.045906098
1.071966787
1.071934899
1.128006185
1.14062073
1.140737656
1.164873067
1.174842936
1.175179882
1.177334149
1.176810087
1.177073342
1.174378434
1.170893485
1.171059669
0.433629644
0.495302277
0.4933125807
0.6811329533
0.7402154916
0.7391852936
0.8976134993
0.9416067348
0.9414977562
1.045623301
1.071487618
1.071690612
1.127270636
1.13986072
1.140091421
1.163986832
1.174045506
1.174463273
1.176624395
1.176215981
1.176522672
1.173914268
1.170570628
1.170762604
0.4403166013
0.5015751335
0.5002424533
0.6848436548
0.7429417918
0.7424507519
0.8977905543
0.9412131056
0.9414239004
1.044412951
1.070214566
1.07059567
1.126060933
1.138704498
1.139026029
1.162889633
1.173111308
1.173593638
1.175816262
1.175548777
1.175890071
1.173392609
1.170191555
1.170411149
0.4447412738
0.5055917211
0.5047654046
0.6865911279
0.7438768273
0.74378066
0.8967489608
0.9397650909
0.9402081985
1.042512481
1.068343665
1.068858596
1.124477242
1.137231713
1.137625918
1.161620967
1.172067172
1.172601471
1.174929611
1.174822614
1.175191906
1.172822347
1.169770859
1.170007153
0.4474878794
0.5079458362
0.5074845807
0.6869351024
0.7435364505
0.7437180451
0.8948358428
0.9375589831
0.938168801
1.040100277
1.06602222
1.066638423
1.122596957
1.135504626
1.135957412
1.160212071
1.170933789
1.171510302
1.173979559
1.174048336
1.17444019
1.172212793
1.169309251
1.169566161
0.4490299175
0.509107214
0.5089096829
0.6862906344
0.7422977964
0.7426762759
0.8922978606
0.9348039556
0.9355355561
1.037303136
1.063356451
1.064050607
1.120479014
1.133571359
1.134071827
1.158687655
1.169726826
1.170338072
1.172977961
1.173234755
1.173644709
1.171568546
1.168816054
1.169084274
0.4497019558
0.509398377
0.5093928686
0.6849341192
0.7404125239
0.7409340551
0.8893025265
0.9316434046
0.9324653965
1.034211923
1.060424102
1.061178687
1.11816935
1.131469959
1.132009306
1.157067219
1.168459379
1.169098459
1.171934368
1.1723892
1.172812503
1.170898316
1.16829766
1.168577961
0.4497379701
0.5090542914
0.50919002
0.6830577304
0.7380555532
0.7386811526
0.8859706265
0.9281821274
0.9290707556
1.030895557
1.057284922
1.058086275
1.115704502
1.12923079
1.129802052
1.155365924
1.167143546
1.167803503
1.170856564
1.171517968
1.171950116
1.170203269
1.167748611
1.168038094
0.4493165619
0.5082425691
0.5084801557
0.6808094526
0.7353629093
0.736060931
0.882399048
0.9245049136
0.9254402684
1.02741035
1.053987819
1.054824472
1.113114671
1.126879016
1.127476239
1.153597807
1.165786878
1.166462986
1.169750359
1.170625263
1.17106081
1.169493677
1.167199965
1.167482899
0.448578595
0.5071091995
0.5074125468
0.6783105193
0.7324487172
0.733192204
0.8786706253
0.9206845548
0.9216494518
1.023804577
1.050574626
1.05143674
1.110425839
1.124436467
1.12505455
1.15177294
1.16439143
1.165083076
1.168615343
1.169710445
1.170151761
1.168761258
1.166600382
1.166899538
0.4476497664
0.5057786529
0.5061174257
0.6756660135
0.7294081349
0.7301748855
0.8748555199
0.9167830517
0.9177628388
1.020119693
1.04708128
1.047960104
1.107660311
1.121921756
1.122555946
1.149900493
1.162935399
1.163679126
1.167422231
1.168746718
1.169236062
1.167992529
1.166023447
1.166314373
0.4466134587
0.5043300384
0.5047255763
0.6729165563
0.7262765189
0.7271119475
0.8709802364
0.9128238214
0.9138458907
1.016373867
1.043525044
1.044431037
1.104833306
1.119349504
1.11999641
1.147921537
1.161314948
1.162324358
1.166119656
1.16770684
1.168378564
1.167163191
1.165334679
1.165766478
0.1734042763
0.165530105
0.1704807984
0.07026048554
0.05589575595
0.05757478222
0.0327112171
0.03328804227
0.0412971034
0.1808014587
0.1825062336
0.1916591457
0.1321827916
0.1378344928
0.087178508
0.08462591582
0.06839339388
0.0381134739
0.03623012643
0.02961653793
0.02103614456
0.0199343733
0.03374365514
0.04222609308
0.03918214024
0.07597660091
0.09253614154
0.08993112003
0.0242244311
0.02262991863
0.271589505
0.2545661238
0.2374497763
0.2912423242
0.2725968143
0.2897988054
0.3514462768
0.3337119049
0.31188755
0.3819725226
0.3567344688
0.374366813
0.4556896687
0.4383733293
0.4090631511
0.5035322297
0.469630613
0.4867351258
0.07489319003
0.0717525949
0.05602475538
0.1083763087
0.08948133906
0.09264449891
0.08231798735
0.08574883918
0.1049423009
0.2909807575
0.2646916667
0.2451693206
0.3016489255
0.2806264691
0.3097399806
0.2371577367
0.2566843364
0.2763987625
0.3669054434
0.3381189133
0.3194229954
0.375249059
0.3565436379
0.3850051742
0.3094795057
0.3310417041
0.350644731
0.4434732183
0.4167902639
0.394744473
0.4635940991
0.439330534
0.4650576559
0.3942116381
0.4161165701
0.4403420546
0.5400268204
0.5172222796
0.4889226575
0.5749667367
0.5459050215
0.5693247262
0.5044040476
0.5241002536
0.5538058577
0.1488058066
0.1445188574
0.1099913439
0.1700241173
0.1728629209
0.2065902258
0.4621599954
0.4206763589
0.3879706851
0.4565385486
0.4401914024
0.5018812745
0.3455405806
0.3886177175
0.4079690501
0.5315140571
0.4819184953
0.4685380254
0.5100586282
0.4957124067
0.5421888861
0.4176159194
0.4541329165
0.469788439
0.5821884302
0.542493243
0.526042282
0.5803996096
0.5606916439
0.599116429
0.4946947627
0.5267671676
0.5473068567
0.6605750532
0.6264957758
0.602331009
0.6780524764
0.6513133561
0.6837348533
0.5940202156
0.622106225
0.6474824609
0.08617053958
0.0824731879
0.2242764415
0.2189251224
0.1528519916
0.3453140138
0.2853616226
0.2910443638
0.2764373695
0.2806023969
0.3395279645
0.4907722581
0.4825086172
0.4124377903
0.6241136358
0.5529089085
0.5616414595
0.537851657
0.5450382292
0.6156875399
0.7744963859
0.7220756435
0.6967761069
0.7135999966
0.7142072925
0.7871210197
0.5936449666
0.6506080364
0.6553220009
0.7786999969
0.7235772129
0.7172136752
0.7451264853
0.7329326838
0.7849849532
0.6397126059
0.6845442119
0.6989555998
0.8218261102
0.7770772162
0.7603544844
0.824343229
0.7974409896
0.8419745587
0.7190895377
0.7568034282
0.7825305708
0.1172060349
0.1066477906
0.2601503839
0.2490329953
0.185530306
0.3793082752
0.315925777
0.3270489214
0.2979392709
0.3062006706
0.368890345
0.5349142923
0.5222138372
0.4504262258
0.6660300626
0.5938959335
0.606582206
0.5713613639
0.5821203699
0.6542893855
0.8140495456
0.8036556328
0.7372749307
0.9193758422
0.8646264942
0.8737521484
0.8467394441
0.8555766859
0.9115271873
1.013765236
0.9747812164
0.9673633024
0.963499799
0.9650089286
1.039963897
0.8407658361
0.8998652669
0.9037791053
1.035793436
0.9768510059
0.9672082595
1.011176057
0.9909431073
1.04767033
0.8883436652
0.9387214039
0.9591224749
0.1762215041
0.1594947886
0.3142529475
0.2997790122
0.2408285913
0.4326613613
0.3673330646
0.3819725721
0.339535739
0.3530400462
0.4179673848
0.5916078256
0.5771621739
0.5059631245
0.7174806724
0.6478258265
0.6615909029
0.6199848747
0.6338490862
0.7044559309
0.8539594362
0.8446980375
0.7838979796
0.9486585199
0.8998135423
0.9073849448
0.8827883952
0.8915392291
0.9419628037
1.030620851
1.027239729
0.991074896
1.082927873
1.057580628
1.060221019
1.051150825
1.05458897
1.080528866
1.122944314
1.121271425
1.104008106
1.146295595
1.135205991
1.136647641
1.108124893
1.133667747
1.14496048
0.2407634006
0.2263633403
0.3684646853
0.3564448183
0.2963440392
0.4900267462
0.4239355518
0.4353631959
0.3966677359
0.410725046
0.4767499179
0.6398068143
0.6299791553
0.5617192976
0.7614462065
0.6970956923
0.705998499
0.6746282326
0.6867185305
0.752343746
0.8796185286
0.8752452049
0.8212221169
0.9673788482
0.9239029332
0.9277307976
0.9140720874
0.9196565508
0.9638676815
1.041466587
1.038939347
1.00568694
1.091306147
1.067367475
1.069524743
1.062721878
1.065101461
1.089377782
1.128678431
1.127378757
1.111159843
1.150804419
1.140437073
1.141538465
1.137996237
1.139257723
1.149795419
0.2759016258
0.2714046143
0.3961134309
0.3914095002
0.3301076795
0.5221470511
0.4566144292
0.4611672033
0.4451298862
0.4519741589
0.5172595319
0.6614337515
0.6568692638
0.5904643666
0.7829490253
0.7215745659
0.7260912264
0.712026556
0.7169000556
0.7784260553
0.8953909392
0.8916388428
0.8397998326
0.9801537424
0.9384569362
0.9417971778
0.9314259025
0.9349996886
0.9771330309
1.050504982
1.048399939
1.016748187
1.098039553
1.075379088
1.077138368
1.071576384
1.073526009
1.096495596
1.133087766
1.13209772
1.116796362
1.154154387
1.144402749
1.145222179
1.142564216
1.143517686
1.153414639
0.2919504517
0.2879440646
0.4145747872
0.4099925738
0.3482635205
0.5408935312
0.4748228874
0.4793794818
0.4657184809
0.470268834
0.5362744893
0.6787514232
0.6745403131
0.6082590257
0.7994736425
0.7387988171
0.742796695
0.7304589501
0.7346894736
0.7955695897
0.9090522439
0.9058480288
0.8553160552
0.9911157556
0.9510860482
0.9539299549
0.9450168844
0.9481134378
0.9885447662
1.057948643
1.05623339
1.026086973
1.103365853
1.081867981
1.083268411
1.07880476
1.080380322
1.102157341
1.136371874
1.135647919
1.121146355
1.156540163
1.147308282
1.147888422
1.145977772
1.14667202
1.156024909
0.3081284006
0.3040546823
0.4327900081
0.4282579457
0.366127735
0.559040132
0.4930217831
0.49754089
0.4839343489
0.4884830646
0.5545545195
0.6949084317
0.6909799923
0.6255425264
0.8137175348
0.75416597
0.757754332
0.7466876495
0.7504761759
0.8103540517
0.9203704845
0.9177721923
0.8684483701
1.000188972
0.9616304451
0.9639084048
0.9566379984
0.9592057008
0.9981108569
1.063820345
1.062504228
1.033707984
1.107419406
1.086941699
1.087991372
1.084580534
1.085804693
1.106521314
1.138676084
1.13818527
1.124358998
1.158122416
1.149311603
1.149687854
1.14841417
1.148887597
1.157794094
0.3244736368
0.3203985785
0.4505279954
0.4461832471
0.383755497
0.5764098314
0.5108283158
0.5151139794
0.5020250352
0.5064587205
0.5721810339
0.7096170327
0.7061197601
0.6419271519
0.8258442982
0.7678204003
0.7709137998
0.7612315201
0.7645891664
0.8230204584
0.9291810631
0.927218042
0.8791761516
1.007138602
0.9698241837
0.9714904228
0.9660339813
0.9680054752
1.00561027
1.068048064
1.067147068
1.039457372
1.110266236
1.090610527
1.091310476
1.088952254
1.089824776
1.109664706
1.140117818
1.13983262
1.126536482
1.159038832
1.150546396
1.150748475
1.150017891
1.150303247
1.158865585
0.3402629443
0.3364288848
0.4668077181
0.4629423755
0.4004370745
0.5920899075
0.5272477172
0.5309928215
0.5192917313
0.5233413188
0.5883915154
0.7220341302
0.7191901534
0.6564464576
0.8355949111
0.7792440476
0.7816814293
0.7738543542
0.7766327382
0.8334004462
0.9354636915
0.9341242236
0.8874003514
1.011877632
0.9755849704
0.9766632323
0.9730034083
0.9743664017
1.01089384
1.070657522
1.070149011
1.043276295
1.111975402
1.092907563
1.093281482
1.091924975
1.09245626
1.111649249
1.140799132
1.140694761
1.127771153
1.159395925
1.151121813
1.151173608
1.150910799
1.151034525
1.159354041
0.3543433907
0.3510402189
0.4805228756
0.4773763092
0.4150415456
0.605036402
0.5411201457
0.5441040173
0.5345594327
0.537936853
0.6020945737
0.7315161019
0.72943394
0.6681514409
0.8426935493
0.7879071355
0.7896247893
0.7839377556
0.7860120902
0.841170278
0.9393919679
0.9386146655
0.8930843729
1.014595866
0.9790999736
0.9796674616
0.9776043225
0.9784142089
1.014088449
1.071834208
1.071660492
1.045335728
1.112667278
1.093966428
1.094061368
1.093580196
1.093807177
1.11258122
1.140822011
1.140872157
1.128172615
1.159277263
1.151129863
1.151053842
1.151191306
1.151176023
1.159346992
0.3658672861
0.3632488706
0.4911395802
0.4887780218
0.4267981017
0.6147708805
0.5518326577
0.5540104228
0.5468830449
0.5494576893
0.6126394702
0.737997603
0.7366439608
0.6766907569
0.8472074744
0.7937417476
0.7947913684
0.7911656969
0.792535468
0.8463059781
0.9412933407
0.9409870224
0.8964256123
1.015632184
0.9807132762
0.9808649568
0.9801210565
0.9804673167
1.015511072
1.071840696
1.071934142
1.045937383
1.11250598
1.093991864
1.093862621
1.094094783
1.094070336
1.112616791
1.140295999
1.140473036
1.127873117
1.158759891
1.150660838
1.150479492
1.15094945
1.1508178
1.158922222
0.3745893478
0.3726647203
0.4987589468
0.4971153201
0.4355451605
0.6214276599
0.5594149
0.5608704767
0.5559943046
0.5577925566
0.620028821
0.7418390184
0.7410972366
0.682278332
0.8494840849
0.7970673323
0.7975652381
0.7956894639
0.7964449505
0.8490998403
0.9415637346
0.9416268078
0.8977943004
1.01534503
0.9808080552
0.9806387085
0.9809270965
0.9809060251
1.015522428
1.070936913
1.071235335
1.045397293
1.111662834
1.093199168
1.092896256
1.093685293
1.093463087
1.111928881
1.139326716
1.139605417
1.127008276
1.157916279
1.149802122
1.149535748
1.150275188
1.150048858
1.15815388
0.380754129
0.3794266733
0.5038267981
0.502766773
0.4416107797
0.6255083049
0.5643278519
0.5652126652
0.5621673309
0.5633161303
0.6246954569
0.7435981602
0.743321465
0.6854404966
0.8499982971
0.7983917538
0.798473906
0.79794589
0.7982184128
0.8500083186
0.940600337
0.9409369667
0.8976290406
1.014059024
0.97975025
0.9793438256
0.9804024391
0.9801045935
1.014458627
1.069343611
1.069796406
1.043994535
1.11028783
1.091776677
1.091341026
1.092556535
1.092182539
1.11067447
1.138003443
1.13836332
1.125696669
1.156808537
1.148629267
1.148294355
1.149250899
1.148948308
1.157107059
0.3848787546
0.3840080501
0.5069433557
0.5063150278
0.4455647606
0.627641646
0.5671976609
0.5676665673
0.5659795045
0.5666380568
0.6272579596
0.7438391295
0.743894171
0.6867896747
0.8492194634
0.7982424297
0.7980284764
0.7984715464