/*--------------------------------*- C++ -*----------------------------------*\
| =========                 |                                                 |
| \\      /  F ield         | OpenFOAM: The Open Source CFD Toolbox           |
|  \\    /   O peration     | Version:  v2012                                 |
|   \\  /    A nd           | Website:  www.openfoam.com                      |
|    \\/     M anipulation  |                                                 |
\*---------------------------------------------------------------------------*/
FoamFile
{
    version     2.0;
    format      ascii;
    class       volVectorField;
    location    "2.6";
    object      U;
}
// * * * * * * * * * * * * * * * * * * * * * * * * * * * * * * * * * * * * * //

dimensions      [0 1 -1 0 0 0 0];


internalField   nonuniform List<vector> 
3259
(
(99.9973947 0.3830939886 0)
(100.0002043 0.4013939981 2.799243239e-22)
(100.0031317 0.3826111893 -9.250336285e-22)
(100.0048315 0.3346061427 7.685375278e-22)
(100.0052871 0.2724663574 0)
(100.0051656 0.2097840863 1.435069826e-21)
(100.0050267 0.1529177454 5.930354179e-21)
(100.0027118 0.1099633886 -1.710778608e-21)
(100.0115894 0.1285810577 -1.498788016e-20)
(100.0082226 0.08040387129 0)
(100.0062375 0.04347572905 -1.90021965e-21)
(100.006056 0.01387291802 -1.340103604e-20)
(99.87423393 1.728073406 -3.976278977e-21)
(99.9590121 1.829939432 -5.669064192e-22)
(100.0482818 1.760822424 -3.366865232e-22)
(100.1120261 1.547054478 3.944086512e-21)
(100.1367933 1.25976607 -8.272765159e-21)
(100.1293395 0.9723693906 0)
(100.1455384 0.7517354324 -2.547845898e-20)
(100.1072182 0.5234587257 4.946861225e-20)
(100.1087238 0.368936926 1.451485012e-20)
(100.0786875 0.229924727 3.015948771e-20)
(100.0605371 0.1245660825 -3.024873012e-20)
(100.0536382 0.03972549954 1.530213141e-20)
(99.63841622 3.390521479 4.928794556e-19)
(99.97639628 3.609085189 0)
(100.295487 3.443607814 0)
(100.5036502 2.985457844 -8.885092417e-21)
(100.5712982 2.39328338 -8.969048022e-21)
(100.5288994 1.800415904 -2.213978894e-20)
(100.4853656 1.296216892 -1.527514195e-19)
(100.3666322 0.8888844756 -3.442016303e-20)
(100.303793 0.5631936906 -1.498773202e-20)
(100.2214952 0.3498143881 3.411491508e-20)
(100.1711221 0.1892258983 -3.846536159e-21)
(100.1490712 0.06000775686 0)
(99.27146698 5.492626649 -4.382227345e-19)
(100.1482193 5.756204933 0)
(100.8620897 5.313862479 7.195328784e-19)
(101.2377697 4.473199415 1.175568e-18)
(101.3168053 3.474608219 0)
(101.1968972 2.541609548 0)
(101.0199273 1.737624833 5.641585142e-20)
(100.7625831 1.162794407 -4.408577915e-20)
(100.5795072 0.6885046818 -3.853337289e-20)
(100.4233742 0.4211748956 1.958161997e-20)
(100.3261031 0.2258635185 -3.937804228e-21)
(100.281507 0.07108790882 0)
(98.8275957 8.425618585 1.189950128e-18)
(100.8455431 8.54020424 -5.316375356e-20)
(102.1452592 7.382617125 -1.104122465e-20)
(102.5980632 5.85380382 2.570145089e-20)
(102.512004 4.391244763 0)
(102.1423899 3.080586324 -6.896678835e-22)
(101.7283008 1.997866752 -9.539015187e-20)
(101.272772 1.30004314 7.977215178e-21)
(100.9037056 0.7105023543 0)
(100.6552647 0.4291313055 4.039688249e-21)
(100.4998064 0.2259515137 -3.033092808e-21)
(100.4272348 0.07028219837 -1.006812296e-21)
(97.91596527 13.0124974 0)
(102.7183729 12.45933362 0)
(104.7295769 9.427376241 3.397112153e-18)
(104.8169656 6.823741871 1.646736699e-19)
(104.2086847 4.863033662 1.251377045e-18)
(103.382888 3.297049475 3.345522499e-19)
(102.547605 1.988582969 2.467301371e-20)
(101.8400534 1.255209146 -1.665150531e-20)
(101.2397915 0.6122311748 0)
(100.8835364 0.3617815148 0)
(100.6632364 0.1830932597 -1.026940582e-21)
(100.5599454 0.05586800498 -3.091549426e-21)
(93.74961879 21.60409632 0)
(108.0071659 18.25145136 0)
(109.2531115 10.75356579 -2.730093372e-20)
(107.8895576 6.835940623 0)
(106.3040374 4.550003136 0)
(104.7797608 2.970477073 3.290505909e-19)
(103.382781 1.632911735 0)
(102.3873911 0.971061514 9.293132443e-21)
(101.5342714 0.3901409179 2.724295674e-21)
(101.0684078 0.211140712 -3.217152248e-21)
(100.7860366 0.09567378278 -3.662757022e-21)
(100.6527685 0.02765040762 8.789197349e-21)
(121.8564221 21.6655958 0)
(115.5719814 9.154936916 4.51391025e-21)
(111.2558044 5.113516654 -2.265118145e-20)
(108.3516449 3.18884343 -1.160801231e-18)
(106.0746705 1.959686985 1.916569811e-19)
(104.0717827 0.8985191683 -5.005881305e-21)
(102.8077926 0.4589275149 2.108451628e-20)
(101.7242373 0.05065582421 -3.345778035e-21)
(101.1686325 -0.0128786967 2.732390165e-21)
(100.8374506 -0.03063906123 -5.361953861e-22)
(100.6790268 -0.01292506239 -8.295330227e-21)
(134.5821547 7.484219559 -2.483408336e-18)
(120.1565269 3.095216644 0)
(113.5619132 1.537776901 0)
(109.6970027 0.8176508134 -1.076916977e-18)
(106.8984177 0.3739128586 -8.485240073e-19)
(104.4433687 -0.1306133886 -5.172373193e-21)
(103.0005541 -0.2316111564 1.196708959e-20)
(101.7601516 -0.3729910774 1.160264973e-21)
(101.1512349 -0.2887482745 0)
(100.7914276 -0.1839588025 4.199126922e-21)
(100.6167595 -0.06236551989 4.144002725e-21)
(132.5789591 -8.018663825 4.329429289e-18)
(120.1448898 -4.253832578 0)
(113.7478635 -2.771696464 0)
(109.8343612 -1.980608625 -1.680961551e-18)
(106.9835515 -1.486392126 6.400067295e-19)
(104.3821686 -1.293553346 4.399594735e-20)
(102.9051064 -1.00638847 0)
(101.6124233 -0.830100414 -1.139830488e-21)
(100.9971739 -0.5852743772 -4.676924001e-21)
(100.6326272 -0.3484654643 5.213302652e-22)
(100.4531097 -0.1155999713 0)
(124.3977638 -16.75007087 3.261671918e-18)
(116.6804059 -9.775684373 1.351318573e-18)
(112.0125043 -6.439370719 -5.959322237e-19)
(108.8285818 -4.522200113 -2.111903969e-18)
(106.3140014 -3.243488819 -1.978419408e-19)
(103.8763143 -2.389813465 0)
(102.5195526 -1.74948772 -2.858961451e-20)
(101.2787862 -1.264767626 -1.417825195e-20)
(100.7044155 -0.8683609833 1.063049492e-21)
(100.3587298 -0.5067793798 -3.362743032e-21)
(100.1858167 -0.1670670654 4.927751195e-22)
(115.5405751 -19.99313117 1.043996142e-18)
(111.8556305 -12.64218263 0)
(109.1626965 -8.770632212 9.632366776e-19)
(106.9898139 -6.336131165 9.051157574e-19)
(105.0571725 -4.585774874 1.729679831e-19)
(103.0183033 -3.261570529 2.274991141e-21)
(101.891345 -2.368557285 -3.457408292e-20)
(100.7874096 -1.633988541 8.3948216e-21)
(100.2888259 -1.108869564 0)
(99.98018651 -0.6438045414 3.875624526e-21)
(99.82319274 -0.2118978221 0)
(136.6410936 10.56397851 3.206561727e-19)
(122.8174434 24.38413366 -2.451953624e-18)
(135.3631633 -7.168427829 -6.08934721e-19)
(137.2847906 8.054194089 -4.279533344e-19)
(126.5694532 -17.25556692 0)
(134.4775573 -8.890029331 -2.811373653e-18)
(117.0449219 -21.01680053 0)
(125.358786 -18.00898309 -6.474873094e-21)
(115.8968571 -21.16998532 0)
(92.07293501 20.3126368 -9.813693262e-19)
(119.8789451 24.8731284 -6.92253862e-19)
(106.1621901 19.80676313 0)
(144.0165684 29.17476306 0)
(124.5719184 42.20214601 1.578007098e-18)
(133.9322279 9.691057446 2.172394184e-18)
(121.7746867 5.871797518 -1.654728081e-18)
(117.0423256 10.90240847 1.252864793e-18)
(147.9004014 -2.209965627 -2.06712133e-18)
(149.9153903 10.66959086 0)
(133.3270703 -6.419330319 2.146418701e-18)
(122.9881944 -2.9003908 -1.574328673e-18)
(122.6536831 3.712288274 8.1206931e-20)
(135.6919707 -19.17051209 0)
(142.1421453 -13.02549458 -1.973721917e-18)
(125.5136205 -16.0096862 0)
(119.4891489 -9.825347186 -2.866444085e-18)
(122.4411862 -4.909580845 1.70191026e-18)
(123.561464 -25.12913403 0)
(128.7572082 -23.26005712 2.54560891e-18)
(108.3850515 -30.96270187 5.278414864e-19)
(112.3778088 -26.00940969 7.903901841e-19)
(117.1888732 -26.19095016 -5.346125296e-19)
(149.9016908 11.6633319 0)
(144.7688526 28.08973642 0)
(132.7327272 17.87281919 9.024234843e-19)
(143.285416 26.41711517 -2.614234322e-18)
(148.8158836 11.60036861 -2.224876491e-18)
(142.537808 -12.48657472 0)
(147.6510289 -2.959270058 3.072030012e-18)
(136.781418 -0.727524449 -2.192618696e-18)
(147.0071172 -2.65966722 -4.022224813e-18)
(142.1637522 -12.08190701 -2.447881146e-20)
(148.8737954 10.63005694 2.239325532e-18)
(147.2415624 -1.928576494 3.995947926e-18)
(136.9158815 0.350374572 2.204999157e-18)
(129.5162788 -22.90263518 4.440785488e-19)
(135.2531638 -19.50666354 0)
(130.1442271 -14.39873117 7.590012169e-20)
(134.7919892 -18.94330468 4.041680438e-18)
(129.2914519 -22.13026706 -1.698661664e-18)
(141.7799987 -12.6168523 0)
(135.6361233 -18.34094195 -4.073472778e-21)
(131.2987702 -13.22204729 -4.689592069e-18)
(117.8862839 -26.1425087 -1.642345952e-18)
(122.8356615 -25.31453266 -6.742578637e-19)
(106.1881061 -30.85272916 6.98139061e-19)
(105.8266214 -30.72735641 2.649069651e-19)
(111.6973933 -25.97480696 3.651739514e-19)
(108.3279125 -30.95652759 -6.741727102e-19)
(147.3725096 52.05204172 -4.883742934e-18)
(121.9158533 63.73301763 -7.390009554e-19)
(122.2670204 -26.59979828 -2.370109796e-18)
(116.6137702 -19.81720578 0)
(114.0620025 -13.53713073 5.243207268e-19)
(118.2208425 -11.05367588 -1.399269908e-18)
(104.8459469 -29.63599657 -6.604264443e-18)
(114.5182036 -29.19546099 0)
(116.9414177 -28.99379248 8.983094391e-19)
(124.271315 38.69822836 -1.714851589e-18)
(141.8222724 28.54539817 2.27822202e-18)
(130.7061221 20.0173278 0)
(117.3042557 -28.92494768 -4.57083077e-19)
(119.7225025 -28.61979116 0)
(120.5666526 -20.15982281 2.828956792e-18)
(122.6894445 -24.56572917 0)
(117.8031218 -25.39637505 1.080341305e-18)
(128.541374 -22.48370643 -1.654596098e-18)
(123.405252 -24.3732307 0)
(121.7573366 -19.73563436 1.400877641e-20)
(84.15848825 29.62806669 0)
(120.9237871 42.10819926 -1.587232235e-18)
(104.397539 33.63407758 1.709735144e-19)
(86.50110109 32.18543182 4.98976775e-20)
(148.7772865 49.03701798 0)
(137.8345504 37.09751317 3.1115034e-19)
(147.566248 48.94626521 -1.004721109e-17)
(122.2468302 59.50354226 7.605263789e-19)
(145.3887989 51.36600955 5.0107122e-18)
(134.9416639 38.97411161 0)
(149.0900751 3.397365789 7.215859277e-18)
(149.2461474 4.247980574 -2.417087397e-18)
(138.7592131 -16.71834766 -1.833602402e-18)
(139.1976219 -16.29566307 2.749246472e-18)
(122.3956644 -27.99269626 0)
(122.8692876 -26.75595396 6.531308119e-20)
(125.7622783 -24.45770373 -3.110636499e-18)
(124.9830761 -26.76789876 9.660811152e-19)
(123.0158684 -27.65373302 -1.201821621e-18)
(125.891657 -25.34755085 6.697326112e-18)
(125.0663011 -26.65458899 -1.63480174e-19)
(126.5038239 -24.19291793 -7.884047205e-19)
(111.6617357 -28.92097484 0)
(113.8100784 -29.16831636 2.377756929e-19)
(105.9261139 -29.88640402 9.815690554e-20)
(148.5969943 18.92637505 0)
(148.2894416 20.05440379 -1.116373251e-18)
(145.0599926 -8.31946433 -1.132523651e-18)
(145.3855324 -7.681569056 0)
(144.9323625 -7.375631825 -1.066044252e-18)
(140.820201 -5.288556208 0)
(141.9385111 -1.68608912 0)
(138.7875456 -9.53298487 -7.360665498e-20)
(140.3653445 -6.415893615 -2.429671795e-18)
(144.6171229 -8.011787369 -2.121110203e-18)
(148.527283 4.376725803 0)
(142.7957457 5.109683172 -4.818675319e-20)
(142.5082242 9.604056718 2.515988086e-18)
(142.2175621 -0.3989003678 -2.55227082e-18)
(142.7407657 3.681314626 2.536515903e-18)
(148.4004804 3.533382866 -2.314640792e-18)
(131.9744045 -21.45278051 2.009257969e-20)
(126.2023043 -25.09194305 -9.197105082e-19)
(132.372374 -21.19208199 -1.470064605e-18)
(122.6618027 -27.74061121 -1.151348537e-18)
(120.2626762 -28.20518011 0)
(120.6928351 -25.76917698 6.123780217e-19)
(120.0439526 -28.56001261 1.039918271e-18)
(122.0965251 -28.09760684 0)
(102.3130183 -29.30083149 1.392285675e-17)
(110.9426222 -28.79796321 7.73792156e-19)
(115.1484252 84.79333539 0)
(114.0526101 -30.32073655 -1.728752074e-18)
(114.5089765 -30.06253013 1.126334246e-21)
(41.53275068 5.259798818 6.446712861e-18)
(114.3988545 -29.91730753 2.430939011e-19)
(113.9210368 -29.41667434 -1.688018716e-18)
(69.99956056 39.66760919 0)
(117.3260447 62.67508818 0)
(98.96192176 49.57347439 1.484864059e-19)
(76.35513206 46.47928407 8.821806879e-20)
(148.4891068 0.1369113806 0)
(152.4137568 10.5241594 0)
(151.8991094 7.400520758 1.483331148e-18)
(149.7586296 7.804267755 1.7621258e-18)
(136.9913316 -18.23147374 2.225819969e-20)
(137.1476687 -19.68063575 1.776455737e-18)
(135.8920289 -20.57507179 1.832217773e-18)
(142.2736566 -14.42362178 -4.961215091e-18)
(140.8343233 -16.00533143 -2.205234683e-18)
(140.9126021 -14.52452729 9.120750636e-19)
(149.5407269 14.69678919 0)
(152.304466 14.83737785 0)
(152.577435 11.59631395 0)
(147.1863587 19.64481697 4.448132543e-18)
(140.1365923 17.58323387 -1.397818221e-20)
(137.2442718 22.35458909 0)
(142.2403246 11.16883655 -1.229633681e-18)
(140.8322736 15.95765223 4.870594769e-18)
(147.4645174 18.58075615 0)
(143.6750418 -10.78040249 0)
(144.0900405 -12.03283396 0)
(142.7505135 -13.86904981 1.26086195e-18)
(146.7578461 -5.114808432 2.037973214e-18)
(135.4383385 -20.87759951 9.141680283e-19)
(134.0754839 -21.66043946 -1.61549358e-18)
(133.9872285 -20.25894048 1.553290719e-18)
(132.3653447 -20.48404251 4.836248353e-19)
(130.6974456 -18.10177084 3.985042868e-20)
(132.8074452 -16.50533092 -3.785430712e-18)
(138.9364352 -15.85608762 0)
(136.2826075 -13.06538841 -4.30001749e-18)
(138.1967665 -10.48598616 1.623430442e-20)
(133.5139466 -15.90121235 0)
(135.6058909 -13.83930379 4.114595729e-18)
(138.5145737 -16.27606142 -1.742701731e-18)
(119.989416 -25.88766609 -2.403291236e-18)
(119.9215463 -28.26782413 0)
(117.655765 -28.37500809 2.992825929e-19)
(103.5692286 -29.99641854 -5.015664565e-18)
(138.620979 60.64894379 0)
(117.1751993 81.29226849 -3.856200491e-18)
(134.803476 62.93529243 0)
(123.4749437 -26.12642483 7.43796307e-18)
(123.7397835 -25.99387361 1.413720789e-17)
(113.2541537 -30.39375195 -7.194959723e-21)
(113.9160677 -30.32618515 1.760270969e-20)
(104.6524744 -29.2260745 2.656435735e-17)
(54.11922185 -9.871429774 0)
(48.20018847 5.443250911 0)
(57.45485272 -11.40656263 -4.382090527e-18)
(115.9812128 -29.04037963 -1.893750686e-18)
(116.355342 -29.50489482 -5.177981162e-19)
(118.7005477 -28.77486392 0)
(113.1705741 -29.11586444 1.090323802e-18)
(112.7293277 -28.64421205 1.594989492e-18)
(151.0722119 41.38858136 -9.790636363e-18)
(146.2252532 38.88078776 0)
(141.5035231 43.25407707 -2.054900065e-18)
(150.268131 32.81096406 0)
(147.4726189 37.36322395 -1.13068428e-18)
(139.6804572 44.65167514 0)
(133.3970296 48.20713755 0)
(137.2169137 57.22615667 -1.960419405e-18)
(150.6761918 2.804566992 1.510375801e-18)
(149.6293222 0.196124083 1.054010215e-17)
(148.6327083 0.9260088881 0)
(149.6568417 6.883653977 -1.352901516e-18)
(151.6646243 6.414358405 3.322866826e-20)
(150.9315817 3.68458731 -3.511868575e-19)
(139.0950058 -18.06040348 -4.259078542e-18)
(137.6194789 -19.32319133 3.793633957e-18)
(137.4360519 -17.88384346 3.439169102e-18)
(136.6249949 -19.86689628 3.365431648e-18)
(138.3534856 -18.57983056 0)
(135.3690506 -20.95935124 -9.906409093e-19)
(136.1291654 -20.23231223 0)
(138.8475211 -18.02476814 -1.029871324e-17)
(140.4908143 -14.98186773 -9.091146176e-19)
(140.3349896 -16.42337637 0)
(139.553421 -17.58238413 0)
(122.7807799 -27.63331046 1.950811942e-18)
(122.9312664 -27.44499067 5.449843178e-21)
(124.2627089 -27.27875146 -3.804578521e-18)
(124.9009486 -26.09539274 1.210712423e-18)
(125.9985645 -25.78326798 -1.266449362e-18)
(125.9866112 -25.96591813 -1.201343809e-18)
(127.8688807 -25.05218327 -6.811740586e-19)
(128.9948007 -24.56878763 2.36559258e-21)
(126.3630971 -25.61357928 1.254667734e-18)
(127.4917918 -25.2060641 0)
(125.7980972 -26.15224483 0)
(107.4404459 -30.65027971 0)
(112.0496153 -30.34103966 -7.285865183e-19)
(112.9714003 -30.37832426 -3.958479483e-19)
(152.215454 19.67697785 -2.547801186e-18)
(152.2829148 16.07036161 2.852784423e-18)
(149.3467035 15.71987124 -4.541236576e-18)
(152.9459478 16.08753836 -7.347039943e-18)
(153.085648 19.71860486 6.063801964e-18)
(152.7510881 14.79764816 0)
(152.1150292 26.68338797 -5.542063931e-18)
(150.9784296 31.24105333 -4.608918967e-18)
(153.1113968 20.9502417 2.774101409e-18)
(152.345595 25.26211037 -2.684576101e-18)
(147.1024563 23.41491098 0)
(151.2758932 24.87678277 4.992277279e-18)
(152.1428473 20.93182747 0)
(145.6918015 -9.381742711 -5.467076603e-18)
(144.5201294 -11.38332546 5.277323349e-18)
(144.0362998 -10.18277735 -2.155228011e-18)
(146.4120173 -5.777829314 -1.784626344e-20)
(146.8458594 -6.865930789 8.08296481e-17)
(146.0184538 -8.690782386 -9.874429797e-18)
(130.8195406 -23.66305218 1.469576592e-18)
(131.9465616 -23.09752724 0)
(129.3771436 -24.39618294 -2.901317736e-18)
(130.4831254 -23.82953206 -1.48451345e-18)
(126.5964218 -24.4260316 0)
(133.6324592 -22.02123731 0)
(134.971547 -21.26103205 -9.893988937e-19)
(132.3110438 -22.86758888 0)
(133.2383699 -22.26218776 -1.649882155e-18)
(112.1208399 -28.41128437 -1.885027104e-17)
(121.0216495 -28.37813188 1.115280696e-18)
(115.1600337 -28.24198776 0)
(115.3093708 -28.76256883 0)
(115.3352473 -28.12551546 0)
(121.3183424 -28.2865292 0)
(102.4169854 -29.73302646 7.525281664e-18)
(119.3957902 22.17823512 0)
(115.0275273 11.80683062 2.163066206e-18)
(109.4040175 12.23001407 -3.626645759e-19)
(107.9679639 -29.35659938 4.948463577e-18)
(108.2209496 -29.27221046 0)
(112.642975 -13.99692688 -1.557771885e-18)
(107.5961478 -29.03306827 0)
(117.1206914 -25.45865926 5.222767589e-19)
(112.7475922 -25.04028745 -1.141634712e-18)
(112.5381173 -21.26639208 4.632558834e-19)
(55.86864537 50.09824131 0)
(55.16396912 27.34784976 5.705618248e-18)
(43.52781649 14.30498538 -1.924272067e-17)
(102.1897075 88.12893521 -4.032191159e-18)
(88.26538067 66.99601199 -1.850364042e-18)
(62.19302007 58.91103041 -1.914027131e-19)
(112.310892 23.64787488 -4.371172339e-19)
(107.6478562 31.17513982 1.260619328e-19)
(121.1514609 38.71772571 0)
(141.3532657 32.78347819 0)
(145.5530549 36.08476939 0)
(148.5407172 31.84905621 0)
(110.6924734 -30.16610455 -1.318920872e-18)
(111.7126282 -30.35801737 3.555150488e-19)
(107.8293637 -30.73013563 7.10241761e-19)
(116.9418735 -28.43138234 0)
(114.7997911 -28.43013354 0)
(115.1096815 -26.23040275 -4.76825918e-19)
(149.3479419 30.45807044 2.303408464e-18)
(150.9003348 26.21434904 -6.137093945e-19)
(146.6036814 24.52166291 -1.140146756e-18)
(102.5152628 -30.2131474 -3.721507461e-19)
(105.3625672 -30.64017955 0)
(100.3589741 -29.676243 3.014621317e-18)
(101.4659567 -29.88708185 -7.441674572e-20)
(110.3335398 -30.15280165 3.249596159e-19)
(145.4164092 54.77945528 1.236838654e-18)
(122.6897005 -26.44583633 -3.072463551e-18)
(109.6263182 -30.47863408 -8.348479054e-19)
(109.4189864 -30.28760512 -9.636189547e-21)
(105.2625154 -29.54160506 0)
(115.8670642 -29.94443507 1.901027221e-18)
(115.0069283 -30.05488769 0)
(115.8838655 -28.98112863 1.264338788e-18)
(135.9807447 23.87137277 1.063085758e-18)
(131.2903392 27.82372215 9.895168161e-19)
(135.8063392 34.39958635 0)
(118.3593723 -28.86540142 4.866306816e-19)
(116.4577984 -29.64635557 -7.762757614e-19)
(116.0612239 -29.89063202 1.453996747e-18)
(111.7602897 38.83365591 0)
(103.6811339 47.00036644 0)
(118.5130761 58.8384388 0)
(149.209688 46.48122438 8.729039685e-18)
(147.1720048 45.5579167 0)
(145.3895361 47.63348455 0)
(152.4148462 33.33985328 0)
(152.1233353 35.44499746 0)
(122.6271217 -27.84563435 6.324907896e-19)
(120.7457567 -27.86574451 -6.835833495e-19)
(120.6981065 -28.04348979 0)
(120.2749474 -26.59594886 1.739393368e-17)
(120.8281707 -26.88065505 4.013761679e-18)
(123.2593166 -27.0125132 0)
(123.4195448 -26.50154619 2.271929229e-18)
(124.521314 -26.24880115 -1.192542778e-18)
(123.9439788 -27.38334469 -6.138168045e-19)
(125.4054265 -25.60860096 5.812794311e-18)
(127.7458597 -25.47712488 1.053115699e-18)
(127.9623616 -25.23564453 0)
(106.904794 -30.22999373 -4.316218979e-19)
(110.2201714 -30.69785374 1.187695625e-18)
(109.957878 -30.55781375 -1.983717003e-19)
(129.0642578 -23.76223255 0)
(129.535836 -23.56151306 0)
(128.25468 -25.02245618 0)
(128.5865122 -24.81566045 -3.379778139e-18)
(126.6173542 -24.88786317 4.944019563e-18)
(129.8365112 -23.33104425 0)
(129.577411 -23.0553596 0)
(133.5710848 -20.54989105 -1.546104437e-18)
(133.6577429 -21.89282463 1.567312156e-18)
(132.4888947 -22.46714444 -1.947395251e-18)
(102.9489928 -29.55769842 4.779610113e-18)
(107.184701 -29.561477 2.720099671e-18)
(107.6329417 -29.45200222 0)
(111.7391443 -29.75132152 -9.436801062e-19)
(111.8288682 -29.94906788 0)
(114.4169743 -30.20314947 -4.896823702e-19)
(42.91914623 -1.11306851 0)
(32.91031342 8.416476325 2.888422375e-18)
(45.73389922 -6.751220403 0)
(114.217081 -29.8279864 -5.130299816e-19)
(110.0745267 -29.22591536 3.552369061e-18)
(110.99718 -29.45275106 1.042426195e-19)
(110.5320308 -28.962804 4.567107403e-18)
(110.5134941 -29.08559416 -4.894024842e-18)
(114.1068006 -29.62505659 1.061202794e-18)
(106.9117542 57.71729452 -3.982894644e-19)
(94.76169058 64.7461111 4.042899663e-18)
(109.3897122 79.93047023 1.568923969e-18)
(149.2585587 -1.262549021 1.245858015e-18)
(149.4211039 -0.466587964 8.631508388e-18)
(148.7231886 -2.78393442 0)
(149.0099953 -2.024403798 -3.904972834e-18)
(152.2487452 9.476559503 0)
(151.587731 9.613963715 2.533620269e-18)
(151.7118818 10.63343452 -2.474939143e-18)
(151.2982726 7.617566162 0)
(151.453335 8.609433443 0)
(152.0853659 8.439213889 0)
(141.801079 -14.99685142 -1.227280008e-18)
(142.2698652 -14.41429563 0)
(142.7022539 -13.86799512 4.311213848e-18)
(141.3767969 -15.43198768 0)
(141.8260532 -14.9462254 -1.98496607e-18)
(141.3018288 -15.5490823 7.095068684e-18)
(152.5244368 13.80437342 2.387511029e-18)
(151.7493589 13.89978407 -5.652112083e-18)
(151.6098514 14.9741565 0)
(151.8096257 11.68516472 -7.432063477e-20)
(151.8317463 12.78462341 -1.856261167e-20)
(152.6442825 12.71927647 -1.357936827e-18)
(143.6533984 -12.63155056 -1.29509236e-18)
(143.9339764 -12.11697364 0)
(144.3265324 -11.51229175 0)
(143.1276302 -13.30722006 2.203904276e-18)
(143.5373645 -12.71603928 -2.232097474e-18)
(143.2151028 -13.25760967 -3.887899307e-18)
(148.173171 -4.417525696 -1.948914644e-18)
(148.459821 -3.578620887 3.983495828e-18)
(147.4345927 -5.862247552 2.881326572e-17)
(147.8394897 -5.177428164 -2.475528166e-18)
(98.31810372 -29.40176132 4.310595125e-18)
(99.69277161 -29.36173963 -2.769340978e-17)
(100.5616895 -29.61153775 2.01782789e-18)
(104.7374617 -30.35233623 1.913376852e-19)
(97.6626872 -29.1812088 0)
(140.9425475 62.46344898 0)
(144.4820931 58.36948863 0)
(142.6290633 57.84132039 -1.798851146e-18)
(127.7973357 75.61593832 -2.785873241e-18)
(126.7505923 73.6288608 0)
(119.275845 75.58394694 0)
(138.3343803 65.96811883 0)
(133.0220089 69.85558936 -1.173317944e-18)
(123.02106 -26.27936326 0)
(123.3949063 -25.77123776 -6.243168159e-18)
(105.3095486 -29.45400021 2.589289447e-18)
(109.1436187 -30.08658911 -4.673097264e-19)
(108.22228 -29.7827482 3.677170538e-19)
(51.13551697 -6.793726489 0)
(112.2675172 -28.89629445 -2.140959463e-18)
(109.8975844 -28.71744033 -4.448757637e-18)
(112.6939898 -28.76235744 -1.678328715e-20)
(150.0568434 41.17371945 -1.594190246e-17)
(148.7444945 43.48552189 0)
(150.3740411 44.11867436 8.346550628e-18)
(149.4460239 34.27037324 0)
(151.0020902 35.09322614 0)
(151.6510597 33.21156488 0)
(151.687885 37.18022992 0)
(151.0621851 39.10859681 1.933134968e-17)
(150.3927697 1.971581726 3.122839388e-18)
(150.0919195 2.244842634 5.425420252e-18)
(150.2973783 3.093292056 -3.362928105e-20)
(149.5771563 0.3805650471 -2.392154636e-17)
(149.9514555 1.423508711 -1.053467247e-17)
(150.1394913 1.212986975 -1.075198603e-17)
(151.4106125 5.493950238 8.783233099e-21)
(150.9088779 5.734354496 3.294861535e-18)
(151.1133152 6.655395197 6.483940951e-19)
(150.5001316 3.956652406 3.272008468e-19)
(150.70402 4.83789115 -7.688179793e-19)
(151.1719007 4.582173089 2.2322449e-18)
(138.6149128 -18.52368102 1.242619086e-17)
(138.7071703 -18.10698415 -5.880830339e-18)
(139.1785144 -17.66857707 4.059301175e-18)
(137.1948038 -19.4842851 -7.970411575e-18)
(137.7839002 -19.08240595 -9.394470185e-18)
(135.5593391 -20.67535523 -3.011787233e-18)
(134.087533 -20.97520147 0)
(134.1471328 -21.31957672 8.357742418e-20)
(135.5576707 -20.54776783 -1.766656827e-18)
(139.202715 -17.55556354 2.992409359e-18)
(139.2261619 -17.13140932 1.311460267e-17)
(140.2678422 -16.68113917 0)
(140.5337333 -16.31897503 0)
(140.950602 -15.88590337 0)
(139.645098 -17.22195022 1.354980436e-20)
(140.1036266 -16.77009372 -1.994425556e-18)
(139.9721008 -17.12090194 0)
(119.6857972 -27.50955295 2.476052785e-18)
(120.3018741 -27.64628091 0)
(122.72075 -27.71243128 0)
(117.4622407 -27.43511456 0)
(117.7681547 -27.79064684 0)
(117.9987865 -27.66385701 0)
(123.1751926 -27.25163959 0)
(120.603875 -27.11163878 8.452259724e-18)
(120.2241102 -27.33720227 -1.041488899e-17)
(127.3248336 -25.80678482 0)
(127.5534171 -25.62799056 -1.430476649e-18)
(125.8080496 -25.74421216 3.031180381e-19)
(152.2615785 18.47833297 1.313660411e-18)
(151.3095932 18.31126283 -1.257396786e-18)
(151.1797482 19.4878131 0)
(151.4912806 16.00623787 2.52870601e-18)
(151.4031898 17.14327798 4.993700609e-18)
(152.2937601 17.25595588 1.392893839e-18)
(153.0632121 17.21314204 -1.141684005e-17)
(153.0719746 18.48758455 -3.193852543e-18)
(151.8801687 28.12308668 0)
(152.9582002 28.26195262 0)
(153.030873 26.79580789 6.495468844e-18)
(152.3205537 31.51444321 2.365194268e-18)
(152.7773654 29.85637808 0)
(151.5198337 29.66708095 0)
(152.9749766 22.21491978 2.174285389e-17)
(153.1803101 25.45583177 1.525185046e-17)
(153.3165735 23.63482523 8.388081267e-17)
(152.6409772 23.60035788 -4.21087857e-17)
(145.3252453 -10.07441456 -1.358541935e-18)
(145.4338823 -9.59428465 2.447007027e-18)
(145.7683743 -8.927869258 5.063137585e-18)
(144.7065099 -10.88104992 1.112566954e-18)
(145.0750987 -10.2412474 3.68087937e-18)
(144.9275489 -10.72003939 -3.997677022e-18)
(146.6682572 -7.403614683 1.361344087e-17)
(146.7988966 -6.971278942 -9.009651609e-18)
(147.2063202 -6.317391432 -4.777075274e-17)
(146.0855061 -8.269026839 1.294948816e-18)
(146.4190509 -7.620774295 1.131951212e-18)
(146.3503931 -8.0339791 -1.319699837e-18)
(128.3142328 -24.14855376 0)
(128.7115669 -23.94606704 3.495457892e-18)
(126.8959139 -24.70211124 0)
(128.8189003 -24.58097376 -2.121221668e-19)
(128.7028221 -24.30775891 0)
(134.052153 -21.7701898 -5.458430193e-18)
(132.6431805 -22.13673483 8.357684192e-18)
(132.146517 -22.39634728 5.064870445e-18)
(133.7254561 -21.63298849 -1.225326611e-18)
(133.1626933 -21.89775747 2.187991482e-18)
(134.5002967 -21.52671539 -4.732747857e-18)
(132.6094804 -22.65572488 -7.799157843e-19)
(131.4280838 -22.93082789 -6.786767926e-19)
(131.4596347 -23.15425982 8.949917565e-19)
(131.7238366 -22.63734046 1.660371591e-17)
(131.2127365 -22.84018206 -6.487621157e-18)
(132.9021093 -22.49284316 -1.569594854e-18)
(114.8978323 -28.38962728 -2.576983292e-18)
(118.2052824 -28.77127018 0)
(118.339186 -28.62983047 0)
(118.3013236 -29.04336632 0)
(118.1992031 -28.95299533 0)
(114.460137 -28.55606202 2.218177558e-18)
(116.9703739 -28.06046311 -2.666531159e-18)
(117.4340144 -27.92903253 -2.755485712e-18)
(118.3098311 -28.44866308 3.210558105e-19)
(117.7308007 -28.21826062 7.668941721e-18)
(114.7179985 -27.89959818 -2.032176598e-17)
(102.8762413 -29.65469688 1.867766904e-18)
(99.68233892 2.866044917 6.930836236e-19)
(99.91218609 1.669006174 -7.644584577e-21)
(99.72390466 2.952229094 8.396265652e-21)
(99.90889144 3.119297786 -3.054941127e-21)
(99.99860852 1.816535323 2.848363787e-22)
(99.96919499 3.13938401 -1.163096338e-20)
(100.1694896 3.068750115 8.186162885e-20)
(100.0868193 1.798428856 0)
(100.2181574 3.007562667 -8.148512826e-20)
(100.3590796 2.734307604 1.900626746e-22)
(100.1540197 1.619213167 0)
(100.3822594 2.620673825 1.641329985e-21)
(100.4391249 2.244044409 4.450108165e-21)
(100.1797075 1.344032719 -3.53395675e-21)
(100.4362075 2.111528514 -2.064010888e-21)
(100.4217811 1.721539569 0)
(100.1706157 1.049906401 -9.668910594e-21)
(99.21429861 4.743807003 7.419857901e-19)
(99.57823224 3.291318596 0)
(99.36908951 4.90846866 -3.424700662e-20)
(99.89591467 5.17007682 0)
(99.89188086 3.590678939 2.231995998e-22)
(100.0724058 5.172634216 0)
(100.5440797 4.95801518 -3.773162806e-19)
(100.2282369 3.517433478 -2.459472689e-21)
(100.6707917 4.826185907 -6.342179208e-19)
(100.9493603 4.304726535 -4.861299334e-19)
(100.4691695 3.119012309 6.563392041e-21)
(101.0070103 4.101097479 -4.974303421e-20)
(101.0939542 3.439992945 -1.411832321e-20)
(100.5704095 2.545517801 -1.651229289e-20)
(101.0946573 3.213931482 8.167499593e-20)
(101.03761 2.567005498 -2.674023018e-19)
(100.5478428 1.942338579 -1.059144229e-20)
(98.56315362 7.319077177 6.446073108e-19)
(99.07480212 5.30920281 -4.269939153e-20)
(98.95529446 7.582053867 -7.256204627e-19)
(100.2073025 7.848775547 2.216540357e-19)
(99.93062344 5.766900979 1.683166291e-19)
(100.5963975 7.76315858 -1.704368995e-19)
(101.5168935 7.137996263 7.657875357e-19)
(100.7140628 5.473955921 4.487902661e-19)
(101.7300729 6.850681723 -8.505051256e-21)
(102.1201644 5.88390975 -1.434865804e-18)
(101.1755959 4.705044847 -4.675229602e-19)
(102.1816333 5.537737362 2.940068544e-18)
(102.2042618 4.520622103 0)
(101.3206685 3.730380924 -1.563354534e-20)
(102.1670745 4.192175495 -4.221709343e-19)
(101.9631722 3.252603677 0)
(101.239226 2.757618418 0)
(97.35697885 11.05926138 2.275536393e-19)
(98.35912394 8.106889097 -6.637315666e-19)
(98.27550899 11.60852354 0)
(101.2489027 11.72594598 -4.712478218e-20)
(100.3765447 8.671129667 6.22327121e-21)
(102.0740776 11.32406337 8.529237914e-20)
(103.6495401 9.577266119 -2.976905681e-19)
(101.9118778 7.731555963 -6.732627141e-20)
(103.9202757 8.940155284 3.578314775e-19)
(104.2132983 7.176677971 2.14208189e-18)
(102.5453275 6.244236709 0)
(104.1805896 6.648067454 0)
(103.8840954 5.229672191 2.832820416e-19)
(102.570835 4.746334517 0)
(103.7398709 4.804115897 2.803007931e-19)
(103.2333802 3.638889024 -3.984892426e-19)
(102.2486687 3.385408052 -3.502107932e-20)
(93.23300167 18.80059683 0)
(96.74538119 12.33421611 3.072163097e-19)
(94.55732315 19.87781184 -2.901658713e-19)
(104.3822305 18.35695853 0)
(101.7199398 13.02416455 -1.691630758e-19)
(106.0155132 16.72274785 -3.975165097e-19)
(107.9047334 11.85796073 6.994263712e-19)
(104.4649796 10.19383759 -1.616593228e-18)
(107.923208 10.58263861 0)
(107.3335212 7.686377825 1.62318416e-18)