/*--------------------------------*- C++ -*----------------------------------*\
| =========                 |                                                 |
| \\      /  F ield         | OpenFOAM: The Open Source CFD Toolbox           |
|  \\    /   O peration     | Version:  v2012                                 |
|   \\  /    A nd           | Website:  www.openfoam.com                      |
|    \\/     M anipulation  |                                                 |
\*---------------------------------------------------------------------------*/
FoamFile
{
    version     2.0;
    format      ascii;
    class       volScalarField;
    location    "1.52";
    object      omega;
}
// * * * * * * * * * * * * * * * * * * * * * * * * * * * * * * * * * * * * * //

dimensions      [0 0 -1 0 0 0 0];


internalField   nonuniform List<scalar> 
3259
(
30.4741574
30.50078512
30.54541455
30.62810936
30.75520141
30.9976923
31.49183863
32.30601258
33.78782645
36.74106922
45.71605668
110.3499554
30.38326619
30.41271039
30.46362839
30.55651605
30.7026296
30.9829168
31.54421739
32.42689886
34.0106874
37.19625355
47.62979594
155.2238559
30.29794694
30.3301664
30.38656421
30.48794254
30.644969
30.95148995
31.56439996
32.55600318
34.32788515
37.815566
49.45658635
406.905223
30.21269337
30.24743867
30.30860149
30.41809979
30.58605834
30.91382731
31.56808585
32.71521233
34.86985128
39.16398563
55.08134518
750.6664284
30.12984066
30.1670874
30.23199279
30.34727725
30.52352066
30.86773662
31.55666947
32.83900716
35.63062373
42.06642928
82.8773878
978.1384529
30.04302691
30.08246436
30.15054809
30.27132131
30.45578071
30.81197676
31.52671862
32.86673504
36.30391881
47.67396194
210.9980012
686.0456378
29.956751
29.99830733
30.06885581
30.19276076
30.38198934
30.74645846
31.48081626
32.86473429
36.54474128
54.21518832
386.3706705
376.5947691
29.86389187
29.90710205
29.97989444
30.1073686
30.3021053
30.67196268
31.42119774
32.84190746
36.75460356
58.5825655
395.7019419
305.8788208
29.77179311
29.81641496
29.89088645
30.01974243
30.21630627
30.58965394
31.35030445
32.80361554
36.97177131
62.86185867
385.9567721
274.071362
29.67172194
29.71716001
29.79318187
29.9245852
30.12517698
30.50079608
31.27044123
32.75398745
37.2201886
66.29670665
370.7206282
252.1475532
29.57447112
29.62043264
29.69733492
29.8288277
30.02915651
30.40656235
31.18373977
32.69743427
37.54990563
68.71443015
352.8044926
235.7318914
29.46812401
29.51409759
29.59185583
29.72524905
29.9291174
30.30800096
31.09225807
32.63999959
37.98772747
70.29975659
333.8299096
222.9159707
29.36795189
29.41375854
29.4916737
29.62400702
29.82565417
30.20616983
30.99810245
32.58934231
38.48657985
71.2624108
314.7554154
212.5631406
29.25670288
29.3020076
29.38028729
29.5143108
29.71988592
30.10211036
30.90322777
32.55226534
38.97221103
71.73623132
296.1297019
203.8879454
29.15619883
29.20096194
29.27893448
29.41100772
29.6122558
29.99675143
30.80926809
32.53207879
39.39730371
71.80625839
278.3124299
196.4016626
29.04087882
29.08489634
29.16296808
29.29696831
29.50385601
29.89080401
30.71745397
32.52742934
39.74645377
71.57949627
261.5149897
189.8209935
28.94258497
28.9859232
29.06346221
29.19482501
29.39463649
29.78480654
30.62867603
32.53390996
40.02559587
71.15697997
245.9085703
183.8857425
28.82307545
28.86558397
28.94306912
29.07681383
29.28572206
29.67919191
30.54347171
32.54710265
40.24134387
70.5844711
231.3457902
178.4262704
28.72965591
28.77148602
28.84839574
28.97905084
29.17651743
29.57433919
30.46205674
32.56224782
40.39863596
69.88143471
217.7445758
173.3789781
28.60473499
28.64572364
28.7224363
28.85576473
29.06850878
29.47061311
30.38440396
32.57596764
40.50453356
69.08480352
205.1267939
168.7096535
28.51937784
28.55976655
28.63601633
28.76644395
28.96046435
29.36837415
30.31033186
32.58611354
40.56719879
68.2369375
193.5443958
164.3459397
28.38649988
28.42605173
28.50193155
28.63431961
28.85483062
29.26812309
30.23960803
32.59142543
40.59356821
67.3581924
182.9196676
160.225602
28.31320443
28.35230468
28.42792632
28.55948007
28.74985602
29.17064495
30.17228955
32.59116637
40.5884677
66.45973443
173.1907967
156.3174692
28.14382384
28.1819624
28.25712851
28.39023967
28.6506224
29.07759575
30.10943417
32.58534024
40.55817722
65.57046212
164.3875842
152.6173283
109.3039942
136.0129041
45.47461201
92.37570476
47.38190886
112.5511818
93.92432777
118.4199767
1082.751816
720.3777025
151.6628169
709.9114103
1052.632393
8565.855993
1091.453639
119.7266749
1694.542186
7703.326661
1061.067726
1667.374737
4650.777415
775.544494
226.735139
239.7270229
211.1364108
221.839586
772.6018016
568.8796283
197.8352032
207.4822743
194.8498092
560.407007
743.7849224
756.0917152
245.2996321
255.8164816
1334.939911
2696.624195
1971.681645
3033.320358
1095.425953
6762.053327
3294.41931
5833.844065
1091.532348
4264.046869
2451.218674
48.99025332
116.297252
115.1106618
168.3263493
4233.728632
7936.472663
1000.237568
406.9334175
425.1738787
6547.34086
3447.666991
722.3113583
892.0555539
8683.978209
321.5018077
363.381389
431.9290538
448.1924478
1098.364512
2243.341943
1710.487253
8353.13304
2042.67913
1852.426202
15906.01777
1070.869224
1588.069382
380.5950712
400.70368
911.4682685
745.9229959
361.2704975
375.5967616
728.895905
808.4981761
1137.764931
459.7236743
501.4214315
6273.880045
7092.643064
1782.058047
7686.887953
5648.251299
2526.294289
1072.413676
6746.847745
4070.671487
7472.222987
4494.512188
1531.616961
344.0361349
356.9882808
740.9585408
633.0712311
326.3401146
339.7411925
1625.623631
1604.298759
1030.754585
1697.540894
1065.935377
1658.315956
1645.65005
1666.74071
310.7233788
322.1171306
605.9832495
543.4908311
298.3779635
307.5238263
1059.061031
1059.084213
740.7587889
758.4155187
1066.269599
1070.489191
1410.510597
928.8492868
916.6640595
12045.65517
2206.52283
2339.849483
5118.27212
4318.798948
1722.824152
1702.689182
1081.801064
6535.565585
7107.741879
6800.73475
5396.937857
1147.204807
1765.938411
1712.529474
3313.769199
1626.30222
1639.165516
2056.14162
979.1132005
1561.567038
1502.105875
828.3668868
1152.62735
13018.41785
1100.510106
763.8846852
766.6778889
1714.907183
8018.816713
8303.381703
9593.722541
6205.189252
5910.475648
1673.25203
1662.153871
1066.575342
1633.407222
1668.43474
1669.504647
1652.807094
1656.048881
1109.221129
1120.420194
785.834201
1726.324597
1634.529355
1685.852763
1677.129567
791.9103067
796.2999922
1139.90893
6129.340522
8879.014517
9197.048592
8862.316706
8792.269114
6738.675369
1732.235925
6720.55862
4926.313956
5304.156498
1079.874464
1694.930388
1680.393357
6701.49343
7334.085456
7095.76622
5843.566572
6351.932938
7781.044641
7402.61635
4862.120459
7002.071875
6086.420087
2087.225742
1683.651356
1136.499365
32.28906644
33.30202826
33.74297221
35.67133166
36.64855348
41.94342169
32.40221027
33.4825181
33.334797
33.95679478
36.02986041
35.75706042
37.09211525
43.14930655
42.12414732
46.13456441
54.4914772
53.25764612
113.7061052
179.1983951
171.6420482
32.52115997
33.71202589
33.52818728
34.22888822
36.46396613
36.11709298
37.60077485
44.15282207
43.35834419
48.074943
56.3254429
58.01558487
157.3144664
290.6454704
264.0943946
32.67593915
34.09376374
33.79206998
34.71012489
37.34648022
36.64212848
38.67624672
46.76280533
44.48239662
53.35665021
169.9966834
127.3981797
615.113257
32.81818873
34.61591329
34.21431068
35.42955995
39.10727931
37.70594161
41.10324397
55.25020023
48.12422807
69.83829539
529.1495722
231.7676168
1003.580178
32.86328401
35.06894311
34.75025457
36.17596032
42.03403209
39.72993558
45.96709568
94.42220459
61.2535099
162.6937085
797.3814242
699.02301
776.1601954
32.8671893
35.21110075
35.12097896
36.49166036
45.15652513
42.9054738
53.11742348
184.1910505
115.8688068
353.7344548
629.6574934
766.4091939
425.1553985
32.84923694
35.31022159
35.23747503
36.70202371
47.05275056
45.61224518
57.46543955
211.9340837
201.1904636
396.5004374
513.3812993
588.8157115
316.2132343
32.81440376
35.39868481
35.33287476
36.9158687
49.28817016
47.57281119
61.84723462
217.1770983
213.8399563
389.0505841
449.0228475
495.7105287
280.865898
32.76722422
35.48711195
35.4202824
37.15269298
51.77645745
49.90363142
65.53754307
217.627849
217.6854749
374.8613009
399.1499985
435.3560052
257.0003342
32.71192709
35.59481437
35.51103975
37.45720539
54.01770478
52.3778567
68.1969293
214.6248941
217.1744725
357.4200073
360.1456542
388.5094593
239.4501679
32.65402316
35.75362016
35.6284103
37.86953686
55.73105414
54.49680748
69.96883218
209.1337043
213.4404287
338.5993042
329.1843787
351.7579249
225.8530693
32.60093866
35.98141434
35.80421613
38.36052657
56.95743653
56.07882844
71.07273294
202.2014069
207.500673
319.4945535
304.0864269
322.4295673
214.9691079
32.55999846
36.25755103
36.04728843
38.85515227
57.79262153
57.19912167
71.65711473
194.4140507
200.3127109
300.7004612
283.5337112
298.5744701
205.9318678
32.53556717
36.54298572
36.32947585
39.29807243
58.3089482
57.94943908
71.81880547
186.1927957
192.3859661
282.6695015
266.4000509
278.9746612
198.1779624
32.52723318
36.80667766
36.611625
39.66606103
58.56473052
58.39354921
71.65862939
177.8934423
184.1041382
265.5820932
251.9237568
262.5656981
191.3950269
32.5314307
37.0364683
36.86740096
39.96191656
58.63421543
58.59683401
71.27714481
169.9047905
175.8596725
249.6792599
239.486833
248.6594714
185.3178425
32.54346679
37.22900462
37.08808603
40.19308493
58.56674795
58.62951916
70.74073788
162.2578675
167.9654747
234.8589512
228.5913288
236.6516087
179.7461414
32.55849386
37.38316307
37.27103154
40.36444511
58.37456558
58.52920549
70.067522
154.9206633
160.3969736
221.0023544
218.9232165
226.0948649
174.593884
32.57281405
37.50064419
37.41574746
40.48238573
58.08209419
58.30931903
69.28991395
147.9622002
153.1502605
208.1056935
210.2808551
216.7130648
169.8283034
32.58399973
37.58536588
37.52463099
40.55515837
57.71877199
57.99653732
68.45151261
141.4763963
146.3115985
196.2220447
202.4709292
208.3176013
165.3819875
32.59058722
37.64135888
37.6018157
40.59008814
57.30507242
57.61950246
67.57869822
135.4510508
139.9648785
185.300432
195.3185286
200.7189936
161.1808589
32.59167755
37.67186858
37.65116657
40.59225888
56.85018574
57.19522268
66.67908805
129.8192121
134.0742792
175.2326143
188.6922853
193.7605722
157.1755915
32.58721789
37.68038092
37.67590576
40.56702647
56.36534074
56.73412709
65.76608663
124.584075
128.6081105
166.0142199
182.5043052
187.3369343
153.3357035
32.57613886
37.66951441
37.67969988
40.51557784
55.82919435
56.25618931
64.79591561
119.4393977
123.6121834
157.0718531
176.3103514
181.3914948
149.4016652
169.1586756
162.3840927
106.2798963
257.2539191
240.3468225
134.1478505
1224.458162
52.84098093
51.51891438
45.10827237
88.25204432
56.98654507
58.36780032
57.60245935
54.89500234
46.3076982
100.8376737
61.04347687
64.93364948
58.86404259
60.50438604
98.61812868
190.5677419
182.1935154
114.8551397
1077.717902
727.95625
737.4333545
530.2289795
537.6647413
728.3267358
3200.737133
3786.839327
177.6222815
2973.73603
2413.238021
1139.812661
1012.257087
692.9920604
511.780408
522.1745605
295.7994639
537.1390664
105.3772179
160.2786045
12354.77393
1220.534693
2130.517207
747.8835306
752.5381713
1092.083102
123.4429398
203.8902652
194.5750334
5696.280114
5878.268739
9774.505148
587.6556668
601.834695
804.0928596
229.9179345
300.5130836
295.9489451
342.5641267
320.0622513
235.7752065
214.4294007
276.0448052
271.0247206
287.4962097
282.6112549
218.546765
758.7887863
570.61762
579.9813155
448.4825388
454.715454
575.4482951
200.9268109
254.9529148
250.3221048
265.3117678
260.1808694
204.2288981
189.1486192
237.9449806
245.9596196
241.8705017
191.9638102
555.4531513
437.3020473
442.4490795
247.8980903
364.3763898
349.0476068
400.7427517
372.8849701
256.9302742
2079.247516
2761.763607
2681.254308
4001.925455
3730.920701
2879.913742
3494.153498
4671.062059
4293.495466
3899.14777
3037.706708
58.08021343
57.24283538
48.46938722
124.8071016
74.84184196
76.19087946
65.59219269
66.04085944
122.4233763
308.9653306
265.9066837
161.9643939
4578.901854
930.0817194
1150.661069
383.4931627
327.9894584
6890.287694
682.1910649
708.8836775
1052.258278
413.1157959
524.1900179
511.4871665
543.4051475
535.9433822
419.8798927
4837.653805
1333.127885
1886.267235
1641.681581
1832.984919
3906.536978
1048.13996
1045.357641
716.6232216
3401.197096
4925.685695
13128.95746
336.4233347
586.5132165
539.8436551
655.1939984
602.9939397
350.9576076
436.5386726
557.7991185
552.7203335
572.041544
567.925112
444.3142285
1892.250147
2277.170302
3786.251664
3509.664754
4401.826404
4883.689084
2456.091238
13200.89632
12221.35981
386.7305177
473.0293018
464.6663377
496.5912875
484.2230789
392.9595184
827.7500366
620.1305602
647.1908581
556.8538566
564.6307232
754.8339697
366.0913077
445.2913644
439.2898511
457.6948069
451.121439
370.526116
733.1817962
1053.403631
1052.875032
463.165507
592.9974469
588.8469876
657.1814365
662.6985217
503.8276153
4288.741606
4511.434519
6069.356436
2651.154087
3504.914639
3293.021245
5575.254914
5079.320673
3813.366436
348.3943516
422.7406247
417.023111
433.7963247
428.1146977
352.5347583
733.9074659
543.8551161
550.8862976
485.1749586
499.130576
666.5393136
330.8623957
397.5858168
390.3145097
411.1230466
404.645506
335.3548738
314.3580718
371.8434526
366.8991567
383.5115126
377.2499605
317.969856
589.207987
462.7375892
472.9652811
426.9961325
431.8686522
548.5899085
301.306162
353.0886542
348.5340081
362.2056098
357.6517717
304.2287879
3109.491855
2930.160704
2172.345428
4884.204484
3829.862631
3950.18669
3479.172283
3574.022588
4612.006884
3578.912061
1075.735614
2162.429538
1528.169538
2275.490977
2191.17055
1126.803848
13373.51554
4946.108903
5044.833407
9269.602351
11001.78236
8372.325078
6792.426621
8897.484103
8485.334196
8587.238142
9559.714855
6801.899222
30.78884758
30.88846939
31.0217037
31.20945615
31.49337276
32.0283291
30.73004294
30.84404067
30.85402579
30.997725
31.21546751
31.20155483
31.53174171
32.1196175
32.04164238
32.3281021
32.63021054
32.60529735
33.82336119
34.36344526
34.32284319
36.82186148
38.12707168
38.01000187
111.4648584
126.0637415
124.6829116
30.67265778
30.79895426
30.81801897
30.96816675
31.20968479
31.21368646
31.55463838
32.20711517
32.13788959
32.45686869
32.78618455
32.74911908
34.07172118
34.65060192
34.58015848
37.30525664
38.7441981
38.6107787
30.61495883
30.75144969
30.77207731
30.93406845
31.19353653
31.20298033
31.56918431
32.30876197
32.23072364
32.59539569
32.97274301
32.91932658
34.43893
35.09158848
34.95765617
38.0320104
39.61351705
39.34773373
50.4351967
60.38174813
59.08903783
468.6218765
1925.981022
2119.70054
30.55459138
30.69891825
30.72266303
30.89231323
31.16595495
31.18120612
31.56447082
32.37947725
32.33126649
32.7546059
33.21434745
33.15171041
35.04358704
35.86800957
35.64025517
39.64566314
41.76518942
41.11801865
58.70001193
77.29545479
68.47981536
870.5353359
1349.459818
1487.31353
30.48965503
30.63955591
30.66731826
30.84142324
31.1262341
31.14770043
31.54380559
32.39104257
32.38441321
32.85083225
33.41361295
33.37839074
35.82790632
36.99555382
36.69520606
43.14310289
47.24830433
45.50699162
98.08337454
180.8465716
135.3357995
927.4935637
764.4440478
926.1637373
30.41888907
30.57255338
30.6046345
30.78066039
31.07397309
31.1016214
31.50562644
32.37910193
32.39012098
32.86842037
33.4649337
33.45710075
36.38181069
38.02998585
37.83178893
49.56454097
60.65052514
56.29061534
259.6103165
512.0389749
428.966988
585.1098813
314.6345651
379.5429748
30.34204295
30.497995
30.53424755
30.71046952
31.01040693
31.04350934
31.45256336
32.34626594
32.3721668
32.86078866
33.47975116
33.47833297
36.59729623
38.46936934
38.36303553
55.26997264
75.05830514
72.89912538
396.2490442
586.7273995
595.0463145
342.6543054
216.5251393
228.2631176
30.25909602
30.41645154
30.45650876
30.63186305
30.93709061
30.97487706
31.38700967
32.29758645
32.33511982
32.83361577
33.47408335
33.47711557
36.80756605
38.91322925
38.79883956
59.69391493
82.45567139
80.82184265
394.0374273
540.1568994
551.4606149
296.6548074
202.2575144
205.284669
30.17062843
30.32869419
30.37210223
30.54608372
30.85551265
30.89724765
31.31135108
32.23696598
32.28322264
32.79209275
33.45401418
33.46008969
37.02937041
39.41292937
39.27938054
63.81876446
87.59745529
86.5011084
382.5190256
497.5923624
507.8249832
267.8859477
191.710887
194.1350857
30.07693334
30.23554658
30.28184853
30.45437243
30.76710817
30.81207869
31.22781576
32.16784773
32.22021218
32.74028145
33.4250479
33.43280285
37.29283381
40.0437061
39.86912687
66.99064154
90.95058794
90.25332701
366.3979681
459.6257061
468.6788678
247.6320333
183.2240846
185.1722851
29.97892404
30.13779874
30.18653724
30.35782069
30.67329301
30.72079103
31.13846149
32.09404366
32.14955764
32.68284977
33.39423699
33.40158267
37.64973148
40.84185872
40.63104045
69.17926134
92.92914797
92.5493068
348.1018304
426.2369141
434.1970613
232.2441608
176.2846486
177.9054827
29.87698235
30.03630742
30.08700034
30.25747204
30.57549918
30.6248057
31.0453831
32.02023111
32.0753034
32.62636875
33.37272852
33.37653831
38.10978577
41.69537985
41.48521363
70.59305084
93.84075412
93.69271141
329.0364018
396.8858842
403.8868081
220.1344207
170.4107558
171.7962433
29.77244137
29.93197748
29.98410782
30.15438559
30.47514171
30.52556043
30.95064012
31.95123595
32.00226293
32.57858166
33.37241808
33.37030528
38.61154867
42.47082208
42.28866993
71.42133134
93.95235784
93.98198776
310.0187243
370.8953501
377.1347541
210.262956
165.3243881
166.5340316
29.66548086
29.82569908
29.87881155
30.0495616
30.37348901
30.42441109
30.85604382
31.89095945
31.93514722
32.54561026
33.399271
33.3900781
39.0852414
43.11114103
42.96465021
71.78731953
93.46083408
93.63557007
291.5812555
347.7316764
353.3030911
201.9182711
160.8229119
161.9017136
29.55768115
29.71821884
29.77190825
29.94381527
30.27154129
30.32250936
30.76302162
31.84128387
31.87743473
32.52955236
33.4492071
33.43506318
39.4915758
43.60776374
43.4965146
71.77560913
92.48047188
92.76247833
273.9846007
326.8879443
331.9453186
194.6819594
156.7797915
157.752444
29.44848665
29.61012888
29.66414461
29.83776354
30.17003698
30.22071222
30.67262874
31.80204425
31.8304632
32.52807632
33.512862
33.49617187
39.82238486
43.97841995
43.89598454
71.48847152
91.1958783
91.53518183
257.4812067
307.9538553
312.5640381
188.2843027
153.1011707
153.9929325
29.33983192
29.50186755
29.55594774
29.731864
30.06954498
30.11967136
30.58557726
31.771491
31.79359012
32.53677607
33.58138589
33.56422087
40.08522334
44.24878705
44.1896803
71.02703984
89.75089368
90.12524667
242.1437775
290.7273716
294.9527953
182.476858
149.6858982
150.520125
29.23009268
29.39377959
29.44786336
29.62649457
29.97051349
30.01990669
30.50221643
31.74704745
31.76481744
32.55084598
33.64756882
33.63155871
40.28583325
44.43264368
44.39430423
70.41935358
88.17215596
88.57876548
227.8106374
274.9459494
278.8604533
177.1199923
146.4718079
147.2597899
29.12209814
29.2861279
29.34005979
29.5219503
29.8732898
29.92185644
30.42260373
31.72612016
31.7414835
32.56589773
33.70637006
33.69253896
40.42952421
44.54025508
44.51976225
69.68878824
86.48981822
86.91771358
214.4296012
260.3735386
264.0406059
172.1663112
143.441219
144.1855079
29.01262006
29.17907301
29.23310415
29.41844399
29.77805991
29.82587847
30.34653776
31.7065751
31.72108596
32.57888218
33.75514957
33.74396438
40.52384606
44.58428889
44.57855126
68.87570868
84.76393825
85.19702748
202.0351574
246.8729716
250.3291187
167.5708874
140.5763042
141.2860629
28.90609371
29.07262391
29.12701513
29.31599391
29.68481889
29.73228549
30.27355965
31.6868306
31.70162281
32.5879118
33.79292895
33.7845308
40.57692364
44.5775763
44.58330295
68.01866359
83.04701239
83.47701426
190.6496109
234.3501071
237.6527635
163.2547915
137.8372941
138.5261128
28.79643062
28.96649668
29.02271697
29.21437084
29.59323934
29.64144912
30.20293153
31.66572792
31.68165177
32.59186697
33.81950136
33.81390441
40.59476601
44.52856391
44.54451202
67.13134979
81.34763494
81.77799486
180.1598855
222.6289161
225.8476727
159.1562613
135.1928565
135.8752516
28.69023945
28.85973933
28.92049146
29.11265073
29.50238003
29.55399882
30.1333966
31.64261185
31.66009624
32.59017067
33.83516345
33.83222289
40.58265771
44.44402489
44.4684668
66.22336955
79.67237393
80.1088351
170.5178049
211.6290743
214.8138746
155.2371002
132.6218123
133.3202581
28.56678437
28.7431255
28.82275706
29.00239203
29.40484429
29.47129558
30.05929748
31.61515455
31.63659802
32.58272968
33.8408652
33.84040272
40.54545086
44.33051789
44.36484767
65.30426124
78.03131982
78.50956136
161.7074913
201.3215823
204.5388317
151.4677797
130.1040398
130.8657903
123.2864869
121.9477756
108.2468653
168.2683636
161.9736915
138.1998828
90.95812923
75.88076892
76.88656934
111.0127218
89.09035069
90.68433663
77.95479075
79.00512427
95.41847732
134.9908544
133.5684193
117.2410802
103.7566946
115.1900419
120.888538
138.0018487
136.8186638
2608.300862
92.13262219
93.64664836
117.5159583
2666.262151
2916.009817
7604.307643
5804.197992
4760.030356
5244.034589
2129.872736
2391.450773
2959.321959
1799.843513
32.5850466
32.54281026
32.25627166
33.24827941
32.86967446
32.92251845
34.26751477
34.20845289
33.6891677
35.59978093
34.83302243
34.89789656
37.91263939
37.78977815
36.55788026
41.71199265
39.43224908
39.59203459
32.71749937
32.65177044
32.34500894
33.39426236
32.99818181
33.07402543
32.94502811
32.97287618
33.36614346
34.51713919
34.39517968
33.85343307
35.85461696
35.04903067
35.1936093
34.9666238
35.01348168
35.81329301
38.48525793
38.19566381
36.87253093
42.53186977
39.9804446
40.38825499
39.71775626
39.87872918
42.36810313
128.9476087
127.5169042
112.552534
176.7268957
147.9452781
149.8190401
144.2260283
146.0270953
174.0303424
32.87053719
32.82606375
32.48663706
33.64242151
33.20758397
33.26408611
33.11243917
33.1574373
33.58122178
34.83645816
34.73842262
34.14550127
36.33306659
35.45239697
35.56617185
35.26740543
35.34845182
36.21029296
39.09271081
38.91077992
37.44947771
43.8168802
40.90763746
41.14428294
40.54431961
40.72041129
43.60630674
204.6190151
208.1635261
271.3901551
33.09010049
33.02966325
32.63415502
33.98281356
33.47551934
33.55916337
33.32768363
33.39812992
33.88184337
35.43177581
35.25370316
34.56770145
37.08350732
36.07515797
36.29308937
35.71340188
35.8716954
36.82679816
40.43061711
40.02963854
38.3586381
45.70484222
42.32238791
42.90723033
41.43648194
41.80222047
45.06455171
65.39950764
62.09225294
51.34132454
155.6078009
85.35398583
90.21157513
79.20697216
80.05737018
131.5119655
1622.110898
1769.304424
525.1120092
1253.247792
1120.433756
1534.875339
1379.631081
33.33028587
33.27374747
32.7886724
34.47752411
33.8322398
33.92434828
33.64751677
33.73985253
34.34333251
36.40265044
36.12415162
35.23071251
38.57458525
37.2095649
37.59552479
36.56506053
36.85790244
38.07918725
43.88470075
42.87826131
40.37094008
52.55824738
46.61158536
48.07564345
43.90056378
44.84344457
49.77770031
108.2993597
85.85126132
63.07434156
394.1167403
151.827045
219.6124574
102.5691559
125.507193
277.294938
1078.952574
1220.40477
1000.797919
673.9038082
541.9716337
970.309881
825.8921866
33.44731365
33.43483815
32.8581723
34.98415946
34.13799699
34.17233915
34.00899464
34.08236461
34.87520004
37.57990634
37.29543442
36.01327505
41.19916908
38.95067307
39.43593967
38.01868532
38.47139747
40.41919889
52.57108208
49.69485072
44.47062552
79.46975493
59.16338995
65.38774742
51.08868057
54.08054892
67.25756299
324.5220055
250.1101432
129.0076583
812.2500465
536.8068121
653.0813389
278.4294882
409.497414
805.3593557
483.2167244
612.8156779
855.5017819
310.4253689
268.5784805
441.6547846
366.3803734
33.47527273
33.47097096
32.86822147
35.18326263
34.22453354
34.23773586
34.1925194
34.20951536
35.15375187
38.25802074
38.15347581
36.43785672
44.57783879
40.65376694
40.87360704
39.90202647
40.32436569
43.77142731
69.89689451
65.33065088
51.42431701
164.0072341
96.33163467
106.3373086
74.4398639
84.81432569
139.0810431
592.8544195
572.1313524
309.7704025
678.5736722
684.9434667
663.0724795
699.8831469
698.4162473
722.4767873
245.5254086
273.1904608
496.4831863
195.7162434
182.9012036
236.8959699
213.0779775
33.47891095
33.47964814
32.85550852
35.28686613
34.26863248
34.27646665
34.24943214
34.25970146
35.26269722
38.6869935
38.57725853
36.6496675
46.55498964
41.52843062
41.75756001
41.08699215
41.305151
46.07604498
79.03542415
77.10733967
56.35701774
209.5487422
119.9034587
122.3093743
113.7887723
117.1334993
206.5480182
563.0048446
574.8029062
396.7783704
532.2585379
604.4154148
588.5198922
641.9139444
621.2401591
553.3220036
208.5031854
211.9586779
327.8702124
165.5827223
163.6521609
174.1783165
168.1004222
33.46548974
33.47019125
32.82442312
35.37698563
34.29463296
34.29922886
34.2833555
34.28938061
35.35511417
39.15247976
39.03079936
36.86125539
48.69126332
42.49413018
42.76368013
41.99362578
42.23840292
48.11884586
85.28484185
83.940291
60.78707873
216.4036752
127.8174984
129.2111125
124.4037231
126.2252226
215.3024997
518.3274212
529.1147991
391.7839335
463.5994385
545.2007307
532.0220292
573.396339
558.9697468
479.1353615
196.6983765
199.400474
288.3566664
158.5112951
156.9634264
161.8451908
160.1354044
33.44027451
33.44738857
32.7799571
35.46424286
34.31024053
34.31335771
34.30330135
34.30694333
35.44209638
39.70633935
39.55469342
37.08942298
51.1575681
43.67574305
44.01473259
43.04961103
43.35364025
50.53023016
89.46568521
88.58355705
64.71201722
217.8423923
132.3754142
133.1141464
130.4302472
131.4837875
217.9071228
478.0144217
487.6618684
378.8218156
410.4715952
495.6979133
484.5543816
519.4077869
507.3006424
422.5131651
187.226116
189.4006988
262.2259011
152.712278
151.4100865
155.4845977
154.0692396
33.40928244
33.41716675
32.72624947
35.56438816
34.32378035
34.32838266
34.31651456
34.31992163
35.53666669
40.42624122
40.22979788
37.37165058
53.50317246
45.09689479
45.46206698
44.36769874
44.7302949
52.95549913
92.09546142
91.56340104
67.62342339
215.6469482
134.5159734
134.7357636
133.7157412
134.1811718
216.5045854
442.3949633
450.8784947
361.9713705
369.046226
453.7733232
444.3106963
473.8739235
463.6111026
378.4818962
179.5981877
181.3688758
243.4068814
147.7996209
146.6852148
150.159412
148.9567748
33.38150504
33.38747792
32.66835155
35.70749974
34.35016199
34.36120057
34.33408348
34.34123866
35.66587347
41.27143631
41.05616616
37.75654236
55.35227393
46.50433748
46.82408063
45.82084244
46.1693231
54.94162966
93.49755539
93.24221899
69.59594938
210.6757449
134.7083168
134.5214629
134.8232742
134.7967928
212.1213122
411.0855697
418.5462762
343.3770562
336.3094271
418.1044253
410.0108559
435.2346927
426.493328
343.8168776
173.2344629
174.729202
228.9548848
143.5741843
142.607687
145.6110652
144.5746739
33.3695576
33.37028107
32.61333404
35.9185494
34.40962857
34.43124928
34.37467187
34.39077986
35.85934786
42.09825191
41.90015316
38.23452802
56.69085271
47.6828053
47.93446364
47.12745492
47.41388483
56.39869033
93.98775744
93.9333171
70.84941623
204.0302496
133.5010607
133.035144
134.2478414
133.9079387
205.8013797
383.5193357
390.1206621
324.272869
309.8962174
387.4929281
380.4902378
402.2365678
394.7196746
315.9984477
167.7828529
169.074108
217.487551
139.8927551
139.0441736
141.6730609
140.7684697
33.38249557
33.3766067
32.56878795
36.18605819
34.51232554
34.54405251
34.45568553
34.48279169
36.11577491
42.80902059
42.6443171
38.73469673
57.61574036
48.59132842
48.77932471
48.1694176
48.38825979
57.41839373
93.77729041
93.88551728
71.55303451
196.4128243
131.3163249
130.6527441
132.511718
131.9374718
198.3836796
358.9817895
364.8721617
305.3491905
288.3175906
360.9488014
354.8535569
373.7565592
367.2231996
293.3162736
163.0102828
164.1507684
208.0539633
136.6445423
135.8887858
138.2209808
137.4214134
33.42192041
33.40993293
32.54005715
36.47276495
34.64940291
34.68666806
34.57771418
34.61297473
36.40145763
43.37689671
43.24849187
39.19399563
58.20739007
49.25779776
49.38999624
48.95283807
49.11222425
58.08729647
93.02252649
93.2564941
71.81992872
188.2727736
128.4391323
127.6350027
129.9505276
129.212231
190.3403831
337.057269
342.3561437
287.114919
270.4181327
337.8377575
332.4896806
349.0046249
343.3066581
274.5961753
158.7493149
159.772727
200.0156649
133.7376102
133.0563913
135.1531036
134.4361373
33.47989434
33.46419405
32.52796748
36.74369424
34.80068327
34.83855098
34.72449527
34.76260424
36.67865369
43.80701421
43.71106415
39.5811509
58.52074324
49.71476358
49.80173189
49.50964858
49.61773527
58.46426585
91.86383707
92.17980458
71.72475446
179.9487029
125.0942536
124.2223549
126.8056472
125.9570242
182.0214633
317.1935347
322.0215578
269.7651338
255.3379846
317.4964139
312.7462982
327.3576645
322.3206429
258.8683242
154.9016077
155.8305426
193.0151416
131.1073689
130.4861127
132.3916515
131.7420563
33.54699976
33.52983001
32.52940435
36.98240285
34.94946839
34.98500635
34.87608765
34.91312837
36.92605185
44.12503484
44.05465484
39.89420459
58.63264762
50.01046362
50.06407735
49.87956595
49.94901258
58.61909051
90.49067273
90.84759237
71.38795725
171.8679877
121.5901421
120.7093378
123.3466311
122.468918
173.8511742
299.1435901
303.5515317
253.5697722
242.4504124
299.4542623
295.2133784
308.2086447
303.7231853
245.4866518
151.3655633
152.2266742
186.7865317
128.6937264
128.1172079
129.8774531
129.2799641
33.6151407
33.59838021
32.53998438
37.18444562
35.08596703
35.11735517
35.01968358
35.05339186
37.1374851
44.35093939
44.30246303
40.14106587
58.59619162
50.1830546
50.20902953
50.11057974
50.15034004
58.61790053
88.97740518
89.36836279
70.88854138
164.1449557
118.0604956
117.1718998
119.828476
118.9451905
166.0433719
282.6721812
286.7328748
238.5052289
231.2115235
283.3868021
279.5698233
291.1938604
287.1752409
233.8695422
148.0555678
148.8662107
181.1024992
126.4417003
125.8990403
127.5503711
126.9915187
33.67810268
33.6630891
32.55465889
37.34815474
35.20410366
35.23034314
35.14755291
35.17650802
37.31080709
44.4952433
44.46635405
40.32688051
58.4331148
50.25020435
50.24995498
50.22875892
50.24207791
58.4847232
87.34075719
87.75957109
70.24724876
156.7301198
114.5047459
113.6143767
116.2838409
115.3931483
158.5474717
267.5210651