/*--------------------------------*- C++ -*----------------------------------*\
| =========                 |                                                 |
| \\      /  F ield         | OpenFOAM: The Open Source CFD Toolbox           |
|  \\    /   O peration     | Version:  v2012                                 |
|   \\  /    A nd           | Website:  www.openfoam.com                      |
|    \\/     M anipulation  |                                                 |
\*---------------------------------------------------------------------------*/
FoamFile
{
    version     2.0;
    format      ascii;
    class       surfaceVectorField;
    location    "0.23";
    object      Uf;
}
// * * * * * * * * * * * * * * * * * * * * * * * * * * * * * * * * * * * * * //

dimensions      [0 1 -1 0 0 0 0];


internalField   nonuniform List<vector> 
6464
(
(99.98845149 1.005331425 2.303078784e-22)
(99.99894027 0.5082111587 0)
(100.0013984 0.5093396776 3.793455901e-22)
(100.0103832 1.009301251 -8.132434123e-24)
(100.0038408 0.4982628909 9.854080393e-22)
(100.0060033 0.4764222586 -1.154571684e-22)
(100.029261 0.9225166943 -6.34152711e-22)
(100.0071811 0.4451091729 -1.077232736e-21)
(100.0070559 0.4074950938 9.597419793e-23)
(100.0380704 0.7759522005 1.812757842e-21)
(100.0068128 0.3667932807 4.686065071e-22)
(100.006769 0.3252308935 0)
(100.0382176 0.6095812888 0)
(100.0065127 0.28436602 0)
(100.0062209 0.2455796535 7.983692666e-22)
(100.0330213 0.4556197009 1.672629445e-21)
(100.0063114 0.2102780288 -4.047676651e-21)
(100.0061042 0.1763106798 -1.495372514e-21)
(100.027529 0.3217525615 3.284517613e-21)
(100.0052389 0.1468880625 3.284272517e-21)
(100.0039151 0.1221963775 -9.266991823e-22)
(100.0165549 0.2205981181 -5.941635852e-23)
(100.0010179 0.1045107177 1.802562054e-21)
(100.0102378 0.10102499 -8.054339379e-21)
(100.0586482 0.2481946348 5.677837806e-22)
(100.0208417 0.2229733619 -2.867325575e-21)
(100.0033715 0.1042722836 -1.664488049e-21)
(100.0072107 0.05862861885 -1.012760069e-21)
(100.0396487 0.1515142647 1.605306352e-20)
(100.0059777 0.02740049631 -8.135292729e-21)
(100.0293405 0.0810351759 -1.711693699e-20)
(100.025822 0.0255532244 1.536364078e-21)
(99.91265026 2.237501623 -8.875014173e-22)
(99.9501078 2.015420531 -1.884537038e-21)
(99.90203203 2.530271634 -8.873277221e-22)
(99.9413644 2.28876947 -8.871864501e-22)
(100.0252328 2.295677619 8.228788716e-23)
(100.0449491 2.038225055 -3.707570611e-22)
(100.0393751 2.567068829 -8.429698135e-23)
(100.0526201 2.301344567 -6.587941668e-22)
(100.1303689 2.148238726 -2.450216987e-22)
(100.1097707 1.872878759 -2.422016782e-22)
(100.1617004 2.361917896 -1.155395297e-22)
(100.1493229 2.092409041 2.028134895e-21)
(100.1913776 1.839878654 2.423881714e-21)
(100.1426268 1.581076262 4.196165577e-21)
(100.2261147 1.993339706 4.225954402e-21)
(100.1964361 1.750377633 5.730313273e-22)
(100.2035442 1.466341548 -6.897802734e-21)
(100.1434204 1.245017831 -6.441322337e-21)
(100.2358877 1.569218588 -2.320425605e-21)
(100.1992394 1.367289898 -2.28987291e-21)
(100.1806441 1.106270761 -5.514011036e-21)
(100.1198777 0.9321027822 5.03711666e-22)
(100.2013031 1.169298809 -1.482313726e-21)
(100.1706077 1.01909914 6.037299862e-21)
(100.1110174 0.636738892 -1.397047218e-20)
(100.1775082 0.8688977333 -1.39693867e-20)
(100.2488035 0.9374689884 1.416326075e-20)
(100.1530254 0.7214297453 -2.856401752e-20)
(100.1291376 0.5950055295 1.247546628e-20)
(100.1786792 0.6332583638 -1.757744433e-20)
(100.104892 0.4886897519 2.508400932e-20)
(100.0792339 0.4327320253 2.78776421e-20)
(100.0970301 0.2933468197 2.386105196e-20)
(100.2210986 0.4618982697 -2.105982093e-22)
(100.1695839 0.5194062577 5.012941068e-20)
(100.0997658 0.4131736295 2.715373846e-21)
(100.0694809 0.170587662 -6.82828026e-22)
(100.1548313 0.2801813258 3.425855959e-20)
(100.0555328 0.0781402823 -7.969629925e-21)
(100.1164953 0.149953949 -1.81605432e-20)
(100.0995272 0.04705953518 8.134114693e-21)
(99.7721483 4.177011396 1.356855553e-19)
(99.66766427 4.426097755 5.23941399e-19)
(99.72098586 4.78578322 -9.60950606e-20)
(99.77987858 4.506625902 -2.738557485e-19)
(100.1429434 4.250679838 -3.89404698e-21)
(100.1217571 4.564123538 -1.40920569e-21)
(100.210885 4.855717824 4.325674124e-21)
(100.229508 4.512886134 7.103180623e-20)
(100.4631406 3.870771312 1.408418691e-19)
(100.4994131 4.202557047 1.717765808e-19)
(100.6157872 4.396997645 3.882664983e-20)
(100.567336 4.050486763 -2.775101318e-21)
(100.62056 3.217948137 9.418789539e-22)
(100.6970533 3.520258956 -7.628244435e-23)
(100.8037773 3.630459479 -1.255535559e-19)
(100.7163193 3.32457451 4.336614501e-21)
(100.6341234 2.496766383 -6.455400226e-21)
(100.7235347 2.742709529 -1.501370612e-20)
(100.8111857 2.794557258 -5.238306845e-21)
(100.7122597 2.553388771 5.841806871e-21)
(100.6444718 2.022031624 -1.845064464e-20)
(100.5558337 1.830721447 -1.244286926e-20)
(100.7102536 2.038734064 -1.245964897e-20)
(100.617168 1.856700357 6.70991973e-21)
(100.4389819 1.217150157 -5.532268357e-20)
(100.5869746 1.488314336 -2.909699823e-20)
(100.6833701 1.469496531 -8.38437211e-20)
(100.5092315 1.22809142 -3.942620977e-20)
(100.3203374 0.8163680852 -6.35558182e-20)
(100.4352005 1.005262514 2.515819682e-20)
(100.49763 0.9750283876 -3.016591179e-20)
(100.3656647 0.8164752531 -2.637677537e-20)
(100.2694667 0.443867485 1.101783627e-20)
(100.4637871 0.6082062077 -2.712516856e-20)
(100.4386443 0.7361032253 -1.600268664e-22)
(100.326555 0.6689345479 -1.558892613e-20)
(100.1952497 0.2565389577 1.605473187e-20)
(100.3310614 0.3657642943 2.857049462e-20)
(100.1550158 0.117069471 -2.043837485e-21)
(100.2480746 0.1943460081 -4.127997743e-21)
(100.2099332 0.06048950634 0)
(99.57509706 6.84820115 3.322351833e-20)
(99.38167981 7.140925284 1.77482546e-19)
(99.53444641 7.641794015 4.861976176e-19)
(99.67277282 7.275214085 2.963707558e-19)
(100.581753 6.857564472 5.967417867e-21)
(100.5395905 7.266305087 -1.010826355e-20)
(100.7849082 7.601644799 -1.362482434e-19)
(100.7959466 7.136192751 2.815266911e-19)
(101.3031651 6.05028017 4.818936982e-19)
(101.3821812 6.470765129 1.321052358e-19)
(101.6329235 6.624952754 4.820018037e-19)
(101.5099163 6.184500051 -6.178206008e-19)
(101.5600918 4.869093829 -1.59260582e-19)
(101.7053886 5.236741162 8.389135677e-20)
(101.8975118 5.271862888 -6.650186048e-19)
(101.7187418 4.908602649 -2.36682615e-19)
(101.4978015 3.645437449 4.758765799e-20)
(101.6560056 3.939033146 0)
(101.7868733 3.904889589 2.858621301e-19)
(101.6090445 3.628768197 2.238382141e-19)
(101.4276801 2.802578376 0)
(101.2852122 2.59647147 4.980173825e-20)
(101.512746 2.754282486 0)
(101.3587018 2.560596438 0)
(100.9795643 1.684251008 3.073129201e-20)
(101.2260803 1.97431673 1.990655402e-20)
(101.3207423 1.84938722 -1.772846998e-20)
(101.0560574 1.610478586 3.845146089e-20)
(100.7115313 1.103722536 -3.52203533e-20)
(100.899503 1.30193613 -1.572821813e-20)
(100.9547154 1.198066661 -1.591161122e-20)
(100.7600406 1.042711911 -7.683841787e-21)
(100.5103929 0.526350788 -9.791190917e-21)
(100.7688248 0.6574995469 -2.049696927e-20)
(100.806074 0.8694944168 -2.675827684e-21)
(100.6621851 0.83195617 5.252844137e-21)
(100.3700626 0.3006530019 8.22553362e-21)
(100.5438393 0.3903842302 1.251147279e-20)
(100.2914996 0.1358496495 -2.083791522e-21)
(100.4035008 0.2033034162 -3.681528145e-21)
(100.3380492 0.06249928704 -5.296185923e-22)
(99.43301608 10.48764045 -1.08580499e-19)
(99.04646161 10.90746032 3.097331853e-19)
(99.40153351 11.64969817 2.341180526e-19)
(99.73654616 11.09011115 1.192154356e-19)
(101.7489571 10.14878893 5.643387426e-19)
(101.6850243 10.77089322 7.852554577e-20)
(102.227086 11.13087824 0)
(102.2080486 10.41517456 2.572195123e-19)
(103.0374105 8.396864785 2.038711238e-18)
(103.2313949 8.96006425 7.69784723e-19)
(103.6756265 8.982898435 7.676912878e-19)
(103.3993895 8.418594089 -8.46444835e-19)
(103.2343424 6.360685977 0)
(103.5198611 6.787848788 -2.044513362e-19)
(103.8104049 6.669978054 0)
(103.4679606 6.271585739 0)
(102.8617438 4.574681021 -9.735091674e-19)
(103.1370712 4.881624028 -2.431052161e-19)
(103.2884011 4.740267953 -2.214290714e-19)
(102.9922674 4.462623381 -7.568026579e-19)
(102.5342196 3.336685092 -1.580130512e-20)
(102.3103063 3.119102596 -4.099568278e-21)
(102.6152644 3.200815182 1.97616034e-20)
(102.382211 3.011442859 2.427217486e-20)
(101.6982109 1.953907766 -9.96687981e-20)
(102.0463486 2.226676088 -6.3235858e-20)
(102.1051484 1.987872223 -3.555550954e-20)
(101.7542975 1.793091345 -1.837505949e-20)
(101.2204324 1.249860199 1.224463784e-20)
(101.4859398 1.428610457 3.696859405e-20)
(101.5046267 1.253510593 -4.119689556e-21)
(101.2480724 1.125816887 -4.038342278e-21)
(100.7857696 0.5226267083 2.12721851e-21)
(101.0950445 0.5874110269 0)
(101.2240363 0.8621135316 -1.033540043e-22)
(101.0662209 0.8757873475 -1.102749035e-20)
(100.5634222 0.2902721368 4.665022901e-22)
(100.7629383 0.3397685152 2.127026733e-21)
(100.4382337 0.1285512742 -2.133208477e-21)
(100.5560314 0.1694350256 -2.134873493e-21)
(100.4592956 0.05094554027 -2.142122818e-21)
(99.06239286 16.15502061 0)
(98.09767748 16.79878784 -1.922904993e-19)
(98.74979617 18.20950312 0)
(99.77764529 17.21095612 0)
(104.4217395 14.62348224 -1.672945679e-19)
(104.3524736 15.76576018 0)
(105.5192724 16.01897808 6.749653207e-19)
(105.3491623 14.73819334 2.818208434e-19)
(106.2917343 10.61686581 -5.65936725e-19)
(106.7510607 11.39403968 -5.240223712e-20)
(107.4479331 11.07986902 -5.640713832e-19)
(106.8367201 10.35996619 -1.070024012e-19)
(105.8910299 7.326220488 2.95782039e-19)
(106.4078984 7.761769874 6.458955579e-19)
(106.7049983 7.418052876 6.826625085e-19)
(106.1373488 7.047048977 -3.490804874e-19)
(104.7653604 4.99201326 0)
(105.1971821 5.258772637 -6.402352032e-19)
(105.3127781 4.973059298 1.828152325e-20)
(104.8713834 4.757548492 0)
(103.9411838 3.461949935 2.133445237e-19)
(103.6144404 3.278690335 1.465356338e-19)
(103.9758928 3.236865676 7.057341407e-20)
(103.6554564 3.086518767 1.832828076e-19)
(102.5305797 1.941010431 2.883922962e-20)
(102.9866612 2.149521964 -2.892901544e-22)
(102.9594352 1.80550732 1.765462486e-20)
(102.5279248 1.692346377 1.317433265e-20)
(101.7902969 1.20234714 -1.72453054e-20)
(102.1235062 1.324967471 -8.803069167e-21)
(102.074203 1.090540871 -8.804774638e-21)
(101.7689034 1.023050942 1.343310192e-20)
(101.0546096 0.4117214338 0)
(101.397981 0.3892436543 1.416985858e-21)
(101.630961 0.6870734617 -1.184527946e-20)
(101.4858916 0.7788981026 2.93614677e-20)
(100.7407555 0.2167839574 -5.374672425e-22)
(100.9467142 0.2054608034 -1.674041804e-21)
(100.5654401 0.09176050048 -2.155060453e-21)
(100.6739141 0.08987964461 -2.43853619e-21)
(100.5458328 0.02513805977 2.722755378e-21)
(94.17391253 28.38475906 3.723439128e-19)
(95.72516528 27.75022768 1.08268305e-20)
(94.94630623 30.39477636 1.30888339e-19)
(96.78781306 29.2643751 2.640215452e-19)
(111.1644342 22.88018075 4.178681406e-19)
(111.1632982 20.80963539 -5.792106612e-19)
(112.9318232 20.01535684 9.607945367e-19)
(112.2589695 23.46840963 0)
(114.4654077 21.8782033 0)
(114.1074811 22.8791534 0)
(112.8423495 12.7515816 5.022001075e-19)
(111.7708845 11.84262132 7.712693722e-20)
(113.5042699 11.73559758 -4.813348761e-19)
(112.2904786 11.06514066 4.911348089e-19)
(109.4503489 7.140340491 -1.315003959e-19)
(110.281057 7.468812304 -1.343737444e-19)
(110.4331041 6.810276045 9.208635232e-20)
(109.5917772 6.611974506 -1.170460683e-19)
(107.0528236 4.532139776 7.292065473e-19)
(107.647491 4.671609253 0)
(107.6314797 4.24143596 -8.598694928e-19)
(107.0562087 4.171718974 0)
(105.4778671 2.941874604 -1.14722017e-18)
(105.055781 2.861386792 -1.713467255e-19)
(105.4125156 2.648592755 -4.19795365e-19)
(105.0133751 2.592819329 -5.041093171e-19)
(103.3738693 1.57530799 4.664142066e-21)
(103.9309179 1.658047757 -4.636399691e-22)
(103.7519069 1.247379243 -2.720032685e-21)
(103.2678185 1.2563922 -4.862992105e-21)
(102.3358713 0.9128658078 4.826183523e-21)
(102.7133142 0.9453934302 -3.320712091e-23)
(102.5726065 0.6763435826 -7.784495631e-21)
(102.2420221 0.6941595037 9.761601184e-21)
(101.2667447 0.1901154389 -1.928837219e-22)
(101.599847 0.06832949168 -3.115008482e-22)
(101.9683988 0.3378288701 8.792682723e-22)
(101.854315 0.4708442927 7.115165549e-21)
(100.8649901 0.07851416472 -3.584684185e-21)
(101.0518398 -0.008614941929 -2.619718804e-22)
(100.6428502 0.02424713991 2.672516817e-21)
(100.7250336 -0.03184647325 -2.418393818e-21)
(100.5686853 -0.01400365345 4.693515456e-22)
(130.9150473 24.36795222 -2.037850632e-18)
(128.6519046 23.3882692 0)
(131.3836154 21.99838421 2.066881013e-18)
(129.2502647 21.51670287 0)
(121.0175628 9.824433462 1.742824041e-19)
(119.101051 9.511450617 1.163451367e-18)
(120.7831179 8.063240465 -1.308895932e-18)
(119.0349841 8.14484083 6.453921626e-19)
(113.2429262 4.981227818 1.073989069e-18)
(114.3257666 4.950117781 0)
(114.0535538 4.099412244 5.891614072e-19)
(113.0628771 4.273265057 0)
(109.2252307 2.944132774 6.413609374e-21)
(109.9202816 2.861899782 -9.226400321e-19)
(109.6755741 2.375486671 -9.360890711e-19)
(109.0461287 2.521148029 -9.29418666e-19)
(106.8250576 1.695179459 2.555885662e-20)
(106.354258 1.754433175 -3.560972642e-20)
(106.6231284 1.375391632 -7.969307944e-19)
(106.1957908 1.457425862 -4.242828974e-19)
(104.0698246 0.8292309799 -5.296656638e-21)
(104.6747644 0.7460730569 3.087149934e-21)
(104.3082539 0.3346310716 8.440920264e-21)
(103.8292318 0.492569087 1.225763511e-21)
(102.754213 0.3859759527 -2.134684366e-21)
(103.1422215 0.3054908906 1.475244157e-20)
(102.885436 0.04890619781 5.448362249e-21)
(102.5750974 0.1661043851 1.076764456e-20)
(101.3695054 -0.125103711 -3.817259188e-22)
(101.6578293 -0.3512702168 -1.135072568e-21)
(102.1450636 -0.1595752039 -1.152023554e-21)
(102.0989042 0.03286932322 -1.264263111e-21)
(100.8999602 -0.1162166387 1.157145986e-21)
(101.0433199 -0.2836207543 1.412457566e-21)
(100.6413338 -0.06851351654 -4.566226078e-21)
(100.6799681 -0.1857744246 1.768696181e-21)
(100.5040351 -0.06365512469 -2.264152627e-21)
(143.4950575 3.72625114 -1.522107095e-18)
(141.7677966 4.984777726 -4.953240446e-18)
(141.9114109 2.379320751 -2.419910048e-18)
(140.4716007 3.596925535 -2.549296771e-18)
(125.9045026 1.217642825 2.536348045e-19)
(124.0887938 2.123918725 -3.230916285e-18)
(124.4702055 -0.1064074134 -1.637060069e-18)
(123.059485 0.881061608 1.394447323e-18)
(115.7097338 0.7885630263 6.284384105e-19)
(116.7223527 0.2514705492 3.085171411e-19)
(115.9503331 -0.4420815343 -4.06110215e-21)
(115.1100091 0.1392865005 3.03933425e-19)
(110.60043 0.3243096963 -4.019278157e-20)
(111.2415189 -0.02892780361 9.885736645e-19)
(110.7448183 -0.429636176 9.873698881e-19)
(110.1964683 -0.05786477093 1.936598014e-18)
(107.5872664 -0.1431346184 -7.970742934e-20)
(107.1489893 0.07171556041 -8.331410134e-20)
(107.2392047 -0.4071779154 -1.385111043e-19)
(106.8570892 -0.1878904294 4.27763924e-19)
(104.4517638 -0.2192635136 8.408166381e-21)
(105.0237884 -0.483033601 1.820116795e-19)
(104.4832947 -0.812599279 -2.632985356e-21)
(104.0687023 -0.515318932 -1.360585436e-21)
(102.94286 -0.3257737196 6.122987431e-22)
(103.3001255 -0.5235224899 7.4709093e-21)
(102.935107 -0.7246480509 6.13134531e-21)
(102.675069 -0.5155742234 1.361741671e-21)
(101.3231524 -0.503085051 5.942729426e-22)
(101.5310297 -0.8242989917 1.370083071e-23)
(102.1062381 -0.7498576383 3.963312741e-22)
(102.1424883 -0.5246830394 -6.107125276e-21)
(100.8169238 -0.3477870606 2.169555519e-21)
(100.8966581 -0.5910488928 -2.394680645e-21)
(100.5374578 -0.178514898 4.312237213e-21)
(100.5201859 -0.3571077204 2.436444576e-21)
(100.3356016 -0.1191014497 2.142709272e-21)
(137.8923036 -14.0148025 4.65442362e-18)
(137.4623833 -12.55659182 -6.869173967e-18)
(136.3244095 -14.14585117 2.195236748e-18)
(135.9613138 -12.79133852 -1.179197579e-19)
(124.5532352 -7.953572832 -1.594171313e-18)
(123.602889 -6.477748909 -1.414450775e-18)
(122.7713254 -8.318398202 1.858280265e-19)
(122.0961515 -7.012265199 9.972092487e-20)
(115.7002897 -4.118817187 1.845840602e-18)
(116.3364405 -4.973656519 1.815248639e-18)
(115.3154794 -5.255378698 5.794999632e-19)
(114.8159126 -4.454563821 -5.627282899e-19)
(110.6662772 -2.690563042 1.007671305e-18)
(111.0788739 -3.226966617 1.044722674e-18)
(110.4647478 -3.420032533 -9.919960421e-19)
(110.0591779 -2.90814819 4.28563057e-19)
(107.5062007 -2.183072161 7.919324988e-19)
(107.1712379 -1.856381298 7.949398368e-19)
(107.0613173 -2.330509132 -6.896649525e-19)
(106.7803301 -2.020699205 8.00679349e-19)
(104.4000814 -1.419007001 2.22367531e-20)
(104.8623392 -1.82846535 -1.605703174e-19)
(104.2031134 -2.013435668 6.300333618e-20)
(103.9024476 -1.616610194 1.717734823e-21)
(102.8430681 -1.132736941 0)
(103.1276921 -1.426441323 -2.147440403e-20)
(102.6822424 -1.535617196 0)
(102.5003325 -1.255196728 0)
(101.1056328 -0.9027806487 -2.973763075e-21)
(101.2111725 -1.294619232 -7.791449571e-21)
(101.8315993 -1.35855684 2.325780468e-21)
(101.9532322 -1.125402068 -3.866197315e-22)
(100.6001505 -0.5927370049 -2.151395149e-21)
(100.6041779 -0.8973949972 -1.663299075e-21)
(100.3182429 -0.2948098241 2.674076324e-22)
(100.2391382 -0.5285250132 -1.45489779e-21)
(100.0574916 -0.1747759869 2.526249208e-22)
(127.0066591 -22.70768384 -1.635819306e-18)
(127.2267807 -21.62265269 -8.975491977e-20)
(125.8872234 -22.25160011 3.161906324e-18)
(126.0733659 -21.27089227 5.050605245e-20)
(119.4160274 -14.05403311 -2.701829505e-18)
(119.2508798 -12.66596881 -1.57440099e-20)
(117.869143 -13.70510258 -1.318798083e-18)
(117.8125986 -12.52926415 -2.477471053e-18)
(113.5213609 -8.136663769 -1.325135892e-18)
(113.751329 -9.023308711 -2.745926393e-19)
(112.7581829 -8.900753239 1.946494012e-19)
(112.6042093 -8.119234402 -1.323368212e-18)
(109.448121 -5.367060035 0)
(109.6682213 -5.959486376 9.014581285e-19)
(108.9934896 -5.920278685 1.271478409e-18)
(108.8282454 -5.39133193 -2.071630842e-19)
(106.6369655 -4.052378766 2.29210666e-18)
(106.4387906 -3.665600853 6.382159505e-19)
(106.1516513 -4.060073274 -4.596461024e-20)
(105.9924924 -3.711960312 7.461307118e-19)
(103.8990968 -2.575125846 4.082505028e-20)
(104.2027269 -3.069475249 4.237244814e-20)
(103.5005345 -3.085346416 -2.015135983e-20)
(103.3357208 -2.643021382 2.028635626e-20)
(102.4453307 -1.920982283 -1.444448726e-20)
(102.6298347 -2.276815889 6.458391627e-21)
(102.1464897 -2.278132404 -6.733548378e-22)
(102.0537629 -1.957343844 -1.498938908e-20)
(100.7190437 -1.278741688 -6.530527571e-21)
(100.7143912 -1.715602198 -9.008078411e-22)
(101.3378409 -1.912812314 -1.954161284e-21)
(101.5332585 -1.698170102 -5.694672808e-21)
(100.2498321 -0.8254061621 -1.220066477e-21)
(100.1766498 -1.171469288 5.476694675e-22)
(99.98314119 -0.405755245 -1.477165077e-21)
(99.8433499 -0.68383414 4.793722779e-22)
(99.67475993 -0.2254634785 2.526287967e-22)
(116.4471488 -25.0966658 -1.063616622e-18)
(116.9153835 -24.39128348 1.085199063e-18)
(115.704762 -24.41133871 -2.668188872e-20)
(116.1543542 -23.79547387 -2.016431282e-18)
(113.2345811 -16.68340665 9.727207082e-19)
(113.5391207 -15.66027425 0)
(112.1141283 -15.95905494 8.298497085e-19)
(112.4223803 -15.10640867 1.7804394e-18)
(110.2072229 -10.55508596 -4.166155721e-19)
(110.1288107 -11.29478228 8.536799399e-19)
(109.3170133 -10.90286831 -2.674220003e-20)
(109.4122693 -10.27104085 -4.173199319e-19)
(107.4124927 -7.228010877 3.964341931e-19)
(107.4388456 -7.757256928 -3.555393015e-20)
(106.8419737 -7.542883488 0)
(106.8378739 -7.077900838 1.802163721e-19)
(105.1826391 -5.426617147 2.030384694e-21)
(105.112682 -5.054095177 -1.838195844e-21)
(104.7212613 -5.318861092 -6.731483863e-19)
(104.6700167 -4.98596923 -8.322445515e-19)
(103.0249375 -3.529078845 -1.899619811e-20)
(103.1621834 -4.035035882 -8.824683045e-21)
(102.4523421 -3.464145277 1.893148487e-20)
(101.7904009 -2.596655347 -3.660165377e-21)
(101.8663256 -2.972720072 5.594894714e-22)
(101.3848101 -2.542532283 -1.965050533e-20)
(100.1892312 -1.594382148 4.275764448e-21)
(100.9246478 -2.186073272 -8.884085303e-24)
(99.78129594 -1.024364506 1.984286329e-21)
(99.54329696 -0.5014375698 1.984061296e-21)
(144.9657335 5.277628313 2.716993934e-18)
(143.254865 6.531117195 -7.131737483e-19)
(144.6075936 8.283998084 -7.144048004e-19)
(146.6199948 6.316355762 6.37802779e-18)
(146.545843 7.489973096 -3.908322858e-18)
(130.1365777 26.50772816 -2.199403474e-18)
(132.7524288 27.78351626 -4.71844206e-18)
(133.4018351 24.92545526 -6.351603589e-18)
(139.49854 -13.75273355 4.458531539e-19)
(139.0662899 -12.30027883 -1.108779759e-17)
(140.7388583 -11.90781912 -4.178183556e-18)
(140.926339 -13.97953923 -5.663877365e-18)
(141.3858148 -13.26041001 -2.832169188e-18)
(145.0089519 2.379824494 2.143420019e-18)
(146.6757057 3.196457191 9.14807093e-18)
(146.7095614 4.331854804 -8.042434726e-18)
(128.1751744 -23.13076765 -6.802157588e-18)
(128.3993908 -22.02958297 -5.272076015e-18)
(129.6249719 -22.39842868 6.445036011e-19)
(129.142847 -23.72341004 -4.49355367e-18)
(129.6210831 -23.43249796 -2.352167458e-18)
(138.1917199 -15.43374537 -3.548840814e-19)
(139.5673034 -15.74075719 3.234719422e-19)
(140.0496125 -15.0722216 9.048215212e-18)
(117.2290885 -25.74429817 1.209847808e-19)
(117.6964533 -25.05929221 2.277756404e-18)
(118.5280005 -25.67751016 2.428533711e-18)
(118.0179775 -26.45221171 1.164081774e-18)
(127.8646232 -24.23455195 -2.464743854e-18)
(126.7430383 -23.75345442 -3.188929803e-18)
(116.6994729 -26.4641378 -3.15049988e-18)
(115.9524949 -25.74611626 -9.817532422e-20)
(93.51899687 26.65007096 1.438572364e-19)
(92.19966146 29.02782202 -2.713748799e-19)
(127.7911662 25.55439734 -1.568926501e-19)
(126.7169197 27.45712287 -3.505564521e-18)
(128.9667936 29.12227639 4.217928792e-18)
(109.6082799 23.42392604 9.930775102e-20)
(109.8663017 24.4329054 2.764749664e-19)
(111.0940404 24.30009454 3.16098542e-19)
(158.4190752 25.54752929 2.636194446e-18)
(157.3039188 26.26502524 -2.024703136e-18)
(158.0048151 27.14791665 -2.592778911e-18)
(159.1655756 26.69132271 0)
(137.4955227 45.04971636 0)
(135.8941716 47.52471119 0)
(138.6639995 49.58991197 0)
(140.2688039 46.36253938 0)
(140.1616463 6.090601884 0)
(141.3285221 7.642769897 0)
(127.1142189 2.680965859 3.533273972e-18)
(125.2904292 3.653651059 1.279278041e-19)
(126.2264052 5.269140833 1.480662895e-19)
(128.5716582 4.544346319 3.69336858e-18)
(121.0029022 11.46742882 -9.683942803e-19)
(123.2975378 11.97969139 2.019561454e-18)
(123.0907906 9.783408269 4.752964355e-18)
(155.4819762 -10.03052955 -3.992940254e-20)
(154.7885737 -9.359223858 2.171614829e-18)
(155.8254529 -9.260508849 4.480468571e-18)
(156.5879841 -9.848854998 2.239522482e-18)
(159.2767651 4.503806199 1.283414722e-18)
(158.5880932 4.073911975 1.293625767e-18)
(160.1130822 3.871181031 -6.815815072e-19)
(159.0871861 3.454493978 -2.618834822e-18)
(136.985927 -11.17470576 -2.471426578e-18)
(138.5085796 -10.82497109 -2.07805371e-18)
(126.3092861 -7.389800092 -1.508310018e-18)
(125.3716876 -5.879327688 -1.40135159e-18)
(127.0723472 -5.079881448 -6.289261269e-20)
(128.36399 -6.738643401 -1.230393879e-18)
(129.2589351 1.606321012 -6.436309293e-19)
(127.5292604 0.02687981713 1.80106926e-18)
(138.4857935 -26.28763479 0)
(138.6826565 -25.84881723 2.144761226e-18)
(139.0496921 -26.02959213 -1.758837665e-18)
(139.0463079 -26.44775243 -8.961606425e-19)
(147.4520021 -20.13225229 -2.082050884e-18)
(146.7071733 -20.10607127 5.131235062e-20)
(147.7822557 -20.75598691 2.200678327e-18)
(146.9172369 -20.64600837 -2.093397347e-18)
(127.3657439 -20.59084742 1.469175268e-18)
(128.5674349 -20.89751224 2.009323298e-21)
(121.0417482 -14.26595374 -2.878065524e-18)
(120.8849592 -12.87124234 -1.667698602e-19)
(122.5809462 -12.92151752 -1.598094054e-18)
(122.8495894 -14.55606222 -1.893316457e-18)
(127.3112538 -9.106543782 1.378911141e-19)
(125.2701999 -9.476867971 -9.794473398e-20)
(123.9090875 -31.07663629 1.347825625e-18)
(124.2854708 -30.60128286 -1.392968603e-18)
(124.7381741 -30.96222036 1.467806576e-18)
(124.3736774 -31.46853234 1.046343817e-18)
(130.8285155 -29.54222378 4.761350562e-19)
(130.2487077 -29.22800559 -1.244801971e-18)
(129.9211268 -29.8190803 1.667670471e-18)
(130.420511 -30.2414705 -3.43205536e-18)
(130.7400138 -30.12665787 -3.549391471e-18)
(100.2427603 -33.73520675 -1.284171025e-18)
(103.4483412 -34.50861438 6.513137421e-19)
(105.0412233 -34.76738424 -6.13635267e-19)
(102.7703691 -34.35362844 5.827234465e-20)
(111.6913495 -30.44209712 7.225253633e-19)
(112.2301924 -30.21827006 -4.831068552e-19)
(112.3726809 -30.63149819 7.902855797e-19)
(111.9184769 -30.91959167 -6.878958732e-19)
(117.5613846 -31.35624226 1.598871573e-20)
(117.216994 -30.94216279 -1.955703648e-18)
(117.1278333 -31.73650237 1.049537504e-18)
(116.7993745 -31.3076676 3.247303462e-20)
(158.767258 5.130662705 -2.52508879e-18)
(159.4330126 5.578779305 7.583280078e-18)
(160.2832984 4.949107252 1.301344224e-18)
(158.0145524 24.27033319 5.561326039e-18)
(159.6348431 24.93818394 -4.581167975e-20)
(159.0441884 23.94295355 -2.648266377e-18)
(141.1076264 17.48434383 -6.64215748e-19)
(140.4354023 15.17463554 -7.599657105e-19)
(142.728412 14.45835358 -1.368138105e-18)
(144.1505317 16.28216407 6.12733481e-18)
(143.5844063 17.45476856 -3.763519965e-18)
(155.966628 24.7240119 5.870146504e-20)
(158.2786464 23.15404181 -4.984228903e-18)
(156.8808825 21.83632361 3.175371182e-18)
(155.0139201 22.74132704 -3.1863446e-20)
(158.0782137 4.703475139 -2.470928314e-18)
(157.682084 5.325057088 -4.941396391e-18)
(158.2680871 5.763403552 -4.944334266e-18)
(147.2225562 -19.58986253 -2.106106337e-18)
(147.9755249 -19.59903688 2.230507946e-18)
(148.3270852 -20.22449734 -2.205607064e-18)
(154.426906 -10.11562136 1.687621828e-20)
(156.1899488 -10.63739011 2.476198555e-18)
(155.0906531 -10.78765944 -4.478837172e-18)
(142.9036525 -5.350571086 -4.759803736e-20)
(142.0975288 -5.864830578 -3.089733027e-18)
(143.517554 -6.13987708 -2.316890794e-18)
(142.6594437 -6.497580875 -2.315919872e-18)
(153.7544127 -9.491893968 2.193553193e-18)
(153.3840655 -10.22733308 2.238027406e-18)
(153.0425057 -9.65133626 2.183422929e-18)
(146.4849868 -19.5565158 4.195799953e-21)
(146.4142155 -19.02699212 -2.089629189e-18)
(146.9838116 -19.03490045 -2.096821939e-18)
(157.8933798 3.666188108 2.542333891e-18)
(157.5070929 4.257710484 2.475100454e-18)
(153.3968308 -8.912889643 -4.574507477e-18)
(154.0969174 -8.745130283 -2.267953897e-18)
(142.5262822 -4.451497721 4.757247075e-18)
(143.3404949 -4.192787562 2.316632268e-18)
(143.893721 -4.922989776 2.316310067e-18)
(131.1407268 -28.94084763 1.802137595e-18)
(131.7503591 -29.24128777 -1.756819769e-18)
(131.3678725 -29.98626155 3.918022303e-18)
(131.6934903 -29.84762391 -1.932114746e-18)
(137.9884824 -26.14829655 -3.752719553e-20)
(138.4903463 -26.70104073 0)
(137.9786666 -26.54364505 0)
(133.9788326 -19.53751994 -2.152257929e-18)
(132.583602 -19.373417 0)
(132.5281554 -20.61363239 -2.394691758e-18)
(133.6223929 -21.14474194 2.471948147e-18)
(134.1456135 -20.6963946 3.406460537e-22)
(138.005795 -25.4171021 3.152401259e-18)
(137.6311021 -26.37245331 -3.754774293e-20)
(137.0045637 -25.94343844 -2.132809057e-18)
(137.2780748 -25.20827573 -2.076509822e-18)
(130.5623789 -28.62905397 8.326289144e-20)
(130.8798813 -28.02445703 8.305757646e-20)
(131.4385744 -28.32878394 -1.37643218e-20)
(145.9810774 -20.06171051 2.1139332e-18)
(145.9226357 -19.53635405 6.188199499e-18)
(139.0381186 -25.61303717 -2.030767837e-19)
(138.2599603 -24.66227491 3.205145489e-18)
(139.1407859 -25.05290842 2.159042295e-18)
(138.9009321 -24.65341363 2.140705672e-18)
(133.9632722 -18.24529791 -2.154085858e-18)
(135.4168176 -18.32122469 2.22574738e-18)
(135.1418489 -20.0278713 1.090382655e-18)
(135.6650058 -19.52545773 -4.073505716e-18)
(117.9724706 -30.9780346 -1.052751603e-18)
(118.3299967 -31.38547518 -1.100526342e-18)
(117.9033995 -31.77907767 -1.093639395e-18)
(123.4688302 -30.71320789 1.040187431e-20)
(123.532667 -31.57234009 -5.978519457e-20)
(123.0864559 -31.17221138 1.347402418e-18)
(97.99024471 -33.21078353 -6.678874421e-19)
(101.0785391 -33.9551337 1.275322736e-18)
(95.02646721 -32.46588355 6.326383331e-19)
(96.64303189 -32.86679313 -6.7568246e-19)
(93.84288665 -32.00036909 -1.369417421e-18)
(111.2171429 -30.68794584 3.665668146e-20)
(105.35484 -34.82067053 6.291254602e-19)
(170.836439 54.78840457 -5.956325079e-17)
(168.0945946 55.29953748 1.268646608e-17)
(168.6078005 57.90987858 1.090637619e-17)
(173.1392244 59.0446671 2.248353301e-17)
(139.7137837 71.21652851 -6.92660028e-18)
(137.1462322 73.78107095 -6.941606535e-18)
(140.3404634 77.27300619 -7.190341125e-18)
(142.9784288 73.56797129 -4.596869342e-18)
(116.393237 -31.35993262 2.897890338e-18)
(119.6586734 -32.02542903 2.630566043e-18)
(116.1204008 -31.13993154 5.77851761e-18)
(106.5503134 -28.83518781 -4.882051182e-18)
(117.3527262 -23.73910371 3.307839755e-18)
(118.1434353 -24.31759899 -4.766139562e-21)
(114.4615946 -17.33182088 -1.282217023e-19)
(114.7744457 -16.31890293 -1.101332938e-18)
(116.1128441 -16.88555116 -8.975392919e-21)
(115.7770133 -18.12361229 -2.223365129e-18)
(121.1208722 -15.81816139 -3.64618171e-19)
(119.4262048 -15.3679041 -1.391978492e-18)
(94.39363258 -31.52538517 -7.185720599e-19)
(97.99630278 -32.51760713 -3.807288006e-18)
(94.02243377 -31.33071358 -3.035027123e-18)
(85.83193477 -28.86137748 -2.185474208e-18)
(113.8861509 -34.30906576 2.27722258e-18)
(114.3848907 -33.94088466 -8.859782286e-19)
(114.7034817 -34.44440474 -1.914241443e-19)
(113.9381194 -34.74618791 3.100516816e-20)
(114.1828856 -34.81131399 1.083059941e-18)
(117.2539084 -34.55334172 -2.452387594e-20)
(117.0168386 -34.30279017 2.818373609e-19)
(116.9409146 -34.70577725 -9.278392774e-21)
(116.8652947 -34.51735797 -8.481119928e-19)
(135.0515988 43.32129721 0)
(138.7728347 42.28300091 0)
(136.3738843 41.16807423 3.672880776e-20)
(156.8503291 27.40152154 -5.468718034e-18)
(153.9189147 25.50668593 3.736369193e-20)
(154.71723 27.66281367 -4.712410363e-20)
(138.660445 17.92105016 -9.353869544e-20)
(139.0213648 20.30946879 1.268943673e-20)
(142.2976726 19.57164935 -3.114368996e-18)
(141.4929894 20.63241959 6.170983103e-18)
(117.5833224 -34.28949808 -1.244368397e-18)