/*--------------------------------*- C++ -*----------------------------------*\
| =========                 |                                                 |
| \\      /  F ield         | OpenFOAM: The Open Source CFD Toolbox           |
|  \\    /   O peration     | Version:  v2012                                 |
|   \\  /    A nd           | Website:  www.openfoam.com                      |
|    \\/     M anipulation  |                                                 |
\*---------------------------------------------------------------------------*/
FoamFile
{
    version     2.0;
    format      ascii;
    class       surfaceScalarField;
    location    "0.63";
    object      meshPhi;
}
// * * * * * * * * * * * * * * * * * * * * * * * * * * * * * * * * * * * * * //

dimensions      [0 3 -1 0 0 0 0];
oriented        oriented;


internalField   nonuniform List<scalar> 
6464
(
0
0
0
0
0
0
0
0
0
0
0
0
0
0
0
0
0
0
0
0
0
0
0
0
0
0
0
0
0
0
0
0
-8.933539366e-07
0
8.159662479e-09
7.594812457e-07
0
0
0
0
0
0
0
0
0
0
0
0
0
0
0
0
0
0
0
0
0
0
0
0
0
0
0
0
0
0
0
0
0
0
0
0
0
-9.027250264e-08
-0.0002343536039
-7.917510402e-07
0.0002318142647
-7.757330068e-06
-0.000185988201
1.357851942e-05
0.0001603153805
-3.879864e-06
-7.166153206e-05
1.07801898e-05
4.469122157e-05
0
-1.322930994e-06
2.345349891e-07
0
0
0
0
0
0
0
0
0
0
0
0
0
0
0
0
0
0
0
0
0
0
0
0
0
0
1.162092752e-05
-0.0007963944053
-1.870240658e-05
0.0007947255417
-3.369696449e-05
-0.0007171819178
3.934268214e-05
0.0006683345227
-4.884723499e-05
-0.0004681577952
6.52859976e-05
0.0003902506619
-2.01300941e-05
-0.0001634632559
3.445605302e-05
0.0001016042272
0
-2.473321812e-06
6.038273868e-07
0
0
0
0
0
0
0
0
0
0
0
0
0
0
0
0
0
0
0
0
0
0
4.773097259e-05
-0.001327314798
-5.798530749e-05
0.001327412271
-4.730953737e-05
-0.001254675179
4.668642381e-05
0.001204018935
-0.0001150659128
-0.0009682755616
0.0001294619584
0.0008650010003
-8.762996822e-05
-0.0005288486963
0.0001091681762
0.0004186966313
-2.12836687e-05
-0.000126361516
3.446799749e-05
6.269184374e-05
0
0
0
0
0
0
0
0
0
0
0
0
0
0
0
0
0
0
0
0
0
7.965993289e-05
-0.001513666886
-8.171077458e-05
0.001513756342
-3.475949986e-05
-0.00149619995
2.956045027e-05
0.001472545798
-0.0001336064272
-0.001334252875
0.0001381411111
0.001242885537
-0.0001872335951
-0.0008713366753
0.0002068469495
0.0007349518028
-8.481812257e-05
-0.0003348426422
0.0001026105168
0.0002229540647
-1.508797587e-05
-1.944596252e-06
3.481585294e-06
2.278863441e-07
0
0
0
0
0
0
0
0
0
0
0
0
0
0
0
0
0
-0.0007165827343
4.411780782e-05
-4.427958884e-05
0.0007167445154
-0.0007351524906
6.477886158e-06
0.001468984199
-0.0007401768525
1.023710641e-05
-1.036984813e-05
-0.001395452921
-0.0001655819045
0.0001616249176
0.001342572256
-0.0002463829322
-0.001053083658
0.0002521104176
0.0009240214084
-0.00015124302
-0.0004958056247
0.0001681675942
0.000364141085
-7.253582426e-05
-1.712078313e-05
2.260683495e-05
2.295411782e-05
0
0
0
0
0
0
0
0
0
0
0
0
0
0
0
0
0
-0.0006826503657
-8.182924151e-06
9.244888709e-06
0.0006815884011
-0.001342596679
-0.000152067731
0.0001493195127
0.001316487825
-0.0002779260861
-0.001086658825
0.0002805235601
0.0009699245727
-0.0002021550981
-0.0005652562968
0.0002068057192
0.0004318242026
-0.0001174963158
-3.584625499e-05
4.17903652e-05
5.138916847e-05
0
0
0
0
0
0
0
0
0
0
0
0
0
0
0
0
0
-0.0006306271373
-1.142739052e-05
1.175071802e-05
0.0006303038098
-0.001252289183
-0.0001462379084
0.0001456594861
0.001237722301
-0.0002851974788
-0.001050387478
0.0002857702247
0.0009478474615
-0.000225940382
-0.0005774172673
0.0002294855579
0.0004505282815
-0.0001339849628
-4.944543282e-05
5.196080166e-05
6.508531297e-05
0
0
0
0
0
0
0
0
0
0
0
0
0
0
0
0
0
-0.0005802702181
-1.24797525e-05
1.264236954e-05
0.0005801076011
-0.001151991157
-0.000146737877
0.0001475556453
0.001136092356
-0.0002843075089
-0.0009574273683
0.0002832954582
0.0008621235907
-0.000226758291
-0.0005223205125
0.0002250180674
0.0004071032022
-0.0001207311575
-5.026182127e-05
4.946640971e-05
5.84299641e-05
0
0
0
0
0
0
0
0
0
0
0
0
0
0
0
0
0
-0.0005317440274
-1.28342001e-05
1.293096808e-05
0.0005316472595
-0.001051613335
-0.0001523112735
0.0001543636272
0.001025596636
-0.0002773972735
-0.0008305588772
0.0002697971884
0.0007448987424
-0.00020715437
-0.0004333859649
0.0002012631032
0.0003314247471
-8.706033056e-05
-3.852256918e-05
3.599318292e-05
3.747273234e-05
0
0
0
0
0
0
0
0
0
0
0
0
0
0
0
0
0
-0.0004825488857
-1.294940287e-05
1.287325702e-05
0.0004826250316
-0.0009388861559
-0.0001596626221
0.0001616190362
0.00090083657
-0.0002575918569
-0.000702353625
0.0002585564358
0.0006108916189
-0.0001751279289
-0.0003274366414
0.0001628425877
0.000240858081
-5.101259452e-05
-2.341361412e-05
1.978043131e-05
1.671514309e-05
0
0
0
0
0
0
0
0
0
0
3.99540369e-06
0.0006356549121
-3.625355478e-06
-0.0003178022669
-0.0003182226935
2.484135133e-06
-0.0006855578668
4.233659952e-07
6.149287681e-06
0.0005869623173
-5.901045723e-06
-0.0002928140999
-0.0002943964593
5.050923087e-06
-0.0003151286258
-0.000316554031
6.271043254e-06
0.0005372030668
-6.686442176e-06
-0.0002675507985
-0.0002692368694
6.310982453e-06
-0.0002890917362
-0.0002913401767
6.816571844e-06
0.0004882736038
-6.573217658e-06
-0.000488516958
-0.0005319170219
6.444037698e-06
-0.0004824918244
6.759510535e-06
5.031832088e-05
-5.017406987e-05
0.0006919743192
1.543961465e-06
-0.0006910341455
8.493373524e-06
-0.0007301664812
-1.347938295e-05
-4.677620187e-06
0.0001664111604
4.778825402e-06
-0.0001665123656
0.0003474240643
1.495478017e-05
-0.0003484378652
-1.394097923e-05
0.0006354154129
-1.118789129e-05
0.0001096251182
0.001274113438
-0.0001080749948
-0.001275979314
-0.0001063816799
-0.001350120374
0.0001090441787
-5.290807166e-06
0.0001523618559
5.177578686e-06
-0.0001522486274
4.209228113e-06
0.000158389737
-0.0001582290052
-4.369959927e-06
0.0005868484721
-1.236590729e-05
0.0001110613042
0.001178366941
-0.0001106968395
-0.001178804516
-0.001252933402
0.0001101678737
-4.32106059e-06
0.0001400891875
4.348942259e-06
-0.0001401170691
4.995292518e-06
0.0001457785804
-0.00014554325
-5.230622875e-06
0.0005373229804
-1.295411373e-05
0.0001136434941
0.001076553751
-0.000112514312
-0.001079907031
-0.001152627568
0.0001114746261
-8.681367431e-06
0.0002554410594
8.746824123e-06
-0.0002555065161
8.999158392e-06
0.0002665637961
-8.443611295e-06
-0.0001335020346
-0.0001336173086
-0.0001164590077
-1.022142375e-05
0.0001160489234
1.063150804e-05
-8.650089978e-06
0.0002313553988
8.545450299e-06
-0.0002312507591
8.697674804e-06
0.0002418881803
-0.000241864061
-8.721794051e-06
0.0001589141322
4.077131086e-06
-0.0001587820352
0.0001655583526
-0.0001656976278
-4.538345057e-06
-2.425186341e-06
0.0006565191983
3.154326032e-06
-0.0003284569053
-0.0003287914326
9.682800591e-06
-0.0001646979699
-9.087241561e-06
0.0003296607635
-4.001388012e-06
0.0001589828042
3.932716027e-06
0.0001459077113
4.73106933e-06
-0.0001456434881
0.0001523694609
-0.0001521553458
-5.504922272e-06
-3.547471568e-06
0.0003040045889
-0.0003040579264
3.600809109e-06
4.702234579e-06
-4.773230976e-06
0.0001524404573
-4.380018655e-06
0.0001460566519
4.231078049e-06
-4.081501674e-06
0.0001584698507
0.0001524545906
4.609499836e-06
0.0003050878839
-3.549318409e-06
-0.0003050860371
0.0002677116433
8.92221678e-06
-0.0001336309872
-0.0001340037144
0.0001396887267
-0.0001396433715
-4.366415846e-06
-6.865613945e-06
0.0005552717559
6.722165218e-06
-0.0002766006535
-0.0002785276536
7.481013181e-06
-0.0001389206098
-7.27998176e-06
0.0002784083051
-7.329702128e-06
0.0002676949174
7.346428015e-06
-4.526870042e-06
0.0001459254318
-0.0001402724653
0.0002801654402
3.952268329e-06
3.724957348e-06
0.0005614903821
-6.405235582e-06
-0.000280176429
-0.0002817743314
0.0002435446964
8.684838399e-06
-0.00024353186
0.0002541114785
-0.000254093589
-8.699256973e-06
9.796989382e-06
0.0001151264239
-0.0001146558442
1.057505984e-05
-0.0001172370781
-0.0002295590912
0.0001151250601
-2.726400073e-05
0.0001674419838
-1.68562129e-06
-0.0001384923618
0.000179029828
1.24223688e-05
-0.0001815514634
-9.90073335e-06
-4.212656084e-05
0.0001319051422
1.842692712e-05
-0.0001082055085
0.000488202374
-1.287817301e-05
0.0001195322888
0.0009689130133
-0.0001174751631
-0.0009835081761
-0.001056209049
0.000114299147
-4.250888538e-05
0.0001189644956
1.985136692e-05
-9.630697713e-05
-1.490115479e-05
0.0002372566423
1.503188792e-05
-0.0001184967422
-0.0001188906332
7.317465237e-06
0.0001210989368
-0.0001210708046
-7.34559744e-06
1.532178024e-05
-1.245599248e-05
0.0003445582765
-0.0001662507122
0.0003319277068
1.041696632e-05
0.0006622453615
-3.582698642e-06
-0.0003299677341
-0.000331120115
0.0001216870166
7.410026028e-06
-0.0001217795774
8.745845904e-06
0.0001244193316
-0.0001248012467
-8.363930887e-06
-6.48249183e-06
0.0005063245563
-0.0005064058514
6.563786937e-06
7.232261703e-06
-7.169053056e-06
0.0002540482698
-7.172081771e-06
0.00024351659
7.200188155e-06
-7.168556266e-06
0.0002664026502
0.0002554607765
7.212544626e-06
0.0005130198067
-6.516086831e-06
-0.0005129862117
0.0003476293499
2.32695188e-05
-0.0003476099509
-2.328891781e-05
0.0003482723917
1.550777731e-05
-0.0003488253888
0.0007264073074
4.66130418e-05
-0.0003634618408
-0.0003517175988
-2.190164443e-05
-3.59392652e-05
2.818004248e-05
-2.86687603e-05
0.0003481180677
0.0002133219463
-0.0002405859471
1.20319277e-05
0.0003388072812
-1.127273593e-05
-0.0001694474711
-0.0001701190018
1.136806417e-05
3.021211047e-05
0.0001717417717
1.004326904e-05
-8.752806631e-06
0.0001777393656
0.0001716451257
7.164922249e-06
0.0003392329502
1.105783949e-05
-0.0001691747923
-0.0001690840697
4.795321343e-06
0.0001552627429
-0.0001552852292
-4.772835017e-06
0.0001557824388
4.798581743e-06
-0.0001557856992
4.17940956e-06
0.0001430915929
-0.0001430626502
-4.208352202e-06
0.000143850486
4.359771015e-06
-0.0001440308474
0.0001273099695
-8.773348584e-06
7.82886001e-06
-0.0001263654809
0.0001335324578
-0.0001700988985
-5.560120208e-06
8.832378867e-06
0.0002598469915
-0.0002598287598
-8.850610604e-06
9.546006053e-06
-7.665262488e-06
0.0001316517143
-8.257311084e-06
0.0001275660219
8.001258709e-06
8.556780175e-06
-1.778139592e-05
0.0001321001981
-0.0001228755823
0.0001311428543
1.030829394e-05
0.0002615492331
8.843431305e-06
-0.0001305487289
-0.0001310115566
-1.463126358e-05
0.0002310879947
1.466688014e-05
-0.0002311236112
0.0002356807794
-1.476260825e-05
-0.0001177606075
-0.0001180587185
-0.0001549031014
-8.440315046e-06
0.000120834531
4.901511589e-06
0.0001621500057
-0.0001617408588
-5.3106585e-06
0.0001621616893
4.917952464e-06
-0.0001621781302
3.916414631e-06
0.000149230224
-0.0001492053324
-3.941306263e-06
0.0001496077444
3.956994667e-06
-0.0001496483244
-3.782139739e-06
0.0001495585822
3.831301926e-06
-2.883782964e-06
0.0002989529851
2.937916028e-06
-0.0002990071182
3.020345413e-06
0.0003041928309
-0.0003042201322
-2.993044136e-06
-2.79205502e-06
0.0002928848355
2.813651837e-06
-0.0002929064323
0.0002976689041
-0.0002976935102
-2.859176802e-06
-3.76336957e-06
0.0001492114538
-4.337573831e-06
0.0001557418437
4.378168957e-06
-3.158052077e-06
0.0003116488805
3.188332146e-06
-0.0003116791605
3.314720841e-06
0.00031673444
-0.0003167676326
-3.28152825e-06
0.0003051665894
3.047730644e-06
-0.0003051939747
0.0003099971784
-0.0003100253918
-3.12983866e-06
-4.326761489e-06
0.0001552519306
4.439823167e-06
0.0001365451436
-0.0001365777664
-4.407200385e-06
0.0001307663012
6.192699335e-06
-0.0001284022203
0.0001368799783
4.527759417e-06
-0.0001369679145
-0.0001270712862
-8.550537102e-06
0.0001273645122
-0.0001251139033
-7.70864772e-06
0.0001248615952
7.960955771e-06
-8.651486676e-06
0.0002496614071
8.75150041e-06
-0.0002497614209
9.141330145e-06
-0.0001255093875
-0.0001262639126
-9.580722143e-06
8.211759807e-06
-0.0001631148612
0.0002293060333
-0.0002291759415
0.0002092196448
1.201624865e-05
-0.0002212358934
-1.144871037e-05
0.0001200056195
1.139583913e-05
-0.0001199527482
8.462008789e-06
0.0001209897217
-0.0001206440954
-8.807635039e-06
-0.0001951137548
-1.152047686e-05
-4.334551892e-05
0.0002499797505
0.0001223036512
9.712696351e-06
-0.0001235543388
6.746552811e-06
0.0001235270303
-0.0001221428031
-8.130780034e-06
0.0003416357583
1.764939343e-05
-0.0003441428939
-1.097409535e-05
-4.168162423e-06
0.0001805079954
1.39656607e-05
-0.0001820512873
0.0003622609593
3.438623773e-05
-0.0003546046545
-4.204254252e-05
3.224387757e-05
0.0003462432396
-1.91551772e-05
-1.769618172e-05
4.884383745e-06
0.000153663512
-0.0001535538055
-4.994090249e-06
5.438901857e-06
-5.460370259e-06
0.0001577802859
-0.0001577588175
-5.371054006e-06
0.0001571624807
5.506661379e-06
-0.0001572980881
-4.746400479e-06
0.0001573809981
4.645803172e-06
-0.0001572804008
4.689824414e-06
0.000141179171
-0.0001410487607
-4.820234699e-06
7.579773493e-06
-0.000140495993
-7.921488802e-06
0.0001408377083
-4.588586517e-06
-0.0001417129919
0.0001410335789
5.267999458e-06
5.340418984e-06
-5.240957453e-06
0.0001448835837
-0.0001449830452
-1.641280478e-05
0.0001445176621
7.372098711e-06
-0.000135476956
-5.567844096e-06
0.0001444542125
5.649092992e-06
-0.0001445354614
4.8795345e-06
0.0001597658945
-0.0001603102675
-4.335161521e-06
7.531492026e-06
-0.0002003017248
3.091185445e-05
0.0001618583783
0.0001581255602
3.926099991e-06
-0.0001566127583
-4.321828108e-06
0.0001620652317
4.41828572e-06
-3.47884601e-06
0.0003236409079
3.634089612e-06
-0.0003237961515
3.683953696e-06
0.0003297657646
-0.0003297088244
-3.740893897e-06
0.0003179847308
3.377318041e-06
-0.000318047328
0.0003231697431
-0.0003232051122
-3.443476895e-06
-4.45641727e-06
0.0001622845949
4.202576616e-06
0.0001471516678
-0.0001470069452
-4.347299281e-06
4.598624573e-06
-5.002088909e-06
0.0001465602665
-0.0001461568022
0.000145019395
4.924967565e-06
-0.0001446039436
-5.065151968e-06
0.0001513113594
5.371120084e-06
-0.0001516173275
-0.000138682856
-5.206314094e-06
0.0001393005836
-0.0001367047652
-7.785865923e-06
0.0001375225796
6.968051544e-06
-4.684133648e-06
0.0001382004654
4.609867892e-06
-0.0001381261996
-7.198887749e-06
-0.000136993427
0.0002737105516
7.361741464e-06
0.0002734803551
-2.383541904e-06
2.526865278e-06
-0.0002736236785
2.578185146e-06
0.0002784595904
-0.0002784514614
-2.586314142e-06
-3.525932528e-06
0.0001435203353
3.85608322e-06
-2.837143706e-06
0.0002866494476
2.780500963e-06
-0.0002865928049
0.0002914365182
-0.0002914841726
-2.744400616e-06
0.0002803144879
2.544510949e-06
-0.0002802808137
0.0002851758507
-0.0002854580815
-2.554912958e-06
-3.406460052e-06
0.0001429721204
0.0002479192315
-0.0002479171264
-8.65359172e-06
-7.491722053e-06
0.000124202406
-1.314814298e-05
-0.0001221460179
0.0002435722741
1.340890347e-05
4.286614628e-05
0.0001199660772
-0.0001536183302
-9.213893321e-06
9.40299383e-06
0.0001772246369
-0.0001753858802
-1.124175049e-05
2.475590244e-05
7.102970968e-07
0.0001837534452
0.0001768085274
7.9122548e-06
-0.0001753177884
3.012768476e-06
0.000128333861
-6.418432089e-06
-0.0001249281973
0.0001320858394
-1.191960782e-05
-0.0001171534631
-1.062355907e-05
0.0001187093336
1.076318539e-05
-0.0001188489599
0.0001200808085
-0.0001206807567
-1.084876223e-05
8.542055527e-06
0.0001565911697
-0.0001651332252
-1.982250969e-05
5.508036709e-05
0.0001393581607
-4.232470874e-06
-4.163887644e-06
0.000142601262
-0.0001240349069
7.209092189e-06
-8.590473501e-06
0.0001254162882
-0.0001258537094
-8.805744073e-06
0.0001244115373
1.024791622e-05
-7.774836413e-06
0.000123250624
8.029094179e-06
-0.0001235048818
4.16933999e-05
-0.0001608005565
-9.701928103e-06
-6.79008615e-06
-0.0001075428926
0.0002132982332
2.585582855e-05
-0.0002391540617
-5.195834691e-06
0.000168890765
5.534112225e-06
-0.0001692290425
5.70632579e-06
0.0001700745157
-0.0001703803351
-5.400506342e-06
-4.811054349e-06
0.0001666170721
6.616644364e-06
-0.0001684226622
0.0001675792856
-0.0001677881694
-4.986950921e-06
0.0001698244077
6.966559758e-06
-0.0001710846417
6.975563698e-06
0.0001709634839
-0.0001714666901
-6.472357487e-06
1.08505708e-05
-8.593676394e-06
0.0001749677425
5.375112162e-06
-5.088217085e-06
0.0001555592178
-0.0001558461129
0.0001896781894
1.871649444e-05
-0.0002083946839
0.0001543244589
4.806095809e-06
-0.000154246171
0.0001567068855
-0.0001566589212
-4.794364851e-06
-5.462078145e-06
0.0001565862697
-0.0001564952456
0.000155806236
5.330056953e-06
-0.0001557611808
-0.0001413711759
4.213058476e-06
-5.067573981e-06
0.0001422256914
-0.0001394865033
0.0001403791495
6.687127278e-06
0.0001412499895
4.652705872e-06
-0.000141212871
-7.742238562e-06
5.840291316e-06
-0.000137584556
4.099740089e-06
-4.68091747e-06
-0.0001407899985
-3.762150408e-06
3.566404258e-06
-0.0001415172457
-1.685281144e-05
-0.0001313854201
0.0001432924881
2.149244495e-06
-0.0001413419926
0.0001443659891
-0.0001447286911
-5.205142112e-06
-4.225759347e-05
0.0001461152187
-0.00012027043
0.0001438933025
3.612244114e-06
1.011636053e-05
0.0001293922513
-0.0001298653685
-9.643243317e-06
0.0001286730267
8.557470057e-06
-0.0001271141362
-8.931481606e-06
0.0001295624589
8.042049355e-06
-6.098889915e-06
0.0001297579834
6.189663835e-06
-0.0001298487573
6.694956614e-06
0.0001300854414
-0.0001303585353
-6.421862749e-06
-5.36357769e-06
0.0001328106523
4.638764808e-06
-6.358905072e-06
0.000132243121
6.425746188e-06
-0.0001323099622
6.4464774e-06
0.000133622809
-0.0001335253105
-6.543975897e-06
0.0001305753855
6.789216813e-06
-0.0001306696457
0.0001315639972
-0.0001314686684
-6.454233835e-06
-7.243895386e-06
0.0001302141787
-0.0001174944607
-1.288776423e-05
0.0001175771413
1.280508366e-05
-9.723244877e-06
0.0001171049848
9.896212153e-06
-0.0001172779521
0.0001184801295
-0.0001188024149
-1.030127373e-05
-0.0001597256826
5.093390053e-06
-6.032407749e-06
0.0001606647003
-0.0001608191284
0.000161070132
7.280488388e-06
0.0001598060927
5.315441675e-06
-0.0001602419998
-2.296350566e-05
8.316500295e-06
-0.000146172123
4.174330694e-06
-6.281390753e-06
-0.0001576186225
-0.0002232652304
-8.58629621e-06
0.0001621039443
7.018198754e-06
-0.0001605358468
0.0001656182528
-0.0001661695924
-4.259714717e-06
0.0001611307124
-5.260474903e-06
-0.0001516959068
0.0001640401489
-0.0001636179062
-9.008538936e-06
4.83126486e-06
0.0001642438978
-0.0001641432941
-4.931868548e-06
7.731052477e-06
-7.313346776e-06
0.0001636224432
0.0001615355353
4.688567096e-06
4.747556438e-06
-4.403914112e-06
0.0001492778234
-0.0001496214658
0.0001474948894
4.782513829e-06
-0.0001476787787
0.0001478586716
4.062941284e-06
-0.0001477190362
0.0001509382559
-0.0001514409876
-4.562420261e-06
1.128539376e-05
0.0001913177341
-0.0002026031278
0.0001494546578
4.588100146e-06
-0.0001492952016
-7.239124397e-06
0.0001357707353
7.80241229e-06
-0.0001363340232
5.87434754e-06
0.0001363461924
-0.0001356131149
-6.607425092e-06
0.0001334847249
6.251387669e-06
-0.0001332896351
0.0001355735443
-0.0001365589275
-6.253741249e-06
1.225668977e-05
0.0001758249334
-0.0001880816232
-8.532137735e-06
7.36281566e-06
-0.0001355354431
-0.0001373936989
-5.051307562e-06
0.0001379392494
6.392131696e-06
-0.0001384570335
0.0001373330881
-0.0001367733901
-9.091835797e-06
0.0001629577766
-0.0001726597047
8.63217118e-06
0.0001255565367
-0.000125243986
-8.944721859e-06
4.562065275e-06
-9.677055936e-06
0.0001219141533
-0.0001167991627
0.0001277568528
4.241001599e-05
0.0001253095082
-1.047465583e-05
-0.0001102727871
0.0001262523085
8.846841338e-06
-0.0001264669786
2.022811242e-05
-9.485642683e-05
0.0006925608437
-8.769448695e-06
0.001370488672
-0.0001051781051
-0.00138193152
-0.0001257842509
-0.00142671702
0.0001223046439
5.129011843e-06
-1.048549984e-05
0.0001155466183
-0.0001101901303
-9.566497768e-06
0.0001192535392
-0.0001045580296
-0.0009575236475
0.0001218084764
0.0001584162081
-0.0001679827058
-7.17158572e-06
0.0002418876842
0.0004639274021
1.302974032e-05
-0.0002327038641
0.0004641855767
-6.525152003e-06
-0.0004640299609
0.0001688668255
1.058240739e-05
-0.0001725137223
-6.935510572e-06
-7.980705469e-06
-0.0001773732095
9.993814538e-06
0.0001753601005
-0.0001896300456
0.0001836954164
-5.585847618e-06
0.0001840646049
3.057329876e-05
-0.000202621655
0.0001782480301
2.219998487e-05
-0.0001752301905
-2.521782452e-05
1.963566035e-05
-2.189193157e-05
0.0001711230967
1.019999793e-05
0.0007036302876
-0.0007095390141
-4.291271446e-06
4.186976617e-05
-3.575044472e-05
0.0007202879859
0.0003488381761
1.475599588e-05
0.0001663390965
5.216781256e-06
-0.0001661298793
-5.425998501e-06
4.659203174e-06
-4.39958899e-06
0.0001673196714
-5.277946935e-06
0.0001666908752
5.204143836e-06
-8.789290595e-06
0.0001153684817
8.903339886e-06
-0.000115482531
0.0001167404761
-0.0001170628321
-9.400888923e-06
-1.128360501e-05
0.000118361918
-0.0001207024744
-1.317895892e-05
0.0002418322272
-1.326962278e-05
0.0002372004216
1.332584342e-05
-8.633070159e-06
0.0002371164878
8.637291814e-06
-0.0002371207095
-5.330878213e-06
0.000165671184
0.000163010081
6.824915706e-06
0.0001642243547
4.715777332e-06
-0.0001641088672
7.703265045e-06
-0.000112693743
-0.0001169421338
1.040027503e-05
0.0001171169186
-4.073994688e-05
1.630383852e-05
-9.250602544e-05
-0.00015027376
0.0001148542873
-0.000114856749
-3.225373826e-05
0.0001682677648
-0.0001376996479
9.175953761e-06
0.0001287657526
-0.0001195147792
1.231734634e-05
-1.22920921e-05
0.0001189392414
-0.0001159401161
1.005958667e-05
0.0001181978758
7.794898585e-06
-0.0001038836478
8.843884828e-06
-8.976109172e-06
0.000121121946
-1.022542118e-05
0.0001200768626
1.015417807e-05
-7.262104215e-06
0.0001200471691
7.207558057e-06
-0.000119992623
0.0003311518428
3.845961724e-06
-0.0003313138508
4.748492619e-06
0.0003361959622
-0.0003357690674
-5.175387433e-06
1.070249243e-05
-9.618160016e-06
0.0003377229487
0.0001226520063
-0.0001229030106
-7.523832099e-06
-8.733416354e-06
0.0001234547026
0.0001220433456
9.104190519e-06
2.315931816e-05
0.0003499421831
-0.0003558895683
-1.721193293e-05
3.451280134e-05
-3.147992683e-05
0.0003592280847
0.0001778777151
1.267354936e-05
0.0001686474974
8.564588716e-07
-0.0001392918458
7.187631825e-06
-8.064030985e-06
0.0001695238966
7.583838463e-06
0.0001713455651
2.666332649e-05
0.0002097305288
-0.0002363938553
0.0001645190298
8.365895303e-06
-0.0001462215986
-0.000128590604
7.954349155e-06
0.0001284651149
-6.796838527e-06
5.764100113e-06
-0.0001275578656
-0.000124034322
-9.127997477e-06
1.111082827e-05
-0.0001812097267
0.0001304544937
-3.714405921e-06
-0.0001156292595
-6.377676496e-06
0.00013127205
0.0001275701167
-5.943079541e-06
5.966187797e-06
-0.000127593225
0.0001291075111
-0.0001291455351
-6.060865957e-06
-8.860260706e-06
0.0001293210304
0.0001347932627
-4.156202682e-05
-0.0001110126318
9.194803225e-06
-8.392234032e-06
0.0001339906936
8.222343808e-06
0.0001330726575
0.0001181638076
-0.0001162812444
-1.032287823e-05
1.08441353e-05
-1.126050729e-05
0.0001185801796
0.0001193865742
5.735120453e-06
-8.393043126e-06
0.0001329094408
-0.0001302515181
2.356817744e-06
0.0001339616198
-0.0001305833171
6.613659167e-06
0.0001323749858
-0.0001311961078
4.883751939e-06
0.000132926015
2.650054161e-06
-0.0001276534626
-1.234183416e-05
0.0001379344868
-0.0001232358349
0.0001786850714
-0.0001910269056
0.0001379508579
-0.0001379779304
-4.65706112e-06
-8.094372781e-06
0.000137641595
-5.924527251e-06
0.0001373818565
6.481920196e-06
-8.093686711e-06
-9.997579787e-05
2.016964079e-05
-4.268169484e-05
0.0001202269695
-9.771491546e-05
0.0001164369242
-0.0001067527833
-7.723683868e-06
6.333127651e-06
0.0001183883873
-1.056545282e-05
-1.022766017e-05
0.0001198084124
4.250920338e-06
-0.0001821701304
0.0001345736911
1.591320374e-05
0.0002340665468
-0.0002316984052
0.0002359493255
-0.0001227756846
9.948379128e-06
0.0001225400018
-4.119499693e-05
1.848332019e-05
-0.0001000640079
-6.794856815e-06
-9.530245508e-06
-0.0001058177007
0.0001202810361
-0.0001085925727
0.0001220986352
1.878593128e-05
0.0001776404831
-0.0001801734219
-1.625299251e-05
2.886204638e-05
-3.103317496e-05
0.0001804191587
0.0001825470077
2.627349967e-05
-4.204545604e-06
-4.105206606e-06
0.0001526931521
-0.0001443833999
-3.017570642e-05
0.0001533674665
-0.0001273963057
5.451908261e-06
-5.1585189e-06
0.0001522439803
-0.0001525373696
0.000152157654
-0.0001508109524
0.0001575170906
-5.612230343e-06
-0.0001573652305
5.330948405e-06
-5.545275681e-06
0.0001577314179
5.111452519e-06
0.0001579997818
5.59934289e-06
-5.644967521e-06
0.0001572081053
-0.0001575251073
0.0001575791745
-0.0001576306762
0.0001442317687
-5.609685939e-06
-0.0001438630403
6.04268508e-06
-6.623876697e-06
0.0001448129604
5.762285172e-06
0.0001451639836
7.120595838e-06
-7.219698856e-06
0.0001446167651
-0.0001438531839
0.000144349903
-0.0001420907711
0.000161160771
5.15076565e-06
-0.0001353996822
4.921585775e-06
-4.375336846e-06
0.0001606145221
5.882279473e-06
0.0001608976846
4.716720384e-06
0.0001585202923
-0.0001592059014
0.0001595472849
-0.0001501290357
0.0001464431547
-4.931140137e-06
-0.0001465141035
4.994304761e-06
-5.163014718e-06
0.0001466118647
4.770933781e-06
0.0001467836375
5.434562093e-06
0.0001453471181
-0.0001458090789
0.0001460806262
-0.0001458152514
5.683951474e-06
-6.70718819e-06
0.0001520091801
-0.0001509859433
0.0001517549216
-0.0001512294891
1.564899657e-05
-4.330607463e-05
0.000151939146
-0.000124282068
0.0001519223999
-0.0001429805915
-7.769789343e-06
-9.666820769e-05
6.158589083e-06
-0.0001597769193
0.0001171736596
-9.471123201e-05
0.0001183600413
-0.0001580435493
-1.78590604e-05
-2.658520705e-05
-0.0001309416128
0.0002183391671
-0.0002361982275
0.0001748436783
0.0002311397686
-0.0002304294715
1.812122805e-05
2.762881679e-05
0.0001853897237
0.0001846370314
1.723764183e-05
1.86633653e-05
0.0002137014611
-0.0002323648264
0.0001722016271
-0.0001259094451
0.0001274400364
-0.0001246825148
0.0001724914819
-0.0001844110898
0.0001180158933
-0.0001016789392
8.347650397e-06
0.0001197278296
0.0001222571253
3.495562871e-06
1.861609059e-05
0.0001245458149
-0.0001014685056
-0.000170330802
0.0001220037293
-0.0001101777249
9.465168236e-06
3.264011908e-05
0.0001711929459
-0.0001676922585
0.0001690933957
-0.0001409799711
-0.0001659555341
5.86324262e-06
0.0001667089358
-9.057986757e-06
7.621482444e-06
3.224987993e-05
-5.212073423e-06
0.0001634583443
-0.0001498803756
0.000167759899
-0.0001403318533
0.0001547370331
-6.681182707e-06
-0.0001531440675
5.391481552e-06
-5.347877809e-06
0.0001546934293
5.595763988e-06
0.0001553549353
5.361816976e-06
0.000154140666
-0.0001542759766
0.0001542899158
-0.0001422406649
0.0001563278531
-5.550519829e-06
-0.0001562394114
5.666756037e-06
-5.691852512e-06
0.0001563529496
0.0001566080583
5.577904911e-06
0.0001558240951
-0.000156286063
0.0001561721154
-0.0001565065259
0.0001407600507
-0.0001399342126
-5.893412113e-06
4.964521941e-06
0.0001414365315
-5.641002732e-06
4.385935924e-06
0.0001428042774
5.401309776e-06
0.0001394938982
-0.0001390549167
-0.0001392138203
-0.0001824724851
4.209353281e-05
0.0001439453565
1.273281705e-05
-0.0001952053021
-1.679246333e-06
-0.0001271051823
0.0001426439372
-0.0001174032158
-1.26244953e-05
0.0001454138504
-0.0001306401106
0.0001857062928
-0.0001983307881
0.0001469766069
-3.527907612e-06
6.408182731e-06
-4.886400613e-06
0.0001454548248
0.0001453037026
4.213856896e-06
0.0001440653815
-0.0001454981869
0.0001448256432
-4.190212364e-05
1.838217734e-05
-0.0001063454222
0.0001311999427
-0.0001673379662
0.0001295110485
1.091667441e-05
-0.0001782546406
4.106689744e-06
-9.196178758e-06
-0.000118944833
-0.0001125345014
-0.0001268789993
0.0001290587928
-8.69971576e-06
-0.0001218936894
-0.0001174316746
6.682306063e-06
0.0001325413998
-6.413053494e-06
-0.0001355682199
0.000133858292
0.0001608547428
-6.786062853e-06
-0.0001601010877
5.790647573e-06
-6.104776979e-06
0.0001611688723
0.000161293972
5.161375856e-06
6.236247195e-06
0.0001607161643
-0.0001610215426
0.0001611530128
-0.0001605271171
6.564532803e-06
-0.0001587751496
-0.0001598179457
-0.0001604495244
5.412002407e-06
0.0001620557208
-6.750883797e-06
4.309275761e-06
-0.0001580079164
-1.012661401e-05
-0.0001571601166
5.76234821e-06
-0.0001396820607
0.0001623801136
-0.0001523084896
0.0001635324013
-3.161074487e-05
0.0001641022878
-0.0001377520179
-2.531363269e-05
-0.0001484308875
0.0002068615067
-0.0002321751394
0.0001662422229
0.0001482016026
-4.781199332e-06
-0.0001478243174
4.372524889e-06
-4.559051198e-06
0.0001483881289
4.448107153e-06
0.0001492022412
4.683545505e-06
0.0001475822777
-0.0001479691775
0.0001480936718
-0.000147967863
0.0001516529507
-2.311720254e-06
-0.0001380558366
4.300012458e-06
-4.054888666e-06
0.0001514078269
0.0001523116719
4.258454778e-06
0.0001496443102
-0.0001499600559
0.000150163622
-0.000147683676
1.764496483e-05
-4.172808394e-05
0.0001372768184
-0.0001131936993
0.0001342694714
-0.0001250175497
0.000134857392
-0.0001199506481
4.22779152e-06
0.0001355133525
0.000138324641
-0.0001355713142
6.25627414e-06
0.0001366778557
-6.273325986e-06
5.741470338e-06
-0.0001350394586
-8.370874689e-06
-0.0001334378944
-4.791643811e-06
-0.0001342813014
0.0001358946117
-0.0001349447852
0.0001370995783
-0.0001407912419
8.17979784e-06
0.0001390035757
-4.380856513e-06
4.227468606e-05
-4.903403286e-06
-1.752434169e-05
-0.0001276199231
0.0001393573876
-0.0001146070433
0.0001384453497
0.0001226543593
-1.936023465e-05
-0.0001129711806
9.815942292e-06
-1.154041942e-05
0.0001243788364
7.446072085e-06
0.0001242840235
1.115537046e-05
0.0001261088913
-9.507408968e-06
-0.0001260594094
0.0001256743604
-0.0001030096281
1.878366433e-05
-4.203501239e-05
0.0001277688711
-0.0001045175231
0.0001246949482
-0.0001151074626
6.279178041e-06
0.0001264764022
-0.0001649385597
0.0001291827254
-0.0001754132155
0.0001141428647
-0.000102008439
0.000133825735
-2.606417873e-06
1.082151376e-06
-1.554875691e-08
0.0001316914114
-2.618263416e-07
9.791281447e-05
6.613538698e-06
-3.089884307e-06
-0.0001131635457
0
-8.490629025e-08
3.362660891e-09
7.989272285e-05
-3.321281914e-06
2.425987596e-05
5.74860687e-06
-1.31252959e-06
-4.136492317e-05
0
0
0
1.112192406e-05
-4.672194121e-07
0
2.015507431e-08
0
-1.267340222e-07
0
0
0
0
0
0
0
0
0
0
0
0
0
0
0
0
0
0
0
0
0
0.000643614915
-2.295636251e-05
1.517469181e-05
-5.229090111e-06
0.0006414318219
6.337562757e-06
0.0005687450531
2.332662124e-05