/*--------------------------------*- C++ -*----------------------------------*\
| =========                 |                                                 |
| \\      /  F ield         | OpenFOAM: The Open Source CFD Toolbox           |
|  \\    /   O peration     | Version:  v2012                                 |
|   \\  /    A nd           | Website:  www.openfoam.com                      |
|    \\/     M anipulation  |                                                 |
\*---------------------------------------------------------------------------*/
FoamFile
{
    version     2.0;
    format      ascii;
    class       surfaceScalarField;
    location    "0.52";
    object      meshPhi;
}
// * * * * * * * * * * * * * * * * * * * * * * * * * * * * * * * * * * * * * //

dimensions      [0 3 -1 0 0 0 0];
oriented        oriented;


internalField   nonuniform List<scalar> 
6430
(
0
0
0
0
0
0
0
0
0
0
0
0
0
0
0
0
2.109140697e-05
0
-2.72907346e-05
-2.829200095e-05
-3.313413354e-05
0.0001310809078
0.0001476496325
-0.0001395027055
-0.0002369276137
0.0003541515868
0.0005811840707
-0.0003594821665
-0.0007036941058
0.0004376834638
0.001025643069
-0.0004389164793
-0.001105558771
0.0003243858113
0.001203529237
-0.0003248101966
-0.0005967314373
-0.000606373414
4.156798254e-05
0.0002968265261
-4.164919246e-05
-0.0002967453161
0
0
0
0
0
0
0
0
0
0
0
0
0
0
0
0
3.090535436e-05
0
-2.560393004e-05
-4.192783148e-05
-3.928134057e-05
0.0001521944896
0.0001885661047
-0.0001478952932
-0.0002944981854
0.0003731705429
0.0006877482847
-0.0003675210815
-0.0008256175771
0.0004436439577
0.001180638282
-0.0004400571023
-0.001263091464
0.0003200578761
0.001359120246
-0.0003200578761
-0.0006748843891
-0.0006842358568
4.029072551e-05
0.0006748843891
-7.784220574e-05
3.755148022e-05
-0.0003360765053
-0.0003388078839
0
0
0
0
0
0
0
0
0
0
0
0
0
0
0
0
1.613391302e-05
0
-5.989755124e-06
-2.100546127e-05
-1.342658178e-05
0.0001173642809
0.0001466257976
-0.0001025427441
-0.0002462902282
0.0003255090197
0.0006403038797
-0.0003037324369
-0.0007854686167
0.0004110414736
0.001185317535
-0.0003945268354
-0.001290928634
0.0003176460821
0.001484348794
-0.000313407904
-0.00150682054
7.784220574e-05
0.001514169153
-0.0001447301099
-0.001514169153
6.688790421e-05
0
0
0
0
0
0
0
0
0
0
0
0
0
0
0
0
1.471935613e-07
0
0
-1.250396081e-07
0
5.244402405e-05
5.391325017e-05
-3.650638939e-05
-0.0001206653885
0.0002202502836
0.0004408693455
-0.0001884129278
-0.000572652768
0.0003231096549
0.0009753180406
-0.000292624533
-0.001097370021
0.0002810135832
0.001384470898
-0.0002631571972
-0.001449675638
0.0001395909374
0.001560957573
-0.0001337345903
-0.001575133819
0
0
0
0
0
0
0
0
0
0
0
0
0
0
0
0
0
0
0
0
0
3.991000536e-06
1.319569877e-07
-6.651887932e-07
-9.901825531e-06
9.313078441e-05
0.0001690073961
-6.505114541e-05
-0.0002565087824
0.0001888212598
0.0005683506882
-0.0001530665829
-0.0006756719103
0.0001919491701
0.0009615785947
-0.0001643289416
-0.00103710031
0.0001046454906
0.001186206715
-9.199833273e-05
-0.001208453794
0
0
0
0
0
0
0
0
0
0
0
0
0
0
0
0
0
0
0
0
0
0
0
0
0
7.838893917e-06
4.720787191e-06
-1.240284717e-06
-2.18426484e-05
5.783009696e-05
0.0001503679867
-3.400758664e-05
-0.0002088447948
8.164827098e-05
0.0003894669452
-5.742589789e-05
-0.0004428151622
5.086317683e-05
0.0005553056006
-3.779929178e-05
-0.0005728998829
0
0
0
0
0
0
0
0
0
0
0
0
0
0
0
0
0
0
0
0
0
0
0
0
0
0
0
0
0
1.918950855e-07
0
0
-8.29872064e-07
7.75456073e-06
2.26233129e-05
-1.231378708e-06
-3.504249578e-05
7.983283445e-06
6.836351411e-05
-2.667485935e-06
-7.430232919e-05
0
0
0
0
0
0
0
0
0
0
0
0
0
0
0
0
0
0
0
0
0
0
0
0
0
0
0
0
0
0
0
0
0
0
0
0
0
0
0
0
0
0
0
0
0
0
0
0
0
0
0
0
0
0
0
0
0
0
0
0
0
0
0
0
0
0
0
0
0
0
0
0
0
0
0
0
0
0
0
0
0
0
0
0
0
0
0
0
0
0
0
0
0
0
0
0
0
0
0
0
0
0
0
0
0
0
0
0
0
0
0
0
0
0
0
0
0
0
0
0
0
0
0
0
0
0
0
0
0
0
0
0
0
0
0
0
0
0
0
0
0
0
0
0
0
0
0
0
0
0
0
0
0
0
0
0
0
0
0
0
0
0
0
0
0
0
0
0
0
0
0
0
0
0
0
0
0
0
0
0
0
0
0
0
0
0
0
0
0
0
0
0
0
0
0
0
0
0
0
0
0
0
0
0
0
0
0
0
0
0
0
0
0
0
0
0
0
0
0
0
0
0
0
0
0
0
0
0
0
0
0
0
0
0
0
0
0
0
0
0
0
0
0
0
0
0
0
0
0
0
0
0
0
0
0
0
0
0
0
0
0
0
0
0
0
0
0
0
0
0
0
0
0
0
0
0
0
0
0
0
0
0
0
0
0
0
0
0
0
0
0
0
0
0
0
0
0
0
0
0
0
0
0
0
0
0
0
0
0
0
0
0
0
0
0
0
0
0
0
0
0
0
0
0
0
0
0
0
0
0
0
0
0
0
0
0
0
0
0
0
0
0
0
0
0
0
0
0
0
0
0
0
0
0
0
0
0
0
0
0
0
0
0
0
0
0
0
0
0
0
0
0
0
0
0
0
0
0
0
0
0
0
0
0
0
0
0
0
0
0
0
0
0
0
0
0
0
0
0
0
0
0
0
0
0
0
0
0
0
0
0
0
0
0
0
0
0
0
0
0
0
0
0
0
0
0
0
0
0
0
0
0
0
0
0
0
0
0
0
0
0
0
0
0
0
0
0
0
0
0
0
0
0
0
0
0
0
0
0
0
0
0
0
0
0
0
0
0
0
0
0
0
0
0
0
0
0
0
0
0
0
0
0
0
0
0
0
0
0
0
0
0
0
0
0
0
0
0
0
0
0
0
0
0
0
0
0
0
0
0
0
0
0
0
0
0
0
0
0
0
0
0
0
0
0
0
0
0
0
0
0
0
0
0
0
0
0
0
0
0
0
0
0
0
0
0
0
0
0
0
0
0
0
0
0
0
0
0
0
0
0
0
0
0
0
0
0
0
0
0
0
0
0
0
0
0
0
0
0
0
0
0
0
0
0
0
0
0
0
0
0
0
0
0
0
0
0
0
0
0
0
0
0
0
0
0
0
0
0
0
0
0
0
0
0
0
0
0
0
0
0
0
0
0
0
0
0
0
0
0
0
0
0
0
0
0
0
0
0
0
0
0
0
0
0
0
0
0
0
0
0
0
0
0
0
0
0
0
0
0
0
0
0
0
0
0
0
0
0
0
0
0
0
0
0
0
0
0
0
0
0
0
0
0
0
0
0
0
0
0
0
0
0
0.0002946858438
-0.0002946880952
4.157023398e-05
0.0003339698042
-0.0003339698042
4.029072551e-05
0.0011648584
0.0003244659519
-0.0005776484532
-0.0005872900878
-9.135479483e-05
-0.0002925075877
9.124682759e-05
0.0005873013987
0.001278690032
0.000321059459
-0.000614478893
-0.0006652127219
-8.880330095e-05
-0.0003312429177
8.880330096e-05
0.0006652127219
-0.0002998387694
0.0005966618907
-9.135139006e-05
-4.156435333e-05
0.0003141056645
-0.0003140778735
4.153656225e-05
-1.110546364e-05
-0.0001570209354
1.092796187e-05
0.0001571984371
1.105927218e-05
-0.0001477899451
0.0001478009599
-1.107028695e-05
0.0007425770757
-0.0007425770757
7.784220574e-05
-0.0001475739121
1.104935705e-05
0.0001475838272
-1.031404376e-05
-0.0001475415117
1.028164339e-05
-0.0003367004706
-2.200769258e-05
0.0003352440251
1.241368444e-05
1.105045361e-05
-0.0001576585244
0.000157709667
-1.115660621e-05
0.0003164173364
-4.162660296e-05
-0.0003163550867
9.592970896e-06
-9.679659884e-06
-0.0001575718354
-1.83398136e-05
-0.0003365998177
1.033103639e-05
7.908124327e-06
-1.036756689e-05
-0.000147736422
9.447089915e-06
-0.0001568750544
0.0001515290898
-2.700768894e-06
1.13159686e-05
-0.0001529741224
0.0001529996654
-1.134151162e-05
3.083432781e-05
0.0003066827584
-3.087363521e-05
-0.000306643451
-3.087896272e-05
0.0003140551338
3.074500677e-05
-0.0001566290084
-0.0001572921694
3.08607682e-05
0.0002967163814
-3.091723432e-05
-0.0002966599152
0.000304244845
-0.0003042368277
3.082631054e-05
-0.0001521217702
1.124096436e-05
0.0001521967744
1.118212896e-05
-0.0001436220918
0.0001436178853
-1.117792247e-05
3.085634607e-05
0.0002877900809
-3.087457227e-05
-0.0002877718547
0.0002946795736
-0.0002946839516
3.086514617e-05
0.0002851356229
-0.0002851781895
3.089891262e-05
-0.0001429849888
1.117862608e-05
0.0001429884917
-1.054921971e-05
-0.0001429827637
1.054699459e-05
-1.05748218e-05
-0.0001435964897
0.0003163087108
-3.09714997e-05
-0.0001577965628
-0.000158419611
-4.297269205e-05
0.0003492750178
3.561622068e-05
-0.0001646101273
-0.0001773084191
-0.0001781684142
-1.714925673e-05
1.306486302e-05
0.0001822528079
-4.802668522e-05
1.37035407e-05
-0.0001438452697
-7.372451788e-06
7.437434691e-06
0.0001617840383
5.438150426e-06
-0.0001577321599
0.0001580287773
-5.734767838e-06
-1.079070164e-05
-0.000151991812
1.066074346e-05
3.07998224e-05
-6.212107159e-06
0.0001269413746
-0.0001571251059
5.043677474e-06
0.0001575195789
-0.0001550127466
0.0001926227015
-6.810132502e-06
-1.086277679e-05
-0.0001529020473
-3.639594373e-06
-5.405663019e-06
4.996962605e-06
0.001464734956
-0.001474668841
0.0003195001824
-0.0001885645394
0.001475144318
-0.0007325672422
9.976123842e-05
8.880330096e-05
0.0006748843891
-8.880330096e-05
-7.784220573e-05
0.0007038948988
-0.0007038948988
7.784220573e-05
-0.0007038948988
-4.4970823e-05
4.497082298e-05
0.0007038948988
-0.0003372956463
0.0003367045338
-2.141657999e-05
-0.0001560268168
1.099456038e-05
0.0001560693821
-1.103712573e-05
1.314869973e-05
0.0001560546773
-1.31682782e-05
-0.0001560350989
-1.315021575e-05
0.0001572785534
-0.0001572685833
1.314024564e-05
-1.836761497e-05
-0.000337267845
-3.401405302e-05
-0.0007038948988
3.401405302e-05
-1.046951445e-05
0.0001401608639
-0.0001401436767
1.045232725e-05
1.051364487e-05
0.0001460192036
-1.037909216e-05
-0.0001461537563
-0.0002078018926
0.0001704087229
2.024391293e-05
0.000294243406
-2.937991736e-05
-0.0001604098039
-0.0001474263768
0.0003339778429
-2.965180292e-05
-0.0003336732314
2.934719147e-05
0.0001577916748
-1.316929729e-05
-0.0001577725933
-1.311164679e-05
0.0001599175722
-0.0001599694718
1.316354637e-05
-0.0001597788118
-1.147130594e-05
1.135209504e-05
0.0001598980227
-5.847784902e-06
-9.806560841e-06
9.827061254e-06
-0.0001597993122
2.731700498e-05
-0.0001581105971
9.782454165e-07
0.0001298153467
-0.0003339597308
-9.860271958e-06
9.574321471e-06
0.0003342456812
0.0001582363318
-6.973383562e-06
-0.0002558285778
-1.049984e-05
0.0001505510574
-0.000150481468
1.043025057e-05
-2.46301416e-05
-1.983260014e-07
-0.0001311983492
1.31514379e-05
0.0001529986052
-1.312533463e-05
-0.0001530247084
0.0001548183972
-0.0001548412126
1.317151517e-05
-0.0001551084721
1.120351028e-05
0.0001548995222
-0.0001511177033
1.112748856e-05
0.0001511456688
-1.115545401e-05
1.314125766e-05
0.000151112121
-1.310843747e-05
-0.0001511449412
0.0001522778663
-0.0001522297413
1.310331289e-05
0.0001406477096
-1.048131734e-05
-0.0001406359067
0.0001454137122
-0.0001454513561
1.055128878e-05
-0.0001602811463
0.0001605544994
-1.174465898e-05
0.0001604215432
-1.303715242e-05
-0.0001604960376
-1.124780749e-05
0.0001770893089
-0.0001781408906
1.229938918e-05
-0.0001555506966
1.528172178e-05
9.436648928e-08
0.0001401746083
-0.0001604692592
0.000197870907
-1.008464281e-05
-1.019529099e-05
-0.0001598924162
5.109959086e-08
2.769003168e-05
-0.00015768556
0.0001299444287
-6.876061577e-06
-0.0001591201737
7.88563814e-06
-7.042087815e-06
-0.0001596298879
6.86485342e-06
0.0001598071223
-1.054841501e-05
-0.0001510691283
-2.485893994e-05
0.0002134203195
4.873698806e-06
-0.0001562987557
0.0001562976903
-4.872633346e-06
-0.0001556811883
2.560982953e-05
0.0001301224584
-0.0001558660523
4.222714636e-06
0.0001565170365
-0.0001906025346
1.086392094e-05
1.313489842e-05
0.0001478125811
-1.313489443e-05
-0.0001478125851
0.0001505847788
-0.0001505964715
1.315295036e-05
1.107611284e-05
0.0001506024331
1.115151502e-05
0.0001459644148
-1.109672628e-05
1.311140316e-05
0.0001459948557
-1.311799258e-05
-0.0001459882663
0.0001475769074
-0.0001475861858
1.314417683e-05
7.690507945e-06
-8.617000743e-06
-0.0001466150189
0.0001472178479
3.772071268e-09
-0.0001395311121
1.02981137e-05
0.0001472013776
-9.864351367e-06
0.0001582467548
-0.0001580620634
-0.0001484871062
-1.035079702e-05
0.0001484703363
8.95138783e-06
-9.032331452e-06
-0.0001484061625
-0.0001474020349
8.271402489e-06
0.0001567550347
-0.0001555793473
1.313436604e-05
0.0001436010602
-1.312581152e-05
-0.0001436096148
0.0001453838344
-0.0001454026345
1.313020322e-05
1.117432029e-05
0.0001453909069
1.115932203e-05
0.0001406461478
-1.115776023e-05
1.312345277e-05
0.0001406342455
-1.312277541e-05
-0.0001406349229
0.000143000964
-0.0001429940001
1.31274021e-05
9.883993843e-06
-9.943208325e-06
-0.0001429235492
0.0001422705785
-0.0001422264801
9.839895442e-06
0.0001423023701
1.051520302e-05
-0.0001442029626
-1.058168616e-05
0.0001442098269
9.99245998e-06
-1.0043052e-05
-0.0001441523706
-0.0001435472381
0.0001664535465
-0.0001654423727
1.205368921e-05
-1.120002653e-05
1.187561426e-05
0.0001657779588
-8.878172946e-06
0.0001799309543
-0.0001694167093
-2.475217665e-05
0.000194168886
9.706878037e-06
-0.00016144571
0.000159721071
-6.994254196e-06
-7.184382711e-06
-0.0001601609381
-5.141859253e-06
-0.0001561023697
5.693532346e-06
9.085452779e-06
-9.355841789e-06
-0.000151721423
0.0001516297105
8.971896413e-06
-0.0001515161542
1.059589804e-05
0.000151694556
6.799147315e-06
0.00013318324
-2.362829852e-05
0.000216251
-0.0001524261952
1.707016018e-06
0.0001270908807
-4.739511946e-06
-0.0001544968157
-0.0001536909835
-1.086926851e-05
0.0001536974753
9.427595695e-06
-1.088564821e-05
-0.000152232931
-0.0001528302934
-3.952426708e-06
3.375140155e-06
-8.170614105e-06
0.0001398335171
-0.0001398381725
-8.29007624e-06
0.0001401124217
-0.0001399929596
0.0001796673236
2.178794362e-05
-0.0002014552672
-0.0001467129087
0.0001466319302
-2.353233506e-05
-0.0001231768015
9.981232238e-06
0.000163064457
-1.112260247e-05
-0.000163189662
-1.357391519e-05
0.0001648276664
-0.0001651868051
1.393305397e-05
-0.0001720722368
-1.513965488e-05
1.939139328e-05
0.0001678204984
0.0001592897425
-0.0001591667555
1.122910805e-05
-1.189107279e-05
1.182022886e-05
0.0001593605865
-1.197784615e-05
0.000159984796
-0.0001592040456
2.681895749e-05
-0.0001568805234
0.0001310398113
-0.0001983193322
0.0002251382897
-1.375881295e-05
-0.0001817090504
2.339562657e-05
-3.118554702e-06
-0.0001677879064
5.910984107e-07
0.0001703153627
-0.0001462050381
0.0001724969962
-1.101023627e-05
9.04338557e-06
-9.0183458e-06
-0.0001505065078
0.0001495319078
-0.0001495208537
0.0001496113614
0.0001565386233
-0.0001484655468
-8.484272332e-06
8.481125255e-06
-0.000142223333
-8.507863383e-06
-0.0001428999582
-8.400354406e-06
0.0001406103063
-0.0001405000281
0.0001413597348
-0.0001412789639
1.004757114e-05
-0.000145517695
0.0001448199379
-0.0001448154188
0.0001447895405
-1.012759046e-05
8.604720538e-06
-0.0001432925488
-0.0001338573419
-8.554613467e-06
-0.000143500488
-0.0001441022635
-1.199976762e-05
0.0001605764208
-0.0001621855425
0.0001620613892
-0.0001618765123
0.0001517285922
8.432344421e-06
-0.0001600665701
2.192188822e-05
2.881932858e-06
0.0001269247711
-7.320212781e-06
-2.75526592e-05
0.0002254235662
-0.0001555128337
0.0001308421074
-0.0001571651321
-0.0001623649253
-0.000160111908
-1.051739253e-05
6.948952219e-06
-0.0001596513137
-7.409546534e-06
7.235311633e-06
-0.0001579719194
-0.0001514075136
0.0001514549967
8.996414984e-06
-0.0001514320322
-0.0001510910591
0.0001287227862
-5.752326182e-07
2.850833604e-05
-0.0001553993011
0.0001274661977
2.47776063e-05
-0.000154105223
0.0001287523841
9.192540233e-06
-0.0001576384169
0.0001954005082
-0.0001576996319
0.0002210103377
-0.0001942654495
0.0002190430558
0.0001539495148
-0.0001544663121
2.940926374e-05
0.0001262472671
-8.339149281e-06
2.369979577e-05
-0.0002143023304
0.0001541681521
-0.0001413540046
0.0001541628046
0.0001371833761
-0.0002224738029
0.0001308254489
-0.00055528131
-0.0003023343881
0.0003026879687
0.0004332107412
-0.0006745174506
0.0003519174905
-0.0009897788131
-0.0004365118015
0.000434730676
0.0008964140628
-0.001065980534
0.0004361654695
-0.0003662850393
0.0003659837012
0.001155253291
0.0001738377459
-0.0002721208611
0.0001493572055
-0.0006397221325
-0.0003257612516
0.0003235007464
0.0005099876001
0.0004560011303
-0.000311242063
-0.0007695268182
0.0003714581116
-0.001106349012
-0.0004461308569
0.0004464899681
0.001007874935
0.000930629582
-0.0004381610127
-0.001185306455
0.0004446890202
-0.0003630812144
0.0003651030641
0.001272212709
0.001195049462
-0.0003666213666
-0.000328400883
0.001246223823
-0.0006160836521
-0.0006265494848
-0.0001348984318
-0.0006263802362
0.0001348854423
0.0006263932257
0.000134846184
-0.0005966846954
0.0005966985488
-0.0001348600374
-4.15632163e-05
0.0003043158904
-0.000304284773
4.153209895e-05
-3.352648709e-05
3.350692871e-05
0.0003042644034
3.352105403e-05
0.0002967035226
-3.350819524e-05
0.0001638831004
-0.0002674276454
0.0001301644837
-0.0006671416048
-0.0002786251085
0.0002963535103
0.0005243633579
0.000549442556
-0.000320122716
-0.0008118358112
0.000343551491
-0.001201770667
-0.0004074702301
0.0004225316831
0.001084322541
0.001077291622
-0.0004417424593
-0.001300958251
0.0004239870751
-0.000354108444
0.0003587666182
0.001433524638
0.001353094814
-0.0003625488389
-0.00139811813
-0.0003200487126
0.001398085977
-0.0002762205778
-0.0007038948988
0.0001435860052
0.0001326345726
-0.0006942232315
0.0001326345726
-0.0006748843891
0.0006748843891
-0.0001326345726
-7.784220574e-05
0.0006842358569
-0.0003409100928
-0.000343325764
-3.207275058e-05
-0.000343325764
3.207275058e-05
0.000343325764
3.207543019e-05
-0.0003360791849
0.0003360765053
-3.207275058e-05
7.79759036e-05
-0.0001555677213
6.933310599e-05
-0.0005023541145
-0.0001779542211
0.0002064460288
0.0003723087966
0.0004983137874
-0.0002574106908
-0.0006401258221
0.0002505551153
-0.001049402005
-0.0003104826378
0.000339935772
0.0009184018375
0.001063059695
-0.0003886500624
-0.001169589453
0.0003504623272
-0.001440113295
-0.000304005419
0.000321859898
0.001366419809
0.001441477473
-0.0003467051141
-0.001497222374
0.0002953457321
-0.001585318903
-0.000179737785
0.0001853251425
0.001567508903
0.001514169153
-0.0001885645394
-0.00159492419
0.0001432617081
3.764158076e-06
-2.84340169e-05
1.130313725e-05
-0.0002353386906
-6.410519468e-05
9.050904872e-05
0.0001474804764
0.0003184140056
-0.0001484930919
-0.0003368878703
0.0001238122138
-0.0006813159314
-0.0001715881528
0.0002078593938
0.0005640741074
0.000844509241
-0.0002781900354
-0.0007958261597
0.0002246699622
-0.001092645554
-0.0002011346825
0.0002305738394
0.0010039302
0.001303676077
-0.0002825966689
-0.001168939783
0.0002181053494
-0.001316464575
-0.0001322547476
0.0001473680403
0.001281104315
0.0015364332
-0.0001714225566
-0.00133807765
0.0001160329802
0
0
0
-2.358187065e-05
-1.705966216e-06
8.71320604e-06
4.523305804e-06
9.636912554e-05
-4.093346379e-05
-5.978259597e-05
2.130833359e-05
-0.000240433467
-4.50121207e-05
7.151142594e-05
0.000171494825
0.0004601920585
-0.0001359950264
-0.0003136579925
8.638386973e-05
-0.0005285626835
-8.093520118e-05
0.0001093218462
0.0004604988736
0.0008748885775
-0.000170472447
-0.0005899330941
0.0001082076578
-0.0007171140038
-6.275294061e-05
8.028108967e-05
0.0006855067293
0.001150045647
-0.0001156664967
-0.0007367843305
6.461233778e-05
0
0
0
0
0
0
0
0
0
0
0
-4.836131377e-06
0
1.330141052e-06
3.209723634e-07
9.764337059e-05
-2.385901155e-05
-1.455768897e-05
4.471294969e-06
-7.46849637e-05
-5.682480476e-06
1.699238113e-05
5.159758207e-05
0.0003311172624
-5.543683312e-05
-9.803201326e-05
1.968708033e-05
-0.0001528928107
-9.240385991e-06
1.889619802e-05
0.0001385201633
0.0005271264002
-4.624120384e-05
-0.0001620401926
1.587148586e-05
0
0
0
0
0
0
0
0
0
0
0
0
0
0
0
0
0
0
0
0
0
0
0
1.215217469e-05
-4.334285808e-07
0
0
0
0
0
0
5.921752735e-05
-2.882253154e-06
0
0
0
0
0
0
0
0
0
0
0
0
0
0
0
0
0
0
0
0
0
0
0
0
0
0
0
0
0
0
0
0
0
0
0
0
0
0
0
0
0
0
0
0
0
0
0
0
0
0
0
0
0
0
0
0
0
0
0
0
0
0
0
0
0
0
0
0
0
0
0
0
0
0
0
0
0
0
0
0
0
0
0
0
0
0
0
0
0
0
0
0
0
0
0
0
0
0
0
0
0
0
0
0
0
0
0
0
0
0
0
0
0
0
0
0
0
0
0
0
0
0
0
0
0
0
0
0
0
0
0
0
0
0
0
0
0
0
0
0
0
0
0
0
0
0
0
0
0
0
0
0
0
0
0
0
0
0
0
0
0
0
0
0
0
0
0
0
0
0
0
0
0
0
0
0
0
0
0
0
0
0
0
0
0
0
0
0
0
0
0
0
0
0
0
0
0
0
0
0
0
0
0
0
0
0
0
0
0
0
0
0
0
0
0
0
0
0
0
0
0
0
0
0
0
0
0
0
0
0
0
0
0
0
0
0
0
0
0
0
0
0
0
0
0
0
0
0
0
0
0
0
0
0
0
0
0
0
0
0
0
0
0
0
0
0
0
0
0
0
0
0
0
0
0
0
0
0
0
0
0
0
0
0
0
0
0
0
0
0
0
0
0
0
0
0
0
0
0
0
0
0
0
0
0
0
0
0
0
0
0
0
0
0
0
0
0
0
0
0
0
0
0
0
0
0
0
0
0
0
0
0
0
0
0
0
0
0
0
0
0
0
0
0
0
0
0
0
0
0
0
0
0
0
0
0
0
0
0
0
0
0
0
0
0
0
0
0
0
0
0
0
0
0
0
0
0
0
0
0
0
0
0
0
0
0
0
0
0
0
0
0
0
0
0
0
0
0
0
0
0
0
0
0
0
0
0
0
0
0
0
0
0
0
0
0
0
0
0
0
0
0
0
0
0
0
0
0
0
0
0
0
0
0
0
0
0
0
0
0
0
0
0
0
0
0
0
0
0
0
0
0
0
0
0
0
0
0
0
0
0
0
0
0
0
0
0
0
0
0
0
0
0
0
0
0
0
0
0
0
0
0
0
0
0
0
0
0
0
0
0
0
0
0
0
0
0
0
0
0
0
0
0
0
0
0
0
0
0
0
0
0
0
0
0
0
0
0
0
0
0
0
0
0
0
0
0
0
0
0
0
0
0
0
0
0
0
0
0
0
0
0
0
0
0
0
0
0
0
0
0
0
0
0
0
0
0
0
0
0
0
0
0
0
0
0
0
0
0
0
0
0
0
0
0
0
0
0
0
0
0
0
0
0
0
0
0
0
0
0
0
0
0
3.350143619e-05
0.0002946991914
3.35444553e-05
0.0002877534387
-3.350781309e-05
4.161018917e-05
0.0002877080617
-4.158155843e-05
-0.0002877366924
3.208055022e-05
0.0003339727228
3.341427368e-05
0.0002929228407
-3.209370843e-05
4.212251009e-05
0.0002906837928
-4.029072551e-05
-0.0002925155774
-7.112250079e-06
7.120739396e-06
-0.0005873059873
0.0001348754822
0.000587276689
-0.0005580836527
0.0005580842624
-0.0001348292247
0.00112582716
-0.0005580820389
-0.0005677246265
-0.0002800825843
0.0005581028423
-9.128102442e-05
-0.0001239542623
-0.00055808028
-0.0001239406342
-0.0005873049589
0.0001239396059
-0.0006652127219
0.0001326345726
0.0006652127219
-0.0006401258725
0.0006401606578
-0.0001349332171
0.00129274462
-0.0006412244822
-0.0006588615622
9.143285056e-05
-0.0003195556018
0.0006402476562
-9.57075686e-05
0.0001239812964
-0.0001238723837
-0.0006402347852
-0.0001216766352
-0.0006652127219
0.0001216766352
-0.0001239506451
-0.0005966746846
-0.0006263691968
0.000123970257
-0.0003120510874
9.121582137e-05
0.0006263737812
-3.3521821e-05
3.350113266e-05
0.0003140758221
0.0003066830641
-3.352679279e-05
0.0003066795779
-4.156308309e-05
-0.0003066797111
0.0001566865276
1.099646905e-05
-1.168598422e-05
1.172064114e-05
0.0001566518706
-1.173670364e-05
0.0001572491566
-1.182232252e-05
1.182404323e-05
0.0001477992392
-0.0001484591214
0.0001484296114
-1.179281257e-05
-1.105907202e-05
-0.0007425770757
-4.497082299e-05
4.497082299e-05
0.0007425770757
-0.000713566566
0.000713566566
-4.4970823e-05
0.000713566566
-7.784220573e-05
-0.000713566566
-3.401405302e-05
-0.000713566566
-3.401405303e-05
-0.0007425770757
3.401405303e-05
0.0003363840383
-7.420627833e-06
0.0003433256873
7.419156485e-06
0.0001471845058
1.106622887e-05
-1.180934585e-05
1.181033053e-05
0.0001471835211
0.0001475985246
0.0001401762327
-0.0001401653294
1.311254946e-05
1.117871682e-05
0.0001401414691
0.0002851233069
-0.0002851326339
4.161951619e-05
3.353069185e-05
0.0002851493864
-0.0001714783757
0.0001691538608
-1.281513991e-05
0.0001656844592
-1.321985764e-05
-0.0001660385168
0.0003343051389
-2.447404212e-05
1.290638207e-05
1.250654626e-05
-1.178109683e-05
0.0001577540601
-0.0001583192567
0.0001583583887
0.000346263321
-0.0003470262089
4.288539794e-05
3.362022619e-05
0.0003490690653
0.0003163312541
-3.354436425e-05
-0.0003351269732
-1.473015426e-05
7.252133433e-06
6.005176259e-06
-0.0001672899045
0.0001699016762
-5.730326439e-06
-1.080200704e-05
-0.0001744351816
-1.188639298e-05
1.187338586e-05
0.0001530126726
-0.0001536807565
0.00015365842
-1.186405651e-05
-1.132479284e-05
-0.0003089267632
-3.100137881e-05
0.0003090545068
2.825359172e-05
-1.380135416e-05
-0.0001540198562
-1.454074734e-05
2.82371567e-05
-0.0001536284108
-1.379703846e-05
1.380409707e-05
0.0001572714948
0.0001560396023
-1.378627917e-05
0.0003121642867
-0.0001559810102
-0.0001564396485
-0.0002999818102
-3.085660149e-05
0.0002999211773
2.845934691e-05
-2.824690783e-05
-0.0001496094705
2.809516872e-05
-0.0001484831559
2.806017535e-05
-0.0001517819801
0.0003024280277
-0.0001515026392
0.0003023977368
0.0001517482142
1.118730615e-05
-1.185671628e-05
1.185839833e-05
0.0001517465321
0.000152213444
-1.180428004e-05
1.183710721e-05
0.0001435850581
-0.0001442086249
0.0001442308295
-1.182648457e-05
-1.117672047e-05
-0.0002901922784
-3.086384053e-05
0.0002901815467
2.821055685e-05
-2.822370887e-05
-0.000144795292
2.825124336e-05
-0.0001442114809
2.817783435e-05
-0.0001471897098
0.0002925548446
-0.0001466058634
0.0002925561502
-0.0002800388389
-3.087054926e-05
0.0002800743194
-2.815973779e-05
-0.0001398179402
2.83381948e-05
-0.0001422641769
0.0002822700115
-0.000141457309
0.0002822983748
0.0001423258366
1.115515957e-05
-1.18129972e-05
1.185194782e-05
0.000142286886
0.0001430126017
-3.115608701e-05
0.0003194144508
-0.0001593403432
-0.0001598895202
-1.379604283e-05
1.380732879e-05
0.0001599062862
0.0001578253239
-1.38306876e-05
-1.2758573e-05
1.329568308e-05
0.0001765521988
0.0001603675708
-1.374207039e-05
0.00032628534
-0.0001603570065
-0.0001614681998
0.0001586744513
7.132005379e-06
-6.991990071e-06
6.728040064e-06
0.0001589384013
0.0001565106967
-1.718648413e-06
-5.846866005e-06
5.903723918e-06
-0.0001591050209
-6.393158827e-06
-6.352334222e-06
-0.0001584874545
0.0001572696585
4.63126578e-06
-0.0001568572468
-5.784885889e-06
5.354912425e-06
-3.512213792e-06
-4.456852893e-06
0.0002762205778
-0.001475144318
-0.0002761074316
0.001436804799
-0.001436804799
0.001434771654
8.880330095e-05
0.000713566566
-8.880330096e-05
-0.0002323907407
0.0001216766352
-0.000713566566
-0.0007232382333
0.0001107141055
-0.0002323907406
-0.0001216766352
-0.0006748843891
-0.0007038948988
0.0001216766351
8.880330096e-05
0.0007038948988
6.688790421e-05
-0.0007038948988
-6.688790422e-05
0.0006942232315
-0.0006942232315
3.481515364e-05
0.0006942232315
0.0006942232315
2.111587502e-05
-0.0006942230592
2.385477564e-05
-5.592996676e-05
2.933350529e-05
2.659646148e-05
-5.592996677e-05
-2.933594583e-05
-0.000336395042
-0.0003433257641
2.933350529e-05
-0.0003433249024
2.111501335e-05
0.000343325764
-1.175187233e-05
0.0001560728048
1.174844959e-05
-0.0001564979666
0.0001564667354
-0.0001564832003
-1.31358132e-05
0.0001564507353
1.245011632e-05
-1.24665812e-05
1.24878223e-05
1.243685673e-05
-1.245628349e-05
0.0001566221462
0.0001566265786
-1.83765341e-05
-0.0003433245766
1.837620835e-05
-1.015856913e-05
1.015889486e-05
0.0003433253616
0.000336686656
-1.016288972e-05
2.305640248e-05
-2.305640247e-05
0.0006942229825
1.289800567e-05
1.563744222e-05
9.736231273e-06
-9.767486307e-06
0.0001398487815
0.0001398407128
-2.801424926e-06
0.0001643319749
-0.000123596148
0.0001381162812
-1.732155808e-05
-8.313254838e-05
-2.021968673e-05
-0.0003285327234
-2.967979934e-05
0.0003288326053
-2.760306203e-05
-0.0001635466009
1.372874875e-05
1.371585712e-05
0.0001625865429
-1.228065886e-05
2.7229614e-05
-2.659770649e-05
0.0003315862436
-0.0001662752324
0.0003312536357
-0.0001583981107
-1.314914873e-05
0.0001583779621
1.247481662e-05
-1.251453858e-05
1.2531735e-05
-1.251641073e-05
0.0001593777829
0.0001593921805
6.618701076e-06
0.0003321020149
9.007572857e-06
-0.0003315352663
-1.173132843e-05
4.198184832e-06
0.0001679467654
4.398488623e-06
-1.261262038e-05
-5.729472034e-06
-0.0001456174253
-0.000166122528
2.532806481e-06
9.563226522e-06
-3.539970472e-05
-0.0002711271739
0.0001655556863
0.0001404155387
-1.055102105e-05
8.013474073e-05
-0.0001216000941
5.201637439e-05
-0.0001406933187
0.000105390121
-0.0001536302399
-1.312350549e-05
1.252838051e-05
-1.250020042e-05
1.251634464e-05
1.248349125e-05
-0.0001548368816
0.0001539718465
-0.0001539885557
0.000154041522
-1.18110902e-05
-1.183739388e-05
0.0001511620775
1.182098515e-05
-0.0001514868488
0.0001515078533
-0.000151521349
-1.308972766e-05
1.246468893e-05
-1.247818463e-05
1.24818252e-05
1.250004738e-05
0.0001517683949
-0.0001414065434
0.0001414404291
9.793086772e-06
-0.0001617670823
-1.280348356e-05
0.0001615334135
1.24360275e-05
-1.214172066e-05
1.140706979e-05
-9.617006087e-06
0.0001650433079
0.0001645392135
7.011438052e-06
-0.0001597280375
-6.403574168e-06
0.0001595122778
-0.0001599103862
0.0001596179584
-0.0001591054392
-6.685586687e-06
-6.606501906e-06
-6.146682063e-06
-0.0001561910707
-0.0001564324383
-0.0001484523121
-1.316573821e-05
1.249940261e-05
-1.252210333e-05
1.248605663e-05
1.250151233e-05
-0.0001506161586
0.0001496222583
-0.0001496428493
0.0001496284022
-1.180725968e-05
-1.18272369e-05
0.0001459892277
1.180242401e-05
-0.0001466014328
0.0001465845264
-0.0001465824613
-1.314139465e-05
1.249705402e-05
-1.249498892e-05
1.249801549e-05
1.249839544e-05
0.0001471869277
-0.0001442098622
-1.312743022e-05
1.247781597e-05
-1.245684874e-05
1.245325936e-05
1.247207191e-05
-0.0001453766909
0.000144792519
-0.0001447772958
0.0001447871403
-1.181664004e-05
-1.184056388e-05
0.00014063648
1.185023166e-05
-0.0001414378285
0.0001414492124
-0.0001414262951
-1.315378925e-05
1.249110021e-05
-1.246818293e-05
1.24926574e-05
1.247186097e-05
0.000142290564
-6.814229108e-06
0.0001599287982
-0.0001602285285
0.0001601423394
-0.0001574650736
-6.884441201e-06
6.635714029e-06
-3.958448172e-06
6.277525826e-06
-5.869198836e-06
0.000161257479
-0.0001437119514
-1.313808347e-05
0.0001457274324
8.474693186e-06
-1.407036343e-05
1.51249193e-05
-0.0001658970625
-1.441466189e-05
0.0001627516304
-0.0001616970745
0.0001619384707
-0.0002256796258
-1.708016191e-05
-1.515672604e-05
-1.357509915e-06
-0.000174998829
-5.352711528e-06
0.000253513528
-0.0001747362972
0.0001689444457
-3.468848104e-05
-0.0001336648663
1.54798844e-06
-7.339839909e-06
-3.135477879e-06
2.448346465e-05
-0.0001044564693
-0.0001501551866
0
0
0
0
0
0
-2.049314761e-05
-2.465782584e-05
-7.991962595e-05
7.911253015e-05
7.029390505e-05
0
0
0
0
0
0
0
0
-3.668305837e-05
-3.838978106e-05
-9.717425041e-05
9.465857091e-05
9.486637541e-05
7.711006869e-05
-8.658285626e-05
-0.0002566403547
-0.0001449444879
0.0001617767163
0.0001974782867
-0.000203787406
-0.0003667930923
0.0001876400191
-0.0003411735557
-0.0007405264941
0.0006139190381
-0.0003668025142
0.0003979312844
-0.0004050310128
-0.000862076009
0.0003938222862
-0.0008218056015
-0.00115052378
0.001070342652
-0.0004431234949
0.0004270723245
-0.0004290300566
-0.001206960696
0.0004254952539
-0.001162064193
-0.0002998951018
-4.159286005e-05
3.888002123e-05
-3.887564715e-05
-0.0002998994759
3.88578261e-05
-0.000296723121
0
0
0
0
0
0
0
0
-3.462844542e-05
-2.83355911e-05
-6.958534292e-05
7.95825518e-05
8.302494091e-05
0.0001031730083
-9.370628221e-05
-0.0002918684926
-0.0001404659868
0.000185250599
0.0002065615497
-0.0001979652703
-0.0004152053022
0.000211513754
-0.0004165000361
-0.0008318024386
0.0006909087559
-0.0003576134869
0.0004047658856
-0.0003951916092
-0.0009669688354
0.0004102038566
-0.0009572924144
-0.001285751421
0.001198560024
-0.000433578584
0.000425355171
-0.0004204768625
-0.001349190526
0.0004279891426
-0.001321326617
0
0
0
0
0
0
0
0
-6.652790962e-06
-1.928327588e-06
-2.278504232e-05
3.410910139e-05
2.588710518e-05
7.041849991e-05
-5.825336879e-05
-0.000219822138
-8.630120999e-05
0.0001257775111
0.0001531995032
-0.0001334621748
-0.0003340086115
0.0001708896186
-0.0003651676937
-0.0007475194748
0.000603246098
-0.0002785913461
0.0003423078596
-0.0003171832585
-0.0008908874959
0.0003638426983
-0.0009281711223
-0.001266029193
0.001154477614
-0.0003743318698
0.0003888604979
-0.0003715590545
-0.00135981018
0.0004025970955
-0.00137690069
-0.001523683107
0.001488318612
-0.0003060969194
0.0002745616985
-0.0002702712118
-0.001542687234