/*--------------------------------*- C++ -*----------------------------------*\
| =========                 |                                                 |
| \\      /  F ield         | OpenFOAM: The Open Source CFD Toolbox           |
|  \\    /   O peration     | Version:  v2012                                 |
|   \\  /    A nd           | Website:  www.openfoam.com                      |
|    \\/     M anipulation  |                                                 |
\*---------------------------------------------------------------------------*/
FoamFile
{
    version     2.0;
    format      ascii;
    class       volScalarField;
    location    "0.09";
    object      k;
}
// * * * * * * * * * * * * * * * * * * * * * * * * * * * * * * * * * * * * * //

dimensions      [0 2 -2 0 0 0 0];


internalField   nonuniform List<scalar> 
3019
(
36.90869935
36.90874749
36.90881755
36.90891728
36.95442306
36.95493946
36.9558684
36.95794206
36.96204638
36.96909796
36.97926127
36.99005281
36.72746012
36.72766881
36.72791499
36.7284212
36.77406019
36.77668469
36.78212771
36.81255395
36.83149779
36.86415039
36.91153517
36.96488255
36.54740159
36.54790345
36.54854442
36.54970605
36.59643098
36.6030401
36.61608158
36.65904906
36.70482631
36.78189949
36.88880697
36.98490676
36.36871528
36.36926961
36.37037148
36.3731035
36.42166534
36.43539951
36.46301861
36.53064734
36.62591139
36.77732918
36.94124321
37.08357566
36.19193165
36.19272462
36.19476212
36.20002734
36.25239673
36.27690345
36.32994536
36.43635341
36.61702283
36.84417178
37.09668992
37.32892836
36.01666654
36.01782758
36.02129715
36.03050405
36.08967834
36.13120687
36.22312081
36.39144772
36.65470358
36.99152665
37.41136581
37.87787531
35.84387721
35.84585923
35.85184697
35.86636341
35.93457639
35.99906166
36.14455616
36.38825052
36.74286273
37.23786719
37.96440901
39.15046157
35.67426088
35.67732683
35.68647846
35.70834335
35.78985595
35.8825809
36.09386178
36.4045958
36.86722767
37.55625618
38.7337771
41.35432034
35.50986566
35.51472123
35.52857688
35.56120311
35.65504544
35.78275662
36.06325185
36.43702242
37.00998115
37.88111901
39.42918943
43.24985432
35.35173559
35.35852607
35.37744346
35.42179016
35.53032467
35.69808271
36.04495715
36.47915659
37.15176635
38.16394211
39.92210484
44.07983349
35.20193178
35.21145493
35.23696892
35.29575786
35.41708919
35.62607786
36.03450954
36.526119
37.28606398
38.40903649
40.31716201
44.18917908
35.06020198
35.07213837
35.10363381
35.17615492
35.3139773
35.56312407
36.02904365
36.57443608
37.41246174
38.63424791
40.6916138
43.79136361
43.10178281
44.01453552
44.21695408
43.85390736
41.0179976
39.81252659
43.12069058
42.38485741
40.22440425
43.58681354
43.20426585
44.21425467
45.82951105
46.7442306
40.61005039
43.58131793
43.60639894
44.06806572
42.459991
44.29723762
43.56594715
43.56828241
38.04024958
40.29837043
47.11812357
48.80027524
43.35290136
46.73946023
46.8594513
47.55847064
43.72109385
48.15176725
46.92283551
48.89354283
48.29528907
44.47471423
45.67483596
44.23642868
45.35542956
43.65525739
46.84328355
45.46084954
40.42360522
42.34544589
44.01982586
41.45890926
39.11081564
43.54097633
41.58863325
37.87669467
43.5351054
36.0722126
38.97576311
36.26671322
39.27743788
42.24622972
40.71537671
42.2713494
45.80881237
42.96619716
43.62552199
47.63934957
47.67449932
47.52502576
46.10185604
42.52043156
54.03737103
45.26190153
52.10051688
41.01779048
42.93948984
39.26727118
43.10601392
42.77628341
58.0108502
54.47117306
47.96921442
54.75193901
55.70329811
50.68715419
54.43879835
48.19805442
44.90173772
49.90579713
44.69441392
54.99397472
50.62409655
45.43678774
52.75139009
57.83229952
47.57227374
43.87463675
47.4931872
48.77214943
47.09344656
50.17229508
44.24829975
46.68823393
48.6713052
44.58171711
44.47172533
46.24300452
46.15559432
40.5310878
40.37082143
42.62619992
42.49347106
42.66287083
38.03022098
37.89548723
42.53337093
44.86673037
43.27999033
44.58032465
44.3326925
44.8898665
44.65998667
43.41323553
43.51600643
43.21041585
39.39846686
45.01224702
45.16448667
44.96241377
40.23380996
40.71782186
44.01168667
41.39723548
43.89462013
43.61329666
44.24746279
43.98511423
41.52614207
41.0705422
35.97569605
36.28284253
33.65787177
33.86731932
39.57126103
43.15962714
39.46134322
40.09729684
36.40629884
36.75380438
41.97657944
38.57385655
33.3607067
33.58839214
32.87181287
37.17546844
52.15285084
52.05309998
47.83790897
48.68754462
56.72785159
56.20216033
55.78053079
50.7923826
51.33853446
49.81021704
50.57261162
56.06954917
52.97042159
51.53800896
51.34904871
51.45909081
51.55729573
53.23632539
53.43440424
48.6363289
49.55292251
56.27714413
56.70389023
42.55024413
47.65219756
46.82267881
48.43598492
47.87691764
43.09769892
45.67158081
45.1004408
46.53405824
45.86819551
48.32720852
50.58961731
50.07062482
51.21988893
50.75627746
48.76946721
45.22850688
49.17525052
48.62420147
49.89351057
49.35653322
45.58322158
39.78290487
39.30928846
40.6069294
39.94934067
38.5555709
38.09451244
39.15960757
38.69325734
44.1864793
43.64574677
44.91601643
44.3715026
42.56764653
41.03154117
43.4486409
42.90572992
35.55222256
35.85430233
40.94000207
34.05107902
33.83878524
34.34147314
34.13602263
33.73171194
39.76800225
33.95019849
35.28268506
37.5324542
39.18810046
43.0305186
37.19972843
35.25905235
37.99984848
37.28903584
34.70244241
34.43783057
35.12023588
34.80740617
42.10530065
36.87767719
37.29441118
33.08741562
33.29266548
38.43954905
37.40665509
32.89653157
33.03311892
46.25354603
45.54996257
45.43519078
45.64703315
45.58045924
46.38335245
45.38795464
45.22544225
45.1836055
45.02518203
42.18390629
42.79054025
43.08429599
43.9856196
45.77635492
53.3362955
57.73218515
58.46867076
55.08959766
55.11363439
54.07391651
53.91805844
51.22807481
52.17213358
51.80904044
53.74457323
53.53367974
54.02775691
47.23249377
48.33839662
52.93255011
54.17407338
59.24135818
55.81417675
59.49979787
59.8336968
57.25094876
41.00476103
43.06298039
42.5591482
46.54275421
46.31717446
43.64652484
40.55816678
40.33006342
42.14377946
41.81306497
47.49925765
49.56083789
49.2470194
51.47181943
51.14886712
49.68748192
44.53297323
47.12665302
46.86081845
48.93120551
48.62346272
46.31193794
41.522095
42.01405064
44.91799056
44.12435013
40.87377609
41.36127353
44.87813201
45.35698465
46.50629794
38.98866693
38.84810525
40.12888813
39.94829744
36.83604862
38.63487657
38.51788731
45.8712142
44.20842597
44.71190054
36.05870848
38.22195891
38.09941249
33.74088372
35.09394639
35.00112737
35.3885743
35.20502201
33.80653775
32.91318711
32.8726478
33.44156176
34.76560731
34.67978805
34.92332031
34.84329658
33.51165079
33.02932987
32.96499835
33.63672357
33.18028327
33.00586028
52.99225496
50.37191643
49.40272994
52.33287264
58.62468353
60.12447658
53.20835811
57.50116099
61.04502255
57.27930564
55.59754142
52.91522209
52.55172894
51.74710004
53.7317822
53.35283231
53.09743904
60.42908642
60.0932107
55.41817495
60.58174248
62.67107281
57.09897957
60.26557208
60.41395731
45.22901504
45.07611884
42.49140129
43.2491849
45.95552715
45.79598077
41.02660111
40.78366138
41.53443104
41.27247008
50.1916517
49.87376171
47.89758033
49.22389565
50.83007403
50.51096474
47.71889595
47.43585369
44.91213759
45.92450991
48.31398744
48.01942295
39.6193391
36.95698642
37.10132963
36.6959308
36.83087652
39.46547637
40.33485575
37.57702041
37.79252582
37.24277263
37.40379331
40.13043277
38.39002788
35.93128692
36.06941117
35.70812298
35.84356973
38.26930783
39.00236509
36.43506896
36.57330031
36.17348872
36.31654694
38.85588324
39.35857301
39.19718466
44.0077173
42.04577436
42.22654058
41.67156127
41.83648849
43.81919295
39.74099876
39.56403493
37.89965749
37.76536393
42.30952541
40.39048581
40.45618291
38.11005835
38.56326536
41.64352459
43.28564607
41.30991693
41.44658139
40.94238154
41.04115809
43.06130881
38.2906884
38.19668895
35.62670466
37.67956828
37.55134475
37.95862448
37.84338621
35.78373301
33.99582581
33.89830849
34.27569678
34.18725104
33.71328578
33.70968558
34.12123476
36.39775311
35.74394933
37.29032546
37.03259304
35.00143789
35.75100172
34.84737461
35.16887494
35.44899546
37.78720324
35.48961123
35.63434724
35.25671943
35.42229927
37.7088726
34.61650143
34.5151679
35.01215255
34.90148784
33.15507288
34.42804943
34.33794338
34.59854247
34.50922408
33.21670198
32.93815016
34.06236927
33.93315514
34.25524363
34.1637382
32.98328677
36.69554189
36.72179081
36.82537554
36.73289199
36.7785228
36.8540623
36.79621502
36.86264463
36.89794926
36.88672717
36.95556052
36.95101575
36.9740769
36.55990849
36.61506754
36.69103693
36.63958657
36.73574738
36.75996418
36.77236229
36.88374853
36.86263045
36.92019784
37.02071061
36.96419267
37.04875972
36.45660281
36.56721362
36.596516
36.61487283
36.76575256
36.73761198
36.82004221
36.98903459
36.90085119
37.04541103
37.20374545
37.05232136
37.24848844
36.39780594
36.57430727
36.56445148
36.63981896
36.86271188
36.78394342
36.94589895
37.21822557
37.03308988
37.31441521
37.61074752
37.27567285
37.69842919
36.38679382
36.62464967
36.58315698
36.71687815
37.04142032
36.89984073
37.16783596
37.61955686
37.29914497
37.79906997
38.46869324
37.75740092
38.7179397
36.39895236
36.71001841
36.643168
36.83394626
37.28665282
37.09734484
37.47301318
38.20224701
37.75154073
38.53398828
40.43252499
38.77571336
39.77855028
40.3925075
39.43501463
36.42753843
36.81704682
36.73490085
36.9739291
37.5573478
37.35399482
37.8032061
38.80310969
38.36178179
38.92828769
39.43956129
39.19764376
41.68115814
42.31256773
41.89592965
36.46810093
36.93103002
36.84551407
37.11693258
37.80730696
37.62246278
38.09742429
39.26711024
38.9321813
39.56786757
40.21858832
40.05556408
43.38618948
44.42629429
44.27446492
36.5143322
37.04271148
36.95930058
37.25331639
38.02816139
37.86496995
38.3503678
39.63121763
39.36428276
40.02684917
40.74292858
40.62404189
44.13475307
45.20418454
45.2198127
36.56295793
37.14960549
37.06983674
37.38180804
38.22946183
38.07975925
38.5793526
39.96318452
39.71395938
40.4161056
41.19132402
41.07575578
44.15415418
44.59180872
44.75696319
37.17515318
38.27753652
40.04429563
40.8057816
41.80890875
41.47867999
43.72405685
43.51289244
43.74070154
44.10664844
43.90681017
42.93175345
45.21789188
45.17838638
43.93622301
44.80752106
44.94728621
44.23293174
43.81298672
44.02220879
43.91336981
42.60803946
40.80461895
40.05670256
39.60981961
40.640507
40.49950599
40.3651363
39.69476908
42.83500832
40.9975385
41.21752799
40.650365
40.91922612
42.73522486
40.96926168
40.85596699
40.12576565
43.47031606
41.546379
41.73119576
41.28559858
41.4827684
43.41414709
45.12561811
45.19125823
44.17968715
45.97759705
45.95538929
45.85389136
46.44842881
46.37840096
46.6260594
41.4184573
41.28710804
40.50425938
43.61548079
42.01694552
42.17064544
41.79140803
41.96220045
43.61997026
44.34707617
44.53286231
44.11320166
42.80452204
43.90809879
43.75643056
44.7663119
44.62506196
44.09101259
42.21615894
42.32652675
43.50098098
43.19284182
43.43472548
43.66466843
38.64792216
41.18708664
41.13448622
42.27264954
42.09179571
39.91880582
47.43760712
49.36249331
48.58438402
50.63418395
50.6916795
48.61885253
43.82109587
44.29287081
43.720498
48.04473335
47.50475504
46.35645151
47.18472944
45.68628404
45.66243514
45.69331708
45.68925854
47.28521676
43.84245717
45.14133171
44.76673771
48.00312453
48.14497097
48.58374459
46.1409723
46.61646457
47.16892613
48.88978022
50.28763803
50.56706457
48.7272659
49.15341623
48.43069019
44.6589919
45.03067412
44.8982633
45.74816681
45.63809224
45.51519986
44.23902379
44.98874837
45.09569936
45.24356656
44.77008863
44.90728072
42.89552835
43.03378968
43.77752654
46.59546271
45.51589723
45.98463498
45.04737207
45.18835256
45.57081184
40.81754476
42.62059105
42.44701167
43.60265504
43.44725524
42.00024459
43.96853849
44.08903227
44.28398384
41.32935513
40.07387562
40.21146561
37.3011171
37.44139757
39.25101795
43.41720065
42.61668789
42.75938067
40.35157856
40.49044715
41.71812195
41.06180708
43.10964766
35.92263956
33.80757446
33.90428364
38.84196041
37.04768082
37.17298497
34.06232286
34.35682538
36.53153938
39.87287752
39.66762786
39.11074272
41.7184746
40.19860468
40.55116778
39.63071084
40.07068615
41.50065385
43.07863455
42.71544993
41.99096503
44.72440767
43.3447063
43.99327754
42.44406103
43.11177422
44.27744378
44.69837985
44.55289742
43.50383992
47.82615847
45.48194726
45.66807
45.16616181
45.41043065
47.84698768
47.02144341
44.7573316
45.0808678
44.16848383
44.63679849
46.82596939
42.74000088
43.67316641
43.39811427
46.07293852
46.7886406
45.6862738
55.49176195
53.55456987
50.81097491
41.22792824
42.1496417
41.66566669
41.98562715
41.14333907
43.99965022
42.37626292
41.92947848
41.54603619
41.31013251
38.82825772
42.99593895
42.36930222
42.52508214
42.073071
42.23635034
42.88884481
50.13354547
49.57208851
47.71802361
53.11169054
53.65117267
56.24261697
48.41055345
50.6431164
50.29044062
45.67636137
44.93130809
44.32362973
47.33957345
45.8641382
46.87712616
44.27193683
44.8646112
46.54683884
54.36208293
52.08245079
52.56781741
49.1493149
49.72580609
51.43276817
45.91598911
46.98792162
46.33959349
47.46863865
47.98830467
47.83903356
47.24592852
46.77762921
47.28507655
49.82203858
50.17899795
48.85322739
48.55659651
49.29173918
49.69439756
43.97723883
44.1097897
44.69654473
44.35487895
43.71044446
43.84465275
46.03580286
46.14639857
46.33463492
46.06049456
45.81063688
45.92419021
39.2190627
39.37198538
40.67290478
40.18790039
38.77276462
39.01624934
41.51804503
41.71171791
42.75851924
42.36290586
41.19419332
41.34749298
41.9220075
36.30491832
36.43387477
38.16885446
37.74877009
36.04797353
36.18997549
43.04295769
43.49961317
44.20304185
44.05713015
42.91961666
44.49909896
44.39131821
44.50028195
44.16795489
44.2804522
44.41657657
44.81454137
44.81545425
44.91657399
44.60737578
44.71280459
44.73803492
43.93104594
44.48943238
44.34577466
43.41630868
42.93769978
43.07179102
42.66064948
42.80297268
43.31502081
39.79076432
41.91279356
41.71766466
45.28441763
45.15875338
44.83623159
45.10004707
45.20295509
45.29380009
45.01405965
45.10985261
45.03259452
40.40420305
41.95236482
41.79651427
42.25615753
42.10179422
40.55204864
43.89149911
43.16879381
43.30558042
42.96397076
42.79310474
40.96255705
43.80246196
43.45643827
43.5806934
43.20189742
43.33022812
43.7087261
44.16125349
43.93847601
44.05387295
43.70234486
43.82136415
44.0738599
41.88478132
43.28970078
43.12923497
39.79903713
39.93403139
41.19962126
38.49311926
38.36182598
36.18298563
39.40130556
37.60242753
37.81106325
42.3076145
42.47188994
43.29611457
39.76399993
41.321378
41.10809046
41.64853272
41.48268735
39.90243514
36.51553873
38.77030044
38.63372277
39.05212342
38.91203107
36.63899319
41.84749717
40.63032443
40.76941606
36.80019491
36.9252735
38.70874565
36.86491741
34.88333021
35.47113656
49.45944594
47.62231858
46.64132052
46.44224468
47.93303184
50.01029821
52.45303053
50.38033907
54.19266258
54.16245134
55.43581235
50.99890665
52.53617065
52.37995294
52.6653066
52.63427446
51.17985477
50.07628479
51.55290747
51.16198127
52.16786838
51.89214985
50.32954346
56.24704405
53.98978364
54.16638592
51.50562886
52.25215444
52.35944174
51.84867672
52.06747954
51.44609618
51.53502072
52.60217243
52.65053187
52.4265869
52.52128247
51.56484903
51.23145223
51.67275254
53.94378919
48.96336257
50.0360615
49.64104503
50.77389593
50.39303848
49.23670332
47.43316342
46.57447689
46.83974509
45.31331472
45.92137259
47.14194094
48.25437188
47.65851447
47.87311444
47.19398527
47.39302396
48.058933
45.47826127
43.63282816
43.85026859
43.21127277
43.42054802
45.28799399
46.28870778
44.55412908
44.86743279
44.07133803
44.30209811
46.07158673
50.41903047
50.47963157
50.71282048
50.00841472
50.24467876
50.24587433
51.07385191
51.40036233
51.6252516
50.94447958
51.17372047
50.91839727
48.99290805
48.58808991
48.82101689
48.11868173
48.34690447
48.80763299
49.71530393
49.53179524
49.76971759
49.05826326
49.29330798
49.53619924
44.73511541
42.81905154
43.01029738
42.42943879
42.6185874
44.55212691
40.80930282
39.52353515
39.65872061
38.09732825
38.45266552
39.9826104
37.93871583
40.18736838
39.8962311
40.85917184
40.5372129
38.57217489
42.87933076
41.9211769
42.12641923
40.90910945
41.04965982
42.23386211
36.9991726
39.34255039
39.19612154
39.6755261
39.49913968
37.13525229
38.30294654
36.55235893
36.67876486
35.70249442
35.92303102
37.60013238
46.14189585
46.05158396
46.11850331
45.51584986
45.82247257
45.87843494
45.695917
45.76180959
45.47768108
45.62895482
46.02046627
46.06020364
45.93002104
45.97726859
45.6064692
46.5088578
46.30498736
46.22633271
45.33724695
45.54813813
45.62454233
45.3822459
45.46718491
45.28292716
45.35143947
45.52394339
45.4059838
44.50387618
44.63628785
45.13734207
42.3624078
43.78368766
43.62626057
44.12609008
43.94828944
42.5579845
43.42817501
44.52630515
44.32141878
44.89466704
44.72090564
43.748691
45.67189964
45.32420186
45.45384528
47.63390329
48.33641275
47.81515271
49.25072911
48.78822752
47.96883184
52.22444216
50.26306989
50.79017386
41.68485391
43.16914412
43.01758848
43.47257564
43.32042974
41.84767684
44.80480007
44.24101515
44.37257388
43.44046586
43.57639776
44.24324873
41.03866665
42.56172425
42.4077316
42.86630619
42.71380868
41.19834693
45.03694642
45.75226563
45.6175339
46.01851112
45.88628246
45.19865295
46.41851843
46.25494034
46.36301124
45.57688038
45.69521445
45.9699625
44.37555984
45.19992603
45.05536395
45.48026527
45.34305514
44.55325412
36.86543695
36.86664063
36.95530927
36.8685702
36.8717969
36.95655764
36.87498878
36.88025372
36.95969235
36.88753335
36.89713894
36.96515457
36.90927191
36.92385861
36.97385406
36.94036027
36.95782498
36.98490524
36.97528265
36.98951588
36.99441202
36.6859052
36.68696623
36.77512919
36.68922653
36.69280425
36.77895734
36.69771399
36.69012537
36.80939436
36.77228208
36.77717758
36.81607939
36.79634997
36.80535838
36.8378625
36.83768738
36.85187839
36.8742038
36.89739815
36.91521265
36.92432406
36.96504705
36.97881274
36.97630616
36.51019273
36.51306389
36.59916446
36.51849841
36.52665663
36.60858692
36.53733616
36.54731142
36.65178553
36.62432382
36.63512227
36.66816382
36.67959022
36.69933855
36.7213518
36.77268963
36.80345409
36.80712443
36.89434897
36.92405669
36.91590218
37.00038645
37.02128509
37.00423898
36.3382598
36.34422176
36.42718347
36.35469877
36.37066234
36.44716508
36.39356774
36.43038615
36.51490114
36.50402881
36.52590596
36.5492132
36.61719357
36.65744039
36.65965691
36.78696557
36.83235909
36.81847478
36.96861497
37.0123751
36.98057713
37.12752498
37.1580387
37.11124169
36.17281987
36.18380426
36.2623425
36.20243333
36.23050849
36.29830173
36.27328326
36.35154126
36.4054545
36.42010036
36.46202171
36.4728655
36.6205118
36.67988896
36.67034507
36.87357382
36.94252097
36.9061745
37.15798574
37.23010647
37.15915992
37.42942917
37.48198035
37.37704354
36.01430859
36.03261939
36.10649182
36.06350911
36.10999841
36.16761603
36.1801157
36.31679646
36.33840891
36.38786282
36.45353956
36.45225378
36.67258006
36.75649548
36.73139389
37.04437355
37.15373567
37.08898011
37.52448534
37.66217797
37.52625717
38.10032349
38.23451508
37.98986952
35.86352291
35.89171194
35.9602385
35.93878501
36.01022028
36.05731844
36.11607504
36.31090958
36.31293489
36.39090459
36.47437177
36.46673111
36.77147727
36.88876859
36.85108949
37.31259549
37.48470208
37.39214
38.14308575
38.43108297
38.20068266
35.72175635
35.76409452
35.8258721
35.83097334
35.93176634
35.96837515
36.07666808
36.32078042
36.312301
36.41126789
36.51712108
36.50464816
36.9022861
37.05749844
37.01295104
37.63987117
37.88849356
37.78611249
35.59067227
35.65003344
35.70470711
35.73930641
35.87105654
35.89921658
36.05305057
36.3411117
36.32507616
36.44697251
36.57594624
36.56036385
37.04593305
37.236066
37.19191347
37.95608295
38.26580327
38.17774853
35.4716313
35.54929876
35.59655477
35.66210456
35.82395238
35.84551577
36.03918843
36.36828722
36.34728173
36.49072467
36.64109787
36.62443024
37.18611804
37.40532105
37.36426047
38.22807527
38.57828709
38.50535622
35.3647746
35.46068264
35.50059726
35.59697339
35.78683811
35.80308306
36.03163149
36.39944201
36.37559113
36.53854713
36.70831938
36.69135406
37.31858052
37.56203958
37.52375763
38.46675241
38.84788647
38.78273424
35.4142241
35.76796983
36.40691251
36.58769869
36.77474196
36.75775333
37.44332617
37.70867028
37.67244929
38.68985379
39.10191954
39.03803766
41.41456073
41.00474981
40.68111376
39.86213113
40.14312359
43.02981211
42.2855372
42.37108196
41.68494182
41.80263347
42.51179604
43.55603038
42.86650958
42.9210362
42.45223326
42.53128853
43.2812613
43.59501307
43.15086177
43.16841399
42.9689587
43.01210715
43.6178521
42.57492972
43.17174389
43.07113072
43.18273717
43.19460769
43.54562115
38.23031675
39.55402581
39.42251812
41.26233622
41.14892282
40.17267551
46.97025452
46.58185055
46.51595249
46.92717305
46.88063742
47.47090134
46.88100639
46.98283382
47.00659125
46.76231957
46.67721394
46.77919062
40.55053532
41.48331471
41.37072521
42.97513304
42.87372104
42.23023582
39.29028794
39.16102117
37.73377104
43.49857612
42.08941395
41.41989439
41.55921984
40.32757911
40.53112357
40.99478234
45.4863389
44.80334732
45.07756416
42.7589874
43.10671389
43.37514482
47.71243284
46.999507
46.9683799
46.66725877
46.78485812
47.78408366
47.365106
46.41226791
46.54449723
45.32431219
45.55315846
46.36858781
43.22086258
42.77252981
42.5578942
40.34285887
40.21974388
39.12987681
49.04060814
47.97277541
48.5875861
44.5588897
45.00288595
45.25051158
47.68324149
47.77450104
47.66337031
47.4076463
47.48647812
47.58622592
45.16468406
44.40400211
44.24142747
43.74332187
43.64982553
43.15533306
43.56267923
43.89434806
43.82796684
39.5312693
40.57899505
40.45593528
42.16311458
42.04965172
41.25834558
41.64896002
42.37436675
42.2673069
36.70303895
36.73940606
36.73312149
36.75462285
36.74598949
36.71131171
36.82059777
36.78246442
36.78924362
36.74669677
36.77484184
36.7634272
36.80079722
36.78622765
36.76100719
36.84588448
36.81459643
36.82615383
36.81750624
36.8327156
36.814931
36.86998939
36.84943304
36.83827218
36.88628008
36.86556135
36.88205342
36.91216632
36.91110784
36.88831935
36.95125515
36.93093819
36.9335452
36.93863059
36.93097963
36.94973471
36.9920733
36.98391344
36.96769393
36.99666675
37.00602297
36.98966048
36.9916153
36.57538877
36.60407222
36.59098733
36.63727597
36.61928309
36.59362006
36.67845469
36.64767656
36.66273418
36.66786729
36.6812832
36.65766744
36.73739549
36.70759492
36.69949455
36.73907932
36.72099972
36.74598914
36.80933281
36.80491895
36.77053041
36.87183642
36.83815304
36.84641466
36.83330092
36.83433671
36.86523754
36.95585341
36.93721088
36.90476747
36.99592361
36.96725432
36.98920043
36.93997072
36.95114608
36.97742248
37.07365003
37.04407044
37.02131722
37.06260894
37.09430467
37.01958075
37.03820368
36.48781919
36.50562244
36.47941027
36.57227077
36.53631356
36.52462706
36.57099549
36.55176067
36.58210972
36.66294239
36.65890277
36.61375943
36.75203859
36.70436847
36.71321708
36.69796187
36.69972815
36.74256811
36.87573169
36.8513612
36.80111794
36.95289257
36.90205197
36.9321986
36.85961956
36.87797743
36.92368113
37.10062766
37.05185502
37.00303474
37.14163325
37.09820838
37.15362976
37.01756654
37.05382327
37.09273071
37.28734646
37.21662849
37.18136262
37.24456275
37.32224739
37.13376175
37.18407938
36.45207177
36.45563014
36.40719753
36.56810239
36.51063818
36.51221962
36.51570169
36.51043954
36.56494265
36.7099106
36.69239727
36.6281516
36.83269216
36.76047691
36.78397163
36.72599408
36.7422734
36.80676369
37.03328028
36.98618755
36.90858558
37.1476254
37.06594459
37.12467022
36.96930039
37.01336492
37.08546242
37.4127443
37.31343895
37.23049849
37.47218492
37.39469652
37.51195284
37.21919163
37.30071359
37.36886856
37.77659957
37.61945209
37.54878013
37.66920008
37.85697306
37.41304201
37.53275281
36.46064211
36.45613111
36.38623479
36.60858315
36.52957394
36.53944086
36.5158018
36.52173426
36.59456676
36.81675917
36.78485957
36.69342415
36.98933976
36.8832303
36.92461634
36.81287857
36.84616152
36.94226789
37.30570188
37.22615101
37.10325757
37.49982305
37.35788003
37.45584731
37.1917116
37.2695212
37.3929834
37.99649062
37.81626716
37.65231965
38.17103903
37.98910815
38.22017012
37.64277065
37.80785658
37.96035485
38.97759445
38.57387783
38.37571689
38.72430567
39.36448496
38.06777143
38.37285421
36.49338611
36.48315067
36.39435174
36.68599461
36.58004778
36.59677784
36.55130309
36.56504187
36.66388106
36.96997805
36.92837237
36.80171874
37.220791
37.06736405
37.12001406
36.96877752
37.01693197
37.15762977
37.68331095
37.58194983
37.39115926
38.04521634
37.79807342
37.92379814
37.56253166
37.67711682
37.89361795
38.94604273
38.67815695
38.33629671
39.5918273
39.07763317
39.46407866
38.46425536
38.77842711
39.19249706
40.0703695
39.94043167
40.22165846
36.54509538
36.53060285
36.41889173
36.78895048
36.65364812
36.6745976
36.61440169
36.63361709
36.76160522
37.14742607
37.10237321
36.93784821
37.49032272
37.28532107
37.34057559
37.17421145
37.22974178
37.42237641
38.08526442
37.9885761
37.72235446
38.66460908
38.29839894
38.4138942
38.05130109
38.17691207
38.51687477
36.60800711
36.59178222
36.45724625
36.90260328
36.73989816
36.76197899
36.69617732
36.71797154
36.87408203
37.32238462
37.2796339
37.08163477
37.74764268
37.50012641
37.55096855
37.3946197
37.44792517
37.68597829
38.42929129
38.34953189
38.02816639
39.16328243
38.72278026
38.81394839
38.52321538
38.62613779
39.05213109
36.67464866
36.65777117
36.50226238
37.0151547
36.82838789
36.85043034
36.78413827
36.80631154
36.98737547
37.48508579
37.44554175
37.21993495
37.97517934
37.69570758
37.74177415
37.6004322
37.64867911
37.92090248
38.71656251
38.64844451
38.29005842
39.54494389
39.06128729
39.13785935
38.90015789
38.98249612
39.4569465
45.21349885
44.79168286
44.79660234
44.77025389
44.78044098
45.21799371
36.74166235
36.72474008
36.55027645
37.123146
36.91531232
36.93683941
36.87222675
36.89407843
37.09688513
37.63639011
37.59922043
37.35014457
38.18011054
37.87423995
37.91727443
37.78672183
37.83109304
38.13059092
38.97552544
38.91168475
38.52312141
39.87853967
39.35750102
39.43016734
39.21203556
39.28553854
39.79792048
44.64917876
44.48280958
44.44082372
44.55716811
44.51863893
44.70401949
36.95757303
36.97882077
37.20105765
37.95911277
38.00113845
38.32594533
39.50156741
39.57519187
40.13001001
43.59080562
43.7126848
43.65334772
43.8247381
43.76829906
43.66656607
44.85638178
44.62436547
44.58939328
44.68373867
44.65308855
44.90281148
43.88412971
43.92993699
43.87567839
44.03194858
43.97906015
43.95363186
41.65314323
41.42535812
41.88971434
40.60373165
40.96817486
41.21868425
40.35159231
40.60056717
40.25289261
39.93593973
40.00094377
39.72248084
40.72123378
40.3962508
40.23099896
40.53442842
40.91679283
42.10664448
42.19840234
42.93399274
41.74659633
41.66889926
41.14646389
42.62566069
41.90981277
42.01194192
42.74445255
42.80837518
43.51767983
41.60860035
42.16759851
42.10212351
42.29244943
42.23146877
41.6708592
41.35273265
41.89420613
41.82113668
42.03445595
41.96516972
41.41825225
43.35088413
42.60561161
42.67745756
45.15218197
44.79395954
44.78299828
44.80056863
44.79843824
45.17361515
43.1076478
43.13134068
43.60633762
42.06629677
42.59935733
42.55669569
42.67919907
42.64071183
42.12055304
41.84853654
42.40697028
42.3516598
42.50950634
42.46038163
41.90731984
43.62132308
43.04853107
43.08063307
44.41022946
44.3162901
44.26852448
44.40203605
44.35741037
44.47201599
43.36655984
43.26700832
42.68930936
42.26200522
42.74878686
42.71541781
42.80755688
42.77896838
42.28867119
43.52273505
43.2049344
43.21376665
43.27430882
43.48472496
43.42689318
43.59968201
43.53814357
43.3538726
39.82795257
39.67082571
38.44119431
40.53492226
40.71450062
41.1727793
40.04663638
41.03894985
40.92243009
49.12226642
48.42057293
48.5864788
48.13075252
48.27189592
48.87036609
50.68046993
49.91759294
49.91378217
49.81779934
49.88584799
50.69634746
46.70984606
46.64686108
47.07905035
45.68198969
46.16652544
46.19914634
46.09748292
46.13260445
45.67350673
45.7004451
46.29184414
46.30768529
46.23135491
46.26309177
45.69175647
47.37657099
46.82740153
46.77028426
48.29208793
48.27955129
48.15901678
48.50678452
48.38800582
48.4388742
46.29821657
46.78839602
46.66130468
47.04303774
46.91558791
46.4566884
47.08432689
47.08373413
47.18526308
50.39096827
49.79942238
49.72918659
49.89582505
49.85150998
50.48483823
48.87070602
48.7282011
48.6126131
48.94054323
48.8306242
49.0118737
45.02746369
44.73347359
44.70796789
44.77118602
44.75237391
45.06307657
46.46981839
46.57411678
46.68071132
45.67276163
46.278905
46.14952913
46.53438017
46.40722747
45.82926456
41.70744583
41.59280469
40.68074173
42.11579101
42.77727587
42.67501245
44.15516694
44.13067023
44.07877504
44.22543473
44.17521273
44.21959282
40.9752585
40.24513805
40.38209996
43.36652843
41.10491288
41.26986459
41.91466468
41.25924514
40.73539266
40.92766439
44.1879201
44.51001519
45.12415838
43.57911063
43.94514052
43.64618238
44.4662287
44.20936898
43.78500936
43.33512539
42.97849717
42.83448753
43.79500327
43.47521342
43.84339472
47.00710765
47.01244135
47.77612131
45.55383454
46.26904252
46.20949118
46.31293647
46.30139647
45.61703092
45.25337601
45.95436729
45.85674686
46.133418
46.04486771
45.32991166
47.84529284
46.88971402
46.96723085
46.11562714
46.27284782
47.20003569
44.8787968
45.52790281
45.39015251
45.75779736
45.64478511
44.9791494
44.34393446
44.89741706
44.68696666
45.24661542
45.07564907
44.48992574
46.60875769
45.75740961
45.94735684
41.51000156
41.77121864
41.69004372
41.61606172
41.84588711
43.34634898
43.12508199
43.50149397
42.26577718
42.54776212
42.81407516
42.22859898
42.39820913
42.02938996
38.98980323
40.09756703
39.95592282
49.95619387
49.03309927
49.18527988
48.73306565
48.89258279
49.77538618
50.56026777
49.58966577
49.71388555
49.31936586
49.46258831
50.43731507
46.64884838
47.35692298
48.27730498
47.31667916
46.73440025
46.43787491
45.83212197
45.4989512
46.04696424
47.65323087
47.80057484
47.6783657
48.04425959
47.91807788
47.82702438
47.28567248
47.38689095
47.33063905
46.94137862
47.29797827
47.17034144
47.55263844
47.42538652
47.10955429
49.94646234
49.51021511
49.41912062