/*--------------------------------*- C++ -*----------------------------------*\
| =========                 |                                                 |
| \\      /  F ield         | OpenFOAM: The Open Source CFD Toolbox           |
|  \\    /   O peration     | Version:  v2012                                 |
|   \\  /    A nd           | Website:  www.openfoam.com                      |
|    \\/     M anipulation  |                                                 |
\*---------------------------------------------------------------------------*/
FoamFile
{
    version     2.0;
    format      ascii;
    class       surfaceScalarField;
    location    "0.03";
    object      phi;
}
// * * * * * * * * * * * * * * * * * * * * * * * * * * * * * * * * * * * * * //

dimensions      [0 3 -1 0 0 0 0];
oriented        oriented;


internalField   nonuniform List<scalar> 
6464
(
0.4582921035
0.001815250773
-0.001816280297
0.4583710584
0.001780221849
-0.001712863367
0.4584284083
0.00161445509
-0.001503085824
0.4584571048
0.001380981072
-0.001244745178
0.4584592385
0.001120506676
-0.0009968752889
0.4584640718
0.0008478034834
-0.0007970007403
0.4584380336
0.0007089671205
-0.0005844156181
0.4584532263
0.0004811893677
-0.001794184684
0.9185881494
0.0002859709202
-0.0004299356619
-0.001116192787
0.9186720081
-1.819596206e-05
0.9157520032
0.913781804
-0.00344841098
-0.2290633012
0.2289831375
0.00352861614
-0.00357707739
-0.2292193381
0.2292226997
0.003573715774
-0.003355172656
-0.2293211022
0.2294112592
0.00326501559
-0.002898077119
-0.2293780259
0.2295174507
0.002758652383
-0.002342665028
-0.2293816109
0.2295321524
0.002192123578
-0.001807884944
-0.2293519391
0.2294861337
0.001673690378
-0.4588045936
-0.002495416264
0.4601454679
0.001154541911
7.551201909e-05
0.4608288172
-0.001697485845
-0.4592068433
-0.001938795859
0.9179197165
0.0007260368697
0.001881191932
-0.001174928004
0.9179081403
0.0002710615371
0.9143060136
0.9140528656
-0.2286862221
-0.00531294408
0.2285509893
0.005448741641
-0.2290850675
-0.005709106836
0.2290624671
0.005734461074
-0.229642507
-0.005696349026
0.2296935871
0.005648031098
-0.2301492347
-0.005400499037
0.2304055136
0.005144440532
-0.2301721881
-0.004284449743
0.2304585513
0.003998086571
-0.002916709568
-0.2300981295
0.2307221264
0.002292712704
-0.4626478717
0.0009040557568
0.4613223566
0.000421459359
-0.4598361563
-0.0006935828639
0.4597155227
0.0008142164535
-0.0002830759635
0.9194239225
-0.0007629539091
-0.0004581761689
0.001363727425
0.9162613369
0.0006388800997
0.915030861
0.9146917457
-0.2279875246
-0.00876709454
0.2277335568
0.00902203697
-0.2291323008
-0.009262597793
0.2292307602
0.00916975376
-0.2301791824
-0.008523604263
0.2304797914
0.008231183519
-0.2309748453
-0.007271099355
0.2313189822
0.006933363605
-0.2338562614
-0.001237222219
0.2376863889
-0.00259275918
-0.002877361989
-0.2314127918
0.2313587799
0.002931373897
-0.4611266774
-0.004452496787
0.4621262182
0.003452955986
-0.4603103177
-0.002417815103
0.4611554385
0.001572694303
0.00246961707
0.9190689374
-0.001138702057
-0.0009759298926
0.001796129887
0.9169348241
0.00083466351
0.9159923274
0.9155264092
-0.226665141
-0.01450337397
0.2261620644
0.01500736655
-0.2298714792
-0.01513194013
0.2304158366
0.0145939835
-0.2320157047
-0.01143077219
0.2329536263
0.01050442689
-0.2404123456
-0.0004501291258
0.2370402013
0.003831143763
-0.2327569271
-0.0061879728
0.233173651
0.005777140416
-0.004466366198
-0.2325228751
0.2329801263
0.00400911497
-0.4635548792
-0.005240250561
0.4649027817
0.003892348116
-0.4619356459
-0.002956939495
0.4627319062
0.002160679251
0.003261883394
0.9206161138
-0.002776134826
-0.002032924967
0.001800156946
0.9183965505
0.0008221524379
0.9169703319
0.9163485616
-0.2238873523
-0.02324100928
0.222880979
0.02424755198
-0.2344488545
-0.02114265986
0.2350287125
0.02056632031
-0.2428320077
-0.01041072608
0.240775773
0.01247706545
-0.2359416527
-0.01154971609
0.2371321099
0.01037276514
-0.2351039644
-0.007382712068
0.2359855399
0.006512286803
-0.004010505695
-0.2346971998
0.2351341008
0.003575515039
-0.46605492
-0.005542712449
0.4672244256
0.004373206864
-0.4631379745
-0.003529163858
0.4635012938
0.003165844539
0.00274968531
0.9225870097
-0.002285252654
-0.002435328514
0.001517693791
0.919628542
0.000628187537
0.9178598381
0.9169767492
-0.0187159799
-0.1087908046
0.1081747546
0.01933202989
-0.01543000423
-0.2444705486
0.02973435709
-0.01575024854
0.1224844736
0.1234319707
-0.02239700268
-0.2438056977
0.2467352392
0.0194740801
-0.2418818923
-0.01208224619
0.2434955287
0.01048326036
-0.2386659049
-0.007401601493
0.2395764309
0.006501942723
-0.004350438082
-0.2364222687
0.2369776533
0.003799288335
-0.468399396
-0.004843163703
0.4690539559
0.004188603786
-0.464325587
-0.003160100636
0.4651571102
0.002328577506
0.001644344275
0.9240128046
-0.001449672718
-0.001620466454
0.0007798410532
0.9204930453
0.000292959879
0.9183467193
0.917269709
-0.02383478486
-0.1329679221
0.1354353321
0.02136737487
-0.02214900458
-0.2566710514
0.2600261316
0.01879673198
-0.248487849
-0.01181293548
0.2501425026
0.01016950662
-0.2426890393
-0.006527246197
0.2436375813
0.005591469122
-0.003379667544
-0.2386662909
0.2391572188
0.002892242257
-0.4700971707
-0.0030820558
0.4709612674
0.002217959054
-0.4658297888
-0.001601029173
0.4664091829
0.001021635
-0.0001777145068
0.9247186102
-2.96593092e-05
-0.0004984318271
-0.0003308222518
0.920646153
-0.0002124568262
0.9182283539
0.9170572522
-0.01079031245
-0.1482974346
0.1490680932
0.01001965386
-0.01064208687
-0.2679263925
0.2694593336
0.009109920953
-0.2542043544
-0.005634590851
0.2550631662
0.004780490356
-0.2457121843
-0.002756299377
0.246151377
0.00232218063
-0.001235120167
-0.2403246694
0.2406006662
0.0009615143824
-0.4721012557
-0.0005269031328
0.4730561057
-0.0004279469152
-0.4667087382
0.0008691696048
0.4668953425
-0.001055773925
-0.002376569234
0.9242655105
0.001609623225
0.001220045714
-0.001695205926
0.9199647897
-0.0008854622954
0.9174186102
0.9161717899
0.005436575285
-0.1483325891
0.147583174
-0.004687160169
0.004700447008
-0.2703073312
0.2694875101
-0.003880618376
-0.2558777705
0.002506406203
0.2556519808
-0.0022805803
-0.2468338513
0.00191310129
0.2467705714
-0.001849809743
0.001682322388
-0.2409312484
0.2408950677
-0.001646144956
-0.4730709945
0.00328884369
0.472655611
-0.002873460171
-0.4667520791
0.002805822864
0.4671413719
-0.003195115675
-0.004832838209
0.9225962738
0.003519138465
0.002982936498
-0.003181612459
0.9183135639
-0.001615452197
0.91585245
0.9145563377
0.01477953812
-0.1403872928
0.1392037755
-0.01359602084
0.01644511161
-0.2646902343
0.2624917858
-0.0142480769
-0.253618435
0.009650865714
0.2525648766
-0.0086014634
-0.2458859938
0.006422910621
0.2453058863
-0.005848558652
0.004601829508
-0.2402838797
0.2399913065
-0.00431205069
-0.4719256441
0.006962011357
0.4709168625
-0.005953229792
-0.4674149746
0.0050521704
0.4665991848
-0.004236380639
-0.007113339407
0.919916221
0.005073327103
0.004720065043
-0.004631381233
0.9158316058
-0.002279882147
0.9135009509
0.9122764556
0.01827027914
-0.1310539802
0.1298596117
-0.0170759106
0.02225014752
-0.2554212423
0.2530480727
-0.01988218536
-0.2488660943
0.01428568972
0.24755144
-0.01298303697
-0.2429699539
0.009817814734
0.2419886236
-0.00884493142
0.006898875157
-0.238425926
0.2377972193
-0.006274087661
-0.4696728142
0.01004980737
-0.008576435327
-0.4657304251
0.007292452894
-0.006200948631
-0.009168563078
0.005328789408
-0.005902519766
-0.002863608813
0.1510060827
0.0130502948
-0.1498963004
-0.006841889308
-0.007318187724
-0.1335114934
-0.02670378829
0.1363804968
0.1504052723
-0.003700089093
-0.1512132825
0.002427137746
0.002080961564
0.1517772617
-0.00555326581
-0.006008225697
0.1414816223
-0.01407114782
-0.1427273595
0.007725974364
0.007590910668
0.1495159059
0.003333435231
0.002992506462
0.1315017114
-0.0180273292
-0.1326691958
0.01919481362
0.01604673129
0.1402144291
0.01968005545
0.1300919351
-0.1060197356
0.104818765
0.02375084964
-0.1305463033
-0.02671603965
-0.1204262289
-0.01671166515
0.1217078898
0.03957619497
0.008125170817
-0.03924401451
-0.008457351277
0.02022393139
-0.0662757053
-0.02207135636
0.06812313028
0.01202457577
-0.1472717156
0.2727478663
0.01433126087
-0.2702158265
-0.01686329604
-0.2591672502
-0.02613224258
0.2631508821
0.04659947387
0.0006873961173
-0.04666598287
-0.0006208871188
-0.04308386048
0.003188111597
-0.002644461202
0.04254021009
-0.00309171309
-0.1489409651
0.2751486913
-0.0009673486961
-0.2756597357
0.001478401012
-0.01240795697
0.274513732
0.03809513914
-0.004245871093
-0.0384294744
0.00458020635
-0.04084652737
-0.001732828214
0.001276666827
0.04130268876
-0.01289419627
-0.1415642444
0.2679156611
-0.01392126861
-0.2703343729
0.01633994
0.005812651856
0.2740365008
0.06917717144
-0.01111311076
-0.06963808465
0.01157402398
-0.07255614823
-0.01015523195
0.07213639854
0.005357738725
0.005217242926
0.00825400262
0.03071763619
-0.007904243185
-0.03106739562
0.06310990474
-0.01166026234
-0.06353111761
0.01208147522
-0.06608022933
-0.01180543706
0.01215336602
0.06573230037
0.003705244674
-0.04338978322
-0.003399321937
0.007832868715
-0.008063736524
0.03980706278
-0.1445474585
0.01925566673
0.1466731155
-0.01051059964
-0.01087072407
-0.07753218546
-0.007504818714
0.07834016698
0.01452970591
0.04197297527
0.003823667331
-0.04209139792
-0.001554500495
-0.04037641316
0.001084386284
5.769387166e-05
6.028291201e-05
0.04648149709
-0.07587976168
0.00120561625
-0.001226402422
0.07590054785
-0.04529743584
0.04514226837
0.0002128613461
0.04031564169
-0.00179926714
-0.04007087504
0.04170422642
0.003456860438
0.0006697458503
-0.04527978558
0.001862179174
-0.07594795286
-0.001793987994
-0.009960689653
-0.07300240377
0.005223180753
0.005183764433
-0.004121879679
0.004284642199
0.03793237662
-0.1463492244
-0.0110416995
0.1451561984
0.006228980061
0.006005745494
-0.07579493264
0.004106385667
0.0753276248
-0.007760957511
0.07233418829
-0.009546317697
-0.07274856025
0.04054567413
-0.00196286066
0.004092647126
-0.007491624352
-0.03844449867
-0.03819732784
-0.009871102474
-0.1474187
0.005582182332
0.005358395747
-0.01170712967
-0.06650775979
0.01213466013
-0.01135427989
0.01171426192
0.06881718941
-0.02967182883
-0.007570738741
0.007206450171
-0.03013914743
0.00872132122
0.01191704798
-0.007509844874
0.02818885518
0.01131859084
-0.03975512969
0.0002476836674
0.01603328625
-0.03275832218
-0.01769788625
0.03442292218
0.04525194995
-0.007669843868
-0.03742812769
-0.0001539783825
-0.0169280591
-0.1321532503
0.2569669405
-0.02131756598
-0.2598626327
0.02421163285
0.01899731411
0.2653632838
0.03968968304
-0.007587189608
-0.03193045074
-0.0001720426853
0.0641713677
-0.01336579842
-0.06471955097
0.006990735435
0.006923246254
-0.03292575705
-0.006659810044
0.00674399929
0.0328415678
-0.06655424719
0.06803925571
0.01873892287
-0.008351659988
0.01544582405
-0.0765011787
0.02093930079
-0.1420321228
-0.01160402694
-0.01185060955
-0.006706377743
-0.03305660385
0.006837224547
-0.03494440633
-0.006845523668
0.007283287102
0.0345066429
-0.1364622223
-0.01712900281
0.0184077958
0.1351834293
-0.06916801291
0.06872827071
-0.01091453768
0.06607413027
-0.01130750458
-0.06647375536
0.0719382782
-0.009759321859
-0.01076829955
-0.06951282413
-0.01666442646
-0.1377394912
0.01794169539
0.01339761971
-0.05259541724
-0.012295029
0.05149282652
0.01992249471
-0.06456206173
-0.02163613828
0.02682617788
-0.1186849618
-0.0135961944
-0.01508207312
0.05960556475
0.06093148671
-0.05584027519
0.05496497929
0.01427291561
0.0281019702
8.688498233e-05
-0.07355292987
0.01908617324
0.07531027677
-0.01033832633
-0.01050519382
-0.03836615866
0.05235036259
0.01411776627
-0.03273185622
0.0340795957
0.01468554677
0.01289893536
-0.03994650317
0.01973068855
-0.07179673977
-0.01068019483
-0.01080668382
-0.03909475187
0.002338063506
-0.002352965359
0.03910965372
0.002030470916
-0.03936380943
-0.001761413359
-0.03862575772
-0.003235870613
0.003135192753
0.03872643558
-0.003463281604
-0.03890668959
0.003744213472
-0.00613655652
0.03586919992
-0.03494650772
0.005213864321
-0.009634225746
0.02211688481
0.03276929088
-0.0708539759
-0.01081240782
0.01116241853
0.07050396519
-0.03770890934
0.03584898615
-0.007774302559
0.03576343941
-0.006348193736
-0.0355518022
-0.03387566376
0.0378902064
-0.003800944233
-0.0002135984064
-0.006825422272
-0.03855333094
-0.01065042659
-0.07124031292
0.00555198291
0.005484780697
0.06235794747
-0.01314167292
-0.06282530644
0.0136090319
-0.01334575839
0.06366870843
0.006932130603
0.006916287065
0.01955105532
0.02934399167
-0.009205363951
-0.04110402069
0.00555812772
-0.005389426786
0.04093531975
0.005928615704
-0.04109710444
-0.005935531948
-0.03808443221
-0.001035084811
0.0009109669455
0.03820855007
-0.001376140885
-0.03823866154
0.001530370215
0.0389437183
-0.00112291997
-0.03919693922
0.07806478708
-0.0008067152919
-0.07827625457
0.001018182778
-0.0787410316
0.001017302093
-0.0009068504427
0.07863057995
0.0771329039
-0.002951630528
-0.07739020192
0.003208928546
-0.001370576886
0.001583583957
0.07785178001
0.03894829592
-0.001039662427
0.03978527177
0.002137504892
-0.03989230575
0.07876222743
0.004376144238
-0.0787032658
-0.004435105868
-0.07828015514
0.006514485775
-0.006706832111
0.07847250147
0.001664511493
-0.07881476398
-0.001590779107
0.003686699487
-0.003733364308
0.07880889225
0.03993432669
0.002189008584
-0.03725618205
-0.004655078441
0.004821157052
0.03709010344
-0.001890916826
-0.03193362154
-5.112539212e-05
-0.004677728024
-0.03746372305
0.004885269033
0.006130941442
0.03593191597
-0.006299417997
0.006933270585
0.03443998771
-0.006636608066
-0.03473665023
0.06763842948
-0.01154493045
-0.0680332422
0.01193974317
-0.03542617273
0.007415036983
0.005480061349
0.03652008001
0.01976166084
-0.0002106055249
-0.01307443586
0.01340040714
0.02957601431
-0.03394362463
0.004367610311
0.03421944792
-0.007021369376
-0.03432273158
0.007124653037
-0.03202237574
-0.006990912369
0.006708723154
0.03230456496
-0.0004640495171
-0.01576102858
0.0191085981
-0.002883519988
-0.007700063491
-0.03305691627
0.008734604023
-0.03047477364
-0.007737202859
0.006537896266
0.03167408024
0.01739113173
-0.04879177432
-0.0158957049
0.02300276319
0.0242935843
0.01530572442
-0.03134274748
-0.01672129912
0.02028570819
-0.05585043179
-0.02137758393
0.05694230753
-0.0523991624
0.01997069453
0.02414223242
0.02567736718
-0.04384815107
0.003611085364
-0.005457305581
0.04569437129
-0.03878475015
0.03812128273
0.000768744612
-0.0001052771873
0.03717842063
0.0005034623535
-0.03738252758
-0.0002993554007
0.04076703996
0.002385226699
-0.04132704599
-0.001825220665
-0.03942210549
-0.003700671817
0.003824752355
0.03929802496
-0.04124657147
0.003474469164
0.041631613
-0.003859510696
0.03667500719
0.006802125242
-0.005903488687
-0.03757364374
-0.0361618991
0.0363044903
-5.275605895e-05
-8.983514621e-05
0.04184211327
-0.003479594512
-0.03817413325
-0.0001883855042
0.04153686447
-0.002984570761
-0.04183966032
0.00328736661
-0.04159698755
0.005446481831
-0.006367120867
0.04251762659
-0.03760307902
-0.0261169214
0.05300556186
0.01071443856
0.001682349834
-0.04031884739
-0.0001482525986
0.04047003639
0.005830257305
-0.04037167799
0.07689878085
0.01020828583
-0.07641242696
-0.01069463972
-0.07449893735
0.01224560095
-0.01295417657
0.07520751298
0.007256220142
-0.0780298497
-0.007506525575
0.009465963134
-0.009900346925
0.07733316464
0.04048086536
0.005547298745
-0.03912171729
-0.001190105892
0.0008018827901
0.03950994039
-0.03563179034
0.03573888212
0.0001104746522
-0.0002175664315
7.668784465e-05
-0.0360012054
-0.0002373815399
0.04330344512
-0.002722975349
-0.04523609359
0.004655623817
0.003624788088
0.03734656267
-0.004296343568
0.002564701624
0.040536531
-0.003492729897
-0.03960850273
0.03802616104
-0.004247882754
-0.03797444318
0.004196164894
0.07401370309
0.004570168762
-0.008669670117
-0.07459192976
-0.007495726814
0.07301208474
-0.07337882075
0.007862462825
-0.0744627362
-0.006627102201
0.006983091016
0.07410674738
0.03872501512
-0.003226963227
-0.03896133349
0.07586948955
-0.004806336082
-0.07623318031
0.005170026841
-0.00344876635
0.003718561151
0.0768631091
-0.006275597137
-0.074834998
0.00664785894
-0.005204674968
0.005532586814
0.07554157771
0.03869820718
-0.003209062677
-0.01159766968
0.01193332951
0.06730276964
0.03418988661
-0.006595422568
0.06584438414
0.006691468363
-0.01296677404
-0.0662754562
-0.03911653276
-0.009686736722
0.01976156434
0.02904170514
-0.0373697102
0.01642181021
-0.01683129916
0.03777919914
-0.02838684078
0.03653966788
0.0214231872
0.01651645509
-0.03668080436
-0.01720536094
-0.02888086684
-0.002302754043
0.03134425421
-0.0001606333323
-0.006130752359
-0.02254674632
-0.0002033681524
0.0331906664
-0.007336860724
-0.03337115811
0.00751735244
-0.007515315551
0.008094171133
0.03364059234
0.02020712873
-0.0199564562
-0.0002506725239
0.01861766388
-0.0232263686
0.002024549415
-0.01699792748
0.01674053971
0.001678790447
0.006742555772
-0.03163605012
0.03285481325
-0.007961318895
0.009381184464
0.03310103458
-0.008162154789
-0.03432006425
0.0336704057
-0.006779842277
-0.03397743228
0.007086868853
-0.04173735122
0.02064376205
-0.02141229468
0.02830893319
-0.0001540827429
0.02854610829
-0.02840448189
-0.0001416263921
0.04218761613
0.01124207498
-0.04115436484
-0.01227532627
-0.03887841778
0.01171563008
-0.01246394333
0.03962673104
0.04399660223
0.01056573567
-0.04209173609
-0.01247060181
0.01056427003
-0.0108947469
0.04251809301
0.01182473082
-0.03823698364
-0.01246616496
-0.03585179715
0.01235735853
-0.01311996572
0.03661440434
-0.03786393665
0.03897683611
0.01530891075
-0.03596431633
0.03516385485
0.001068792337
-0.0002683308529
0.02507972051
-0.02505072236
-2.8998152e-05
0.004108372287
-0.04152543876
-0.006431084595
0.002218070936
-0.001693863325
0.04024283235
0.03691787739
0.0004393921468
-0.0001788489135
0.0005579734661
-0.03639113713
-0.000131152668
0.0004572031351
-0.03655508952
0.03792003634
-0.001822149957
0.001085779177
-0.002194685463
-0.04013766518
-0.003460415837
-0.03926505227
0.003303362611
0.03682547899
-0.03542209319
-0.000317606613
-0.03337922376
0.03435208297
-0.0005156560799
0.03474229222
-0.03434845752
0.006408290537
0.04065988597
-0.0003599378194
-0.002146610407
-0.03113665869
-9.59546636e-05
-0.003524339245
0.004352721801
0.04070848191
0.04950342498
-0.007475766797
-0.0001855449124
-0.003530206631
-0.0351714933
-0.03728322846
-0.006978886405
0.007599236162
0.0366628787
-0.005438642049
-0.03590062398
0.004056037576
0.03705589081
-0.006034416447
-0.03646011642
0.03538795193
-0.005983529277
-0.03547568915
0.006071266506
-0.03631094167
-0.005845773144
0.006255991705
0.03590072311
0.03354282024
-0.006855547887
-0.03281802471
0.03635167247
-0.00583071749
-0.03667830193
0.006157346952
-0.03736611152
-0.005326546573
0.005172847799
0.0375198103
-0.005794127537
-0.03653141327
0.006014599137
-0.005638034146
0.005619251073
0.03637045555
0.03556492656
-0.004324860365
0.007601416138
0.03272520818
-0.007716813919
-0.0326098104
0.03213479459
-0.007166700996
-0.03238034194
0.007412248341
-0.007384379841
0.007739907955
0.03283513829
-0.002017196492
-0.04354030094
0.04181287048
0.003744626946
-0.007717225685
0.008145435986
-0.03803128932
0.00552602087
-0.04096628192
-0.006156726499
0.02615677173
-0.03371082465
-0.0001631727678
-0.03970963289
0.03777386887
-8.143247476e-05
3.985033416e-05
0.03862758882
0.00558031723
-0.04109167567
-0.003116230376
0.009102525166
-0.009920975306
0.04481505237
0.004662444568
-0.04425473117
-0.0001173462875
0.008416071191
-0.007550246285
0.03776176391
-0.04012925348
0.00686874136
-0.007164785624
0.04042529775
-0.04027886951
0.04066685495
0.008028085757
0.005446169253
-0.04432402562
-0.03496671524
0.03528009458
-3.48011608e-05
-0.0002785781786
0.0001796576808
-0.03543684817
-0.0003745998475
-0.001074789963
-0.03876982829
0.0007229009593
-0.003204635169
0.005625278831
0.04088280146
0.02459688031
-0.02433657286
-0.0002603074533
-0.0005925649958
-0.03434001518
-3.413506278e-05
0.03837615098
-0.005825773653
-0.03907090386
0.006520526538
-0.03698642766
-0.005099168313
0.004314511953
0.03777108402
-0.005157336781
-0.03694765714
0.004738882394
-0.006205794087
0.007315738416
0.03726620665
0.0229276418
-0.02255324915
-0.0003743926544
0.0406518704
-0.039305695
0.001218526219
0.001971156411
0.0363959239
-0.006482376837
-0.03765095481
0.007146903992
-0.004224208853
0.003622673832
0.04125340542
-0.02113506498
-0.0002772296949
-0.03519588577
-0.006518589271
0.00626502848
0.03544944656
-0.02771981455
0.03089183868
-0.003076835046
-9.518908994e-05
-0.009676784771
-0.04309433033
-0.006092373661
-0.02149005781
-0.0001373830706
-0.006904904386
-0.03547894406
0.007187962676
-0.03132118285
-0.0001939337631
0.0212413937
-0.1304584662
0.02297501178
-0.2551204455
-0.02702087249
-0.2439225084
-0.02550855257
0.2470380727
-0.02595800575
0.02895734546
-0.002799328244
-0.0002000114673
-0.02022732783
-0.005567470183
-0.0001632077394
0.02503683542
0.2541777852
-0.01993302294
-0.0002943048822
0.06572930128
-0.01146060807
-0.02196578147
-0.127868269
0.01166443619
-0.01828680258
-0.1276984304
0.01946434056
0.01216264528
-0.0209730798
-0.01146562086
0.02027605537
-0.0216402774
-0.005729202319
0.02020703863
0.00716244109
-0.002702215638
0.003110049902
-0.01616886284
0.01981447719
-0.0265192041
-0.02723889772
0.01465900159
-0.02552148191
-0.01510682767
0.02596930799
-0.02305156852
0.0217583583
0.0134558555
-0.1243444343
0.02201507705
-0.02353015726
0.1258595145
-0.1211636194
0.1217769678
0.02621282951
0.01840992312
-0.0650416756
0.008828066241
-0.03831007252
-0.0091080103
0.03859001658
-0.04091448139
0.04140154394
0.01007720747
0.04318981407
0.009532603777
-0.04215668218
0.03101909361
-0.007078263967
-0.03123053979
0.007289710154
-0.007118982198
0.007504691896
0.0317490849
0.03167051972
-0.008632048264
0.006645370682
0.06540187939
-0.01286267598
0.06426088596
-0.01292245301
-0.06470423137
0.06460065431
-0.01178304827
-0.06500210271
0.01218449667
0.04365435106
0.008637988174
0.00677144283
-0.04146999511
0.007044460552
-0.0400092527
-0.007164461339
-0.02715562262
0.005753976074
0.008214500235
-0.02996362078
-0.00839002688
0.03688205005
-0.02842252704
-0.0002450227715
0.01844774865
-0.007014600507
0.007133560371
-0.05244318868
0.01298493703
-0.0002968780461
-0.03338360527
-0.003823867666
-0.0002206547624
-0.03314182266
0.03318564485
-0.007631011795
0.004982345231
-0.03140372584
-0.006720442044
-0.02671979258
-0.0002283129295
-0.03295431635
0.03294430982
-0.006980905846
0.03368693642
-0.006948393
-0.0337599128
0.03258533282
-0.006653342041
-0.0326747611
0.006742770321
0.01286853739
-0.07370833969
-0.01365913505
-0.0709280171
0.01438110679
-0.01538806095
0.07193497127
-0.07267415614
0.07408887511
0.01767145427
-0.006696121006
0.006996065105
0.0333704616
0.0330650544
-0.007701222678
-0.007271089186
-0.03338329065
-0.06119679796
0.01781946736
-0.01845144308
0.06182877368
-0.05797402911
0.0582679956
0.0199917417
0.01423808762
-0.03166421942
0.01251760772
0.04014103062
-0.0003082757456
-0.04074721369
0.04056884585
0.01269597556
-0.03984643786
0.01321699044
-0.02743050265
0.02729553342
0.0001349692345
0.008818976393
-0.03619285253
-5.662652016e-05
0.007164332664
-0.0350245175
-0.007086322881
0.03310860626
-0.03209769577
0.006153422172
0.003029833289
0.0352926373
0.02224682299
-0.0001299381815
-0.006420438135
0.02870877935
-4.151821612e-05
0.03371430033
-0.007365447582
-0.006050691511
0.03474337166
-0.03485503224
0.006162352098
-0.005937811535
0.006124918218
0.03520084524
0.03666940346
-0.006592399053
-0.007495451182
0.04571570615
-0.0003300485699
-0.03862902825
0.03766740017
-0.0065338231
-0.03771309632
-0.004716876165
-0.007580339728
0.006114545147
0.03080978625
-0.03223038183
0.03244708081
-0.007797038713
-0.008250100931
-0.03270757791
0.03472771819
-0.001813434321
-0.0002067059595
-0.03008194096
-0.00234033578
-0.0002853011672
-0.03590946779
-0.003694545348
0.002392050137
-0.03396369562
-0.004337822308
-0.02941769128
-0.0001238801254
-0.02333024627
-0.006491617288
-0.0002600774038
-0.02314469149
-0.0001855547801
-0.004298768873
0.004427986985
0.03789694293
0.04075749597
-0.004445173821
0.03791297694
-0.005806100284
-0.0385892535
0.02616970325
-0.0002934972593
-0.03314541327
0.04071746934
-0.007354142221
-0.0002179138463
-0.003900473418
-0.0002875943954
0.03056069798
-0.02941944501
-0.00502927438
0.03279064412
0.03346667038
-0.006191379801
0.01366539792
0.001625398171
0.003817802008
-0.01451354302
0.01163002303
0.008737573976
0.004927823948
0.007536221722
-0.03323900755
-0.007354130444
0.04061786393
-0.03281308565
-0.0002685565504
0.02757365675
-0.02089654705
-0.0001392134347
-0.005103645261
-0.000135783638
-0.006668572575
-0.02890491434
0.01305146984
-0.01348505098
0.02933849547
-0.02749119662
0.02791601824
0.01423417997
0.01949233388
-0.02806469747
-0.04404550997
0.04047204371
0.003724064419
-0.0001505981591
-0.05156046678
0.007807922732
-0.0002929659218
-0.03932198745
0.03899666471
0.0003761380854
-5.081534346e-05
0.001293955644
-0.0001438993799
0.000538053325
0.03774251899
-0.0001592895854
-0.04291683941
0.04208063979
0.001374252944
-0.04393958992
0.001791495122
-0.04134217135
0.04073428115
0.001111352559
-0.0004455856958
0.001184054128
-8.559428471e-05
-0.0001398085702
0.03685715362
-0.000412854748
-0.04134986371
0.04217255152
-0.0009624963838
-0.04076481162
-0.0006378081483
-0.04301853649
0.04309597491
-0.003557032931
0.0009906872621
-0.001836672227
-0.0003262923645
0.0085804953
0.04443515174
-1.008518601e-05
-0.04363994708
0.04531978225
0.006900660124
-0.04089443536
0.007968926846
-0.04501887131
0.002761631232
-0.004318326933
0.004619237873
-0.0002020225788
3.661078978e-05
0.03576317646
-6.090512473e-05
-0.03928698373
0.03968677184
-0.0003631773173
-0.03887423166
-0.0003022774205
-0.04022443199
-0.0004636917864
-0.0001698317542
-0.0003678283969
-0.0004078607005
-0.03911789193
0.0402200412
-0.0007765088245
-0.000325640446
-3.233835182e-05
-8.888887642e-05
-0.04352440819
0.05085410921
-0.007048243582
-0.0002814574398
-0.00319048805
-0.0001138789371
-0.01874882839
-0.0001887079815
0.02013232192
-0.000370757583
-0.008018169161
-0.0002720359577
-0.0089400848
-0.0003010797374
0.03118794863
-0.04798088913
-3.835866008e-05
0.03124671285
-5.87642238e-05
0.01658272332
0.03490107976
0.001638588124
-0.03259491518
0.04758143482
0.01991456011
0.01965609586
-0.03082782384
-0.03055799446
0.02944103876
0.001116955696
0.0166164095
0.0004070308635
-0.001801162902
-0.0002381881526
-0.0221556865
-0.0003910598203
-0.006283673448
-0.0002289904057
-0.03003275692
-0.007654642368
-0.009271743783
-0.01708712834
-0.0337072172
-0.007790617584
-0.0002395164403
-0.0002527850067
-0.005238499477
-0.0001597845285
-0.03942078417
0.05405076233
0.01391613013
-0.01168495716
0.01283301884
5.159156695e-05
-0.01039663787
-0.0419653905
0.01027029227
0.03946370597
-0.04104136744
0.05428863758
-0.04330368483
0.007287224227
-0.00017639192
0.01105490198
-0.0003078244792
0.002678547775
0.03261784387
-0.0001325368
-0.03741753923
0.03629192261
0.003804164391
-0.03832939382
0.001980646926
-0.03641302768
0.009932281413
-0.007741021235
0.007619916165
-0.0001738997199
0.0003985880957
0.0366372341
-0.0001179448053
-0.04014647884
0.03957118638
0.0009738805531
0.001027194453
-0.03901241795
0.001240997599
-0.0004573507448
0.001016119175
-0.0002112537707
-0.001290892464
0.0001646643897
0.03904626442
-0.03834633874
-0.002291105547
0.03934655183
-0.03743891165
-0.002729577051
-0.03486063702
-0.0003370607045
-0.0002243954691
-0.0003438896589
0.02342638212
-0.04838606051
-0.009388779118
0.02364621098
-0.0002198288623
0.03045675645
-0.0004022549345
-0.007495259199
-0.0002309153465
-0.02422030757
-0.006837442796
-7.890831819e-05
-0.02389669594
-0.0003236116309
-0.009438930338
0.03504565937
-0.04127074145
0.0384017952
-0.006569984089
-0.005650533342
-0.03707144074
-0.003897677544
0.00696327672
-0.005632922255
0.04428167087
-0.0364356937
-0.0002467410056
-0.009381672147
0.02156564725
-0.007743310944
0.02187065699
-0.0003050097408
-0.02819104659
0.03140053146
-0.0001796515745
-0.0001669674334
0.003057932781
-0.005244256435
0.03203516728
-0.0002684551567
-0.0003444888412
-0.0357582564
-0.00655010606
0.03545281457
0.009258005061
-0.007348861292
0.003449154888
0.03984482028
-0.001481104687
-0.04179215908
0.0405484721
0.004692841867
0.004856566414
-0.04290409855
-0.03984782237
0.007098822992
-0.004827920411
0.005528570143
-0.003014389447
-0.03624937192
-0.0004758421805
4.339226714e-05
-0.002714093352
-0.04345807321
0.005080490888
0.03699750658
-0.0394714495
-0.0002401504231
0.03396040377
-7.912756823e-05
0.0445105664
-0.0001429041265
0.005233601555
-0.0001944846565
0.00659058071
-0.05321441075
0.00917784421
-0.0002181646254
0.02640391958
6.237904261e-06
0.02657998935
-0.0001760697722
0.01112734251
7.95311182e-05
0.03542758489
-0.0002270214284
-0.03772323078
0.03811967365
-0.0003169117545
-0.03719981055
-0.0005582213872
-0.03844440629
-0.0002501676856
-4.653305478e-05
-0.0002781995822
-5.579633938e-05
-0.007190620387
0.03195573235
-0.0001682316502
-0.03576627747
0.03550848024
-0.006932823154
-0.009248741115
-0.03646933565
-0.001323039901
0.002179649636
-0.003140505045
-0.0002046331972
-0.03871753803
0.04646610477
-0.007674292667
-7.427407324e-05
-0.003854933172
-0.0001348866734
-0.006311056572
-0.0001789929048
-0.03330065368
-0.006974098519
-0.00938779805
0.0005599590856
-0.03792195339
-0.001943700697
0.03446826609
-0.03372427656
-0.0001840304508
0.03599807326
-0.0003112809478
0.03278364716
-0.0003557342974
-0.0006787708756
-0.0002618585197
-0.002204800364
0.009700821748
-0.03998198539
-0.007369791172
0.03429751316
-0.0477413829
0.03495279987
0.03989854058
-0.0002777934873
-0.007653609245
-0.0001892330789
-0.006382189209
-0.004131970446
0.03521968609
-0.0001958769573
-0.03495704191
0.03642867645
-0.005603604988
-0.03274110193
-0.005292775029
-0.03602773761
-0.008190203217
0.03454115606
0.007626806149
-0.007225867303
-0.0002478381003
-0.03575330294
0.04354918369
-0.007584982288
-0.0002108984663
-0.004066969623
-0.0002858018557
-0.0316658451
-0.007167630486