/*--------------------------------*- C++ -*----------------------------------*\
| =========                 |                                                 |
| \\      /  F ield         | OpenFOAM: The Open Source CFD Toolbox           |
|  \\    /   O peration     | Version:  v2012                                 |
|   \\  /    A nd           | Website:  www.openfoam.com                      |
|    \\/     M anipulation  |                                                 |
\*---------------------------------------------------------------------------*/
FoamFile
{
    version     2.0;
    format      ascii;
    class       pointVectorField;
    location    "1.02";
    object      pointDisplacement;
}
// * * * * * * * * * * * * * * * * * * * * * * * * * * * * * * * * * * * * * //

dimensions      [0 1 0 0 0 0 0];


internalField   nonuniform List<vector> 
6962
(
(0 0 0)
(0 0 0)
(0 0 0)
(0 0 0)
(0 0 0)
(0 0 0)
(0 0 0)
(0 0 0)
(0 0 0)
(0 0 0)
(-0.0007509731404 -0.001193662917 5.606626274e-15)
(0 0 0)
(0 0 0)
(0 0 0)
(0 0 0)
(0 0 0)
(0 0 0)
(0 0 0)
(0 0 0)
(0 0 0)
(0 0 0)
(0 0 0)
(0 0 0)
(0 0 0)
(0 0 0)
(-0.001335215042 -0.002346945855 9.964251646e-15)
(-0.001217286189 -0.002088291257 9.089951014e-15)
(-0.001041779505 -0.001743479719 7.771561172e-15)
(-0.005182948402 -0.009503962883 4.242439733e-14)
(-0.00556884351 -0.01046533847 4.557465516e-14)
(-0.008447105354 -0.01666099092 7.260858581e-14)
(-0.007974880241 -0.01535038017 6.858402735e-14)
(-0.01696774173 -0.03834879968 1.717931353e-13)
(-0.0172842708 -0.04001769097 1.748601264e-13)
(-0.01965055167 -0.04830631052 2.112199304e-13)
(-0.01938848466 -0.04653264212 2.085970285e-13)
(-0.02306171699 -0.06814672613 3.058248099e-13)
(-0.0231468622 -0.07002593704 3.064770659e-13)
(-0.02303024472 -0.07555540958 3.306799279e-13)
(-0.02289104139 -0.07337671919 3.292643935e-13)
(-0.01856340669 -0.08018317552 0)
(-0.01860907382 -0.08221398135 0)
(-0.01645265762 -0.08226384061 0)
(-0.01643002113 -0.08124878709 0)
(-0.01640766548 -0.08023363253 0)
(-0.009962714378 -0.08038263681 0)
(-0.009973125077 -0.08088971293 0)
(-0.009439178843 -0.08090170196 0)
(-0.009428818664 -0.08039476627 0)
(0 0 0)
(0 0 0)
(0 0 0)
(0 0 0)
(0 0 0)
(0 0 0)
(0 0 0)
(0 0 0)
(0 0 0)
(0 0 0)
(0 0 0)
(0 0 0)
(0 0 0)
(0 0 0)
(-0.001266245473 -0.002450709452 9.492406861e-15)
(-0.001430976982 -0.002708654156 1.072752998e-14)
(-0.001529088648 -0.002829475513 1.146305273e-14)
(-0.006168273325 -0.01250307261 5.070943665e-14)
(-0.005970091104 -0.01237873165 4.907185769e-14)
(-0.008906692678 -0.01938089614 7.688294446e-14)
(-0.009143977054 -0.01945215124 7.893685705e-14)
(-0.01806855035 -0.04510508102 1.834921104e-13)
(-0.01777900404 -0.04538502729 1.804667527e-13)
(-0.02011572389 -0.05450688554 2.168681901e-13)
(-0.02039756451 -0.0540576587 2.200462035e-13)
(-0.0236158175 -0.07701546304 3.137490268e-13)
(-0.02343198008 -0.07807995489 3.10917958e-13)
(-0.02313836632 -0.08361260346 3.329142517e-13)
(-0.02326807769 -0.08231289295 3.353012312e-13)
(-0.01850795781 -0.08833194 0)
(-0.01855589735 -0.09036302264 0)
(-0.01639346666 -0.09041406238 0)
(-0.01636950245 -0.08939875697 0)
(-0.01634552711 -0.08838297975 0)
(-0.009858329384 -0.08853609677 0)
(-0.009882304725 -0.08955187398 0)
(-0.008801136557 -0.08957739275 0)
(-0.008789143318 -0.08906926824 0)
(-0.008777161216 -0.08856161553 0)
(-0.0093177453 -0.08854885615 0)
(0 0 0)
(0 0 0)
(0 0 0)
(0 0 0)
(0 0 0)
(0 0 0)
(0 0 0)
(0 0 0)
(0 0 0)
(0 0 0)
(0 0 0)
(0 0 0)
(0 0 0)
(0 0 0)
(-0.0002957506943 -0.0006229202894 2.220446049e-15)
(-0.0005366448599 -0.00110736292 4.024558464e-15)
(-0.0007972881958 -0.001611114844 5.981326545e-15)
(-0.004574651109 -0.01013000801 3.760880496e-14)
(-0.003908455131 -0.008840359764 3.214095656e-14)
(-0.006366871215 -0.0151163673 5.499767308e-14)
(-0.007202299752 -0.01673898355 6.220024495e-14)
(-0.01558067241 -0.0424712418 1.581096365e-13)
(-0.01444461983 -0.04023056254 1.466465838e-13)
(-0.01676767509 -0.04955636388 1.807443084e-13)
(-0.01792213715 -0.0518421332 1.931094173e-13)
(-0.02177282321 -0.0773180581 2.882832861e-13)
(-0.02081580363 -0.07549648868 2.756128659e-13)
(-0.02099234468 -0.08246821182 3.010647287e-13)
(-0.02180995489 -0.0839131654 3.128747261e-13)
(-0.01848645107 -0.09542008706 3.554795347e-13)
(-0.01820982936 -0.09582830711 3.495953527e-13)
(-0.01643547329 -0.09770844525 3.56312202e-13)
(-0.01652684002 -0.09645107687 3.591432707e-13)
(-0.01005010984 -0.0966613709 0)
(-0.01009806052 -0.09869292533 0)
(-0.007935677009 -0.09874396396 0)
(-0.007887726326 -0.09671240953 0)
(-0.008968941674 -0.09668688966 0)
(0 0 0)
(0 0 0)
(0 0 0)
(0 0 0)
(0 0 0)
(0 0 0)
(0 0 0)
(0 0 0)
(0 0 0)
(0 0 0)
(0 0 0)
(0 0 0)
(0 0 0)
(0 0 0)
(0 0 0)
(0 0 0)
(-7.264388388e-06 -1.591986283e-05 5.551115123e-17)
(-0.001738762346 -0.004182198465 1.432187702e-14)
(-0.001091459077 -0.002677535834 8.992806499e-15)
(-0.002538866867 -0.006543657035 2.198241589e-14)
(-0.003487465689 -0.008810476594 3.017031069e-14)
(-0.01015761094 -0.03014726075 1.033895192e-13)
(-0.008557490564 -0.0259328731 8.722189637e-14)
(-0.01058888526 -0.03406865934 1.146305273e-13)
(-0.01230176366 -0.03875477556 1.329769628e-13)
(-0.01672094797 -0.06463997228 2.220168493e-13)
(-0.01500418922 -0.059264596 1.99604222e-13)
(-0.01566835898 -0.06701057514 2.257222187e-13)
(-0.01728661698 -0.07235427533 2.485373019e-13)
(-0.01612100563 -0.09012578012 3.094885459e-13)
(-0.01498404567 -0.08558011287 2.882138972e-13)
(-0.01396321919 -0.08992445307 3.027855744e-13)
(-0.01491532235 -0.09403995436 3.228528556e-13)
(-0.009772411411 -0.100498299 3.446132268e-13)
(-0.009300185383 -0.09763008778 3.283762151e-13)
(-0.007410437937 -0.09867213845 3.317485175e-13)
(-0.007765228627 -0.1012989744 3.472083732e-13)
(0 0 0)
(0 0 0)
(0 0 0)
(0 0 0)
(0 0 0)
(0 0 0)
(0 0 0)
(0 0 0)
(0 0 0)
(0 0 0)
(0 0 0)
(0 0 0)
(0 0 0)
(0 0 0)
(0 0 0)
(0 0 0)
(0 0 0)
(-6.377572146e-06 -1.65525703e-05 4.163336342e-17)
(0 0 0)
(-6.567467261e-05 -0.0001825631119 5.689893001e-16)
(-0.0003881379202 -0.001059557406 3.358424649e-15)
(-0.003919927162 -0.01262446256 4.013456234e-14)
(-0.002612853487 -0.008580744691 2.678413047e-14)
(-0.003892462684 -0.01359321337 4.243827512e-14)
(-0.005431520176 -0.0185922836 5.911937606e-14)
(-0.009323056154 -0.03929446284 1.250388681e-13)
(-0.007430996424 -0.03200025809 9.998946116e-14)
(-0.008235851115 -0.03845414442 1.201677646e-13)
(-0.01013411169 -0.0462877202 1.473265954e-13)
(-0.01057490457 -0.06465330989 2.057937154e-13)
(-0.008924832434 -0.05587430234 1.746380818e-13)
(-0.008561136583 -0.06053174436 1.891820034e-13)
(-0.01006391355 -0.06943916205 2.210037708e-13)
(-0.006970930446 -0.07879830128 2.5061897e-13)
(-0.006003053945 -0.06980496632 2.18047802e-13)
(-0.004794024943 -0.0711962791 2.223360385e-13)
(-0.005569403149 -0.08018379669 2.549488398e-13)
(0 0 0)
(0 0 0)
(0 0 0)
(0 0 0)
(0 0 0)
(0 0 0)
(0 0 0)
(0 0 0)
(0 0 0)
(0 0 0)
(0 0 0)
(0 0 0)
(0 0 0)
(0 0 0)
(0 0 0)
(0 0 0)
(0 0 0)
(0 0 0)
(0 0 0)
(0 0 0)
(0 0 0)
(-0.0001685177681 -0.00058474045 1.734723476e-15)
(0 0 0)
(-0.0001224988174 -0.0004607219207 1.346145417e-15)
(-0.0006073476471 -0.002244748819 6.64746036e-15)
(-0.002591567069 -0.01187658459 3.520794767e-14)
(-0.001444880474 -0.006751505155 1.967870311e-14)
(-0.001947060605 -0.009892115432 2.883804306e-14)
(-0.003209637103 -0.01598061887 4.739264536e-14)
(-0.004209114729 -0.02830434958 8.393286066e-14)
(-0.002896915775 -0.0199339712 5.812017534e-14)
(-0.002941572512 -0.02296115257 6.694644838e-14)
(-0.004184083584 -0.03187715078 9.453549055e-14)
(-0.003088439359 -0.03933310798 1.166150509e-13)
(-0.002239180653 -0.02940127045 8.572309529e-14)
(-0.001785637235 -0.03041125215 8.865130852e-14)
(-0.00246144637 -0.04048795224 1.200289867e-13)
(0 0 0)
(0 0 0)
(0 0 0)
(0 0 0)
(0 0 0)
(0 0 0)
(0 0 0)
(0 0 0)
(0 0 0)
(0 0 0)
(0 0 0)
(0 0 0)
(0 0 0)
(0 0 0)
(0 0 0)
(0 0 0)
(0 0 0)
(0 0 0)
(0 0 0)
(0 0 0)
(0 0 0)
(0 0 0)
(0 0 0)
(0 0 0)
(0 0 0)
(0 0 0)
(0 0 0)
(0 0 0)
(-1.894402064e-05 -0.0001016045634 2.775557562e-16)
(-0.0003394462523 -0.002485549233 6.89726054e-15)
(-3.821546095e-05 -0.0002847408605 7.771561172e-16)
(-8.345298166e-05 -0.0007084292772 1.942890293e-15)
(-0.0004297617666 -0.003582175749 9.950373858e-15)
(-0.000440856665 -0.006287590574 1.745825706e-14)
(-0.0001426583574 -0.002080321637 5.689893001e-15)
(-0.0001222208684 -0.002343855892 6.411537967e-15)
(-0.0003607707287 -0.006750010993 1.874889133e-14)
(0 0 0)
(0 0 0)
(0 0 0)
(0 0 0)
(0 0 0)
(0 0 0)
(0 0 0)
(0 0 0)
(0 0 0)
(0 0 0)
(0 0 0)
(0 0 0)
(0 0 0)
(0 0 0)
(0 0 0)
(0 0 0)
(0 0 0)
(0 0 0)
(0 0 0)
(0 0 0)
(0 0 0)
(0 0 0)
(0 0 0)
(0 0 0)
(0 0 0)
(0 0 0)
(0 0 0)
(0 0 0)
(0 0 0)
(0 0 0)
(0 0 0)
(0 0 0)
(0 0 0)
(0 0 0)
(0 0 0)
(0 0 0)
(0 0 0)
(0 0 0)
(0 0 0)
(0 0 0)
(0 0 0)
(0 0 0)
(0 0 0)
(0 0 0)
(0 0 0)
(0 0 0)
(0 0 0)
(0 0 0)
(0 0 0)
(0 0 0)
(0 0 0)
(0 0 0)
(0 0 0)
(0 0 0)
(0 0 0)
(0 0 0)
(0 0 0)
(0 0 0)
(0 0 0)
(0 0 0)
(0 0 0)
(0 0 0)
(0 0 0)
(0 0 0)
(0 0 0)
(0 0 0)
(0 0 0)
(0 0 0)
(0 0 0)
(0 0 0)
(0 0 0)
(0 0 0)
(0 0 0)
(0 0 0)
(0 0 0)
(0 0 0)
(0 0 0)
(0 0 0)
(0 0 0)
(0 0 0)
(0 0 0)
(0 0 0)
(0 0 0)
(0 0 0)
(0 0 0)
(0 0 0)
(0 0 0)
(0 0 0)
(0 0 0)
(0 0 0)
(0 0 0)
(0 0 0)
(0 0 0)
(0 0 0)
(0 0 0)
(0 0 0)
(0 0 0)
(0 0 0)
(0 0 0)
(0 0 0)
(0 0 0)
(0 0 0)
(0 0 0)
(0 0 0)
(0 0 0)
(0 0 0)
(0 0 0)
(0 0 0)
(0 0 0)
(0 0 0)
(0 0 0)
(0 0 0)
(0 0 0)
(0 0 0)
(0 0 0)
(0 0 0)
(0 0 0)
(0 0 0)
(0 0 0)
(0 0 0)
(0 0 0)
(0 0 0)
(0 0 0)
(0 0 0)
(0 0 0)
(0 0 0)
(0 0 0)
(0 0 0)
(0 0 0)
(0 0 0)
(0 0 0)
(0 0 0)
(0 0 0)
(0 0 0)
(0 0 0)
(0 0 0)
(0 0 0)
(0 0 0)
(0 0 0)
(0 0 0)
(0 0 0)
(0 0 0)
(0 0 0)
(0 0 0)
(0 0 0)
(0 0 0)
(0 0 0)
(0 0 0)
(0 0 0)
(0 0 0)
(0 0 0)
(0 0 0)
(0 0 0)
(0 0 0)
(0 0 0)
(0 0 0)
(0 0 0)
(0 0 0)
(0 0 0)
(0 0 0)
(0 0 0)
(0 0 0)
(0 0 0)
(0 0 0)
(0 0 0)
(0 0 0)
(0 0 0)
(0 0 0)
(0 0 0)
(0 0 0)
(0 0 0)
(0 0 0)
(0 0 0)
(0 0 0)
(0 0 0)
(0 0 0)
(0 0 0)
(0 0 0)
(0 0 0)
(0 0 0)
(0 0 0)
(0 0 0)
(0 0 0)
(0 0 0)
(0 0 0)
(0 0 0)
(0 0 0)
(0 0 0)
(0 0 0)
(0 0 0)
(0 0 0)
(0 0 0)
(0 0 0)
(0 0 0)
(0 0 0)
(0 0 0)
(0 0 0)
(0 0 0)
(0 0 0)
(0 0 0)
(0 0 0)
(0 0 0)
(0 0 0)
(0 0 0)
(0 0 0)
(0 0 0)
(0 0 0)
(0 0 0)
(0 0 0)
(0 0 0)
(0 0 0)
(0 0 0)
(0 0 0)
(0 0 0)
(0 0 0)
(0 0 0)
(0 0 0)
(0 0 0)
(0 0 0)
(0 0 0)
(0 0 0)
(0 0 0)
(0 0 0)
(0 0 0)
(0 0 0)
(0 0 0)
(0 0 0)
(0 0 0)
(0 0 0)
(0 0 0)
(0 0 0)
(0 0 0)
(0 0 0)
(0 0 0)
(0 0 0)
(0 0 0)
(0 0 0)
(0 0 0)
(0 0 0)
(0 0 0)
(0 0 0)
(0 0 0)
(0 0 0)
(0 0 0)
(0 0 0)
(0 0 0)
(0 0 0)
(0 0 0)
(0 0 0)
(0 0 0)
(0 0 0)
(0 0 0)
(0 0 0)
(0 0 0)
(0 0 0)
(0 0 0)
(0 0 0)
(0 0 0)
(0 0 0)
(0 0 0)
(0 0 0)
(0 0 0)
(0 0 0)
(0 0 0)
(0 0 0)
(0 0 0)
(0 0 0)
(0 0 0)
(0 0 0)
(0 0 0)
(0 0 0)
(0 0 0)
(0 0 0)
(0 0 0)
(0 0 0)
(0 0 0)
(0 0 0)
(0 0 0)
(0 0 0)
(0 0 0)
(0 0 0)
(0 0 0)
(0 0 0)
(0 0 0)
(0 0 0)
(0 0 0)
(0 0 0)
(0 0 0)
(0 0 0)
(0 0 0)
(0 0 0)
(0 0 0)
(0 0 0)
(0 0 0)
(0 0 0)
(0 0 0)
(0 0 0)
(0 0 0)
(0 0 0)
(0 0 0)
(0 0 0)
(0 0 0)
(0 0 0)
(0 0 0)
(0 0 0)
(0 0 0)
(0 0 0)
(0 0 0)
(0 0 0)
(0 0 0)
(0 0 0)
(0 0 0)
(0 0 0)
(0 0 0)
(0 0 0)
(0 0 0)
(0 0 0)
(0 0 0)
(0 0 0)
(0 0 0)
(0 0 0)
(0 0 0)
(0 0 0)
(0 0 0)
(0 0 0)
(0 0 0)
(0 0 0)
(0 0 0)
(0 0 0)
(0 0 0)
(0 0 0)
(0 0 0)
(0 0 0)
(0 0 0)
(0 0 0)
(0 0 0)
(0 0 0)
(0 0 0)
(0 0 0)
(0 0 0)
(0 0 0)
(0 0 0)
(0 0 0)
(0 0 0)
(0 0 0)
(0 0 0)
(0 0 0)
(0 0 0)
(0 0 0)
(0 0 0)
(0 0 0)
(0 0 0)
(0 0 0)
(0 0 0)
(0 0 0)
(0 0 0)
(0 0 0)
(0 0 0)
(0 0 0)
(0 0 0)
(0 0 0)
(0 0 0)
(0 0 0)
(0 0 0)
(0 0 0)
(0 0 0)
(0 0 0)
(0 0 0)
(0 0 0)
(0 0 0)
(0 0 0)
(0 0 0)
(0 0 0)
(0 0 0)
(0 0 0)
(0 0 0)
(0 0 0)
(0 0 0)
(0 0 0)
(0 0 0)
(0 0 0)
(0 0 0)
(0 0 0)
(0 0 0)
(0 0 0)
(0 0 0)
(0 0 0)
(0 0 0)
(0 0 0)
(0 0 0)
(0 0 0)
(0 0 0)
(0 0 0)
(0 0 0)
(0 0 0)
(0 0 0)
(0 0 0)
(0 0 0)
(0 0 0)
(0 0 0)
(0 0 0)
(0 0 0)
(0 0 0)
(0 0 0)
(0 0 0)
(0 0 0)
(0 0 0)
(0 0 0)
(0 0 0)
(0 0 0)
(0 0 0)
(0 0 0)
(0 0 0)
(0 0 0)
(0 0 0)
(0 0 0)
(0 0 0)
(0 0 0)
(0 0 0)
(0 0 0)
(0 0 0)
(0 0 0)
(0 0 0)
(0 0 0)
(0 0 0)
(0 0 0)
(0 0 0)
(0 0 0)
(0 0 0)
(0 0 0)
(0 0 0)
(0 0 0)
(0 0 0)
(0 0 0)
(0 0 0)
(0 0 0)
(0 0 0)
(0 0 0)
(0 0 0)
(0 0 0)
(0 0 0)
(0 0 0)
(0 0 0)
(0 0 0)
(0 0 0)
(0 0 0)
(0 0 0)
(0 0 0)
(0 0 0)
(0 0 0)
(0 0 0)
(0 0 0)
(0 0 0)
(0 0 0)
(0 0 0)
(0 0 0)
(0 0 0)
(0 0 0)
(0 0 0)
(0 0 0)
(0 0 0)
(0 0 0)
(0 0 0)
(0 0 0)
(0 0 0)
(0 0 0)
(0 0 0)
(0 0 0)
(0 0 0)
(0 0 0)
(0 0 0)
(0 0 0)
(0 0 0)
(0 0 0)
(0 0 0)
(0 0 0)
(0 0 0)
(0 0 0)
(0 0 0)
(0 0 0)
(0 0 0)
(0 0 0)
(0 0 0)
(0 0 0)
(0 0 0)
(0 0 0)
(0 0 0)
(0 0 0)
(0 0 0)
(0 0 0)
(0 0 0)
(0 0 0)
(0 0 0)
(0 0 0)
(0 0 0)
(0 0 0)
(0 0 0)
(0 0 0)
(0 0 0)
(0 0 0)
(0 0 0)
(0 0 0)
(0 0 0)
(0 0 0)
(0 0 0)
(0 0 0)
(0 0 0)
(0 0 0)
(0 0 0)
(0 0 0)
(0 0 0)
(0 0 0)
(0 0 0)
(0 0 0)
(0 0 0)
(0 0 0)
(0 0 0)
(0 0 0)
(0 0 0)
(0 0 0)
(0 0 0)
(0 0 0)
(0 0 0)
(0 0 0)
(0 0 0)
(0 0 0)
(0 0 0)
(0 0 0)
(0 0 0)
(0 0 0)
(0 0 0)
(0 0 0)
(0 0 0)
(0 0 0)
(0 0 0)
(0 0 0)
(0 0 0)
(0 0 0)
(0 0 0)
(0 0 0)
(0 0 0)
(0 0 0)
(0 0 0)
(0 0 0)
(0 0 0)
(0 0 0)
(0 0 0)
(0 0 0)
(0 0 0)
(0 0 0)
(0 0 0)
(0 0 0)
(0 0 0)
(0 0 0)
(0 0 0)
(0 0 0)
(0 0 0)
(0 0 0)
(0 0 0)
(0 0 0)
(0 0 0)
(0 0 0)
(0 0 0)
(0 0 0)
(0 0 0)
(0 0 0)
(0 0 0)
(0 0 0)
(0 0 0)
(0 0 0)
(0 0 0)
(0 0 0)
(0 0 0)
(0 0 0)
(0 0 0)
(0 0 0)
(0 0 0)
(0 0 0)
(0 0 0)
(0 0 0)
(0 0 0)
(0 0 0)
(0 0 0)
(0 0 0)
(0 0 0)
(0 0 0)
(0 0 0)
(0 0 0)
(0 0 0)
(0 0 0)
(0 0 0)
(0 0 0)
(0 0 0)
(0 0 0)
(0 0 0)
(0 0 0)
(0 0 0)
(0 0 0)
(0 0 0)
(0 0 0)
(0 0 0)
(0 0 0)
(0 0 0)
(0 0 0)
(0 0 0)
(0 0 0)
(0 0 0)
(0 0 0)
(0 0 0)
(0 0 0)
(0 0 0)
(0 0 0)
(0 0 0)
(0 0 0)
(0 0 0)
(0 0 0)
(0 0 0)
(0 0 0)
(0 0 0)
(0 0 0)
(0 0 0)
(0 0 0)
(0 0 0)
(0 0 0)
(0 0 0)
(0 0 0)
(0 0 0)
(0 0 0)
(0 0 0)
(-0.009418491189 -0.07988721612 0)
(-0.009952339723 -0.07987508778 0)
(-0.009305752061 -0.08804073164 0)
(-0.009846336145 -0.08802797226 0)
(-0.01638567614 -0.07921799726 0)
(-0.01636349808 -0.07820236645 0)
(-0.01851848998 -0.07815216316 0)
(-0.009942049405 -0.0793671119 0)
(-0.01101153596 -0.07934267136 0)
(-0.01103277043 -0.08035832445 0)
(-0.009879732025 -0.07632087523 0)
(-0.01632155177 -0.08736720254 0)
(-0.01645797654 -0.0863771903 0)
(-0.01861713555 -0.08632353704 0)
(-0.009834354043 -0.08752031955 0)
(-0.01091556939 -0.08749479968 0)
(-0.01093954473 -0.0885105769 0)
(-0.01105399265 -0.08137345856 0)
(-0.009983747879 -0.08139777537 0)
(-0.01004931954 -0.08444388803 0)
(-0.009515093569 -0.08445602528 0)
(-0.009503822501 -0.08394849741 0)
(-0.01003804736 -0.08393631298 0)
(-0.005769259094 -0.08454127524 0)
(-0.00574714328 -0.08428948168 0)
(-0.006023659105 -0.08428238862 0)
(-0.006040005174 -0.08453493204 0)
(-0.00565977337 -0.08048282995 0)
(-0.00594724398 -0.08047486465 0)
(-0.005957922927 -0.0807273058 0)
(-0.005674606878 -0.0807348898 0)
(-0.008944966333 -0.09567111244 0)
(-0.0100261345 -0.09564559368 0)
(-0.005650534457 -0.08022959952 0)
(-0.00594050585 -0.08022138637 0)
(-0.009890114475 -0.07682875452 0)
(-0.009356267054 -0.07684093004 0)
(-0.005375976089 -0.08049042532 0)
(-0.005361490275 -0.08023769638 0)
(-0.00553441554 -0.08863532155 0)
(-0.005523317569 -0.08812292738 0)
(-0.005791170807 -0.08811802143 0)
(-0.006060801397 -0.08811401765 0)
(-0.00607392431 -0.08862400373 0)
(-0.006058420465 -0.08478714338 0)
(-0.005792356244 -0.08479304563 0)
(-0.01006077599 -0.08495126991 0)
(-0.009526500608 -0.08496331392 0)
(-0.005559768132 -0.08479744966 0)
(-0.005534792969 -0.08454591242 0)
(-0.004995138331 -0.08864805008 0)
(-0.004987394832 -0.08813557674 0)
(-0.005256846695 -0.0881278007 0)
(-0.005395914959 -0.08074198702 0)
(-0.005508540089 -0.08429464136 0)
(-0.002919033985 -0.0827065287 0)
(-0.002642963349 -0.08271408331 0)
(-0.002627804097 -0.08246302247 0)
(-0.002901693922 -0.08245547213 0)
(-0.005800168001 -0.08250361096 0)
(-0.006049973657 -0.0824992726 0)
(-0.006057371188 -0.08275268811 0)
(-0.005812039801 -0.08275659042 0)
(-0.00787594187 -0.08246113098 0)
(-0.007886595148 -0.08296848461 0)
(-0.007358208314 -0.08298001198 0)
(-0.007347792048 -0.08247269996 0)
(-0.007919854445 -0.08449160057 0)
(-0.007391373252 -0.08450313017 0)
(-0.007385292296 -0.08424949476 0)
(-0.007379778608 -0.08399589317 0)
(-0.007908490132 -0.08398412211 0)
(-0.007833066133 -0.08043058971 0)
(-0.007843612802 -0.08093742659 0)
(-0.007314047591 -0.08094902898 0)
(-0.007303079646 -0.08044234366 0)
(-0.007336763559 -0.0819654496 0)
(-0.007865242526 -0.08195382564 0)
(-0.005784019559 -0.08225144052 0)
(-0.006038674693 -0.08224656285 0)
(-0.005687175659 -0.07844439873 0)
(-0.005946775745 -0.0784390267 0)
(-0.005954749454 -0.07869285346 0)
(-0.00569807005 -0.07869796774 0)
(-0.00779129598 -0.0783988894 0)
(-0.007801872717 -0.07890700013 0)
(-0.007272356913 -0.07891869577 0)
(-0.007261686931 -0.07841063444 0)
(-0.007292706105 -0.07993484181 0)
(-0.007822692591 -0.07992308786 0)
(-0.007759529318 -0.07687701277 0)
(-0.007229074376 -0.07688891939 0)
(-0.007250836025 -0.07790290783 0)
(-0.007780682087 -0.0778912044 0)
(-0.005674483461 -0.07819106099 0)
(-0.005937531527 -0.07818537154 0)
(-0.005429718906 -0.07844957856 0)
(-0.005412390914 -0.07819663347 0)
(-0.00544523854 -0.07870270795 0)
(-0.007931495155 -0.08499878928 0)
(-0.007403528483 -0.08501011791 0)
(-0.007397262149 -0.0847566285 0)
(-0.00785454992 -0.08658280569 0)
(-0.007323813766 -0.08657479806 0)
(-0.007384741805 -0.08629017176 0)
(-0.007412871051 -0.08602793992 0)
(-0.007941483238 -0.08602396017 0)
(-0.005726538974 -0.08661032699 0)
(-0.005819276772 -0.08632320327 0)
(-0.006071129672 -0.08632160174 0)
(-0.005984773522 -0.08661490043 0)
(-0.005594651451 -0.08654617151 0)
(-0.005656522052 -0.08631547931 0)
(-0.003078514717 -0.0867545416 0)
(-0.003068441046 -0.08650194455 0)
(-0.003323489766 -0.08650154215 0)
(-0.003333725225 -0.08675399376 0)
(-0.002974168865 -0.08473966018 0)
(-0.003237264814 -0.08473599946 0)
(-0.003246658307 -0.08498917903 0)
(-0.002984494814 -0.08499234569 0)
(-0.005553271365 -0.08250759742 0)
(-0.005531619875 -0.08225607614 0)
(-0.003169225831 -0.08243235228 0)
(-0.003242603571 -0.08263978971 0)
(-0.00296443266 -0.08448696075 0)
(-0.003229437949 -0.08448259408 0)
(-0.003178367672 -0.08296206998 0)
(-0.002921788428 -0.08296302777 0)
(-0.005572683259 -0.08275983244 0)
(-0.00265039206 -0.08296881985 0)
(-0.002713789552 -0.08474221825 0)
(-0.002702365754 -0.08449021954 0)
(-0.01648936802 -0.09447717124 0)
(-0.01860167574 -0.09418650941 3.584355035e-13)
(-0.0100021703 -0.09463028826 0)
(-0.01108338564 -0.09460476839 0)
(-0.01216460099 -0.09457924851 0)
(-0.01221254054 -0.09661033115 0)
(-0.01096352007 -0.08952635411 0)
(-0.009954219613 -0.09259873383 0)
(-0.008873051445 -0.09262425259 0)
(-0.008849076104 -0.09160847538 0)
(-0.009930244272 -0.09158295662 0)
(-0.005629438427 -0.09270081144 0)
(-0.005605463086 -0.09168503422 0)
(-0.006686645408 -0.09165951513 0)
(-0.006710620749 -0.09267529234 0)
(-0.006086117403 -0.08913259557 0)
(-0.005545861876 -0.08914487514 0)
(-0.005753878443 -0.08352463428 0)
(-0.006025585024 -0.08351798517 0)
(-0.006012800404 -0.08377433175 0)
(-0.005729996386 -0.08378180926 0)
(-0.006838769611 -0.08349865 0)
(-0.006842518312 -0.0837534734 0)
(-0.006571565755 -0.08375986868 0)
(-0.006570784916 -0.08350478641 0)
(-0.006860301634 -0.08451490974 0)
(-0.006590338736 -0.08452123445 0)
(-0.006581621289 -0.0842678973 0)
(-0.006853279312 -0.08426139096 0)
(-0.00500560805 -0.08915762672 0)
(-0.004548237233 -0.09272633098 0)
(-0.004524261892 -0.09171055376 0)
(-0.005634629163 -0.07743293073 0)
(-0.005359089106 -0.07743976474 0)
(-0.005342255446 -0.07718756327 0)
(-0.005621964217 -0.07718034764 0)
(-0.005687911288 -0.0794625655 0)
(-0.005666977634 -0.07971905721 0)
(-0.005389257616 -0.07972613149 0)
(-0.005430133713 -0.0794677529 0)
(-0.005772857364 -0.08689912519 0)
(-0.005423240493 -0.08695930368 0)
(-0.007659516628 -0.08706371662 0)
(-0.007117988951 -0.08707649827 0)
(-0.007159254013 -0.08684279919 0)
(-0.007695898688 -0.08858713652 0)
(-0.00715516193 -0.08859942744 0)
(-0.007142896749 -0.08809178142 0)
(-0.007683763911 -0.08807901535 0)
(-0.006867885657 -0.08476822643 0)
(-0.006600088567 -0.08477431121 0)
(-0.006890428552 -0.0855293144 0)
(-0.006629133341 -0.08553486806 0)
(-0.006620499118 -0.08528105689 0)
(-0.006883586041 -0.08527541373 0)
(-0.00586237766 -0.0855492837 0)
(-0.005840860704 -0.08529686233 0)
(-0.006096820223 -0.08529204829 0)
(-0.006113224608 -0.08554506239 0)
(-0.002725844444 -0.08499415486 0)
(-0.003045232924 -0.08625447251 0)
(-0.005638213014 -0.08555296965 0)
(-0.005613641047 -0.0853007148 0)
(-0.004072369765 -0.08573777706 0)
(-0.004056004737 -0.08548783042 0)
(-0.004307348004 -0.08547363694 0)
(-0.004386064628 -0.08567466997 0)
(-0.003371483804 -0.08868873342 0)
(-0.003359971797 -0.08818059755 0)
(-0.003901934845 -0.08816686151 0)
(-0.003912599318 -0.08867548944 0)
(-0.003366865594 -0.08699887107 0)
(-0.003111045414 -0.08700018859 0)
(-0.005729706875 -0.08149294345 0)
(-0.005464910673 -0.08149876857 0)
(-0.005441909464 -0.08124586297 0)
(-0.005710934601 -0.08123960759 0)
(-0.005460243958 -0.08380465107 0)
(-0.005438036675 -0.08359218219 0)
(-0.002888971897 -0.08164907072 0)
(-0.002817005795 -0.081443441 0)
(-0.002830065741 -0.08196895931 0)
(-0.006822702219 -0.08248391349 0)
(-0.006828027188 -0.08273751953 0)
(-0.006567484623 -0.08274296102 0)
(-0.006562205721 -0.08248930668 0)
(-0.006570827288 -0.08325058161 0)
(-0.006834951049 -0.08324486678 0)
(-0.005790815628 -0.08326677351 0)
(-0.006043949088 -0.08326202617 0)
(-0.005998411191 -0.08148669564 0)
(-0.006012236287 -0.0817404315 0)
(-0.005748232702 -0.08174623791 0)
(-0.006797842714 -0.0814686764 0)
(-0.006804177386 -0.08172306112 0)
(-0.006540903972 -0.08172880309 0)
(-0.006533249384 -0.08147449674 0)
(-0.006555615811 -0.08223610814 0)
(-0.006816911022 -0.08223055447 0)
(-0.005647765054 -0.07768526669 0)
(-0.005376587149 -0.07769171449 0)
(-0.005454897501 -0.07921093476 0)
(-0.005702452689 -0.07920664952 0)
(-0.006122518232 -0.08579881079 0)
(-0.005876278184 -0.08580221528 0)
(-0.006894065077 -0.08578338515 0)
(-0.006633620213 -0.08578896595 0)
(-0.00679031483 -0.086585738 0)
(-0.006521729753 -0.0865944377 0)
(-0.0065924422 -0.08630835311 0)
(-0.006856349403 -0.08630146324 0)
(-0.004159751105 -0.08672831314 0)
(-0.004121176202 -0.08648738778 0)
(-0.004423894762 -0.08646844125 0)
(-0.004540018177 -0.08668010961 0)
(-0.004334717789 -0.08599102852 0)
(-0.004080103649 -0.08599104302 0)
(-0.005661187761 -0.08580455411 0)
(-0.004013837517 -0.08471450725 0)
(-0.004090467074 -0.08491851631 0)
(-0.003777265369 -0.08498151735 0)
(-0.003763171732 -0.084729204 0)
(-0.003805962715 -0.08574255447 0)
(-0.003793853434 -0.08549071355 0)
(-0.003020888092 -0.08575084086 0)
(-0.003007667805 -0.08549812926 0)
(-0.003267325914 -0.08549681556 0)
(-0.003278637391 -0.08574985546 0)
(-0.005487473111 -0.08175168452 0)
(-0.003015917622 -0.08200205414 0)
(-0.002940582039 -0.08372566762 0)
(-0.003207581062 -0.08372097065 0)
(-0.003214044232 -0.08397539954 0)
(-0.002947498134 -0.08398008582 0)
(-0.003744964208 -0.08447939526 0)
(-0.003936826009 -0.08450951589 0)
(-0.002935724617 -0.08347087039 0)
(-0.003205310665 -0.08346497942 0)
(-0.005561118922 -0.08326907945 0)
(-0.006773004368 -0.08045433574 0)
(-0.00677826768 -0.08070732956 0)
(-0.006510754782 -0.08071345483 0)
(-0.006504361385 -0.08046058209 0)
(-0.00652554539 -0.08122009713 0)
(-0.006791034019 -0.08121420847 0)
(-0.00598444233 -0.08123286876 0)
(-0.005954317693 -0.07945656076 0)
(-0.005945851327 -0.07971186129 0)
(-0.006753935707 -0.07943844271 0)
(-0.006757999075 -0.0796925978 0)
(-0.006491570194 -0.07969865028 0)
(-0.006488872808 -0.07944436853 0)
(-0.006498753339 -0.08020698273 0)
(-0.006767019998 -0.08020079246 0)
(-0.005131571241 -0.08049638282 0)
(-0.005108467528 -0.08024593434 0)
(-0.005086250503 -0.08000665274 0)
(-0.005362459008 -0.07998313928 0)
(-0.005652054078 -0.07997498222 0)
(-0.005816663683 -0.08504469305 0)
(-0.005586557746 -0.08504866084 0)
(-0.005692232306 -0.08098683655 0)
(-0.005418512269 -0.08099358039 0)
(-0.005180072243 -0.08099845298 0)
(-0.005154711057 -0.08074716088 0)
(-0.005730597093 -0.08403665975 0)
(-0.005483086567 -0.08404443718 0)
(-0.002744209155 -0.08123542339 0)
(-0.002622311386 -0.08088250964 0)
(-0.006733724713 -0.07842215179 0)
(-0.006739389961 -0.07867617466 0)
(-0.006476398511 -0.07868186277 0)
(-0.006470544544 -0.07842784436 0)
(-0.006485750804 -0.07919009681 0)
(-0.006749448835 -0.07918434482 0)
(-0.005960003802 -0.07920146747 0)
(-0.0059084258 -0.0774262323 0)
(-0.00591802407 -0.07767888777 0)
(-0.006710682533 -0.07740791035 0)
(-0.006716324396 -0.07766094244 0)
(-0.006451685 -0.07766681107 0)
(-0.006445478094 -0.07741383951 0)
(-0.006464361434 -0.07817388092 0)
(-0.006727965105 -0.07816813115 0)
(-0.005174084663 -0.07845457375 0)
(-0.005152343736 -0.07820206326 0)
(-0.00513031475 -0.07794974839 0)
(-0.005394483464 -0.07794393808 0)
(-0.005661154074 -0.0779379271 0)
(-0.005704583418 -0.07895192338 0)
(-0.005455920623 -0.07895628197 0)
(-0.005212881053 -0.07896008298 0)
(-0.00519494084 -0.07870719954 0)
(-0.005867320681 -0.08605870755 0)
(-0.006113761698 -0.08605581759 0)
(-0.006367569826 -0.08605105432 0)
(-0.006329862708 -0.08631549488 0)
(-0.006252190653 -0.08660471771 0)
(-0.004817879412 -0.08667241832 0)
(-0.004729736185 -0.08641340291 0)
(-0.004969272791 -0.08670018971 0)
(-0.005673740238 -0.08605997221 0)
(-0.003290008178 -0.08600180822 0)
(-0.003033218853 -0.08600286538 0)
(-0.003815061994 -0.08599526893 0)
(-0.003885055945 -0.08673654337 0)
(-0.003849342822 -0.08649446473 0)
(-0.005327298626 -0.08251127883 0)
(-0.005302688183 -0.08226039386 0)
(-0.005278981039 -0.08200877949 0)
(-0.005509709424 -0.08200418332 0)
(-0.005766418249 -0.08199911556 0)
(-0.002862476731 -0.08221333457 0)
(-0.003091972441 -0.08221391294 0)
(-0.003372325566 -0.08299119702 0)
(-0.003448023576 -0.08319673865 0)
(-0.003194199893 -0.08321264288 0)
(-0.002927828095 -0.08321751386 0)
(-0.005812799483 -0.08301077628 0)
(-0.005582101192 -0.08301324747 0)
(-0.005377469464 -0.08301269591 0)
(-0.005352720618 -0.08276294715 0)
(-0.002672937242 -0.08373080468 0)
(-0.00266554607 -0.08347705858 0)
(-0.005046579683 -0.07694189609 0)
(-0.005066550261 -0.07719440117 0)
(-0.004825355267 -0.07719995246 0)
(-0.004803446721 -0.07694754034 0)
(-0.005087025337 -0.07744628066 0)
(-0.004847192985 -0.07745156376 0)
(-0.005196605231 -0.07947071575 0)
(-0.005066537118 -0.07979464426 0)
(-0.005034094343 -0.07944632235 0)
(-0.006615836516 -0.08685751368 0)
(-0.0063397027 -0.08686639155 0)
(-0.006587549601 -0.08759506549 0)
(-0.006315278652 -0.08759960365 0)
(-0.006305313376 -0.08734539904 0)
(-0.00657905803 -0.08734129815 0)
(-0.005509911162 -0.08759973034 0)
(-0.005493124061 -0.08733530145 0)
(-0.005756840062 -0.0873437108 0)
(-0.005772942851 -0.08760154702 0)
(-0.006077778234 -0.08503928527 0)
(-0.006343737546 -0.08503333828 0)
(-0.006357694159 -0.08528664619 0)
(-0.006369484962 -0.08554019403 0)
(-0.004034191109 -0.08523923973 0)
(-0.004226108471 -0.08527011434 0)
(-0.005259374337 -0.0875980908 0)
(-0.00527165172 -0.08731645384 0)
(-0.004443282469 -0.08763765152 0)
(-0.004447142696 -0.0873784 0)
(-0.004730297568 -0.08736038729 0)
(-0.004720423084 -0.0876240293 0)
(-0.004552926823 -0.08694821769 0)
(-0.004261706075 -0.08694989871 0)
(-0.005230738175 -0.08150344602 0)
(-0.005205901679 -0.08125058374 0)
(-0.004917954212 -0.07820674584 0)
(-0.004894086334 -0.07795452158 0)
(-0.00494168861 -0.07845911487 0)
(-0.005108381823 -0.07769790331 0)
(-0.004870275395 -0.07770290965 0)
(-0.00522047372 -0.07921396594 0)
(-0.005012395125 -0.07921377897 0)
(-0.004989067763 -0.07896385504 0)
(-0.004965380545 -0.0787114849 0)
(-0.00637571748 -0.08579425072 0)
(-0.004106793246 -0.0862370167 0)
(-0.004369267011 -0.08623379552 0)
(-0.004617617303 -0.08622179695 0)
(-0.004526846345 -0.08602185094 0)
(-0.003784021698 -0.08523716667 0)
(-0.003519850258 -0.08523986145 0)
(-0.003511946409 -0.08498499451 0)
(-0.003501584357 -0.08473197941 0)
(-0.005255003798 -0.08175632178 0)
(-0.0034902863 -0.08422350806 0)
(-0.003477360549 -0.08397187524 0)
(-0.003729362894 -0.08395700532 0)
(-0.003805456449 -0.08415970526 0)
(-0.003459978082 -0.08372162217 0)
(-0.003652316661 -0.08375154272 0)
(-0.003494191807 -0.08447837496 0)
(-0.003522266635 -0.08340023756 0)
(-0.00540015324 -0.08324375267 0)
(-0.007980603642 -0.01497630196 6.86395385e-14)
(-0.005151604499 -0.009209288847 4.217459715e-14)
(-0.01684038545 -0.0371233865 1.706135233e-13)
(-0.01403461144 -0.02923481167 1.342537193e-13)
(-0.01391868844 -0.02973540422 1.330879851e-13)
(-0.01925581024 -0.04508353146 2.073619054e-13)
(-0.02293890703 -0.06616653527 3.04645198e-13)
(-0.02238632245 -0.05991020995 2.758071549e-13)
(-0.02251705798 -0.06174669533 2.770561558e-13)
(-0.02278111681 -0.07129833057 3.282651928e-13)
(-0.02048570334 -0.07740981197 3.561595463e-13)
(-0.02055494421 -0.07951501021 3.565620021e-13)
(-0.01847443253 -0.07612155537 0)
(-0.01632005396 -0.07617174418 0)
(-0.01416836463 -0.07622186952 0)
(-0.01524378468 -0.07619681687 0)
(-0.008995148786 -0.01864442476 7.742417818e-14)
(-0.006028791894 -0.01190764253 4.94049246e-14)
(-0.01795517675 -0.04366055875 1.817435091e-13)
(-0.01516543931 -0.03486355462 1.450090048e-13)
(-0.01529963792 -0.03610433191 1.467714839e-13)
(-0.01451051914 -0.03175471254 1.386391002e-13)
(-0.02031165 -0.05242928539 2.183808689e-13)
(-0.02363024832 -0.07501725239 3.127359482e-13)
(-0.02322271978 -0.06843964377 2.85285684e-13)
(-0.02324254442 -0.07034970073 2.865763182e-13)
(-0.02265657852 -0.06361837412 2.784023012e-13)
(-0.02331479372 -0.08026496798 3.345657085e-13)
(-0.02069858357 -0.08596068914 3.580469254e-13)
(-0.02060060821 -0.08799658042 3.581857033e-13)
(-0.02062613206 -0.08162827349 3.569922136e-13)
(-0.01865630111 -0.08425088712 0)
(-0.0164990447 -0.08429514871 0)
(-0.01647567155 -0.08327888522 0)
(-0.01434442354 -0.08434506001 0)
(-0.01432129187 -0.08332902686 0)
(-0.01539812731 -0.0833039408 0)
(-0.01542140052 -0.08431997062 0)
(-0.01425437316 -0.08028384291 0)
(-0.01533059526 -0.08025877133 0)
(-0.01535280825 -0.08127388205 0)
(-0.01427635025 -0.0812989592 0)
(-0.01000507559 -0.08241337905 0)
(-0.009470991162 -0.08242551296 0)
(-0.009460383949 -0.08191811104 0)
(-0.009994372909 -0.08190593217 0)