/*--------------------------------*- C++ -*----------------------------------*\
| =========                 |                                                 |
| \\      /  F ield         | OpenFOAM: The Open Source CFD Toolbox           |
|  \\    /   O peration     | Version:  v2012                                 |
|   \\  /    A nd           | Website:  www.openfoam.com                      |
|    \\/     M anipulation  |                                                 |
\*---------------------------------------------------------------------------*/
FoamFile
{
    version     2.0;
    format      ascii;
    class       surfaceScalarField;
    location    "0.25";
    object      meshPhi;
}
// * * * * * * * * * * * * * * * * * * * * * * * * * * * * * * * * * * * * * //

dimensions      [0 3 -1 0 0 0 0];
oriented        oriented;


internalField   nonuniform List<scalar> 
5975
(
9.517814952e-06
-0.0001011403171
-9.311909768e-06
0.000202408086
-0.0001014736741
-0.0004055998858
6.380902964e-05
-0.0001326821064
0.0008157026876
-0.0004099113765
6.868165154e-05
0.0001769542452
-0.0007695938554
-0.0001691737414
0.0007222374339
0.0001285994874
-0.0005303286854
-0.0001235129235
0.0004525647337
6.021245886e-05
-0.0002196459037
-5.684459018e-05
0.0001522294124
-1.742256045e-05
5.001526068e-06
-3.949015908e-06
1.720538913e-06
0
0
0
0
0
0
0
0
0
0
0
0
0
0
0
0
0
2.407163251e-05
-0.0002212874751
-2.407160551e-05
0.0004439029002
-0.0002226154521
-0.0008920837256
0.0001343418333
-0.000133482941
0.0008893412267
0.0001548230346
-0.000780858187
-0.0001501394323
0.0007207309196
0.0001075282497
-0.0004850271725
-9.923569301e-05
0.0003990395892
4.275701115e-05
-0.0001618847104
-3.883223538e-05
0.0001040547079
-2.541149534e-06
7.896322089e-07
-3.595749359e-07
0
0
0
0
0
0
0
0
0
0
0
0
0
0
0
0
0
0
5.32269346e-05
-0.0009640803691
-5.322693455e-05
0.0009640803691
0.0001268720787
-0.0009458854242
-0.0001223653475
0.0009181999709
0.0001299894352
-0.0007534238306
-0.0001223302747
0.0006757174774
7.880320446e-05
-0.0004099088402
-7.313329833e-05
0.0003209956862
2.458957094e-05
-9.868794432e-05
-1.985734903e-05
5.153949926e-05
0
0
0
0
0
0
0
0
0
0
0
0
0
0
0
0
0
0
0
0
0
4.981584948e-05
-0.0009767126549
-4.568069011e-05
0.0009599066925
0.0001003169525
-0.00085980735
-9.042644804e-05
0.0008077017751
9.334479816e-05
-0.0006010916727
-8.241286563e-05
0.000520515389
5.195871716e-05
-0.0002750831435
-4.403283861e-05
0.0002007494816
8.589911475e-06
-3.703678971e-05
-5.207493216e-06
1.017739783e-05
0
0
0
0
0
0
0
0
0
0
0
0
0
0
0
0
0
0
0
0
0
2.774601938e-05
-0.0007305786917
-2.146358512e-05
0.0007057378112
5.745494875e-05
-0.0005841929559
-4.672087574e-05
0.0005302090007
4.932336159e-05
-0.0003441955354
-3.900955878e-05
0.000279656616
2.045449368e-05
-0.0001060609047
-1.354942609e-05
6.203624629e-05
7.813800104e-08
-2.670543283e-07
0
0
0
0
0
0
0
0
0
0
0
0
0
0
0
0
0
0
0
0
0
0
0
6.999048015e-06
-0.0003349356201
-4.149181684e-06
0.0003172807845
1.986703692e-05
-0.0002338263199
-1.327592273e-05
0.0001990889954
1.331876074e-05
-9.218535345e-05
-7.262131813e-06
6.082546588e-05
7.145353731e-07
-3.502479592e-06
-2.022678557e-09
3.778286572e-08
0
0
0
0
0
0
0
0
0
0
0
0
0
0
0
0
0
0
0
0
0
0
0
0
0
3.961407966e-07
-4.073648397e-05
-9.754076475e-08
3.54994479e-05
1.361783832e-06
-1.407654353e-05
-1.144890511e-07
7.753515838e-06
0
0
0
0
0
0
0
0
0
0
0
0
0
0
0
0
0
0
0
0
0
0
0
0
0
0
0
0
0
0
0
0
0
0
0
0
0
0
0
0
0
0
0
0
0
0
0
0
0
0
0
0
0
0
0
0
0
0
0
0
0
0
0
0
0
0
0
0
0
0
0
0
0
0
0
0
0
0
0
0
0
0
0
0
0
0
0
0
0
0
0
0
0
0
0
0
0
0
0
0
0
0
0
0
0
0
0
0
0
0
0
0
0
0
0
0
0
0
0
0
0
0
0
0
0
0
0
0
0
0
0
0
0
0
0
0
0
0
0
0
0
0
0
0
0
0
0
0
0
0
0
0
0
0
0
0
0
0
0
0
0
0
0
0
0
0
0
0
0
0
0
0
0
0
0
0
0
0
0
0
0
0
0
0
0
0
0
0
0
0
0
0
0
0
0
0
0
0
0
0
0
0
0
0
0
0
0
0
0
0
0
0
0
0
0
0
0
0
0
0
0
0
0
0
0
0
0
0
0
0
0
0
0
0
0
0
0
0
0
0
0
0
0
0
0
0
0
0
0
0
0
0
0
0
0
0
0
0
0
0
0
0
0
0
0
0
0
0
0
0
0
0
0
0
0
0
0
0
0
0
0
0
0
0
0
0
0
0
0
0
0
0
0
0
0
0
0
0
0
0
0
0
0
0
0
0
0
0
0
0
0
0
0
0
0
0
0
0
0
0
0
0
0
0
0
0
0
0
0
0
0
0
0
0
0
0
0
0
0
0
0
0
0
0
0
0
0
0
0
0
0
0
0
0
0
0
0
0
0
0
0
0
0
0
0
0
0
0
0
0
0
0
0
0
0
0
0
0
0
0
0
0
0
0
0
0
0
0
0
0
0
0
0
0
0
0
0
0
0
0
0
0
0
0
0
0
0
0
0
0
0
0
0
0
0
0
0
0
0
0
0
0
0
0
0
0
0
0
0
0
0
0
0
0
0
0
0
0
0
0
0
0
0
0
0
0
0
0
0
0
0
0
0
0
0
0
0
0
0
0
0
0
0
0
0
0
0
0
0
0
0
0
0
0
0
0
0
0
0
0
0
0
0
0
0
0
0
0
0
0
0
0
0
0
0
0
0
0
0
0
0
0
0
0
0
0
0
0
0
0
0
0
0
0
0
0
0
0
0
0
0
0
0
0
0
0
0
0
0
0
0
0
0
0
0
0
0
0
0
0
0
0
0
0
0
0
0
0
0
0
0
0
0
0
0
0
0
0
0
0
0
0
0
0
0
0
0
0
0
0
0
0
0
0
0
0
0
0
0
0
0
0
0
0
0
0
0
0
0
0
0
0
0
0
0
0
0
0
0
0
0
0
0
0
0
0
0
0
0
0
0
0
0
0
0
0
0
0
0
0
0
0
0
0
0
0
0
0
0
0
0
0
0
0
0
0
0
0
0
0
0
0
0
0
0
0
0
0
0
0
0
0
0
0
0
0
0
0
0
0
0
0
0
0
0
0
0
0
0
0
0
0
0
0
0
0
0
0
0
0
0
0
0
0
0
0
0
0
0
0
0
0
0
0
0
0
0
0
0
0
0
0
0
0
0
0
0
0
0
0
0
0
0
0
0
0
0
0
0
0
0
0
0
0
0
0
0.0001010619298
-4.363461847e-06
4.401007079e-06
-0.000101099475
-0.0001007786101
0.0002015862046
9.77215028e-06
-5.838579089e-05
0.0004016988166
5.840815011e-05
-0.0004017211759
0.0002203708362
-1.012944311e-05
1.012955877e-05
-0.0002203709518
-0.0001012674359
-4.236343083e-06
0.0004394156705
-0.0002003073275
4.380623301e-07
4.896063421e-06
-0.0001054829933
0.0008622331463
-0.0004378421597
-0.000430713575
5.372151368e-05
5.808406803e-05
-0.0004056287495
-5.835692721e-05
0.00047530934
-1.898773201e-05
1.898773201e-05
-0.00047530934
-0.00022128754
-1.012937825e-05
-3.781017527e-05
0.0004016326297
3.776627013e-05
-0.0002012206749
-0.0002003680496
6.549927357e-06
0.0002094653645
-0.0002096411636
-6.374128295e-06
0.0002085170952
6.856381705e-06
-0.0002088235495
-8.564888363e-06
0.0002083599633
8.722020272e-06
-3.970242455e-05
0.000417790047
3.881151746e-05
-0.0004168991399
0.0004056448853
-3.788353855e-05
-0.0002032518606
-0.0002023196614
5.482906414e-06
9.949358457e-05
-9.985944896e-05
-5.117042024e-06
-7.334410056e-06
0.0002051888606
7.436408782e-06
-0.0001026705504
-0.0001026203089
9.919944261e-05
5.764411205e-06
-9.94809474e-05
-5.30257747e-06
9.902504332e-05
5.476976757e-06
-1.400263943e-05
0.0001974682631
1.409928438e-05
-0.0001975649081
0.0002062492321
-0.000206317238
-7.266404167e-06
0.0009459138099
-0.00047060447
2.407160162e-05
2.915533292e-05
0.000939859881
-0.0001124974313
0.0001139081301
-0.0009457798728
-0.0001142323339
-0.0004481808254
-0.0004351535596
-1.377853351e-05
0.0002012008057
1.385127552e-05
-0.0002012735477
0.0001983597247
-0.0001984090825
-1.395328171e-05
-5.089270687e-06
9.928027779e-05
-3.932318828e-05
0.0004304490006
3.734471624e-05
-0.0004284705285
0.0004220707159
-0.000420594603
-4.117853742e-05
-8.377444014e-06
0.0002092779202
0.0004573625055
-1.898773191e-05
1.898773167e-05
-0.0004573625052
1.047944076e-05
0.0001260385475
-0.0001365179883
-5.324204747e-06
9.828766886e-05
5.5137975e-06
-9.847726162e-05
-1.658365985e-06
0.000213433739
8.557587949e-07
-4.261959895e-06
0.000212189541
5.236994691e-06
-0.0002131645758
-9.945511533e-05
2.689835116e-06
-3.707371002e-06
0.0001004726512
-9.928810157e-05
-4.130817616e-06
9.981308064e-05
3.605838552e-06
-4.703458465e-06
9.986228973e-05
4.687901611e-06
-9.984673288e-05
-2.986480619e-06
1.288562436e-06
-9.759018339e-05
-9.623122514e-06
-8.227752758e-06
-8.160424006e-05
-4.061813147e-06
0.0001019904338
4.239957112e-06
-0.0001021685777
9.876187786e-05
-9.688445196e-05
-4.863906522e-06
-2.639407197e-05
0.0001023469206
6.892079344e-06
-3.093371555e-06
0.0001024630723
3.226070034e-06
-0.0001025957707
0.0001019845162
-0.0001020504422
-3.995887138e-06
-3.305403095e-06
0.0001026555094
3.374306663e-06
-0.0001027244129
0.000102623653
-0.0001027158079
-3.001216661e-06
3.678199476e-07
0.0001029066084
0.0001278994505
-0.000137522573
9.840154698e-05
-9.827216642e-05
-5.453585304e-06
-2.159455244e-06
9.631126129e-05
-8.367236529e-05
0.0001010245382
2.956474744e-05
0.0004017382783
6.376956801e-05
0.0007634399131
-0.0001765375379
0.0001795690668
-0.0007882342914
9.995917747e-05
-0.0001001122313
-4.550404669e-06
-5.062723569e-06
9.969378382e-05
-4.390587451e-06
0.0001016007895
4.780231705e-06
9.629755894e-05
-9.467340646e-05
-5.360075683e-06
9.699548572e-05
-5.479517284e-06
-5.531802151e-06
9.819500165e-05
5.624469365e-06
-5.872677793e-06
9.788946041e-05
5.910946164e-06
-9.792772878e-05
-1.048202864e-05
-7.650613149e-06
0.0001009929808
-8.286033897e-05
0.0001295729244
-0.000140054953
0.0001302200815
1.112986489e-05
2.753536707e-05
-6.459624707e-07
0.0001033306769
0.0001017923555
-8.190760155e-05
0.0001039209357
-2.501879763e-06
2.539897148e-06
-0.0001039589531
0.0001031917317
-0.0001035770468
-2.920087982e-06
-1.152244525e-05
-8.563684415e-05
2.91116199e-05
-2.35313671e-06
9.928006435e-05
9.768963914e-05
-8.010046449e-05
-0.0001272282652
2.783358789e-05
0.0001006832398
1.136880627e-05
-0.0001385970715
-1.459353519e-06
-8.47620236e-05
9.990112056e-05
-8.029528543e-05
-0.0001026683733
5.090415566e-06
0.0001018179148
-1.984581527e-06
2.88891326e-05
-3.160178498e-06
-1.073066805e-05
-8.761313744e-05
0.0001001483059
-8.198984133e-05
0.0001003748149
1.823015056e-06
-1.993995342e-06
0.0001025179009
-0.0001016190296
0.0001027960822
0.0001013224653
-1.789243325e-06
1.875251753e-06
-2.667390281e-06
0.0001021146038
0.0001027878648
9.531895743e-05
-1.154693067e-05
-8.593148201e-05
3.846344463e-06
-5.758510864e-06
9.723112383e-05
9.780446905e-05
5.921116049e-06
9.999480226e-05
-4.891380107e-06
-9.853356356e-05
9.869616875e-05
-8.051574679e-05
0.0007240486472
0.0001808792004
0.0005379613227
-0.0001457008328
0.0001493575135
-0.00060903314
0.0004604131508
0.0001368644695
0.0002286674603
-7.706670133e-05
8.26474069e-05
-0.0003031282617
0.0001610322388
6.538401605e-05
-1.494969082e-05
2.207965354e-05
1.844607346e-05
-5.561821671e-05
-9.172763726e-06
0.0002052278106
9.133813749e-06
-1.358312753e-05
0.0002051542685
1.373545765e-05
-0.0002053065986
0.0002023652314
-0.0002023785498
-1.376521507e-05
0.00086258085
0.0001336985802
0.0007834307464
-0.0001585080559
0.0001656031296
-0.0008309127551
-0.0008003200121
-0.0001723697388
0.0007260312549
0.0001604582218
0.0004945032197
-0.0001180973762
0.0001262429634
-0.0005784661033
-0.0006033325219
-0.0001402517125
0.000416047144
0.0001105786711
0.0001785175791
-5.787602207e-05
6.161964751e-05
-0.0002519406002
-0.000294229659
-7.320943104e-05
0.0001146074957
4.606362342e-05
-5.449583909e-06
5.665223809e-06
8.207144229e-06
-2.740336948e-05
-4.885155726e-05
-1.301339906e-05
-2.407160171e-05
0.0004573625052
2.407160199e-05
-3.932318829e-05
0.0004573625052
3.93231883e-05
-0.0004573625052
0.0004439029002
-0.0004439029002
-3.93231883e-05
0.0009199645613
0.0001301055603
0.0007707432574
-0.0001368744391
0.000143093106
-0.0008344552149
-0.0008273610548
-0.0001547103235
0.0006956756716
0.0001363528579
0.000431137729
-9.311481349e-05
9.838441932e-05
-0.0005226585396
-0.0005700899454
-0.0001134522975
0.0003421617783
8.714052692e-05
0.0001152921205
-3.634808897e-05
4.319845692e-05
-0.000181107096
-0.000233724449
-5.166477113e-05
6.502735096e-05
3.001964216e-05
-6.529336894e-07
0
1.379449915e-06
-5.054530541e-06
-2.047489661e-05
-3.942329639e-06
0.0009950668278
-3.10642988e-05
3.273276316e-05
-3.289154484e-05
1.390381282e-05
0.0009832783689
5.241132649e-05
0.0008998759787
-9.268997696e-05
9.99513434e-05
-0.0009371418271
-0.0009600294148
-0.0001098108813
0.0008521480611
0.0001090604641
0.000651176392
-9.994981263e-05
0.0001106480301
-0.000726621968
-0.0008210224402
-0.0001293038239
0.000569776902
0.0001037998348
0.0003147935029
-6.345555659e-05
7.183975877e-05
-0.0003988786521
-0.0005008553056
-8.683465786e-05
0.0002353799377
5.956251086e-05
5.281106574e-05
-1.785283712e-05
2.288986733e-05
-0.0001017472512
-0.0001623138276
-3.231108985e-05
1.893040946e-05
1.233551329e-05
0
0
0
0
-1.80250304e-06
-6.322551726e-08
0.0008145591532
-1.465889106e-05
1.944978262e-05
-2.80726034e-05
0.0007899883397
3.419150819e-05
0.0006671243112
-5.382250062e-05
6.420525649e-05
-0.0007159632028
-0.0009023369639
-8.40769873e-05
0.0006112664497
6.858831354e-05
0.000413653636
-5.417094438e-05
6.548999958e-05
-0.0004830219588
-0.0006770622376
-8.866492152e-05
0.0003432260816
6.015297454e-05
0.0001467873269
-2.839230875e-05
3.696426408e-05
-0.0002075650755
-0.000354936946
-5.471567893e-05
9.375995512e-05
2.803672743e-05
3.240691675e-06
-1.725729163e-06
4.466686572e-06
-1.991880503e-05
-7.922717291e-05
-1.290010178e-05
0
8.734785422e-07
0
0
0
0
0
0
0.0004347933282
-8.903068393e-07
3.063634611e-06
-1.011761904e-05
0.0004144426449
1.086941364e-05
0.0003177324416
-1.86088164e-05
2.590121375e-05
-0.0003550409269
-0.0006320022114
-4.374114184e-05
0.0002768112922
2.771404805e-05
0.0001462250954
-1.636226861e-05
2.428732974e-05
-0.0001895263598
-0.0004086681714
-4.33853722e-05
0.0001054007423
2.078844601e-05
1.603622264e-05
-2.855446439e-06
7.225992848e-06
-3.844288191e-05
-0.0001584568196
-2.036815881e-05
3.456025424e-06
3.252194415e-06
0
0
0
0
-7.538519171e-06
-3.641024478e-07
0
0
0
0
0
0
0
0
9.114588183e-05
5.632959726e-07
-8.653683163e-07
3.781259354e-07
8.27898444e-05
1.039307634e-06
4.543121541e-05
-1.60122208e-06
4.077834151e-06
-5.913402476e-05
-0.0002658378062
-1.254431435e-05
3.180031105e-05
4.000142139e-06
3.342558423e-06
-7.561960368e-08
1.402587209e-06
-9.493635563e-06
-0.00012677145
-9.770457951e-06
3.434471815e-07
4.783163365e-07
0
0
0
0
-1.472830332e-05
-5.1049011e-07
0
0
0
0
0
0
0
0
0
0
0
0
0
0
0
0
0
0
0
2.210551866e-07
0
0
0
0
0
0
-2.142617263e-05
-2.632466044e-07
0
0
0
0
0
0
-6.77959504e-07
0
0
0
0
0
0
0
0
0
0
0
0
0
0
0
0
0
0
0
0
0
0
0
0
0
0
0
0
0
0
0
0
0
0
0
0
0
0
0
0
0
0
0
0
0
0
0
0
0
0
0
0
0
0
0
0
0
0
0
0
0
0
0
0
0
0
0
0
0
0
0
0
0
0
0
0
0
0
0
0
0
0
0
0
0
0
0
0
0
0
0
0
0
0
0
0
0
0
0
0
0
0
0
0
0
0
0
0
0
0
0
0
0
0
0
0
0
0
0
0
0
0
0
0
0
0
0
0
0
0
0
0
0
0
0
0
0
0
0
0
0
0
0
0
0
0
0
0
0
0
0
0
0
0
0
0
0
0
0
0
0
0
0
0
0
0
0
0
0
0
0
0
0
0
0
0
0
0
0
0
0
0
0
0
0
0
0
0
0
0
0
0
0
0
0
0
0
0
0
0
0
0
0
0
0
0
0
0
0
0
0
0
0
0
0
0
0
0
0
0
0
0
0
0
0
0
0
0
0
0
0
0
0
0
0
0
0
0
0
0
0
0
0
0
0
0
0
0
0
0
0
0
0
0
0
0
0
0
0
0
0
0
0
0
0
0
0
0
0
0
0
0
0
0
0
0
0
0
0
0
0
0
0
0
0
0
0
0
0
0
0
0
0
0
0
0
0
0
0
0
0
0
0
0
0
0
0
0
0
0
0
0
0
0
0
0
0
0
0
0
0
0
0
0
0
0
0
0
0
0
0
0
0
0
0
0
0
0
0
0
0
0
0
0
0
0
0
0
0
0
0
0
0
0
0
0
0
0
0
0
0
0
0
0
0
0
0
0
0
0
0
0
0
0
0
0
0
0
0
0
0
0
0
0
0
0
0
0
0
0
0
0
0
0
0
0
0
0
0
0
0
0
0
0
0
0
0
0
0
0
0
0
0
0
0
0
0
0
0
0
0
0
0
0
0
0
0
0
0
0
0
0
0
0
0
0
0
0
0
0
0
0
0
0
0
0
0
0
0
0
0
0
0
0
0
0
0
0
0
0
0
0
0
0
0
0
0
0
0
0
0
0
0
0
0
0
0
0
0
0
0
0
0
0
0
0
0
0
0
0
0
0
0
0
0
0
0
0
0
0
0
0
0
0
0
0
0
0
0
0
0
0
0
0
0
0
0
0
0
0
0
0
0
0
0
0
0
0
0
0
0
0
0
0
0
0
0
0
0
0
0
0
0
0
0
0
0
0
0
0
0
0
0
0
0
0
0
0
0
0
0
0
0
0
0
0
0
0
0
0
0
0
0
0
0
0
0
0
0
0
0
0
0
0
0
0
0
0
0
0
0
0
0
0
0
0
0
0
0
0
0
0
0
0
0
0
0
0
0
0
0
0
0
0
0
0
0
0
0
0
0
0
0
0
0
0
0
0
0
0
0
0
0
0
0
0
0
0
0
0
0
0
0
0
0
0
0
0
0
0
0
0
0
0
0
0
0
0
0
0
0
0
0
0
0
0
0
0
0
0
0
0
0
0
0
0
0
0
0
0
0
0
0
0
0
0
0
0
0
0
0
0
0
0
0
0
0
0
0
0
0
0
0
0
0
0
0
0
0
0
0
0
0
0
0
0
0
0
0
0
0
0
0
0
0
0
0
0
0
0
0
0
0
0
0
0
0
0
0
0
0
0
0
0
0
0
0
0
0
0
0
0
0
0
0
0
0
0
0
0
0
0
0
0
0
0
0
-0.0001008955587
4.517955687e-06
-4.439068046e-06
4.632799213e-06
-0.0001010892899
-0.000101234753
-4.303790056e-06
1.104753362e-05
0.0002014170992
-1.087842823e-05
-0.0002003184751
0.0002002757222
1.109028649e-05
9.918671755e-06
-0.0001005058191
0.0003890114804
-0.0003890265968
-5.864676409e-05
-0.0001950618468
-4.316881442e-05
0.0003890606934
-4.353062009e-05
0.000401717571
4.344567878e-05
0.0002135047681
-0.0002151581136
-2.608614351e-06
0.0002232816563
-4.129304393e-06
0.0001017232331
-3.230088211e-06
0.0001022926787
3.400481767e-06
-7.720055831e-06
0.0002034648163
3.922769997e-06
4.246611899e-06
-0.0001021350045
-0.0001017791379
2.915533293e-05
0.0004394156705
-2.915533293e-05
0.0004236120246
2.816988786e-05
-0.0002111741559
-0.0002114524237
6.689833924e-06
-5.444359177e-06
0.0002122592933
5.812415011e-05
0.0004218091888
-0.0004218931156
-5.804022328e-05
4.415907871e-05
-4.34280899e-05
0.0004213397271
-4.440623844e-05
0.000431230212
4.362502699e-05
-4.365234983e-05
0.000405766615
0.000417662743
4.428638269e-05
0.0004179558187
5.819408355e-05
-0.0004180257522
0.000461849735
-0.000461849735
-1.898773199e-05
-1.898773099e-05
0.0004481808282
8.858340874e-06
1.012938725e-05
-0.0002246507955
-0.0002235300299
1.96829231e-05
0.0003976265286
-0.0001992595317
-0.0001983564798
1.807282998e-05
1.529766092e-05
-1.527762621e-05
0.00019833969
-1.526512684e-05
0.0002012071624
1.525877018e-05
0.0001973125578
1.545336624e-05
0.0001972355111
1.960160846e-05
-0.0001971541965
9.723351234e-05
-5.599759503e-06
-5.665722789e-06
9.725496724e-05
-4.537519763e-06
4.860549875e-06
-0.0002099641937
0.0002105767866
-0.0002112214201
-3.892886328e-06
-5.8058116e-06
0.00021000847
-0.0002081231661
7.051731365e-06
0.0002079278164
-5.294373117e-06
5.382680698e-06
-0.0001040048638
-0.0001042066099
-0.0002092573728
0.0002085399063
-1.361459569e-05
1.362908515e-05
-0.0002085543957
0.0002060351258
-0.0002059814598
-1.363679351e-05
-8.94341257e-06
0.0002060198809
-0.0004132366546
3.807462093e-05
0.0004139735511
-3.230841037e-05
3.196183811e-05
-0.0002068549566
-3.282085895e-05
-0.0002078467851
-1.522068768e-05
0.0002023207923
0.0004095517172
-0.000204459286
1.517881548e-05
1.684485993e-05
0.0004097427996
-5.10480652e-06
5.498101413e-06
-0.0001002527439
9.995489845e-05
-0.0001001575322
-4.902172802e-06
-4.892681274e-06
9.97305377e-05
3.831073123e-06
-4.002594282e-06
0.0001026246068
-0.000100580017
0.0001017436999
0.0002045994423
-0.0001025308026
-0.0001023522868
-3.052207611e-06
0.0001024457724
-3.138931522e-06
0.0001026241481
3.17029275e-06
-9.880280482e-05
5.784568177e-06
9.878264784e-05
-6.011956274e-06
5.905320204e-06
1.122047252e-05
0.0001976864917
-1.121513655e-05
-9.892939635e-05
-9.876243128e-05
0.0001965519235
5.521610751e-06
-9.849925128e-05
-9.822648823e-05
-5.464050807e-06
9.833379563e-05
-0.0001964886528
1.413473797e-05
0.0001964531992
-1.27540259e-05
1.281729655e-05
-1.263244231e-05
0.0001953526206
-9.75363741e-05
0.0001951924191
-5.867354159e-06
-0.0001037309575
3.333873832e-06
0.0002072089678
-0.0001037727055
0.000206994295
3.597359535e-06
-3.309706089e-06
0.0001042176114
0.0001038555983
-3.462563907e-06
-0.000104974798
-0.0001047933105
1.832270378e-06
2.141029242e-06
-0.0001042531105
-2.253632995e-06
7.356250698e-05
0.0009459138099
-7.356250696e-05
0.0009281866996
3.423931867e-05
-0.0004663369647
-0.000461849735
-2.407160163e-05
0.000461849735
-0.0009281866996
0.0001142323339
0.000927188654
-9.389775834e-05
9.389775837e-05
-9.386867274e-05
-4.440623843e-05
0.0004439029002
0.0009102377807
-0.0004528752755
4.440623845e-05
4.949151996e-05
0.0009102377807
-0.0002003008991
1.379566209e-05
0.0002003565125
-1.253583932e-05
1.251066249e-05
-1.239228787e-05
-1.265867011e-05
-0.0001983828547
0.0001994211551
-0.0001995691627
0.0001992635355
0.0001994392355
-9.967452002e-05
4.88399635e-06
5.132249647e-06
1.096035929e-05
-9.941033761e-05
-9.922729432e-05
-0.0004326789666
4.148100716e-05
0.0004285426757
-4.518446063e-05
3.611751868e-05
-3.423931867e-05
-3.388093475e-05
-0.0004195345272
0.0004250029869
-0.000422766403
0.0004253054566
0.0002112258673
7.653507598e-06
2.679934658e-05
-0.0002109199768
-0.0002104758849
-0.0002097558679
-0.000209192659
1.259875052e-05
-0.0004528752755
0.0004528752762
-1.390381281e-05
7.587384557e-06
-1.390381281e-05
-9.76676032e-05
9.770188342e-05
-5.338039742e-06
-4.535237012e-06
2.898547929e-06
-2.419762113e-06
-0.0001059643392
-0.0001057358667
-0.0001056263173
-0.0001049018924
1.890854545e-06
0.000214266455
-2.723570586e-06
-0.0002127242354
0.0002121953278
7.672739291e-07
-0.0002115134754
0.0002109446585
-3.211033968e-06
-2.109154672e-06
0.000100167812
-3.974062485e-06
4.671472745e-06
-4.661192868e-06
4.443033656e-06
9.991551276e-05
-4.54546578e-06
-0.0001003150158
0.0001000968566
-9.987929968e-05
-4.68461586e-06
-4.615835978e-06
-0.0001027040578
3.551052499e-06
0.0001023790753
-2.701372316e-06
2.793396735e-06
-2.779242149e-06
-3.418265203e-06
0.0001027058084
0.0001022609738
-0.0001022598952
3.052581945e-06
0.0001025816199
-3.524959591e-06
3.00876425e-06
-3.624765753e-06
-2.707185212e-06
0.0001024161829
0.0001024675482
-5.002934383e-06
9.813350966e-05
9.846449253e-05
0.0001533167514
0.0007987937198
-0.000153078864
-0.0004017127746
-0.000397412653
0.000781804134
-0.0003929544112
-0.0003888663817
-6.401385571e-05
0.0003889576682
-0.0007758748325
0.0007547295471
-0.0001706717768
-0.0001680085748
-4.677127749e-06
-0.0001000509395
0.0001005382681
-0.0001005825966
0.0001005614726
-5.24938124e-06
4.902621463e-06
-4.923745457e-06
4.664270079e-06
-4.298233552e-06
-0.0001013487653
5.607316014e-06
9.808918265e-05
-5.501497015e-06
-9.772659328e-05
9.766818651e-05
-9.759402265e-05
5.968594718e-06
-5.683064622e-06
5.757228481e-06
9.718904328e-05
3.109367406e-06
0.0001042923561
-2.704566889e-06
0.0001041531984
-0.0001040321595
2.799351102e-06
-2.859258229e-06
2.98029717e-06
-2.52585522e-06
-3.346214239e-06
0.0001038516944
3.583483099e-06
7.196925623e-06
0
0
0
-9.726218772e-09
0
0
0
0
0
0.0002034717041
-9.318797633e-06
1.086860572e-05
-1.080407464e-05
0.0002034071731
0.0002023982635
0.000832125823
-0.0001328310733
-0.0004140210374
0.0001526554508
-0.0001518960247
0.0008289966411
0.0008145491246
0.0007289870384
-0.0007785525883
-0.0001654628345
0.0001645418811
-0.0001578631241
0.0006675824966
0.0001697518172
0.0006684636129
0.0004339915455
-0.0005164869582
-0.0001142239669
0.0001070974012
-0.000103010353
0.0003591591396
0.0001116177085
0.0003728781445
0.0001421186691
-0.0002078995743
-5.260265465e-05
4.097526525e-05
-3.721845156e-05
8.630455833e-05
4.397531596e-05
9.448031915e-05
0
1.797956122e-06
0
0
0
0
0
0
0
0
0
0
0
0
0
0
0.0004481808254
-2.407160266e-05
2.915533293e-05
-2.915533293e-05
0.0004481808254
0.0004439029002
0.0009038127819
-0.0001322797855
0.0001462026103
-0.0001439319771
0.0008801912895
0.000149600097
0.0008706475217
0.0007149733415
-0.0007842521009
-0.0001412991525
0.000146997
-0.0001343904969
0.0006352259097
0.0001477839616
0.0006527931661
0.0003840232736
-0.0004694198178
-9.589184067e-05
8.335327842e-05
-7.735438349e-05
0.0002979947164
9.049164426e-05
0.0003135885677
9.052326558e-05
-0.0001480713287
-3.370351474e-05
2.485334331e-05
-2.030295943e-05
4.460459705e-05
2.827458009e-05
5.489154509e-05
0
0
0
0
0
0
0
0
0
0
0
0
0
0
0
0
0.0009806664343
-0.0009817219749
-5.329728494e-05
7.35471959e-05
-7.297975481e-05
0.0009766672334
0.0009638962756
0.0009068453619
-0.0009420541351
-0.000116441556
0.0001298729148
-0.0001225081706
0.0008588415186
0.0001358670462
0.0008764113638
0.0006478154117
-0.0007275945045
-0.0001135375061
0.000112224849
-0.0001037986702
0.0005618327669
0.0001196139095
0.0005905306269
0.0002963141871
-0.0003829673285
-6.667386823e-05
5.934167882e-05
-5.351964038e-05
0.000215697356
6.444899632e-05
0.0002374042601
3.927930692e-05
-8.449528776e-05
-1.616796135e-05
9.342730023e-06
-6.799447438e-06
1.0640319e-05
1.333279259e-05
1.805613468e-05
0
0
0
0
0
0
0
0
0
0
0
0
0
0
0
0
0.0009188779916
-0.0009394758577
-4.033013806e-05
6.125974094e-05
-5.444477956e-05
0.0008901858632
6.68124383e-05
0.0009354687869
0.0007516786963
-0.000806619633
-7.971979926e-05
9.31573605e-05
-8.174975865e-05
0.0006887029691
0.0001039553212
0.0007464474176
0.0004652572556
-0.0005437194475
-7.126544594e-05
7.430856954e-05
-6.381624646e-05
0.0003856777202
8.462254932e-05
0.0004376274823
0.0001646388486
-0.0002328462528
-3.598479288e-05
3.31859786e-05
-2.606647224e-05
0.0001052748928
4.027404598e-05
0.0001346025202
3.713830854e-06
-2.267859564e-05
-2.519816358e-06
1.006144076e-06
-1.916421513e-07
0
2.364504657e-06
2.803858093e-07
0
0
0
0
0
0
0
0
0
0
0
0
0
0
0
0
0.0006127808492
-0.0006369079443
-1.574116898e-05
3.101487952e-05
-2.376887061e-05
0.0005808778399
3.883152125e-05
0.0006727339823
0.0004456202433
-0.0004963795429
-3.672021403e-05
4.751617781e-05
-3.723503486e-05
0.0003907840977
5.856525536e-05
0.0004712247161
0.0002173439373
-0.0002749166551
-2.942498673e-05
3.349920484e-05
-2.453015672e-05
0.0001625441027
4.318649996e-05
0.0002170441834
3.517242231e-05
-6.938800793e-05
-7.678346701e-06
7.33662679e-06
-3.170169308e-06
1.189646634e-05
1.28064983e-05
2.852178317e-05
0
0
0
0
0
0
0
0
0
0
0
0
0
0
0
0
0
0
0
0
0
0
0
0
0.0002271426523
-0.0002418104797
-2.220835561e-06
7.915662412e-06
-4.778425136e-06
0.0002077839567
1.210502784e-05
0.0002939813943
0.0001303161171
-0.0001583283456
-7.979433249e-06
1.297894417e-05
-7.483057825e-06
0.0001017570181
1.982971312e-05
0.0001629251841
2.726983431e-05
-4.868754722e-05
-2.884446329e-06
4.560218772e-06
-1.233493556e-06
1.14326419e-05
9.770377819e-06
3.441902481e-05
0
-9.992313353e-09
0
0
0
0
8.42174526e-09
0
0
0
0
0
0
0
0
0
0
0
0
0
0
0
0
0
0
0
0
0
0
0
0
0
8.563419696e-06
-1.078870882e-05
-1.766392563e-09
2.960700693e-07
-3.446145782e-09
6.052660802e-06
1.118450197e-06
2.884115273e-05
2.296509192e-07
-1.57013144e-06
0
1.791974043e-08
0
0
9.033062673e-07
3.375204994e-06
0
0
0
0
0
0
0
0
0
0
0
0
0
0
0
0
0
0
0
0
0
0
0
0
0
0
0
0
0
0
0
0
0
0
0
0
0
0
0
0
0
0
0
0
0
0
0
0
0
0
0
0
0
0
0
0
0
0
0
0
0
0
0
0
0
0
0
0
0
0
0
0
0
0
0
0
0
0
0
0
0
0
0
0
0
0
0
0
0
0
0
0
0
0
0
0
0
0
0
0
0
0
0
0
0
0
0
0
0
0
0
0
0
0
0
0
0
0
0
0
0
0
0
0
0
0
0
0
0
0
0
0
0
0
0
0
0
0
0
0
0
0
0
0
0
0
0
0
0
0
0
0
0
0
0
0
0
0
0
0
0
0
0
0
0
0
0
0
0
0
0
0
0
0
0
0
0
0
0
0
0
0
0
0
0
0
0
0
0
0
0
0
0
0
0
0
0
0
0
0
0
0
0
0
0
0
0
0
0
0
0
0
0
0
0
0
0
0
0
0
0
0
0
0
0
0
0
0
0
0
0
0
0
0
0
0
0
0
0
0
0
0
0
0
0
0
0
0
0
0
0
0
0
0
0
0
0
0
0
0
0
0
0
0
0
0
0
0
0
0
0
0
0
0
0
0
0
0
0
0
0
0
0
0
0
0
0
0
0
0
0
0
0
0
0
0
0
0
0
0
0
0
0
0
0
0
0
0
0
0
0
0
0
0
0
0
0
0
0
0
0
0
0
0
0
0
0
0
0
0
0
0
0
0
0
0
0
0
0
0
0
0
0
0
0
0
0
0
0
0
0
0
0
0
0
0
0
0
0
0
0
0
0
0
0
0
0
0
0
0
0
0
0
0
0
0
0
0
0
0
0
0
0
0
0
0
0
0
0
0
0
0
0
0
0
0
0
0
0
0
0
0
0
0
0
0
0
0
0
0
0
0
0
0
0
0
0
0
0
0
0
0
0
0
0
0
0
0
0
0
0
0
0
0
0
0
0
0
0
0
0
0
0
0
0
0
0
0
0
0
0
0
0
0
0
0
0
0
0
0
0
0
0
0
0
0
0
0
0
0
0
0
0
0
0
0
0
0
0
0
0
0
0
0
0
0
0
0
0
0
0
0
0
0
0
0
0
0
0
0
0
0
0
0
0
0
0
0
0
0
0
0
0
0
0
0
0
0
0
0
0
0
0
0
0
0
0
0
0
0
0
0
0
0
0
0
0
0
0
0
0
0
0
0
0
0
0
0
0
0
0
0
0
0
0
0
0
0
0
0
0
0
0
0
0
0
0
0
0
0
0
0
0
0
0
0
0
0
0
0
0
0
0
0
0
0
0
0
0
0
0
0
0
0
0
0
0
0
0
0
0
0
0
0
0
0
0
0
0
0
0
0
0
0
0
0
0
0
0
0
0
0
0
0
0
0
0
0
0
0
0
0
0
0
0
0
0
0
0
0
0
0
0
0
0
0
0
0
0
0
0
0
0
0
0
0
0
0
0
0
0
0
0
0
0
0
0
0
0
0
0
0
0
0
0
0
0
0
0
0
0
0
0
0
0
0
0
0
0
0
0
0
0
0
0
0
0
0
0
0
0
0
0
0
0
0
0
0
0
0
0
0
0
0
0
0
0
0
0
0
0
0
0
0
0
0
0
0
0
0
0
0
0
0
0
0
0
0
0
0
0
0
0
0
0
0
0
0
0
0
0
0
0
0
0
0
0
0
0
0
0
0
0
0
0
0
0
0
0
0
0
0
0
0
0
0
0
0
0
0
0
0
0
0
0
0
0
0
0
0
0
0
0
0
0
0
0
0
0
0
0
0
0
0
0
0
0
0
0
0
0
0
0
0
0
0
0
0
0
0
0
0
0
0
0
0
0
0
0
0
0
0
0
0
0
0
0
0
0
0
0
0
0
0
0
0
0
0
0
0
0
0
0
0
0
0
0
0
0
0
0
0
0
0
0
0
0
0
0
0
0
0
0
0
0
0
0
0
0
0
0
0
0
0
0
0
0
0
0
0
0
0
0
0
0
0
0
0
0
0
0
0
0
0
0
0
0
0
0
0
0
0
0
0
0
0
0
0
0
0
0
0
0
0
0
0
0
0
0
0
0
0
0
0
0
0
0
0
0
0
0
0
0
0
0
0
0
0
0
0
0
0
0
0
0
0
0
0
0
0
0
0
0
0
0
0
0
0
0
0
0
0
0
0
0
0
0
0
0
0
0
0
0
0
0
0
0
0
0
-0.0003978616282
5.858519408e-05
0.0003976845843
-5.322042344e-05
5.333436349e-05
-0.0003979755683
-5.330219787e-05
-0.0004016394014
-0.0001883371131
-1.840655696e-06
-8.859096992e-06
3.95677294e-05
-0.0002190457455
-0.0002203713602
-8.858688601e-06
-4.073524428e-06
-0.0001014977015
0.0001014634053
-0.0001016141597
-5.329274322e-05
-0.0004056382042
0.0004099207911
-0.0004098333934
-5.338014092e-05
-5.834751259e-05
0.000195068271
-0.0001950249017
-1.827810957e-05
-1.961563271e-05
1.061232612e-05
-1.06794744e-05
0.0002084271116
-0.000207725307
0.0002076777367
1.065989638e-05
8.924529743e-06
5.395805845e-06
-5.300158869e-06
-9.873511185e-05
5.368486415e-06
5.524512749e-06
1.774301241e-06
-1.675689341e-06
2.025811978e-06
9.952526337e-05
5.247175402e-06
0.0002097331705
-8.102144522e-06
1.059421321e-05
-1.061691062e-05
1.255518284e-06
-1.160351555e-06
0.0001741458533
0.0006717561478
-0.0007187254799
0.0006687106539
-0.0006077602316
0.0005380539025
-0.000163623528
-0.0001596659838
0.0001175967699
0.0003813887169
-0.0004687375742
0.0003918828012
-0.0003148158896
0.0002404419735
-0.0001001939118
-9.444036736e-05
4.876792737e-05
0.0001025910287
-0.0001719598526
0.0001119287889
-6.285137245e-05
2.844109015e-05
-3.283101532e-05
-2.854578231e-05
1.072160263e-05
0.0002052733985
-1.076719052e-05
-0.0002044144584
0.0002043319864
-0.0002043352719
1.36114436e-05
-1.231309205e-05
1.230980654e-05
-1.234629218e-05
-1.237257418e-05
0.0002033444054
0.000203190634
0.0001506537818
0.0008520122437
-0.0008487310808
0.0008421582745
-0.000426054385
-0.0008199417692
0.0001710501962
0.0007792488584
-0.0001631826405
0.0001649727912
-0.0001675262362
-0.0001661375008
0.0008115778687
0.0001521033772
0.0006575026512
-0.0007273295571
0.0006618043566
-0.000592459369
0.0001310745627
0.000511573604
-0.0001443898449
0.0001466531276
-0.0001349206326
-0.000154128058
0.0005959038252
9.468417376e-05
0.0003324361566
-0.0004280149132
0.000344619985
-0.0002642852267
6.843999066e-05
0.00019074693
-7.801230283e-05
8.513565614e-05
-7.356866639e-05
-9.038668489e-05
0.0002811230687
3.27478139e-05
6.47591916e-05
-0.0001262559502
7.614089663e-05
-3.567507323e-05
1.07088958e-05
9.906903368e-06
-1.924631771e-05
2.286398188e-05
-1.524259858e-05
-2.59985575e-05
4.287167659e-05
1.387172498e-05
2.915533292e-05
0.0004573625052
-2.915533293e-05
-0.0004528752755
0.0004528752755
-3.423931869e-05
0.0004481808254
-3.423931867e-05
-3.93231883e-05
0.0004481808254
0.0001405226258
0.0008846655178
-0.0009147364727
0.0008856629753
-0.0008405136742
0.0001478811631
0.0007807412004
-0.0001447669066
0.0001490527144
-0.0001391063717
-0.0001535453354
0.0008400381595
0.0001257925052
0.0006119507719
-0.0007085331993
0.0006271011605
-0.0005391548431
0.0001078205453
0.0004484640577
-0.0001127466625
0.0001217995789
-0.0001069708
-0.0001274762743
0.0005546864415
7.191544214e-05
0.0002576415686
-0.0003617487455
0.0002791875806
-0.0002022989521
4.779238232e-05
0.000134262232
-5.745883381e-05
6.257493659e-05
-5.023609809e-05
-6.69298968e-05
0.0002188039653
1.682762264e-05
2.693134702e-05
-7.779269168e-05
3.511342941e-05
-8.846423769e-06
2.209150088e-06
3.839394757e-08
-6.904096925e-06
9.111451572e-06
-4.715857323e-06
-1.255304607e-05
1.42765468e-05
8.403865969e-07