/*--------------------------------*- C++ -*----------------------------------*\
| =========                 |                                                 |
| \\      /  F ield         | OpenFOAM: The Open Source CFD Toolbox           |
|  \\    /   O peration     | Version:  v2012                                 |
|   \\  /    A nd           | Website:  www.openfoam.com                      |
|    \\/     M anipulation  |                                                 |
\*---------------------------------------------------------------------------*/
FoamFile
{
    version     2.0;
    format      ascii;
    class       volScalarField;
    location    "2.18";
    object      k;
}
// * * * * * * * * * * * * * * * * * * * * * * * * * * * * * * * * * * * * * //

dimensions      [0 2 -2 0 0 0 0];


internalField   nonuniform List<scalar> 
3259
(
36.99247407
36.99681201
36.99332206
36.98495303
36.97487028
36.96627238
36.96077854
36.95724013
36.91089941
36.90946657
36.90879551
36.9084237
36.98188728
37.00161843
36.99020032
36.9513056
36.90257757
36.8603796
36.81032603
36.79041651
36.73568995
36.73099742
36.72870293
36.72763425
37.01307532
37.04464854
37.02676309
36.96404661
36.86812929
36.77260456
36.68087909
36.63660994
36.56824407
36.55771584
36.55266559
36.55063703
37.14620621
37.17208567
37.13070652
37.03779306
36.9022293
36.75231961
36.59252631
36.50648007
36.41149754
36.39152907
36.38169306
36.37782007
37.46811743
37.46844468
37.36229872
37.20178202
37.01010302
36.79580169
36.57020089
36.40983125
36.27072831
36.23257927
36.21482926
36.20790881
38.19320674
38.12135437
37.81606214
37.50850859
37.21286858
36.91090196
36.59421405
36.35446676
36.14646526
36.0799718
36.05057945
36.03895494
39.94770988
39.75346605
38.65442037
38.01346482
37.53168385
37.09961062
36.66057198
36.34388768
36.03876446
35.9338687
35.88773434
35.86953898
42.47071827
40.04162925
38.73696548
37.97300473
37.36157218
36.76793862
36.35751291
35.94860087
35.79492636
35.72669234
35.70003575
46.92787213
41.77759392
39.62129149
38.49762739
37.67550479
36.90355911
36.38701043
35.87471824
35.6654135
35.5704411
35.53367321
50.1029415
43.37582261
40.53121001
39.06515495
38.01417194
37.05301839
36.42634942
35.81701952
35.5489344
35.42422377
35.37584626
51.68773361
44.5937833
41.37485205
39.61547074
38.34550771
37.19915945
36.47134694
35.77207105
35.44839934
35.29323085
35.23238819
52.36550127
45.44863374
42.0794302
40.09716461
38.63380582
37.32848927
36.51564884
35.74045855
35.36430777
35.18041278
35.10695113
47.42564124
42.83210057
50.95287135
47.87055226
52.63187272
51.25089388
53.30752136
52.74498747
53.34657769
39.89163323
42.37066783
39.68365401
50.74194611
44.34108568
46.42497699
42.16853545
40.56359609
55.29142901
56.54435735
49.8086288
44.15589232
42.70761641
54.46100975
53.916326
51.55913097
45.60551636
44.58121535
55.7416149
55.02064794
39.45047556
56.45718146
56.23801006
56.42303843
51.06375983
45.41386009
50.15539952
55.09836114
53.98442707
55.11775317
49.59759442
55.98673403
55.30281018
55.31430508
56.05889753
49.3580194
54.88440248
54.54127957
52.16926974
55.80941661
56.02882427
55.27019696
55.76429054
51.98294863
56.20115009
55.81819749
40.15371632
40.87851556
56.48394952
39.36704609
60.81488335
46.82122502
45.99360474
52.32647956
46.53883603
45.89450512
52.4588748
49.76584888
48.34574374
43.96965265
49.24644527
44.80711158
47.93740665
44.20574747
53.10644348
56.18389741
56.30248021
56.0480633
56.17242349
53.03769717
41.45363816
43.83379772
41.54125884
41.51489438
65.0198994
47.87705618
60.45461002
45.99786886
57.2445792
47.06050149
56.50286935
56.59859143
54.12230111
54.08727189
40.88389782
43.93494312
55.47727663
41.25443493
42.85288973
45.33286507
41.35378126
55.38868537
52.44707908
50.54350954
47.73726634
54.40576863
54.02011643
54.63949566
54.74198215
55.64770689
53.464992
52.85918249
54.07409668
53.63488271
55.59520042
56.24391391
51.5185221
50.49926939
52.62822644
51.82053332
56.28562939
55.02768715
45.87913321
54.96809635
43.34424662
47.20132417
56.01024611
43.52391488
40.91575307
53.68375427
52.97481919
59.54462702
39.69333797
40.09598838
53.04688008
40.35778165
43.09959103
43.1017373
46.00844183
42.86446316
43.1684561
55.88443105
58.56691447
57.56620535
56.73572605
54.24760399
45.38199892
45.78752158
48.24895439
47.50911015
53.82582507
55.75008012
59.60771928
58.81908312
52.56730772
48.43654136
47.0191221
50.12099207
48.88269237
52.92499771
54.2298992
49.44285357
48.58484248
54.83969016
46.03650995
46.37861587
54.72376948
55.91983429
54.89547909
54.79419161
55.32068692
54.48873577
54.19152483
54.75176778
54.56384605
55.3366698
56.05796328
47.76412905
51.3860626
48.42179798
54.73603117
53.73500527
53.69318031
46.18925371
46.18084017
40.19269947
39.71172887
52.72392048
57.07682004
48.12903042
57.54888672
42.79425561
40.45065274
45.95316603
45.55288184
49.28839081
65.55579898
54.49814868
51.02897265
58.19175116
55.26962182
50.36167924
47.46360244
52.36738768
55.70566582
55.06316936
56.11312427
56.7317078
57.23732981
56.12125212
46.23213584
45.55276406
54.18748942
46.57579113
46.96215061
45.09708378
46.32131959
47.10535117
53.87335956
47.38625534
46.48909177
41.14203931
41.44215028
41.42701093
51.18314529
50.36371373
42.79865374
48.63024698
47.25925073
50.03550837
49.06862405
42.26204842
41.36287743
42.04912106
40.66081992
59.25002077
58.84432467
55.42806716
60.38127659
61.11770544
61.35593669
60.03216184
59.06514603
61.32357565
59.91007483
52.7651164
58.12789358
59.29793836
50.59605129
49.63755814
54.32761332
54.85243016
52.02920634
50.95722684
44.96477882
44.2224287
46.85699428
45.45101586
46.39513965
43.95783478
44.75895951
44.00340875
43.74359073
49.2760742
42.02612097
48.49748884
45.01749005
48.25998512
41.59239125
53.43644869
42.0534698
40.06709947
38.86354809
51.62625705
51.25329065
46.73011922
51.56571348
56.31097653
56.24378269
53.4787992
44.92253102
44.40640371
47.08649191
52.00007561
44.86885112
44.96106492
41.0125232
41.35032601
43.63602286
49.4165634
52.78731046
55.42452369
44.44455311
42.67487445
40.36904374
51.99284436
53.43217277
56.36840595
56.18520998
57.8562625
52.37766509
45.53454277
42.27503386
54.58684613
49.35682943
44.98851567
61.28596264
45.89658583
41.14658362
42.31125715
51.83482101
40.09574192
40.79591431
50.00830298
46.52790707
45.01058213
46.8793272
46.49523815
40.24476363
40.01836679
42.60985233
42.85800768
45.42793814
62.37043651
58.06784357
55.7220576
65.32748085
62.7687439
40.88000419
42.47997824
41.79909296
47.09851626
46.49535453
42.50314911
52.19243869
51.46850418
41.62153422
45.48177732
42.01347471
42.21448754
44.35138466
39.85614694
40.29713437
45.98456517
45.87830583
42.54321588
42.87303876
45.79587142
45.94395219
46.38000712
54.78222369
46.5568194
47.90344204
53.85435395
51.52594357
50.95431745
43.45007699
42.33335492
39.8996374
54.37014765
53.1751516
58.24138427
40.97877721
49.99472841
46.21242099
50.23511817
49.41177551
41.83715448
44.01408987
44.70344636
48.52769056
53.8132561
54.15523192
53.28583425
53.55568535
58.27823157
57.49292678
57.73365489
56.99069676
57.24208332
57.89649289
47.97744052
48.27673259
48.50290753
47.92162108
48.05747616
47.85719533
59.29691907
58.25388893
58.25178146
57.95944124
58.14950385
59.06101588
49.03005978
49.26522335
49.52184705
48.75350375
48.99968753
48.78814885
52.60479242
52.78908235
51.94021534
52.12973265
56.22604154
55.58297413
53.87802106
44.40917953
56.11673816
58.47857022
63.75484453
58.8139984
60.40880451
56.76712535
49.47093456
62.52569656
57.46319924
46.45825277
46.59413816
52.79116119
43.84090073
47.05656786
54.16261385
49.0649433
50.19669297
48.53418412
61.7610918
58.51544097
62.09193558
57.07691031
59.60172112
62.00117627
63.20411979
62.55864889
55.20851561
55.36659531
55.62720012
54.76587172
54.92857864
54.94489113
56.84730431
56.46923889
56.72982085
55.92520222
56.18787743
56.48139941
46.00139304
48.7173562
48.70706894
46.6835837
46.91926467
45.52184333
46.66486448
46.42243171
46.14982349
47.48430415
47.84391996
46.93083379
48.07920135
47.8916218
48.63684475
48.41693235
46.68575425
46.4818789
44.15775889
40.96650765
47.73358269
47.60227653
47.39239242
41.87763131
46.67283898
46.26060563
42.01942497
41.95519699
43.85986734
59.13121223
57.94424068
57.83261559
58.09681866
58.08753488
58.9956757
60.74311103
60.88359393
59.82035301
62.59497243
62.55034644
62.41455174
62.55915612
59.6420067
61.44188391
62.09234683
63.79956287
61.4491461
50.34392714
50.34054998
50.61696638
49.79238478
50.0646675
49.95214191
51.62462643
51.35616725
51.54346156
50.8931303
51.14523808
51.34698187
45.3891503
45.51345177
45.94848582
43.33047411
44.12978981
44.18571772
46.13261958
46.204108
46.29710416
46.33037561
44.48820202
43.80719217
44.65215483
44.07263553
45.80509608
45.6809112
43.69710901
47.83994551
41.19000557
41.81869232
40.47441712
40.73668914
48.23600265
47.37095404
47.11427322
42.65072835
44.60520303
48.5889156
52.84450849
36.98669104
36.96937688
36.99867216
37.02448881
36.99858212
37.02782532
37.0206826
36.99791021
37.01302808
36.97312367
36.9639615
36.95590756
36.89104036
36.91513829
36.86841535
36.80602175
36.87032814
37.08307625
36.99987706
37.10076337
37.12916103
37.04174678
37.1280385
37.10869798
37.0353367
37.09552156
37.0372688
36.98332529
37.01229795
36.92169941
36.89311341
36.88759797
36.78342256
36.79255257
37.34391841
37.12759955
37.36506135
37.37938066
37.17389977
37.36416177
37.31380555
37.14632253
37.28738508
37.18929926
37.0651852
37.15063604
37.02149799
36.93982899
36.97499591
36.82896106
36.78817708
37.91984281
37.43631992
37.9570055
37.95734884
37.47012775
37.87926272
37.73321927
37.39506011
37.67285476
37.48112625
37.24665802
37.4152598
37.21812797
37.06064663
37.15096151
36.94817858
36.85094068
39.5921692
38.13549228
39.61594744
39.39639503
38.13207833
39.06184254
38.5598929
37.89389004
38.39718357
37.98547531
37.5834883
37.86475783
37.5427989
37.28597096
37.44002128
37.14513179
36.98867038
41.03750765
41.10595638
39.95322883
40.52927738
39.8599884
39.4109741
39.64379657
38.76136791
38.1505863
38.54206353
38.00086655
37.64520336
37.84547644
37.42473678
37.20579785
44.15737266
42.8572177
41.61350137
41.33802859
39.76638588
38.98722906
39.41464878
38.59076003
38.14239544
38.36597616
37.77367021
37.50459812
48.33458617
45.79092507
44.72228856
43.0041515
40.82631537
40.01426738
40.34671543
39.22855937
38.73683303
38.93011426
38.15826416
37.86593158
50.85200857
47.89323103
47.22618729
44.31505101
41.77608679
41.05325494
41.19944652
39.85594016
39.37519936
39.48794903
38.54341266
38.25410326
52.0308521
49.07829325
48.75016352
45.23930235
42.57860667
41.9799626
41.93452542
40.40539514
39.98512593
39.98668974
38.89272535
38.63544839
52.51393254
50.1269585
50.01714486
42.7357934
40.52658324
38.96843807
46.70531169
47.99461745
49.13017706
43.0963487
43.87616634
43.44430245
50.61604382
52.54604926
53.00958809
49.48293919
50.4450662
48.55184748
52.48820748
54.09777761
54.32721493
53.13495998
53.48250827
51.52423783
53.24010825
54.23697128
54.28388735
53.92837996
54.00119138
52.85668481
54.31573709
54.3593647
53.4009596
50.40010317
51.53295054
51.68280327
41.06896528
51.98560717
49.65430777
41.84033632
41.98954645
42.60091123
39.85300204
41.03674458
40.73646781
50.21921754
50.90573121
51.47096537
44.90201781
45.58193812
45.12124983
44.3938237
43.17352652
44.71172138
41.62940245
42.58442046
43.2468414
41.25513443
41.91026395
41.08424241
55.46898342
54.06583274
53.77798708
57.3801014
57.29801108
56.63615346
46.96619767
46.09490279
48.73247001
43.70878281
45.07318197
45.58576361
43.89623122
44.50080743
43.21587192
54.37201865
52.5952862
52.76631839
51.57368884
51.45831005
53.86066411
48.58449152
48.1007618
51.05100918
45.30734867
46.84738817
47.16012949
46.06079774
46.46975935
44.95361782
55.65571316
54.1005328
54.36506383
50.88938791
51.62060392
55.15194586
39.66330204
39.52243971
39.58904283
56.37997048
53.83624413
54.80111762
55.8027074
55.9116932
56.28322437
56.25907741
57.42580552
57.42306241
52.02700242
52.58835094
51.55149545
46.31239866
47.58737874
46.16699112
50.70455778
49.40542855
48.77462545
52.68055423
52.20302914
54.26331019
54.05882906
51.85056008
51.70857427
53.47860619
53.22334114
54.97812119
51.7536604
52.37324228
50.01446604
55.80089759
55.27044233
55.15815233
56.03786952
55.98494661
55.40757164
55.82985767
53.50954427
53.09353776
55.06438417
54.83980724
56.24485288
48.7306445
50.73071892
51.52788317
54.73024287
49.70337386
50.63878559
52.88305153
52.98386545
54.6082837
53.88648923
54.05732919
52.34411785
55.84810122
56.24963826
56.25048
54.97821163
54.91440788
55.94516281
55.23376305
56.11790999
56.0834849
56.25053034
56.24750538
55.42689833
51.76290943
53.57279501
53.82430329
56.15341153
55.56621341
55.69237927
54.57396276
54.77337897
55.89256506
55.06303826
39.97450617
47.81428778
51.51385432
49.07588632
49.87131813
49.22702582
52.10424968
46.36015462
47.90674463
48.07866045
47.45085481
47.68358477
46.12693915
48.96316051
41.2375633
42.81019857
45.43105642
45.82748366
48.81222849
45.97247296
44.5088491
43.30116356
48.08150112
47.44161066
48.58128334
44.05372541
44.52662326
45.86213976
47.47013127
44.22713451
44.77398316
41.02726588
41.39883005
44.74538499
54.1563561
54.20435849
53.18957393
56.23794146
55.34653586
55.04151291
55.35308858
55.34771804
56.24848547
56.11000326
55.02088157
54.99387348
55.04484552
55.03121763
56.12713629
52.94310072
54.05533225
54.11167869
42.49417145
43.35314838
43.58097385
44.00598485
41.46545595
42.40440774
42.23609704
42.51938057
42.52446447
41.45912189
49.32339883
52.01744174
49.05349493
50.59870037
46.97677799
45.41279387
54.54919741
53.09334808
56.73877776
45.80058129
47.15085601
48.75887282
56.18805374
56.03992794
56.42086419
56.65265355
56.57937165
56.44445388
52.17573044
52.18581401
54.13994702
54.03125598
51.98318423
52.12720696
53.50702062
53.82645741
55.56815256
41.28643516
43.49167722
42.98743279
46.72962036
46.25711562
42.40371357
42.55047158
42.30348638
41.57218809
55.26889764
51.87548188
52.20934632
51.8588331
47.37181794
48.33379073
43.49697997
44.74231775
51.2128226
56.01620985
56.31732727
54.75655336
53.62212608
55.20589839
55.63605327
52.79447446
52.63687013
54.53414591
54.81844657
53.02420169
52.93482891
55.7522772
55.64761741
55.76098484
53.276008
54.49077434
54.65370017
54.08713417
54.30940349
53.07844406
53.93806489
55.06156514
55.17201528
54.80258709
54.93922095
53.79618978
55.45451928
55.91934862
55.84248763
54.20895615
53.84885863
55.96296948
51.19828406
52.39658538
52.72888154
51.65089228
52.03624563
50.85790046
52.37384904
53.60584716
53.86590555
53.04772927
53.33012734
52.1081847
56.28125309
54.79518144
54.47473979
48.3281854
49.31581165
55.33474868
54.90815211
53.47644127
53.59687354
45.07547729
52.04643625
52.38859612
52.98404516
52.55056846
45.64916654
55.95064161
54.95906228
55.13112299
42.98026341
40.55444045
40.70300882
41.23908048
40.91922092
41.00272255
49.22988785
39.75731594
41.46450075
40.69858502
42.9255428
43.71090095
44.19115722
43.74245747
42.83347436
46.28288062
44.10478568
45.04264935
45.43122604
46.58817898
43.01792678
43.97774689
43.64451579
44.1803454
44.13796457
43.1098228
54.80832655
54.40742163
55.67442207
56.69828792
57.17992397
57.06404545
52.29492344
52.43818381
54.28729362
45.38585926
49.09773014
48.84014061
49.89460597
49.48912371
45.4989959
53.8254698
51.36908962
51.36390907
57.14115457
57.3291818
56.03119059
50.63650801
50.00835672
51.60850125
47.97608762
48.83985358
49.36890742
47.74512588
48.30901555
47.50485805
49.72578992
50.80775868
51.24442575
49.86850707
50.35388702
49.31224309
53.93827126
51.7182991
51.18428476
52.1529093
52.00251492
54.1439002
54.86093052
52.98374701
52.8731175
46.1774791
50.33551799
50.16687141
50.57576443
50.45492775
46.27620745
54.66778942
53.05518724
53.14221183
56.24472447
56.24734214
55.8800014
54.86524158
55.75213331
55.76037007
55.7181299
55.73864566
54.83548529
56.17320535
56.15049382
55.24556136
54.3976853
55.43431305
55.50159035
55.27052761
55.35782744
54.30379678
54.69516968
55.65547692
55.69123705
55.5610324
55.61281198
54.63757586
55.39283217
56.21655977
56.20223884
55.28773119
55.43604151
56.11109562
48.70057118
53.72345222
53.40841496
54.34087522
54.04199794
50.75261674
50.35682006
52.90741955
58.71475415
39.9780011
39.69068215
39.55260419
40.10996799
39.83204544
39.78971247
49.42525434
41.68020713
40.22515282
40.32024905
40.30781438
40.23797208
40.92964421
45.45233352
41.88933617
42.42659233
53.11777901
55.45917007
57.23522698
52.95585474
54.68698682
52.39566365
58.12311759
59.52431554
56.48953073
49.09679506
50.59402012
52.1184383
48.45704868
49.64170787
48.48097885
53.9012068
51.3233639
50.22399078
56.28216297
55.64872345
55.29846767
56.90769714
56.77742713
56.70925709
48.74638028
48.71268783
45.74541275
54.16935064
52.1954433
52.22771262
51.48915589
51.73683989
53.95311253
44.49069623
44.02376207
41.35447879
50.94327794
47.99165367
48.40764911
46.97705222
47.50285086
50.62957975
48.19024502
44.10520602
44.61215273
43.36881204
43.64545354
47.68629693
49.75790846
45.9462973
46.43051172
45.09984447
45.50700684
49.37373603
41.92558539
42.17486892
42.10438763
39.51643312
39.65769586
42.63658385
41.65468356
39.68601716
39.85144527
39.54989366
39.58220084
40.98860839
55.09957291
56.62079016
56.88029913
54.17685081
54.69957377
53.19248606
58.73506334
56.76627411
56.22732381
57.60205674
57.26348
59.18048796
54.42671536
52.47483096
52.31385631
52.93287848
53.02420318
54.85851247
44.62520758
43.05152004
42.88241324
43.65204058
43.34552643
44.41222687
46.46605885
43.08617978
43.19237054
42.86390493
42.96711839
45.99241682
40.49554395
40.50860066
42.43599279
41.24860886
40.69685512
40.56975201
41.37132574
40.61711943
40.80275074
39.61958231
40.01949919
40.62072472
39.09891065
39.53747806
39.21397694
48.24264483
48.37249485
46.8648107
56.39502805
55.36698011
55.35636491
55.39719322
55.37646275
56.21902277
44.62754484
45.53408177
45.90142933
44.92177187
45.48711774
44.39164014
50.10398206
46.35847091
46.30294407
47.2961143
49.76016354
56.1163999
44.93054943
45.87132379
45.59319006
46.15119962
46.10581511
44.94568146
41.98902219
41.78056486
41.27820916
43.00391247
42.26116166
42.40720238
49.84025874
50.36750179
49.9264039
53.74534767
51.86218759
51.13949628
53.2764714
52.52456478
54.5161464
43.85448239
41.05655789
41.53695517
40.18017011
40.54781361
43.23287485
39.83449631
39.45803074
39.44889664
52.48698814
54.85486666
54.60631691
55.27786657
55.07304014
52.97981554
56.91942176
54.61943655
53.93611164
55.72060223
55.15499704
57.31994898
51.90431837
53.12082637
53.64838859
42.18109843
40.22741981
42.55216907
42.14103567
43.69072468
43.23767154
40.48403718
49.1250655
46.62454256
46.53968808
46.02382234
46.60491652
47.18134589
47.60558469
46.69606996
46.07205902
43.02135542
43.60525959
46.9899582
40.06418634
40.72027636
40.49834242
41.52464052
41.15885303
40.00309631
42.66228014
43.00451767
42.90920034
43.27332864
43.22883295
42.75405528
44.56631689
43.70073255
44.17620735
51.96026051
49.66360364
49.91581696
48.85055995
49.21938497
51.69641767
41.929072
45.61087354
45.06636468
53.23199568
53.34991813
54.83948393
46.88491482
50.97807736
50.74340829
51.52123502
51.269541
47.38584286
44.14711806
44.86751966
44.59833548
45.43374195
45.22213708
44.39933338
47.40111585
45.9623222
46.44385366
36.98385271
36.99413976
36.99505972
36.99822224
36.99591212
36.99565581
36.986819
36.97393245
36.98955327
36.95835701
36.94245949
36.97986514
36.92730693
36.91387854
36.97030269
36.90298833
36.89223758
36.96333269
36.88417941
36.87808461
36.95883741
36.98374531
36.99180896
36.9868143
37.00666344
37.00760907
37.00213207
36.99523995
36.98870303
36.98672757
36.95004544
36.93267184
36.93999605
36.88741151
36.87185006
36.891629
36.79060398
36.76300052
36.82281812
36.74173287
36.72535377
36.7992958
36.71329507
36.70716685
36.78419973
37.0348682
37.04806088
37.02524283
37.06629034
37.06480787
37.04418511
37.04450785
37.0317611
37.01536101
36.97600588
36.95156815
36.9412366
36.87065184
36.84130407
36.84039817
36.75060462
36.67440896
36.7125046
36.62938348
36.5957082
36.65628268
36.57056314
36.55537708
36.62272645
37.20490505
37.22204282
37.16074269
37.22294904
37.21552863
37.16694615
37.17344596
37.15170953
37.11189403
37.06896952
37.03592979
37.00759228
36.92132908
36.87965429
36.86341226
36.78066487
36.65893674
36.65550833
36.56931235
36.50471456
36.54423211
36.45611265
36.42312602
36.47956076
37.60419882
37.61255497
37.481806
37.57247227
37.54327542
37.45311216
37.44788028
37.40554454
37.32657617
37.2629002
37.21252518
37.15639633
37.05069839
36.99441236
36.95816229
36.87826239
36.69470178
36.67028211
36.57752202
36.46585123
36.4781867
36.37865722
36.31692805
36.36068123
38.52878228
38.52992729
38.22065691
38.34178058
38.24300684
38.06870004
37.98147982
37.88696026
37.73696733
37.61312728
37.52858224
37.43356316
37.27868629
37.1981549
37.13838577
37.04964322
36.78853491
36.73352732
36.62250978
36.47671482
36.4683554
36.3436504
36.24097477
36.26898066
40.23547602
40.28694243
40.0432342
38.94629967
38.7199513
38.46567383
38.17802408
38.02664561
37.8837599
37.62737377
37.50602926
37.42135969
37.29418025
36.93539645
36.85500355
36.71037255
36.51869716
36.49420027
36.34840248
36.1968074
36.21008958
43.01317265
42.7117546
42.25210222
40.46477317
39.97446886
39.61981371
38.96537086
38.71512438
38.51823133
38.09748244
37.92051912
37.81235203
37.59562465
37.12762527
37.02479737
36.8336465
36.58464152
36.54878455
36.37110943
36.17618682
36.18071117
47.42990656
46.566408
46.12251743
42.20155458
41.41583938
41.05332391
39.87776271
39.51346454
39.28787871
38.64302432
38.40152577
38.27486209
37.92980332
37.34822146
37.23446589
36.97810477
36.66769988
36.62397289
36.40632419
36.17470283
36.17304233
50.37723067
49.32051299
49.04684933
43.71127366
42.73431329
42.4275179
40.79351662
40.32622293
40.09371204
39.20779005
38.90046882
38.77723266
38.26602473
37.57054792
37.45883338
37.1277176
36.75891274
36.71216716
36.44977604
36.18288695
36.17794089
51.81998264
50.79728249
50.65423488
44.82371046
43.77688564
43.54286993
41.59601453
41.05761751
40.84987471
39.74235073
39.37742557
39.268241
38.56985401
37.77249003
37.67450263
37.26686619
36.84758553
36.80289729
36.49655111
36.19404742
36.18877519
52.42875723
51.46860905
51.42137302
45.58397801
44.52678731
44.38226534
42.24035384
41.66344589
41.50352486
40.21973822
39.80743806
39.69718857
37.86053263
36.88636861
36.20078344
40.26200992
45.66645956
45.18708507
45.86080011
48.76234012
48.44870953
49.48550975
50.52386426
50.35650635
51.40216321
56.42728534
56.2924944
56.35740292
54.09539723
53.83699985
54.84957831
55.91802854
56.04901219
56.04743261
55.89847038
55.90778947
55.33121443
55.50797533
54.52384649
54.29530424
56.04507694
56.03656486
56.12689863
56.22670965
56.23050398
56.00954372
55.25083862
55.88724921
55.89148357
56.40607176
51.34939335
51.29199879
52.25156712
44.62794998
44.20674636
43.78978094
56.20653047
56.17026137
56.16590255
56.09548739
56.10800866
56.28119704
56.07005594
56.21386941
56.21841919
56.17527249
56.17950562
56.15792765
41.42931893
41.72847972
41.75828034
41.74652116
41.75425421
41.54102123
47.48652866
46.31695665
45.59321318
56.01048209
56.02317107
55.68994561
55.54785581
55.98018209
55.99568993
55.50291868
55.36161011
56.16896984
56.31154219
55.73974952
55.61714352
53.72156888
53.7995059
55.07652156
43.87953756
47.72322264
47.30247407
50.03454648
49.70491697
46.7212071
52.05977317
51.7811622
52.20499638
53.26765904
52.58558325
52.28041677
55.92498217
55.91212562
55.29314351
55.3563413
55.95195261
55.93692637
48.10904053
50.71756609
50.38137189
41.83893794
41.42789352
41.57307661
56.32921353
56.07248481
56.08337637
53.43487355
54.39224949
54.42829778
41.11341054
41.62907304
41.48945025
43.35755592
42.96885528
43.08942638
56.31047685
55.99883503
56.09581466
45.44678888
46.0147353
45.51657118
45.19419802
44.56873425
44.68562729
36.97715544
36.97141447
37.00898087
36.99884916
36.9893258
37.01196972
37.00612149
37.01771118
36.99565449
36.99918364
37.00388411
37.02844074
37.01638368
37.01523925
37.00966465
37.01472113
37.02629617
37.00056505
37.00622446
37.00189305
37.00278686
36.9936661
37.00267341
36.96691447
36.9820605
36.98994931
36.97471482
36.97712621
36.96419449
36.93519092
36.93261945
36.95173094
36.89296947
36.91406904
36.91501526
36.92694044
36.91818258
36.90170241
36.84553511
36.8563692
36.87580067
36.82314261
36.84028797
36.82586443
36.8802513
36.8587754
36.84504078
37.04630076
37.01932693
37.11509161
37.07676107
37.06337924
37.09357221
37.0873754
37.12554634
37.03502142
37.0576791
37.06437803
37.1244652
37.09170446
37.09417344
37.07850685
37.08698207
37.11844077
37.04163402
37.06139975
37.05427281
37.07914706
37.05277879
37.06717539
37.01486047
37.03551363
37.0598271
37.00124091
37.01621401
36.99708618
36.98433712
36.96588175
36.9919582
36.90776976
36.93802085
36.95430384
36.91851604
36.92600354
36.89821843
36.85237332
36.84503858
36.8767449
36.78170533
36.81380337
36.81752571
36.8158881
36.81236417
36.78455459
37.25237933
37.18617394
37.3801213
37.28976078
37.27508684
37.29376812
37.2935531
37.38614721
37.17104722
37.22966183
37.22850371
37.34941788
37.28158609
37.2910782
37.24779631
37.26659611
37.33503258
37.15857682
37.20575813
37.19180447
37.25752972
37.20005975
37.22552402
37.14048535
37.17170813
37.22468648
37.09009964
37.12694153
37.09922012
37.10910005
37.07057141
37.10682625
36.98882145
37.03104216
37.06614317
36.97511311
37.00052115
36.96200203
36.92704474
36.90098133
36.94556731
36.81049999
36.8557919
36.87813301
36.82534781
36.83825876
36.79768058
37.70311196
37.57141081
37.96638938
37.77430563
37.75056664
37.73097809
37.75066897
37.97691831
37.47549358
37.62096186
37.60976931
37.82403568
37.70365038
37.72999083
37.60135782
37.65008035
37.78710926
37.42475897
37.52119301
37.48719087
37.61106699
37.49889061
37.551243
37.39060271
37.44548889
37.54706867
37.2884072
37.36024295
37.31232123
37.35071159
37.27660186
37.33395828
37.15846283
37.21818109
37.28524412
37.10965679
37.16049839
37.10603834
37.08398844
37.03653332
37.09815229
36.91053899
36.974007
37.01660328
36.90510218
36.93716704
36.87904623
38.86092973
38.48190026
39.66495745
38.96887305
38.95097708
38.77652453
38.8661539
39.52147108
38.17697155
38.54389403
38.49380759
38.88435446
38.60547298
38.73501769
38.30259794
38.4359754
38.73520572
37.97396908
38.17283613
38.0787383
38.24972847
38.0532232
38.17584872
37.83305025
37.93911319
38.11403735
37.65917206
37.79412979
37.70209079
37.75315565
37.63336337
37.73225169
37.4471873
37.53754689
37.64715385
37.3591058
37.44559485
37.36190612
37.34009801
37.26781526
37.35813936
37.08769928
37.17789205
37.24236818
37.06353155
37.11841282
37.03711764
41.0909495
40.72500808
40.69800124
40.6530591
40.69262437
41.17017729
40.01577981
40.36152508
40.33196024
39.29821307
38.99223475
39.27932564
38.53626256
38.74826624
39.00873081
38.29891176
38.52093017
38.3423842
38.34524493
38.17610151
38.34638096
37.87495125
38.02029684
38.1659717
37.76149257
37.88609772
37.75414349
37.69874826
37.60237089
37.73576601
37.34507571
37.47233773
37.55973837
37.31325382
37.38898635
37.27383533
43.7060631
43.19556571
43.52664853
42.38076476
42.76902752
43.22328043
40.69239704
40.32352021
40.89959728
39.48481668
39.8635262
40.18200821
39.27560646
39.57755752
39.24888494
39.10782456
38.88638367
39.1627335
38.42390367
38.64341492
38.83565288
38.32228128
38.49068342
38.28669241
38.15710492
38.03084726
38.22082831
37.67835651
37.85069448
37.9604368
37.65601234
37.75240981
37.59161051
47.38823493
46.98213177
47.88592623
45.43669182
46.1621598
46.53329365
45.37972824
45.78272416
45.11697935
42.1076497
41.7639725
42.61649576
40.53945434
41.09007351
41.3994
40.48150767
40.79748148
40.29701728
39.92739772
39.69056806
40.07852069
39.0534238
39.35432031
39.55724374
38.99752101
39.19188082
38.90461099
38.65540278
38.52417889
38.77896873
38.05869825
38.28493682
38.39926275
38.06498393
38.17567772
37.96258688
49.79669948
49.56199682
50.62260026
47.69459294
48.58279445
48.81281053
48.08824408
48.35172098
47.45993503
43.28807831
43.02285725
44.03542151
41.54212595
42.20980829
42.46100919
41.67321927
41.955863
41.32306735
40.70160955
40.48955568
40.97639963
39.68866536
40.06503414
40.25833261
39.71527601
39.91096004
39.54283159
39.1508913
39.02773267
39.34642954
38.44817853
38.72909817
38.83730913
38.50764828
38.61524853
38.3485413
51.02174421
50.89588792
51.9180832
44.18297602
43.98909055
45.05834201
42.36917595
43.10744825
43.31505742
42.6882285
42.92575231
42.21221988
41.36479078
41.20121902
41.7433234
40.27637382
40.71611298
40.86131931
40.39099503
40.58115341
40.14417864
39.59783608
39.49667228
39.87254469
38.81212904
39.14427935
39.23383232
38.94237559
39.03765037
38.71984147
43.48996815
43.64517523
42.89163072
40.99205303
41.13976045
40.66141434
39.32214939
39.41915553
39.04973998
48.38482082
47.70846605
47.30025361
48.37127886
48.00160548
48.7655096
52.71506915
51.75359237
51.57411154
52.0775521
51.91918757
52.86111769
49.8191756
48.99640889
48.65848397
49.57542979
49.27346206
50.14102511
54.14470079
53.44201938
53.39844856
53.26442366
52.36244407
52.22511597
52.61365797
52.49342774
53.37027233
40.61225967
40.27117666
40.22731264
39.83734073
40.9275614
40.48986566
40.52429869
40.30772061
40.37984096
40.82449721
43.96215727
44.54045346
44.97055963
43.66126283
44.11018554
43.63423124
45.32406504
44.70378171
44.19963126
46.69301339
47.5197717
47.81918975
46.87694097
47.21261257
46.40896377
49.136758
48.12280034
47.76321361
48.45137642
49.36483091
49.53377775
49.00581076
49.20438677
48.26731476
51.24158133
50.1945534
49.99531275
51.13293988
53.19995825
53.06761858
53.49709557
53.36436094
51.39894512
56.16406287
56.23851077
56.40355969
54.19593096
55.63139499
55.45751016
55.91360523
55.77673527
54.51743698
46.74399226
46.27004512
45.7986816
47.00238447
46.56633835
47.17411432
54.5699598
53.616445
53.33317291
51.97620286
51.00075971
50.78006929
51.3898064
51.18465369
52.17331272
56.04923337
56.0454654
55.84879945
55.31565228
55.70258323
55.83470232
55.56432084
55.65596434
55.2102243
55.37263694
55.91882525
55.93305441
54.90140623
54.70109898
55.67428299
54.9960925
55.36527967
55.47843009
55.08792139
55.24178138