/*--------------------------------*- C++ -*----------------------------------*\
| =========                 |                                                 |
| \\      /  F ield         | OpenFOAM: The Open Source CFD Toolbox           |
|  \\    /   O peration     | Version:  v2012                                 |
|   \\  /    A nd           | Website:  www.openfoam.com                      |
|    \\/     M anipulation  |                                                 |
\*---------------------------------------------------------------------------*/
FoamFile
{
    version     2.0;
    format      ascii;
    class       volVectorField;
    location    "1.02";
    object      U;
}
// * * * * * * * * * * * * * * * * * * * * * * * * * * * * * * * * * * * * * //

dimensions      [0 1 -1 0 0 0 0];


internalField   nonuniform List<vector> 
3019
(
(103.2129303 -30.97957922 1.146903252e-18)
(107.4304128 -20.2766691 -5.277335173e-19)
(107.3296545 -14.18206734 1.118630604e-19)
(105.8379758 -9.702000464 3.777465633e-19)
(104.0617654 -6.671402715 -8.534256209e-19)
(102.5734926 -4.767707382 2.612301462e-19)
(101.2406392 -3.468081641 -6.461150163e-20)
(100.5415327 -2.586076029 0)
(99.72793993 -1.794342106 0)
(99.38048739 -1.21981729 1.160356472e-20)
(99.16486465 -0.7137139747 2.13797134e-21)
(99.0539253 -0.2352782735 -6.940000868e-21)
(96.38134594 -20.24884748 -1.672316493e-19)
(102.2749969 -16.64256568 4.639374959e-19)
(103.546524 -12.81086405 0)
(103.1622136 -9.382072998 4.020024613e-19)
(102.2018705 -6.814062742 -2.192854696e-19)
(101.2399086 -5.071327952 -1.137584462e-19)
(100.2819361 -3.740589834 -9.034358971e-20)
(99.77978346 -2.824137238 -3.398365296e-20)
(99.12805198 -1.946888407 -1.890124947e-20)
(98.84883985 -1.328002846 1.863905816e-20)
(98.67319119 -0.7787091183 0)
(98.58191916 -0.2566230043 1.862181516e-20)
(97.90836609 -13.22843549 1.733014513e-19)
(100.2181812 -12.81061412 -1.549587215e-20)
(101.164021 -10.83613673 4.043706582e-19)
(101.1177064 -8.517473236 -5.683203056e-19)
(100.596971 -6.54196679 0)
(99.99559036 -5.084206087 -2.432365748e-20)
(99.33027255 -3.818776863 0)
(99.00702404 -2.930765523 0)
(98.5010382 -2.017500111 -3.524643386e-20)
(98.28620216 -1.385572084 1.739323356e-20)
(98.14998645 -0.8144554116 7.280582727e-22)
(98.07821034 -0.2684331907 -1.283143617e-20)
(98.88130694 -10.12156375 0)
(99.55173698 -10.05664556 -1.236063677e-19)
(99.78025145 -8.986668553 4.934726972e-21)
(99.64111097 -7.480342737 -4.340121943e-19)
(99.29284825 -6.046972507 2.821141131e-19)
(98.90208172 -4.879436737 0)
(98.4517641 -3.747465118 -2.998431133e-20)
(98.26027386 -2.925619771 4.542026062e-20)
(97.87539551 -2.019052448 1.098024328e-20)
(97.71670025 -1.398193062 1.87263324e-20)
(97.61511464 -0.8237609356 -2.127476653e-20)
(97.56065 -0.2715408378 0)
(99.40445702 -8.180011977 -8.676828939e-21)
(99.17895963 -8.125321827 9.392981829e-20)
(98.89248555 -7.465331248 -4.78931243e-19)
(98.5807609 -6.483921941 9.113991901e-20)
(98.26606164 -5.478970744 -1.949657257e-21)
(97.98190877 -4.552708405 0)
(97.67266062 -3.576690703 0)
(97.56327427 -2.833727801 0)
(97.27324768 -1.966381546 3.809187764e-20)
(97.15943157 -1.373697895 -3.56382687e-20)
(97.08540878 -0.810679514 -2.404621602e-21)
(97.0448874 -0.2676073228 2.412705435e-21)
(99.48983006 -6.839683878 -7.318247669e-20)
(98.82232338 -6.732931267 6.632000063e-20)
(98.24541656 -6.274264998 2.220834731e-19)
(97.81054464 -5.626162051 6.130838603e-22)
(97.47294165 -4.902891413 0)
(97.22544246 -4.168681509 0)
(96.99037385 -3.337706298 0)
(96.92845344 -2.679861601 0)
(96.70743571 -1.872229512 0)
(96.62673154 -1.318732778 0)
(96.5737508 -0.7807271464 0)
(96.54372733 -0.2587359855 0)
(99.41756839 -5.775757187 1.162319943e-21)
(98.52364264 -5.664586206 3.183005841e-20)
(97.79402508 -5.354821543 0)
(97.25135557 -4.89758035 0)
(96.86085884 -4.350069453 0)
(96.60866878 -3.765603991 0)
(96.40345442 -3.06430322 0)
(96.36273699 -2.490624181 0)
(96.18600321 -1.752267175 0)
(96.12713644 -1.243545378 0)
(96.08821323 -0.7380904632 0)
(96.066375 -0.2451688232 0)
(99.40595308 -4.922336544 0)
(98.34328623 -4.836834632 0)
(97.47714141 -4.608106354 0)
(96.83271565 -4.265382085 0)
(96.38240974 -3.8419322 0)
(96.10417334 -3.37154423 0)
(95.9027014 -2.780683561 0)
(95.86425493 -2.284925292 0)
(95.71235609 -1.618681981 0)
(95.66588536 -1.156397943 0)
(95.63505276 -0.6878831446 0)
(95.61835471 -0.228923618 0)
(99.39856079 -4.230981991 -2.766556483e-35)
(98.209399 -4.160150208 0)
(97.23843657 -3.984209329 0)
(96.51071537 -3.719689707 0)
(96.00277751 -3.38568743 0)
(95.68922217 -3.00278053 0)
(95.47603443 -2.503527231 0)
(95.42758094 -2.076440794 0)
(95.28627537 -1.480482906 0)
(95.24473677 -1.063759655 0)
(95.21720273 -0.6339987431 0)
(95.20332321 -0.2114044412 0)
(99.38235552 -3.660915051 0)
(98.1026099 -3.599100434 0)
(97.05255156 -3.458938496 0)
(96.25726224 -3.249530561 0)
(95.6970867 -2.981380431 0)
(95.34599262 -2.667058915 0)
(95.11144434 -2.242955114 0)
(95.04597062 -1.874322421 0)
(94.90539434 -1.34404392 0)
(94.86324927 -0.9705146675 0)
(94.8354452 -0.579391427 0)
(94.82255827 -0.1935895779 0)
(99.36034799 -3.183774737 -3.705046473e-35)
(98.0144729 -3.128543021 0)
(96.90378207 -3.013851433 0)
(96.0537381 -2.844482657 0)
(95.44754869 -2.625771834 0)
(95.05994887 -2.364963501 0)
(94.79888684 -2.003207747 0)
(94.71254948 -1.68405247 0)
(94.56617266 -1.213679411 0)
(94.5195881 -0.880099898 0)
(94.48903722 -0.5261600428 0)
(94.47578506 -0.1761653954 0)
(99.33483782 -2.780505163 0)
(97.94000297 -2.730539595 0)
(96.7820602 -2.634783278 0)
(95.88746513 -2.495356531 0)
(95.24123673 -2.314495655 0)
(94.8193324 -2.095887747 0)
(94.53012129 -1.785873118 0)
(94.42094482 -1.508668985 0)
(94.26462622 -1.092095016 0)
(94.21112555 -0.7947669159 0)
(94.17620627 -0.4757102576 0)
(94.16161877 -0.1595968535 0)
(99.30734723 -2.437613207 1.253429109e-35)
(97.87602894 -2.392056545 0)
(96.68073048 -2.310874996 0)
(95.74964394 -2.194426097 0)
(95.06874961 -2.043080202 0)
(94.61523911 -1.858160284 0)
(94.29795355 -1.591207185 0)
(94.16543157 -1.349572533 0)
(93.99672949 -0.9808027312 0)
(93.93483806 -0.715888241 0)
(93.89456358 -0.4289281622 0)
(93.87797637 -0.1441831442 0)
(99.27887813 -2.145054588 0)
(97.82038797 -2.103299071 0)
(96.59520208 -2.033646458 0)
(95.63398991 -1.935221101 0)
(94.92310404 -1.807266248 0)
(94.44079993 -1.649548693 0)
(94.0964196 -1.418569602 0)
(93.9409407 -1.207090677 0)
(93.75859175 -0.8804764634 0)
(93.68754602 -0.6442027163 0)
(93.64139161 -0.3863160604 0)
(93.62237662 -0.1300992757 0)
(99.25009445 -1.895268607 0)
(97.77152656 -1.856818389 0)
(96.52219661 -1.796458537 0)
(95.53591581 -1.712409071 0)
(94.79903717 -1.603230319 0)
(94.29065557 -1.467673476 0)
(93.92060305 -1.266859804 0)
(93.743067 -1.08092492 0)
(93.54653568 -0.7912384799 0)
(93.46605697 -0.5800031619 0)
(93.41382106 -0.348097142 0)
(93.39212549 -0.1174285555 0)
(99.22139987 -1.682370388 0)
(97.72824574 -1.646783033 0)
(96.45926146 -1.593998966 0)
(95.45195356 -1.52154959 0)
(94.69246499 -1.427578383 0)
(94.16051356 -1.310182597 0)
(93.76636884 -1.134720749 0)
(93.56792482 -0.9703843089 0)
(93.35713318 -0.712857816 0)
(93.26725579 -0.5232810553 0)
(93.20894765 -0.3143025979 0)
(93.18444117 -0.10619049 0)
(99.19302579 -1.501718925 0)
(97.6895865 -1.468588867 0)
(96.40450813 -1.422015128 0)
(95.37942169 -1.358986991 0)
(94.6001647 -1.277389857 0)
(94.04689459 -1.174902245 0)
(93.63024518 -1.02074887 0)
(93.41212068 -0.8746070496 0)
(93.1872481 -0.6449176259 0)
(93.0881935 -0.4738482955 0)
(93.02394965 -0.2848465441 0)
(92.99658441 -0.09636528915 0)
(99.16509249 -1.349568544 0)
(97.65475212 -1.318528146 0)
(96.35642598 -1.277046054 0)
(95.31617668 -1.221681761 0)
(94.51951631 -1.150161342 0)
(93.94685655 -1.05986908 0)
(93.50927911 -0.9236045519 0)
(93.27265686 -0.7926811178 0)
(93.03395958 -0.5868982004 0)
(92.9260526 -0.4314145155 0)
(92.85607327 -0.2595731387 0)
(92.82584805 -0.08790853607 0)
(99.1376549 -1.222910925 -1.806571953e-36)
(97.6230648 -1.193618471 0)
(96.31377436 -1.156282664 0)
(95.2604694 -1.107124369 0)
(94.44837946 -1.043787603 0)
(93.85802725 -0.9637043871 0)
(93.40081061 -0.8422380018 0)
(93.14685421 -0.7236961772 0)
(92.89473291 -0.5383048387 0)
(92.77834182 -0.3956455928 0)
(92.70285729 -0.2383039656 0)
(92.6698115 -0.0807694587 0)
(99.11071673 -1.11933191 0)
(97.59393426 -1.091468326 0)
(96.27550507 -1.057456719 0)
(95.21083221 -1.013252305 0)
(94.38496643 -0.9564607696 0)
(93.7785557 -0.8847643565 0)
(93.3024253 -0.7755239282 0)
(93.03229994 -0.666822575 0)
(92.76670496 -0.4985152043 0)
(92.6421893 -0.3661966004 0)
(92.56138716 -0.2208310858 0)
(92.52552284 -0.07487928799 0)
(99.08425644 -1.03687732 0)
(97.56683196 -1.010153538 0)
(96.24069777 -0.9787349569 0)
(95.16597521 -0.9383774071 0)
(94.32764539 -0.8866537321 0)
(93.70638558 -0.8211204433 0)
(93.21228894 -0.7220431219 0)
(92.92673925 -0.6211098853 0)
(92.64930942 -0.4675066319 0)
(92.51704543 -0.3427806105 0)
(92.43117143 -0.2070588773 0)
(92.39264149 -0.07022912263 0)
(99.05825421 -0.9740283631 0)
(97.54128288 -0.948174995 0)
(96.20853331 -0.9186837862 0)
(95.12475554 -0.881180325 0)
(94.27495738 -0.8332276204 0)
(93.63965062 -0.772306805 0)
(93.12867776 -0.6811313707 0)
(92.82833138 -0.5866826166 0)
(92.53459604 -0.4428910519 0)
(92.39405006 -0.3250040932 0)
(92.30296757 -0.1965919762 0)
(92.26139705 -0.06662525546 0)
(99.03266368 -0.9296467369 0)
(97.51683873 -0.9043876873 0)
(96.17826034 -0.8762019067 0)
(95.08614281 -0.8406439132 0)
(94.22563163 -0.7952858022 0)
(93.57702018 -0.73757066 0)
(93.0499202 -0.6522695288 0)
(92.73558295 -0.5625747444 0)
(92.44423667 -0.429807136 0)
(92.29816108 -0.3137976807 0)
(92.20307051 -0.1902719417 0)
(92.15959422 -0.06456710852 0)
(99.00744138 -0.9029134428 0)
(97.49309591 -0.8779704063 0)
(96.14920392 -0.8504932791 0)
(95.04921169 -0.816030993 0)
(94.1785062 -0.7721520218 0)
(93.51722566 -0.7163739514 0)
(92.97791073 -0.6352092153 0)
(92.65148697 -0.5486123899 0)
(92.28007166 -0.4135868544 0)
(92.12009539 -0.3040646251 0)
(92.01743374 -0.1843197425 0)
(91.96988197 -0.06219912959 0)
(102.963154 -31.77822759 3.434163553e-19)
(103.9255517 -31.39911426 -2.144937262e-19)
(108.5257859 -22.28604168 6.044784624e-19)
(95.03466989 -21.38687649 -1.581205407e-19)
(102.6160502 -31.62683906 -8.795327441e-21)
(96.55420821 -21.64055844 -4.670616294e-20)
(102.5194419 -18.85323016 0)
(107.5441004 -22.00996973 -5.20921065e-19)
(96.70143056 -13.66449008 -1.901338772e-20)
(95.02184825 -20.61883656 0)
(107.3697462 -27.0201237 5.615202193e-19)
(97.25153523 -26.87397186 -3.695306593e-21)
(97.76280227 -27.59553584 0)
(98.76713453 -27.09579623 -9.932342627e-20)
(102.9226984 -24.14081386 6.28433513e-20)
(106.1388884 -26.40757357 -4.677665518e-19)
(104.9774364 -32.91520125 4.888431285e-19)
(100.150411 -30.1324194 -4.800495815e-19)
(105.1459004 -33.01988131 -4.870566467e-19)
(106.2316986 -32.80709947 -5.08737827e-19)
(108.6078425 -30.46385487 -1.263863456e-18)
(99.50910642 -29.56105349 1.600047282e-19)
(97.61287084 -14.31748907 0)
(100.0020366 -14.06834025 4.239587198e-20)
(101.548834 -17.57536718 3.044333833e-20)
(105.7730307 -29.27746299 2.556092092e-20)
(107.8771656 -30.20529978 0)
(105.9415053 -32.6806941 0)
(100.0846054 -20.41322057 0)
(102.0514087 -23.24535752 -2.162136739e-19)
(98.25421109 -26.42554133 -2.407605219e-20)
(95.49362637 -16.60890452 0)
(91.86836789 -30.55950513 -1.016300361e-17)
(105.3895747 -33.13904207 -2.119471581e-20)
(90.82327253 -25.07438266 2.82987746e-19)
(96.00914194 -24.58371039 2.795652551e-19)
(94.8729232 -31.49676245 5.22279537e-19)
(97.33898495 -32.10618442 8.775013133e-19)
(104.2159521 -32.51576801 4.218800422e-19)
(91.99967544 -30.89649959 -7.041566119e-19)
(89.51911318 -30.31609343 -2.043245423e-18)
(94.8667917 -31.57789453 3.323167314e-19)
(92.59534325 -31.09037849 -1.70965683e-18)
(80.25940011 -28.1540822 5.21418125e-19)
(96.55956859 -31.54405777 2.404215312e-19)
(95.49976638 -31.69901239 3.099454684e-19)
(96.55503629 -30.77723424 -1.395945237e-19)
(96.67445048 -31.40779618 -2.245711341e-19)
(81.5951007 -28.29538445 6.162071372e-19)
(88.62133789 -30.10728332 1.879184217e-17)
(105.4608818 -33.15400574 -1.153877072e-18)
(92.46400272 -30.76341508 2.163195646e-18)
(93.25253802 -31.06959851 -3.473012432e-18)
(108.6925309 -21.31352396 2.564646222e-20)
(108.8498909 -15.78250737 -1.337151528e-18)
(103.9115992 -32.40223947 0)
(97.76962393 -32.23477585 0)
(98.68927319 -32.16446358 3.494874017e-21)
(100.7791405 -32.2119859 -2.759464733e-18)
(105.0839368 -33.06226138 -6.553766464e-19)
(107.2686613 -33.14426594 -1.179842712e-18)
(109.1354121 -32.18060448 0)
(83.48274263 -29.01079004 2.725159526e-18)
(82.59801109 -28.85829238 -1.394663077e-18)
(79.75240651 -28.07994999 4.447053655e-18)
(84.66534576 -29.15906018 2.898180592e-19)
(83.22607595 -28.94871861 -2.747331131e-18)
(95.93083351 -29.57142263 1.199816961e-19)
(96.41130934 -30.56156621 -1.067031544e-19)
(95.38447332 -30.98253064 3.518950345e-18)
(96.30824666 -31.37868017 4.032290725e-18)
(94.97314211 -31.06137601 -3.154717671e-18)
(90.60078855 -30.53379918 3.170838476e-18)
(86.02116051 -29.5517996 -1.857818162e-18)
(86.61431005 -29.69812269 1.282554345e-18)
(89.27460212 -30.3167081 -3.812379691e-18)
(93.99620848 -31.40413119 4.402523725e-19)
(87.48781622 -29.89625689 -7.217804847e-20)
(89.20989361 -30.30790576 -3.387972781e-19)
(86.50549918 -29.64731887 -9.82608486e-19)
(86.00441087 -29.62208768 -7.834363658e-19)
(93.15538243 -31.29993558 -1.115091677e-18)
(87.4268831 -29.85672558 0)
(86.36518057 -29.54812328 4.137080761e-19)
(80.56499582 -28.22971871 1.118083073e-20)
(83.0076703 -28.56313944 -1.373427816e-19)
(89.12946929 -30.01877116 -3.910165338e-19)
(88.34058852 -29.92273516 0)
(92.32497979 -30.76858642 -1.671154751e-18)
(98.08985945 -32.03107878 -5.770534322e-19)
(97.60369859 -31.80027303 -1.283163698e-18)
(99.26973991 -32.38586689 -4.885692618e-19)
(98.54622332 -32.26607894 -5.169006493e-19)
(91.82249005 -30.77995319 6.329758147e-18)
(108.4928265 -14.32423342 -1.473473008e-20)
(107.1088086 -10.64819713 2.85988976e-19)
(106.5868141 -9.638062793 -2.938100902e-19)
(105.032059 -7.188113956 -2.694156939e-19)
(104.5486385 -6.542754563 1.34151461e-18)
(103.2708014 -5.022381355 5.350550896e-19)
(101.1419433 -29.54633308 -3.074783282e-19)
(103.204257 -27.6125265 2.924937848e-19)
(105.1008707 -28.90403961 0)
(103.2340078 -17.67046415 0)
(104.2984062 -14.30862341 -3.574098119e-19)
(107.5545529 -15.56458742 6.216870952e-19)
(104.3514976 -13.24309911 1.013445273e-19)
(104.0032184 -10.36162949 0)
(106.2718162 -10.6772263 -1.39468936e-19)
(103.7738867 -9.528576647 2.416810178e-19)
(102.9369493 -7.410223942 -1.068526616e-19)
(104.4907404 -7.308053215 8.577544561e-19)
(102.646747 -6.825562338 -4.666437864e-19)
(101.8223868 -5.406701033 0)
(102.9088123 -5.157810417 0)
(96.63215662 -16.83827064 -3.26220293e-19)
(98.88501489 -16.88413971 -9.503547206e-20)
(99.6682748 -19.45618313 0)
(100.5330897 -13.67063791 -4.120637523e-20)
(101.5096992 -11.98404348 5.003869364e-20)
(103.4430522 -13.7621923 8.290384863e-19)
(101.6456014 -11.33297087 -6.373130679e-20)
(101.6644805 -9.37826968 -2.727232562e-21)
(103.3464636 -10.16494634 0)
(101.5704223 -8.760277127 -3.013220665e-19)
(101.1389277 -7.112797014 0)
(102.4549353 -7.371502566 0)
(100.9712063 -6.639194553 5.484115009e-19)
(100.4590287 -5.443237447 1.548669736e-21)
(101.4682953 -5.444121785 5.544616497e-20)
(97.9958523 -10.39047561 0)
(96.7652541 -12.53949654 -3.629486181e-19)
(98.65535987 -10.76074165 1.206915751e-19)
(99.46080945 -10.79374435 6.735368242e-21)
(99.77542696 -13.11201474 1.59285343e-20)
(99.66526322 -10.65225489 -1.368229257e-19)
(100.0199529 -9.798851227 -5.957017116e-19)
(101.0421425 -11.40433021 -2.059597239e-19)
(100.0616245 -9.422588108 2.9737442e-19)
(100.0257802 -8.167182073 -2.282097998e-19)
(101.1951175 -9.082501722 8.191266434e-19)
(99.96509803 -7.741405039 4.856474103e-19)
(99.69598599 -6.543179141 -2.780508874e-19)
(100.7450488 -6.987521524 0)
(99.59109525 -6.182566255 -1.503029107e-19)
(99.26284458 -5.229778786 0)
(100.1423465 -5.407622906 -5.032394267e-20)
(99.38070838 -8.523184849 0)
(98.40164848 -9.88090715 0)
(99.3271223 -8.589673107 -1.601107788e-19)
(99.28767153 -8.634552671 -1.870979242e-20)
(99.40319897 -10.16616201 -1.376719102e-20)
(99.26262467 -8.545223171 2.06498393e-19)
(99.14362518 -8.0465769 1.729582695e-21)
(99.76502919 -9.317773837 -1.560233235e-20)
(99.08708543 -7.812524034 3.089611649e-20)
(98.88921996 -7.0070693 -8.071380107e-19)
(99.70195612 -7.866856789 4.299543605e-19)
(98.81490264 -6.722943312 7.784526799e-19)
(98.57873523 -5.886169996 2.361958995e-19)
(99.38883854 -6.381092774 -2.743582111e-19)
(98.4987532 -5.622621749 3.463512426e-20)
(98.26506935 -4.875367661 0)
(98.99499988 -5.150227687 0)
(99.75199739 -7.058356936 -2.251094489e-19)
(99.56717044 -8.111257129 8.254059714e-20)
(99.49297851 -7.143357091 2.120276983e-19)
(99.05760557 -7.112835227 -7.706275973e-20)
(99.24147335 -8.210655536 1.24741872e-19)
(98.91224192 -7.044672372 1.275276412e-19)
(98.50683604 -6.69366477 3.238488356e-19)
(98.96743706 -7.675233045 8.191738954e-19)
(98.38843031 -6.543527387 -2.860419801e-19)
(98.07314407 -6.015725547 0)
(98.66001191 -6.740821321 8.355563183e-20)
(97.9799555 -5.825926601 0)
(97.72794407 -5.243081911 0)
(98.34387229 -5.72253312 -1.138308041e-19)
(97.65201933 -5.045995138 0)
(97.45418082 -4.458082224 0)
(98.04641116 -4.775108753 0)
(99.68998986 -5.988102502 2.569520899e-21)
(99.74503996 -6.765184849 -6.259519921e-20)
(99.43641446 -6.020215864 -4.94884495e-20)
(98.78555855 -5.962246948 9.768557736e-23)
(98.98714473 -6.796374104 1.860345359e-19)
(98.58727669 -5.904724619 6.313454217e-22)
(98.04440961 -5.666920713 7.032597324e-20)
(98.37549256 -6.409463026 -1.827801223e-19)
(97.89011029 -5.56487953 -3.032102095e-21)
(97.49032923 -5.205031047 0)
(97.90804767 -5.798328397 0)
(97.37576828 -5.070350056 0)
(97.08189591 -4.63621468 0)
(97.54971844 -5.087262122 0)
(96.99974629 -4.484623833 0)
(96.80110727 -4.020495414 0)
(97.27738017 -4.348847649 0)
(99.69162849 -5.112345023 0)
(99.67763871 -5.75381005 2.088356553e-21)
(99.40660525 -5.118808582 0)
(98.62420057 -5.066543537 0)
(98.73445114 -5.715506267 -3.221176966e-20)
(98.38262634 -5.02800527 0)
(97.73560503 -4.856361165 0)
(97.95735521 -5.448337041 3.851144482e-21)
(97.54772081 -4.782182702 0)
(97.06359616 -4.516096986 0)
(97.37164214 -5.022643942 0)
(96.92694096 -4.414903022 0)
(96.58444415 -4.082558546 0)
(96.94543199 -4.492344534 0)
(96.49159004 -3.964220474 0)
(96.27402051 -3.594277958 0)
(96.65871231 -3.911700201 0)
(99.7154191 -4.390252615 0)
(99.6993643 -4.917515737 0)
(99.40134942 -4.391034754 0)
(98.51307723 -4.347197528 0)
(98.59359596 -4.872848446 0)
(98.2398915 -4.317290828 0)
(97.50635483 -4.186474773 0)
(97.67220775 -4.677137811 0)
(97.29237631 -4.130101523 0)
(96.73978269 -3.926693801 0)
(96.97446503 -4.360004771 0)
(96.58388755 -3.848601142 0)
(96.19474582 -3.5886964 0)
(96.47821589 -3.953450533 0)
(96.08992449 -3.494802508 0)
(95.84536457 -3.196454602 0)
(96.15857993 -3.491388334 0)
(99.71941649 -3.796376984 2.380080817e-35)
(99.71798736 -4.231219278 2.772000729e-35)
(99.38705605 -3.793807312 -2.375396543e-35)
(98.42376876 -3.754391909 0)
(98.48907599 -4.18845928 0)
(98.1273054 -3.730039418 0)
(97.32910635 -3.626361667 0)
(97.45793183 -4.037124519 0)
(97.09504771 -3.582098179 0)
(96.48750538 -3.422258165 0)
(96.67094872 -3.793159649 0)
(96.31533829 -3.360574714 0)
(95.88419416 -3.153382187 0)
(96.11059015 -3.474522053 0)
(95.76764316 -3.077732749 0)
(95.49374367 -2.834398226 0)
(95.75094174 -3.102033268 0)
(99.71052435 -3.300048905 0)
(99.71817439 -3.664077542 0)
(99.3662529 -3.295506105 0)
(98.34895427 -3.259218195 0)
(98.40389718 -3.622354957 0)
(98.03507072 -3.238778398 0)
(97.18776583 -3.154144349 0)
(97.2908776 -3.500790301 0)
(96.93811688 -3.118443964 0)
(96.28647206 -2.989876659 0)
(96.43306387 -3.307871334 0)
(96.10071043 -2.940167762 0)
(95.63283616 -2.772164376 0)
(95.81644299 -3.053215119 0)
(95.50544546 -2.710340753 0)
(95.20292199 -2.50954698 0)
(95.41591629 -2.749349709 0)
(99.69358813 -2.880955352 -3.204640215e-35)
(99.70690289 -3.18867521 3.712356698e-35)
(99.34144925 -2.875202312 3.198336179e-35)
(98.28471119 -2.841520818 0)
(98.33201439 -3.14817459 0)
(97.95753354 -2.824013835 0)
(97.07226391 -2.753405976 0)
(97.15676958 -3.047802069 0)
(96.81036122 -2.723999052 0)
(96.12315203 -2.618584946 0)
(96.24252651 -2.891711193 0)
(95.92607246 -2.577838865 0)
(95.42647304 -2.439579222 0)
(95.57748272 -2.684675207 0)
(95.28932341 -2.388403439 0)
(94.95998888 -2.220905223 0)
(95.13813469 -2.433743242 0)
(99.6715947 -2.524793531 0)
(99.68847645 -2.786483578 0)
(99.31434428 -2.518273292 0)
(98.22864018 -2.486892754 0)
(98.27000091 -2.747422852 0)
(97.89116951 -2.471678394 0)
(96.9760865 -2.411803951 0)
(97.04660884 -2.662874935 0)
(96.70442907 -2.38717946 0)
(95.98832494 -2.299394028 0)
(96.08706548 -2.53421726 0)
(95.7818096 -2.265514552 0)
(95.25493588 -2.150276095 0)
(95.38065387 -2.363398137 0)
(95.10911601 -2.107436528 0)
(94.75519466 -1.966341762 0)
(94.90554611 -2.153885875 0)
(99.64643095 -2.220917976 -1.085291122e-35)
(99.6655431 -2.444275959 -1.255893589e-35)
(99.28604558 -2.213921069 1.083165914e-35)
(98.17912169 -2.184629977 0)
(98.21569758 -2.406772737 0)
(97.8336091 -2.171264517 0)
(96.89481427 -2.119854203 0)
(96.95451076 -2.334481219 0)
(96.61529854 -2.098964698 0)
(95.87551412 -2.024926972 0)
(95.95826605 -2.22684111 0)
(95.66109804 -1.996417499 0)
(95.11078586 -1.899312591 0)
(95.21657468 -2.08412223 0)
(94.95730945 -1.863097445 0)
(94.58108887 -1.74320001 0)
(94.70904536 -1.907469838 0)
(99.61935222 -1.96132274 0)
(99.63980271 -2.152136237 0)
(99.25729427 -1.954050926 0)
(98.13500166 -1.926662229 0)
(98.16762405 -2.116256873 0)
(97.78317662 -1.914817427 0)
(96.82533316 -1.870224392 0)
(96.87643997 -2.053729302 0)
(96.53941929 -1.852312078 0)
(95.78006026 -1.789197038 0)
(95.85017613 -1.96257224 0)
(95.55899139 -1.764957259 0)
(94.98849619 -1.682341021 0)
(95.07834822 -1.842041165 0)
(94.82827099 -1.651453819 0)
(94.43194097 -1.548744812 0)
(94.54166062 -1.691784786 0)
(99.59118358 -1.739821565 0)
(99.61238684 -1.902585653 0)
(99.22855078 -1.732412281 0)
(98.09538298 -1.706732002 0)
(98.12470591 -1.868325639 0)
(97.73859939 -1.696148627 0)
(96.76533621 -1.657116403 0)
(96.80952145 -1.813721538 0)
(96.47416338 -1.64161009 0)
(95.69848719 -1.587288231 0)
(95.75848123 -1.73572002 0)
(95.47178029 -1.56648446 0)
(94.88383847 -1.495565902 0)
(94.96082107 -1.632951993 0)
(94.7176583 -1.469001421 0)
(94.30322832 -1.380329779 0)
(94.39800461 -1.504107313 0)
(99.56246618 -1.551533485 0)
(99.58403884 -1.6897984 0)
(99.20008151 -1.544077369 0)
(98.05953091 -1.519903164 0)
(98.08609177 -1.657085753 0)
(97.69886402 -1.510368869 0)
(96.71304994 -1.475901822 0)
(96.75160061 -1.608977363 0)
(96.41751744 -1.462355611 0)
(95.62812678 -1.415169307 0)
(95.67993441 -1.541601763 0)
(95.39660807 -1.397151 0)
(94.79350552 -1.33573484 0)
(94.86002298 -1.453193647 0)
(94.62205401 -1.312694231 0)
(94.19131988 -1.235524132 0)
(94.27380134 -1.341833659 0)
(99.53355032 -1.392552573 0)
(99.555245 -1.509176538 0)
(99.17203042 -1.385109553 0)
(98.02682866 -1.362243046 0)
(98.05108219 -1.477889893 0)
(97.66314083 -1.353579555 0)
(96.66706899 -1.32286415 0)
(96.70101244 -1.435130217 0)
(96.36789264 -1.310918951 0)
(95.56687615 -1.269539652 0)
(95.6120328 -1.376394621 0)
(95.33121844 -1.253785315 0)
(94.71485324 -1.200102619 0)
(94.77283942 -1.299656004 0)
(94.53871044 -1.179936923 0)
(94.09322971 -1.112176947 0)
(94.16561031 -1.20260894 0)
(99.50467271 -1.259716006 0)
(99.52632009 -1.357001393 0)
(99.14446681 -1.252325251 0)
(97.9967413 -1.230573378 0)
(98.01908113 -1.32699873 0)
(97.6307249 -1.222626748 0)
(96.62623649 -1.194977769 0)
(96.65641901 -1.288639531 0)
(96.32398781 -1.184335598 0)
(95.51302261 -1.147668655 0)
(95.55277922 -1.236940055 0)
(95.27377315 -1.133749907 0)
(94.64571735 -1.086349673 0)
(94.6967525 -1.169695326 0)
(94.46537303 -1.06852835 0)
(94.00647074 -1.008491402 0)
(94.07056217 -1.084349361 0)
(99.47598891 -1.150494575 0)
(99.49747912 -1.230284821 1.810021688e-36)
(99.11740563 -1.143177463 0)
(97.96879635 -1.122352126 0)
(97.98957171 -1.201407976 0)
(97.60100712 -1.114984963 0)
(96.58957912 -1.089808365 0)
(96.6167158 -1.166640352 0)
(96.28471376 -1.080213948 0)
(95.46514259 -1.047327181 0)
(95.50054362 -1.120643116 0)
(95.22274553 -1.03487983 0)
(94.58430818 -0.9925261498 0)
(94.62970522 -1.061095509 0)
(94.40018642 -0.9765962122 0)
(93.92910472 -0.9228345276 0)
(93.98632409 -0.9853679288 0)
(99.44759889 -1.062829572 0)
(99.46886041 -1.126628377 0)
(99.0908276 -1.055600003 0)
(97.94256492 -1.035527696 0)
(97.96209362 -1.09871035 0)
(97.57344386 -1.028616864 0)
(96.55624522 -1.005386125 0)
(96.58096512 -1.066825349 0)
(96.24912101 -0.9966146047 0)
(95.42199859 -0.9666890932 0)
(95.45395766 -1.025383381 0)
(95.1768058 -0.955392464 0)
(94.52903991 -0.9169831336 0)
(94.5699744 -0.9719836517 0)
(94.3414885 -0.9025301951 0)
(93.85927251 -0.8536366452 0)
(93.91102253 -0.9040115786 0)
(99.41959396 -0.9951018737 6.502971733e-36)
(99.44055813 -1.044083094 0)
(99.06471366 -0.9879709137 -6.490832225e-36)
(97.91766284 -0.9684916812 0)
(97.93622912 -1.016968164 0)
(97.5475494 -0.961925233 0)
(96.5254788 -0.9401630091 0)
(96.54834093 -0.9873331655 0)
(96.21636876 -0.9320118618 0)
(95.38249741 -0.9043144939 0)
(95.41182195 -0.949432302 0)
(95.13477742 -0.8938827838 0)
(94.47848686 -0.8584405677 0)
(94.51601107 -0.9007965334 0)
(94.28776636 -0.8451008648 0)
(93.79509839 -0.7999019622 0)
(93.84275592 -0.8387410452 0)
(99.39204179 -0.9460922762 -2.087047323e-36)
(99.41266198 -0.9811340246 0)
(99.03902672 -0.9390598912 2.083183332e-36)
(97.89372843 -0.920007319 0)
(97.91160241 -0.9546720837 0)
(97.52286971 -0.913678859 0)
(96.4965869 -0.8929403912 0)
(96.51810601 -0.9267094868 0)
(96.18568986 -0.8852232789 0)
(95.34565352 -0.8590859051 0)
(95.37307381 -0.8914370558 0)
(95.09560416 -0.8492606403 0)
(94.43139765 -0.8159092477 0)
(94.46643594 -0.8463402651 0)
(94.23771323 -0.8033600434 0)
(93.73518317 -0.760814563 0)
(93.77977371 -0.7887509209 0)
(99.36493912 -0.9149280787 0)
(99.38522725 -0.9366565786 0)
(99.01367869 -0.9079801252 0)
(97.8704032 -0.8891771824 0)
(97.88785492 -0.9106730188 0)
(97.4989649 -0.882982625 0)
(96.46892065 -0.8628416862 0)
(96.48958081 -0.8838382724 0)
(96.15637079 -0.8553828773 0)
(95.31056184 -0.8301818369 0)
(95.33675103 -0.8503557385 0)
(95.05831773 -0.8207224917 0)
(94.38662351 -0.7886408482 0)
(94.42003135 -0.8076854975 0)
(94.19012558 -0.7765760485 0)
(93.67819769 -0.7356819958 0)
(93.72070896 -0.753210145 0)
(99.33519207 -0.9002992193 -2.078192989e-37)
(99.35829614 -0.909843406 0)
(98.98563314 -0.8935169743 2.075482016e-37)
(97.84455982 -0.8748298383 0)
(97.8646657 -0.8841476442 0)
(97.47256981 -0.8686541724 0)
(96.438635 -0.8486776258 0)
(96.46215383 -0.8579137576 0)
(96.12433249 -0.8413115984 0)
(95.27233065 -0.8164769626 0)
(95.30199078 -0.825434393 0)
(95.01771636 -0.8071630568 0)
(94.33790441 -0.7755690463 0)
(94.37569077 -0.7841431646 0)
(94.13834649 -0.7636765859 0)
(93.61611364 -0.7232182606 0)
(93.66427184 -0.7314770057 0)
(103.2782462 -32.03161252 3.571716053e-19)
(102.432807 -32.29979819 0)
(102.1717178 -32.10378978 7.895054346e-21)
(104.6749567 -30.7073366 -4.173150391e-19)
(105.4038895 -31.0780759 -4.91445343e-19)
(104.6434451 -31.78206664 0)
(111.7094084 -23.10111664 0)
(111.5807524 -26.96717048 0)
(107.8124566 -25.79142467 1.459396372e-20)
(95.70930632 -23.76529538 -1.006927867e-19)
(90.94343696 -24.04875037 1.177913943e-19)
(98.85266606 -32.09957822 3.11672805e-19)
(98.78238751 -31.64710421 -1.356864002e-20)
(101.4855285 -31.18138236 8.194879413e-20)
(97.98874729 -21.33261104 8.855191508e-20)
(98.47450425 -22.58831132 0)
(96.6968214 -23.56817351 -7.325352597e-20)
(104.2828091 -20.03325927 3.642139701e-20)
(102.7965065 -22.38608835 4.5281965e-19)
(100.832787 -19.89944697 0)
(106.6552378 -25.24585734 -4.495445817e-20)
(103.6355511 -23.18068089 0)
(105.0318905 -20.47842514 -7.557818204e-19)
(95.81770953 -15.7212941 2.211431314e-19)
(94.8055149 -18.82616506 0)
(108.6535148 -27.55623005 1.628788476e-19)
(108.2627013 -29.4875326 -5.955873384e-19)
(106.2204433 -28.59705274 0)
(108.9684243 -29.71482832 1.233230211e-18)
(109.7383439 -27.51514002 6.42949865e-19)
(107.5783739 -33.23382151 6.390870258e-19)
(108.8248899 -33.06631395 6.358997869e-19)
(96.0059961 -27.28919109 -7.867268355e-20)
(95.55609141 -26.49876007 4.047452219e-20)
(96.78484629 -26.13884531 3.712303618e-21)
(98.31369739 -28.28830542 0)
(97.00623671 -28.77056787 0)
(96.49298114 -28.04397203 -2.298096299e-22)
(100.944378 -25.58628694 3.358109637e-19)
(102.6033431 -27.20338191 2.734624897e-19)
(100.5019687 -28.98279034 4.258019086e-19)
(103.8975605 -24.97891995 -2.987568886e-19)
(103.0853893 -26.04621112 5.493203224e-20)
(102.0405851 -25.11004312 -3.551675047e-19)
(105.5842416 -28.25768177 -8.421459748e-19)
(104.2427349 -26.91423277 5.467853155e-19)
(104.9732597 -25.73624958 8.360096248e-19)
(103.2296198 -32.95883703 0)
(103.2685604 -32.92037413 4.63834929e-19)
(104.7633501 -32.80458106 -1.045176252e-20)
(90.09936553 -30.03184885 -1.291681477e-19)
(89.65232947 -30.07900689 -1.514116784e-19)
(83.56956182 -28.64705404 -4.678133275e-19)
(100.8160451 -30.67858975 4.35902986e-19)
(98.65046429 -31.45744849 0)
(98.01210283 -30.72381485 3.808760686e-21)
(105.2990711 -33.11228615 5.210332728e-19)
(102.8878783 -33.01667405 5.242259633e-19)
(103.0753468 -32.98345971 -5.077339299e-19)
(107.6334217 -31.9909509 3.377899382e-19)
(108.3846408 -32.23005084 -6.512583706e-19)
(107.0625913 -33.09148583 1.102361284e-20)
(109.350948 -30.69775461 1.332717166e-18)
(108.9463054 -31.47863608 0)
(108.1889688 -31.23551776 1.251314687e-18)
(109.7054051 -31.69285076 0)
(110.1003742 -30.90470997 -7.125879217e-19)
(98.10261535 -30.1105346 1.827077991e-19)
(97.54755481 -29.46804881 -8.379401387e-20)
(98.89574404 -28.94850885 -1.602469775e-19)