/*--------------------------------*- C++ -*----------------------------------*\
| =========                 |                                                 |
| \\      /  F ield         | OpenFOAM: The Open Source CFD Toolbox           |
|  \\    /   O peration     | Version:  v2012                                 |
|   \\  /    A nd           | Website:  www.openfoam.com                      |
|    \\/     M anipulation  |                                                 |
\*---------------------------------------------------------------------------*/
FoamFile
{
    version     2.0;
    format      ascii;
    class       volVectorField;
    location    "2.34";
    object      U;
}
// * * * * * * * * * * * * * * * * * * * * * * * * * * * * * * * * * * * * * //

dimensions      [0 1 -1 0 0 0 0];


internalField   nonuniform List<vector> 
3019
(
(99.99832287 0.004010873951 -4.297538377e-21)
(99.99785986 0.01329421045 3.899956482e-25)
(99.99654706 0.02738866375 -4.286852726e-21)
(99.99436992 0.04940815397 -4.255312752e-21)
(99.9997997 0.03830475627 4.098791571e-21)
(99.99725069 0.06189930351 0)
(99.99584294 0.09808844866 0)
(99.99546239 0.1472286407 -7.099040083e-21)
(99.99429837 0.2111057342 8.222001236e-22)
(99.99361501 0.2870060049 -5.265412134e-21)
(99.99408538 0.3648746045 7.285420403e-22)
(99.99540762 0.4280331198 0)
(99.98508932 0.01068883052 1.722590882e-20)
(99.97967727 0.03589408688 4.29967826e-21)
(99.96747361 0.07465927565 3.001173378e-20)
(99.94660017 0.1356015588 -1.28531301e-20)
(99.95069831 0.1808938272 4.130906282e-21)
(99.91904255 0.2954438406 -5.445325318e-23)
(99.87842959 0.4685732903 0)
(99.85736276 0.6221378444 -7.185926009e-21)
(99.81462223 0.902495203 -6.603276575e-21)
(99.78460889 1.246131857 -1.132616084e-20)
(99.78712809 1.611865645 -4.582271963e-21)
(99.83628031 1.917344027 -8.220418723e-21)
(99.96016039 0.01378178482 -1.718753674e-20)
(99.94486589 0.04734348442 -3.45277489e-20)
(99.91163464 0.1010838056 -7.73234861e-20)
(99.85610909 0.1882288694 1.028527366e-19)
(99.8300085 0.284446123 -8.495561355e-21)
(99.73520415 0.4784600856 -8.233967414e-21)
(99.60973709 0.7750192947 -1.427644548e-20)
(99.54235969 1.094623388 0)
(99.40477006 1.630045738 2.7409725e-20)
(99.30673161 2.305629051 3.699647852e-20)
(99.32700541 3.042121778 -1.963377012e-21)
(99.51184768 3.709027721 4.71999662e-20)
(99.9312766 0.01114925772 -8.671183267e-21)
(99.90196503 0.04095406354 6.06837012e-20)
(99.83930518 0.09588409797 -1.736423567e-20)
(99.73696491 0.1889994265 0)
(99.65655653 0.3237874111 0)
(99.47150929 0.5724687189 -6.676814619e-20)
(99.21557268 0.9665848572 -1.334704687e-19)
(99.01703058 1.440581711 3.130672108e-20)
(98.69611308 2.220302369 -3.715680398e-21)
(98.45391087 3.239595258 2.271357318e-19)
(98.41782316 4.48548755 4.592265095e-20)
(98.79979883 5.732938129 -6.001924313e-20)
(99.91219985 0.001448677003 0)
(99.86659912 0.0122042598 0)
(99.7699645 0.05133529572 8.784451949e-21)
(99.61132809 0.1281243494 1.324961314e-20)
(99.46446295 0.2822162664 2.190889382e-20)
(99.16037553 0.5473055616 0)
(98.73565106 0.9729904754 0)
(98.33109609 1.564431359 0)
(97.74988995 2.521389833 0)
(97.17574913 3.917967185 -1.146159735e-20)
(96.86409085 5.85087586 -6.046220299e-20)
(97.38317521 8.140328466 1.465115896e-19)
(99.91822889 -0.01576272402 0)
(99.85599607 -0.04040364399 0)
(99.72572775 -0.03761011903 -1.758549375e-20)
(99.50795842 0.001824904945 3.587792868e-20)
(99.28582958 0.1465381 0)
(98.85162102 0.3769287116 0)
(98.22979457 0.7689459971 2.807448654e-20)
(97.59637063 1.378943422 -3.726725487e-19)
(96.63151224 2.379445335 6.229481727e-19)
(95.46392649 4.00439245 9.248879684e-19)
(94.32607124 6.715479968 1.829020865e-18)
(94.33997344 10.97636962 5.040298547e-20)
(99.96406937 -0.04004447878 4.305454189e-21)
(99.88693879 -0.1149483008 -4.338437073e-21)
(99.72785082 -0.1676216921 8.856129409e-21)
(99.45847756 -0.1897995993 -3.23752266e-20)
(99.15353637 -0.08437244509 6.829370269e-23)
(98.60316254 0.05998317525 2.776468499e-20)
(97.80510572 0.3413549342 -5.761306397e-20)
(96.93946565 0.8480731242 -7.983015298e-20)
(95.54381114 1.698351554 3.581620394e-19)
(93.58323441 3.170773995 0)
(90.75376955 5.939772455 -2.212650625e-20)
(87.19021224 12.65669048 -1.655725566e-18)
(100.0623234 -0.06994372142 -4.305908934e-21)
(99.97400126 -0.2067318428 4.339994937e-21)
(99.79428416 -0.3295097674 -5.511964038e-21)
(99.48809051 -0.4318551847 -3.712049773e-21)
(99.11361648 -0.3945361952 1.584214375e-20)
(98.47549092 -0.377682293 9.453484477e-21)
(97.56580686 -0.2840871055 -8.771279113e-20)
(96.50665651 0.01558248431 1.70893971e-19)
(94.79145396 0.486607995 0)
(92.23112118 1.267364487 1.062469899e-19)
(87.95526526 2.45841678 0)
(79.55427895 4.675422744 2.52150257e-18)
(100.222119 -0.1032504676 -2.078398608e-21)
(100.1276667 -0.3089038269 -1.562175504e-21)
(99.93787779 -0.5102413377 -5.355758326e-22)
(99.61392224 -0.7035534001 1.624187312e-21)
(99.18950197 -0.7544157652 -3.082791893e-23)
(98.50996287 -0.8886088152 0)
(97.5666938 -1.017589298 -3.76501078e-20)
(96.4081342 -0.987066561 4.293573884e-20)
(94.59571737 -0.9840833243 1.588134163e-18)
(92.00090594 -1.032861492 -8.735409509e-19)
(88.12214821 -1.584472017 1.021712005e-18)
(83.03033234 -3.754086423 -2.175523143e-20)
(100.4478157 -0.1373340166 4.09578655e-21)
(100.3528285 -0.4133606447 6.199496852e-23)
(100.1644332 -0.6945824376 0)
(99.8432562 -0.9811612608 2.122401332e-22)
(99.39368162 -1.129463215 -2.177819704e-21)
(98.72181046 -1.417575223 2.325287347e-21)
(97.81824819 -1.76325299 7.831951948e-20)
(96.66966554 -1.993272923 0)
(94.96384533 -2.389450221 0)
(92.6605301 -2.999708655 1.671949428e-18)
(89.62209089 -4.203046087 -1.864760224e-18)
(86.47999511 -6.18889221 -1.186774867e-18)
(100.7385682 -0.16965847 -2.017210359e-21)
(100.6482688 -0.5121385064 2.035384702e-21)
(100.4716319 -0.8677440574 1.986101603e-21)
(100.1738492 -1.24201779 -1.859943799e-21)
(99.72096693 -1.486302849 -2.148866505e-21)
(99.09953863 -1.911653834 0)
(98.28991458 -2.441813771 -2.330986506e-21)
(97.22529626 -2.889053707 -6.606964778e-19)
(95.71606688 -3.567639301 0)
(93.75491969 -4.492327105 0)
(91.27429407 -5.897922233 -8.583266487e-19)
(88.77741256 -7.580824654 6.030675327e-19)
(101.0886128 -0.1980219643 7.39671808e-21)
(101.0075113 -0.5982344674 0)
(100.8503817 -1.015196661 -1.98220761e-21)
(100.5897508 -1.473507477 0)
(100.1484491 -1.798248792 0)
(99.61484174 -2.330198762 -6.389898473e-21)
(98.93390193 -3.000808867 7.091399212e-20)
(97.99868391 -3.610333964 6.21353928e-19)
(96.71934194 -4.474587203 0)
(95.07349672 -5.59226623 0)
(92.95006799 -7.154663218 -7.622906321e-19)
(90.63181727 -8.855165869 1.115282715e-18)
(82.43782215 -3.228500019 1.179727141e-18)
(86.14073794 -5.967537144 9.789752054e-19)
(88.52757953 -7.431131145 8.319298608e-19)
(90.39683175 -8.685105488 1.153816768e-20)
(79.99203947 6.280477961 -3.613679762e-20)
(89.21394402 -3.661932232 9.317899359e-19)
(86.50257298 -5.60715882 0)
(83.69410737 -3.211037193 -2.245005527e-18)
(90.86238212 -5.528081392 -2.243666726e-20)
(88.80873255 -7.163529816 8.42000718e-19)
(86.82883858 -5.842975642 1.889567655e-18)
(87.4242156 -6.777712254 0)
(86.56093367 -7.885707533 -8.168183006e-19)
(85.30697576 -7.309373902 -6.447920391e-19)
(92.52117179 -6.869037394 -2.382939758e-20)
(90.65621519 -8.445821144 7.455611732e-19)
(89.0536191 -7.324150611 -8.232255613e-19)
(89.48493914 -8.033988052 -7.949676512e-19)
(88.49909388 -8.824141907 5.778478851e-19)
(87.81534074 -8.36835954 7.808713597e-19)
(90.88905007 -8.611102862 -1.456521157e-18)
(91.49578049 -9.35297354 5.705687619e-19)
(89.99687967 -10.30431774 5.326476188e-19)
(89.28971421 -9.58167273 5.59545733e-19)
(75.17463501 -5.154772728 -1.336414326e-18)
(80.68514445 -6.695342551 -1.062607315e-18)
(68.39452633 6.753539923 7.813444258e-19)
(74.08501537 -4.514217491 0)
(85.13071289 -7.211592937 -6.487790333e-19)
(83.81656674 -6.667132153 -9.138551752e-19)
(84.99659172 -5.198297336 -2.085690826e-18)
(83.63981067 -6.902609064 1.886222426e-18)
(85.00307084 -7.367145752 1.389072062e-21)
(81.1893898 -6.737411861 3.129075953e-18)
(83.41951468 -6.86169272 8.486022666e-21)
(87.69513134 -8.312217956 -9.817271196e-19)
(86.72475823 -7.944404193 0)
(87.71734657 -6.952505429 -1.099051473e-18)
(86.54122003 -8.058478319 0)
(87.56489592 -8.410354085 6.294370457e-19)
(85.09005695 -7.424557716 -6.579414658e-19)
(86.45922221 -8.024666237 -6.302819285e-19)
(89.23637084 -9.534351352 -1.113556001e-18)
(88.54139625 -8.863122127 5.776292532e-19)
(89.71154202 -8.190995635 -3.919188497e-19)
(88.39058617 -8.900440274 -6.004264828e-19)
(89.01681465 -9.584093569 5.662489333e-19)
(87.62279384 -8.443593365 6.272754098e-19)
(88.35259114 -8.86274629 -1.195324761e-18)
(90.04505668 -10.36117716 0)
(91.625427 -9.446602682 -5.613018551e-19)
(89.68345397 -10.3996031 5.443778703e-19)
(89.06875756 -9.630501197 -1.71485537e-18)
(89.64657101 -10.3448478 -5.394435096e-19)
(87.86944158 -0.7038219086 1.062999336e-18)
(83.20574526 -2.661112482 -2.25103197e-20)
(81.24804155 4.423801615 1.200310599e-18)
(80.04827267 0.2472103838 0)
(74.96525143 -3.474041595 0)
(70.65364351 6.523592166 0)
(84.56302739 -4.902564842 -7.34770838e-21)
(83.5901225 -6.613562576 -9.303184039e-19)
(81.28427144 -6.226351944 -2.124400632e-18)
(80.79600395 -6.130255995 1.07554878e-18)
(75.87133157 -4.141993386 0)
(80.58179652 -0.8804705864 -1.231617084e-18)
(78.1570478 -9.476562062 -2.305053558e-18)
(53.48744193 9.611742646 0)
(61.49177754 -7.335352381 0)
(78.11806552 19.20788627 5.151766584e-19)
(68.8399843 9.103942941 7.217202102e-19)
(89.69127165 -9.93251297 5.757020404e-19)
(90.54475097 -9.604077873 4.933484945e-21)
(90.91759779 -9.891212767 0)
(73.55499807 -10.94514388 0)
(77.68700859 -9.674576893 1.180189673e-18)
(77.99684204 -6.266812136 -2.422542727e-18)
(77.86891919 -9.307682676 0)
(73.6528402 -9.918484224 0)
(80.25739565 -8.369339662 1.909103347e-18)
(78.30483949 -9.153445115 2.047887196e-18)
(78.77606206 -6.437092688 1.195591956e-18)
(69.67515723 0.3521396309 -1.577092691e-18)
(62.78542164 -5.710556145 0)
(56.34736292 9.186468994 0)
(72.76587331 -9.803347088 -3.009070555e-19)
(64.20553658 -6.815775579 -7.559688052e-19)
(70.69010495 -1.309437236 0)
(63.20625831 -8.451298148 0)
(72.69612332 -10.72917805 -6.357831207e-19)
(84.31639088 -7.026185177 -1.907816627e-21)
(82.4793685 -7.469331847 4.019310992e-18)
(84.40460107 -7.066161209 -1.331234268e-18)
(82.34788201 -6.771099147 9.745526061e-19)
(81.61196432 -7.691259612 0)
(80.42832033 -8.26880917 -9.949768033e-19)
(82.41216689 -7.460123085 0)
(81.72968707 -7.618654567 -2.011667428e-18)
(82.65212599 -6.781379534 -2.491599817e-19)
(87.06575496 -8.215744827 2.363576467e-21)
(87.13353116 -8.245029286 6.259610703e-19)
(85.73776757 -7.750955446 -6.530629383e-19)
(85.83082893 -7.799449286 -6.497833465e-19)
(88.6953909 -9.208905657 6.103678611e-19)
(88.73869069 -9.250969702 6.041338517e-19)
(88.00126748 -8.625911206 8.7540017e-19)
(88.04885627 -8.655123157 -5.840269516e-19)
(91.04793389 -9.990273414 -1.879344048e-18)
(89.4082767 -9.917997583 0)
(89.44704032 -9.964030632 0)
(65.83043292 27.02567201 -3.423158476e-19)
(54.00182064 12.71334032 -5.285297651e-20)
(88.1748066 -8.608035795 5.691939355e-19)
(88.74130128 -8.26173902 -3.251423435e-21)
(89.07345798 -8.478966725 -1.383959509e-18)
(88.26648026 -7.991457499 7.177844709e-19)
(88.62663482 -8.192596017 -7.067409359e-19)
(88.12393803 -8.580439397 -5.709761087e-19)
(90.07316264 -9.238829173 6.589447095e-19)
(90.42543562 -9.510637537 6.517842081e-19)
(89.64633086 -9.884241709 0)
(87.31335544 -8.153562851 1.389767027e-18)
(87.74304366 -7.727150981 1.071305956e-21)
(88.14069406 -7.924921096 7.22892335e-19)
(87.01916377 -8.558001855 0)
(86.87345403 -8.483375495 -5.813051464e-22)
(87.38828568 -8.337581344 6.460726907e-22)
(88.91178392 -9.208460137 -5.777357009e-19)
(89.61969589 -8.886830103 6.818424504e-19)
(89.9578455 -9.14929415 0)
(89.18185709 -8.556490648 0)
(89.50896418 -8.80152273 -6.765372831e-19)
(88.86442018 -9.164460263 -5.830525104e-19)
(88.50972529 -9.029875122 0)
(87.48118609 -9.088621315 -1.385688838e-18)
(87.42493791 -8.93087992 -6.767774735e-19)
(87.10128197 -9.592631983 0)
(87.01560476 -9.452864786 0)
(88.87550071 -9.433805059 -5.614297339e-19)
(87.79421674 -8.518998468 -6.222200602e-19)
(87.21773562 -8.666402322 -7.219215435e-19)
(87.072034 -8.586248187 0)
(87.41057648 -8.896842301 -1.182446374e-21)
(87.34489967 -8.829726655 2.625762305e-18)
(88.23248303 -8.765869534 5.899597341e-19)
(89.22787586 -9.758306187 0)
(87.35330958 -9.767326409 -7.361626994e-19)
(87.14741187 -9.651858265 1.471405034e-18)
(87.52624841 -10.17085701 -9.09986481e-19)
(89.59081342 -10.1903149 -5.12067359e-19)
(79.15315381 -8.953451155 0)
(79.4558613 -8.837872912 0)
(55.06117466 0.4009596437 -3.765348218e-18)
(56.3916303 -2.067851083 0)
(75.60022661 -10.42142042 -4.727382915e-18)
(76.18032624 -10.20510865 -1.186406605e-18)
(76.3834713 -9.708788595 1.030266404e-18)
(76.48202671 -7.809990317 1.030315643e-18)
(78.00942064 -7.892931558 1.163018972e-21)
(73.9806266 -7.30851549 1.140573327e-18)
(75.90781224 -7.738717316 -2.074005728e-18)
(75.80011594 -9.831567851 1.027051569e-18)
(79.65139796 -8.647854908 -2.057020588e-18)
(79.87429231 -7.761369688 1.364820589e-18)
(80.65228173 -7.630108235 7.889510786e-19)
(78.45544566 -7.887449719 -5.372653696e-21)
(79.57211815 -7.800348334 7.690806475e-22)
(79.34076101 -8.731991318 0)
(69.53317915 -9.298480789 -1.32454815e-18)
(70.79969388 -6.091670848 1.297973015e-18)
(73.22098546 -7.082575254 5.979456012e-19)
(67.82567414 -10.40985445 0)
(69.26248783 -10.61655294 0)
(82.85264448 -7.49608075 -2.10345945e-18)
(83.58881795 -7.302762505 -2.007486044e-19)
(83.78607537 -7.362815836 -1.447926436e-18)
(83.20765384 -7.250063219 0)
(83.49970405 -7.288398368 4.075106927e-19)
(82.76110085 -7.511749569 2.029928364e-18)
(84.10741977 -7.546244039 7.252571959e-19)
(84.31367504 -7.710359036 -7.391606009e-19)
(83.84154841 -7.396841795 1.427316109e-18)
(84.0411143 -7.503942709 0)
(81.17268448 -7.89341489 -2.026516544e-18)
(81.66229639 -7.417409006 -1.567935152e-18)
(82.13973091 -7.319944894 2.222602495e-21)
(80.87568713 -7.585634414 0)
(81.48308032 -7.457276265 -3.112068465e-21)
(81.01478921 -7.979495541 -1.017613856e-18)
(82.12335454 -7.540352161 0)
(82.77767652 -7.246906119 -3.211009738e-18)
(83.10737036 -7.242715558 8.1404821e-19)
(82.2806852 -7.294079252 -7.897104679e-19)
(82.65883505 -7.252092952 2.401433292e-18)
(82.003349 -7.550679336 -3.018840154e-18)
(86.03628212 -8.4064929 -6.970084963e-19)
(86.21983189 -8.463499311 1.416873677e-18)
(85.77489808 -8.403663364 -6.707224394e-19)
(85.98229348 -8.398877191 -2.076419936e-18)
(86.50072284 -8.505140286 0)
(86.62786885 -8.583056737 -1.488625186e-18)
(86.28863651 -8.476770463 -1.424576626e-18)
(86.45966837 -8.493069728 0)
(84.78688278 -8.006664169 7.617911602e-19)
(85.09299393 -8.134280548 1.546194815e-18)
(84.39320106 -7.776752815 1.492797199e-18)
(84.6844985 -7.957568134 2.272070837e-18)
(85.57647396 -8.300892595 -4.886713271e-20)
(85.72401918 -8.381907045 -1.350391738e-18)
(85.19402975 -8.170996247 -2.335636686e-18)
(85.48860757 -8.26998019 -3.938529808e-19)
(87.67131599 -9.281828605 1.44080278e-18)
(87.52256285 -9.152571345 -1.401095157e-18)
(88.55406381 -9.076308007 -6.096233236e-19)
(86.6187168 -9.127824348 7.903706639e-19)
(86.80074336 -9.242759088 -1.20136942e-18)
(86.55393887 -8.868878762 7.806285883e-19)
(86.57111141 -9.04989206 -7.914524512e-19)
(86.80412287 -9.27041092 -2.088858233e-18)
(88.84265767 -9.382174394 -4.267624426e-19)
(87.11014652 -9.408554441 0)
(87.67594743 -9.320547965 3.647475185e-19)
(87.18623015 -8.761352039 -5.249364523e-19)
(87.25608948 -8.703183511 -6.949632772e-19)
(87.84785445 -8.551445073 -1.540668321e-19)
(86.84331953 -8.72507823 3.052689175e-18)
(86.36908054 -8.75336745 -8.943871628e-20)
(86.67970093 -8.613440493 7.471533656e-19)
(86.8063854 -8.694152066 0)
(86.50289242 -8.790492262 1.273929761e-21)
(86.55149823 -8.839067371 7.765347557e-19)
(86.38185597 -8.756545965 7.471040278e-19)
(86.47597052 -8.779223301 -7.688868991e-19)
(88.18907443 -8.737271149 1.133749392e-21)
(87.31562839 -8.813386822 6.515278242e-19)
(87.21205127 -8.778766778 0)
(87.5071688 -9.853577695 1.479316486e-18)
(87.40724211 -9.78822533 2.204900193e-18)
(89.27769202 -9.796979383 1.176587041e-18)
(89.55742163 -10.1277783 -6.062148135e-19)
(87.50137164 -10.09665127 2.780749144e-18)
(87.51903638 -9.883470811 3.71520938e-19)
(86.0344575 -7.674675965 2.107120397e-19)
(86.51218352 -7.13324035 0)
(87.00262738 -7.375855878 -3.337811416e-21)
(85.82492363 -6.761335301 -8.038234182e-19)
(86.34313558 -7.044712035 7.838907554e-19)
(85.85209639 -7.591193602 -2.121886995e-19)
(87.15943722 -7.450222532 0)
(87.60328369 -7.659982978 7.348135254e-19)
(87.17546437 -8.102567619 -7.953136767e-19)
(86.77858719 -8.123365334 0)
(86.31885119 -8.350249128 1.310990872e-18)
(86.09190576 -8.316015373 -6.479528823e-19)
(86.02061202 -8.291776543 1.804281171e-18)
(85.79244132 -8.212341007 4.570449844e-20)
(86.1988862 -7.943615621 -6.451420474e-19)
(78.5542175 -9.255607132 2.300619168e-18)
(74.31266603 -10.85842299 0)
(73.16320053 -11.24077649 0)
(77.1957207 -9.839481099 1.195558157e-18)
(77.40340073 -9.442497157 -2.045620143e-18)
(77.5088872 -8.935972256 -2.934565176e-18)
(77.96706918 -8.838779119 9.859117344e-19)
(80.09561051 -8.488198492 1.774733651e-18)
(80.24798295 -8.211127788 -2.513418011e-18)
(80.46178698 -8.135598385 8.284626376e-19)
(78.39332678 -8.727361994 -4.87481354e-18)
(78.78150745 -8.611232652 1.959617236e-18)
(78.69455612 -8.987811161 0)
(67.27889948 -3.427483475 0)
(69.93873488 -5.481301931 -1.359699183e-18)
(68.26994189 -8.948028006 0)
(64.82478813 -9.37570587 0)
(64.27464998 -11.70883066 0)
(62.25347919 -10.14293952 0)
(72.41598637 -11.3585274 7.966476095e-18)
(71.47281075 -11.56044054 5.607251119e-18)
(71.70450034 -10.70461745 0)
(82.79479696 -7.459522528 9.02535541e-18)
(83.15317439 -7.460693734 3.50923868e-19)
(83.11937853 -7.483555069 1.584806448e-18)
(82.83411325 -7.423400839 -1.79620413e-18)
(82.92415338 -7.434903216 -2.707489597e-18)
(82.56014378 -7.485828258 4.024181601e-18)
(83.38007925 -7.718231913 0)
(83.42113479 -7.796502654 2.7702278e-18)
(83.11498899 -7.506819666 -8.576820893e-19)
(83.15541559 -7.527119161 8.970609934e-19)
(81.46500646 -7.768968578 0)
(81.73049421 -7.66750035 1.729401175e-18)
(81.87463818 -7.610906175 2.596258993e-18)
(80.66799628 -8.06690767 -1.686080526e-18)
(80.87291717 -8.000017981 1.696711714e-18)
(80.62429209 -8.177409391 -1.011969634e-18)
(82.34229396 -7.472627301 0)
(82.66167309 -7.430571373 8.863889401e-19)
(82.74977886 -7.419615399 8.910569669e-19)
(82.00242778 -7.556111947 2.603505618e-18)
(82.11281364 -7.516310376 1.657500345e-21)
(81.81824152 -7.574127108 1.008659145e-18)
(86.5801024 -8.41630539 -2.020900066e-18)
(86.38425078 -8.36296877 -6.615024203e-19)
(86.85259749 -8.152951717 0)
(87.32768902 -8.307480751 -6.242818232e-19)
(86.82418297 -8.46700155 0)
(86.64684246 -8.431336329 0)
(85.31135645 -8.041788266 0)
(85.01256759 -7.911106084 -7.286981543e-19)
(85.45535009 -7.624151192 1.3093608e-18)
(84.13241203 -8.245440057 -9.130116866e-19)
(84.23425094 -8.28029108 -9.13622964e-19)
(83.4824353 -7.898994859 -9.284395463e-19)
(83.58002222 -7.994006157 -9.223949197e-19)
(84.59138318 -8.451141891 1.9596666e-17)
(84.33441532 -8.311832763 -2.743442101e-18)
(84.432356 -8.34012803 0)
(86.10921339 -7.902915442 -6.501956135e-19)
(85.70162595 -8.182087498 3.708082625e-19)
(85.41052457 -8.080027199 -7.402745551e-19)
(87.4554517 -9.026256518 0)
(87.95361264 -9.034480633 0)
(87.98582623 -9.087565135 1.332185478e-18)
(87.06147775 -9.544004084 7.22232486e-19)
(88.08849872 -9.593441886 -1.219067458e-18)
(88.13135193 -9.636544194 -6.149447965e-19)
(88.0332366 -9.496927317 -1.179277569e-18)
(88.04897674 -9.550032945 6.003524617e-19)
(87.01996224 -9.499175402 -7.167837093e-19)
(87.92537441 -10.35582992 -6.697165808e-19)
(87.95449714 -10.3849852 -1.366044455e-18)
(87.2854481 -9.741947793 7.350351584e-19)
(88.29067617 -9.770017826 3.193118266e-21)
(88.34761942 -9.800811759 1.899925458e-18)
(88.17710882 -9.684289932 -1.864016666e-18)
(88.23098464 -9.731335322 -1.249919989e-18)
(87.21093164 -9.705433092 1.471205885e-18)
(88.00619321 -10.31292569 -2.148614285e-21)
(87.92131557 -10.33255885 -1.440333462e-18)
(88.57816039 -10.2450716 0)
(88.14917777 -10.2801189 -8.272233244e-18)
(87.18996478 -10.21137031 2.280157734e-17)
(78.86725949 -9.077385256 2.319888456e-18)
(79.65549002 -8.671195041 -3.161396164e-17)
(46.57397297 1.673407635 -5.131968455e-19)
(48.49544073 -2.143519633 7.825576501e-19)
(56.59052094 -10.85873059 -1.698448122e-17)
(58.99965499 -11.60292769 3.845624634e-18)
(51.13304188 -5.432799035 -2.631790754e-19)
(53.89706789 -9.28093626 1.177350398e-17)
(51.26568778 -10.17270881 5.132586956e-17)
(74.97037996 -10.65034792 -1.146857884e-18)
(76.7032286 -10.00847407 1.20215951e-18)
(79.74976713 -8.359660692 9.391306886e-19)
(80.0143237 -8.289379853 -8.754481175e-19)
(79.88267348 -8.596660828 1.251831811e-17)
(79.03232273 -8.841919204 0)
(79.12940828 -8.507340006 -4.865732503e-21)
(79.44754573 -8.422797692 -9.680867057e-19)
(67.55116853 -12.22355755 5.7633045e-18)
(66.03617762 -12.1846894 0)
(66.33768067 -10.01043122 6.781918662e-19)
(61.32361575 -12.03396986 0)
(63.31260981 -12.48794371 0)
(70.56840354 -10.68958794 0)
(70.35356432 -11.81593249 0)
(69.02289603 -12.06903728 0)
(83.20411497 -7.459375793 0)
(83.2782065 -7.458649787 -4.554780413e-19)
(82.91673954 -7.467112884 -1.217146421e-18)
(82.65491021 -7.505175837 -2.017966786e-18)
(83.02033338 -7.448356813 2.291670238e-21)
(83.11919121 -7.457652837 0)
(83.30102411 -7.614045476 2.102953474e-21)
(83.34148761 -7.658660741 2.767054893e-18)
(83.20833335 -7.550038919 1.821634165e-18)
(83.25689972 -7.578817914 -9.160438872e-19)
(81.4260667 -7.781367245 8.548048697e-19)
(81.58050542 -7.721118604 0)
(81.31610728 -7.828622645 -2.019400786e-18)
(80.82864435 -8.07939534 3.033943869e-18)
(81.0729615 -7.927832022 0)
(81.25874902 -7.852173104 2.570066685e-18)
(82.44321282 -7.470755714 0)
(82.55878009 -7.452003197 0)
(82.24538034 -7.507787209 0)
(81.90315847 -7.554842957 3.866493418e-21)
(82.21754909 -7.493587935 1.754047139e-18)
(82.32695729 -7.481755244 1.760773171e-18)
(86.0916669 -8.423110068 0)
(85.4141637 -8.433182681 8.2859202e-19)
(85.37073928 -8.415762339 4.961700772e-18)
(85.54172988 -8.478226842 0)
(85.47136024 -8.458109207 0)
(86.15293017 -8.444088786 0)
(85.84751786 -8.408191694 0)
(85.21754786 -8.451510556 0)
(85.15273497 -8.471503812 -1.547085617e-18)
(85.33337383 -8.411375154 8.251301408e-19)
(85.2853657 -8.425539765 1.636903054e-18)
(85.92079186 -8.402024309 -1.371024387e-18)
(86.53986483 -8.525432968 0)
(85.83980201 -8.504617205 1.667240211e-18)
(85.81406249 -8.484658643 2.494522729e-18)
(85.9114011 -8.570224858 1.670969424e-18)
(85.87039398 -8.534074777 1.671742096e-18)
(86.58139837 -8.552152681 1.47582535e-18)
(86.35383238 -8.484126769 -2.147084919e-18)
(85.68754224 -8.487095326 8.255089912e-19)
(85.61718236 -8.486729844 4.138749788e-18)
(85.78602806 -8.476236964 2.13117727e-21)
(85.74506312 -8.480058756 2.484068509e-18)
(86.41138182 -8.487900737 -2.158356683e-18)
(83.92388187 -8.164255265 -3.67877305e-18)
(84.02861205 -8.207478561 -9.159332328e-19)
(84.88901005 -8.052476317 9.506818183e-22)
(84.56537795 -8.140188438 0)
(84.46073798 -8.096267898 7.982148922e-19)
(84.7737355 -8.217224924 8.057546062e-19)
(84.67001789 -8.180217479 1.610853901e-18)
(84.99121453 -8.094944394 7.716204503e-19)
(83.70079155 -8.061216228 4.616688866e-18)
(83.81692732 -8.114886449 0)
(84.69360751 -8.417721437 -1.681484381e-18)
(84.76429065 -8.430108898 -2.495426095e-18)
(85.66195681 -8.340261737 1.503431693e-18)
(85.34154872 -8.41367956 -4.084768616e-19)
(85.25072877 -8.377933275 -8.42725545e-19)
(85.13870166 -8.475989593 -2.859584024e-18)
(85.15925238 -8.454819088 -4.748332578e-18)
(85.6894828 -8.357116885 0)
(85.29393731 -8.20527527 7.844646846e-19)
(84.97709629 -8.283703313 -8.179768686e-19)
(84.87623083 -8.251732458 3.242082603e-18)
(85.17163348 -8.34528599 8.282212166e-19)
(85.0753459 -8.31479397 0)
(85.39235793 -8.237948183 0)
(84.5266219 -8.368366288 0)
(84.61976559 -8.393467918 0)
(87.62891844 -9.245927193 0)
(88.12146458 -9.234816705 0)
(88.16395068 -9.275913887 -6.835074786e-19)
(88.02628481 -9.141964886 6.692928563e-19)
(88.07362806 -9.191486634 -2.030712298e-18)
(87.57671328 -9.205154379 1.405458683e-18)
(86.68926111 -9.180827796 3.985951982e-19)
(86.7538684 -9.215859639 3.975775383e-19)
(86.55364755 -8.911481843 7.86005324e-19)
(86.55413376 -8.969423458 7.872087529e-19)
(86.79725135 -9.285060747 2.902369967e-18)
(86.44074543 -9.311788761 -2.435555571e-17)
(87.27348852 -9.369343106 8.798005576e-18)
(88.13253233 -9.386715218 6.160274943e-19)
(88.06694236 -9.433982145 5.89772869e-19)
(88.18868342 -9.3160942 0)
(88.2083326 -9.368719786 0)
(87.68834542 -9.362720337 -3.605680685e-19)
(86.52847607 -8.731583083 -2.324236387e-18)
(85.82468693 -8.692470668 0)
(86.10380592 -8.681426192 -2.044436828e-18)
(86.42529664 -8.747759988 6.595546213e-19)
(86.73242781 -8.640526638 -7.566113663e-19)
(86.01756492 -8.62648835 -1.68034075e-18)
(85.96350405 -8.602114394 0)
(86.08544599 -8.670137785 4.424012964e-19)
(86.06634223 -8.646676727 1.272284697e-18)
(86.78217307 -8.665713237 -1.530188319e-18)
(86.52614263 -8.802954917 1.547172995e-18)
(86.54266668 -8.81804296 7.754173879e-19)
(86.41619715 -8.761465804 -7.636101069e-19)
(86.44765691 -8.76928926 7.692741563e-19)
(87.48291688 -9.830280535 0)
(88.47365213 -9.88504312 -6.507070103e-19)
(88.50303929 -9.918338513 -1.312538895e-18)
(88.39674172 -9.828109989 -2.474481707e-21)
(88.43829716 -9.855519418 -1.288907609e-18)
(87.44938049 -9.808747772 -7.378160478e-19)
(87.51426403 -9.998567499 -3.804553899e-19)
(88.55666803 -10.07493827 0)
(88.54998852 -10.15757973 -8.689849665e-19)
(88.52593137 -9.958067248 0)
(88.54180835 -10.00964172 -2.685589854e-18)
(87.51850002 -9.931342131 1.121357243e-18)
(99.64374007 0.9847717383 -1.449377875e-20)
(99.56769438 1.326574201 6.814630119e-21)
(99.85435059 0.8161933709 6.811889079e-21)
(99.53794571 1.456342534 -2.039798012e-20)
(99.48257227 1.890281371 -6.244432731e-21)
(99.83056934 1.144441432 -3.696549283e-22)
(99.46383977 2.046896191 1.76768777e-20)
(99.47404889 2.525010556 -2.082424412e-20)
(99.83425638 1.50986839 4.581443319e-21)
(99.48228595 2.682511199 -5.68225939e-20)
(99.58735729 3.120537774 1.793460172e-21)
(99.8839983 1.840117918 -1.65560304e-21)
(99.62631068 3.244764821 0)
(99.16566704 1.370493907 -1.55229288e-20)
(98.96419002 1.891868181 -1.50500039e-20)
(99.44043566 1.48221306 0)
(98.89776422 2.094061525 -3.678685415e-21)
(98.74125619 2.771498627 -1.313013351e-20)
(99.32626473 2.127395414 0)
(98.70437783 3.022985606 5.352154148e-20)
(98.67221647 3.841076915 8.20514014e-20)
(99.31265006 2.85755322 4.029865439e-20)
(98.69454829 4.125424131 2.787046971e-20)
(98.90466046 4.9521242 0)
(99.45410136 3.560929894 -6.37887479e-20)
(99.02458703 5.196969696 1.100951636e-19)
(98.51373439 1.559759404 5.126083778e-19)
(98.13331996 2.221196382 2.636611082e-19)
(98.77397947 2.003541049 1.500180891e-20)
(98.00708198 2.481783158 2.609106677e-19)
(97.64371852 3.417332126 0)
(98.50277239 2.960284565 -7.249787798e-21)
(97.53816609 3.784720806 -2.5986943e-19)
(97.33678351 5.056467252 -2.970676725e-20)
(98.39672447 4.160640093 -2.174531503e-20)
(97.33055454 5.530092498 -2.129465083e-19)
(97.61524522 7.017704412 -1.745561604e-19)
(98.65591524 5.44437937 0)
(97.83808497 7.495028456 1.790275528e-19)
(97.77699025 1.458710226 0)
(97.14946419 2.16284218 -6.114842865e-19)
(97.89974368 2.244230881 -1.068673398e-18)
(96.91974274 2.459014162 -3.12776403e-19)
(96.18183453 3.586051405 6.019560105e-19)
(97.30910133 3.52122991 0)
(95.92767856 4.063552083 5.721852136e-19)
(95.23751373 5.859215432 -1.180758821e-18)
(96.89237802 5.317814454 2.979091475e-20)
(95.07046222 6.596333647 0)
(95.06750872 9.257133302 0)
(97.13488355 7.571948437 -1.510997212e-20)
(95.34792669 10.24612247 5.707757428e-20)
(97.08829363 1.012120479 0)
(96.1588482 1.648394595 0)
(96.89392439 2.081604273 4.602808526e-19)
(95.79799855 1.923249038 -6.815799942e-19)
(94.52848061 3.009043982 3.712565553e-19)
(95.77021367 3.5191614 -6.242122301e-19)
(94.03527254 3.485287439 0)
(92.32619987 5.44809925 7.525431254e-19)
(94.5721977 5.903903973 -1.218038228e-18)
(91.69382365 6.363618618 0)
(89.91101093 10.58433052 0)
(94.09183685 9.768984943 -1.068433589e-18)
(89.58369138 12.76498016 0)
(96.58659365 0.246508396 0)
(95.40496764 0.6499737839 -3.708054279e-19)
(95.93718434 1.440784527 0)
(94.93294855 0.8271917471 1.121089127e-18)
(93.19485719 1.519966756 0)
(94.14043633 2.7199984 -3.70685058e-19)
(92.47493538 1.817997596 -1.059767761e-19)
(89.65847895 3.008443152 1.34916235e-18)
(91.55882633 5.048342198 -8.228668166e-19)
(88.39590284 3.538036136 4.948165874e-20)
(81.62823835 5.742274548 0)
(88.05857047 10.28465389 2.133391907e-18)
(84.1899285 10.92519503 -4.507134238e-19)
(81.86963021 16.81851463 0)
(87.96242459 16.57226502 6.583344081e-19)
(96.39907105 -0.7268780457 0)
(95.1035176 -0.6493143908 5.774737887e-19)
(95.28170607 0.3427021349 0)
(94.58903601 -0.6121960139 -1.18130466e-18)
(92.71721447 -0.4990542571 0)
(92.98235047 1.038255693 8.298019683e-19)
(91.95434594 -0.4732204912 8.486218819e-19)
(89.07465787 -0.5555997112 4.49317372e-20)
(89.28121538 2.114561217 0)
(87.74136776 1.347676632 -1.009498071e-18)
(86.17790706 1.483398882 1.067959873e-18)
(86.38323284 2.817194929 2.7314186e-19)
(79.45474425 3.08131051 -2.613837619e-18)
(77.55365263 3.019854359 3.013411528e-18)
(77.58617011 4.923058803 -6.770311835e-19)
(96.5745041 -1.74805394 -6.949299663e-19)
(95.31973285 -1.971289216 7.724558636e-19)
(95.10876802 -0.9882385476 -1.902709781e-19)
(94.831238 -2.055846103 0)
(93.11175273 -2.394336155 -2.124271082e-19)
(92.74626255 -0.9999835976 4.539513569e-19)
(92.441542 -2.554290058 5.41827082e-20)
(90.09950582 -3.289573126 9.144926561e-19)
(89.24298036 -1.342295056 0)
(88.44796221 -2.364418407 0)