/*--------------------------------*- C++ -*----------------------------------*\
| =========                 |                                                 |
| \\      /  F ield         | OpenFOAM: The Open Source CFD Toolbox           |
|  \\    /   O peration     | Version:  v2012                                 |
|   \\  /    A nd           | Website:  www.openfoam.com                      |
|    \\/     M anipulation  |                                                 |
\*---------------------------------------------------------------------------*/
FoamFile
{
    version     2.0;
    format      ascii;
    class       surfaceScalarField;
    location    "0.2";
    object      phi;
}
// * * * * * * * * * * * * * * * * * * * * * * * * * * * * * * * * * * * * * //

dimensions      [0 3 -1 0 0 0 0];
oriented        oriented;


internalField   nonuniform List<scalar> 
5975
(
-0.05815269102
0.006101835651
0.05767174651
-0.01184995818
0.00622906704
0.01417956547
-0.1245924006
0.2453797401
-0.02412536545
0.01370599314
-0.1245475327
-0.2545296416
0.01761607651
0.253382301
-0.01644605634
-0.2543533831
0.01435770099
0.2540349159
-0.01399613913
-0.2483597636
0.01364189072
0.2481965331
-0.01344012675
0.01198088171
-0.2384613216
0.23756732
-0.01107800612
-0.4669988754
0.01776193853
0.4644836303
-0.01524669334
-0.4629760165
0.01325270689
0.4611444156
-0.01142110585
-0.0152560512
0.9108301837
0.01033996101
0.009862940001
-0.009813951413
0.9042772861
-0.004822013461
0.9021061541
0.9009561132
-0.1118948342
0.007823004008
0.1116990445
-0.0152030833
0.007575868995
0.02295015994
-0.238000622
0.2364314866
-0.02138022794
-0.250659263
0.01576483582
0.2505702607
-0.01565137598
-0.2535585752
0.01590251567
0.2556289468
-0.01793555948
-0.2473079737
0.01736542555
0.2458102969
-0.0158385788
0.01250006947
-0.2337173858
0.232612977
-0.01139427951
-0.462224981
0.01862774064
0.4601757653
-0.01657852487
-0.4593016411
0.01461621946
0.4572202599
-0.01253483814
-0.01484496942
0.9050442588
0.01025273396
0.01037816047
-0.01060184525
0.900034162
-0.005189078201
0.8966933871
0.8957670351
-0.2253620396
0.0142070171
0.225882041
-0.01472701855
-0.2370372255
0.01784937059
0.2384429514
-0.01924767807
-0.2519025405
0.02176949927
0.2523055453
-0.02214723273
-0.2547235759
0.02207925834
0.254331286
-0.02165510493
-0.2421647261
0.01911611359
0.2421632813
-0.01909639707
0.01350358995
-0.2312987991
0.2288494862
-0.01105427704
-0.4583383972
0.02015118214
0.4548595708
-0.01667235577
-0.4551328251
0.01486571393
0.4528050834
-0.01253797215
-0.0152242767
0.8994150139
0.01049467403
0.01035884754
-0.01066481308
0.8954746984
-0.005401128528
0.8914297026
0.8903659065
-0.2309852428
0.02214008046
0.232573952
-0.02372849399
-0.2431967619
0.02847643764
0.2444525838
-0.0297209356
-0.2531698564
0.03139107858
0.2529722828
-0.03117018236
-0.2514785787
0.02816772868
0.2497932313
-0.02645799698
-0.2363708325
0.01970583891
0.2337157372
-0.01704174971
0.01273566664
-0.2266421891
0.22596086
-0.01205433759
-0.4538068717
0.02021100281
0.4508262577
-0.01723038887
-0.4496834767
0.0135542086
0.4478526711
-0.01172340307
-0.01432142013
0.8924106074
0.01090893039
0.01041689633
-0.00821544807
0.8893687263
-0.005431801423
0.888646056
0.8849341051
-0.2355041098
0.04314109588
0.2358405829
-0.04347813467
-0.2458920754
0.04352968018
0.2453763319
-0.04300329784
-0.2497628516
0.03919466886
0.247689616
-0.03710394998
-0.2421175215
0.02859094687
0.2386827371
-0.0251429224
-0.2251047925
0.01416593271
0.2243533965
-0.01341442932
0.01170363869
-0.2241352187
0.2235766997
-0.01114511972
-0.4468750729
0.0189418309
0.4449228593
-0.01698961732
-0.4460721916
0.01513133669
0.4442828601
-0.0133420052
-0.01334829207
0.8846196424
0.0114313162
0.00970794082
-0.007728920703
0.883749355
-0.005023105015
0.8859402403
0.8799110001
-0.2350703067
0.05036317557
0.2343122256
-0.04960503583
-0.2409282934
0.04501171199
0.2386021319
-0.04267857564
-0.2385836726
0.03330945063
0.2347673256
-0.02948508897
-0.2262628506
0.01652988932
0.2233921885
-0.01365831747
-0.2228342002
0.01235824932
0.2223931743
-0.01191722342
0.01057921297
-0.2220914352
0.2216417047
-0.01012948242
-0.4431175253
0.0174400954
0.4414517999
-0.01577437
-0.44263047
0.0141536932
0.4410362589
-0.01255948206
-0.01596696401
0.8788619023
0.01071901836
0.01100568578
-0.01048768572
0.8782700767
-0.002393047028
0.8778456016
0.8775179531
-0.2310961281
0.03034409981
0.2298713844
-0.02911917011
-0.2300324036
0.02251414191
0.2269699344
-0.01945044639
-0.2239125278
0.0131048615
0.2236974876
-0.01288982134
-0.2223603331
0.01211524796
0.2220659219
-0.01182083676
-0.2212312114
0.01085847521
0.2208907138
-0.01051797764
0.00946136542
-0.2204492542
0.2200839669
-0.009096078183
-0.4399184529
0.01582946247
0.4385092863
-0.01442029592
-0.4395779378
0.01302150836
0.4381775103
-0.01162108086
-0.01490097612
0.8736305048
0.009898072488
0.01023430112
-0.009834628713
0.8732037293
-0.004882771758
0.8728937447
0.8726351813
-0.2283782387
0.01181798422
0.2283911721
-0.01183091763
-0.2255805966
0.0117097127
0.2254938079
-0.01162292402
-0.2231362708
0.01124256991
0.2229725667
-0.01107886582
-0.2212946242
0.01048970392
0.2210692271
-0.01026430682
-0.2199855236
0.009518170983
0.2197176209
-0.009250268244
0.008404432185
-0.2191185885
0.2188186069
-0.008104450587
-0.4372137666
0.01423188808
0.4360229088
-0.01304103033
-0.4369033858
0.01183916241
0.435681108
-0.01061688463
-0.01372341876
0.8689304586
0.009036672056
0.009386792825
-0.009097641862
0.8685779524
-0.004528310735
0.8683244135
0.8681068706
-0.2284002492
0.01020916825
0.2283948878
-0.01020380688
-0.2252556202
0.010083366
0.2251822772
-0.01001002299
-0.2225368009
0.009702828528
0.2224072006
-0.009573228252
-0.2204699692
0.009109437804
0.2202923208
-0.008931789327
-0.2189988059
0.008339481592
0.2187840886
-0.0081247643
0.007438553829
-0.2180298288
0.2177826208
-0.00719134584
-0.4349262851
0.01272044011
0.4339152091
-0.01170936407
-0.4345729523
0.01067663445
0.4335089518
-0.009612633902
-0.01251429189
0.8647369489
0.008180782424
0.008527019213
-0.008327614744
0.8643912752
-0.004154146626
0.8641509454
0.863952724
-0.2283602789
0.008871372068
0.2283437287
-0.008854821887
-0.2249768002
0.00873428044
0.2249125416
-0.008670021847
-0.2220564152
0.008413139437
0.2219504766
-0.008307200781
-0.2198140403
0.007931655972
0.2196705753
-0.007788190964
-0.2182030332
0.007308286567
0.2180280333
-0.007133286683
0.006569236224
-0.2171328297
0.2169274279
-0.006363834397
-0.4329821856
0.01132097449
0.4321209299
-0.01045971876
-0.4325459905
0.009570745707
0.4316200102
-0.008644765408
-0.01132570987
0.8610124912
0.007360876791
0.007689290761
-0.007561164487
0.8606267298
-0.00377905591
0.8603688368
0.8601736681
-0.2282828554
0.007747021502
0.228259523
-0.007723689183
-0.2247304669
0.007604399857
0.2246730102
-0.007546943115
-0.2216599015
0.007326628572
0.2215710848
-0.007237811914
-0.2192801459
0.006926539686
0.2191618463
-0.006808240079
-0.2175506653
0.006412303474
0.2174058045
-0.006267442711
0.005797744254
-0.2163858059
0.2162133231
-0.005625261509
-0.4313244819
0.01005149171
0.4305875749
-0.009314584749
-0.4307825799
0.008546982524
0.4299757557
-0.007740158369
-0.01019558898
0.857712855
0.006595317579
0.006899907506
-0.006825361843
0.8572565027
-0.00341702717
0.8569605022
0.8567566409
-0.2281826497
0.006793602724
0.2281551556
-0.006766108632
-0.2245091165
0.006649247531
0.2244570883
-0.006597219328
-0.2213250374
0.006404817844
0.2212491234
-0.006328903797
-0.2188370848
0.00606605576
0.218737843
-0.005966813943
-0.2170079987
0.005635118123
0.2168864724
-0.005513591844
0.005117939699
-0.2157571654
0.2156109309
-0.004971705147
-0.4299043762
0.008913563085
0.4292706192
-0.008279806084
-0.429246245
0.007614637552
0.4285418818
-0.00691027432
-0.009144955921
0.8547926168
0.005894005253
0.00617118891
-0.006136048352
0.8542475951
-0.003076391133
0.853900845
0.8536802498
-0.228068491
0.005977832684
0.2280384686
-0.005947810277
-0.2243080466
0.005834148837
0.224260536
-0.005786638245
-0.2210372729
0.005616419574
0.2209714414
-0.005550588019
-0.2184635337
0.005325411669
0.2183791342
-0.005241012143
-0.2165509425
0.004959675775
0.2164478684
-0.004856601641
0.004520128428
-0.2152232703
0.2150983054
-0.004395163556
-0.4286814942
0.007903231368
0.4281335809
-0.007355318058
-0.4279048533
0.006776694183
0.4272883777
-0.006160218559
-0.008185946214
0.8522075972
0.005261576178
0.00550938962
-0.005503012154
0.8515646611
-0.002762459233
0.8511602921
0.8509177905
-0.227945939
0.005277695934
0.2279144566
-0.005246213595
-0.224123959
0.005136190125
0.2240802987
-0.005092529845
-0.2207866068
0.004940431735
0.2207288648
-0.004882689712
-0.2181444572
0.004687533998
0.2180718686
-0.004614945466
-0.2161618694
0.004373831422
0.2160736212
-0.004285583233
0.003997049357
-0.214766162
0.2146586206
-0.003889507942
-0.4276228605
0.007013090231
0.4271466968
-0.006536926615
-0.4267304197
0.006031520097
0.4261892032
-0.005490303618
-0.007321766678
0.8499168394
0.004696472154
0.004916052343
-0.004929835418
0.8491727298
-0.002477407742
0.8487078644
0.8484403828
-0.2278186864
0.004678473095
0.2277864552
-0.004646241827
-0.2239544162
0.004540023904
0.2239140695
-0.004499677262
-0.2205659077
0.004362611755
0.2205147618
-0.004311465802
-0.2178689784
0.004140599318
0.2178059192
-0.004077540124
-0.215827646
0.003868932623
0.2157514256
-0.003792712225
0.003543306312
-0.2143719899
0.214278797
-0.003450113404
-0.4267017375
0.006234463122
0.4262857396
-0.005818465183
-0.42569894
0.00537504828
0.4252220597
-0.004898168013
-0.006553929111
0.8478821625
0.004198565466
0.004390040495
-0.004418651016
0.8470374517
-0.002222619181
0.8465118325
0.8462177636
-0.2276892345
0.004166181777
0.227656736
-0.004133683274
-0.2237974559
0.004031264649
0.2237599794
-0.003993788137
-0.2203698071
0.003869343292
0.2203241118
-0.00382364802
-0.2176288851
0.003672691404
0.2175736088
-0.003617415019
-0.2155381321
0.003435362669
0.2154717593
-0.003368989848
0.003151761233
-0.2140297288
0.2139484208
-0.003070453281
-0.4258959378
0.00555824967
0.4255304816
-0.005192793413
-0.42478951
0.004801843533
0.424367497
-0.004379830595
-0.005879190895
0.8460688304
0.003764006567
0.003928516372
-0.003968140302
0.8451264011
-0.001997677022
0.8445413692
0.8442200866
-0.2275592558
0.003728158378
0.2275268065
-0.003695709047
-0.2236514258
0.003596963176
0.2236164467
-0.003561984091
-0.2201941365
0.003448241338
0.2201529983
-0.003407103113
-0.2174178263
0.003272656314
0.2173689759
-0.003223805907
-0.2152853572
0.0030636581
0.2152271139
-0.003005414826
0.002814823788
-0.213730493
0.213659082
-0.002743412827
-0.4251870198
0.004975763646
0.4248640115
-0.004652755352
-0.4239840531
0.004306106324
0.4236086291
-0.003930682406
-0.005293308203
0.8444452617
0.003389029847
0.00352784705
-0.003576084728
0.8434091776
-0.001801656634
0.8427669412
0.84241843
-0.2274297854
0.003356874554
0.2273975767
-0.003324665838
-0.2235148603
0.003229343206
0.2234820378
-0.003196520724
-0.220035533
0.003091837012
0.2199982071
-0.003054511089
-0.2172307302
0.002933772199
0.2171871922
-0.002890234212
-0.215062878
0.002748167061
0.2150113432
-0.002696632328
0.002528017002
-0.2134668763
0.2134036196
-0.002464760283
-0.4245594474
0.004479600005
0.4242719633
-0.004192115924
-0.4232667551
0.003882609974
0.4229305875
-0.00354644234
-0.004791599805
0.8429824175
0.00306980295
0.003184641055
-0.003239805919
0.8418573837
-0.001633348881
0.8411604841
0.8407850811
-0.2273014858
0.003044602843
0.2272696595
-0.003012776528
-0.2233864465
0.002920621138
0.2233554827
-0.002889657353
-0.2198911932
0.002792635641
0.2198570565
-0.002758498985
-0.2170634327
0.002649145067
0.2170242888
-0.00261000116
-0.2148654023
0.002482878827
0.2148194227
-0.002436899221
0.002286623218
-0.213232577
0.2131764761
-0.002230522324
-0.4239996239
0.004061961082
0.4237411275
-0.003803464782
-0.4226235666
0.003524758385
0.4223201008
-0.003221292578
-0.004368244512
0.8416545775
0.002802426783
0.002893657671
-0.002955744381
0.8404448836
-0.001491104694
0.8396958444
0.8392939764
-0.2271748351
0.002787241082
0.227143466
-0.002755872013
-0.2232650143
0.002666543527
0.2232356174
-0.002637146593
-0.2197587359
0.002546494049
0.2197272266
-0.002514984734
-0.2169124474
0.002414947
0.2168768838
-0.002379383409
-0.2146885623
0.002264422789
0.2146471095
-0.002222969972
0.002087764203
-0.2130231072
0.2129731657
-0.002037822708
-0.4234948656
0.0037175549
0.4232599097
-0.003482598945
-0.4220419102
0.003229068001
0.421765398
-0.002952555896
-0.004019061912
0.8404356689
0.002584231993
0.00265373852
-0.002721393708
0.8391472154
-0.00137364245
0.8383480931
0.8379203339
-0.2270500734
0.002580164299
0.2270191865
-0.002549277322
-0.2231494403
0.002462391785
0.2231213334
-0.002434284862
-0.219636026
0.00234881833
0.2196066382
-0.002319430597
-0.2167746798
0.002226858695
0.216741968
-0.002194146857
-0.2145283664
0.002088818587
0.2144904738
-0.002050925966
0.001927300972
-0.2128338084
0.2127879403
-0.001881432904
-0.4230353077
0.003439241568
0.4228199639
-0.003223897749
-0.421510436
0.002990475438
0.4212545691
-0.00273460858
-0.003740341693
0.8393113843
0.002409560703
0.002455065591
-0.002534593841
0.8379414675
-0.001280298745
0.8370937981
0.8366400352
-0.2269272852
0.00241862859
0.2268968952
-0.002388238641
-0.2230386655
0.002303443568
0.2230116007
-0.002276378726
-0.2195211336
0.002195042182
0.219493418
-0.002167326634
-0.2166473578
0.002080585533
0.2166168579
-0.00205008569
-0.2143811782
0.001952200978
0.2143460346
-0.001917057342
0.001802445003
-0.2126594736
0.2126169232
-0.001759894584
-0.4226124291
0.00322505499
0.4224118875
-0.00302451341
-0.4210183622
0.002807138235
0.4207808039
-0.002569580024
-0.003527040606
0.8382466488
0.002281531004
0.002310245071
-0.002390822193
0.8368052491
-0.001207742892
0.8359107187
0.8354322923
-0.2268064715
0.002300022129
0.226776578
-0.002270128709
-0.2229316922
0.002187083868
0.22290544
-0.002160831638
-0.2194122804
0.002082646204
0.2193858214
-0.00205618713
-0.2165279724
0.001973770644
0.2164990976
-0.001944895838
-0.2142438401
0.001852453103
0.2142107032
-0.001819316215
0.0017112858
-0.2124968206
0.212456663
-0.001671128222
-0.4222169674
0.003071035223
0.4220269947
-0.002881062524
-0.4205585129
0.00267482767
0.4203327891
-0.002449103916
-0.003388077285
0.8372364984
0.002182562829
0.002215664841
-0.002298258777
0.8357154306
-0.001164205355
0.8347766653
0.8342680869
-0.226687609
0.002223355949
0.2266582019
-0.002193948863
-0.2228276316
0.002112368415
0.2228019816
-0.002086718467
-0.2193078362
0.002010751561
0.2192822338
-0.001985149185
-0.2164142179
0.001905608029
0.2163864012
-0.001877791337
-0.2141134176
0.001788834071
0.2140815525
-0.001756969033
0.001653126345
-0.2123424786
0.2123040732
-0.001614720947
-0.4218409392
0.002975341787
0.4216581914
-0.002792593988
-0.4201217307
0.002594631847
0.4199097769
-0.002382678082
-0.003268232489
0.002086304933
0.002157209541
-0.002213313001
-0.001114382059
-0.006327896818
0.02885542647
-0.02898876073
0.006461231081
0.006357656843
-0.0122191854
-0.05861905928
0.1240088628
-0.01472421956
-0.125153984
0.01586934083
-0.008363435498
0.05517912215
-0.05517656136
0.008360874709
0.006309789588
0.02864747253
-0.01660903837
0.0004162224904
-0.05202274227
-0.05204271156
0.2325744453
-0.01886365671
0.01189041479
0.0115237909
-0.1187366648
-0.1183883294
0.01522944721
0.122958981
-0.008159817411
0.1114820767
-0.1111466045
0.00782434519
0.007915536932
0.05508658923
0.1221919954
-0.01946872304
-0.1234566703
0.01026152158
0.01047187639
-0.05400951028
-0.008768290709
0.009108142196
0.0536696588
-0.009068818826
-0.05444764312
0.00950695166
0.05518670939
-0.008780272086
-0.05547525613
0.1189207544
-0.01585670528
-0.1193118054
0.01624775625
-0.01866953295
0.1209784079
0.009835663605
0.01004745685
-0.03001879639
-0.006918189915
0.007192091532
0.02974489478
0.05552162048
-0.01104801654
-0.05592171198
0.005698755024
0.005749353018
-0.006972404192
-0.03021605772
0.007169665519
0.03019275889
-0.006798176261
-0.03036698682
0.0613504317
-0.01184737621
-0.06177078132
0.01226772583
-0.01070806595
0.01101495122
0.05521473521
-0.01739651119
0.008672018908
-0.1121329277
-0.112664437
-0.01756771866
0.2326843149
-0.2318175925
0.0167024587
0.2342192912
0.0122623748
0.009042939198
0.05968274448
-0.01097424037
-0.06008631482
0.0113778107
-0.01168583278
0.01211905388
0.0609172106
0.02999875263
-0.006724183653
0.1158013908
-0.01008281854
-0.1158726997
0.01015412743
-0.0149683181
0.0148891019
0.1189999706
0.05477140479
-0.008352986101
-0.01151379793
0.1103720293
-0.1101086867
0.01125045531
0.01607460218
-0.01555244375
-0.0005221584333
0.02968692523
-0.00697271488
-0.02976340296
0.007049192604
0.04795037401
-0.007821759782
-0.04799255311
0.05199233301
-0.007287946936
-0.05275317338
0.008048787312
0.006208963381
-0.02402452747
0.02516750586
-0.007351941764
0.005767045335
0.02640913453
-0.006437864997
-0.02573831487
0.02928775561
-0.006660148909
-0.0293119419
0.006684335193
0.02382700053
-0.02231044797
0.004250492777
-0.01606694984
0.0226952162
-0.000419302973
0.02587728779
-0.006917054739
-0.02574250471
0.006782271661
-0.005133122532
0.003436770252
0.02552335281
0.0254995994
-0.00542772372
-0.01959124724
0.02609739734
-0.006357087548
-0.02601386374
0.006273553958
-0.006783044984
0.006566296453
0.02609403632
0.02662504461
-0.005762340139
-0.02657854753
0.005715843057
-0.006174044243
0.00608979222
0.02618164936
0.0193617765
-0.005621674119
-0.01557640288
-0.0004905469581
-0.006852203074
0.006701499901
0.02983762841
0.02110598887
-0.004704863554
-0.0003265231276
-0.007848944514
-0.03175198584
-0.01376221793
-0.1255544022
-0.01725681304
0.2534389928
-0.2553401946
0.01917066403
-0.006434318889
0.00657710755
0.02914496695
0.02737092374
-0.006094911738
0.02747518064
-0.006786646449
-0.02760558893
-0.005711339672
0.004002537501
0.02787844184
-0.00658833985
0.02948200494
0.03045689614
-0.006904460602
-0.03052515042
0.03087282309
-0.006557728776
-0.03096811593
0.006653021624
-0.01474050634
0.02078286849
-0.005618682345
-0.0004236798039
-0.01409249963
-0.0006480067122
-0.01325432675
0.01392628968
-0.02719871413
0.02072063223
-0.006776244855
-0.005979942942
-0.0004359026949
-0.005532497844
0.02627414947
-0.02630749168
0.005565840052
-0.005645660634
0.005801328509
0.02646937674
0.02604285905
-0.0002491323046
-0.03253561132
0.02434728682
-0.007364119245
-0.006213126108
-0.0002796261623
0.01420272671
-0.02957809593
-0.00693507875
0.01475712811
-0.0005544013951
0.01937160466
-0.0003639837721
-0.006482401183
-0.0004004785464
0.007148720061
-0.02600379838
-0.006887426387
0.02223107366
-0.02917485322
0.02339466298
0.0231791033
-0.000370728391
-0.005563190137
-0.000432559787
-0.006043635712
-0.02187273885
0.02239355454
-0.005948539401
0.005178844218
-0.006330950835
-0.004689907739
0.02077877016
-0.02265942313
0.02334587088
-0.005376355479
-0.005887542713
-0.003780203563
0.02527582758
-0.0003896351506
-0.02580387495
0.02756219187
-0.005538520484
-0.006161451687
-0.02797350953
-0.007423339237
0.02754790425
0.006095917611
-0.006507235266
-0.0003802406465
-0.01562941629
-0.2561362935
-0.01322331424
0.2554548761
-0.2557977859
0.01360624945
-0.0132473727
-0.2542865247
-0.01329213209
0.2505281726
-0.2506139359
0.0134241118
-0.01319900537
-0.2484100585
0.2413663972
-0.01181876763
-0.2421156959
0.01258998816
0.05659574738
-0.0107319259
-0.05691183801
0.05829332251
-0.009771376824
-0.05868010425
0.01015815857
-0.0107031465
0.01107413988
0.0593117511
-0.01722880421
-0.2396353304
-0.01558814144
0.2480297494
-0.2506393839
0.0182157714
0.01876703113
0.252302625
-0.01565799613
-0.2505656833
-0.0172128073
0.2545357498
-0.2543413967
0.01705752842
0.01483890982
0.2550135159
-0.01625852906
-0.2544737098
-0.01545538988
0.2495679048
-0.2498738751
0.01579687946
0.01399424126
0.2502182586
-0.01502909782
-0.2477032648
0.2369799165
-0.01280479697
-0.2383453032
0.01418205936
0.01278057814
0.2405845375
0.1117352676
-0.0115862924
-0.1116627731
0.1143880699
-0.01139116288
-0.1145808229
0.01158391587
-0.01396581588
0.01442926766
0.115337939
-0.01856018558
-0.236039163
-0.02018061975
0.2490277222
-0.2486314959
0.01980524397
0.01598527314
0.2478279197
-0.02043566894
-0.251622134
-0.02050829863
0.2554503839
-0.255518057
0.02060908316
0.0159230957
0.2545516631
-0.02197412367
-0.253224924
-0.02124858339
0.2472886848
-0.2480362129
0.02202472526
0.01771995403
0.2492489407
-0.01656218089
-0.2468289733
0.2308249674
-0.0118599524
-0.2323677165
0.01340497134
0.01379988561
0.235688546
-0.01729412919
0.2272346022
-0.225469979
0.2224715492
-0.1100216079
-0.01916492244
-0.2291139573
-0.02472198941
0.2399445651
-0.2381933506
0.02297833427
0.01613316781
0.234403991
-0.0262199314
-0.2416879494
-0.02870085557
0.2514987955
-0.2510124811
0.02823583664
0.02117438482
0.2496440284
-0.02879284303
-0.2530537406
-0.02686231665
0.253269773
-0.2542383647
0.02785851234
0.02230062783
0.2552610531
-0.02554925954
-0.2527650295
-0.01998527529
0.2411085139
-0.2431882431
0.02208181337
0.02017837422
0.2462497933
-0.01768698606
-0.2386574987
0.2269025012
-0.01295824473
-0.2276367959
0.01369253942
0.01503059422
0.2292990312
-0.03837143238
0.2325802598
-0.2315898611
0.2288615009
-0.03903026327
-0.234845777
-0.04035606561
0.2436064143
-0.2433387491
0.04009665007
0.02696084889
0.2414682513
-0.04036046022
-0.2458765635
-0.0381000727
0.2497293849
-0.2508716033
0.03926034306
0.03121408659
0.2516966689
-0.03652316501
-0.2513204242
-0.02944860999
0.2452155709
-0.2479157569
0.03216720601
0.02954341155
0.2519197635
-0.02642757064
-0.2451222434
-0.01609104545
0.2289446766
-0.2325385105
0.01969007006
0.02218907746
0.2386394301
-0.01379246155
-0.2274021456
0.2243235997
-0.01197700747
-0.2249171826
0.01257059036
0.01343317123
0.2262049966
-0.05086833906
0.2334497702
-0.2336729749
0.2332631136
-0.05033892189
-0.2355998673
-0.04673831847
0.2400558469
-0.2416082528
0.04829714207
0.04373106273
0.2434130141
-0.04479040146
-0.242868059
-0.03657058462
0.2400932312
-0.2432072661
0.0396954415
0.04087606808
0.248064572
-0.03308744143
-0.2420561969
-0.02092368322
0.2302161169
-0.2344957498
0.02520950712
0.03176645742
0.2420556086
-0.01649334674
-0.2306896884
-0.01275993829
0.2230488905
-0.2235155069
0.01322655476
0.01766505375
0.2254478187
-0.01228803117
-0.2233061073
0.2222576538
-0.01086609705
-0.2227305253
0.01133896857
0.01226526556
0.2237619728
-0.03798418852
0.2309313103
-0.2316943233
0.2330067563
-0.0368020884
-0.232277959
-0.03037477385
0.2308675387
-0.2334629452
0.03297264232
0.04693853866
0.238134634
-0.02734035124
-0.2330641118
-0.01622699853
0.224922554
-0.2288865788
0.02019242954
0.03680191469
0.2366093027
-0.01366506964
-0.2264739286
-0.01256541763
0.222704975
-0.2230039251
0.01286436762
0.02103451332
0.2257145084
-0.01224905598
-0.2226766948
-0.01121936479
0.2214754918
-0.221829862
0.01157373494
0.01279293019
0.2226142096
-0.01085673956
-0.2215938366
0.2206143799
-0.00973767649
-0.2209907756
0.01011407212
0.01102594606
0.2218109207
-0.01227067905
0.2291580832
-0.2291474387
0.2301556356
-0.01228896003
-0.2283599577
-0.01216697496
0.2262603872
-0.2263272203
0.01223380802
0.02518131181
0.2282016649
-0.01207566977
-0.2256719018
-0.01167189263
0.2236959013
-0.2238511437
0.01182713502
0.01383328752
0.2241942074
-0.01149735508
-0.2233108084
-0.01086881793
0.2217015049
-0.2219272667
0.01109457971
0.01239297644
0.2224272466
-0.01062861329
-0.2215348289
-0.009835502335
0.2202647877
-0.2205398196
0.01011053423
0.01119040664
0.2211435603
-0.009551634342
-0.2202693916
0.2192976949
-0.008659566965
-0.2196004742
0.00896234627
0.009818117451
0.2202576279
-0.01058017371
0.2291830229
-0.2291817002
0.2291688872
-0.01057860033
-0.2284018226
-0.01045833834
0.2260137797
-0.2260726907
0.01051724935
0.01177438022
0.2261957197
-0.01038220196
-0.2253317566
-0.01005943424
0.223160614
-0.2232832211
0.01018204132
0.01138838697
0.2235500842
-0.009922525685
-0.2226737094
-0.009431677893
0.220927673
-0.2211039938
0.009607998612
0.01070137517
0.2214898336
-0.009243644195
-0.2206580029
-0.008617570942
0.2193123991
-0.219530561
0.008835732791
0.009777286268
0.2200056724
-0.008391068513
-0.2192253084
0.2182299926
-0.007669675529
-0.2184765062
0.007916189135
0.008692630411
0.2190094967
-0.009185584552
0.2291584322
-0.2291686477
0.2291811712
-0.009171323481
-0.22837454
-0.009050677718
0.2257915294
-0.2258452866
0.009104434934
0.01014083525
0.2259563105
-0.008984402573
-0.2250430753
-0.008716450193
0.222728122
-0.2228285404
0.00881686864
0.009819133762
0.2230443087
-0.008605307715
-0.2221675577
-0.008210283655
0.2203127454
-0.2204543665
0.008351904779
0.00927598492
0.2207611259
-0.008059233715
-0.2199650903
-0.007554223268
0.2185478272
-0.2187243027
0.007730698783
0.008546057027
0.2191058237
-0.007370295389
-0.2183869611
0.217355015
-0.006779160977
-0.2175579399
0.006982085905
0.007673836364
0.2179947101
-0.008012707077
0.229096334
-0.2291146579
0.2291458934
-0.007990766224
-0.2283047962
-0.00787100496
0.2255867544
-0.2256365156
0.007920766158
0.008786950592
0.2257388592
-0.007811985684
-0.2247894862
-0.007583431301
0.2223677862
-0.2224522995
0.007667944528
0.008509081741
0.2226321797
-0.007490776278
-0.2217525565
-0.007165090029
0.2198118083
-0.2199281878
0.007281469499
0.00806619579
0.2201782055
-0.007041131871
-0.2194041041
-0.006626227193
0.2179228969
-0.2180680944
0.00677142475
0.007476068939
0.2183800448
-0.006474526497
-0.217702366
0.2166294944
-0.005983823629
-0.2167985082
0.006152837362
0.006763496545
0.2171607546
-0.007016678111
0.2290086988
-0.2290324839
0.2290764367
-0.006990047128
-0.2282092807
-0.006872513244
0.2253963725
-0.225442725
0.006918865833
0.007653255029
0.2255378992
-0.006819236227
-0.2245623935
-0.006620517216
0.2220605835
-0.2221331512
0.006693084884
0.007407832754
0.2222865821
-0.006541698917
-0.2214038557
-0.006267960592
0.2193952718
-0.2194926993
0.006365388016
0.007037662864
0.2197006851
-0.006164427969
-0.2189406174
-0.005818223641
0.2174039809
-0.2175251882
0.00593943097
0.006550889917
0.2177843104
-0.005691411118
-0.2171348112
0.2160210828
-0.005279395463
-0.2161633451
0.005421657749
0.00596003921
0.2164671995
-0.006168606129
0.2289039776
-0.228931402
0.2289838527
-0.006139105854
-0.2280979913
-0.006024621997
0.2252185326
-0.2252618927
0.006067982085
0.006694828926
0.2253507911
-0.005976064455
-0.2243566041
-0.005800777323
0.221794176
-0.221857457
0.005864058314
0.006474870633
0.2219905307
-0.005732655239
-0.221105395
-0.005498935803
0.2190431452
-0.2191259715
0.00558176211
0.006159508289
0.2193018193
-0.005411170137
-0.2185512994
-0.005118390792
0.2169673182
-0.2170697895
0.005220862153
0.005751244363
0.2172878547
-0.005011116033
-0.2166582173
0.2155057654
-0.004661560578
-0.2156266766
0.004782471826
0.005254982074
0.2158840404
-0.005443709681
0.2287880083
-0.228817808
0.2288758525
-0.005412508803
-0.2279771398
-0.00530153118
0.2250518404
-0.2250925348
0.005342225622
0.005876822833
0.2251758586
-0.005256954714
-0.2241685355
-0.005100618865
0.2215601088
-0.2216159578
0.005156467827
0.005677704234
0.2217328913
-0.005040999827
-0.2208462259
-0.004838902206
0.2187414468
-0.2188127496
0.004910204955
0.005405122427
0.2189634344
-0.004763585867
-0.2182197735
-0.004513175494
0.2165956932
-0.2166832632
0.004600745495
0.005058126263
0.2168688677
-0.004421497938
-0.2162535469
0.21506546
-0.004122234795
-0.2151691038
0.004225878577
0.004636877728
0.2153890161
-0.00482086558
0.2286649145
-0.2286961827
0.2287577753
-0.004788760299
-0.2278507917
-0.004681557557
0.2248951866
-0.2249334694
0.004719840294
0.005176249163
0.2250117813
-0.004640416437
-0.2239955573
-0.004499804507
0.221352353
-0.221402101
0.004549552445
0.004994631485
0.2215059091
-0.004447114723
-0.2206185975
-0.004270585435
0.2184801168
-0.2185421213
0.004332589946
0.004756310669
0.2186726702
-0.004205308546
-0.2179342552
-0.003989136088
0.2162763842
-0.2163518918
0.004064643658
0.004458128257
0.2165113963
-0.00391011662
-0.2159066655
0.214686359
-0.00365193233
-0.214775851
0.003741424316
0.00409728758
0.2149652218
-0.004287097978
0.2285376502
-0.2285697318
0.2286333969
-0.004254629162
-0.2277217033
-0.004151262593
0.2247475845
-0.2247836916
0.004187369636
0.004577732235
0.2248574783
-0.004113103647
-0.2238356149
-0.003985692414
0.2211663496
-0.2212110246
0.004030367404
0.004410993369
0.2213039714
-0.003938723832
-0.2204167757
-0.003783131721
0.2182515814
-0.2183059905
0.003837540766
0.004200548074
0.218420168
-0.00372604642
-0.2176859704
-0.003537824011
0.2159996344
-0.216065286
0.003603475592
0.003941773612
0.2162035432
-0.003469164391
-0.2156067917
0.2143575653
-0.00324475826
-0.2144353911
0.003322584001
0.003630023008
0.2145996423
-0.003830210577
0.2284083294
-0.228440762
0.2285054437
-0.003797735352
-0.227591731
-0.003698115783
0.2246081047
-0.2246422599
0.003732271054
0.004066863908
0.2247119853
-0.003662554158
-0.2236869874
-0.003546327369
0.2209985329
-0.2210389454
0.003586739902
0.003912884476
0.2211228084
-0.003504134891
-0.220236329
-0.003365876741
0.2180499917
-0.2180981292
0.003414014264
0.003725421549
0.2181988513
-0.003315544637
-0.2174681584
-0.003150347887
0.2157578146
-0.2158153447
0.003207878025
0.003498838202
0.2159361588
-0.003090232595
-0.2153454725
0.214070358
-0.002893771529
-0.2141385151
0.002961928656
0.003227329997
0.2142819966
-0.00344304766
0.2282783555
-0.2283108487
0.2283758505
-0.003410771956
-0.2274620611
-0.003314641049
0.2244758272
-0.2245082664
0.003347080292
0.003630676443
0.2245743914
-0.003281316932
-0.2235481844
-0.003174533755
0.2208459978
-0.2208828345
0.003211370415
0.003487710277
0.2209590639
-0.003136326565
-0.2200737402
-0.003012424648
0.2178706774
-0.217913634
0.003055381248
0.003319416632
0.2180032313
-0.00296766213
-0.2172754927
-0.002821428345
0.2155447863
-0.2155956296
0.002872271618
0.00311940762
0.2157020651
-0.00276834912
-0.2151159572
0.2138175365
-0.002594909053
-0.2138777289
0.002655101491
0.002881147582
0.2140040342
-0.003117927742
0.2281486995
-0.2281810399
0.2282458761
-0.003085990265
-0.2273334233
-0.002993054662
0.2243498721
-0.2243808146
0.003023997174
0.00326139463
0.2244437758
-0.002961648062
-0.2234178531