/*--------------------------------*- C++ -*----------------------------------*\
| =========                 |                                                 |
| \\      /  F ield         | OpenFOAM: The Open Source CFD Toolbox           |
|  \\    /   O peration     | Version:  v2012                                 |
|   \\  /    A nd           | Website:  www.openfoam.com                      |
|    \\/     M anipulation  |                                                 |
\*---------------------------------------------------------------------------*/
FoamFile
{
    version     2.0;
    format      ascii;
    class       surfaceScalarField;
    location    "3.08";
    object      phi;
}
// * * * * * * * * * * * * * * * * * * * * * * * * * * * * * * * * * * * * * //

dimensions      [0 3 -1 0 0 0 0];
oriented        oriented;


internalField   nonuniform List<scalar> 
5999
(
0.0004217195392
0.9162282805
0.0005102891471
0.9166114304
0.0005842488033
0.9165760403
0.0002847416896
0.916608434
0.0003410731312
0.4583389713
0.0002957703583
0.4583118186
0.0003612826271
-0.000373101207
-0.0004597084725
0.4582892453
0.0005204631675
-0.0005786855797
0.4582381699
0.0006755156626
-0.0007817763601
0.4582138329
0.0008979434749
-0.001033336812
0.4581869526
0.001181384181
-0.001333872906
0.4581791245
0.001489748455
-0.001646365524
0.4581997003
0.001778165233
0.00115774739
0.9150705331
0.001813191121
0.9159559867
0.002018245824
0.9163709856
0.000531763488
0.9171972557
0.0008976605827
0.4581014801
0.0006383997863
-0.4582081164
-0.4581959935
-0.0007876271335
0.4580070631
0.0009765575048
-0.4580552705
-0.001212749213
0.4577680049
0.0007066239473
0.0007933908954
-0.2289675888
-0.0008656440235
0.228890542
0.0009426908193
-0.001280000124
-0.2289036245
0.2288005237
0.001383100913
-0.001819259002
-0.2288429446
0.2287042671
0.001957936589
-0.002479369944
-0.2288147191
0.2286556227
0.00263846636
-0.003169664875
-0.2288484882
0.2287510214
0.003267120995
0.001456145478
0.9136143876
0.003934190621
0.9134779415
0.006663832518
0.9136413437
0.002677807188
0.9150755102
0.006107770873
-0.4580764555
0.4579331559
0.00282110678
-0.4578516558
-0.002770807275
0.4585367854
0.00208567762
-0.4573787072
-0.00212685908
0.45719401
0.00112063748
0.001190918715
-0.2285183137
-0.00140510853
0.2283573614
0.001566060913
-0.2282796401
-0.002151297612
0.2280492487
0.002381688971
-0.2281100639
-0.002316011763
0.2323008205
-0.001876541952
-0.2359621209
0.01633529624
0.2399364055
-0.02031797898
-0.2344671102
0.02906932231
0.2362472564
-0.03085580906
0.0004421030304
0.9131722846
0.0009733697339
0.9129466748
0.002088908729
0.9125258048
0.002986659754
0.9122435215
0.001934237702
-0.4572142084
0.4568298213
0.003371046856
-0.4601262305
-0.004530173063
0.4571345585
0.007521844995
-0.4587323474
-0.008716495039
0.460361847
0.001864354374
0.005222641035
-0.2277696591
-0.001807495239
0.2275908671
0.001986287251
-0.2296444233
-0.001050140511
0.2352982115
-0.004608248236
-0.2481815444
0.02095690547
0.2529252887
-0.02572129645
-0.2502841528
0.03681197684
0.2527763419
-0.039326463
-0.2401139527
0.04362896132
0.2406556756
-0.0441837016
4.807361193e-05
0.913124211
0.0001424045872
0.9128523439
0.0003780994314
0.9122901099
0.001050285935
0.9113312379
0.0002400970304
-0.4566054894
0.4558444675
0.001811307889
-0.4557701679
-0.002183432125
0.4552048566
0.002748743434
-0.4543561332
-0.003536203883
0.4536715116
0.002256599871
0.001964225599
-0.228314275
-0.004033107614
0.2270899364
0.005257093895
-0.2518925196
0.005473947637
0.2586585871
-0.01226494841
-0.263880203
0.02716763845
0.2662560755
-0.02958035117
-0.2559039689
0.03203739648
0.2552479589
-0.03141166811
-0.2389975793
0.02673000327
0.2370864535
-0.02483357214
-0.0002304278022
0.9133546388
-0.0003690879997
0.9129910041
-0.0002761366063
0.9121971585
2.517698615e-05
0.9110187641
1.116020901e-05
-0.4550131976
0.4547509468
0.0002874278094
-0.4547600539
-0.001196626269
0.4540566936
0.001899986573
-0.4529416524
-0.002374875893
0.4520162719
0.00161895648
0.001681299931
-0.237427466
0.001128670987
0.2408731025
-0.004587498251
-0.2651757578
0.01392223931
0.2675026882
-0.01629040342
-0.2686615959
0.01764524454
0.2665443686
-0.0155740394
-0.247262013
0.005072964212
0.2472442312
-0.005082568936
-0.226600064
-0.01119616848
0.2225431395
0.01524622193
-0.0006366637027
0.9139913025
-0.001146901041
0.9135012414
-0.001511143452
0.9125614009
-0.0002945590023
0.9108314342
-0.001029254525
-0.4546638911
0.4544009494
-3.161730116e-05
-0.4530659422
-0.0001568103818
0.4527489348
0.0004738178061
-0.4517140066
-0.001387396046
0.4515736308
0.0008098285603
0.0007177039527
-0.24788008
0.003167065319
0.2498320156
-0.005144083226
-0.2744451564
0.009630900811
0.2709891167
-0.006226540001
-0.2617027415
0.005690462121
0.259961016
-0.003993936308
-0.2287937694
-0.006537167539
0.2221523903
0.01316298312
-0.210386486
-0.03302381984
0.1069351757
0.1012328244
0.01548880295
0.01975350279
-0.001055963921
0.9150472664
-0.002059553103
0.9145048306
-0.002868694734
0.9133705426
-0.001529693163
0.911575396
-0.002082963367
-0.4544086444
0.4544469452
-0.001567993954
-0.4526292958
0.001656613161
0.4525692894
-0.001596606805
-0.4509679397
0.001471441113
0.4516473936
-0.00074036155
-0.00141367116
-0.2527226491
0.0007649871077
0.2527452732
-0.0008186988352
-0.2709903613
0.0004449690167
0.2707439392
-0.0002531562064
-0.2543984608
-0.001755456251
0.2532612153
0.002849144163
-0.2107564244
-0.00714548856
0.2090512344
0.008845488065
-0.09477387048
-0.005858746453
0.0947844161
0.005848200827
-0.001465201501
0.9165124679
-0.002857379187
0.9158970083
-0.004316534631
0.914829698
-0.002537679519
0.9128766256
-0.003080084677
-0.4546781075
0.4548996594
-0.002759231481
-0.4526786075
0.003010603737
0.4529128361
-0.003244832336
-0.4520469646
0.003456199172
0.4527626877
-0.002006253961
-0.002172254527
-0.2537854175
0.00279518991
0.2538324488
-0.002879234676
-0.2689910669
0.002289354559
0.2684828932
-0.001841506077
-0.2500954514
0.000147048666
0.2495051047
0.0003981530378
-0.2078031548
-0.001308649803
0.2080866815
0.001022688906
-0.09839383002
0.001099741876
0.09890827837
-0.001614190233
-0.001835971176
0.9183484391
-0.003779517351
0.9178405545
-0.005651809193
0.9167019899
-0.003538279525
0.9148533602
-0.004090264264
-0.45531914
0.4557336981
-0.003952837634
-0.4532232945
0.004423429821
0.4537570193
-0.004957154644
-0.4536043042
0.005458599035
0.4548840177
-0.003175419862
-0.003573429218
-0.2539344509
0.004098251153
0.2540614766
-0.00426726436
-0.2672812429
0.004102263483
0.266982803
-0.003869726834
-0.2484290672
0.00299941579
0.2481564595
-0.002774565932
-0.2094675057
0.00272996155
0.2099457542
-0.003209693136
-0.1012635807
0.002774953507
0.1014941403
-0.001489067765
-0.001516445264
-0.002291485077
0.9206399242
-0.004567536435
0.9201166058
-0.00697338751
0.919107841
-0.004508171318
0.9174343123
-0.00504616832
-0.4563339137
0.4569306821
-0.005104939781
-0.4543591742
0.005828696625
0.4550227544
-0.006492276837
-0.4565468122
0.007257047879
0.4585238973
-0.004523871748
-0.004726711619
-0.254584152
0.005354686485
0.2547988985
-0.005617056663
-0.2663052484
0.005803557776
0.2661406166
-0.005710639193
-0.2475791001
0.005323635895
0.2474498026
-0.005244360153
-0.2114663274
0.005465219109
0.2120053853
-0.006004880228
-0.102835882
0.003911312888
0.1029846637
-0.002016163371
-0.002043931266
-0.002706381859
-0.005424352741
-0.008256014585
-0.005389845676
-0.4576792339
-0.006126478249
-0.4558865919
0.006975792126
-0.007882034412
-0.4606077961
0.008862665034
-0.005553670491
-0.004910437302
-0.2555609016
0.006601206852
0.255876367
-0.006970532518
-0.2657963992
0.007442571944
0.2657239472
-0.007447718797
-0.2471976878
0.007286686751
0.2471291885
-0.007269971686
-0.2138180092
0.007620659573
0.2145161167
-0.008318829993
-0.1039526454
0.005143249604
0.1040995992
-0.002625966409
-0.00266423697
0.0007297220292
-0.00129781711
-0.09782573493
0.002618720534
-0.1010199551
-0.001419236442
-0.001443109748
0.003776405728
-0.102674951
-0.001957844099
-0.001979492548
0.00497337323
-0.1038106305
-0.002540163827
-0.002575224359
-0.007430966163
0.007782227443
-0.09512513177
0.0018564604
-0.002358101852
-0.2089675722
0.1016076173
-0.1013600081
0.002371111421
-0.09894856289
0.0006573276562
0.09939097712
0.004848195339
-0.005370812122
-0.2109445051
0.1031822419
-0.103013546
0.003607709826
0.002545914837
0.101836656
0.1021284763
0.003227131571
-0.1019318718
-0.001701567396
-0.00172216863
0.05075201117
-0.001106252447
-0.05052218103
0.002058144561
-0.001181722253
-0.05010094288
-0.0008995925785
0.001759907594
0.05012747398
-0.0008868461151
0.007126015133
-0.007769421145
-0.2131747841
0.1043877231
-0.1042338963
0.004819546467
0.003754068384
0.1033394864
0.1034076226
0.004336668236
-0.1032688992
-0.002222781749
-0.002252609833
0.02567315736
-0.001064255939
-0.02574338961
0.001134488189
-0.05064967759
-0.001045665345
0.0021746497
0.05064786115
-0.001127167918
0.004980970932
0.1045500018
0.05235924345
0.00285833344
-0.002908682722
-0.05230889417
0.02730812157
-0.002073935251
-0.02706389132
0.001829705
-0.02656701912
-0.001059968279
0.001225933142
0.02640105425
-0.04584108482
0.001606138288
0.04639602563
-0.001089010284
-0.001072068805
0.04897404058
0.001876735124
-0.04863675735
-0.001181703003
-0.001032315349
-0.003338612408
-0.04227137687
0.04236683276
0.00324315652
0.001393775941
-0.001966447753
-0.04526841301
-0.0008655655334
-0.05006870528
0.001723968429
-0.0008906404953
-0.001628355892
-0.04954090799
0.001570237032
0.04959902685
-0.1001337317
0.002081147237
0.1004612936
-0.002408709164
-0.04937520884
0.04938509223
-0.0007853939293
-0.0008528453502
0.02513531528
-0.0008674665505
-0.02513341426
0.001801914461
0.04914208109
-0.001069413929
-0.0009005410466
0.001608936451
-0.04936674348
-0.0007913429611
-0.0008260588572
-0.001052213137
-0.05069618887
0.002123695886
-0.001024971462
-0.001165527122
0.002040975997
0.05087441785
-0.0009978555545
0.003366930458
0.1023247904
-0.001770157382
-0.001793087261
-0.02572579656
0.02578482027
-0.001224550829
0.02513434638
-0.0009880327869
-0.02519852673
0.02511331622
-0.0008775935201
-0.001314846605
-0.0255172024
-0.001101161453
-0.02670321967
0.001237362008
-0.001073161204
0.001151929584
0.02559438898
0.004487789096
0.1035427054
-0.002294238862
-0.002328633028
-0.02586880745
0.02571891276
-0.0009232665105
0.02718038881
-0.0008581121417
-0.02742343812
0.02510526034
-0.001016579302
-0.0009157899891
-0.0260172734
-0.00150714349
0.001564943189
0.02725032188
-0.002954958271
-0.02782697474
0.02762795473
-0.001308123483
0.02690608238
-0.0007856618411
-0.002313703109
-0.02758720688
-0.002579447729
0.002557900299
-0.2077844312
-0.09847799974
0.00025915888
-0.09636021463
-0.005757971598
0.09625943977
0.09595219626
-0.001899184057
0.001312390131
-0.09536540232
0.04606646252
-0.0455842864
0.0009115998152
-0.04311529885
-0.00342568477
0.04320237123
0.001881426343
-0.002243676734
-0.09977148132
-0.04949393294
0.001561961406
-0.04876971755
0.001608955813
0.0489626762
-0.04851486732
0.001621884892
0.00115845702
0.0465141438
-0.0009510470682
0.09657542122
0.0003278221141
-0.02134547322
2.769483173e-05
0.02121266796
0.0001051104287
-0.002094963834
-0.01770147508
0.01761975866
0.002176680257
0.002020516203
0.02029459158
-0.002205799273
-0.02010930851
-0.02461414885
-0.09696313585
0.04754613121
0.04615098086
0.01395960398
0.01392056863
-0.004250010812
0.004906349998
-0.04292771605
-0.001180676803
-0.02516241577
0.001334866685
0.02500822589
-0.05158952665
0.002876279051
0.05161185522
-0.002898607623
0.05172359696
0.003025850716
-0.003061567941
-0.05168787974
0.005462814264
-0.02079912264
0.02936416479
-0.01402785641
-4.064450967e-05
-0.02145475215
0.000149923442
0.04758547881
0.001825586868
-0.04725373487
-0.001085653396
-0.001071677408
0.02357877713
-0.02393050037
0.0003110787275
-0.02278077163
0.003744944428
0.02449864147
0.02375276238
-0.02591826362
0.002201242843
-3.574160163e-05
0.0003839593348
0.02322251263
0.001853561942
0.04788857304
-0.001072453878
-0.001084202293
0.04343485673
-0.0005748300922
-1.039100688e-05
-0.04284963563
0.02074013792
-0.02031044584
0.00159082412
-0.01880020599
-0.001695668859
0.01840091101
-0.003845037669
-0.02201944054
0.003083706582
-0.002662348425
0.002005466515
0.02139701983
0.0001770736033
0.04406392762
-0.0008061444925
0.02087668493
-0.003244441778
-0.003753719112
-0.0208904412
0.02509171169
0.0008608965441
-0.000953301009
-0.02499930723
-0.02167929852
0.0001073678509
0.02160145653
-2.952585948e-05
0.0008944799936
0.02512826762
-0.0009310359244
0.04930888522
0.00166364894
-0.04927104875
-0.0008805656759
-0.0008209197331
0.02223543671
-0.02228403495
0.0001097480962
-6.114986085e-05
0.0007355543584
0.02299960149
1.760653808e-05
-0.02174928129
0.0001092158698
-3.923310247e-05
0.000114197357
0.022163877
-4.263764921e-05
0.001639894247
0.04933949402
-0.0008538950819
-0.0008166079581
0.025612009
0.0009595797208
-0.0009349738263
-0.0256366149
0.001029284631
0.02552832611
-0.0009456017351
0.02502770129
0.0009517566662
-0.0009394692904
-0.02503998867
0.0009567906309
0.0250214923
-0.0009505816424
0.02495527681
0.001383634571
-0.001441393413
-0.02489751797
0.001637141614
0.02526829138
-0.001950156182
0.02670997568
0.00130399268
-0.001517860933
-0.02649610742
0.001194480629
0.02675929793
-0.001243802879
0.003068582542
-0.003096013224
0.02488973193
0.0011265216
-0.0008407959764
-0.02517545756
0.02462384408
-0.0009147889539
-0.04452467036
-0.01482127379
0.04074182482
-0.003190445496
0.003263270367
-0.01777429994
-0.02606857056
0.001163331189
0.02609972
-0.05122403229
0.002205565799
0.05125216781
-0.002233701319
0.05131885898
0.002309676436
-0.002331380404
-0.05129715502
-0.05109802826
0.002086387955
0.05113147796
-0.002119837642
0.002180220672
-0.002209795016
-0.05119445795
-0.02595413436
0.001189556482
-0.0515309844
0.002680197255
0.05154725468
-0.002696467533
0.002820667984
-0.002833630789
-0.05157656385
-0.02533250937
0.001296615196
-0.05082150316
-0.0009803174393
0.002050571897
0.05078053333
-0.05095371179
0.001968884454
0.0509934458
-0.002008618457
0.002054043539
-0.002088757128
-0.05106331467
0.02427917284
-0.0003572670674
-0.02456215735
0.0006402515828
-0.0003461117286
-0.02537231319
0.000613345802
0.02510507912
-0.02537105322
0.001025388354
0.02530808998
-0.0009624251121
-0.02526702348
0.001441318497
0.02546284659
-0.05140739431
0.002531060406
0.05142629907
-0.00254996516
0.002637194717
-0.002657815318
-0.05151036379
0.002347310907
0.05134037685
-0.002368828769
0.002469186759
-0.002492307618
-0.05138427345
-0.02520990376
0.001326514855
0.02525944739
0.001096429644
-0.0009410909688
-0.02541478607
0.02469971802
-9.602319356e-05
-0.02497915861
0.0003754637829
-0.02571931176
-0.0001463983153
0.000394882355
0.02547082772
0.02300121992
-0.02315644228
0.0001740521513
-1.882978714e-05
-0.02656172987
0.002282073758
0.02426395412
1.570199185e-05
-0.02731711986
0.001675451977
0.02760546718
-0.001963799288
0.02533636503
0.001310765765
-0.001496322455
-0.02515080834
0.02348879823
-0.0022136826
-0.02344517393
0.002170058308
-0.0004158972668
0.0007074731659
0.02398759694
-0.0001387158275
-0.02596941598
0.0003888200522
-0.0001231167336
-0.0267252663
0.0003783846712
0.02646999836
-0.0264558414
0.001046519463
0.02631159602
-0.0009022740813
0.02604461294
0.001059099503
-0.0007702450766
-0.02633346736
0.02249327689
-0.02261444466
0.0001097690971
1.139867701e-05
0.0001073024005
0.02285554578
3.837173799e-05
-0.01956649838
0.004464468877
0.01505730952
4.471997728e-05
-0.02457958395
0.002616939117
0.02546749625
-0.003504851423
0.01918515551
0.001359663141
-0.02062533079
8.051213872e-05
0.004310363989
0.01479833389
7.645763072e-05
0.01838958659
0.0001789133466
-0.0005399830482
-0.01802851688
0.000787301995
0.01892080985
-0.001318525259
0.02192259154
0.0006182275962
-0.0226695949
0.0001287757614
0.0001633378853
0.02167209895
8.71547049e-05
-0.02509876561
0.0006070844874
0.02465501901
-0.02424004729
0.001211364787
0.02418817418
-0.001159491673
0.02382975703
0.001112879582
-0.000984867431
-0.02395776918
-0.02318460985
0.001531455487
0.02361561374
-0.001962459379
0.001299969775
-0.001350926952
-0.02418909011
-0.0255713329
0.001090794895
-0.02152559847
0.004313280876
0.02152268159
-0.02404651276
0.001712984935
0.02466060625
-0.002327078431
0.02641268471
0.001433980777
-0.001759778799
-0.02608688669
0.001122819323
0.02372162348
-0.001014685778
0.001498153842
-0.001808166115
-0.02373650048
-0.0222535761
0.002087640769
-0.0009606072037
-0.02299973789
0.001319389313
0.02264095579
-0.02221210943
0.001187429174
0.02234013845
-0.001315458187
0.0014473712
-0.001857166158
-0.02277481489
0.02312408462
0.001685644965
-0.001509419234
-0.02330031035
0.0224784265
-0.0003149490811
-0.02083086897
0.001476226157
0.01936590145
-1.125863966e-05
-0.02346220373
0.001614283676
0.02386058366
-0.002012663604
0.02730146499
0.002222608192
-0.003259276221
-0.02626479696
-0.02383747736
0.0006836683063
0.0236726407
-0.0005188316501
0.001120236052
-0.001162664921
-0.02341977486
-0.02131127558
0.0004499130152
3.049359755e-05
-0.02727258125
0.0005496827836
0.02705353607
-0.0003306376043
0.02638951124
0.0005223423289
-0.0002970582654
-0.02661479531
0.001653560914
0.02769786126
-0.002049957189
0.0006112107282
-0.0003962537661
-0.02748753821
-0.02252531218
9.8276703e-05
0.02246629445
-3.925897321e-05
-0.02598878887
0.0007385480863
0.02579786534
-0.0005476245583
0.02523537649
0.0007043800786
-0.0005231590295
-0.02541659754
0.001144414292
0.02645464326
-0.001186372844
0.0007657393157
-0.00057916367
-0.02617536451
-0.02260497826
0.0001019571356
-2.229105181e-05
-0.0219587015
5.993778422e-05
0.0218684433
3.032041769e-05
-0.02452791408
0.0006689741091
0.02434947902
-0.0004905390539
0.0006713842426
-0.0005033291598
-0.02400553244
0.0006990463169
0.02505798586
-0.0005216556845
0.000674280412
-0.000495766279
-0.02470642821
-0.02204268788
6.801871526e-05
1.596766819e-05
-0.02697147029
0.000365020041
0.02673208623
-0.0001256359872
0.02603206194
0.0003131673606
-7.846076948e-05
-0.02626676854
-0.02786743387
0.002121335363
0.02795804629
-0.002211947779
0.0004387790572
-0.0001634176057
-0.02724683174
-0.02510943877
0.02488297537
-0.0001196483352
0.0241635742
-0.0001008701676
-0.0244199711
0.0003137910675
0.02579680222
-7.853134757e-05
0.0003422218016
-0.0001168064121
-0.02533485416
-0.02539101466
0.0005265574739
0.02513481696
-0.0002703597774
0.02435513736
0.0005520032297
-0.0002890448218
-0.02461809577
0.0005130971693
0.02614508843
-0.0002686743533
0.000520227856
-0.0002665890802
-0.02564465343
-0.02329896227
0.002104532199
0.02335500425
-0.002160574174
0.0033670511
-0.004655016251
-0.02657946872
0.0005777436102
0.0240885215
-0.0003111277464
0.001253493268
-0.001019540697
-0.02353291484
-0.0005062499737
0.02305535583
-0.02366449791
0.001115392051
-9.312540236e-05
0.000385581827
0.0244072616
0.001112111464
0.02510882427
-0.0009614883434
-0.0221900761
0.02206825558
2.869512475e-05
0.02119276358
-0.02170235381
3.340257503e-06
-0.02260670883
0.02250131858
-4.100806898e-05
-0.0223192802
3.318090189e-05
0.001521862811
0.01968153223
-1.063146294e-05
0.001938522421
-0.002572433117
-0.02668320917
-0.03130735643
0.004766798214
-2.11716535e-05
0.002271801273
0.02230541737
-0.002259814004
0.02805387266
-0.02797544538
0.002181386724
-0.004548241495
0.0033836883
0.02465335143
0.001446427084
0.02563884771
-0.001748909761
-0.02220746547
0.02220876185
-0.004549537871
0.02435923043
-0.02661638077
-2.663662179e-06
0.02387322695
-0.00012555002
-0.001500847744
-0.02292030033
-0.02302431385
0.0229180102
-1.681308331e-05
-0.02271130497
-3.411968395e-05
0.0007923812308
0.02357437331
-7.524108595e-06
0.0001297205653
-0.02313884604
-1.51883744e-05
0.001048064275
-0.0009134231897
-0.02659048248
-0.02699337853
0.0003978327936
0.00117687341
0.02766938048
0.02198270753
-0.02211880824
0.0001603920466
-2.429133891e-05
0.0001209332021
0.02237393589
-1.592200148e-06
0.001070241601
0.02575440332
-0.0007800319892
0.002066750174
-0.002320533265
-0.02432580086
-0.02110099851
0.001465677752
6.882238764e-05
0.0001989050563
0.02182523082
-4.142834393e-05
-0.05022283107
-0.0009844009849
0.001899569898
0.05026445279
-0.05056099491
0.001739531348
0.05061419132
-0.001792727753
0.05078018147
0.001830595684
-0.001884417453
-0.05072635971
0.001597500483
-0.05033531837
0.05039415798
-0.001656340083
0.001702494921
-0.001760711477
-0.05050277835
-0.0009451116055
-0.05018991693
0.001863954128
0.001860033802
0.05083209554
-0.001911947868
0.001945762082
-0.00198289004
-0.05091658384
-0.001034558145
-0.05085661373
0.002029248432
0.02583411603
0.0009413406813
-0.0009591487931
-0.02581630792
0.02753080685
-0.02778915567
0.0006971278857
-0.02773922365
0.001768891643
0.02809166737
-0.02673204259
0.002359870043
-0.02402901878
0.001743410354
0.02439014062
-0.02507023853
0.001076857038
0.02517791782
-0.001184536318
0.0002011652787
0.02108979804
-7.829535004e-05
0.02484780611
0.004374313768
0.0001420449119
-0.01434414307
0.0003162866611
-4.430211441e-05
-0.02158000119
0.0001695511543
0.0003177276822
-0.02429253016
0.02411722016
-0.02451761474
0.0007181222688
0.0237250235
0.000703275383
0.004594211762
-0.03048416981
-2.830557897e-05
0.0269827526
-0.02571623791
0.003327697078
0.02708376467
0.002100230768
0.02335033616
0.0007586466814
-0.0005826642761
0.02300363347
0.0009293669684
0.02284101363
-0.02113511995
0.0007756808555
0.02140404132
-0.001044602226
0.00104217249
-0.001290368532
-0.02196391339
-0.02295611831
0.001642025391
-0.004606218146
0.02231958108
0.003163322001
-0.01928057132
0.02712720101
-0.01245284783
-0.003061700955
-0.01946331215
-0.018339122
0.0002412598176
0.001020974943
-0.01962535858
0.0002652616379
-0.02171624119
0.001846774935
0.01497411679
-0.0148959642
-7.815259501e-05
0.03078820562
-0.02170644897
0.005892360136
0.02622406916
0.004580855429
-1.671897003e-05
0.02335685806
-0.0235517795
0.0003022892945
-0.0001223857835
0.02312869467
0.0003505491738
0.0215113752
-3.230444971e-05
0.02269637523
-0.02276474128
0.0001249417798
-5.657572405e-05
0.02264736196
0.000114711141
-6.56978756e-05
0.02405431477
0.002193124302
-2.336990554e-05
0.02331644174
0.0007666943391
-2.882131005e-05
5.939778326e-05
-0.02238443494
4.100221518e-05
0.02522695379
-0.02544493615
0.000277380147
0.02504097927
0.0002957226142
0.0267188181
0.001100500937
-0.0002402635291
0.02636506076
0.0005940208689
0.02273408857
2.524938443e-05
0.0001132925409
-0.0218078531
-5.472073167e-05
0.02373284069
-0.02390738795
0.0002878397985
0.0002902770527
0.02485548325
0.0002996933777
-0.0001164262671
0.02467418323
0.0002977262854
0.02210056912
-5.311837867e-05
0.02645507097
-0.02672888862
0.0005869850103
0.0006286946001
0.02726713229
0.001047442289
0.02573876665
-0.0009520929134
0.00100404417
-0.0009557585952
-0.02541933879
-0.02563889629
0.0006088048978
0.000588138859
0.02618072318
0.0245543277
-0.0247627745
0.0007604500292
-0.0253843943
0.0007323849001
0.02517856688
-0.02508309993
0.0009319981975
0.02506417431
-0.0009130725792
0.02208777849
-0.02216523118
6.24448818e-05
1.500780388e-05
0.02200463435
6.484195337e-05
1.83021905e-05
0.02254098112
4.953831227e-05
5.684252959e-05
0.02246389248
4.956353622e-05
2.752510699e-05
-0.01512223823
0.01509670931
2.552893162e-05
0.02191654405
7.492692478e-05
1.316337879e-05
0.0001020908032
0.02180604044
8.412806399e-06
0.001037676478
-0.001080003307
-0.0250279117
-0.02402171068
0.001246185177
0.0007824391923
0.02434963212
0.0003941780082
-0.0001489113341
-0.02522442529
0.02524820036
0.0006917691262
-0.02554579148
0.02493431371
0.0006893504368
0.0003108901048
-0.02345620982
-1.112257085e-05
0.02718840862
-0.0276043454
0.0007268268845
0.026845193
0.0005172677684
0.02803697269
-0.02801270944
0.002257810508
-0.0008062972242
0.001238924513
1.447082078e-06
0.02317530242
-0.02400804255
0.0008311967885
1.54334706e-06
0.0003465856156
-2.133336871e-05
0.0001023326674
-0.02273338718
1.660984492e-05
0.02590661982
-0.0262113766
0.0004070894472
0.02560284006
0.0004135488499
0.02652094409
0.0004315513101
-9.908805845e-05
0.0004086555566
2.307055078e-05
0.02631858115
-0.03107905147
0.00475354311
6.927213934e-06
0.002302259408
8.279188758e-06
0.02208305735
-0.02215744478
0.00453885631
-0.01502843926
0.006032445139
2.887026573e-05
0.0004291874954
3.527975257e-05
0.0147907579
7.575991684e-06
0.01657758753
0.0002363340628
-0.01591895744
0.01686882297
0.0009451978609
0.01985946575
-0.0237119016
0.002789253857
0.0172669734
0.001822915241
0.0007695771162
0.01692707612
0.001847871436
-0.009843262466
0.003058436992
0.002030316935
0.0001478942776
4.518776519e-05
4.690999949e-05
0.02375273387
-0.02268918338
0.003249730384
-0.00582926968
0.003865765634
0.001016625029
0.02270509598
0.001315162517
0.002103553372
-0.02298239857
0.02086741964
0.0006055596931
0.003746444194
0.0003983582472
0.002765714929
0.01343942444
0.0007658479999
0.0009865766178
-0.0002237305784
0.0009859158937
-0.02011569433
0.0002666051705
0.0004367762375
0.02162396549
-0.02226766279
0.002119923456
-0.004525229297
0.004442745819
-5.52920372e-05
0.0001711612306
2.893838741e-05
0.02279173298
0.0005081229189
0.0009739832109
0.02284410316
-0.02293303488
0.0001253616741
-3.642995584e-05
0.0001218056384
-4.244376153e-05
0.02305885539
0.0002805584243
-2.297207181e-05
0.0001550148489
-2.919433639e-05
0.02565922527
-0.02586392714
0.0003029785722
-6.841935369e-05
0.0002827084686
1.344015292e-05
0.0001190107172
1.00995956e-05
0.02608979205
0.0003942794197
0.0003278220516
0.02408934729
-0.02429226384
0.0002628543381
-9.489267639e-05
0.00027685202
-3.43024764e-05
0.0001053222137
-4.744098098e-05
0.02449223577
0.0002872696734
0.0002679906481
-0.0001064853429
0.02650315952
0.0003354120585
-0.02305065472
0.02296543499
-2.126560591e-05
-0.02314907822
-2.721249304e-05
-0.02286752863
0.02277747377
1.159408744e-05
8.141412399e-05
1.649223563e-05
0.0003178051037
-0.0007628831193
0.0275907422
0.001130187208
-0.02432097898
0.02354573554
1.236032093e-05
-0.02656131312
2.838636628e-05
-0.02328590115
-2.659467628e-05
0.000293698525
-3.386414031e-05
0.0006376089866
-0.0001202996837
0.02465522666
0.0003480483932
-0.02232844657
0.02224141578
-3.326889489e-05
-0.02241944381
-2.865108824e-05
-0.02214935886
0.02203816855
1.032014227e-05
0.0001118990892
-1.984216831e-05
0.0003471546574
-8.375111007e-05
0.02556031474
0.0003202385962
-0.02268800746
0.02259009728
1.41590724e-05
1.093495787e-05
-0.02250822256
-2.802766578e-05
0.0001086053988
-2.673067551e-05
0.0003340659813
0.02223942693
5.538628183e-05
-0.02231623044
2.141723199e-05
6.124093552e-05
1.295481532e-05
-0.0002760698775
0.0248776868
0.0005332000401
-0.02488645749
0.02467162855
-0.02510143098
-0.02445306282
0.02422885995
0.0002810106097
0.0005406016418
0.02239447927
5.532259101e-05
1.4090618e-05
5.138139378e-05
2.686743124e-05
0.01964418652
0.001466542755
-0.02112563917
1.490990196e-05
0.004504782883
1.71653994e-05
-0.004483723892
0.02452678848
0.003311939666
-0.02210475014
0.02212580913
-0.02279878156
-0.03123600234
1.967296976e-05
0.005986516104
0.003933835862
-0.0003726620558
0.02381368759
0.000647495958
-0.02399265913
0.02372208788
-0.02335492557
-0.0004633966849
0.0005476562723
-0.0001804939653
0.0008284290257
0.02160605761
1.948886781e-05
1.702175291e-05
0.0006315409613
-0.02408246785
-0.0002135710155
0.02394070821
-0.02427706004
0.0009678928002
0.02365214393
0.001403956323
0.02460992289
0.0007099726401
-0.0004480841422
0.0007809469905
-0.0001232903979
0.02192844898
1.651619681e-05
1.252416193e-05
0.02240135544
0.0001518343998
-5.187125143e-05
-6.683609689e-05
0.01512033198
0.004570371051
-9.170803947e-06
0.01517039767
-5.006568146e-05
0.00612799542
-0.02226495418
0.02678121651
-0.02477255764
0.004119336549
0.003535305289
0.0236542631
0.002269682102
-0.004610834237
0.003492539701
-0.01516253264
0.03132455241
0.006046742085
-0.01515025279
-1.227985592e-05
-0.01970690541
7.114749495e-06
0.004712153251
-3.981607045e-06
-0.0002119591363
0.02349211111
0.0005930749784
-0.02191121224
0.02170091697
-1.663864604e-06
1.406285361e-06
-0.02120880049
1.047338324e-06
0.000496633623
-4.51713485e-06
0.001068444406
0.02281466594
0.0001256343229
-2.229005951e-05
0.0001332222785
-2.986130969e-05
0.02329030742
0.0002961861766
-1.212029202e-05
0.0001648744993
-1.341311944e-05
0.0001383717667
-0.02224948655
-7.693458617e-06
0.0246830197
-0.0249940351
0.0004493871682
0.02436361985
0.000479791896
0.02529964131
0.0004241319547
-0.0001285902767
0.0004341964874
-4.140932986e-06
0.0005543321114
-0.02159066656
-6.466406871e-05
0.02295423388
-0.02357624432
0.001176342558
0.002262466847
0.02401309123
0.0005494336775
-0.0002872466271
0.000724093535
-5.268235911e-05
-0.001277763038
0.001424982811
-0.2286655335
0.001951434326
0.2283559787
-0.2285492854
-0.001758127598
-0.2289945808
-0.00114604356
0.2288606242
0.002154166382
-0.2284823721
0.00286109446
0.2281113401
-0.2283713779
-0.00260105669
-0.2289365732
-0.001659287082
0.2287766012
0.003046211784
-0.2282952046
-0.007822682022
0.234829687
-0.230394372
0.003383718852
-0.2289042961
-0.002288926655
0.2287138528
-0.01186446705
-0.2319251194
-0.02092108939
0.2356532819
-0.2331833374
0.01844598178
-0.2289154755
-0.002986399574
0.2287322102
-0.02282720019
-0.2325654601
-0.001683069084
0.001892902026
-0.2279794921
0.002663555848
0.2273692845
-0.2276463253
-0.002386514993
-0.001940514933
0.228145196
0.0005379382581
-0.2275198597
-0.01639152022
0.2450634809
-0.2396137106
0.01092882328
-0.002893783787
0.2286888083
-0.02151870767
-0.2430702152
-0.0340458671
0.2512261893
-0.2476082781
0.0304084482
0.01188474262
0.2392726498
-0.03712192139
-0.2472272145
-0.04299806954
0.2433626058
-0.2419485689
0.04156984306
0.02671642236
0.2379986616
-0.04397600369
-0.2391476366
-0.008889157341
0.01008407988
-0.2295091976
-0.008643070183
0.2471753302
-0.2397816293
0.001235540864
-0.002493307074
0.2288116452
-0.01434466189
-0.2462108293
-0.02743248249
0.2628882179
-0.2592164127
0.0237288628
0.01577863602
0.2502237964
-0.03047529671
-0.2608708026
-0.03536558845
0.2593447828
-0.2584608469
0.03445006764
0.03369510209
0.2543199128
-0.03563169982
-0.2556670357
-0.03353013564