/*--------------------------------*- C++ -*----------------------------------*\
| =========                 |                                                 |
| \\      /  F ield         | OpenFOAM: The Open Source CFD Toolbox           |
|  \\    /   O peration     | Version:  v2012                                 |
|   \\  /    A nd           | Website:  www.openfoam.com                      |
|    \\/     M anipulation  |                                                 |
\*---------------------------------------------------------------------------*/
FoamFile
{
    version     2.0;
    format      ascii;
    class       pointVectorField;
    location    "1.66";
    object      pointDisplacement;
}
// * * * * * * * * * * * * * * * * * * * * * * * * * * * * * * * * * * * * * //

dimensions      [0 1 0 0 0 0 0];


internalField   nonuniform List<vector> 
6426
(
(0 0 0)
(0 0 0)
(0 0 0)
(0 0 0)
(0 0 0)
(0 0 0)
(0 0 0)
(0 0 0)
(0 0 0)
(0 0 0)
(-0.0006949903336 0.05078570118 0)
(-0.0007067522798 0.05053424994 0)
(-0.0007168236759 0.05028271205 0)
(-0.0001965979139 0.05027641356 0)
(-0.0001739707461 0.05077900834 0)
(0.007773796415 0.05063239197 0)
(0.007733640707 0.04962633126 0)
(0.007693069169 0.04862056211 0)
(0.009828693629 0.04857572024 0)
(0.00990714405 0.0505885898 0)
(0.008840867003 0.05061038764 0)
(0.01563402966 0.04820691303 3.433087148e-13)
(0.01535827955 0.04562671961 3.384376113e-13)
(0.01637921728 0.04287590984 3.181899189e-13)
(0.01681736409 0.04572452921 3.258227022e-13)
(0.01695153603 0.03398494097 2.421673972e-13)
(0.01633965342 0.03149507198 2.337019467e-13)
(0.01515706426 0.02686161463 1.991878884e-13)
(0.01579716403 0.02912517189 2.074174166e-13)
(0.009611525012 0.0142972307 1.015160178e-13)
(0.009032797002 0.01290954135 9.545142454e-14)
(0.006608226028 0.008878791553 6.55586696e-14)
(0.007117861673 0.009954667663 7.059630658e-14)
(0.001012308786 0.00120183381 8.493206138e-15)
(0.0008229171193 0.0009384462388 6.911138328e-15)
(6.524754967e-05 7.085575837e-05 5.273559367e-16)
(0.0001246591184 0.000140938877 9.992007222e-16)
(0 0 0)
(0 0 0)
(0 0 0)
(0 0 0)
(0 0 0)
(0 0 0)
(0 0 0)
(0 0 0)
(0 0 0)
(0 0 0)
(0 0 0)
(0 0 0)
(0 0 0)
(0 0 0)
(-0.001198086838 0.0428081278 0)
(-0.001209945657 0.04230307285 0)
(-0.001221815948 0.04179754853 0)
(-0.000146147326 0.04177228964 0)
(-0.0001224168671 0.04278286888 0)
(0.007407233967 0.04260605734 0)
(0.007359784071 0.04058536824 0)
(0.009478297794 0.0403806603 3.580191699e-13)
(0.009551733162 0.04252205904 3.591155151e-13)
(0.01455137677 0.03826601038 3.241573676e-13)
(0.01418826945 0.03568380255 3.172323515e-13)
(0.01489528724 0.03291233719 2.927103004e-13)
(0.01533188397 0.03545350207 3.00454106e-13)
(0.01422260057 0.02409473305 2.040728697e-13)
(0.01364723369 0.02205561876 1.960376306e-13)
(0.01216625435 0.01805278908 1.603300825e-13)
(0.01299912343 0.02023192686 1.712380238e-13)
(0.006817278298 0.008546935875 7.209510766e-14)
(0.005941237046 0.007100391691 6.283862319e-14)
(0.004037125804 0.004534718526 4.007905119e-14)
(0.004600316307 0.005420993509 4.567179968e-14)
(0.0001694277812 0.0001694052806 1.415534356e-15)
(7.652927112e-05 7.293257923e-05 6.383782392e-16)
(0 0 0)
(0 0 0)
(0 0 0)
(0 0 0)
(0 0 0)
(0 0 0)
(0 0 0)
(0 0 0)
(0 0 0)
(0 0 0)
(0 0 0)
(0 0 0)
(0 0 0)
(0 0 0)
(0 0 0)
(0 0 0)
(-0.001387906922 0.03472443261 0)
(-0.00143536784 0.03270327413 0)
(0.0007159643223 0.03265275647 0)
(0.0007634252401 0.03467391495 0)
(0.007162473933 0.0342159917 3.562011797e-13)
(0.007021898948 0.03171417376 3.506639423e-13)
(0.00887291583 0.03070157252 3.399086568e-13)
(0.009105373834 0.03338907888 3.480549182e-13)
(0.01299356395 0.02788368781 2.914057884e-13)
(0.01243248934 0.02512044519 2.788186348e-13)
(0.01270679618 0.02252092295 2.499944696e-13)
(0.01336387929 0.02516105685 2.630118345e-13)
(0.01129058947 0.01554052063 1.622035839e-13)
(0.01048970315 0.01359042465 1.506156311e-13)
(0.008901204142 0.01059149532 1.172395514e-13)
(0.009686695686 0.01224424704 1.2766177e-13)
(0.003802345804 0.00387217636 4.021782907e-14)
(0.003266995375 0.003132722267 3.452793607e-14)
(0.001671616951 0.001506915823 1.659783422e-14)
(0.002270627688 0.002173749045 2.255140519e-14)
(0 0 0)
(0 0 0)
(0 0 0)
(0 0 0)
(0 0 0)
(0 0 0)
(0 0 0)
(0 0 0)
(0 0 0)
(0 0 0)
(0 0 0)
(0 0 0)
(0 0 0)
(0 0 0)
(0 0 0)
(0 0 0)
(0 0 0)
(0 0 0)
(-0.001466918538 0.02557570138 3.450573161e-13)
(-0.001386839816 0.02252863952 3.289313266e-13)
(0.0005903064246 0.02211233891 3.234634782e-13)
(0.0006054305102 0.02520619415 3.406858129e-13)
(0.006231886521 0.02291600687 3.112649027e-13)
(0.005837018551 0.01973460126 2.901151541e-13)
(0.0071668754 0.01852625493 2.726846526e-13)
(0.007714346492 0.02167620768 2.947919686e-13)
(0.01009239651 0.01652891644 2.252642517e-13)
(0.009113944115 0.01375115645 2.027544799e-13)
(0.008968839885 0.01187856796 1.751099266e-13)
(0.01004884158 0.01443986305 1.967731533e-13)
(0.007464264691 0.007854207647 1.067756994e-13)
(0.006325846492 0.006142914305 9.033052084e-14)
(0.004940686847 0.004410909732 6.47676357e-14)
(0.006000366639 0.005802555133 7.878420138e-14)
(0.001504979782 0.001174727722 1.589006704e-14)
(0.0009692968218 0.000699019503 1.022792961e-14)
(0.0002172230328 0.0001473322851 2.15105711e-15)
(0.0005021489842 0.0003685970689 4.982125823e-15)
(0 0 0)
(0 0 0)
(0 0 0)
(0 0 0)
(0 0 0)
(0 0 0)
(0 0 0)
(0 0 0)
(0 0 0)
(0 0 0)
(0 0 0)
(0 0 0)
(0 0 0)
(0 0 0)
(0 0 0)
(0 0 0)
(0 0 0)
(0 0 0)
(-0.0009333459736 0.0129651336 2.512989816e-13)
(-0.0007505585068 0.01005231058 2.187139359e-13)
(0.0005581908871 0.009726573455 2.120248421e-13)
(0.0005742284043 0.01259069171 2.444988656e-13)
(0.004303866394 0.01064634721 2.077088501e-13)
(0.00370665298 0.008059888874 1.764699498e-13)
(0.004351073326 0.007304659436 1.600802824e-13)
(0.005121577729 0.009748344244 1.903754931e-13)
(0.005817797729 0.006532604643 1.276756478e-13)
(0.004689386024 0.004669300547 1.023625629e-13)
(0.004274383966 0.003749508838 8.215650382e-14)
(0.005441751208 0.00537698909 1.050409759e-13)
(0.002974577379 0.002167584686 4.221623051e-14)
(0.002010339982 0.00130365489 2.847722058e-14)
(0.001185288971 0.0007079955811 1.544597783e-14)
(0.001970955709 0.001322276268 2.571554081e-14)
(1.656508752e-05 8.998316508e-06 1.665334537e-16)
(0 0 0)
(0 0 0)
(0 0 0)
(0 0 0)
(0 0 0)
(0 0 0)
(0 0 0)
(0 0 0)
(0 0 0)
(0 0 0)
(0 0 0)
(0 0 0)
(0 0 0)
(0 0 0)
(0 0 0)
(0 0 0)
(0 0 0)
(0 0 0)
(0 0 0)
(0 0 0)
(0 0 0)
(-0.0002801803639 0.003404281679 1.171424069e-13)
(-0.0001751708 0.002019084123 8.61671845e-14)
(0.0003277223537 0.001910637394 8.165690346e-14)
(0.0004097357672 0.003246381529 1.118688475e-13)
(0.001872146772 0.002465525989 8.52512505e-14)
(0.001318461168 0.001381620872 5.920264279e-14)
(0.001410332632 0.001159351623 4.969635814e-14)
(0.002069790592 0.002129780001 7.366329768e-14)
(0.001702631408 0.001058857099 3.659572645e-14)
(0.0009671117758 0.000483533707 2.070565941e-14)
(0.0006624216459 0.0002932321686 1.254552018e-14)
(0.001327639772 0.0007301365681 2.521594045e-14)
(0.0001524977705 6.244266527e-05 2.137179322e-15)
(4.281526642e-07 1.413623868e-07 0)
(0 0 0)
(1.782922755e-06 6.731951507e-07 2.775557562e-17)
(0 0 0)
(0 0 0)
(0 0 0)
(0 0 0)
(0 0 0)
(0 0 0)
(0 0 0)
(0 0 0)
(0 0 0)
(0 0 0)
(0 0 0)
(0 0 0)
(0 0 0)
(0 0 0)
(0 0 0)
(0 0 0)
(0 0 0)
(0 0 0)
(0 0 0)
(0 0 0)
(0 0 0)
(0 0 0)
(-2.05327115e-05 0.0001155957908 1.765254609e-14)
(-5.78322451e-06 5.339243021e-06 5.800915304e-15)
(2.374098279e-05 4.362526205e-06 4.74620343e-15)
(7.630440381e-05 0.0001028794608 1.572353359e-14)
(0.0001663808798 4.741473169e-05 7.258083023e-15)
(2.060752223e-05 8.233271565e-07 8.881784197e-16)
(3.797948735e-06 1.205181481e-07 1.249000903e-16)
(0.0001263017457 2.851264747e-05 4.357625372e-15)
(0 0 0)
(0 0 0)
(0 0 0)
(0 0 0)
(0 0 0)
(0 0 0)
(0 0 0)
(0 0 0)
(0 0 0)
(0 0 0)
(0 0 0)
(0 0 0)
(0 0 0)
(0 0 0)
(0 0 0)
(0 0 0)
(0 0 0)
(0 0 0)
(0 0 0)
(0 0 0)
(0 0 0)
(0 0 0)
(0 0 0)
(0 0 0)
(0 0 0)
(0 0 0)
(0 0 0)
(0 0 0)
(0 0 0)
(0 0 0)
(0 0 0)
(0 0 0)
(0 0 0)
(0 0 0)
(0 0 0)
(0 0 0)
(0 0 0)
(0 0 0)
(0 0 0)
(0 0 0)
(0 0 0)
(0 0 0)
(0 0 0)
(0 0 0)
(0 0 0)
(0 0 0)
(0 0 0)
(0 0 0)
(0 0 0)
(0 0 0)
(0 0 0)
(0 0 0)
(0 0 0)
(0 0 0)
(0 0 0)
(0 0 0)
(0 0 0)
(0 0 0)
(0 0 0)
(0 0 0)
(0 0 0)
(0 0 0)
(0 0 0)
(0 0 0)
(0 0 0)
(0 0 0)
(0 0 0)
(0 0 0)
(0 0 0)
(0 0 0)
(0 0 0)
(0 0 0)
(0 0 0)
(0 0 0)
(0 0 0)
(0 0 0)
(0 0 0)
(0 0 0)
(0 0 0)
(0 0 0)
(0 0 0)
(0 0 0)
(0 0 0)
(0 0 0)
(0 0 0)
(0 0 0)
(0 0 0)
(0 0 0)
(0 0 0)
(0 0 0)
(0 0 0)
(0 0 0)
(0 0 0)
(0 0 0)
(0 0 0)
(0 0 0)
(0 0 0)
(0 0 0)
(0 0 0)
(0 0 0)
(0 0 0)
(0 0 0)
(0 0 0)
(0 0 0)
(0 0 0)
(0 0 0)
(0 0 0)
(0 0 0)
(0 0 0)
(0 0 0)
(0 0 0)
(0 0 0)
(0 0 0)
(0 0 0)
(0 0 0)
(0 0 0)
(0 0 0)
(0 0 0)
(0 0 0)
(0 0 0)
(0 0 0)
(0 0 0)
(0 0 0)
(0 0 0)
(0 0 0)
(0 0 0)
(0 0 0)
(0 0 0)
(0 0 0)
(0 0 0)
(0 0 0)
(0 0 0)
(0 0 0)
(0 0 0)
(0 0 0)
(0 0 0)
(0 0 0)
(0 0 0)
(0 0 0)
(0 0 0)
(0 0 0)
(0 0 0)
(0 0 0)
(0 0 0)
(0 0 0)
(0 0 0)
(0 0 0)
(0 0 0)
(0 0 0)
(0 0 0)
(0 0 0)
(0 0 0)
(0 0 0)
(0 0 0)
(0 0 0)
(0 0 0)
(0 0 0)
(0 0 0)
(0 0 0)
(0 0 0)
(0 0 0)
(0 0 0)
(0 0 0)
(0 0 0)
(0 0 0)
(0 0 0)
(0 0 0)
(0 0 0)
(0 0 0)
(0 0 0)
(0 0 0)
(0 0 0)
(0 0 0)
(0 0 0)
(0 0 0)
(0 0 0)
(0 0 0)
(0 0 0)
(0 0 0)
(0 0 0)
(0 0 0)
(0 0 0)
(0 0 0)
(0 0 0)
(0 0 0)
(0 0 0)
(0 0 0)
(0 0 0)
(0 0 0)
(0 0 0)
(0 0 0)
(0 0 0)
(0 0 0)
(0 0 0)
(0 0 0)
(0 0 0)
(0 0 0)
(0 0 0)
(0 0 0)
(0 0 0)
(0 0 0)
(0 0 0)
(0 0 0)
(0 0 0)
(0 0 0)
(0 0 0)
(0 0 0)
(0 0 0)
(0 0 0)
(0 0 0)
(0 0 0)
(0 0 0)
(0 0 0)
(0 0 0)
(0 0 0)
(0 0 0)
(0 0 0)
(0 0 0)
(0 0 0)
(0 0 0)
(0 0 0)
(0 0 0)
(0 0 0)
(0 0 0)
(0 0 0)
(0 0 0)
(0 0 0)
(0 0 0)
(0 0 0)
(0 0 0)
(0 0 0)
(0 0 0)
(0 0 0)
(0 0 0)
(0 0 0)
(0 0 0)
(0 0 0)
(0 0 0)
(0 0 0)
(0 0 0)
(0 0 0)
(0 0 0)
(0 0 0)
(0 0 0)
(0 0 0)
(0 0 0)
(0 0 0)
(0 0 0)
(0 0 0)
(0 0 0)
(0 0 0)
(0 0 0)
(0 0 0)
(0 0 0)
(0 0 0)
(0 0 0)
(0 0 0)
(0 0 0)
(0 0 0)
(0 0 0)
(0 0 0)
(0 0 0)
(0 0 0)
(0 0 0)
(0 0 0)
(0 0 0)
(0 0 0)
(0 0 0)
(0 0 0)
(0 0 0)
(0 0 0)
(0 0 0)
(0 0 0)
(0 0 0)
(0 0 0)
(0 0 0)
(0 0 0)
(0 0 0)
(0 0 0)
(0 0 0)
(0 0 0)
(0 0 0)
(0 0 0)
(0 0 0)
(0 0 0)
(0 0 0)
(0 0 0)
(0 0 0)
(0 0 0)
(0 0 0)
(0 0 0)
(0 0 0)
(0 0 0)
(0 0 0)
(0 0 0)
(0 0 0)
(0 0 0)
(0 0 0)
(0 0 0)
(0 0 0)
(0 0 0)
(0 0 0)
(0 0 0)
(0 0 0)
(0 0 0)
(0 0 0)
(0 0 0)
(0 0 0)
(0 0 0)
(0 0 0)
(0 0 0)
(0 0 0)
(0 0 0)
(0 0 0)
(0 0 0)
(0 0 0)
(0 0 0)
(0 0 0)
(0 0 0)
(0 0 0)
(0 0 0)
(0 0 0)
(0 0 0)
(0 0 0)
(0 0 0)
(0 0 0)
(0 0 0)
(0 0 0)
(0 0 0)
(0 0 0)
(0 0 0)
(0 0 0)
(0 0 0)
(0 0 0)
(0 0 0)
(0 0 0)
(0 0 0)
(0 0 0)
(0 0 0)
(0 0 0)
(0 0 0)
(0 0 0)
(0 0 0)
(0 0 0)
(0 0 0)
(0 0 0)
(0 0 0)
(0 0 0)
(0 0 0)
(0 0 0)
(0 0 0)
(0 0 0)
(0 0 0)
(0 0 0)
(0 0 0)
(0 0 0)
(0 0 0)
(0 0 0)
(0 0 0)
(0 0 0)
(0 0 0)
(0 0 0)
(0 0 0)
(0 0 0)
(0 0 0)
(0 0 0)
(0 0 0)
(0 0 0)
(0 0 0)
(0 0 0)
(0 0 0)
(0 0 0)
(0 0 0)
(0 0 0)
(0 0 0)
(0 0 0)
(0 0 0)
(0 0 0)
(0 0 0)
(0 0 0)
(0 0 0)
(0 0 0)
(0 0 0)
(0 0 0)
(0 0 0)
(0 0 0)
(0 0 0)
(0 0 0)
(0 0 0)
(0 0 0)
(0 0 0)
(0 0 0)
(0 0 0)
(0 0 0)
(0 0 0)
(0 0 0)
(0 0 0)
(0 0 0)
(0 0 0)
(0 0 0)
(0 0 0)
(0 0 0)
(0 0 0)
(0 0 0)
(0 0 0)
(0 0 0)
(0 0 0)
(0 0 0)
(0 0 0)
(0 0 0)
(0 0 0)
(0 0 0)
(0 0 0)
(0 0 0)
(0 0 0)
(0 0 0)
(0 0 0)
(0 0 0)
(0 0 0)
(0 0 0)
(0 0 0)
(0 0 0)
(0 0 0)
(0 0 0)
(0 0 0)
(0 0 0)
(0 0 0)
(0 0 0)
(0 0 0)
(0 0 0)
(0 0 0)
(0 0 0)
(0 0 0)
(0 0 0)
(0 0 0)
(0 0 0)
(0 0 0)
(0 0 0)
(0 0 0)
(0 0 0)
(0 0 0)
(0 0 0)
(0 0 0)
(0 0 0)
(0 0 0)
(0 0 0)
(0 0 0)
(0 0 0)
(0 0 0)
(0 0 0)
(0 0 0)
(0 0 0)
(0 0 0)
(0 0 0)
(0 0 0)
(0 0 0)
(0 0 0)
(0 0 0)
(0 0 0)
(0 0 0)
(0 0 0)
(0 0 0)
(0 0 0)
(0 0 0)
(0 0 0)
(0 0 0)
(0 0 0)
(0 0 0)
(0 0 0)
(0 0 0)
(0 0 0)
(0 0 0)
(0 0 0)
(0 0 0)
(0 0 0)
(0 0 0)
(0 0 0)
(0 0 0)
(0 0 0)
(0 0 0)
(0 0 0)
(0 0 0)
(0 0 0)
(0 0 0)
(0 0 0)
(0 0 0)
(0 0 0)
(0 0 0)
(0 0 0)
(0 0 0)
(0 0 0)
(0 0 0)
(0 0 0)
(0 0 0)
(0 0 0)
(0 0 0)
(0 0 0)
(0 0 0)
(0 0 0)
(0 0 0)
(0 0 0)
(0 0 0)
(0 0 0)
(0 0 0)
(0 0 0)
(0 0 0)
(0 0 0)
(0 0 0)
(0 0 0)
(0 0 0)
(0 0 0)
(0 0 0)
(0 0 0)
(0 0 0)
(0 0 0)
(0 0 0)
(0 0 0)
(0 0 0)
(0 0 0)
(0 0 0)
(0 0 0)
(0 0 0)
(0 0 0)
(0 0 0)
(0 0 0)
(0 0 0)
(0 0 0)
(0 0 0)
(0 0 0)
(0 0 0)
(0 0 0)
(0 0 0)
(0 0 0)
(0 0 0)
(0 0 0)
(0 0 0)
(0 0 0)
(0 0 0)
(0 0 0)
(0 0 0)
(0 0 0)
(0 0 0)
(0 0 0)
(0 0 0)
(0 0 0)
(0 0 0)
(0 0 0)
(0 0 0)
(0 0 0)
(0 0 0)
(0 0 0)
(0 0 0)
(0 0 0)
(0 0 0)
(0 0 0)
(0 0 0)
(0 0 0)
(0 0 0)
(0 0 0)
(0 0 0)
(0 0 0)
(0 0 0)
(0 0 0)
(0 0 0)
(0 0 0)
(0 0 0)
(0 0 0)
(0 0 0)
(0 0 0)
(0 0 0)
(0 0 0)
(0 0 0)
(0 0 0)
(0 0 0)
(0 0 0)
(0 0 0)
(0 0 0)
(0 0 0)
(0 0 0)
(0 0 0)
(0 0 0)
(0 0 0)
(0 0 0)
(0 0 0)
(0 0 0)
(0 0 0)
(0 0 0)
(0 0 0)
(0 0 0)
(0 0 0)
(0 0 0)
(0 0 0)
(0 0 0)
(0 0 0)
(0 0 0)
(0 0 0)
(0 0 0)
(0 0 0)
(0 0 0)
(0 0 0)
(0 0 0)
(0 0 0)
(0 0 0)
(0 0 0)
(0 0 0)
(0 0 0)
(0 0 0)
(0 0 0)
(0 0 0)
(0 0 0)
(0 0 0)
(0 0 0)
(0 0 0)
(0 0 0)
(0 0 0)
(0 0 0)
(0 0 0)
(0 0 0)
(0 0 0)
(0 0 0)
(0 0 0)
(0 0 0)
(0 0 0)
(0 0 0)
(0 0 0)
(0 0 0)
(0 0 0)
(0 0 0)
(0 0 0)
(0 0 0)
(0 0 0)
(0 0 0)
(0 0 0)
(0 0 0)
(0 0 0)
(0 0 0)
(0 0 0)
(0 0 0)
(0 0 0)
(0 0 0)
(0 0 0)
(0 0 0)
(0 0 0)
(0 0 0)
(0 0 0)
(0 0 0)
(0 0 0)
(0 0 0)
(0 0 0)
(0 0 0)
(0 0 0)
(0 0 0)
(0 0 0)
(0 0 0)
(0 0 0)
(0 0 0)
(0 0 0)
(0 0 0)
(0 0 0)
(0 0 0)
(0 0 0)
(0 0 0)
(0 0 0)
(0 0 0)
(0 0 0)
(0 0 0)
(0 0 0)
(0 0 0)
(0 0 0)
(0 0 0)
(0 0 0)
(0 0 0)
(0 0 0)
(0 0 0)
(0 0 0)
(0 0 0)
(-0.0006846439804 0.05103760833 0)
(-0.0009463649931 0.05104112408 0)
(-0.0009561853327 0.05078915762 0)
(-0.0001524640518 0.05128228692 0)
(-0.0006741023643 0.05128951089 0)
(0.007811582524 0.05163954152 0)
(0.006747826912 0.05166071658 0)
(0.006709620564 0.05065367082 0)
(-0.001186218598 0.04331365217 0)
(-0.001724065197 0.0433262819 0)
(-0.00173592655 0.04282075737 0)
(-0.0009668234571 0.05053744517 0)
(-9.868640816e-05 0.04379344812 0)
(-0.0005981267733 0.04378920821 0)
(-0.001102208009 0.04377709339 0)
(0.007511288959 0.04460531661 0)
(0.006447132948 0.04462744035 0)
(0.005376609876 0.04465041807 0)
(0.005328783214 0.04364768409 0)
(0.005287917466 0.04263938578 0)
(0.006669327348 0.04964775424 0)
(0.003669554909 0.05474861073 0)
(-0.001364176464 0.03573501185 0)
(-0.002439844892 0.03576027074 0)
(-0.002463575351 0.0347496915 0)
(-0.001747781575 0.04231570233 0)
(-0.0008189220748 0.05457391558 0)
(-0.0005564144826 0.0545696769 0)
(0.003513939013 0.05071819198 0)
(0.003555023527 0.05172460658 0)
(0.002495574428 0.05174417767 0)
(0.00247449736 0.05124079507 0)
(0.002452955852 0.05073803391 0)
(0.003121876801 0.0542539306 0)
(0.003651076336 0.05424408694 0)
(-0.0002920624667 0.05456478437 0)
(-0.0009052047606 0.04677638335 0)
(-0.001419192835 0.04677985841 0)
(-0.001449967295 0.04628116511 0)
(-0.000936692803 0.04627794163 0)
(-0.0008732483757 0.04727518979 0)
(-0.001388635288 0.0472792143 0)
(-0.0003858107602 0.04677104368 0)
(-0.0003539462526 0.04726961745 0)
(0.00333350686 0.04670075448 0)
(0.003380751203 0.04770368999 0)
(0.002311595705 0.04772630685 0)
(0.00225848234 0.04672543468 0)
(0.002431043532 0.05023528145 0)
(0.002408906441 0.04973295695 0)
(0.003471327582 0.04971275251 0)
(-0.0006198820835 0.05280170189 0)
(-0.000887963192 0.05280766823 0)
(-0.0008934933054 0.05255400424 0)
(-0.0006277840215 0.05254889199 0)
(-0.002625681736 0.04880326999 0)
(-0.002610630286 0.0490530472 0)
(-0.002883118681 0.04906052596 0)
(-0.0007902000027 0.04877660657 0)
(-0.0007642803093 0.049277856 0)
(-0.001281900109 0.04928273133 0)
(-0.00129457994 0.04903177129 0)
(-0.001307016078 0.0487813691 0)
(-0.0006122225101 0.05305447052 0)
(-0.0008822513063 0.05306109313 0)
(-0.0003549355033 0.05279688933 0)
(-0.0003462431891 0.05304925799 0)
(0.001481823372 0.05276883395 0)
(0.001501700988 0.05327313704 0)
(0.0009763791552 0.05328171554 0)
(0.0009563563154 0.05277722801 0)
(0.001013349281 0.05429071585 0)
(0.001539358084 0.05428179247 0)
(-0.003058517264 0.0447834468 0)
(-0.003048525541 0.04503475174 0)
(-0.00133329844 0.04828017515 0)
(-0.0008164554466 0.04827545895 0)
(-0.002633041785 0.04854983683 0)
(-0.002695901461 0.04678551074 0)
(-0.002684566451 0.04703622058 0)
(0.0008108751359 0.03669460405 0)
(-0.0002647885985 0.03671986282 0)
(-0.001340457027 0.03674512171 0)
(0.007254747768 0.03648416556 3.588240816e-13)
(0.005113544155 0.03659356862 0)
(0.005065130234 0.03456457979 3.593098041e-13)
(0.005232185427 0.04164599543 0)
(0.00520846599 0.04063588557 0)
(0.001398374033 0.05075608177 0)
(0.001420066029 0.05125865154 0)
(0.0008948866825 0.05126689795 0)
(0.0008733051342 0.05076423166 0)
(0.0009364579666 0.05227344202 0)
(0.001461813474 0.05226509755 0)
(-0.0003639036507 0.0525445741 0)
(0.003104583724 0.04270709233 0)
(0.003170368288 0.04369977699 0)
(0.002098898566 0.04372024087 0)
(0.002028915295 0.04273235122 0)
(0.002201966166 0.04572605134 0)
(0.003286091867 0.04569815173 0)
(-0.0004185207252 0.04627286547 0)
(-0.001292996113 0.03876628019 0)
(-0.001269265667 0.03977685943 0)
(-0.002344934078 0.03980211831 0)
(-0.002368664537 0.03879153907 0)
(-0.001552863741 0.05379102313 0)
(-0.001367074618 0.05382207133 0)
(-0.001439584542 0.05414510219 0)
(-0.0005845941556 0.05381224456 0)
(-0.0005765890333 0.05406556864 0)
(-0.0008462018984 0.05407152399 0)
(-0.0008522153326 0.05381777742 0)
(-0.002707864341 0.04653486262 0)
(-0.002557160206 0.04478271047 0)
(-0.002522144264 0.04528229041 0)
(-0.003025465999 0.04528095949 0)
(-0.00104165003 0.04478661999 0)
(-0.001006569037 0.0452838502 0)
(-0.001515889933 0.0452848205 0)
(-0.001545849467 0.04478559146 0)
(-0.003090851867 0.04453905362 0)
(-0.001683589168 0.05282198349 0)
(-0.001691330557 0.05256931071 0)
(-0.00142852909 0.05256534691 0)
(-0.001428318129 0.05282045079 0)
(-0.001711729898 0.0518117896 0)
(-0.001446620157 0.05180678535 0)
(-0.001437061489 0.05205828832 0)
(-0.001698320752 0.05206202805 0)
(-0.0006542034873 0.05179263938 0)
(-0.0006451545475 0.05204429521 0)
(-0.0009076061407 0.05204843865 0)
(-0.0009167891603 0.05179683293 0)
(-0.001945020927 0.05206091735 0)
(-0.001971197165 0.05181478279 0)
(-0.001875953587 0.05279400146 0)
(-0.001945233802 0.05258565193 0)
(-0.001751035094 0.05080354858 0)
(-0.00174720206 0.05105758116 0)
(-0.002016544704 0.05106362409 0)
(-0.00201849964 0.05080917169 0)
(-0.002005843085 0.05157096049 0)
(-0.001731632058 0.05156344129 0)
(-0.002870558747 0.04986280006 0)
(-0.002559510548 0.0498002193 0)
(-0.00254885483 0.05005240097 0)
(-0.002798985841 0.05006738559 0)
(-0.001778291637 0.04979140839 0)
(-0.001769347244 0.05004391204 0)
(-0.002031020359 0.05004756756 0)
(-0.002039201579 0.04979476421 0)
(-0.002023188906 0.05055567581 0)
(-0.001756312474 0.0505502074 0)
(-0.001825146318 0.04878686695 0)
(-0.001812782792 0.04903717692 0)
(-0.002075018633 0.04904126834 0)
(-0.002087300977 0.04879081557 0)
(-0.002049107103 0.0495423301 0)
(-0.001788671522 0.04953917328 0)
(-0.002811915735 0.0495445564 0)
(-0.002567833684 0.04954737232 0)
(-0.001761128658 0.05314630656 0)
(-0.0008614998852 0.05356518784 0)
(-0.0005936038557 0.05355931977 0)
(-0.00162203811 0.05357478115 0)
(-0.001390478773 0.05357422793 0)
(-0.001433736031 0.05307756542 0)
(-0.003001306366 0.04578201543 0)
(0.008877953447 0.05161774148 0)
(0.0158588801 0.05066889958 3.470140841e-13)
(0.01415376011 0.0521159548 3.566730244e-13)
(0.01400199262 0.04981326665 3.544942118e-13)
(-0.0009266058454 0.05154524209 0)
(-0.0006647296725 0.05154139395 0)
(-0.001459533841 0.05155620651 0)
(-0.001483815729 0.05079788425 0)
(-0.00147705951 0.05105100285 0)
(0.004730145747 0.05472826141 0)
(0.007922209428 0.05466467056 0)
(0.006858784589 0.05468593178 0)
(-0.001075780274 0.05457637787 0)
(-0.001106105684 0.0543303877 0)
(-0.0008357346668 0.05432403884 0)
(-0.0005671359726 0.05431815427 0)
(-0.0003184668367 0.05380693463 0)
(-0.0003097428058 0.05406005398 0)
(0.0004710439984 0.05379464153 0)
(0.0004803663866 0.05404704236 0)
(0.0002179651597 0.05405109069 0)
(0.000208462202 0.05379860017 0)
(0.0002353633374 0.05455540504 0)
(0.00049838831 0.05455091938 0)
(-0.002281902037 0.05081338443 0)
(-0.002271733622 0.05106501397 0)
(-0.002464430732 0.05103666404 0)
(-0.002535286473 0.05082961954 0)
(-0.002344617052 0.05138781879 0)
(-0.002726586935 0.05027434689 0)
(-0.002535928083 0.0503034961 0)
(-0.002605355723 0.05062546834 0)
(-0.002287490092 0.05030461296 0)
(-0.002288779478 0.0505605035 0)
(-0.003013543692 0.04553127982 0)
(-0.002844131397 0.04930142846 0)
(-0.00265537992 0.04779175071 0)
(-0.002648057099 0.0480441985 0)
(-0.001874172317 0.04778265829 0)
(-0.001862006501 0.04803334861 0)
(-0.002120585497 0.04803556952 0)
(-0.002132287727 0.04778482134 0)
(-0.002098596726 0.04853897768 0)
(-0.001838144859 0.0485359144 0)
(-0.001305846649 0.05457698996 0)
(-0.001374560213 0.05435355166 0)
(-0.001117015529 0.05382216387 0)
(-0.001116654282 0.0540778278 0)
(-0.001696972136 0.05231625987 0)
(-0.002013220915 0.05238117006 0)
(-0.002130141245 0.05202943077 0)
(-0.002201361376 0.05181506843 0)
(-0.001743263843 0.05131189307 0)
(-0.002019124357 0.05131996761 0)
(-0.002274779832 0.05159408881 0)
(-0.002300384865 0.04979807948 0)
(-0.002291691733 0.05005068295 0)
(-0.002586510758 0.04929899524 0)
(-0.002324141571 0.04929518248 0)
(-0.002309810232 0.04954549321 0)
(-0.001693716793 0.05335329104 0)
(-0.001422928439 0.05332941478 0)
(-0.001147133332 0.05332129481 0)
(-0.001129024839 0.05357071845 0)
(-0.001158855324 0.05281440504 0)
(-0.001156929305 0.05306904598 0)
(0.008987398079 0.05464252257 0)
(0.01218686101 0.05457603405 0)
(0.01005272755 0.05462037127 0)
(0.01711308592 0.04824683101 3.305966612e-13)
(0.01739956141 0.03622236331 2.482181127e-13)
(0.01792454715 0.0408885418 2.802619248e-13)
(0.01751466955 0.03849219613 2.743499872e-13)
(0.0164612116 0.03152300766 2.159106227e-13)
(0.01039858775 0.01607401602 1.097871793e-13)
(0.01278166851 0.02110777481 1.443289932e-13)
(0.01200085105 0.01907248684 1.355721091e-13)
(0.007870427622 0.01143931866 7.804867863e-14)
(0.00138306895 0.001706729101 1.16157084e-14)
(0.003152163898 0.004095303552 2.788047571e-14)
(0.002607250573 0.003258965016 2.306488334e-14)
(-0.0002697131009 0.04877034891 0)
(-0.0002441166273 0.04927179379 0)
(0.001303584809 0.04874721211 0)
(0.001328723493 0.04924876166 0)
(0.0008027602785 0.04925702648 0)
(0.0007781887296 0.04875522878 0)
(0.0008508165767 0.0502615397 0)
(0.001375936006 0.05025334166 0)
(0.009655193467 0.04455708675 0)
(0.01482060747 0.04065866747 3.288758155e-13)
(0.01347052654 0.04280128193 3.459316167e-13)
(0.01327080605 0.04041331288 3.421291028e-13)
(0.01384300984 0.04751105779 3.521627434e-13)
(0.01572263023 0.03796568001 3.072125887e-13)
(0.01504457375 0.02666320715 2.156885781e-13)
(0.01586777537 0.03085022623 2.496614027e-13)
(0.01517201838 0.0282043249 2.390171394e-13)
(0.01695387248 0.03583463064 2.659816811e-13)
(0.01367943521 0.02227694457 1.800642968e-13)
(0.007382647503 0.009687705974 7.804867863e-14)
(0.009700417814 0.01360200877 1.097177904e-13)
(0.009070082435 0.01215197991 1.026262408e-13)
(0.01137452639 0.0173690631 1.285638263e-13)
(0.005077229983 0.006262748226 5.039024753e-14)
(0.00039267957 0.0004110255735 3.302913498e-15)
(0.001518277144 0.001673210346 1.34336986e-14)
(0.001076107055 0.00113286268 9.520162436e-15)
(0.00229521561 0.002755797239 2.030320356e-14)
(-0.0002173276807 0.0387410213 0)
(-0.0001935972218 0.03975160054 0)
(0.00300967291 0.03866524476 0)
(0.003033403369 0.039675824 0)
(0.001957734941 0.03970108288 0)
(0.001934004482 0.03869050364 0)
(0.002005184837 0.04172177198 0)
(0.003080853265 0.04169651309 0)
(0.009274613975 0.03588188802 3.533562332e-13)
(0.01344554006 0.03052120779 3.013561622e-13)
(0.01247228451 0.03287416378 3.2439329e-13)
(0.01211447504 0.0302018491 3.154559947e-13)
(0.01298770771 0.03787271207 3.364669654e-13)
(0.01389982031 0.02769156132 2.734756865e-13)
(0.01195967238 0.01742444325 1.718625242e-13)
(0.01313675371 0.02101778694 2.074729277e-13)
(0.01248770914 0.01887596181 1.97189487e-13)
(0.01462403771 0.02594223832 2.307321001e-13)
(0.01056402503 0.01413660337 1.39305234e-13)
(0.004720304306 0.00508806824 4.994615832e-14)
(0.00675177921 0.007778320667 7.646661082e-14)
(0.005777099779 0.00628717204 6.537825836e-14)
(0.008159236774 0.01042090246 9.234280007e-14)
(0.00282558267 0.002860815514 2.806088695e-14)
(0 0 0)
(0.000299415085 0.0002709092327 2.650657471e-15)
(0.0001397643732 0.0001195666169 1.235123115e-15)
(0.0008115024399 0.0008142841571 7.188694084e-15)
(-0.001499056508 0.02833161696 3.552713679e-13)
(-0.003644317036 0.0284914306 3.566452689e-13)
(-0.003564744381 0.02579933304 3.474304178e-13)
(-0.003539239085 0.03477495027 0)
(-0.003586700003 0.03275379179 0)
(0.0006318938683 0.02805538623 3.524264214e-13)
(0.006560792001 0.02602111557 3.28445604e-13)
(0.004715764872 0.02694874273 3.396449788e-13)
(0.004509590926 0.02390559164 3.242128788e-13)
(0.00499101171 0.03232285732 3.568673135e-13)
(0.008181643216 0.0248004009 3.134575932e-13)
(0.01097812946 0.01938979679 2.456090886e-13)
(0.01045364891 0.02146345879 2.717687186e-13)
(0.009697759062 0.01845946086 2.514793929e-13)
(0.01166205739 0.02738552846 3.037986529e-13)
(0.0110412044 0.01710581867 2.166877788e-13)
(0.008555469201 0.009697002351 1.225686219e-13)
(0.009787418876 0.01217794279 1.540989558e-13)
(0.008685968198 0.01003020698 1.365019209e-13)
(0.01170530832 0.01665381092 1.847272335e-13)
(0.007033524539 0.007324271336 9.246770016e-14)
(0.002088729691 0.001754495594 2.206568261e-14)
(0.003641938144 0.003268057516 4.113376306e-14)
(0.002866322144 0.002389704628 3.234912338e-14)
(0.00512620507 0.005252588781 5.798139746e-14)
(0.0008611078767 0.0006801295906 8.54871729e-15)
(0 0 0)
(0 0 0)
(0 0 0)
(1.33966723e-05 1.079293377e-05 1.249000903e-16)
(-0.00110916776 0.01609351487 2.812194921e-13)
(-0.002843334562 0.01634833461 2.851052727e-13)
(-0.002488118144 0.01319773453 2.552957845e-13)
(-0.00339787712 0.02278464377 3.320399511e-13)
(0.0005805188194 0.01568305607 2.745720318e-13)
(0.004865608146 0.01350878561 2.376571162e-13)
(0.0036207637 0.01438948921 2.527977827e-13)
(0.003242963817 0.01142601746 2.22627472e-13)
(0.004257290486 0.02073052926 3.04312131e-13)
(0.005858899833 0.012481061 2.198241589e-13)
(0.006952031029 0.008697001864 1.533495553e-13)
(0.006926681475 0.01004980053 1.772054725e-13)
(0.005894449761 0.007667122376 1.498801083e-13)
(0.008848588664 0.01550980368 2.286504319e-13)
(0.00663650426 0.007298544351 1.28647093e-13)
(0.00404290385 0.003271737184 5.74817971e-14)
(0.005116835686 0.004537615148 7.983891326e-14)
(0.003951297523 0.00315327902 6.147859999e-14)
(0.007519915078 0.008010670732 1.179334408e-13)
(0.002886510778 0.002149486215 3.771982726e-14)
(0.0001882938172 0.0001134470704 1.984523657e-15)
(0.0008217552622 0.0005285453255 9.256484468e-15)
(0.0003621386004 0.000209977478 4.080069615e-15)
(0.002112695603 0.001627055151 2.382816167e-14)
(0 0 0)
(0 0 0)
(0 0 0)
(0 0 0)
(0 0 0)
(-0.0004144351609 0.005217456395 1.503935865e-13)
(-0.00135237623 0.005349225635 1.539046668e-13)
(-0.001012862075 0.003501849809 1.202926647e-13)
(-0.002107661699 0.0102545279 2.226829832e-13)
(0.0004773984503 0.005004551292 1.444955267e-13)
(0.002470464682 0.003939720492 1.141725603e-13)
(0.001955970189 0.004357618091 1.26162969e-13)
(0.001515951739 0.002769810588 9.568734693e-14)
(0.002833141406 0.008722891647 1.907501934e-13)
(0.002798962841 0.003473294158 1.007111061e-13)
(0.002593493428 0.001932514521 5.601075159e-14)
(0.002853885271 0.002452422528 7.110978473e-14)
(0.001972362575 0.001412293775 4.88359353e-14)
(0.004850216146 0.005586813673 1.225131108e-13)
(0.002177096139 0.001432748151 4.149458555e-14)
(0.0005602801039 0.0002739217606 7.91033905e-15)
(0.001087448403 0.0005811376584 1.679212325e-14)
(0.0004805964445 0.0002149980029 7.410738689e-15)
(0.002863399073 0.002032192006 4.443667656e-14)
(0.0001643991729 7.40981701e-05 2.137179322e-15)
(0 0 0)
(0 0 0)
(0 0 0)
(7.769016964e-05 4.012971398e-05 8.743006319e-16)
(0 0 0)
(0 0 0)
(0 0 0)
(0 0 0)
(0 0 0)
(-4.971194739e-05 0.0004319895043 3.548550342e-14)
(-0.0002757618383 0.0004534911404 3.720634911e-14)
(-0.0001350900619 0.0001235506355 1.884603584e-14)
(-0.0007161168499 0.002086024609 8.888723091e-14)
(0.0001510884538 0.0003972766763 3.26683125e-14)
(0.0004429843766 0.0002362429652 1.945665851e-14)
(0.0004080385124 0.0002965023826 2.441102875e-14)
(0.000174156215 6.73315141e-05 1.029731855e-14)
(0.00109816985 0.001585994753 6.791789353e-14)
(0.0004136992072 0.0001742910019 1.434963259e-14)
(9.223960593e-05 2.389643654e-05 1.970645869e-15)
(0.000212631347 6.316408563e-05 5.19029264e-15)
(1.606648781e-05 2.565353254e-06 3.885780586e-16)
(0.001216745798 0.000699350686 2.996214388e-14)
(1.066997505e-05 2.451617192e-06 1.942890293e-16)
(0 0 0)
(0 0 0)
(0 0 0)
(0.0001093421803 3.943067552e-05 1.679212325e-15)
(0 0 0)
(0 0 0)
(0 0 0)
(0 0 0)
(0 0 0)
(0 0 0)
(0 0 0)
(0 0 0)
(0 0 0)
(0 0 0)
(0 0 0)
(0 0 0)
(0 0 0)
(-4.522805161e-05 5.974729485e-06 6.467049118e-15)
(0 0 0)
(0 0 0)
(0 0 0)
(0 0 0)
(3.555837121e-05 1.919886477e-06 2.081668171e-15)
(0 0 0)
(0 0 0)
(0 0 0)
(0 0 0)
(0 0 0)
(0 0 0)
(0 0 0)
(0 0 0)
(0 0 0)
(0 0 0)
(0 0 0)
(0 0 0)
(0 0 0)
(0 0 0)
(0 0 0)
(0 0 0)
(0 0 0)
(0 0 0)
(0 0 0)
(0 0 0)
(0 0 0)
(0 0 0)
(0 0 0)
(0 0 0)
(0 0 0)
(0 0 0)
(0 0 0)
(0 0 0)
(0 0 0)
(0 0 0)
(0 0 0)
(0 0 0)
(0 0 0)
(0 0 0)
(0 0 0)
(0 0 0)
(0 0 0)
(0 0 0)
(0 0 0)
(0 0 0)
(0 0 0)
(0 0 0)
(0 0 0)
(0 0 0)
(0 0 0)
(0 0 0)
(0 0 0)
(0 0 0)
(0 0 0)
(0 0 0)
(0 0 0)
(0 0 0)
(0 0 0)
(0 0 0)
(0 0 0)
(0 0 0)
(0 0 0)
(0 0 0)
(0 0 0)
(0 0 0)
(0 0 0)
(0 0 0)
(0 0 0)
(0 0 0)
(0 0 0)
(0 0 0)
(0 0 0)
(0 0 0)
(0 0 0)
(0 0 0)
(0 0 0)
(0 0 0)
(0 0 0)
(0 0 0)
(0 0 0)
(0 0 0)
(0 0 0)
(0 0 0)
(0 0 0)
(0 0 0)
(0 0 0)
(0 0 0)
(0 0 0)
(0 0 0)
(0 0 0)
(0 0 0)
(0 0 0)
(0 0 0)
(0 0 0)
(0 0 0)
(0 0 0)
(0 0 0)
(0 0 0)
(0 0 0)
(0 0 0)
(0 0 0)
(0 0 0)
(0 0 0)
(0 0 0)
(0 0 0)
(0 0 0)
(0 0 0)
(0 0 0)
(0 0 0)
(0 0 0)
(0 0 0)
(0 0 0)
(0 0 0)
(0 0 0)
(0 0 0)
(0 0 0)
(0 0 0)
(0 0 0)
(0 0 0)
(0 0 0)
(0 0 0)
(0 0 0)
(0 0 0)
(0 0 0)
(0 0 0)
(0 0 0)
(0 0 0)
(0 0 0)
(0 0 0)
(0 0 0)
(0 0 0)
(0 0 0)
(0 0 0)
(0 0 0)
(0 0 0)
(0 0 0)
(0 0 0)
(0 0 0)
(0 0 0)
(0 0 0)
(0 0 0)
(0 0 0)
(0 0 0)
(0 0 0)
(0 0 0)
(0 0 0)
(0 0 0)
(0 0 0)
(0 0 0)
(0 0 0)
(0 0 0)
(0 0 0)
(0 0 0)
(0 0 0)
(0 0 0)
(0 0 0)
(0 0 0)
(0 0 0)
(0 0 0)
(0 0 0)
(0 0 0)
(0 0 0)
(0 0 0)
(0 0 0)
(0 0 0)
(0 0 0)
(0 0 0)