/*--------------------------------*- C++ -*----------------------------------*\
| =========                 |                                                 |
| \\      /  F ield         | OpenFOAM: The Open Source CFD Toolbox           |
|  \\    /   O peration     | Version:  v2012                                 |
|   \\  /    A nd           | Website:  www.openfoam.com                      |
|    \\/     M anipulation  |                                                 |
\*---------------------------------------------------------------------------*/
FoamFile
{
    version     2.0;
    format      ascii;
    class       volScalarField;
    location    "0.91";
    object      p;
}
// * * * * * * * * * * * * * * * * * * * * * * * * * * * * * * * * * * * * * //

dimensions      [0 2 -2 0 0 0 0];


internalField   nonuniform List<scalar> 
3019
(
-787.1151351
-969.2061429
-1024.528347
-992.5197978
-933.2705404
-870.6027797
-794.3815459
-752.2615404
-698.8694499
-681.2209051
-669.4214774
-663.674933
231.04826
-411.7339268
-645.6247185
-730.0798872
-748.5753021
-736.8011741
-699.1170513
-677.1182557
-639.6648089
-629.0554972
-621.5002029
-617.8772509
191.4777551
-179.1877757
-408.3695206
-531.9696586
-591.7572336
-614.1261883
-605.7062545
-601.3799354
-578.3767279
-574.1659092
-570.7346772
-569.1450273
137.305069
-92.2125582
-273.8802077
-395.6141219
-468.9560947
-509.2087278
-520.5088367
-529.0253592
-517.8820499
-519.0626744
-519.2125206
-519.3683893
98.69625004
-57.79893974
-195.537789
-301.2804
-374.8433026
-422.3131912
-445.4191037
-462.4113769
-460.4361132
-465.6975184
-468.7002432
-470.1407359
72.42117385
-42.44438074
-148.5261889
-236.426132
-303.4714353
-351.8731412
-380.9487035
-402.7015971
-407.2832637
-415.332973
-420.3476552
-422.688968
54.12141021
-34.38684098
-117.9200789
-190.585677
-249.7138752
-295.5883266
-326.513059
-350.2108565
-358.9001371
-368.6258416
-374.9014368
-377.8697089
41.39863019
-29.18906005
-96.57169625
-157.0290153
-208.3583081
-250.1586581
-280.688784
-304.4603946
-315.3981073
-325.9193841
-332.8579776
-336.1492054
32.12765545
-25.50404911
-80.86168274
-131.5207844
-175.7991495
-213.0814727
-241.9388002
-264.700742
-276.5967534
-287.2488055
-294.3859216
-297.7809958
25.20047761
-22.63077317
-68.73231935
-111.4695829
-149.5923291
-182.4896926
-208.9486154
-230.1471964
-242.1202121
-252.4482976
-259.4548468
-262.7951972
19.93210895
-20.22129002
-58.99605374
-95.25186478
-128.0643848
-156.8941667
-180.7119417
-200.0501307
-211.5269574
-221.2464363
-227.906937
-231.0869946
15.86974915
-18.09870047
-50.93398896
-81.81577397
-110.0554148
-135.1993196
-156.3627418
-173.743365
-184.3780125
-193.3255407
-199.5076471
-202.4618921
12.70449296
-16.16913349
-44.09251101
-70.46006444
-94.75156353
-116.5942593
-135.2101827
-150.6517576
-160.2554612
-168.3515361
-173.9823727
-176.6742359
10.21857242
-14.38066108
-38.17267918
-60.70060091
-81.56608406
-100.466316
-116.6971434
-130.2834722
-138.7710366
-145.9925912
-151.0415143
-153.4551146
8.252016558
-12.70453745
-32.97053079
-52.19428116
-70.06797861
-86.34763185
-100.3762704
-112.2230964
-119.5700714
-125.9297773
-130.3943349
-132.5277323
6.684160629
-11.12387452
-28.33984728
-44.68797828
-59.9297094
-73.87060838
-85.87880971
-96.1131644
-102.3321948
-107.8633518
-111.7583524
-113.6181919
5.422429662
-9.62854894
-24.17272935
-37.99011568
-50.8973381
-62.74250296
-72.90038465
-81.64813955
-86.77003242
-91.51649876
-94.866203
-96.46381392
4.393179818
-8.21178094
-20.38499761
-31.94978874
-42.76647313
-52.72037893
-61.18575845
-68.5629796
-72.62568011
-76.63481893
-79.46774081
-80.81667796
3.536849387
-6.868053294
-16.90965722
-26.44560074
-35.37051513
-43.59028981
-50.51795058
-56.62576301
-59.66193944
-62.98215479
-65.32720351
-66.4408461
2.805795526
-5.592028489
-13.69120502
-21.37783849
-28.5759699
-35.20907268
-40.68447676
-45.62672242
-47.68065141
-50.35428786
-52.23897375
-53.13141274
2.162171268
-4.377672962
-10.68102538
-16.65968384
-22.26542726
-27.46022354
-31.50935553
-35.3768742
-36.43593739
-38.51233182
-39.95667648
-40.63365522
1.575122791
-3.218079864
-7.835182214
-12.21221836
-16.32485187
-20.15362815
-22.87653201
-25.68631918
-25.96529486
-27.43623919
-28.46291853
-28.94915451
1.017451854
-2.105123982
-5.111741822
-7.962235172
-10.6516748
-13.18000635
-14.63079467
-16.47800698
-15.46583258
-16.35159275
-16.95835006
-17.19555369
0.4653766216
-1.028012117
-2.468028148
-3.840999964
-5.151276367
-6.417204685
-6.567144703
-7.422926628
-7.349002083
-7.800643823
-8.09797073
-8.308809284
-843.6054976
-880.3724651
-1084.101605
318.7445871
-796.83612
182.3472054
-424.626638
-978.1010326
299.5449694
330.5125414
-1011.849584
-60.95735338
-137.6901826
-191.7449488
-497.8580584
-872.9043528
-1188.136755
-484.1049523
-1237.040369
-1236.212338
-1256.797292
-391.9807861
204.69258
-129.8171285
-312.5723994
-923.7725216
-1171.540241
-1188.865109
-147.3437807
-392.8061371
-118.8929124
359.0336068
-1437.292574
-1434.666742
372.704846
135.6121914
-1203.366394
-1031.601449
-1038.776631
-1036.491146
-1207.613711
-820.2235846
-988.0719137
-589.8132066
-609.104733
-770.9176138
-398.5616406
-556.0706195
-492.2485042
-1218.776317
-1388.772443
-1422.097515
-1218.205882
-1100.836815
-1150.924689
-991.3309546
-984.7741509
-823.9484361
-1551.445011
-1539.085002
-1431.460466
-1418.650529
-824.3958088
-841.3341484
-666.0902283
-670.6009728
-766.8545198
-197.7690637
-345.6901411
-1556.236957
-1430.635455
-1505.225197
-1054.163912
-1051.003725
-1038.832401
-1151.136493
-859.3291718
-842.3297969
-826.3501432
-979.9199839
-923.9441557
-920.307074
-593.9997089
-649.3176436
-648.7603291
-470.3262036
-474.2605293
-522.6644312
-1359.550046
-1359.288516
-1414.194119
-1229.74575
-1290.411616
-1300.3841
-1138.957204
-1086.131961
-1065.650424
-1002.382784
-981.6171598
-922.2064342
-515.8269535
-608.585138
-843.2591924
-517.4591206
-693.4762795
-1022.240625
-726.9145406
-782.1515574
-1004.554144
-790.2324275
-795.2369026
-948.9477698
-792.6939127
-776.837093
-885.8709713
264.8752674
19.17061907
-90.89971193
-217.2218189
-409.7536624
-606.0392786
-455.6770369
-553.162605
-717.2020074
-575.2077174
-619.0443047
-747.8501735
-627.7748611
-641.7721449
-741.5583148
210.6712916
285.0595112
150.2581572
-47.00251471
-99.10364838
-106.7376944
-259.6037746
-363.0021601
-301.2205937
-399.6028207
-508.3817267
-424.8226958
-482.4843235
-581.1691924
-496.5581494
-526.6275409
-610.9408802
146.2776198
190.7379055
106.9920631
-22.46352823
-37.99238349
-63.87566769
-177.7933262
-234.1657993
-211.3539421
-297.625666
-370.3940259
-321.674904
-380.6696792
-454.2716011
-396.2700157
-432.9976499
-501.3547288
106.6006487
134.6798089
78.11704681
-14.95754734
-19.66740054
-45.31537177
-131.7635887
-163.873794
-158.3217788
-229.6780819
-277.9919536
-250.5253527
-304.2745564
-359.2310479
-319.4172419
-357.4046777
-412.3417687
79.96210745
98.96863907
58.09631557
-12.77763003
-14.14341515
-36.03918993
-103.3629602
-123.4619117
-124.5207104
-183.0067853
-216.4116805
-200.680719
-247.9603191
-288.599501
-261.8184752
-297.9734283
-341.214641
61.66012429
74.71733112
44.18637921
-11.87799641
-12.50627801
-30.30842722
-84.11579799
-97.87781878
-101.2716162
-149.6033466
-173.6396021
-164.533073
-205.4429827
-236.2323705
-217.7552599
-250.747239
-285.1712697
48.55420143
58.01204821
34.19123831
-11.34896374
-11.72350135
-26.32969996
-70.26616768
-80.25064585
-84.39227934
-124.6778103
-142.7150969
-137.3055171
-172.4825432
-196.4365978
-183.2631958
-212.6902325
-240.4862139
38.76329946
45.84380198
26.75487045
-10.90508903
-11.23773287
-23.29589063
-59.72976125
-67.37814442
-71.50400008
-105.3542785
-119.4046579
-116.0714966
-146.2742993
-165.3835052
-155.650183
-181.5900439
-204.3508644
31.27668579
36.70579167
21.12136658
-10.41566822
-10.78938712
-20.79174269
-51.34464819
-57.46445441
-61.25072889
-89.88353333
-101.1770636
-99.01168194
-124.9507195
-140.5433446
-133.0780284
-155.7871254
-174.7088382
25.44179339
29.68316415
16.79104641
-9.845502874
-10.28100189
-18.60850064
-44.43054586
-49.4979153
-52.82056669
-77.16004793
-86.47849258
-84.95678201
-107.2455771
-120.2248497
-114.2766939
-134.0669624
-150.024597
20.8238043
24.18664209
13.42481611
-9.195887907
-9.690148035
-16.63676523
-38.57027072
-42.87915231
-45.70677749
-66.46222987
-74.31796801
-73.13330509
-92.28686368
-103.2761589
-98.35905693
-115.5432847
-129.1749413
17.1252282
19.82245567
10.78585058
-8.480064596
-9.022514152
-14.8163863
-33.49543753
-37.23612541
-39.57854656
-57.30143306
-64.04330211
-63.01135826
-79.45669816
-88.89969736
-84.6893719
-99.55782241
-111.3391587
14.13147845
16.31790102
8.702120009
-7.715287483
-8.292757959
-13.11408154
-29.02733954
-32.32717429
-34.21254747
-49.33740609
-55.20920478
-54.21844143
-68.30834785
-76.52664801
-72.80361832
-85.61559087
-95.90480312
11.68026503
13.47312815
7.044220892
-6.919259821
-7.518566049
-11.51074078
-25.04067263
-27.98957108
-29.45045491
-42.32325014
-47.50290947
-46.48226454
-58.5076218
-65.7429589
-62.35185899
-73.33355897
-82.40895667
9.649519626
11.13722046
5.713458716
-6.107897463
-6.717283227
-9.994782449
-21.44433653
-24.10783913
-25.17590394
-36.07398433
-40.69525387
-39.5976305
-49.79793128
-56.23639197
-53.06362814
-62.40945976
-70.49109391
7.943559462
9.195880874
4.632167881
-5.294973342
-5.90432491
-8.558913676
-18.16870939
-20.59779617
-21.3003271
-30.44673269
-34.61375547
-33.40525608
-41.97694158
-47.76638405
-44.72433118
-52.59852469
-59.86606484
6.484923995
7.558400543
3.737506728
-4.491817408
-5.092897608
-7.197418994
-15.15893266
-17.39325613
-17.75236332
-25.32666042
-29.12320069
-27.77711409
-34.88011619
-40.14058389
-37.1583169
-43.69321015
-50.29904905
5.211165746
6.151301681
2.979025629
-3.706851191
-4.293614886
-5.905001052
-12.36970034
-14.44258039
-14.47448647
-20.6203446
-24.11460944
-22.60875836
-28.374562
-33.20294362
-30.22472191
-35.53380585
-41.59192984
4.07220341
4.915518047
2.316648758
-2.945554417
-3.514155808
-4.675831756
-9.761603349
-11.70214404
-11.41647953
-16.24757522
-19.49882504
-17.81083859
-22.34688075
-26.82708433
-23.80398249
-27.99234405
-33.59761666
3.027145451
3.803601563
1.718097917
-2.21100646
-2.759344428
-3.503267451
-7.299217987
-9.133695123
-8.533553184
-12.13650418
-15.19797409
-13.30280878
-16.69090693
-20.90210534
-17.78108521
-20.92098833
-26.18861654
2.03979033
2.776283228
1.155517039
-1.504241856
-2.03171016
-2.379466715
-4.948573857
-6.702396551
-5.783348946
-8.220351584
-11.14170363
-9.009964886
-11.30845584
-15.32326942
-12.05010646
-14.1937154
-19.21338534
1.075284751
1.797871488
0.6028456269
-0.8252350564
-1.33188376
-1.295621588
-2.676130377
-4.374478378
-3.124825844
-4.437175662
-7.264440025
-4.863689161
-6.111032148
-9.995057868
-6.515966789
-7.697211759
-12.55355944
0.02239244849
0.8358326063
-0.07811651383
-0.2805485066
-0.6580416817
-0.3491275957
-0.5752838034
-2.114492412
-0.6553044517
-0.9026625979
-3.503755289
-0.9866787933
-1.242093333
-4.829486105
-1.328803142
-1.615161723
-6.09429436
-893.1640905
-887.3908922
-837.567278
-893.5732017
-983.6062736
-974.6296671
-1419.067133
-1444.402886
-1033.044315
187.9626178
443.2682705
-775.4389346
-618.3422617
-675.1961309
58.65417379
-16.30901851
117.3869761
-623.0087517
-463.5670903
-226.9442437
-904.7274754
-561.3789303
-702.4823026
344.2811527
379.7936694
-1155.322874
-1176.126543
-939.1106336
-1257.55628
-1265.686296
-1530.228076
-1522.718056
-0.2739957198
76.05716911
10.45835248
-218.4563898
-167.5320042
-81.54753825
-329.8658185
-538.3151101
-430.0053467
-613.6860501
-555.3167322
-426.7667217
-863.8974476
-693.6822488
-739.3457669
-1188.620293
-1140.836182
-1139.899371
-360.2864958
-422.5606789
-414.0060782
-579.1886455
-568.9164291
-421.7781417
-1288.939575
-1289.634667
-1235.375028
-1258.715541
-1351.042883
-1383.361018
-1342.74147
-1346.372276
-1257.40284
-1435.516366
-1429.106767
-354.7638623
-259.651613
-303.4070656
-254.1537485
-302.767541
-22.88354086
-152.2158196
84.05792149
76.55629649
262.2282988
-171.42104
-58.6506043
-28.90858188
-173.10343
-107.5284525
-229.5211934
-1005.229577
-993.8536036
-908.1644488
-1168.386413
-1080.533157
-1087.794421
-1069.457518
-1074.324126
-1165.743039
-216.5112702
-123.6621292
-51.524194
-312.4194191
-211.0719835
-298.932814
68.38071104
-110.2751569
-220.8269738
372.3426618
486.3332946
457.5045639
-1485.702512
-1489.900135
-1434.281091
146.347855
64.13302875
288.0324702
220.9509242
301.4751061
75.95189574
146.2278656
209.5321245
-1146.945257
-1142.884658
-1191.396537
-1033.033299
-1084.757474
-1075.906821
-1090.563713
-1088.079948
-1035.623342
-658.4464258
-649.247544
-600.3544722
-769.2792362
-696.132893
-711.7546323
-450.7846853
-435.5550632
-380.0470775
-542.0169225
-487.5844048
-502.7131
-1397.199608
-1348.584454
-1341.33256
-1160.271949
-1335.176447
-1408.829096
-1287.012307
-1313.875433
-1158.899932
-987.5396056
-937.0701655
-941.1312916
-926.3887172
-932.779503
-984.6511213
-830.5417273
-880.1603094
-871.4250078
-1427.250835
-1475.452282
-1481.278346
-1466.237784
-1470.421652
-1424.92331
-1516.179172
-1512.530785
-151.0013575
-204.7251546
-247.9476308
-226.1279908
-175.2902043
-325.1925278
-274.0312464
-294.4110675
-903.639914
-872.5079938
-840.3477171
-812.0928092
-787.5003701
-768.2166631
-695.3695215
-717.553668
-804.7309996
-799.13199
-843.9095828
-995.5931725
-917.0022143
-924.9842144
-1021.511108
-921.9112724
-914.9463144
-978.9188649
-885.3603645
-873.7307405
-917.4272488
-769.5883397
-763.2370572
-818.1503821
-746.9950474
-730.3687515
-772.1208686
-715.1488361
-703.7219557
-735.4400679
254.2054251
140.9517234
109.0529634
-329.0529598
-410.5500741
-492.1007512
-573.4220831
-608.1320016
-676.1471473
-674.180025
-686.8056285
-739.0206506
-706.3483855
-708.2703264
-747.6165375
-642.9464599
-656.0851817
-709.0456191
-651.6703115
-645.4510459
-687.8463496
-638.7984673
-633.1747293
-667.5186871
178.6310618
88.12766002
87.85012789
-148.9649286
-214.5355327
-249.4641231
-367.5923143
-406.0305052
-447.1872863
-492.673136
-513.5434551
-551.6417544
-557.8813899
-567.6514591
-600.0420949
-533.3275087
-557.7848758
-605.4046379
-561.8974942
-563.9329454
-604.0040024
-564.334199
-563.9796656
-598.2215588
126.0856337
71.92914433
76.58856037
-80.64941048
-127.5993705
-143.2327264
-250.0619172
-284.4561621
-309.7745444
-368.8611486
-391.1374754
-417.8325246
-443.2443783
-456.3589454
-481.5535454
-442.3628141
-472.1079813
-513.3861844
-481.6386036
-489.1976196
-525.5923527
-494.6279189
-498.305816
-530.8515819
91.17687119
54.17523809
58.34992636
-52.82895028
-87.17967989
-94.81510525
-181.605292
-209.683769
-225.13621
-282.7789353
-303.4352071
-322.5335888
-354.9659093
-368.9762213
-388.811136
-367.8058754
-399.0749447
-433.9716252
-411.8635863
-422.8169576
-454.9568291
-431.3612233
-437.8478556
-467.6429797
67.21222768
39.84921993
43.07610517
-40.00035576
-66.06498538
-70.28168934
-139.7204382
-162.3638031
-172.4204703
-223.4951848
-241.5186638
-255.1120372
-288.6147746
-302.0859392
-317.1585545
-308.2819857
-338.2291454
-367.2302799
-352.5599036
-365.1009684
-392.9110579
-375.3176495
-383.4258635
-410.1033246
50.500154
29.24561205
31.55948988
-32.88954819
-53.30083051
-56.02339326
-111.8899771
-130.283138
-137.2662124
-181.2470087
-196.716559
-206.6720405
-238.3775202
-250.6937125
-262.3482479
-260.3735116
-287.9263053
-311.8727677
-302.6231102
-315.4694212
-339.3504821
-326.3010559
-335.1332959
-358.7487003
38.81202539
21.74880337
23.40844507
-28.16159091
-44.59900056
-46.50404658
-92.21645488
-107.3601735
-112.4519129
-150.0202786
-163.2187495
-170.7642419
-199.5052905
-210.4757172
-219.669292
-221.4175164
-246.4033737
-266.1711275
-260.5272345
-272.9186536
-293.3920945
-283.6620721
-292.5777186
-313.4170309
30.20811152
16.22844805
17.45758329
-24.72735611
-38.22813683
-39.66429087
-77.55052205
-90.1582599
-94.04816155
-126.0719921
-137.3290252
-143.2332677
-168.7274337
-178.3702368
-185.765922
-189.3955039
-211.7358142
-228.3219239
-224.7902998
-236.3866676
-253.9770419
-246.6235656
-255.2204439
-273.5361956
23.74863023
12.12226638
13.03955404
-21.99387011
-33.24077761
-34.39046651
-66.10797605
-76.70083755
-79.78830448
-107.1044877
-116.7216089
-121.4709216
-143.8241798
-152.2426232
-158.3052971
-162.6947277
-182.4663439
-196.497533
-194.2965108
-204.9181504
-220.0878901
-214.4069394
-222.4517061
-238.5441159
18.81752483
9.047195811
9.735427431
-19.66842443
-29.13168899
-30.09468056
-56.84479463
-65.80711556
-68.33584681
-91.66426278
-99.89595325
-103.8086422
-123.2688843
-130.5892835
-135.6472629
-140.1347783
-157.5249194
-169.5124084
-168.0997039
-177.6737388
-190.826471
-186.3007856
-193.6703701
-207.8289277
15.00409702
6.736215073
7.253747287
-17.60077448
-25.61674511
-26.4503436
-49.12295923
-56.74224573
-58.86619727
-78.80374063
-85.85908246
-89.14783132
-106.0019524
-112.3493227
-116.6347789
-120.8430407
-136.0683018
-146.405313
-145.425871
-153.9524243
-165.4218405
-161.6846741
-168.3293316
-180.8167211
12.02637162
4.999859807
5.388264489
-15.71022222
-22.52741889
-23.26636175
-42.53542538
-49.03090803
-50.85135078
-67.88595636
-73.93539587
-76.74685649
-91.27565119
-96.76456634
-100.4450462
-104.1631978
-117.4428057
-126.4365662
-125.6550989
-133.1747364
-143.2372651
-140.0261295
-145.9416963
-156.9924246
9.683535348
3.701079093
3.990854502
-13.95190607
-19.75904972
-20.42517445
-36.81138144
-42.35302493
-43.93900296
-58.46770888
-63.64986395
-66.08807341
-78.54761825
-83.27916776
-86.47822092
-89.59663125
-101.1358187
-109.0266838
-108.288632
-114.8626017
-123.7452272
-120.8731804
-126.0822168
-135.9011059
7.826691586
2.73620658
2.950848588
-12.30094343
-17.24426259
-17.85197921
-31.76406404
-36.48566594
-37.88622642
-50.23234437
-54.66022819
-56.80134988
-67.4169068
-71.47855491
-74.28959693
-76.75379154
-86.73936647
-93.72086741
-92.92095688
-98.61848568
-106.5119382
-103.8405273
-108.3799615
-117.1484539
6.343181874
2.025152124
2.182773544
-10.74235971
-14.93717388
-15.49645954
-27.25821689
-31.26616072
-32.5174795
-42.94423002
-46.71008985
-48.61167419
-57.5766398
-61.04301997
-63.53852746
-65.32519232
-73.92277646
-80.15157755
-79.21761697
-84.10841272
-91.17235985
-88.59822366
-92.51118182
-100.3874037
5.145864492
1.50547032
1.620368341
-9.267219154
-12.80457737
-13.32280332
-23.19320386
-26.57245919
-27.70215316
-36.42355838
-39.60273887
-41.30971605
-48.78716135
-51.72127446
-53.95918081
-55.05862059
-62.41472577
-68.02005652
-66.90030894
-71.04981678
-77.42001461
-74.8622363
-78.19269805
-85.31647024
4.164914639
1.126985693
1.2107423
-7.86918058
-10.82158892
-11.30453138
-19.48910088
-22.30823526
-23.33867155
-30.5275899
-33.18133209
-34.72979833
-40.85411981
-43.30793432
-45.33605375
-45.7347537
-51.99623587
-57.07989804
-55.73455086
-59.19916629
-64.99319826
-62.38493231
-65.1757925
-71.66955496
3.343965725
0.8492316349
0.911111177
-6.542922917
-8.967764179
-9.420128179
-16.08296359
-18.39639347
-19.34503976
-25.1412978
-27.31949843
-28.73855045
-33.62019057
-35.63613063
-37.49218656
-37.19750772
-42.50380578
-47.14863129
-45.51013052
-48.3420189
-53.66466755
-50.94623736
-53.23511857
-59.21567334
2.637991427
0.640210962
0.6874886178
-5.282920059
-7.22514302
-7.651294722
-12.92092747
-14.77203955
-15.65438374
-20.16874568
-21.91199645
-23.22648514
-26.95749787
-28.57295523
-30.28819155
-29.31887247
-33.69991944
-38.03126445
-36.02373868
-38.28468276
-43.22946669
-40.35196137
-42.18694664
-47.73204243
2.011202923
0.4749086744
0.5133024035
-4.082940652
-5.577019457
-5.981072044
-9.955827106
-11.37824198
-12.20795326
-15.52540733
-16.8657466
-18.09822004
-20.74982957
-21.99576037
-23.60149206
-21.91433289
-25.37718221
-29.47457395
-27.13486592
-28.85502966
-33.50618784
-30.39353561
-31.77712417
-37.07411786
1.433965581
0.3330655078
0.367323273
-2.935812676
-4.00708587
-4.393149833
-7.144465181
-8.163101374
-8.952869861
-11.13395744
-12.09506589
-13.26632795
-14.88530527
-15.78245571
-17.30748813
-14.87187306
-17.49726332
-21.3917677
-18.71870981
-19.91702565
-24.33572236
-20.98456603
-21.91109387
-26.88544279
0.8795598513
0.1969330746
0.2313751536
-1.833125003
-2.498366716
-2.870769232
-4.44521279
-5.077209667
-5.839172504
-6.922598067
-7.52091624
-8.650060697
-9.264051469
-9.827061971
-11.2971787
-8.072292465
-9.930319531
-13.66500057
-10.64508486
-11.33445829
-15.57829516
-11.9426662
-12.58041474
-17.21314141
0.3177787846
0.04338615534
0.08986745169
-0.7695955791
-1.036424306
-1.39441937
-1.820889492
-2.077015711
-2.817347818
-2.830043742
-3.076095107
-4.174357744
-3.799923403
-4.036679105
-5.469196653
-1.722754643
-3.0778914
-6.10214519
-3.355564151
-3.617589528
-7.01076393
-3.925620689
-4.310418456
-7.781475981
-1193.686138
-1186.241687
-1070.445472
270.9776726
366.8482666
400.0759254
-790.4943546
-744.6343119
-746.6546533
-959.1761779
-854.1236706
-880.8449299
-1416.107862
-1413.763187
-243.748524
-315.5705828
-268.1244138
-1235.632425
-1285.378528
-1286.556629
50.00811925
-2.483061767
-1142.773379
-1138.749887
-1189.156311
-49.61705865
-105.8990306
-176.7519229
139.592498
91.12444697
-1123.483434
-1229.763929
-1258.984579
-1169.975951
-1199.896799
-1105.650769
-1044.624452
-1111.407275
-1140.364268
-1056.110611
-1083.30001
-1023.467131
-961.284175
-1004.956219
-1029.985478
-958.0882839
-980.9885313
-941.4567773
-548.9003477
-631.9409934
-604.5442613
-684.0795371
-658.9674996
-579.8609101
-823.5413739
-740.3162889
-763.177429
-591.5576731
-708.5881546
-646.800363
-792.3750977
-757.6540573
-649.8489375
-1013.646339
-879.2934123
-902.2673401
-751.7258277
-834.7789311
-817.5313997
-852.0449807
-845.8517716
-769.6806635
-1014.637061
-927.9371169
-926.1208755
-794.6794005
-853.2261702
-854.5610382
-844.944438
-850.1606942
-796.3741981
-964.2742575
-906.3087334
-896.2921386
-788.5180664
-830.64685
-838.3874345
-812.8527139
-822.0703884
-783.1295253
-901.582858
-861.6618745
-849.3035044
173.2988427
160.7778553
263.1765232
2.525401179
40.45237355
-48.94973304
-291.9590357
-344.6932794
-265.7723009
-464.9277734
-410.4472161
-355.6705683
-556.2005554
-476.660348
-529.9458617
-494.1429275
-547.5648091
-510.3658621
-602.7733219
-578.0213935
-526.3458504
-699.603377
-635.6999864
-657.4432228
-593.1664415
-638.1551305
-622.5801843
-659.4444451
-650.2956038
-607.6352723
-744.7209776
-695.9922431
-702.4245707
-634.2108314
-670.320881
-665.9664463
-673.9063495
-672.8585219
-638.8383801
-745.1244585
-708.2048915
-707.156135
233.1003732
255.9659089
81.2149702
85.40549915
164.5770894
-59.26846446
11.61683114
16.48035164
-9.641048523
3.353489553
-76.14313713
-162.2873685
-185.7325158
-125.2286246
-289.1932356
-240.4345293
-213.2990774
-310.3972576
-272.5486839
-323.3172066
-338.1950296
-370.0091283
-332.2568043
-431.9659462
-403.1005252
-370.8611311
-480.3057411
-439.3794861
-468.105314
-446.8588459
-478.6908573
-457.0501923
-512.9548911
-497.2235978
-465.9978553
-567.9086533
-531.1368076
-545.8125923
-508.4538097
-537.1285316
-526.1660392
-553.314408
-546.0748874
-518.377968
-606.3501756
-575.3986641
-581.4164488
159.2732152
173.886449
62.7457535
67.30278972
116.0997724
-26.22633958
20.71661772
20.38330154
19.13228712
20.38850924
-31.26881647
-103.8594092
-114.6511342
-71.36572681
-193.8466585
-155.5578038
-141.9076358
-190.6114126
-171.6082927
-212.4522284
-242.5146447
-262.152672
-229.3878053
-319.4875579
-292.1650001
-271.2607723
-341.879725
-315.6614476
-343.7637724
-343.4684786
-366.375491
-344.1975286
-403.6775533
-386.1530609
-363.1086791
-437.2972142
-410.8181955
-428.1321508
-410.0831697
-432.6230426
-419.1029396
-454.7377363
-444.4212943
-422.2651863
-492.2552691
-467.6724288
-477.4454569
115.0132228
124.3200636
46.53934053
50.23870997
84.34751855
-16.0745461
17.37279674
16.06666652
19.62675286
18.5858175
-17.59867321
-75.10725121
-80.68229792
-48.72886538
-141.1245058
-111.5364439
-103.9727238
-130.2421943
-120.2143296
-151.746744
-183.5399136
-195.8944064
-169.2799817
-244.2432102
-220.8956554
-207.3415456
-252.6218547
-235.9182621
-260.2815973
-269.8819247
-285.9456872
-265.924225
-321.1814563
-304.3428352
-287.7815334
-341.830692
-322.3028169
-339.4440616
-333.2738148
-350.5108933
-336.5436139
-374.6127169
-363.1594564
-345.9062837
-401.2542842
-381.5726431
-392.8779954
85.71626536
92.0313564
34.09536981
36.85685852
62.44950544
-13.11213846
12.0897348
10.85707389
14.723784
13.38703102
-13.55007822
-59.02112083
-62.34258324
-37.89024943
-109.3907908
-86.2103153
-81.49275255
-97.33122864
-91.45386575
-116.0510722
-144.8859531
-153.2237627
-131.7591087
-193.1893933
-173.7152361
-164.397455
-195.0668603
-183.9041485
-204.2891758
-217.4003543
-228.9837831
-211.6173265
-260.5389449
-245.2875418
-233.1589691
-272.4937879
-258.3653791
-274.0539476
-274.7555302
-287.9772494
-274.7591634
-311.5612352
-300.2228396
-286.7957775
-329.7086264
-314.5067709
-325.9371937
65.60237702
69.94235716
25.19833626
27.13647763
47.20355925
-12.05663319
7.690959749
6.797802112
9.707046664
8.654646595
-12.26606639
-48.5719614
-50.82779466
-31.53572961
-88.31018298
-69.77238901
-66.52513219
-77.21290745
-73.32020533
-92.87980927
-117.9362389
-123.8613207
-106.3604663
-157.0120021
-140.759505
-134.0603558
-155.8551089
-148.0019681
-165.0012279
-178.826005
-187.4568775
-172.5855958
-215.0395842
-201.6106271
-192.465751
-221.8879342
-211.3964446
-225.2821078
-229.4060848
-239.7312079
-227.7442049
-261.6077705
-251.0098143
-240.4029824
-274.1528407
-262.2449422
-273.0463725
51.47093385
54.61796513
18.78149745
20.2090541
36.41390359
-11.4642511
4.477173045
3.811512896
5.968018981
5.195517035
-11.58742452
-41.19574396
-42.83555664
-27.21233283
-73.35698323
-58.22894614
-55.85173538
-63.53983674
-60.78373518
-76.67556054
-98.19237325
-102.6191172
-88.1676362
-130.2958213
-116.6729751
-111.6312519
-127.8457757
-122.0648424
-136.2947041
-149.4929845
-156.1422971
-143.4596538
-179.99924
-168.3263245
-161.2229594
-183.9037027
-175.8727323
-187.9703832
-193.5598803
-201.7849618
-191.1534167
-221.48881
-211.8931619
-203.371684
-230.3730913
-220.8843385
-230.7240609
40.9632252
43.31863217
14.02585924
15.0867921
28.42084243
-11.01753793
2.105274028
1.624022016
3.196281975
2.628459933
-11.12790227
-35.60007503
-36.8766057
-23.99318833
-62.12724305
-49.59533931
-47.7513249
-53.63164603
-51.55100749
-64.67114723
-83.04879939
-86.49914219
-74.43781159
-109.769225
-98.28451685
-94.33981577
-106.9054354
-102.4650298
-114.4441133
-126.4737121
-131.7517217
-120.9311875
-152.3076797
-142.2148559
-136.5455387
-154.5251866
-148.1987164
-158.6680203
-164.6656151
-171.3459725
-162.0205252
-188.8250028
-180.2787266
-173.3158379
-195.2803102
-187.5931015
-196.3861452
32.97243561
34.77902158
10.47466757
11.26885207
22.39136483
-10.54513648
0.4075986019
0.0701791907
1.182265086
0.7775585917
-10.66959043
-31.09778024
-32.14496552
-21.38181358
-53.28213618
-42.78317983
-41.2863911
-46.00764109
-44.35443497
-55.31886753
-70.98713355
-73.77153969
-63.61796586
-93.45852123
-83.72430574
-80.53685086
-90.6102047
-87.07717674
-97.21771283
-107.9072604
-112.2062865
-102.9574973
-129.9009608
-121.1913198
-116.5573571
-131.1662951
-126.0548914
-135.0923019
-140.9314115
-146.4576064
-138.3257511
-161.8254544
-154.2897824
-148.5049396
-166.6759771
-160.3420842
-168.1112366
26.772343
28.18413633
7.809493331
8.406269856
17.77207578
-9.995848225
-0.7668739038
-0.9936366858
-0.2367370834
-0.5151304773
-10.1410597
-27.31237022
-28.20520771
-19.13129262
-46.04709191
-37.18032629
-35.92261548
-39.85745573
-38.4905227
-47.73435963
-61.08023271
-63.39121954
-54.78856738
-80.12759102
-71.84183948
-69.19735339
-77.5016854
-74.60698318
-83.2304934
-92.57673406
-96.15566176
-88.23605361
-111.3854054
-103.8754243
-100.0095002
-112.1365826
-107.9139624
-115.7078858
-121.0954759
-125.7427696
-118.6770805
-139.1772575
-132.575638
-127.6959446
-142.9665898
-137.6630491
-144.4787807
21.88220566
23.00168382
5.805742101
6.254333223
14.19026882
-9.365116501
-1.539883555
-1.682000763
-1.197071111
-1.378675371
-9.52995125
-24.02654404
-24.80944371
-17.11374178
-39.95309898
-32.42476453
-31.33973454
-34.71313762
-33.54826711
-41.38810977
-52.74021184
-54.70212995
-47.38214763
-68.97653603
-61.9034182
-59.66163591
-66.66452893
-64.23557951
-71.59274857
-79.666542
-82.7014086
-75.9121607
-95.80629292
-89.33552475
-86.05367089
-96.30431473
-92.74950178
-99.46635329
-104.263699
-108.2288668
-102.1063709
-119.922689
-114.1673868
-109.9952134
-123.0075932
-118.5026523
-124.4511741
17.97646752
18.87445378
4.302839156
4.638648514
11.38769403
-8.664335371
-2.005771235
-2.083173067
-1.806260512
-1.913813065
-8.845241771
-21.10793214
-21.80837388
-15.25947934
-34.70151477
-28.29063265
-27.33574879
-30.2905558
-29.27489244
-35.94749974
-45.57836838
-47.27461255
-41.03191537
-59.46826673
-53.42244246
-51.48822128
-57.50435568
-55.42625541
-61.71380738
-68.61155154
-71.22570472
-65.40497703
-82.49169178
-76.92350899
-74.09545458
-82.89588011
-79.85477384
-85.63702141
-89.78782264
-93.21469994
-87.92408403
-103.3538119
-98.35781436
-94.74707618
-105.974069
-102.0984832
-107.2675779
14.82353978
15.55154749
3.182392254
3.432043494
9.178697653
-7.910079007
-2.237493258
-2.265964344
-2.146969009
-2.198109703
-8.102667285
-18.47323045
-19.10867557
-13.5298012
-30.09504615
-24.63162366
-23.77878114
-26.40871369
-25.50781945
-31.19437832
-39.32933943
-40.81741075
-35.4921182
-51.23098761
-46.06551699
-44.37266079
-49.61992675
-47.81352079
-53.18703434
-59.0107398
-61.29222162
-56.30833941
-70.95762431
-66.1771252
-63.70909339
-71.36543654
-68.72766667
-73.69538249
-77.19011732
-80.18497627
-75.62860646
-88.93914866
-84.62173952
-81.46352672
-91.25769612
-87.88538869
-92.35750345
12.24940553
12.84641982
2.353200488
2.537339604
7.424589194
-7.120290389
-2.293441749
-2.285631992
-2.284291491
-2.293216903
-7.320152175
-16.06708641
-16.64948309
-11.90305136
-25.99766164
-21.34862143
-20.57795104
-22.94804743
-22.13831588
-26.98016329
-33.80339635
-35.12542558
-30.59128555
-43.99868255
-39.59595313
-38.09563466
-42.73194925
-41.14057654
-45.72431542
-50.56875341
-52.58381789
-48.32936408
-60.84655832
-56.7576731
-54.57858773
-61.31920379