/*--------------------------------*- C++ -*----------------------------------*\
| =========                 |                                                 |
| \\      /  F ield         | OpenFOAM: The Open Source CFD Toolbox           |
|  \\    /   O peration     | Version:  v2012                                 |
|   \\  /    A nd           | Website:  www.openfoam.com                      |
|    \\/     M anipulation  |                                                 |
\*---------------------------------------------------------------------------*/
FoamFile
{
    version     2.0;
    format      ascii;
    class       surfaceScalarField;
    location    "1.07";
    object      phi;
}
// * * * * * * * * * * * * * * * * * * * * * * * * * * * * * * * * * * * * * //

dimensions      [0 3 -1 0 0 0 0];
oriented        oriented;


internalField   nonuniform List<scalar> 
6464
(
0.4583171745
0.002348741767
-0.002310868988
0.4584178035
0.00222806544
-0.00210627153
0.4584841808
0.001952090732
-0.001789121263
0.4585053025
0.001618818769
-0.001439195508
0.4584969638
0.001277231716
-0.001121532227
0.4584904793
0.0009460529739
-0.0008719028736
0.4584562985
0.0007656043925
-0.0006269603307
0.4584632289
0.0005137314128
-0.001753337291
0.9186389522
0.0002240685132
-0.0004596834477
-0.001098137506
0.9186948002
-1.174100912e-05
0.9157636035
0.913788259
-0.004521055098
-0.2291225129
0.2290234065
0.004620284205
-0.004676188239
-0.2293067344
0.2293560069
0.004626915748
-0.004229816596
-0.2294230677
0.2295729023
0.004079981928
-0.003541065445
-0.2294690053
0.2296690522
0.003341018543
-0.002776440451
-0.2294534632
0.229652476
0.0025774277
-0.002084268718
-0.2294017158
0.2295699346
0.001916049937
-0.4588779873
-0.00285452779
0.4603083353
0.001424179809
-0.0001240911145
0.4609261613
-0.001551707516
-0.4592503627
-0.001831095268
0.9181029895
0.0005944824454
0.001772575603
-0.001130086739
0.9179937917
0.0002849236173
0.9143485932
0.9140731826
-0.2286134727
-0.0009160193939
0.2284603356
0.0010722884
-0.2278007641
-0.001822657703
0.2274924697
0.002150174544
-0.2286147764
-0.003552434879
0.2280064357
0.004180314229
-0.2305396036
-0.00636763161
0.2307248604
0.006183436129
-0.2304879535
-0.005051101253
0.2308569537
0.004682101075
-0.003388702025
-0.2303200219
0.2310030617
0.002705662261
-0.4629298673
0.0003402855283
0.4617509997
0.00083858201
-0.4600066667
-0.0009954753758
0.4599756212
0.001026520882
-0.0001557838827
0.9197462061
-0.0008799405742
-0.0006074921353
0.00140409503
0.9164339128
0.0006468878128
0.9151058004
0.9147200704
-0.2278405256
-0.01075413315
0.2275597083
0.01104238906
-0.2275898886
-0.01084798715
0.2280002942
0.01047881928
-0.2279460878
-0.008870273385
0.2285861736
0.008289676596
-0.2294992339
-0.00690812593
0.2298073366
0.006646281474
-0.2345423391
-0.001990019294
0.2382957757
-0.00176159608
-0.003456454999
-0.2318985577
0.2319210625
0.003433950261
-0.4617246335
-0.005087229476
0.4629051405
0.003906722555
-0.4606750915
-0.002730864676
0.4616263625
0.001779593762
0.002529043086
0.9195769991
-0.001262381289
-0.00109745482
0.001783552298
0.9171794036
0.0008146051235
0.9160747476
0.9155346756
-0.2264519649
-0.02846772795
0.2259387878
0.02898932263
-0.2303325148
-0.02802567581
0.2316218498
0.02678492925
-0.2325697287
-0.02075990846
0.2347007888
0.01871448651
-0.2407530661
-0.005204756217
0.238366074
0.007677662686
-0.2331322996
-0.007604998744
0.2340633571
0.006723104124
-0.00498685027
-0.2333079729
0.2338459409
0.004448882334
-0.4645185231
-0.005764725591
0.4660448271
0.004238421621
-0.4625076064
-0.003166953758
0.4634040345
0.002270525705
0.003151340664
0.9212394903
-0.002749809512
-0.002064022401
0.001677534706
0.9186532095
0.0007473745129
0.9170049077
0.9162820501
-0.2236757679
-0.04504847883
0.2227100281
0.04601586532
-0.2380285642
-0.04158976332
0.2393559986
0.04028977193
-0.2484534571
-0.02737735429
0.2476168736
0.02829754478
-0.2418385252
-0.0226708497
0.2447992645
0.01982328923
-0.2390429631
-0.01217919576
0.2413338522
0.0099798691
-0.004637216608
-0.2359920667
0.2367973877
0.003844881093
-0.4673415899
-0.005703711371
0.4686156523
0.004429649028
-0.4638942698
-0.003500305485
0.4643229323
0.003071642941
0.00237061082
0.9232128256
-0.002052836007
-0.002291110066
0.00122782234
0.919795998
0.000472201203
0.9177605289
0.9167542513
-0.03330435537
-0.1087028018
0.1081392526
0.0338679046
-0.02688757267
-0.2516035846
0.05073578493
-0.02727068675
0.1271181435
0.1279079156
-0.04048414003
-0.2544491817
0.25831498
0.03667334245
-0.2548375291
-0.02514877537
0.2577847296
0.02232136439
-0.2487287659
-0.01475424619
0.2514272033
0.01216740966
-0.005912594301
-0.2403454087
0.2418570732
0.004443885752
-0.4698524406
-0.004472386443
0.4705272875
0.003797539561
-0.4651833797
-0.002771367718
0.4660134605
0.001941286907
0.0009191638628
0.924471764
-0.0009506552613
-0.001227446967
0.0002746810919
0.9204404808
3.076935456e-05
0.9180044406
0.9167850206
-0.0336178205
-0.1413639023
0.1443355788
0.03064614407
-0.036934078
-0.2699401596
0.2736338443
0.03326844319
-0.2674958615
-0.02362472971
0.2705494464
0.02068222622
-0.2597327521
-0.01263861881
0.262242976
0.0102538082
-0.005402365756
-0.2464270477
0.2480076364
0.003880362556
-0.4715519259
-0.002094118618
0.4723448985
0.001301146008
-0.4666410332
-0.0007771933249
0.4671307296
0.0002874969865
-0.001280367078
0.9248206991
0.0007516418405
0.0001797900774
-0.0010708719
0.9202309856
-0.0005843857492
0.9175179545
0.9162006349
-0.01489656368
-0.1574911503
0.1579844726
0.01440324138
-0.02084302866
-0.2813090484
0.2824995283
0.0196672976
-0.2777527839
-0.01533958717
0.2794970165
0.01369463076
-0.2687048097
-0.008384922431
0.2704739444
0.006735864494
-0.002341504294
-0.2518722379
0.253039507
0.001238874311
-0.4733612961
0.001089482245
0.4741401994
-0.001868385603
-0.4672950651
0.002137230137
0.4673157392
-0.002157904309
-0.003881926454
0.9238138391
0.002695468566
0.002193317886
-0.002683139393
0.9190321985
-0.001376155501
0.9162109706
0.9148244794
0.003677615633
-0.1549411842
0.1538762548
-0.002612686209
-0.002279269441
-0.2828278992
0.2819494439
0.003172444624
-0.2831109874
-0.003468378621
0.2836951211
0.002978152444
-0.2746712057
-0.0006841056018
0.2756326436
-0.0001634182808
0.002167821771
-0.2550488695
0.255491643
-0.002549167061
-0.4739355699
0.005432316864
0.4732661385
-0.004762885469
-0.466973967
0.004460810611
0.4671422403
-0.004629083892
-0.006698724162
0.9214227385
0.004862842195
0.004226982539
-0.004397224264
0.9167306987
-0.002215919622
0.9140296659
0.9126085598
0.01351933521
-0.1447343563
0.1433105097
-0.01209548861
0.01153618523
-0.2780932482
0.2767588998
-0.01017839097
-0.2847875869
0.009252311412
0.2831446802
-0.007518314458
-0.277360228
0.007238449207
0.2773845903
-0.007157751325
0.006648536129
-0.2548880393
0.2545741245
-0.00628390148
-0.4722535219
0.009503292243
0.4709426828
-0.008192453181
-0.4671743338
0.007016887802
0.4660988131
-0.005941367076
-0.009277807578
0.9178721637
0.006633884563
0.00619449783
-0.006040789321
0.9134936804
-0.002974678162
0.9109635548
0.9096338816
0.01678404129
-0.1337294492
0.1323623607
-0.0154169528
0.01924658692
-0.2726276769
0.2717037112
-0.01828728244
-0.2822097839
0.01405958954
0.2844799498
-0.01624140711
-0.2765325996
0.01636695594
0.2759706657
-0.01570866318
0.01056919916
-0.2514032122
0.2499791986
-0.009108286163
-0.4693845408
0.01285264496
-0.01105715692
-0.4649593615
0.009476030777
-0.008099668252
-0.01156322351
0.006987848418
-0.007465015407
-0.003633436679
0.1608439302
0.01769244927
-0.1600479117
-0.008942974808
-0.009545492917
-0.1426081424
-0.03709256864
0.1460828906
0.1572147057
-0.001790753116
-0.1583697887
0.001662561544
0.001283274578
0.1612599687
-0.007372527094
-0.007940075095
0.1458867079
-0.01280406326
-0.1473927801
0.007224918434
0.007085217007
0.1559815201
0.002642481054
0.002268320144
0.1341917466
-0.01659300383
-0.135542723
0.01794398028
0.0150348959
0.1443711473
0.01837484097
0.1326009469
-0.1050900808
0.1037239306
0.03420056652
-0.138916018
-0.03789269091
-0.1237912237
-0.02859987539
0.1255035265
0.04351918393
0.009850163495
-0.04321108141
-0.01015826601
0.02723883632
-0.07291954996
-0.02958513524
0.07526584887
0.01689798841
-0.1566966894
0.2846740267
0.02557961494
-0.2822469673
-0.02800636931
-0.2706289304
-0.04123508373
0.2749346476
0.04933860629
0.0008836493934
-0.04943938993
-0.0007828657548
-0.04623427844
0.00368400921
-0.003039059879
0.04558932911
-0.0008555745369
-0.1558763628
0.2852030899
0.006668202033
-0.2863082181
-0.005563001598
-0.02230846903
0.2861395645
0.0394613699
-0.004226006122
-0.03982684273
0.004591478953
-0.04272911653
-0.00165158568
0.001201512892
0.04317918932
-0.01137675252
-0.146161667
0.2761278245
-0.008500618128
-0.2787888389
0.01116381557
-0.0005593149355
0.2834833552
0.07071936435
-0.01090947593
-0.07123944248
0.01142955406
-0.07462709802
-0.01004719302
0.07413340277
0.005341878743
0.005199009523
0.007957275497
0.03054916054
-0.007719379786
-0.03078705625
0.0639585164
-0.01112361138
-0.06440052532
0.0115656203
-0.06722055945
-0.01142709106
0.01181650775
0.06683114276
0.004259197291
-0.04663009848
-0.003863377254
0.009432556604
-0.009640224858
0.04372685218
-0.1551291166
0.02594237145
0.157227385
-0.01375531338
-0.01428532647
-0.08499846239
-0.009008507864
0.08569154722
0.01774797964
0.04506854938
0.00445110532
-0.04526045741
-0.001467441048
-0.04226351967
0.001001844181
0.0002175387327
-5.853923661e-05
0.0491796068
-0.07998478015
0.002526463225
-0.00245725576
0.07991557269
-0.04780056923
0.04760093207
0.0004171758968
0.04207924986
-0.00169894977
-0.04184774114
0.04471550385
0.004037054745
0.0009012572556
-0.04781817709
0.003263169297
-0.08015338815
-0.00309456129
-0.009862672567
-0.07515235866
0.005213965959
0.005173967244
-0.004091372663
0.004280757608
0.03927198496
-0.1518584359
-0.009664978758
0.1503715426
0.005695308555
0.005456563484
-0.07846169382
0.004076502132
0.07791087884
-0.007617059811
0.0744075747
-0.009381650667
-0.0748885966
0.04229405376
-0.001866389581
0.004067272995
-0.007347101978
-0.03982981015
-0.03957806081
-0.008430056158
-0.1532297996
0.005021009481
0.004780410319
-0.01134940781
-0.06769313573
0.01182198408
-0.01113709633
0.01155276713
0.07030369355
-0.02892189256
-0.00730467727
0.006811716031
-0.02919464311
0.008230026042
0.01136195159
-0.007327850974
0.03213919863
0.0139010659
-0.04580950624
-0.0002307582906
0.02128184289
-0.03734230735
-0.02347230302
0.03953276747
0.04508262552
-0.007677514487
-0.03722758088
-0.0001775301494
-0.01530888011
-0.135013573
0.2672580774
-0.0177149448
-0.2691403562
0.01960949612
0.01402598095
0.2736418936
0.03780897341
-0.007241223008
-0.03035639035
-0.0002113600505
0.06510237012
-0.01310049981
-0.06571617686
0.006889005235
0.006825301308
-0.03351678965
-0.006583013842
0.00668186666
0.03341793683
-0.07277520278
0.07469112592
0.02532291318
-0.01016756532
0.01904933319
-0.08403006676
0.02840634356
-0.1525181939
-0.0152981178
-0.01571914848
-0.006631627924
-0.0336703209
0.006785159178
-0.03570588782
-0.006833132894
0.007292423384
0.03524659733
-0.1399413611
-0.01582003588
0.01730727614
0.1384541208
-0.07076657679
0.07027310421
-0.01064362374
0.06727936355
-0.01090209151
-0.06772667985
0.07394718022
-0.009586798544
-0.01051144364
-0.07116460908
-0.01537893266
-0.1414345674
0.016872139
0.02326884671
-0.05198811774
-0.02194317465
0.05066244568
0.02731462739
-0.07066040017
-0.02957377718
0.04276865211
-0.1237323979
-0.02242791054
-0.02356047227
0.06293991478
0.06401221379
-0.05585782287
0.05485655257
0.02427011701
0.03316557084
-0.001026372209
-0.08155485616
0.02409444676
0.08341221966
-0.01283197524
-0.01311983502
-0.04376849197
0.05991523456
0.01701882824
-0.03706120375
0.0388213866
0.01952166004
0.01582536676
-0.04569279282
0.02524839056
-0.07961213056
-0.01346485947
-0.01372625669
-0.04157253552
0.002676929418
-0.002658291044
0.04155389714
0.002358385247
-0.04189681602
-0.002034104747
-0.04019274816
-0.003198014508
0.003118822015
0.04027194065
-0.0034365377
-0.04051151671
0.003755306244
-0.006169168152
0.03659220982
-0.03562188755
0.005198845883
-0.009671548603
0.02182400326
0.03293017086
-0.07264057231
-0.01065644813
0.01106834273
0.07222867771
-0.03846972303
0.03666566543
-0.007867491008
0.03667103428
-0.006375275172
-0.03646492726
-0.03398144637
0.03800459297
-0.003789498614
-0.0002336479848
-0.006897866301
-0.03924937121
-0.01050771397
-0.07309516299
0.005514956421
0.005447348227
0.06305538583
-0.01273170162
-0.06357632802
0.01325264381
-0.01304689589
0.06453615161
0.006814762076
0.006798352336
0.01840256031
0.0282341713
-0.008827758202
-0.04467466216
0.006482219994
-0.006224712244
0.04441715441
0.006926903323
-0.04473742275
-0.006864142728
-0.0400436107
-0.0009294451882
0.0008267458075
0.04014631008
-0.001288923552
-0.04023639965
0.001481712503
0.04085002195
-0.0009951529701
-0.04114379253
0.08204588202
-8.115853081e-05
-0.08237314247
0.0004084189839
-0.08319927455
0.001919580073
-0.001686110766
0.08296580525
0.08068502183
-0.002384295862
-0.08104558182
0.002744855859
-0.0006915292376
0.001015327112
0.08172208415
0.04082690003
-0.000906323263
0.04228439209
0.00251964721
-0.04244565405
0.08372761397
0.005710109691
-0.08380173894
-0.005635984727
-0.08378434924
0.008231044907
-0.008288480885
0.08384178522
0.00263637535
-0.08339658031
-0.002439069598
0.004917909884
-0.004833631237
0.08364333533
0.04239594537
0.002565376137
-0.03844427253
-0.004616840937
0.004806052755
0.03825506071
-0.0018531809
-0.03204893706
-7.93284052e-05
-0.004646704709
-0.03867474324
0.004877175423
0.006160638222
0.03683005069
-0.006319654634
0.006930913351
0.03518110731
-0.006609306861
-0.0355027138
0.06896609564
-0.01127093311
-0.06941172615
0.01171656362
-0.03620768168
0.00743270721
0.005470203009
0.03728264504
0.01864738736
-0.0002448270472
-0.01262686402
0.01300310176
0.03897637505
-0.0406885688
0.00171219375
0.03442803453
-0.006950061002
-0.03446100838
0.006983034857
-0.03193081093
-0.006908179539
0.00652933376
0.03230965671
-0.006734946067
-0.01023364121
0.009519078419
0.007449508866
-0.007610721605
-0.03281341459
0.008493325265
-0.02988378103
-0.007598072297
0.00628591755
0.03119593578
0.0307362179
-0.0473008375
-0.02883602617
0.02224547873
0.02315516704
0.02071529136
-0.03540160585
-0.02265599285
0.03117659685
-0.05921038054
-0.03314795815
0.06118174185
-0.05220165422
0.03339310485
0.02418392431
0.02536084297
-0.04651261776
0.003988166455
-0.005931280684
0.04845573199
-0.0421486303
0.0413670473
0.0009176372545
-0.0001360542481
0.04018767091
0.0006257575563
-0.04045691694
-0.0003565115272
0.04352595031
0.002779335309
-0.04417599033
-0.002129295283
-0.04092350664
-0.003667300684
0.003819923254
0.04077088407
-0.04303884465
0.003526484469
0.04342890808
-0.0039165479
0.03824537153
0.006981276944
-0.006023852517
-0.03920279596
-0.03783479159
0.03794326741
2.856703434e-05
-0.0001370428512
0.04360047734
-0.00356247829
-0.03980695757
-0.0002310414731
0.04333895537
-0.002951068892
-0.04368442712
0.003296540641
-0.04491281912
0.006215827872
-0.007134713808
0.04583170506
-0.04096929747
-0.02867726419
0.05786181331
0.01178474835
0.001913447491
-0.04388377553
-0.0001783022622
0.04395517637
0.006871822724
-0.04390009577
0.08288777265
0.01284426781
-0.0824991454
-0.01323289505
-0.08077498062
0.01564613722
-0.01631293734
0.08144178075
0.00912398279
-0.08366465344
-0.009243678591
0.01189037376
-0.01221487088
0.08321226977
0.04390484317
0.006532553201
-0.04102709496
-0.00108969587
0.0007086723695
0.04140811846
-0.03745226944
0.03752362493
0.0001981134268
-0.0002694689181
0.0001638619708
-0.03771000859
-0.0002886449669
0.04569608391
-0.002712859117
-0.04778298239
0.004799757596
0.003681929403
0.03891604118
-0.004352599058
0.002566660356
0.04215190823
-0.003503079662
-0.04121548893
0.03931071527
-0.004216356426
-0.03927559247
0.004181233623
0.07636619485
0.00453608332
-0.008525633652
-0.07702334922
-0.007122301216
0.07550243508
-0.07594518292
0.007565049057
-0.07727087727
-0.006234674602
0.006673421728
0.07683213015
0.04023941792
-0.003170075332
-0.04050588029
0.07903062834
-0.004344158922
-0.07948951523
0.004803045812
-0.002911924502
0.003282529221
0.08031441711
-0.00587228022
-0.07772852732
0.006329930272
-0.004760143603
0.005178844725
0.07861192722
0.04018958762
-0.003148184209
-0.01130405759
0.01168775148
0.06858240175
0.03490770439
-0.006559729976
0.06697385879
0.006631413337
-0.01276340947
-0.06747349058
-0.03702000742
-0.009228711531
0.01846651035
0.0277822086
-0.0432360708
0.02055535834
-0.02096635346
0.04364706592
-0.03313480398
0.04371944885
0.02839173018
0.02091788486
-0.04238747198
-0.02176648367
-0.02875251627
-0.002252933894
0.03119445624
-0.0001890060783
-0.006103565051
-0.02242159369
-0.0002273575235
0.03356335759
-0.007256907698
-0.03372148246
0.007415032571
-0.007445943189
0.007961108135
0.03391286958
0.01918673203
-0.01891429177
-0.0002724402528
0.01194237901
-0.01386102658
0.002815265527
-0.01172575555
0.01079266878
0.002420139408
0.006526498227
-0.03119891788
0.03254194562
-0.007869525962
0.009191045783
0.03318215038
-0.008119577978
-0.03425361818
0.03434514245
-0.006744280327
-0.03467350757
0.007072645439
-0.04053595459
0.01984321935
-0.02071612349
0.02742082784
-0.0001782061258
0.03309707137
-0.03215180276
-0.0009452686084
0.04717682913
0.01348854506
-0.04609723845
-0.01456813574
-0.04368791471
0.01443682078
-0.01524204383
0.04449313776
0.04884779251
0.01224997225
-0.04676944061
-0.01432832414
0.01260485911
-0.01288009049
0.04745206052
0.01471097814
-0.04298250383
-0.01541638902
-0.04027894106
0.01575978288
-0.01667654995
0.04119570813
-0.04336272057
0.04467957895
0.01923849996
-0.03869373654
0.03778563697
0.001230532074
-0.0003224324992
0.02691048439
-0.02681234527
-9.813912292e-05
0.004527040991
-0.04406570966
-0.006973949083
0.002588515539
-0.001981444815
0.04291887958
0.03986010745
0.0005554300514
-0.000227866592
0.0006803683462
-0.03919876233
-0.0001753425585
0.0003989107944
-0.03821809657
0.03962728974
-0.001808103964
0.001048241691
-0.002184935835
-0.0419021505
-0.003422168139
-0.0407837919
0.0032824534
0.03796152438
-0.0365540548
-0.0003592278871
-0.03457056148
0.03553602222
-0.0005665499468
0.03602524516
-0.03558745005
0.006543481837
0.04188623689
-0.0003982280402
-0.002165401232
-0.03225618587
-0.0001489743773
-0.003509673359
0.004403866934
0.04244476179
0.05156897406
-0.007745470688
-0.000223026032
-0.003601533967
-0.03678196384
-0.03772568152
-0.007024256201
0.007552821862
0.03719711586
-0.005456724466
-0.03625725278
0.003988295723
0.03797815966
-0.0060811455
-0.03735373863
0.03628170702
-0.005963166192
-0.03639438678
0.00607584596
-0.03731197455
-0.005843367017
0.006284872058
0.03687046951
0.03403886846
-0.006922419249
-0.03322001426
0.03744885886
-0.005855481535
-0.03780935807
0.006215980745
-0.03859639217
-0.005357080404
0.005225323717
0.03872814885
-0.00579705042
-0.03755951769
0.006044593561
-0.0056526395
0.005658365989
0.03744313237
0.03613299459
-0.004347060024
0.007197558897
0.03193583194
-0.007471309225
-0.03166208161
0.03252811388
-0.007052005597
-0.03277651476
0.007300406482
-0.007296779732
0.007637975895
0.03322216142
-0.002326274186
-0.04758117046
0.04562849261
0.004278952044
-0.008552032259
0.009001761763
-0.04141902697
0.006333973861
-0.04430502017
-0.006941772807
0.02864573673
-0.03696910778
-0.0002286612133
-0.04378329165
0.04158433398
-0.0001273165195
-3.152745843e-05
0.04258518738
0.006431644902
-0.04535978243
-0.003657049853
0.01053374916
-0.01134843869
0.04966248204
0.005247090077
-0.04885452454
-0.0001758571838
0.009505332527
-0.008566370378
0.04164622523
-0.04388916532
0.008114520403
-0.008374457294
0.04414910222
-0.0441954895
0.04455626454
0.009144557494
0.006169447215
-0.0485035276
-0.03691325989
0.03720435437
4.157317642e-05
-0.0003326676571
0.000271221686
-0.03729243331
-0.0004310578142
-0.0009697881505
-0.04068343898
0.0006261321713
-0.003216722487
0.005814857244
0.04309794915
0.02599466924
-0.02566535422
-0.0003293150199
-0.000555403067
-0.03627995579
-7.790102574e-05
0.03974297265
-0.005903244801
-0.04048116206
0.006641434218
-0.0383831125
-0.00517381041
0.004380711699
0.03917621121
-0.005190184694
-0.03819253413
0.00478632666
-0.006287558902
0.007455624754
0.03857490679
0.02298566547
-0.02261253148
-0.0003731339823
0.04212647046
-0.04074255594
0.001182745844
0.001962840191
0.03774433437
-0.006606391795
-0.03907679163
0.00730007093
-0.00428435383
0.003655749614
0.04275507467
-0.02043531925
-0.0002808042391
-0.03599126947
-0.006531948147
0.006276262909
0.03624695471
-0.02701456698
0.03010671213
-0.002964577972
-0.0001275671771
-0.009544513769
-0.04208972336
-0.005932865455
-0.02092389895
-0.0001578025786
-0.006930732597
-0.03627059053
0.007210053655
-0.02958332596
-0.0002391225622
0.03109507183
-0.1382584076
0.03912070114
-0.266415009
-0.04332470306
-0.2534639239
-0.04431241401
0.2573257736
-0.02484049404
0.02769903964
-0.002617677512
-0.0002408680905
-0.01934811188
-0.00530401659
-0.0001883655706
0.02077640829
0.265744279
-0.0190405205
-0.0003075913759
0.06689035638
-0.01103808389
-0.0207455101
-0.1298381964
0.01112253529
-0.01662461799
-0.1298860516
0.017946334
0.02070706697
-0.01973207426
-0.01964907774
0.01867408503
-0.01896904204
-0.012296511
0.01702828325
0.01423726979
-0.009197031224
0.0105159537
-0.01155256369
0.02742616716
-0.03054870557
-0.03756603038
0.02203440077
-0.02752535317
-0.02304446612
0.02853541853
-0.02257740638
0.02114457101
0.02213990234
-0.130213479
0.03346752215
-0.03582447005
0.1325704269
-0.126803831
0.1289033682
0.04066911492
0.02535471867
-0.07081529405
0.01084877072
-0.04226443953
-0.01115890663
0.04257457544
-0.04561192975
0.04608430682
0.01213248204
0.04779055647
0.01120450404
-0.04674508826
0.03137987945
-0.006929417664
-0.03159728786
0.007146826073
-0.00698905155
0.007385660223
0.0321315052
0.03109962585
-0.008392505441
0.00655326
0.06646684279
-0.01262925784
0.06514666675
-0.01259904279
-0.06564812377
0.06558236186
-0.01133341162
-0.06602223853
0.01177328829
0.04820261143
0.01012169421
0.007828049062
-0.04559189366
0.008370740475
-0.04382760032
-0.008432305479
-0.02579456253
0.005303411671
0.007719920357
-0.02884880924
-0.008065754219
0.03468081567
-0.02667738362
-0.0002835116977
0.01711627919
-0.006842718106
0.0069772153
-0.06091487198
0.01597210138
-0.0008667356407
-0.03320248186
-0.003785713393
-0.000239385632
-0.03237497177
0.03257259321
-0.007438844449
0.00469829658
-0.03055079244
-0.006522475905
-0.02538892743
-0.0002691663389
-0.03333271439
0.0333617113
-0.006937176444
0.03416478842
-0.006889620695
-0.03422522872
0.03310978149
-0.006549633148
-0.03321524388
0.006655095545
0.01655075642
-0.07999645369
-0.01732928335
-0.07707419067
0.01900237823
-0.02007886698
0.07815067942
-0.08010595157
0.08163327437
0.02256712396
-0.006651179067
0.006971739086
0.03402458244
0.03324744171
-0.007663363631
-0.007235288161
-0.03370814783
-0.06551099426
0.02576542065
-0.02699054193
0.06673611554
-0.06180287744
0.06299846124
0.02998101305
0.01923309334
-0.03557900573
0.01493227837
0.04573309465
-0.0007501384634
-0.04620726529
0.04587559443
0.01526394923
-0.04522963662
0.01604119958
-0.0308439424
0.03111185631
-0.0002679139118
0.01029327982
-0.0408274644
-0.0003097578219
0.007154598771
-0.03564136965
-0.007135116671
0.03317166774
-0.03205085357
0.006033784597
0.002939267223
0.0354312464
0.02195501268
-0.0001310094256
-0.00634452096
0.028368714
-6.91803562e-05
0.03398803355
-0.007402383643
-0.006008073796
0.03554786134
-0.0356825016
0.006142714051
-0.005915360822
0.006123981609
0.03607308623
0.03759863248
-0.006644729017
-0.007552076352
0.04590631016
-0.0003496408431
-0.0395625382
0.03863768187
-0.006627220021
-0.03858801168
-0.004764025135
-0.007291610244
0.005739438652
0.0297863429
-0.03181278784
0.03215451275
-0.007633335159
-0.008067952831
-0.03308990986
0.03511190545
-0.001786680307
-0.0002353152856
-0.03044453083
-0.002327074823
-0.0003183042027
-0.03672162437
-0.00371956821
0.002363681398
-0.03470079855
-0.004384507217
-0.02953050681
-0.000154748856
-0.02358602053
-0.006567708215
-0.0002908020873
-0.02338750564
-0.000198514891
-0.004262039139
0.004415040108
0.03915771431
0.04235350705
-0.004485952644
0.03931656404
-0.005875108179
-0.04004784765
0.0247059142
-0.0003190881869
-0.03171114047
0.03903185703
-0.007070368279
-0.0002503482797
-0.003696149176
-0.0003159516451
0.02989769836
-0.02867238119
-0.004883675887
0.03216369673
0.03353927937
-0.006113298547
0.00776595171
-0.003602546001
0.005355672712
-0.006604469822
0.01405397869
0.001078466493
0.00668748522
0.007298264398
-0.03285695794
-0.007254721042
0.03921957643
-0.0316277843
-0.0002935277331
0.02655922918
-0.02010730619
-0.0001660054369
-0.004897433371
-0.0001711217411
-0.006558455537
-0.03177832261
0.01871215537
-0.01947778629
0.03254395352
-0.02972416041
0.03065652881
0.02110203236
0.02664377044
-0.03235240726
-0.04707803494
0.04319345898
0.004076491132
-0.0001919151658
-0.05518928418
0.008442924276
-0.0003316750399
-0.04191129366
0.04151671704
0.0004820242537
-8.744763914e-05
0.001469578361
-0.0001874130432
0.0006641672258
0.04090018228
-0.0001973022053
-0.04630731309
0.04535661749
0.001614862829
-0.0474615174
0.002071841564
-0.044514646
0.04381807727
0.00132232629
-0.0005628086133
0.001404780095
-0.0001195432768
-6.4793944e-05
0.03847305412
-0.0004649927642
-0.04350433273
0.0443392336
-0.0008996948089
-0.04291594438
-0.0005598213195
-0.04519688569
0.04524910799
-0.003614700595
0.000957912134
-0.001815564222
-0.0003759913237
0.009411527248
0.04843181916
1.84669012e-05
-0.04726337575
0.04904481943
0.007630083575
-0.04428241987
0.008803792467
-0.04867532613
0.003127256218
-0.00477488256
0.005144375861
-0.0002268389344
0.0001227217104
0.03750865807
-0.0001077548524
-0.04143841056
0.04183454459
-0.0002734123231
-0.04102958023
-0.0002107168982
-0.04237403534
-0.0003780470729
-0.0002618637506
-0.0002776269944
-0.0004632142702
-0.04159900111
0.04272748953
-0.0007448778479
-0.0003836105755
4.966725943e-05
-0.0001319513248
-0.0461927669
0.05391225498
-0.007396596559
-0.0003228915217
-0.00330611241
-0.0001591649604
-0.01746596063
-0.0002332137698
0.01887420143
-0.000407691077
-0.007495980276
-0.0003072019115
-0.008562580919
-0.0003496814408
0.03617874501
-0.05645101062
-0.0006940878546
0.03772585156
-0.001547106545
0.0204580455
0.04450144357
-0.0007819947157
-0.03812595668
0.0567555715
0.02587182875
0.02603903619
-0.03577326269
-0.03585594589
0.03650054606
-0.0006446001696
0.0214547483
-0.000555122683
-0.001748177012
-0.0002598486015
-0.02203229195
-0.0003893017453
-0.005945319796
-0.0002568756082
-0.02907748191
-0.007418630328
-0.008959916658
-0.01092569342
-0.03267550643
-0.007595619085
-0.0002648290812
-0.0002640868463
-0.005063081481
-0.0001915971014
-0.04450073244
0.06123660965
0.01636119416
-0.01388809049
0.01526295248
-0.0003067985998
-0.01207516744
-0.04672796067
0.0120336875
0.04408999844
-0.04587188606
0.06087353061
-0.04892887355
0.008607140129
-0.0005057309777
0.01295423289
-0.0006464967795
0.002960868165
0.0350000377
-0.0001752688901
-0.04008098611
0.03886507419
0.004176780078
-0.041084782
0.002234327971
-0.0389992306
0.01072043082
-0.008396110344
0.008261953934
-0.0002084179164
0.0005097027062
0.03951049838
-0.0001600936331
-0.04314560612
0.04248821127
0.001167097556
0.001227901203
-0.04185108487
0.001446671215
-0.0005720686869
0.001209195084
-0.0002603326392
-0.001247812248
9.188765479e-05
0.04078321433
-0.04010973279
-0.002263957616
0.04112587816
-0.03919203549
-0.002725801263
-0.03601785252
-0.000268949368
-0.0002672529167
-0.0003899426408
0.02392397446
-0.04985725361
-0.0096541709
0.02417437384
-0.0002503993762
0.03116412417
-0.0004462684929
-0.007702821417
-0.000268195303
-0.02506504366
-0.007062635434
-0.0001285067789
-0.02469859012
-0.0003664535333
-0.009778751998
0.03664913593
-0.04330375406
0.04027636377
-0.006751361711
-0.005800116757
-0.03884450977
-0.003949059687
0.007195463337
-0.005763609331
0.04382444522
-0.03600321392
-0.0002684094426
-0.009360518385
0.02113411004
-0.007804772179
0.02143694658
-0.0003028365334
-0.02765961685
0.03080749222
-0.0002086081463
-0.0001888856735
0.002990414713
-0.005259633942
0.03165203466
-0.0002929059516
-0.0003628835315
-0.03675241779
-0.006636539015
0.03646653756
0.009345996047
-0.007460731971
0.003936107254
0.04342629791
-0.001733912557
-0.04539448061
0.04398057927
0.005350008596
0.005562433451
-0.04667796202
-0.04317132955
0.007890671447
-0.005416689277
0.006225938993
-0.003409418338
-0.03982177128
-0.0005567548334
2.865014186e-05
-0.003234707054
-0.04805918277
0.005934107402
0.0412626078
-0.04408362961
-0.0004136852427
0.03779457125
-0.0001890132987
0.04978421204
-0.0002591201286
0.006062646525
-0.0003620640951
0.007665945793
-0.05883601358
0.01024577068
-0.0002642816487
0.02928652104
-5.832017378e-05
0.02966407835
-0.0003775573077
0.01247429
0.0001620313545
0.03732105107
-0.0002787280542
-0.03989450769
0.04028564059
-0.0002291015446
-0.03936804872
-0.0004848857992
-0.04060271555
-0.0001556429914
-0.0001302954207
-0.0001867795421
-0.0001016776655
-0.007558686847
0.03377658254
-0.0002232264577
-0.03795316368
0.03764141869
-0.007246941862
-0.00970626291
-0.03862574494
-0.001297706839
0.002241960152
-0.003226286402
-0.0002614130998
-0.03914169847
0.04702770437
-0.007785217214
-0.0001007886836
-0.003871057785
-0.0001587352335
-0.006336615373
-0.0002082259684
-0.03395249041
-0.00708492351
-0.00953731753
0.0005022034146
-0.03932000804
-0.001924751317
0.03517175788
-0.03445367547
-0.000215878992
0.03669479903
-0.0003402953095
0.03352862214
-0.0004016577819
-0.0006252565351
-0.0002997967949
-0.002200930208
0.009914845467
-0.04145975793
-0.007531879164
0.03521450603
-0.0486871662
0.03594686874
0.04065607013
-0.0003055214878
-0.007811728841
-0.0002193672254
-0.006516412103
-0.004008302515
0.03433572845
-0.0002207138053
-0.03488597709
0.03644344563
-0.005565771055
-0.03260127736
-0.005249277704
-0.03616539105
-0.008187720193
0.03480859747
0.007484145687
-0.007206091103
-0.0002698492265
-0.03508497797
0.04280898331
-0.007490773375
-0.0002332319674
-0.003971496842
-0.0003059889115
-0.03141747854