/*--------------------------------*- C++ -*----------------------------------*\
| =========                 |                                                 |
| \\      /  F ield         | OpenFOAM: The Open Source CFD Toolbox           |
|  \\    /   O peration     | Version:  v2012                                 |
|   \\  /    A nd           | Website:  www.openfoam.com                      |
|    \\/     M anipulation  |                                                 |
\*---------------------------------------------------------------------------*/
FoamFile
{
    version     2.0;
    format      ascii;
    class       surfaceVectorField;
    location    "1.83";
    object      Uf;
}
// * * * * * * * * * * * * * * * * * * * * * * * * * * * * * * * * * * * * * //

dimensions      [0 1 -1 0 0 0 0];


internalField   nonuniform List<vector> 
5999
(
(99.9986741 0.005497618635 -1.997009877e-21)
(99.9948514 0.004899446393 5.918586568e-21)
(99.9979461 0.01338661484 -1.970781965e-21)
(99.99261526 0.01679759606 2.001068622e-21)
(99.99653605 0.02662691074 -3.929850749e-21)
(99.98760858 0.03609369853 1.187003584e-20)
(99.99838072 0.03063348091 1.215897589e-21)
(99.97878291 0.06748974646 -7.799259592e-21)
(99.99073796 0.06797414565 -1.306012578e-21)
(99.99735027 0.05575116473 1.89157453e-21)
(99.99913671 0.03346158001 9.348862748e-22)
(99.98917482 0.0936419393 1.879353138e-21)
(99.99751484 0.0533228365 9.181428908e-22)
(99.99816107 0.04174547244 -9.487608426e-22)
(99.99691913 0.06783776152 9.181053912e-22)
(99.9832128 0.1525158303 1.826656533e-21)
(99.99662927 0.08578945252 0)
(99.99643152 0.1055510791 -3.337815004e-21)
(99.97800588 0.2331060706 -3.337797632e-21)
(99.99592413 0.1290766648 -8.668208409e-22)
(99.99536037 0.1561814324 2.908439986e-21)
(99.97139378 0.34140231 3.165130792e-21)
(99.99483483 0.1868075453 3.901230541e-22)
(99.99441209 0.2205037928 -2.560966534e-21)
(99.96637084 0.4758292703 3.673284953e-22)
(99.99415006 0.2564899583 -2.596876429e-21)
(99.99413217 0.2935385823 3.122600783e-22)
(99.96612115 0.6230634364 -1.715705037e-21)
(99.9944406 0.3297876805 2.319395173e-21)
(99.99510842 0.363156411 1.956284324e-21)
(99.97372039 0.7556540377 -8.562353775e-22)
(99.9961878 0.3913371854 0)
(99.98776579 0.0151259735 9.880561186e-21)
(99.9806354 0.007816609313 2.598541781e-22)
(99.98063443 0.03721324681 1.577348327e-20)
(99.97191233 0.02745966275 -1.38217011e-20)
(99.96732648 0.07409745887 8.195216558e-21)
(99.95309114 0.06069784279 -2.142217939e-20)
(99.96033029 0.1199734499 -1.395739206e-21)
(99.92128441 0.1159230148 4.122503352e-20)
(99.93265164 0.1512158686 -9.0778937e-21)
(99.94088425 0.1543182245 -1.947750921e-21)
(99.95485027 0.153603314 3.831456887e-21)
(99.97235504 0.1088861153 1.905258133e-21)
(99.95624744 0.1828091195 1.858321392e-21)
(99.94194751 0.1995223508 1.892493565e-21)
(99.90250963 0.263526747 -3.825808617e-21)
(99.92741549 0.2569684804 -2.115006304e-23)
(99.93241892 0.2968057616 1.826943204e-21)
(99.91026913 0.3277856243 -1.79193291e-23)
(99.85292749 0.4283766974 0)
(99.90118652 0.3848442396 0)
(99.8745992 0.4407147926 -2.274540728e-21)
(99.9072219 0.4450387759 -4.469452596e-21)
(99.89523494 0.4688489908 -5.93263675e-23)
(99.86558819 0.5419515009 -1.005280464e-20)
(99.88674156 0.5133025531 -3.455736001e-21)
(99.85886511 0.6952688578 2.889919091e-23)
(99.87797692 0.656468076 -2.26709917e-21)
(99.82081193 0.8040523836 -1.239174728e-20)
(99.85152556 0.7563151753 -3.020201121e-21)
(99.8286348 0.9867827993 -5.6218119e-21)
(99.85534093 0.9235306245 -5.304338456e-21)
(99.78508399 1.137893856 5.709998538e-22)
(99.82489898 1.061798995 -6.741298294e-21)
(99.81902582 1.320348557 -4.780280453e-23)
(99.85349457 1.222626897 -4.369443043e-21)
(99.77700766 1.516362747 2.20971393e-21)
(99.82338098 1.402000107 -3.277347431e-21)
(99.84853295 1.64006602 -5.284007079e-21)
(99.8861583 1.499325253 -7.511672763e-21)
(99.81891439 1.870612786 -4.017466267e-21)
(99.86476184 1.711765366 -4.433247323e-21)
(99.96741543 0.01897588277 -2.372163488e-20)
(99.96272214 0.006982114416 -1.185600253e-20)
(99.94779806 0.0484435036 -5.135600943e-20)
(99.94416505 0.02640713836 1.105128673e-20)
(99.91206116 0.09983013654 1.071280564e-20)
(99.90486736 0.06412824803 -4.347353947e-20)
(99.87411221 0.17764205 2.624487648e-20)
(99.84067223 0.1299166164 4.726033341e-20)
(99.83151913 0.1944839608 -4.205188053e-20)
(99.8923799 0.191448003 -7.78545331e-21)
(99.83384451 0.2158145936 -5.781414156e-20)
(99.84851183 0.2402601911 -3.903765755e-21)
(99.82976332 0.3315939529 -7.627869649e-21)
(99.80984853 0.3184052493 -3.802079776e-21)
(99.73989859 0.3831467775 2.666554737e-20)
(99.76458572 0.4146527415 7.505141942e-21)
(99.74462041 0.5449904072 -6.603207349e-21)
(99.71196867 0.5328482336 4.866466771e-21)
(99.60958592 0.6405298365 -3.75902534e-20)
(99.68009277 0.6538220127 2.639156155e-21)
(99.62819798 0.7006986131 -1.636292892e-20)
(99.66343199 0.8181308886 -6.758464712e-21)
(99.63745526 0.8151880608 0)
(99.57556138 0.8988920847 6.993330455e-21)
(99.60716127 0.9091107077 -6.73449062e-21)
(99.55007122 1.236688298 3.290947395e-21)
(99.51109912 1.242919954 1.289960898e-20)
(99.43075584 1.368533202 6.392283197e-21)
(99.47963902 1.37047838 1.602567533e-20)
(99.45230076 1.782616432 -1.460151793e-20)
(99.39579502 1.808452202 -5.604175371e-21)
(99.30269221 1.988921481 -2.962234445e-21)
(99.37459298 1.969009095 -1.462967795e-20)
(99.4250077 2.421315802 -9.091470186e-21)
(99.35020386 2.485331822 0)
(99.26653554 2.723262238 9.847514434e-21)
(99.36020184 2.658774725 0)
(99.53271046 3.039032612 3.707698793e-24)
(99.45053982 3.164515024 8.110123893e-22)
(99.40018304 3.450790032 7.718029602e-21)
(99.50261353 3.312731414 -8.374702706e-20)
(99.94428904 0.01354338689 2.381747111e-20)
(99.94996534 0.001016273935 -3.973668341e-21)
(99.90722609 0.04002800496 2.003805853e-20)
(99.91922743 0.009191009808 2.781646921e-20)
(99.84069845 0.09355999898 -7.964835826e-21)
(99.85447316 0.03880712168 -3.939582174e-21)
(99.75503753 0.1947547413 0)
(99.74862808 0.09868143118 6.071848775e-21)
(99.7060376 0.1884269415 1.847005925e-20)
(99.76731574 0.2269872673 -5.398613064e-20)
(99.69463281 0.2224798584 1.388651873e-20)
(99.69850916 0.2721273368 0)
(99.63595524 0.4146483725 2.546730159e-22)
(99.62291067 0.3699077354 -3.066852251e-20)
(99.52113774 0.4232865795 -3.064789094e-20)
(99.53281082 0.4927381827 6.217053402e-20)
(99.45224137 0.7087155682 -9.24007978e-20)
(99.42692453 0.6455177108 3.359703756e-20)
(99.27758674 0.7412848412 -6.179156122e-20)
(99.33967023 0.8275094161 -3.075683134e-20)
(99.26868582 0.8411001085 -5.052322378e-20)
(99.25511697 1.091799577 7.295437511e-21)
(99.22839859 1.053661603 1.449855466e-20)
(99.13119474 1.13644929 3.665579972e-20)
(99.16023678 1.186155351 7.234771412e-21)
(98.98535553 1.707439991 3.942485628e-20)
(98.9389064 1.664293026 6.211626188e-20)
(98.808807 1.797462108 2.105415361e-19)
(98.86269079 1.854392299 6.848991321e-20)
(98.73567771 2.558800866 1.989075878e-19)
(98.65579687 2.522140529 9.607896437e-20)
(98.50522533 2.727338181 1.492054847e-19)
(98.60044991 2.777530579 -9.833732157e-20)
(98.63140004 3.639756331 3.001268439e-19)
(98.50566585 3.640072646 3.46044175e-19)
(98.35692493 3.947253078 3.17846264e-19)
(98.5107441 3.950217671 -3.642795814e-19)
(98.85536249 4.786570634 -1.927441284e-19)
(98.68958634 4.878067883 2.916857798e-19)
(98.61238821 5.273784934 5.026241886e-19)
(98.81204593 5.160716597 2.602341993e-19)
(99.93009623 -0.003638514744 0)
(99.95341497 -0.01078802498 0)
(99.8729891 0.006687617281 4.014128653e-21)
(99.9095515 -0.02645500973 0)
(99.77037948 0.04548163912 1.017323753e-20)
(99.81799577 -0.01997637586 -3.374912134e-21)
(99.62677577 0.1516213059 1.719715101e-20)
(99.66514947 0.01671802891 2.243121512e-20)
(99.58023402 0.1170165737 -6.750316039e-21)
(99.62385557 0.2010609927 2.391035993e-20)
(99.5491531 0.1617424506 1.935285219e-21)
(99.53083744 0.23135773 -9.686947927e-21)
(99.4003264 0.406285929 0)
(99.40738736 0.3333887349 -2.004394818e-20)
(99.27818699 0.3613230832 -1.64491119e-20)
(99.25986159 0.4638656966 4.087465596e-21)
(99.08787428 0.7338364667 0)
(99.08590103 0.6304069816 4.087027979e-21)
(98.89192839 0.6857085615 -4.216252675e-21)
(98.91635417 0.8468350234 2.043824966e-20)
(98.83739827 0.8320976691 5.275103767e-21)
(98.72118939 1.190100654 2.349674187e-19)
(98.70810842 1.114263861 0)
(98.57332205 1.179920011 -7.895313209e-21)
(98.58561753 1.271475929 -1.078999001e-21)
(98.2111165 1.969892694 3.764668847e-22)
(98.17531647 1.866900987 -5.901185165e-20)
(97.99479843 1.982751221 -2.969516265e-19)
(98.03172354 2.11041601 -3.309772191e-22)
(97.66818536 3.143669993 4.45044464e-19)
(97.58393984 3.020754014 0)
(97.33895254 3.239898714 1.222594926e-19)
(97.43961302 3.392937538 -2.251636062e-19)
(97.28983359 4.842194335 1.820508976e-21)
(97.10924588 4.732035495 -4.063630713e-19)
(96.83607955 5.113941993 1.347861389e-20)
(97.064597 5.247527124 3.725988659e-20)
(97.60185107 6.891587663 2.487242318e-19)
(97.29086084 6.90548709 1.102265364e-19)
(97.13127644 7.486055354 3.62064868e-19)
(97.52319672 7.446492898 -4.125222791e-20)
(99.93782993 -0.0334032636 0)
(99.98494482 -0.02840340758 1.966510073e-21)
(99.86078249 -0.0534495814 -8.042327957e-21)
(99.9285405 -0.08029692964 -1.981282169e-21)
(99.72150882 -0.0475006158 8.324420244e-21)
(99.81254474 -0.1126288055 -3.99968258e-21)
(99.51339679 0.03179802205 1.09124563e-20)
(99.61658298 -0.117411371 3.085411671e-21)
(99.47709514 -0.02293133169 -6.799528404e-24)
(99.48833021 0.1028137243 -8.100063896e-21)
(99.41956125 0.02609388205 -8.178967858e-21)
(99.37382047 0.1049269939 0)
(99.1605065 0.28690321 -1.644870583e-20)
(99.19951965 0.1929513308 0)
(99.05260559 0.1832481852 -1.006311551e-22)
(98.98950364 0.3082755379 -6.913096788e-23)
(98.6953764 0.5955674768 8.482266474e-21)
(98.73767373 0.4593338182 1.272858498e-20)
(98.51012154 0.4630522633 1.715174958e-20)
(98.47481285 0.6836613955 -2.457888128e-20)
(98.40005183 0.6307069276 8.12291563e-21)
(98.12725895 1.059181321 3.237056777e-20)
(98.14696225 0.9516664082 0)
(97.9818656 0.985250889 0)
(97.95610963 1.110175459 -1.308216915e-19)
(97.29924838 1.881704294 1.404370268e-19)
(97.30451386 1.72201228 2.657958718e-19)
(97.06320157 1.798002327 2.70692752e-19)
(97.04897151 1.988692801 -1.28486905e-19)
(96.21541215 3.294324083 -6.6885202e-20)
(96.17042791 3.05151763 1.328097694e-19)
(95.80132405 3.223820202 -2.448698445e-21)
(95.85281453 3.517329555 -1.53229868e-19)
(95.11383964 5.693914292 -1.042021909e-19)
(94.91713769 5.370382058 6.0798696e-20)
(94.41030315 5.749852225 -4.603158023e-20)
(94.66339186 6.162074375 -1.35254781e-22)
(95.03157501 9.384124458 -5.570197932e-20)
(94.47212169 9.131534214 -1.207514413e-19)
(93.98804947 9.997092473 -5.588282815e-20)
(94.75821321 10.27798923 9.809083083e-20)
(99.98000411 -0.07467504155 -1.414559618e-23)
(100.0553991 -0.0510603849 6.808121291e-23)
(99.8855993 -0.1384091997 2.05832778e-21)
(99.98871912 -0.1496882255 -8.238152949e-23)
(99.71452502 -0.1812509546 -1.078074103e-20)
(99.85309916 -0.2341534225 1.626865708e-21)
(99.44250484 -0.1481349921 -9.736301535e-21)
(99.62270369 -0.2974822992 -1.638686569e-20)
(99.42890906 -0.22671045 -1.396203276e-20)
(99.38487977 -0.07042720178 -7.659483381e-21)
(99.34298065 -0.1822211087 -3.044543654e-21)
(99.26051776 -0.1035548321 3.406949523e-23)
(98.96076991 0.05158310705 1.240591065e-20)
(99.04051725 -0.05120845519 1.26170811e-20)
(98.89026186 -0.1060045975 6.228762069e-21)
(98.77448176 0.02365885072 2.146826276e-20)
(98.3479439 0.2876141392 -2.161372964e-20)
(98.45131592 0.1282750246 -1.729204667e-20)
(98.21507533 0.07102850891 -2.61208751e-20)
(98.08901676 0.3114234534 -1.461485647e-20)
(98.03343582 0.2307204905 6.8076278e-20)
(97.58839138 0.6590756323 5.14741888e-20)
(97.65082094 0.534324756 3.188583363e-20)
(97.47776121 0.5183359531 7.752105047e-20)
(97.40083004 0.658310939 -1.555568717e-19)
(96.38895736 1.368917031 9.627639325e-20)
(96.46929558 1.168155025 -1.261302544e-19)
(96.1900077 1.167145759 -2.668606474e-19)
(96.082083 1.399439272 -1.30433584e-19)
(94.57258477 2.682189656 -1.260710962e-19)
(94.65248764 2.34879252 -2.344686237e-19)
(94.19711015 2.377552497 -6.819415059e-21)
(94.07590883 2.776724309 -7.072654138e-20)
(92.00733773 5.190644352 1.517351255e-19)
(91.99691953 4.595439405 -4.414602913e-20)
(91.20507321 4.697581456 0)
(91.1783831 5.472973761 -9.327496554e-20)
(89.13596192 10.98251296 1.211639101e-18)
(88.50608423 9.782029293 2.976586174e-19)
(86.69290189 10.96717227 5.250364674e-19)
(86.9658997 10.23657818 6.750955059e-19)
(88.19148884 12.29712425 5.140625893e-19)
(87.26420204 12.34355443 5.192561325e-19)
(100.0673889 -0.1251461464 1.48591801e-23)
(100.1734541 -0.07732723359 -2.915257209e-21)
(99.96024497 -0.2430684978 -5.323187472e-22)
(100.0999778 -0.2301495513 1.268351076e-21)
(99.76633552 -0.3480742274 -4.188157511e-21)
(99.95221478 -0.3758525405 -2.757868097e-21)
(99.44259065 -0.3814734933 8.610001436e-21)
(99.70043432 -0.5092555299 -9.494855856e-22)
(99.45908008 -0.4792933076 9.01733344e-22)
(99.34732289 -0.3098854757 4.211862487e-21)
(99.34687826 -0.4465714838 8.735349762e-21)
(99.22664357 -0.3808983306 6.163562156e-21)
(98.84687494 -0.284619078 -2.099809273e-21)
(98.97217651 -0.3805967248 3.253602039e-21)
(98.83389276 -0.4800897796 2.148940163e-21)
(98.6639919 -0.3666811246 6.512796671e-21)
(98.12047688 -0.17965076 -2.224579171e-21)
(98.28989707 -0.3343948259 4.755595599e-24)
(98.07052167 -0.4559629632 -2.221026e-21)
(97.85353375 -0.224982196 -1.315524053e-20)
(97.83231808 -0.3354240319 -1.493016188e-21)
(97.23039295 0.01010993012 1.064724742e-19)
(97.34143985 -0.1104483784 -8.659131467e-21)
(97.18044258 -0.18016206 -3.53146373e-20)
(97.04476604 -0.04991431758 -1.621428996e-19)
(95.72884361 0.4114611741 1.701593924e-19)
(95.90043325 0.2151009304 -1.154566791e-19)
(95.63199125 0.1231158676 -1.148304465e-19)
(95.4189323 0.3358017484 -1.148342607e-19)
(93.33723924 1.136575122 2.383601146e-20)
(93.5955807 0.8091351196 -1.86304481e-20)
(93.17126436 0.6539418078 6.616068436e-20)
(92.83356133 1.006133255 -1.268301569e-19)
(89.44812945 2.303535452 7.500822167e-21)
(89.87754806 1.705241099 1.1759286e-20)
(89.21857082 1.341468309 4.475424577e-21)
(88.58159531 1.95828388 -5.531462625e-20)
(81.93793779 4.022611016 5.96711235e-19)
(82.55680667 3.25340273 3.053316135e-19)
(81.83548079 2.599581827 -3.062731877e-19)
(80.93166453 3.379677854 1.436641025e-19)
(100.2077995 -0.1812599776 -1.661728395e-21)
(100.3444382 -0.1053088874 9.205190019e-22)
(100.0940273 -0.3597480781 -9.678922837e-22)
(100.2683713 -0.315840409 -6.845436928e-22)
(99.88882482 -0.5345624095 4.953960882e-22)
(100.1171566 -0.5267920054 -2.442213794e-22)
(99.53106556 -0.6486556408 5.572634706e-22)
(99.85939896 -0.7357379653 8.312632488e-22)
(99.5817141 -0.7573847733 4.931285132e-22)
(99.39849077 -0.5939321763 1.443529164e-21)
(99.44794981 -0.7437425186 -1.355818013e-23)
(99.2937452 -0.7009920648 -1.356010852e-23)
(98.85429826 -0.6875288407 -2.144461581e-21)
(99.02186695 -0.7625561499 0)
(98.90930233 -0.9015783994 -1.052935971e-21)
(98.6933234 -0.8207287188 -1.11441424e-21)
(98.06981891 -0.7497005135 1.148210531e-21)
(98.29790046 -0.8745117668 3.810398798e-23)
(98.11970415 -1.051667294 1.432643655e-21)
(97.82785393 -0.8649484618 9.363133267e-20)
(97.84635515 -0.9888708933 5.027806431e-22)
(97.13326927 -0.7872420606 -1.134138892e-21)
(97.28701998 -0.882386845 -1.432897505e-19)
(97.15313416 -0.9953185521 1.444093042e-19)
(96.97060122 -0.8986240081 -3.002143858e-19)
(95.52089452 -0.7888606093 -7.716943088e-20)
(95.75886455 -0.9357793741 4.241369324e-19)
(95.54294021 -1.093969614 2.751433037e-19)
(95.25795222 -0.9487835571 1.579412444e-19)
(93.04709354 -0.8199100944 -1.844777547e-19)
(93.41851801 -1.032664349 6.306044844e-20)
(93.11323942 -1.284610757 -3.004181288e-19)
(92.68053339 -1.093491764 -1.126923265e-19)
(89.46049709 -1.264194173 -2.221369778e-19)
(90.0591248 -1.514609855 -8.817269447e-21)
(89.72708428 -1.958037012 -2.218332746e-19)
(89.05909533 -1.791851903 -1.610478948e-19)
(85.13958173 -3.438688882 5.655310876e-22)
(85.65717856 -3.39760011 -2.486319601e-19)
(85.64168798 -3.793637283 2.516299664e-19)
(85.18713399 -3.924535311 5.649180241e-22)
(100.4050169 -0.2388175074 1.897910518e-21)
(100.5697194 -0.1329731902 9.330256601e-22)
(100.291326 -0.4793518308 2.782114938e-23)
(100.4952775 -0.4004340865 9.779541486e-22)
(100.0873289 -0.7254411978 9.72607815e-23)
(100.3493162 -0.6752208742 9.069873012e-22)
(99.71610956 -0.9266731618 -1.380180843e-21)
(100.1012742 -0.9588203169 -7.817012083e-22)
(99.8007857 -1.036943333 6.528076832e-22)
(99.5505192 -0.8975862272 -9.897850916e-22)
(99.65225984 -1.047230371 -4.99676001e-22)
(99.47167655 -1.034462054 -9.897228013e-22)
(98.99902857 -1.116622866 2.784460836e-24)
(99.20042986 -1.159294005 1.052882785e-21)
(99.12259914 -1.327757877 1.052892115e-21)
(98.87463691 -1.290220019 1.052872597e-21)
(98.2188947 -1.352923907 2.851485622e-22)
(98.48872077 -1.429586126 0)
(98.36480522 -1.645931872 0)
(98.02356853 -1.522744459 5.772937439e-21)
(98.07794703 -1.645271907 9.025596187e-20)
(97.31411391 -1.608639962 0)
(97.49666272 -1.665722311 -1.446269579e-19)
(97.39881606 -1.805844141 0)
(97.1910472 -1.753017034 2.054981493e-20)
(95.76239168 -1.970967953 1.15835011e-19)
(96.03828658 -2.053472912 2.687504913e-19)
(95.87938418 -2.244222454 1.546856749e-19)
(95.572205 -2.173058964 3.495749204e-19)
(93.53075741 -2.535066006 2.769961902e-19)
(93.92462559 -2.632294987 1.796590048e-19)
(93.72210798 -2.901872319 9.337711951e-20)
(93.29589769 -2.832393499 -2.793063647e-19)
(90.70271458 -3.581384025 2.189971344e-19)
(91.22968721 -3.641980266 8.11589244e-19)
(91.04413324 -4.008996009 4.192932402e-19)
(90.51908079 -3.999493505 -5.421888306e-20)
(88.12662614 -5.356615341 -1.620439149e-19)
(88.40233259 -5.303313877 -5.532587934e-20)
(88.38893855 -5.52373889 1.049382074e-19)
(88.07795208 -5.548086661 -3.368269787e-20)
(88.16652437 -5.60853195 1.984062949e-19)
(100.6584053 -0.2936876802 7.911517179e-24)
(100.8467792 -0.1584389523 2.463538806e-21)
(100.5509872 -0.5930493032 1.836323272e-21)
(100.7777231 -0.4779694513 9.297903651e-22)
(100.3605062 -0.9052689044 5.973335083e-23)
(100.6439377 -0.809437538 -4.764313342e-23)
(99.99502954 -1.19293299 -1.867372797e-21)
(100.4222655 -1.164763413 -8.478982141e-22)
(100.1094069 -1.297916642 -4.609228588e-22)
(99.80303953 -1.194705307 -4.868938782e-22)
(99.95333683 -1.332549426 -9.70341153e-22)
(99.75624684 -1.352217504 7.685426369e-23)
(99.27799747 -1.530403472 0)
(99.50174007 -1.534477991 9.761702663e-22)
(99.46300944 -1.72064583 1.940667744e-21)
(99.1985268 -1.730561942 1.049719561e-21)
(98.55348159 -1.924335492 -1.045560388e-21)
(98.84597322 -1.945116385 -4.601752189e-24)
(98.78045365 -2.182768191 -3.350179174e-20)
(98.41258248 -2.130671353 -1.807874517e-19)
(98.49627125 -2.241361243 3.460834968e-19)
(97.7353038 -2.361293866 -8.153180178e-22)
(97.93086967 -2.378639784 -1.324201046e-19)
(97.87169869 -2.531752242 -1.454354479e-19)
(97.65425488 -2.522402615 -4.118377339e-19)
(96.33520875 -2.99357538 -2.227708575e-19)
(96.62023094 -3.017220715 2.896883138e-19)
(96.51667247 -3.218182632 2.945810304e-19)
(96.20807797 -3.208506294 7.965689303e-20)
(94.39707496 -3.867035313 -1.743173309e-19)
(94.77951495 -3.885697274 -8.397899863e-21)
(94.64808585 -4.148416958 -3.342565765e-19)
(94.2448886 -4.150999289 9.833085852e-22)
(92.05639051 -5.083317163 3.728955568e-22)
(92.51851928 -5.074670567 -3.77954118e-19)
(92.38916257 -5.39375375 -1.91743463e-19)
(91.92924638 -5.422634111 1.961790491e-19)
(89.97026482 -6.51315439 9.405366526e-20)
(90.18408275 -6.478130728 1.415521611e-19)
(90.16021417 -6.641780587 1.414847052e-19)
(89.92228224 -6.652387308 9.52342021e-20)
(89.9857241 -6.700469479 9.549055826e-20)
(100.9633056 -0.3420250947 3.386186336e-21)
(100.867122 -0.6928926167 -9.052189038e-22)
(100.6988657 -1.061078298 -9.051893884e-22)
(100.3521741 -1.430412168 0)
(100.1427245 -1.463169671 6.591906388e-24)
(100.1309116 -1.628493285 1.848745024e-21)
(99.67430392 -1.895076906 -9.775700529e-22)
(99.90819266 -1.858815326 -1.058928794e-21)
(99.64235269 -2.107770881 1.040119396e-21)
(99.04074287 -2.417161149 -7.787147022e-22)
(99.33888999 -2.381660149 3.530722683e-20)
(98.95509181 -2.642836948 2.108517268e-20)
(99.06056843 -2.734748563 1.596044548e-20)
(98.34139445 -2.990825795 1.221741367e-19)
(98.53765551 -2.970607663 2.524824119e-19)
(98.51527929 -3.124993288 1.621311185e-20)
(98.30046099 -3.155361902 2.698961486e-19)
(97.13190325 -3.81292086 -1.775189873e-19)
(97.4119442 -3.786086279 1.698794318e-19)
(97.35732259 -3.984106391 -2.065230022e-21)
(97.05834854 -4.025812346 -1.083633906e-19)
(95.46485625 -4.887392595 -3.977104201e-21)
(95.83254896 -4.847888116 1.54935607e-19)
(95.75762511 -5.100402153 3.030651261e-19)
(95.37085369 -5.157998269 1.566059526e-19)
(93.4030024 -6.240324614 1.705257655e-19)
(93.84547715 -6.18964885 1.741366091e-19)
(93.75728423 -6.497310864 1.666583138e-19)
(93.30183914 -6.560372179 4.13200677e-20)
(91.41122887 -7.651182898 -4.082243946e-20)
(91.61882117 -7.634197349 -2.135226531e-19)
(91.5971328 -7.811540191 -6.765638945e-22)
(91.345738 -7.797075195 5.197729154e-20)
(91.40706489 -7.859925454 5.139926584e-20)
(85.17432766 -2.991430236 5.37100967e-21)
(84.61422703 -3.56184888 6.682712727e-20)
(84.59515045 -3.005020522 0)
(88.1374166 -5.125312282 -1.090310943e-19)
(87.85137108 -5.180972608 1.137414825e-19)
(87.80706335 -5.383652742 4.092771984e-19)
(87.89891686 -5.444720659 1.64033875e-19)
(89.99189201 -6.34548729 -4.843160932e-20)
(89.77252345 -6.385232345 4.967186515e-20)
(89.7265311 -6.528190274 -3.176662326e-20)
(89.79299259 -6.575845111 -3.155375387e-20)
(91.43543559 -7.477420835 1.183894993e-21)
(91.22945116 -7.494106353 3.468942894e-19)
(91.16418953 -7.636744822 1.148539001e-19)
(91.22397639 -7.698162604 1.148391662e-19)
(82.81101033 4.566873366 -2.431481182e-19)
(81.20227576 5.010730257 5.924224544e-19)
(82.34480334 5.430061633 -5.644744428e-19)
(90.9127394 -3.196216412 1.34673548e-20)
(90.14916845 -3.550984559 -2.097847668e-19)
(90.36392043 -3.104591534 6.696332111e-21)
(88.41247906 -5.073387732 -2.573133034e-21)
(88.14337949 -4.882228429 2.18642548e-19)
(88.44077331 -4.842814996 0)
(85.69460378 -2.939722225 -2.413648457e-19)
(86.18284095 -2.951213109 6.468734874e-22)
(86.12032638 -3.331387501 -4.719661524e-21)
(92.1958387 -4.75630127 5.627889144e-19)
(91.5870021 -5.106101889 -2.569832114e-19)
(91.72189205 -4.752820427 1.921487182e-19)
(90.20563695 -6.312851998 -1.614164568e-21)
(90.01101502 -6.174853862 -3.858401864e-19)
(90.23825873 -6.142074788 -9.386232222e-22)
(88.6974582 -5.034249312 2.064381178e-19)
(88.66897355 -5.25378867 -4.195179538e-19)
(89.12219462 -5.983175279 -2.483679567e-19)
(89.13705883 -5.787966519 -2.536606782e-19)
(88.88633359 -5.836902298 -2.511419293e-19)
(88.84181942 -6.00888239 -3.889095842e-19)
(88.92322961 -6.060336921 4.994098684e-20)
(88.29388769 -6.811365224 1.837693793e-19)
(88.15871246 -6.861306175 2.424814521e-22)
(88.16240565 -6.762657389 3.606044324e-22)
(88.30578707 -6.717904807 -1.812567841e-19)
(88.11409955 -6.847813577 2.413888063e-22)
(87.17689264 -6.274413975 -1.943493823e-19)
(87.11201504 -6.367910763 -1.934114588e-19)
(87.33399514 -6.244097605 -3.754065367e-19)
(87.31268211 -6.355327829 -2.39115548e-19)
(87.15704795 -6.401858347 3.858449227e-19)
(93.50342111 -5.930469768 -1.678289875e-19)
(92.94932097 -6.290155647 0)
(93.05920981 -5.970008836 0)
(91.64306784 -7.460120251 -1.715857521e-19)
(91.46161291 -7.306796866 -3.45252985e-19)
(91.67201576 -7.287336792 -1.693352397e-19)
(90.42786012 -6.281670075 0)
(90.39367177 -6.449257178 -1.826629212e-19)
(90.69949789 -7.047205466 3.875971145e-22)
(90.7279823 -6.884461828 2.23719343e-19)
(90.52322725 -6.907795464 9.146956969e-20)
(90.46659501 -7.042048377 3.031278486e-20)
(90.52388112 -7.094903027 -3.699155299e-19)
(89.66959161 -7.593160896 -3.955991193e-19)
(89.58195597 -7.587944732 -5.372882922e-19)
(89.64126034 -7.559381145 1.301057264e-19)
(89.7161614 -7.560646164 -3.926456654e-19)
(89.14258685 -7.155276981 1.787608103e-19)
(89.06455892 -7.212458617 0)
(89.26968492 -7.133029845 0)
(89.23080245 -7.203048414 -4.448855925e-20)
(89.09283004 -7.231769745 0)
(91.85430949 -7.439970721 1.671615819e-19)
(91.82844892 -7.615692565 1.646964607e-19)
(92.24810704 -8.259393017 1.244186692e-21)
(92.23362411 -8.151878973 1.476305412e-19)
(92.13137351 -8.273517634 1.329552094e-19)
(92.13218913 -8.179803154 2.677520666e-19)
(90.70432074 -8.984797615 -1.251180385e-19)
(90.50759743 -8.971967291 1.879032042e-19)
(90.67402808 -8.930823634 0)
(90.81431348 -8.938255036 -1.238046541e-19)
(90.18551522 -8.257702486 -2.579377795e-19)
(90.09321549 -8.297169876 -1.307313368e-19)
(90.2903024 -8.25955926 1.308372557e-19)
(90.22481119 -8.300605018 1.31492317e-19)
(78.39194351 -5.350233326 7.550130129e-20)
(79.13803391 -5.100721592 6.752965046e-19)
(79.36871322 -5.734361655 3.089664822e-19)
(78.52594392 -6.106824098 2.522225689e-19)
(78.88634442 -6.142472526 5.82105162e-19)
(83.96712218 -6.220410784 1.377184697e-21)
(83.77370487 -6.008343408 5.972228323e-20)
(83.52543476 -6.246788168 -1.981112689e-21)
(83.69389324 -6.495502605 -4.137193389e-19)
(83.82626705 -6.45243493 4.013022937e-20)
(72.790122 4.279849287 0)
(71.86112108 5.330170783 0)
(71.89948264 3.235683611 0)
(70.55354543 4.311645938 0)
(78.20182113 -4.645466053 -3.073361074e-19)
(77.62554085 -5.73307762 -3.079301931e-19)
(77.34933766 -4.832008298 2.335290689e-20)
(87.02384692 -6.317263468 -1.300447359e-19)
(87.04554175 -6.195510589 -1.135759929e-21)
(87.20012257 -6.164688289 1.831531009e-19)
(86.98159888 -6.284663062 -1.301369899e-19)
(86.07561371 -5.932871364 -5.217518511e-20)
(86.06681493 -5.838258631 2.035967703e-19)
(86.21933958 -5.765870645 0)
(86.22784109 -5.866231703 -2.013135862e-19)
(86.89272117 -4.581017015 -4.63315234e-19)
(87.23748384 -4.521887732 -6.900305421e-19)
(87.23723451 -4.793425049 -7.40174957e-19)
(86.93623485 -4.884049303 -4.04848452e-19)
(85.9219109 -6.012345279 -1.033016409e-19)
(86.07463751 -6.029297255 1.546944382e-19)
(85.88672172 -6.09103112 -3.458637347e-20)
(85.93533034 -6.088818018 3.999146669e-19)
(87.01500351 -6.377011473 -1.450164532e-19)
(86.91907741 -6.388487809 0)
(86.94665688 -6.33447823 0)
(84.18314112 -6.001555053 1.759700337e-19)
(84.34018978 -6.177634072 5.154437598e-20)
(84.0837213 -6.416240158 -3.851953642e-20)
(84.19622251 -6.373411198 -2.549005955e-19)
(85.91334474 -5.91524679 1.521326999e-19)
(85.75719904 -6.004394737 -4.177910555e-19)
(85.7324575 -6.086351974 -3.404872175e-20)
(85.78437479 -6.083264493 1.826508771e-19)
(89.00642497 -7.184861155 -7.121031041e-20)
(89.05215209 -7.108579501 1.78839576e-19)
(89.17899251 -7.083871546 1.782558135e-19)
(88.97821159 -7.165876538 3.080066063e-19)
(88.24477318 -6.891356718 1.234330899e-19)
(88.43353341 -6.766850686 -3.538571822e-19)
(88.41962838 -6.856046738 1.835141303e-19)
(88.28701114 -6.903183064 1.236300514e-19)
(89.36443949 -5.934559791 -1.938917041e-19)
(89.34862582 -6.122377447 5.471244707e-21)
(89.07938514 -6.146525664 2.169800395e-19)
(89.15642282 -6.195737511 -4.283006112e-19)
(88.15695383 -6.912061389 0)
(88.21702836 -6.932038575 0)
(88.13227168 -6.95448701 2.775739818e-19)
(88.98318343 -7.220320299 -1.422365664e-19)
(88.89459286 -7.229034917 5.861878166e-21)
(88.93859554 -7.19713301 -5.479483026e-22)
(87.07785572 -6.419965644 1.446792813e-19)
(86.98399628 -6.432722429 1.355066513e-21)
(88.06800832 -6.934853859 -1.400763051e-19)
(88.08738675 -6.890920718 0)
(90.0550476 -8.253757224 -2.606434762e-19)
(90.14668555 -8.213921096 -1.288719893e-19)
(90.25075602 -8.215994662 2.733213907e-21)
(89.6075983 -7.622796022 -1.326564503e-19)
(89.74574152 -7.59606668 -1.317891968e-19)
(89.69749337 -7.629182421 -1.316699416e-19)
(90.90329799 -7.026708756 -4.509439029e-20)
(90.87468085 -7.191477094 8.666644383e-20)
(90.63939561 -7.182155725 3.709576156e-19)
(90.6962996 -7.237468 -3.217087913e-20)
(89.51921358 -7.61767853 -2.7349485e-19)
(89.5428117 -7.653903849 1.385166283e-19)
(89.42998207 -7.643276788 -5.72340892e-23)
(89.95984273 -8.294121631 -1.317627096e-19)
(89.77355577 -8.285372336 -1.341272179e-19)
(89.92315613 -8.250071602 -9.744781261e-22)
(89.02375652 -7.243562837 0)
(88.93624124 -7.251951881 1.477675893e-19)
(89.40969863 -7.608857281 -2.761437025e-19)
(89.49544909 -7.584467152 -4.100344007e-19)
(90.5334817 -9.025778212 -2.53862071e-19)
(90.84970025 -8.991970472 -1.229541461e-19)
(90.73989586 -9.037794823 -1.249575537e-19)
(92.23536603 -8.355143703 -1.301105146e-19)
(90.33362353 -9.011336076 6.099896352e-20)
(90.35947382 -9.061290785 2.605613007e-19)
(90.0138065 -9.041374715 -1.280859037e-19)
(89.99787051 -8.336982883 -6.690764025e-19)
(89.80940112 -8.328892478 2.731067487e-19)
(90.00542094 -8.993388434 5.996633115e-20)
(90.31866179 -8.957940951 3.18413539e-19)
(89.8565098 -0.8097838113 -5.061968526e-21)
(88.7558744 -1.013658092 -6.245035379e-20)
(89.26255879 -0.4786014883 -2.308752292e-19)
(85.24707565 -2.476179831 -2.524146228e-19)
(85.77970876 -2.522969354 -4.921469683e-19)
(83.43289202 3.789848939 -5.331217127e-19)
(83.93202907 3.103711592 0)
(83.30290007 2.607442412 0)
(82.86321216 -0.9608010489 -2.824847519e-19)
(83.15219307 -0.274261365 -2.95576287e-19)
(81.95047389 -0.7873711681 -6.001995459e-19)
(82.36685262 0.05846239729 -2.934793017e-19)
(78.95595053 -4.385321046 2.944857792e-19)
(78.08629723 -3.829136864 0)
(78.85088643 -3.739494203 0)
(73.89674876 5.152949754 0)
(74.66845859 4.207535939 0)
(73.86388317 3.410409856 0)
(86.89176418 -4.289426678 2.85651598e-22)
(86.56811623 -4.686117712 2.985538164e-19)
(86.51522836 -4.350783129 -6.918127091e-22)
(85.89367764 -5.817691703 4.085622934e-19)
(86.04953527 -5.735628701 2.038009272e-19)
(83.9884303 -5.785487346 2.33711684e-19)
(84.226079 -5.592300547 2.316453159e-19)
(84.37694888 -5.804765565 4.547036455e-19)
(83.55299489 -5.75534929 1.901336846e-21)
(83.82318228 -5.550255805 -2.349815816e-19)
(79.63919333 -4.23752368 -5.754356153e-19)
(79.78140167 -4.809706174 2.941350855e-19)