/*--------------------------------*- C++ -*----------------------------------*\
| =========                 |                                                 |
| \\      /  F ield         | OpenFOAM: The Open Source CFD Toolbox           |
|  \\    /   O peration     | Version:  v2012                                 |
|   \\  /    A nd           | Website:  www.openfoam.com                      |
|    \\/     M anipulation  |                                                 |
\*---------------------------------------------------------------------------*/
FoamFile
{
    version     2.0;
    format      ascii;
    class       volScalarField;
    location    "3.19";
    object      k;
}
// * * * * * * * * * * * * * * * * * * * * * * * * * * * * * * * * * * * * * //

dimensions      [0 2 -2 0 0 0 0];


internalField   nonuniform List<scalar> 
3019
(
45.94621966
53.14491365
46.65915486
42.74339141
40.30468298
38.62276636
37.27203997
36.44200074
35.64717594
35.26399036
35.07479747
34.99898386
55.8284984
53.13519494
46.93814648
43.04618127
40.52445186
38.76191365
37.34365634
36.46563401
35.61941109
35.20449557
34.99321052
34.90780356
55.83829262
52.6118782
46.92988521
43.16566108
40.63811236
38.84156205
37.38486404
36.4779021
35.58898289
35.14948304
34.91985175
34.82659745
53.78649933
51.67347283
46.70505445
43.1408092
40.64937909
38.86078968
37.3947745
36.47011175
35.54743323
35.09098292
34.84868474
34.74910685
51.80059541
50.63150771
46.24105749
42.96181246
40.58743865
38.83873143
37.37479734
36.43388969
35.49415359
35.02781979
34.77518565
34.67059658
50.05067054
49.57329335
45.6753464
42.65788022
40.42967802
38.75189244
37.30473718
36.3664106
35.42184373
34.95133881
34.69459717
34.58639319
48.51188153
48.5475632
45.09774888
42.31388184
40.21760127
38.61190222
37.19967213
36.27369147
35.33374867
34.86377434
34.6052326
34.49516102
47.06296218
47.60285181
44.55564756
41.96521628
39.98053462
38.44027724
37.06927798
36.16025988
35.23039675
34.76383857
34.50524381
34.39414014
45.69718493
46.72603942
44.04785725
41.62524365
39.73434568
38.25122384
36.92082883
36.03066681
35.11511408
34.65444355
34.39708032
34.2855815
44.41033366
45.90534932
43.56780639
41.29911814
39.48770574
38.05372894
36.76023767
35.88902315
34.98864781
34.53443507
34.27876977
34.16724887
43.18919324
45.13109091
43.11077932
40.98722913
39.24529272
37.85325675
36.59214122
35.73879774
34.85546382
34.40887608
34.15536209
34.04406768
42.01949194
44.39591078
42.67367592
40.68793188
39.00919839
37.65316487
36.41997833
35.58286937
34.71461418
34.27467787
34.02306884
33.91205627
40.90098857
43.69496993
42.25406204
40.39954274
38.77999375
37.45545576
36.24618569
35.42341858
34.57178764
34.13944877
33.88993938
33.77926398
39.83527904
43.02296161
41.84963508
40.12064993
38.55748729
37.26118451
36.07240882
35.26216603
34.42286601
33.99602824
33.7480233
33.63758336
38.81688013
42.37756064
41.45830244
39.85007476
38.34125072
37.07086041
35.89976345
35.10027566
34.27648608
33.85672142
33.61047516
33.5002653
37.84016865
41.75580462
41.07794685
39.58667932
38.1307535
36.884648
35.72895257
34.93874329
34.12303427
33.70705815
33.46177683
33.35163197
36.90135134
41.15612101
40.70649754
39.32937902
37.92546887
36.70255206
35.56043415
34.77804899
33.97774178
33.56843192
33.324545
33.21446501
35.99530062
40.57282998
40.34214161
39.0771848
37.72487288
36.52445826
35.39448434
34.61887192
33.82068312
33.4132075
33.16980376
33.05960447
35.11950775
40.00196797
39.98358435
38.82931983
37.5284994
36.35021
35.23127651
34.46122266
33.68105083
33.28008447
33.03771763
32.92743195
34.27428134
39.44165777
39.63004507
38.58526496
37.33596793
36.17960927
35.07091005
34.30580757
33.51832269
33.11734656
32.87514491
32.76457704
33.45925339
38.89159696
39.2812592
38.34474907
37.14696878
36.01240749
34.9134908
34.15221022
33.39087981
32.99596668
32.75437016
32.64361332
32.67604789
38.35285991
38.9377073
38.10787626
36.96135595
35.8485018
34.75940461
34.00185345
33.2155606
32.82026589
32.57875113
32.46756649
31.93158826
37.82905909
38.60082348
37.87504962
36.77907489
35.68770078
34.60992725
33.85473147
33.11220915
32.71966045
32.47821239
32.36677658
31.23931216
37.32936187
38.27488211
37.64766867
36.6005029
35.52998926
34.46925283
33.71672295
32.88662777
32.49409521
32.25247596
32.14038142
41.66026625
44.9420978
54.58598698
51.91122543
42.01517382
55.3946728
55.07507761
54.61054453
53.89026064
52.29616147
57.46833822
48.43890653
47.68987185
51.6107457
57.78729022
57.56313937
39.45997918
44.10673642
39.3950938
40.07437773
54.28460215
45.04074625
56.33916995
54.48196669
55.00416852
55.69756679
54.70075706
40.61042921
57.94081559
57.85175678
52.1852004
52.72116359
64.02895695
39.74246779
41.2207274
50.48781575
49.81227471
42.13814556
39.95210198
52.08347461
64.14687982
42.25319937
49.06300321
70.88177382
39.83220771
41.21705601
39.63465246
39.70089645
62.67408681
66.52791587
39.57702921
64.06278839
55.96790502
53.76899862
47.91713702
40.32934731
41.23124895
39.77003143
46.27358484
40.49829806
39.49384557
46.08845328
67.59299277
70.37913341
72.15538207
60.2727658
68.99555992
40.16190869
39.70100249
60.93108265
54.75913678
62.00667666
57.63275347
67.11615397
67.13235841
65.21217088
43.84293086
58.6845101
52.27746937
65.72994487
67.10563289
46.40777586
49.77513349
54.03792834
69.49976489
57.0160074
44.58463919
46.54476527
62.5915917
46.8658154
49.52408648
42.50382362
44.61171945
63.72471201
46.53291794
43.43861555
42.65002166
40.74782142
40.23241652
38.94177433
48.71212825
56.60382566
55.99632951
53.19652522
48.20269811
48.03730519
46.87703618
43.79265554
43.53756089
42.98598808
41.01727538
40.82809616
40.47923542
39.12003944
38.99076153
56.18622477
57.59358255
57.91519679
52.79712527
48.20850395
48.25965755
46.94996151
43.95126804
43.84688315
43.15202574
41.17229584
41.06940756
40.62065373
39.22822514
39.15187688
50.72024521
50.59028312
54.30239267
53.30364665
54.21140373
51.92481728
47.9386638
48.16852651
46.79152916
43.93832113
43.96084752
43.1563405
41.19997689
41.1871243
40.65352653
39.25853335
39.24109684
49.26937501
50.46051623
52.27913488
52.04424796
52.98961339
50.89508742
47.40298876
47.82154652
46.37051079
43.75634046
43.91562018
43.02257551
41.14579915
41.19352762
40.61280283
39.24193153
39.2574611
47.55999694
48.82808591
50.46426371
50.79183789
51.7296194
49.83714752
46.75529478
47.24776302
45.82119773
43.42170962
43.68238947
42.74013393
40.98070786
41.11368513
40.47579086
39.1595689
39.22854269
46.10790638
47.17253829
48.88373414
49.58218024
50.48332385
48.79754708
46.08547477
46.58660908
45.23908608
43.03425897
43.32667018
42.40111906
40.7518076
40.92760541
40.27381951
39.01681009
39.12823988
44.71563341
45.76549797
47.41822469
48.4628477
49.2925017
47.83214545
45.45901246
45.92440734
44.68771776
42.64481863
42.93623625
42.051913
40.49548188
40.68935525
40.04111724
38.83875697
38.97484349
43.32581883
44.36318531
46.03079107
47.4296546
48.197256
46.93956794
44.8745945
45.30934621
44.17196247
42.26846392
42.54919684
41.70903801
40.2304053
40.42954643
39.79618882
38.64126826
38.79075914
41.99178228
42.98690914
44.72511788
46.46636612
47.18277272
46.10579892
44.32386156
44.73401643
43.68551322
41.90984435
42.17712035
41.37927233
39.9663245
40.16403869
39.54909833
38.43457919
38.59017927
40.71378304
41.6668419
43.48940328
45.55945455
46.23500358
45.32076331
43.80141699
44.190771
43.22306392
41.56816525
41.82293521
41.06394756
39.70820066
39.90112114
39.3053512
38.22511553
38.38231708
39.4855586
40.40246194
42.30713087
44.70134263
45.34048278
44.57632593
43.30338266
43.67475873
42.78121889
41.2409218
41.4850988
40.76167206
39.45795528
39.64487635
39.06757909
38.01666362
38.17282692
38.30455398
39.18560816
41.17569936
43.88762248
44.49397106
43.86722099
42.82659394
43.18231475
42.35745497
40.92605526
41.16111634
40.47069932
39.21580392
39.39667497
38.83665262
37.8113496
37.96500819
37.17262259
38.01692638
40.09697055
43.11608071
43.69041894
43.18838262
42.36816614
42.71037587
41.94943228
40.62195839
40.84908185
40.1895481
38.98123048
39.15647903
38.612506
37.61019026
37.76066654
36.08734287
36.89694663
39.06735962
42.38216387
42.92952015
42.5365821
41.92555286
42.25612971
41.55502273
40.32727983
40.54746016
39.91700146
38.75357224
38.92369739
38.39475054
37.41359275
37.56062379
35.04674592
35.82302167
38.08066677
41.67693575
42.20341824
41.90901694
41.49629993
41.81708553
41.1721309
40.04071649
40.2549318
39.65192161
38.53213745
38.69765881
38.18287343
37.22161291
37.36518172
34.04896305
34.79317902
37.13270669
40.99295786
41.50411839
41.30431228
41.07794456
41.39077533
40.79863299
39.76095976
39.97018469
39.3931907
38.31624586
38.47766744
37.9763313
37.03413384
37.17433633
33.08685937
33.80561932
36.21888746
40.32728962
40.82490883
40.71735695
40.66831671
40.97479436
40.4326455
39.48682908
39.69194455
39.1398011
38.10527469
38.26306761
37.77460896
36.85096622
36.98795883
32.15588111
32.85106154
35.33537894
39.6770796
40.16334255
40.14371037
40.26581124
40.56707192
40.07272858
39.21736051
39.41905862
38.8909114
37.89865825
38.05323459
37.57721788
36.6718671
36.80583015
31.26185124
31.92919467
34.48223329
39.04109953
39.51678416
39.58073114
39.86938726
40.16616232
39.71798498
38.95191212
39.1506431
38.64594197
37.69595658
37.84763355
37.38375986
36.4965886
36.62770878
30.40578587
31.0454206
33.65881621
38.41921927
38.88429797
39.0280652
39.47865038
39.77117128
39.36799213
38.69012767
38.88613017
38.40454541
37.49682776
37.64585166
37.19389703
36.32484176
36.45333883
29.5880435
30.20046733
32.86500091
37.81200377
38.26618243
38.48606257
39.09381263
39.38187841
39.02303222
38.43208835
38.62525605
38.1667351
37.30112157
37.44758489
37.00744621
36.15645997
36.28244212
28.81318185
29.39675755
32.1036537
37.22091225
37.66345421
37.95657657
38.71617784
38.99871352
38.68408792
38.17825301
38.36821628
37.93281993
37.10882143
37.25272827
36.82432712
35.99129144
36.11487886
28.0894698
28.64299049
31.37986783
36.64694055
37.07992683
37.44075641
38.34622215
38.62370228
38.35157097
37.92885179
38.11560397
37.70294524
36.91984661
37.06130085
36.64440878
35.8291262
35.95048634
27.38974197
27.95406485
30.66179056
36.05903169
36.52562724
36.90948996
37.96231337
38.26227934
38.00505977
37.66843747
37.86929989
37.46298261
36.72305813
36.8738384
36.45725681
35.66098422
35.78934873
41.12781961
39.65173567
39.84342016
49.79864759
48.9436167
43.89760017
54.48577161
57.1684841
57.27948922
50.86876979
41.78126862
39.60800963
39.48877331
42.24094532
57.47502101
57.33132972
53.92362064
54.63501839
57.38431875
57.36447541
57.30931844
57.37620565
54.64126374
53.04038928
51.76034375
57.38399283
56.30520582
56.82457147
56.09793608
57.36267096
39.53797156
39.81119515
44.24992373
45.01920714
49.21483272
46.8399082
42.61480658
43.40510209
57.31669019
56.79107069
49.55640085
57.71835964
57.545781
57.68087367
56.96487125
57.40818692
57.64075291
39.53833987
39.44042693
39.5006749
42.36841608
43.36445607
53.90392681
43.19001123
39.52124537
39.65662781
39.39583156
40.02763673
39.70473006
46.04881122
44.9556803
39.5310436
53.82778841
50.14164964
50.92515374
49.2865519
53.31340223
41.10190197
41.81700073
45.94943683
40.98133028
41.57536944
40.62215894
40.33784739
57.12839904
57.52026785
56.13112782
54.71327722
56.43956078
56.12341365
57.28010211
56.66869037
54.87035263
55.40745078
52.93074816
53.4582761
51.65871581
52.31159615
55.06449207
42.88350312
48.01653379
47.04485476
57.93395751
57.92650432
57.97379442
57.78098478
57.86300419
57.89726789
53.44033088
57.18353066
56.95580424
52.39731622
45.92496383
46.33988284
40.04694394
44.14066198
42.25103951
41.65380523
41.2134616
42.88853346
42.4222388
41.01340461
49.77562515
45.90498169
46.48362159
46.24422526
40.46660546
41.23726317
39.68898316
39.97577559
43.62596802
39.70259003
39.36904173
39.37052392
40.09871678
43.21130584
41.9567882
48.2857477
45.09360556
40.52863432
39.64927253
40.26334756
40.04767915
41.14201708
40.58291416
39.63593926
41.1604113
40.48758268
39.46228898
51.24071527
51.1533274
53.51272438
47.81676184
49.38965331
49.49227081
39.40189355
39.47937556
40.71647065
40.55364048
39.44887872
39.52289737
39.40315802
39.40634951
40.08505724
40.32825926
40.13924767
39.4903656
44.89859539
42.34604947
42.22985555
41.55665595
44.4748818
40.3788899
40.63188839
39.95427989
39.90517091
39.93904297
39.92488553
39.89303695
39.81069557
38.5806693
37.75032401
37.22782014
36.7942205
36.42922192
36.11388176
46.90598469
51.33524103
50.6015757
53.18203387
51.35696086
51.30372111
46.73763053
45.56570457
45.47048088
42.84327418
42.12510374
42.03795674
40.36654539
39.88422952
39.82666995
38.73395817
37.86633658
37.81307281
37.31138892
36.84874836
36.822338
36.45793027
36.11956025
36.11793527
56.06511286
57.6062685
57.59174624
53.04332126
51.33888387
51.39066558
46.96257587
45.81409357
45.76936268
43.08918556
42.36088391
42.32091769
40.56380738
40.06247234
40.02512439
38.82742069
37.94194392
37.90742591
37.36919814
36.88478708
36.86878176
36.47537989
36.11643566
36.1192951
55.33061894
56.21073281
56.6821555
52.39926667
50.90475882
51.05697611
46.90275348
45.81092927
45.82537137
43.16846758
42.45173149
42.44302398
40.64808768
40.14320574
40.13360409
38.86084764
37.97711023
37.96238293
37.39627483
36.90001988
36.89533176
36.47681345
36.10017344
36.11126322
53.27483334
54.25474345
54.74219481
51.41700662
50.13290693
50.34135806
46.60445899
45.61096989
45.68724668
43.11487612
42.41616554
42.43259015
40.64107279
40.14228359
40.14825655
38.85017609
37.97145679
37.97643137
37.39019188
36.89264265
36.89861798
36.4599705
36.06663995
36.08705608
51.33830232
52.38873451
52.84099372
50.36696662
49.25182328
49.47683352
46.10541302
45.20042149
45.31502897
42.89348453
42.2396329
42.2965668
40.55551577
40.07384108
40.1001188
38.78029039
37.92675349
37.95704624
37.3448969
36.84580296
36.87429719
36.40730945
36.01065271
36.04287629
49.65059024
50.70082732
51.1019897
49.31137953
48.34543816
48.5710858
45.52883928
44.70281611
44.8303516
42.57358479
41.96439079
42.03793783
40.3802953
39.92199202
39.96557437
38.65091259
37.8277054
37.88251304
37.25593954
36.76242225
36.80734978
36.32585482
35.93155995
35.9746367
48.14610396
49.21840948
49.57357715
48.30422083
47.47750776
47.68722209
44.95872385
44.2015524
44.32468965
42.22644288
41.65585316
41.73430861
40.15988915
39.72358813
39.77603376
38.4854113
37.69395426
37.76429812
37.13716361
36.65195071
36.70967302
36.22148755
35.83276038
35.88544463
46.7134318
47.86933987
48.19606778
47.37779147
46.67714299
46.87180699
44.4257463
43.72669726
43.84268631
41.87910243
41.34058426
41.419224
39.9194148
39.50244301
39.55901033
38.29959894
37.5378368
37.61808665
36.99692385
36.52132089
36.58843597
36.09886666
35.71720471
35.77795934
45.36847622
46.62168393
46.92538977
46.51599846
45.9305546
46.11268412
43.92546242
43.27971966
43.38908031
41.5423323
41.03068081
41.10728491
39.67248638
39.27197078
39.32997926
38.10354472
37.36781568
37.4541546
36.84173695
36.37630953
36.45007166
35.96233025
35.58834947
35.65538815
44.09941886
45.45343167
45.73949146
45.70778484
45.22896321
45.40056489
43.45153332
42.85618424
42.96012679
41.21986453
40.73144986
40.80514303
39.42658972
39.03993756
39.09781128
37.90341085
37.18972469
37.2794899
36.67689083
36.22140473
36.29968943
35.81566552
35.44925922
35.52109547
42.89202569
44.34671648
44.61781519
44.94385181
44.56507832
44.72785893
42.99974112
42.45195635
42.55136704
40.91129952
40.44404254
40.51481876
39.18563771
38.81073776
38.86762492
37.70297812
37.00768375
37.09899486
36.50639687
36.06008496
36.14124247
35.6620217
35.30298527
35.37807244
41.73494294
43.29688795
43.55430661
44.21763449
43.93309114
44.08834937
42.56722772
42.06435123
42.1598054
40.61487354
40.16757481
40.23573483
38.95125214
38.58656322
38.64207448
37.50453951
36.82453856
36.91611438
36.33316756
35.8950261
35.97780167
35.50390568
35.15152892
35.22897725
40.62968869
42.29778613
42.54335126
43.52439113
43.32862383
43.47737648
42.15162058
41.69135935
41.78334272
40.32898134
39.900774
39.96663589
38.72375607
38.36823571
38.4222597
37.3093413
36.64214234
36.73316435
36.15921461
35.72818719
35.81167231
35.34324113
34.99715884
35.07577965
39.57647476
41.34027481
41.57603543
42.8592207
42.74779555
42.89096093
41.75065779
41.33109298
41.42006018
40.05227274
39.64245141
39.70629283
38.50286141
38.15582025
38.20837903
37.11800569
36.46165288
36.55160607
35.98589356
35.56098426
35.64451963
35.18144032
34.8406655
34.92022273
38.5689416
40.42018297
40.64687118
42.22002085
42.18754338
42.32583843
41.36227121
40.98180808
41.06819775
39.78359917
39.39159368
39.45366242
38.28811123
37.94909066
38.00026035
36.93076569
36.2837617
36.37235438
35.81409331
35.39439902
35.47753758
35.01956626
34.68395752
34.76335371
37.60200417
39.53578036
39.75371136
41.60404964
41.644602
41.77894449
40.98433009
40.64169205
40.72595733
39.52182633
39.14721991
39.20775505
38.07896616
37.74766943
37.79754826
36.74764576
36.10885319
36.19592014
35.64438247
35.22912294
35.31154936
34.85832975
34.5266181
34.60633302
36.67188865
38.68313716
38.89360945
41.00893226
41.11590175
41.24683807
40.6148042
40.30900789
40.39157024
39.26588708
38.90842033
38.96764534
37.87490044
37.55115334
37.5998468
36.56856751
35.93712434
36.0225883
35.47711702
35.06560716
35.14711285
34.69831205
34.37089743
34.44948462
35.77332322
37.85779799
38.06177264
40.42913137
40.59951034
40.7276213
40.2519895
39.98227533
40.06347047
39.01483267
38.67437459
38.7324827
37.67539627
37.35911702
37.40673182
36.39337749
35.76861838
35.85248015
35.31249791
34.90417402
34.98463048
34.53980502
34.21483699
34.29378348
34.90500391
37.05780124
37.25558147
39.86088286
40.09495987
40.22003506
39.8947507
39.6604849
39.74051076
38.76796593
38.44446284
38.50158173
37.48002151
37.1711903
37.21780729
36.22189089
35.60331203
35.68560178
35.1506303
34.74499291
34.82434634
34.38317182
34.06209869
34.13893276
34.06685184
36.28209998
36.4740898
39.30315415
39.60060419
39.72335411
39.54239894
39.34301864
39.42199611
38.52480894
38.21823656
38.2744636
37.2883976
36.98702198
37.03272898
36.0538518
35.44117633
35.52196854
34.99147195
34.58814236
34.66649189
34.22835608
33.90806168
33.98614659
33.25809671
35.5298755
35.71659111
38.75564505
39.11492653
39.23561695
39.19484111
39.02976062
39.10766027
38.28517927
37.99548635
38.05084628
37.10025265
36.80633374
36.85118802
35.8891328
35.28199435
35.36168224
34.83478922
34.43339784
34.51119723
34.07548849
33.75953833
33.83438515
32.47993813
34.80201895
34.98431691
38.2195803
38.63806388
38.75654087
38.85272656
38.72126075
38.79790158
38.04926621
37.77630194
37.83075208
36.91547472
36.62898617
36.67301628
35.72755547
35.12495089
35.204875
34.67984607
34.28013834
34.35898097
33.92362529
33.60627887
33.68594843
31.73679188
34.10150024
34.28290718
37.69718566
38.1718301
38.28902489
38.51719349
38.41842443
38.49380944
37.81743978
37.56091133
37.61442698
36.73400552
36.45487092
36.49811004
35.56884177
34.96744646
35.05261605
34.52415604
34.12590984
34.21100108
33.77084112
33.45992768
33.53949566
31.03267612
33.42896043
33.62451871
37.1848559
37.71227392
37.84071003
38.18461097
38.11827827
38.19869138
37.5879256
37.34776635
37.40290122
36.55470114
36.28292492
36.32672961
35.40441283
34.79827626
34.90997358
34.35700361
33.96010279
34.07149963
33.60570609
33.28891878
33.40297561
54.54367337
55.48345799
55.51757996
51.42578696
47.74930822
48.23753514
40.28618579
40.16241832
43.03664455
55.5257317
55.54803008
54.62020948
57.15982054
57.27598147
54.44096501
54.14752819
51.01826997
42.26719335
41.66671007
39.84339856
40.32997464
40.26632071
40.4519731
43.81276225
42.67882733
52.65289434
55.13820216
54.856722
40.54987677
40.41581001
45.34930124
45.22892571
46.4211591
43.31743055
44.20645686
44.33121942
41.9472267
41.8386935
42.53358256
40.65959894
41.21925947
41.31662424
39.76278913
39.68998819
40.15209427
38.88325508
39.26837034
39.33377677
52.60795978
52.01195914
47.85428201
56.42887003
54.81800324
55.20180742
53.98250905
54.41179829
56.17863236
51.41375559
51.38308245
53.17954373
48.18279657
49.7101995
49.74683227
49.58656264
49.65342038
48.09425406
45.72040703
45.64819307
46.82415193
43.71546286
44.61955543
44.69922222
44.4396197
44.54441898
43.64316839
42.2606098
42.20146498
42.91776873
40.96498968
41.55320495
41.60810943
41.40352317
41.47835402
40.89530985
39.98589332
39.93815982
40.42931588
39.0797004
39.48981356
39.53412713
39.39013261
39.44300709
39.0387944
57.50545359
57.58003939
56.19339148
57.9898025
57.97502375
57.87873722
51.17512128
51.26196719
52.93371812
48.2387346
49.68548082
49.62462647
49.75460519
49.73065155
48.25561198
45.83132931
45.83229451
46.95946943
43.93525174
44.82730709
44.84123247
44.74374788
44.8013721
43.89930269
42.43008118
42.40293109
43.13082478
41.14482742
41.74409196
41.77313593
41.66407153
41.7059126
41.10954066
40.11644768
40.08984684
40.59467842
39.20527666
39.62977072
39.654717
39.56971175
39.60366169
39.18255879
50.83197095
50.83853145
55.2339138
55.72564129
54.81813648
53.61456132
54.97986582
54.58222949
55.76012537
55.37475417
53.91903343
50.54176617
50.73104513
52.16818398
48.03991359
49.3369637
49.1957187
49.56009939
49.4602562
48.1215735
45.74857407
45.78830002
46.86100872
43.95275262
44.82209805
44.80046901
44.84077535
44.83555165
43.95955846
42.44497606
42.45078668
43.16577696
41.20172365
41.79838393
41.79521102
41.78618269
41.79789819
41.19823076
40.15080123
40.15102761
40.6543555
39.25612337
39.68622209
39.68708745
39.67013224
39.67983044
39.25095583
49.7006277
50.10588222
53.3027011
53.77465176
52.7712635
52.35931178
53.39925778
53.01106867
54.18534439
53.79081472
52.67453221
49.69935633
49.91843989
51.15718557
47.55149149
48.70055758
48.51961871
49.04059348
48.87477035
47.69165208
45.42280708
45.5221009
46.49224188
43.82108177
44.63416917
44.55377692
44.75993018
44.70357675
43.87478374
42.3459703
42.38633999
43.07413863
41.16970829
41.7534125
41.72205729
41.78595108
41.77316304
41.18285469
40.12025244
40.13296417
40.63049133
39.24850478
39.67337886
39.66408449
39.68553009
39.68148058
39.25475445
47.96647089
48.39160846
51.51829001
51.94870699
50.89212357
51.1028923
51.87180914
51.50315085
52.62663769
52.24685102
51.41572921
48.79800787
49.02524814
50.10196608
46.92259667
47.94972063
47.75469899
48.33336767
48.14300214
47.087188
44.95668092
45.08049827
45.96499806
43.51356314
44.26529363
44.15863464
44.46437244
44.36768856
43.60094034
42.10892099
42.17659307
42.81913863
41.0300282
41.58158687
41.52385123
41.68212457
41.634788
41.07470552
40.00581796
40.04214804
40.51799623
39.18689071
39.59928737
39.56782643
39.64804228
39.62626983
39.21034014
46.45031047
46.80511058
49.93818374
50.31324086
49.26176769
49.87752818
50.43204697
50.08858872
51.14001647
50.78277634
50.17829108
47.90235763
48.12223329
49.05238695
46.25038162
47.17144667
46.98143704
47.55917659
47.3643096
46.41787161
44.44940912
44.57543028
45.38285811
43.13227786
43.82664113
43.71563183
44.04909724
43.93793821
43.22988816
41.81212936
41.88895751
42.4878132
40.81262199
41.33177739
41.26352554
41.4624855
41.39826314
40.87138392
39.82680935
39.87559819
40.3281864
39.05653957
39.4523837
39.40842743
39.53250565
39.49385991
39.09389714
45.07070996
45.42598192
48.52951005
48.87016109
47.77945107
48.73370396
49.10301625
48.78880716
49.75238585
49.42409219
49.01005611
47.06997905
47.27182191
48.06586514
45.6113134
46.43695997
46.26232138
46.79609689
46.61482629
45.76639722
43.96049254
44.08012629
44.82205281
42.74130704
43.38724709
43.28003758
43.6052137
43.49568893
42.83850839
41.49809598
41.57703803
42.13904745
40.56091493
41.05201124
40.98025928
41.19391422
41.1233123
40.62562408
39.61484525
39.6697859
40.10097727
38.88560308
39.26527769
39.21466178
39.3624114
39.31457279
38.93103104
43.66813888
44.01406621
47.23438036
47.54890008
46.36943659
47.68088145
47.88469894
47.59508312
48.48122629
48.1799364
47.93667497
46.29772587
46.48583182
47.15675373
45.01726801
45.75606194
45.59273483
46.09072571
45.92201706
45.16214139
43.49996854
43.6124813
44.29788845
42.36094881
42.96664325
42.86503424
43.17416112
43.06968503
42.45454362
41.18451549
41.26231199
41.79367947
40.29686
40.76421488
40.69244021
40.90826222
40.83619699
40.36328473
39.38779397
39.44533085
39.85792042
38.69185578
39.05724435
39.00340859
39.16303028
39.11047287
38.74170588
42.31988279
42.65168087
46.02900437
46.32289606
45.04457779
46.70126318
46.7580221
46.48852505
47.31104417
47.03192733
46.94004507
45.57462277
45.75124932
46.30930206
44.45871866
45.11738093
44.96349844
45.43191534
45.27348247
44.59540487
43.06532184
43.17183067
43.80470989
41.99782266
42.56843136
42.47214442
42.76482713
42.6659685
42.08690163
40.87958677
40.95477337
41.46034204
40.03191756
40.47929317
40.40921364
40.62097403
40.5498953
40.09784198
39.15581331
39.21389586
39.61071474
38.48673309
38.83978637
38.78483861
38.94917209
38.89456985
38.53859356
41.0277109
41.34596512
44.89259159
45.17111144
43.79275777
45.78151347
45.71060599
45.46110553
46.22372414
45.96464352
46.00669778
44.89270758
45.05971192
45.51296087
43.92960398
44.51429409
44.36844752
44.81174354
44.66203357
44.05936847
42.65184937
42.7534417
43.336634
41.65213515
42.19018464
42.0983285
42.37704394
42.28307363
41.73704404
40.58630042
40.65850622
41.14148316
39.77202919
40.20244541
40.13474312
40.33969466
40.27076519
39.83634351
38.92480481
38.98225854
39.36579361
38.27752471
38.61997489
38.56517711
38.72986279
38.67487025
38.32991063
39.78832329
40.09409178
43.81506203
44.07912538
42.59802853
44.91150339
44.736143
44.5014726
45.21573812
44.97418839
45.12453037
44.24538738
44.40426714
44.75894159
43.4257804
43.94152551
43.80255521
44.22441772
44.08213634
43.54956508
42.25620215
42.353572
42.88989069
41.3215016
41.82852459
41.74040876
42.00745858
41.91753758
41.40288974
40.30451782
40.37394436
40.8361167
39.51974681
39.93530452
39.87002906
40.06765649
40.00118154
39.58205819
38.69794416
38.75417058
39.12639243
38.06856302
38.40194133
38.34799611
38.51056457
38.45613047
38.12060241
38.59510733
38.88888519
42.7915064
43.04259625
41.45377809
44.08718716
43.81587452
43.59308105
44.26994605
44.04147598
44.28926194
43.62765823
43.77954712
44.04141807
42.94396257
43.39478858
43.26173528
43.66514541
43.52924065
43.06252072
41.87614991
41.96980995
42.46183173
41.00370492
41.48108147
41.39622828
41.65314679
41.56671223
41.08205043
40.0330447
40.10001843
40.54246955
39.27560614
39.67761643
39.6145714
39.80533135
39.74119802
39.33589329
38.47665386
38.5314245
38.89373797
37.86233318
38.18790215
38.13514085
38.29434216
38.24096245
37.91353221
37.45107794
37.73256176
41.81417078
42.05475494
40.3617773
43.30495838
42.93932709
42.72576907
43.37301841
43.15507339
43.49631317
43.03545591
43.18133967
43.3555319
42.48120611
42.87046003
42.74248911
43.13002867
42.99961911
42.59525795
41.50974054
41.60017194
42.05009127
40.69705658
41.14606555
41.06405757
41.31212343
41.22874299
40.77275431
39.77061536
39.83544242
40.25899162
39.0392047
39.42849406
39.36743579
39.55204502
39.49002336
39.09761493
38.26129595
38.31458629
38.66793138
37.66008163
37.97880937
37.92733893
38.08271064
38.03059064
37.71021832
36.354443
36.62437055
40.87573151
41.10685504
39.32057289
42.56269149
42.09825492
41.89325546
42.51445057
42.30529202
42.74510359
42.46527819
42.60591582
42.69710637
42.0348588
42.36538638
42.24179987
42.61568896
42.49000135
42.14503775
41.15518972
41.24281261
41.65246373
40.40013861
40.82188856
40.74236788
40.98271142
40.90199513
40.47352509
39.51615166
39.57907667
39.98439537
38.80987721
39.18700292
39.12772492
39.30684625
39.24670561
38.86658192
38.05176681
38.10361976
38.44861861
37.46232206
37.77492055
37.72475631
37.87621092
37.82539844
37.51131354
35.30285931
35.56168204
39.97371276
40.19583558
38.32360745
41.85090698
41.28979042
41.09204144
41.69025403
41.48918994
42.02636093
41.91420997
42.05035989
42.06384462
41.60249555
41.87677985
41.75687915
42.11919922
41.99753894
41.70941099
40.81072154
40.89599279
41.26689111
40.11166856
40.50706918
40.42964729
40.66340635
40.58498064
40.18306656
39.26865871
39.32993132
39.71755362
38.58695029
38.95229907
38.89458731
39.0688561
39.01038437
38.64212046
37.84774439
37.89825566
38.23532168
37.26919157
37.57617429
37.52726288
37.674918
37.62538631
37.31703055
34.2944856
34.54251286
39.10580999
39.31984835
37.36627831
41.16215795
40.50807823
40.31636416
40.89585779
40.7012302
41.33253925
41.37857635
41.51115467
41.45359239
41.18163745
41.40180165
41.28486255
41.63776634
41.51942445
41.28590282
40.47452341
40.55788968
40.89123462
39.83032743
40.20005941
40.12435656
40.35267905
40.27615957
39.90006271
39.0271787
39.08703284
39.45733505
38.36973318
38.72355152
38.66720711
38.83722736
38.78022102
38.42353703
37.64882568
37.69809871
38.02749482
37.0806008
37.38232845
37.33459847
37.47865387
37.43034126
37.12731931
33.32472542
33.5642392
38.26724631
38.47438746
36.44452425
40.4921498
39.74944671
39.56316942
40.12604129
39.93710966
40.65796668
40.85630902
40.98574464
40.86269588
40.77000336
40.93783875
40.82333922
41.16857465
41.05290863
40.87215519
40.14497599
40.2268164
40.52352649
39.5548923
39.89942139
39.82511141
40.04902776
39.97405466
39.62325921
38.79084995
38.84949268
39.20269826
38.15758911
38.50000371
38.44484831
38.61117401
38.55544235
38.21018388
37.45460233
37.50274168
37.82461621
36.89637689
37.19309207
37.14646324
37.28715558
37.23998458
36.94202701
32.38558745
32.61703809
37.45470276
37.65552167
35.55357168
39.83826108
39.01235919
38.83127423
39.37827056
39.19465265
40.00033184
40.34577363
40.4722376
40.28610834
40.36583423
40.48300513
40.37050249
40.70938387
40.59595924
40.46624421
39.82081162
39.90139657
40.16219294
39.28432922
39.60396105
39.53080541
39.75110755
39.67738853
39.35155588
38.55893553
38.61653097
38.95274663
37.94992893
38.28097638
38.22686421
38.38996462
38.3353385
38.00145001
37.26466348
37.31176551
37.62618189
36.71627909
37.00813353
36.96252759
37.10010036
37.05398538
36.76092024
31.48249433
31.70407747
36.66698494
36.86180125
34.69309083
39.19882
38.29542183
38.11906961
38.65147162
38.47281251
39.357355
39.84664354
39.97050805
39.72047509
39.96795605
40.03578304
39.92512845
40.25846419
40.1468918
40.06687936