/*--------------------------------*- C++ -*----------------------------------*\
| =========                 |                                                 |
| \\      /  F ield         | OpenFOAM: The Open Source CFD Toolbox           |
|  \\    /   O peration     | Version:  v2012                                 |
|   \\  /    A nd           | Website:  www.openfoam.com                      |
|    \\/     M anipulation  |                                                 |
\*---------------------------------------------------------------------------*/
FoamFile
{
    version     2.0;
    format      ascii;
    class       surfaceVectorField;
    location    "1.89";
    object      Uf;
}
// * * * * * * * * * * * * * * * * * * * * * * * * * * * * * * * * * * * * * //

dimensions      [0 1 -1 0 0 0 0];


internalField   nonuniform List<vector> 
5999
(
(99.99805057 0.008311885229 -2.171823368e-21)
(99.99221574 0.007542928951 6.44071253e-21)
(99.99716101 0.0195460225 -2.139601137e-21)
(99.98948366 0.02518115143 2.187725739e-21)
(99.99540902 0.03743737087 -4.263215104e-21)
(99.98325515 0.05203923741 1.290208225e-20)
(99.99797941 0.04186488236 1.310365972e-21)
(99.97223998 0.09399299321 -8.44316824e-21)
(99.98832052 0.09234771436 -1.415612814e-21)
(99.99712794 0.07537484254 2.044637546e-21)
(99.99899496 0.04492871571 1.005319859e-21)
(99.98645057 0.1233177599 2.027640452e-21)
(99.99690524 0.06977580646 9.868859368e-22)
(99.99770824 0.05528526262 -1.02641579e-21)
(99.99620272 0.08779458286 9.868456294e-22)
(99.97939496 0.1964123903 1.960400261e-21)
(99.99589152 0.1098278343 0)
(99.99570775 0.1338133133 -3.533066151e-21)
(99.97365245 0.2942598034 -3.533047763e-21)
(99.99517255 0.1619936314 -9.150671366e-22)
(99.99460224 0.1939239338 3.076836464e-21)
(99.96695225 0.4217993411 3.32363081e-21)
(99.99411658 0.2293034888 4.087186906e-22)
(99.9937953 0.2673066892 -2.609941931e-21)
(99.9631731 0.5732619865 3.765115504e-22)
(99.99372144 0.3067084147 -2.58501702e-21)
(99.99398568 0.3457063764 4.223231924e-22)
(99.96610379 0.7283056654 -1.681554958e-21)
(99.99460525 0.3819614601 2.34373105e-21)
(99.99534226 0.4133977781 1.919010755e-21)
(99.97755571 0.8511314179 -8.255921621e-22)
(99.99631412 0.4374657295 0)
(99.98199908 0.02316152827 1.074674753e-20)
(99.97044578 0.01261896972 3.17384124e-22)
(99.97316339 0.05494290044 1.712615913e-20)
(99.95968817 0.04277788906 -1.505010009e-20)
(99.95655848 0.1051195056 8.944900805e-21)
(99.93629358 0.08985044011 -2.326024451e-20)
(99.94895267 0.1645024079 -1.525252111e-21)
(99.89648421 0.1648603994 4.477850487e-20)
(99.91341361 0.2077695216 -9.844848673e-21)
(99.9248222 0.2103937703 -2.114911099e-21)
(99.94271929 0.2070134981 4.146150736e-21)
(99.96460649 0.1476408717 2.060579678e-21)
(99.94511694 0.2413270809 2.000392012e-21)
(99.9268575 0.2652485882 2.042224179e-21)
(99.87747985 0.3492743803 -4.137704575e-21)
(99.90932661 0.3375497189 -2.740408328e-23)
(99.91700773 0.3831587738 1.960707922e-21)
(99.88906247 0.4258663452 -2.257190394e-23)
(99.81876903 0.5552342895 0)
(99.87873382 0.4946219704 0)
(99.84646825 0.56717734 -2.433808923e-21)
(99.88869156 0.5640343756 -4.769663283e-21)
(99.8734481 0.5962732689 -7.05082669e-23)
(99.83825041 0.6885064953 -1.072675351e-20)
(99.86416492 0.6501220971 -3.687461477e-21)
(99.8349902 0.8657299001 2.884535682e-23)
(99.85874491 0.814427395 -2.394335152e-21)
(99.79141663 1.000093369 -1.305153542e-20)
(99.82816759 0.9376146444 -3.185152129e-21)
(99.80927694 1.199544054 -5.803247877e-21)
(99.84169897 1.117926691 -5.498401612e-21)
(99.76234094 1.381346243 6.918421785e-22)
(99.80821798 1.284250975 -6.94933387e-21)
(99.81402947 1.5585371 -1.861510697e-23)
(99.85363172 1.436180855 -4.386344303e-21)
(99.77334103 1.785417942 2.195670142e-21)
(99.82389834 1.644199337 -3.274444348e-21)
(99.86512437 1.864674594 -2.242947728e-21)
(99.90624703 1.695695833 -3.815700682e-21)
(99.84189177 2.120833929 -1.427233905e-21)
(99.88638072 1.933212293 -1.776894067e-21)
(99.95140127 0.03083073663 -2.581793711e-20)
(99.94133401 0.01302422609 -1.290412919e-20)
(99.92706395 0.07472296324 -5.583333176e-20)
(99.9183326 0.04586484444 1.186093213e-20)
(99.88254693 0.1458666739 1.116403168e-20)
(99.86949005 0.1014141001 -4.725629683e-20)
(99.83739503 0.2486970537 2.850555856e-20)
(99.78954386 0.1930370677 5.13299947e-20)
(99.78202698 0.2717114996 -4.424219825e-20)
(99.86188419 0.2631188214 -8.467653354e-21)
(99.78737507 0.3000218945 -6.272108592e-20)
(99.80668573 0.3283883376 -4.239404633e-21)
(99.78550533 0.4420414382 -8.238755338e-21)
(99.75920339 0.4284343245 -4.104710894e-21)
(99.67128779 0.5147881946 2.881786175e-20)
(99.70446999 0.5507472611 8.078052748e-21)
(99.68427772 0.7101497345 -7.117533068e-21)
(99.64182497 0.6997218248 5.267407968e-21)
(99.51575623 0.839943658 -4.057466331e-20)
(99.60625977 0.8486102586 2.823293997e-21)
(99.5419267 0.9112540794 -1.762896375e-20)
(99.59264014 1.046864662 -7.217555763e-21)
(99.55941094 1.0469671 0)
(99.48516387 1.153730236 7.496543181e-21)
(99.52581334 1.161833459 -7.179138023e-21)
(99.47282258 1.550398383 3.482582639e-21)
(99.42392998 1.564400336 1.36337865e-20)
(99.3312041 1.72139282 6.748476423e-21)
(99.39286323 1.715779346 1.69217208e-20)
(99.39042944 2.180876608 2.44169108e-20)
(99.32171353 2.222661913 2.094983336e-20)
(99.22455165 2.436171047 2.513687288e-21)
(99.31116056 2.399976415 -4.670870784e-21)
(99.41543767 2.85788329 1.529671576e-22)
(99.33100141 2.947246001 4.440418713e-21)
(99.25014236 3.216861367 9.75616615e-21)
(99.35701027 3.124822688 4.537280378e-20)
(99.58512832 3.455116253 -1.353318293e-20)
(99.49988816 3.615038619 -2.5541978e-22)
(99.46363358 3.922438649 -8.173098422e-23)
(99.57067902 3.747028425 -2.681202952e-21)
(99.91439662 0.02696534309 2.592503152e-20)
(99.91592091 0.007015810784 -4.32902239e-21)
(99.86827041 0.07010101537 2.183409785e-20)
(99.87768679 0.02878798145 3.028835424e-20)
(99.78549728 0.14732642 -8.674508365e-21)
(99.79675074 0.0773593647 -4.274850919e-21)
(99.68055007 0.2805047896 0)
(99.66550345 0.1641382868 6.62285326e-21)
(99.61527517 0.2782728 2.010409492e-20)
(99.69873314 0.320639219 -5.862439664e-20)
(99.60312905 0.3216602391 1.511505117e-20)
(99.6115256 0.3822423163 0)
(99.538261 0.5630807772 2.098246295e-22)
(99.51890903 0.5093753695 -3.324504338e-20)
(99.39031532 0.5833906191 -3.322267851e-20)
(99.40925838 0.6675201396 6.733588944e-20)
(99.31671612 0.9374591915 -9.994376599e-20)
(99.28140915 0.8624249553 3.728654066e-20)
(99.09541496 0.9921381651 -6.689602136e-20)
(99.18128012 1.091661602 -3.331749326e-20)
(99.09158552 1.111158838 -5.467711996e-20)
(99.08965661 1.417513726 7.861889123e-21)
(99.05337597 1.374195178 1.56076813e-20)
(98.9351437 1.482191255 3.953592451e-20)
(98.97563452 1.539375738 7.796374873e-21)
(98.79858526 2.170966765 -1.668118323e-20)
(98.73604733 2.126141237 -7.380449918e-21)
(98.58999332 2.289061084 9.551641367e-20)
(98.66341117 2.349431253 3.100753569e-20)
(98.58916302 3.138471845 1.67405316e-19)
(98.48777736 3.108054321 2.254813514e-19)
(98.32669123 3.34647646 5.335627384e-20)
(98.44842855 3.390890146 1.156377987e-19)
(98.57781501 4.291256426 9.660745253e-20)
(98.428458 4.309571704 2.584157942e-20)
(98.28412481 4.644360693 -2.075186325e-19)
(98.46609787 4.627991975 -1.050171672e-20)
(98.94059958 5.420818074 3.411513729e-20)
(98.75602492 5.544808402 2.67057552e-21)
(98.6970696 5.960095618 -5.484827067e-20)
(98.91799137 5.810609024 5.847466187e-21)
(99.88574226 0.008422969407 0)
(99.90799713 -0.006314175148 0)
(99.81437263 0.03437620966 4.387531285e-21)
(99.85327785 -0.01147592154 0)
(99.68624284 0.09644279263 1.115819878e-20)
(99.73833556 0.01131380235 -3.55938349e-21)
(99.50868666 0.2439557239 1.839817581e-20)
(99.54656048 0.07154430153 2.453398027e-20)
(99.44668305 0.2019527528 -7.381107117e-21)
(99.50788077 0.3016492832 2.602746508e-20)
(99.4108421 0.2590102219 2.091538497e-21)
(99.39048799 0.3475131122 -1.06187738e-20)
(99.233444 0.5718796415 0)
(99.23801975 0.4817522576 -2.186446338e-20)
(99.07351707 0.5250572487 -1.797222199e-20)
(99.05642142 0.6525468054 4.459450211e-21)
(98.85233574 0.9969964545 0)
(98.84362147 0.8689653827 4.458972768e-21)
(98.59927893 0.9501089696 -4.613925052e-21)
(98.64068973 1.143874707 2.221352425e-20)
(98.53884079 1.13390646 5.757291154e-21)
(98.41708895 1.579190941 2.212750978e-19)
(98.3950828 1.487129163 -3.320503006e-20)
(98.23132846 1.575634856 3.580912915e-20)
(98.25548288 1.684364349 -2.925356571e-19)
(97.87974897 2.518545851 -1.436313929e-19)
(97.82371466 2.401386873 -1.47392761e-19)
(97.61770434 2.540849615 -1.448558742e-19)
(97.67715095 2.688438688 -6.881692453e-19)
(97.37380292 3.849145675 5.310550825e-19)
(97.25806622 3.718484863 6.728219987e-19)
(96.99986637 3.961379352 2.506342558e-19)
(97.13715991 4.123989796 5.980387012e-19)
(97.13113684 5.647353039 1.496695227e-20)
(96.91168324 5.540694399 2.296037905e-19)
(96.63789356 5.944619151 1.646323537e-19)
(96.9112904 6.074384231 2.190532268e-19)
(97.64460443 7.727613052 2.60783905e-19)
(97.2920881 7.763161134 -3.59697964e-21)
(97.14368677 8.371505578 -2.664327578e-19)
(97.58291506 8.303381294 1.836176415e-19)
(99.88178023 -0.02603789309 0)
(99.93258134 -0.0269690492 2.151130184e-21)
(99.78514473 -0.0352076636 -8.781800727e-21)
(99.86201204 -0.07477428155 -2.168124743e-21)
(99.61039505 -0.01137986453 9.137405542e-21)
(99.71603307 -0.09772991593 -4.353798855e-21)
(99.35269746 0.1018625862 1.194754652e-20)
(99.47016802 -0.08675350821 3.603042875e-21)
(99.30101484 0.03838756733 -2.759709442e-23)
(99.32634564 0.1917470484 -8.848791451e-21)
(99.23197246 0.1018310338 -8.9698717e-21)
(99.17942996 0.2021843558 0)
(98.91764527 0.4406453136 -1.797177832e-20)
(98.9615524 0.3221233902 0)
(98.77266314 0.3187409537 -1.23679945e-22)
(98.69997644 0.4770139704 -8.871886927e-23)
(98.34347978 0.8491049251 9.301240972e-21)
(98.38805601 0.6781813104 1.393538952e-20)
(98.09905553 0.6928678098 1.882160774e-20)
(98.06856343 0.9728286591 -1.534902608e-20)
(97.97354566 0.9054145194 -3.985443941e-20)
(97.67650951 1.438414771 -2.236046723e-19)
(97.68902054 1.307686013 -2.984905757e-19)
(97.49671585 1.34822715 -7.047354746e-20)
(97.47660122 1.501959363 -2.190080833e-19)
(96.77501067 2.431681157 -1.538614031e-19)
(96.76247479 2.244417847 -3.193590907e-19)
(96.49171886 2.332582185 -3.36830014e-19)
(96.4990533 2.554797728 -3.195927036e-19)
(95.72898331 4.011244599 2.277422099e-19)
(95.64932215 3.760865006 3.395531181e-19)
(95.26087123 3.923357454 9.541474704e-19)
(95.35429253 4.266963931 -1.875067495e-19)
(94.7573839 6.566429764 -2.349794665e-20)
(94.51010666 6.222153986 -1.351905013e-19)
(93.98952282 6.624924808 -7.293406122e-19)
(94.29639328 7.057553329 -1.541741466e-19)
(94.89634697 10.4421967 -2.690176328e-19)
(94.26726188 10.19366371 -2.199110766e-19)
(93.78087904 11.13515195 -1.046856447e-18)
(94.63450877 11.39784766 -7.287141979e-19)
(99.91831443 -0.07498792546 -1.630893598e-23)
(100.0033327 -0.05399403429 8.567552468e-23)
(99.79969383 -0.1362386888 2.256557402e-21)
(99.91985573 -0.1577472512 -1.038802649e-22)
(99.58452731 -0.1711857508 -1.180504549e-20)
(99.74915875 -0.2433937721 1.797010952e-21)
(99.24551275 -0.1117418141 -1.064978083e-20)
(99.45923714 -0.303377226 -1.792858015e-20)
(99.22210687 -0.2067688602 -1.531496118e-20)
(99.17883995 -0.01324752609 -8.357212142e-21)
(99.11753095 -0.1479300477 -3.348260404e-21)
(99.01828075 -0.04660043806 3.356912217e-23)
(98.64701325 0.160695437 1.360508021e-20)
(98.74193308 0.02965856899 1.387206359e-20)
(98.54781764 -0.03086798839 6.843997683e-21)
(98.40830894 0.134881346 2.364810281e-20)
(97.886788 0.4793163715 -2.871050532e-20)
(98.00785915 0.2775772946 -2.406791292e-20)
(97.71425476 0.2106126124 -2.368886113e-20)
(97.5741183 0.5131519876 -4.818720553e-20)
(97.50362392 0.4126601083 -2.231935197e-20)
(96.99998967 0.9487573612 -2.437944521e-19)
(97.06483794 0.7934430394 7.77184097e-20)
(96.85745467 0.77516339 7.349720479e-19)
(96.7729183 0.9520013398 -6.802727281e-19)
(95.67875588 1.816669193 -1.790929739e-19)
(95.7452309 1.578039035 7.066477362e-19)
(95.43825882 1.57366757 1.787192217e-19)
(95.34558856 1.847980963 -1.944510924e-19)
(93.86886163 3.290207345 3.801519367e-19)
(93.91988777 2.912877119 -1.000916951e-19)
(93.44045535 2.939812387 9.643712412e-20)
(93.35158669 3.383199984 9.640676338e-20)
(91.33561784 6.02904856 -7.852841631e-19)
(91.28169465 5.378267737 1.290431704e-19)
(90.43235833 5.510661564 -3.851964625e-19)
(90.45817197 6.352370973 -4.091417385e-19)
(88.50625797 12.45685168 -9.879928731e-19)
(87.77924982 11.24501743 -6.538524433e-19)
(85.87815135 12.60726794 -2.646826341e-20)
(86.14548569 11.77781305 -3.017757082e-19)
(87.58885857 13.96502268 -8.105437469e-19)
(86.58038544 14.01628609 2.92326959e-19)
(100.0089953 -0.1355849052 1.708854881e-23)
(100.1312357 -0.08555308338 -3.1895859e-21)
(99.87436652 -0.2621669641 -5.857259785e-22)
(100.0392872 -0.2546013754 1.387583192e-21)
(99.63029208 -0.3726267842 -4.590083924e-21)
(99.8534313 -0.4144984017 -3.021509311e-21)
(99.22615431 -0.3951455927 9.457486646e-21)
(99.5365852 -0.5599655264 -1.043127884e-21)
(99.2400005 -0.5138804247 9.96603675e-22)
(99.11263608 -0.3028518019 4.643855262e-21)
(99.10238096 -0.4693846097 9.60662643e-21)
(98.95578373 -0.3841481682 6.787313439e-21)
(98.4828786 -0.2496142747 -2.307469136e-21)
(98.63536069 -0.3728853812 3.59286121e-21)
(98.45653323 -0.4899759198 2.371418908e-21)
(98.24983143 -0.3447699913 7.192401947e-21)
(97.59302088 -0.1027292352 7.520468974e-21)
(97.79350896 -0.2970065938 -2.662365999e-23)
(97.53056056 -0.4486661145 -3.746915814e-21)
(97.27287076 -0.159620865 -1.628899478e-21)
(97.24455648 -0.2978740129 1.599451453e-19)
(96.53115503 0.1475037161 -3.437927163e-19)
(96.65817703 -0.005921463226 -3.462366193e-19)
(96.46142413 -0.08877378945 -8.454782727e-20)
(96.30641947 0.07824222149 -6.973538832e-19)
(94.88007079 0.6617700927 1.952604174e-19)
(95.04878603 0.4226700294 1.893105772e-19)
(94.75816864 0.3132936216 2.015460105e-19)
(94.54777194 0.5711369998 -1.956411562e-19)
(92.44573631 1.51348557 0)
(92.69388615 1.132821507 0)
(92.24579605 0.9565752655 4.499526713e-19)
(91.91823957 1.364576152 -5.586663396e-20)
(88.3706544 2.910059705 1.515578903e-20)
(88.81578716 2.220637595 -5.652850026e-21)
(88.06538486 1.83630061 -3.638054233e-20)
(87.39441323 2.558599894 6.176403118e-19)
(80.11124012 5.280169857 6.115759009e-19)
(80.74108327 4.376811125 -5.870745179e-21)
(79.87852381 3.705005075 -5.459636462e-20)
(78.94591688 4.642796232 -5.0918629e-20)
(100.1636827 -0.2032120619 -1.819050837e-21)
(100.3229278 -0.1192190338 1.007942613e-21)
(100.0208891 -0.4031038947 -1.0611915e-21)
(100.2278761 -0.3578417608 -7.475808676e-22)
(99.76279085 -0.5987141681 5.441507655e-22)
(100.0379979 -0.5969261838 -2.676112475e-22)
(99.31633837 -0.7206773511 6.157692645e-22)
(99.71410581 -0.8345411107 9.06736282e-22)
(99.37287887 -0.8529850797 5.412297639e-22)
(99.15639755 -0.649303179 1.578471934e-21)
(99.20851544 -0.8321710851 -1.542601785e-23)
(99.01952072 -0.7758116001 -1.54282119e-23)
(98.47291928 -0.7455671791 -2.366766258e-21)
(98.67833621 -0.8424752668 0)
(98.53361758 -1.009372631 -1.162738457e-21)
(98.2728448 -0.9066544799 -1.235512718e-21)
(97.53042346 -0.8158892226 -2.141899587e-20)
(97.79963809 -0.9712675943 -2.137278556e-20)
(97.59422744 -1.191935489 1.026911246e-22)
(97.2340015 -0.9593400323 2.055393943e-19)
(97.25574495 -1.115351134 -2.251401176e-19)
(96.39096189 -0.8414212415 -3.564406647e-19)
(96.57088933 -0.966217392 -3.995190179e-19)
(96.41215799 -1.099841478 2.23184348e-20)
(96.19591356 -0.9730458934 -3.478012004e-19)
(94.62505511 -0.7862373593 -1.791267562e-20)
(94.87047563 -0.9712494148 -5.007225784e-19)
(94.65272779 -1.152773786 -4.167327247e-21)
(94.35042936 -0.9692106921 -4.17467833e-19)
(92.09035947 -0.7503079796 -4.561569111e-19)
(92.47546462 -1.007164464 -3.5514212e-20)
(92.16646483 -1.288977001 6.49966705e-19)
(91.7163319 -1.054445472 4.172873021e-19)
(88.2280406 -1.143223756 9.928248004e-19)
(88.8964237 -1.450532187 5.007110391e-19)
(88.51126999 -1.952493837 1.953747591e-18)
(87.7534671 -1.737520028 -1.503443798e-19)
(83.10392894 -3.455181373 -1.267870472e-20)
(83.71227392 -3.446062257 -5.686726012e-19)
(83.66277458 -3.918851296 -1.678980385e-18)
(83.11290072 -4.030612783 -1.411414633e-19)
(100.3870337 -0.2724963439 2.077437532e-21)
(100.5799796 -0.152399807 1.017570237e-21)
(100.244628 -0.5473722021 3.096199436e-23)
(100.4871793 -0.4593992493 1.075948653e-21)
(99.98855001 -0.8296655128 1.061092482e-22)
(100.3043146 -0.7755836139 9.923536458e-22)
(99.52665982 -1.058873103 -1.529369056e-21)
(99.99335353 -1.103693031 -8.692791921e-22)
(99.62550738 -1.192407528 7.12251981e-22)
(99.3260316 -1.019697466 -1.088604692e-21)
(99.44334017 -1.201521744 -5.49753885e-22)
(99.22231143 -1.183148438 -1.088536183e-21)
(98.63870027 -1.273945519 4.273689805e-24)
(98.88501893 -1.329273634 1.162663063e-21)
(98.78664641 -1.532757848 1.162673367e-21)
(98.49112226 -1.486023996 1.162651813e-21)
(97.71942571 -1.564848847 2.136613202e-20)
(98.03778134 -1.659323234 1.260731665e-21)
(97.90224911 -1.924909181 1.25800523e-21)
(97.47371063 -1.774592172 -2.146050423e-19)
(97.54127597 -1.926888755 2.373187949e-19)
(96.60661301 -1.853958157 0)
(96.82450331 -1.931654181 0)
(96.71106205 -2.094484238 4.484991041e-20)
(96.46628475 -2.021328186 -2.760396281e-19)
(94.92426989 -2.198916247 1.969386702e-19)
(95.22038636 -2.310636156 1.971269609e-19)
(95.06925103 -2.52163629 -2.070532393e-19)
(94.74215448 -2.422778108 6.025589064e-19)
(92.65847582 -2.73762754 -8.501741482e-19)
(93.07746135 -2.863697909 -4.394919639e-19)
(92.88660699 -3.159574388 -4.558942663e-19)
(92.43447985 -3.06448907 -1.240630999e-19)
(89.6141455 -3.860121764 -2.503807497e-21)
(90.21728827 -3.935673827 4.598951253e-19)
(90.01287411 -4.360680079 0)
(89.4062593 -4.347031828 9.382259578e-19)
(86.58035233 -5.943778246 -4.842389439e-19)
(86.91440888 -5.882612572 4.645264257e-19)
(86.90168803 -6.151904057 4.581759285e-19)
(86.52748013 -6.180499488 -4.443389459e-21)
(86.6364392 -6.255308599 -4.356623888e-21)
(100.6780267 -0.3381784094 9.076483243e-24)
(100.8990113 -0.1827200409 2.686544349e-21)
(100.5438204 -0.683679978 2.009537624e-21)
(100.8131586 -0.5517642468 1.017681374e-21)
(100.3052896 -1.045727754 6.278034959e-23)
(100.6459575 -0.9357527205 -6.213091245e-23)
(99.85287259 -1.380396184 -2.051957589e-21)
(100.3685215 -1.3497257 -9.302799297e-22)
(99.98817326 -1.506187703 -4.972133554e-22)
(99.62049563 -1.379934948 -5.354413109e-22)
(99.79770909 -1.545723874 -1.066614931e-21)
(99.55783979 -1.568202538 8.899995991e-23)
(98.97451472 -1.779824357 0)
(99.24583151 -1.785514915 1.073399077e-21)
(99.19898794 -2.010131414 2.132377964e-21)
(98.88821507 -2.023424174 1.159688907e-21)
(98.13720308 -2.26411021 -1.167268175e-21)
(98.48183537 -2.288817318 -1.910093099e-23)
(98.418317 -2.575761184 3.622400873e-20)
(97.95461472 -2.515653992 2.558096554e-20)
(98.05897382 -2.651201776 -2.680939666e-20)
(97.12720984 -2.76479577 -2.504008415e-19)
(97.36096772 -2.794680124 -5.925743938e-19)
(97.29562395 -2.968091406 1.288909939e-19)
(97.03989708 -2.946903578 -2.939822806e-19)
(95.62960852 -3.396333435 -6.464203872e-21)
(95.93778732 -3.440635855 -9.556173692e-19)
(95.85105369 -3.655057203 -2.048663043e-19)
(95.5216163 -3.626002713 -7.951757975e-19)
(93.69268735 -4.258235565 0)
(94.10171331 -4.292322477 -2.016582185e-19)
(93.99204145 -4.574015736 0)
(93.56397995 -4.564440271 -3.065194697e-19)
(91.21610511 -5.601064712 8.217881612e-19)
(91.74437844 -5.583968411 8.144153466e-19)
(91.61580479 -5.951987105 8.211043104e-19)
(91.08907244 -5.996957628 1.341102634e-18)
(88.84349804 -7.336212604 4.128477728e-19)
(89.09960782 -7.284273115 1.077337377e-19)
(89.08120357 -7.483450095 5.034091824e-19)
(88.79809989 -7.502887532 -3.88095106e-19)
(88.8772725 -7.558822756 6.598097793e-20)
(101.0305426 -0.3954689956 3.695986869e-21)
(100.9106855 -0.8021167113 -9.904114298e-22)
(100.7004517 -1.230729197 -9.903791366e-22)
(100.2743233 -1.66340717 0)
(100.021914 -1.701671493 7.600318596e-24)
(100.0037493 -1.898410614 2.026307446e-21)
(99.4554686 -2.219389262 -1.076860034e-21)
(99.73568746 -2.173927371 -1.168041325e-21)
(99.4308815 -2.47557242 1.154923776e-21)
(98.73905263 -2.855124145 4.251279947e-21)
(99.08870513 -2.810774096 -2.860681426e-20)
(98.6224392 -3.126229746 -2.469177727e-19)
(98.75308671 -3.23699902 -1.978843605e-20)
(97.87356033 -3.507608063 3.260222611e-19)
(98.10833479 -3.493067539 3.300978857e-19)
(98.08672039 -3.663609433 7.282640753e-19)
(97.83492235 -3.688021325 5.881620752e-20)
(96.59614768 -4.329152913 9.016490645e-19)
(96.89964847 -4.316352783 -5.37591713e-19)
(96.86738521 -4.519527808 -1.879777626e-19)
(96.5484458 -4.548152056 1.697934136e-19)
(94.96123763 -5.387847264 3.78594353e-19)
(95.35311168 -5.354320288 3.800921499e-19)
(95.30625276 -5.616839309 3.83953275e-19)
(94.89880237 -5.671398437 -6.249228722e-20)
(92.83508295 -6.882562968 1.981110398e-20)
(93.33207442 -6.808570081 3.684904763e-19)
(93.25943448 -7.156781013 -3.60213224e-19)
(92.7479659 -7.248145515 -8.296712818e-19)
(90.64129283 -8.58855619 -4.561067187e-19)
(90.88185622 -8.554241186 -8.157809121e-19)
(90.87125639 -8.758957734 -3.607301453e-19)
(90.58586881 -8.75952172 1.126368648e-19)
(90.66210946 -8.827414925 -3.12476007e-19)
(83.18153208 -2.928471825 1.3837088e-20)
(82.4753877 -3.549668068 -1.166321308e-20)
(82.50905949 -2.895848278 5.699598057e-19)
(86.59258525 -5.661490957 -4.844521584e-19)
(86.24431595 -5.722114811 -9.794865348e-19)
(86.19351117 -5.973502093 -8.693904652e-19)
(86.3071168 -6.051731275 -3.262225756e-19)
(88.86072317 -7.13139551 -5.105975026e-19)
(88.59785321 -7.187710686 7.307078176e-19)
(88.55398943 -7.359245938 6.679229886e-19)
(88.63639395 -7.413474981 2.030710915e-19)
(90.65544627 -8.387201433 -3.705823516e-19)
(90.41591804 -8.420456616 2.853711297e-19)
(90.35979457 -8.588288446 4.244512585e-19)
(90.4343924 -8.655000556 0)
(81.1275557 5.817828923 -1.153975681e-18)
(79.38275513 6.427671494 6.614157841e-19)
(80.67387438 6.807217318 0)
(89.84972101 -3.414396918 -4.626474499e-19)
(88.97469546 -3.817357713 -4.947713328e-19)
(89.22314246 -3.299704437 -1.44196707e-18)
(86.92590766 -5.602141837 4.64727141e-19)
(86.60288989 -5.365312314 4.884579841e-19)
(86.9627297 -5.324357149 6.160976699e-22)
(83.79476505 -2.910367692 -5.427583689e-19)
(84.36419125 -2.95684233 1.09599349e-18)
(84.26359947 -3.403311076 5.548632285e-19)
(91.35887163 -5.222783725 -4.297048481e-19)
(90.67657476 -5.636108214 -5.46512373e-22)
(90.81590964 -5.223128511 4.287304561e-19)
(89.11638782 -7.083896074 -8.184103271e-19)
(88.87593427 -6.924451607 -1.664185463e-18)
(89.14755048 -6.881968816 -8.19432589e-19)
(87.27039178 -5.559510877 1.155699641e-20)
(87.23576412 -5.823908717 -9.115105811e-19)
(87.7988092 -6.708907734 1.273159546e-19)
(87.81038971 -6.47250444 1.004056206e-18)
(87.51020132 -6.533553538 9.511507742e-20)
(87.46346212 -6.742576479 -3.300435088e-19)
(87.56308254 -6.802710437 6.679871906e-19)
(86.88376575 -7.723479889 2.110575889e-19)
(86.73618176 -7.78286639 -6.297020075e-19)
(86.72244088 -7.66355729 7.059262735e-19)
(86.88448591 -7.608469676 5.123751692e-19)
(86.68143044 -7.766840609 1.026865941e-18)
(85.50861406 -7.08299173 6.411230684e-19)
(85.45087591 -7.198813461 -2.232810322e-19)
(85.68918848 -7.042152558 5.428289054e-19)
(85.67986508 -7.178553171 1.384332256e-18)
(85.50778077 -7.238554175 1.077572245e-18)
(92.92386282 -6.531064722 3.421745936e-21)
(92.32313581 -6.958492765 4.751244482e-19)
(92.42213172 -6.590315287 3.798812507e-19)
(90.89592903 -8.354437973 -7.304349694e-19)
(90.67236194 -8.190609365 -1.503479315e-22)
(90.92194029 -8.154667745 -3.711941806e-19)
(89.38165097 -7.042806461 9.247504204e-21)
(89.34924598 -7.240908782 3.654536582e-21)
(89.75591002 -7.935263197 2.937196462e-19)
(89.77725197 -7.742826429 9.433045597e-20)
(89.53572214 -7.781591744 -6.970940633e-19)
(89.48331227 -7.941686479 6.594798505e-20)
(89.55599026 -8.000863889 -3.713599604e-19)
(88.68346182 -8.637938476 5.748335246e-19)
(88.59016741 -8.636927127 2.953101202e-19)
(88.64302931 -8.601274134 -2.85408403e-19)
(88.72425434 -8.598342306 -2.82518077e-19)
(87.95505551 -8.140538863 1.029866338e-19)
(87.88483303 -8.212232601 1.708345189e-21)
(88.09753964 -8.108223734 3.785026109e-19)
(88.06932595 -8.196093634 7.265367041e-19)
(87.9218974 -8.232564404 1.706566166e-21)
(91.1459733 -8.317089152 -3.51263467e-21)
(91.1238352 -8.519369311 3.587254303e-19)
(91.66092865 -9.218720749 -2.79614042e-19)
(91.63581526 -9.097834623 -3.758091466e-19)
(91.53055353 -9.243568564 -5.678892651e-19)
(91.52176762 -9.136738903 1.021646588e-20)
(90.11473118 -10.12073869 2.05053663e-21)
(89.91725925 -10.11174044 2.65447816e-19)
(90.07088937 -10.06409259 -2.640934214e-19)
(90.21531861 -10.06686493 2.325884168e-21)
(89.3921982 -9.348871104 -2.773012193e-19)
(89.3079017 -9.395014884 -2.806153227e-19)
(89.50240554 -9.346324881 -2.778946572e-19)
(89.44376058 -9.39454532 2.786942189e-19)
(75.21180917 -4.875966026 -1.707406439e-19)
(76.07978591 -4.683007166 5.099660619e-19)
(76.25810543 -5.420655182 -1.284879583e-19)
(75.27913201 -5.714488908 1.885461038e-18)
(75.66268791 -5.843132944 -4.00678727e-19)
(81.39835215 -6.606891355 2.638441175e-19)
(81.20206904 -6.317336178 -2.767667678e-19)
(80.87545681 -6.566685536 3.999226449e-19)
(81.04775596 -6.871338445 -8.788679776e-19)
(81.21268669 -6.865991196 -3.313584997e-19)
(70.04233667 6.323635915 5.979028476e-20)
(69.1206202 7.563302877 8.196761793e-19)
(68.96003269 5.271350232 8.059475634e-19)
(67.60029497 6.568986094 -2.14078262e-19)
(75.09206027 -4.064191734 -6.831571509e-19)
(74.31521182 -5.200645343 -6.844777047e-19)
(74.12074541 -4.184556519 4.56479847e-20)
(85.33831176 -7.139873343 -6.463832272e-19)
(85.3404219 -6.988842635 -7.52931118e-19)
(85.51983467 -6.947088263 -3.200503975e-19)
(85.28369139 -7.101298221 2.19490605e-19)
(84.08021167 -6.622734516 9.06048804e-19)
(84.05812746 -6.487244874 -4.560039686e-21)
(84.24808911 -6.405986741 2.346241247e-20)
(84.26813553 -6.54018396 1.803330709e-18)
(85.0983967 -4.952237088 -1.029503193e-18)
(85.51749057 -4.897116125 5.286757836e-19)
(85.50485637 -5.226829993 8.737209935e-19)
(85.13473055 -5.322811046 1.37834142e-19)
(83.88833625 -6.718590583 3.525432701e-19)
(84.09229472 -6.758468704 -4.597065035e-19)
(83.8627396 -6.830947622 -4.910381577e-19)
(83.9293749 -6.831699628 -9.789981436e-19)
(85.33930961 -7.213004606 -9.758878316e-19)
(85.23166458 -7.230464635 1.818378654e-21)
(85.25202563 -7.163458399 -2.740880348e-22)
(81.68471772 -6.373336177 0)
(81.85420164 -6.626814383 -4.9588867e-19)
(81.52819952 -6.858981934 5.055357688e-19)
(81.66713939 -6.84843481 1.789673866e-21)
(83.86674792 -6.579894627 -5.587742454e-19)
(83.67021224 -6.684888457 -1.150780642e-19)
(83.6541562 -6.803793143 7.2417514e-19)
(83.72505758 -6.8027781 7.230216767e-19)
(87.80917637 -8.178101503 -3.499404593e-19)
(87.83821185 -8.08587304 5.196020553e-21)
(87.98073952 -8.050985559 1.005019237e-19)
(87.77206719 -8.158014742 4.821003269e-19)
(86.84208917 -7.821201044 -4.712312394e-19)
(87.04163675 -7.668587222 -7.004151094e-19)
(87.03887464 -7.778819523 -5.99386656e-19)
(86.89429078 -7.835270437 -4.727906284e-19)
(88.08858902 -6.648057908 -1.206414303e-21)
(88.07642157 -6.875699036 -1.0908525e-18)
(87.75501879 -6.908862142 -9.962498665e-20)
(87.85056747 -6.964164036 -1.065490121e-18)
(86.74353991 -7.845915075 -9.347100525e-19)
(86.8174609 -7.871002682 1.210196072e-21)
(86.72481301 -7.897702255 3.071189104e-19)
(87.79470881 -8.223806003 -3.119667044e-19)
(87.69891677 -8.235994624 -3.108271683e-19)
(87.73577725 -8.196795026 -6.335699888e-23)
(85.41994922 -7.262717797 -3.253404154e-19)
(85.31502024 -7.281114929 -6.540853557e-19)
(86.64546188 -7.872809846 -1.022396592e-18)
(86.65776876 -7.81927117 -6.199108169e-19)
(89.25755199 -9.348875536 -5.604676192e-19)
(89.34147069 -9.302314151 -2.777116561e-21)
(89.45084737 -9.300324265 -5.535783556e-19)
(88.62805809 -8.674570214 2.802731408e-19)
(88.76596353 -8.636417953 2.902971138e-19)
(88.72365176 -8.676823877 5.738817095e-19)
(89.99546746 -7.899534375 -1.865419958e-19)
(89.9744868 -8.093079789 -5.652068379e-19)
(89.70148117 -8.095965538 1.304064957e-19)
(89.77346786 -8.157352174 -3.013115137e-19)
(88.53396289 -8.673707253 -1.347536275e-21)
(88.56984363 -8.712639172 -5.966134773e-19)
(88.45240291 -8.706005394 -9.143411365e-19)
(89.17033319 -9.396010423 -5.66882268e-19)
(88.98263861 -9.390885043 2.581534417e-21)
(89.12140635 -9.34927383 -2.835155735e-19)
(87.84737367 -8.250695269 0)
(87.75382565 -8.26260063 0)
(88.41971398 -8.668951794 2.979981924e-19)
(88.49786819 -8.637762764 2.597117612e-21)
(89.9571346 -10.16813083 -2.669937757e-19)
(90.26395226 -10.12320257 2.632550568e-19)
(90.1637239 -10.17628889 2.663607088e-19)
(91.6582399 -9.327410964 2.842915397e-19)
(89.75663684 -10.15797138 -3.936923796e-21)
(89.79664322 -10.21072358 -8.147701827e-19)
(89.45967094 -10.19324058 -1.109299446e-18)
(89.22070918 -9.441571577 2.899485608e-19)
(89.0309359 -9.437087024 5.420321066e-21)
(89.43601978 -10.14268234 2.621999124e-19)
(89.72704494 -10.10167672 5.38529186e-19)
(88.68806262 -0.6341628783 -8.636740313e-21)
(87.43779727 -0.8271948425 0)
(88.03277103 -0.2341995749 0)
(83.31189379 -2.332818211 2.276873084e-20)
(83.9259093 -2.425509408 -7.64142483e-21)
(81.7586205 4.908407871 -1.76647213e-18)
(82.26293613 4.109364243 -1.745856746e-18)
(81.51911762 3.599346239 1.315728299e-20)
(80.72263504 -0.3887979905 0)
(81.11059735 0.369109908 -1.200618658e-18)
(79.70796698 -0.111075951 6.536945656e-19)
(80.25457507 0.8089620997 0)
(75.96839073 -3.861749141 0)
(75.06301914 -3.142277474 0)
(75.92908719 -3.123141836 -6.530449734e-19)
(71.33471796 7.174464945 -7.3914859e-19)
(72.10651772 6.069025776 -7.510124059e-19)
(71.12993114 5.267364604 7.538032471e-19)
(85.11362272 -4.59807145 -2.0586951e-18)
(84.69851364 -5.058713724 -9.054617498e-19)
(84.65844532 -4.651052305 -1.037702198e-18)
(83.83353804 -6.440593354 -4.553120608e-19)
(84.02984308 -6.348029064 -2.072162811e-20)