/*--------------------------------*- C++ -*----------------------------------*\
| =========                 |                                                 |
| \\      /  F ield         | OpenFOAM: The Open Source CFD Toolbox           |
|  \\    /   O peration     | Version:  v2012                                 |
|   \\  /    A nd           | Website:  www.openfoam.com                      |
|    \\/     M anipulation  |                                                 |
\*---------------------------------------------------------------------------*/
FoamFile
{
    version     2.0;
    format      ascii;
    class       volScalarField;
    location    "0.8";
    object      omega;
}
// * * * * * * * * * * * * * * * * * * * * * * * * * * * * * * * * * * * * * //

dimensions      [0 0 -1 0 0 0 0];


internalField   nonuniform List<scalar> 
3259
(
31.9888146
31.9898013
31.98765577
31.98238272
31.97701667
31.97228358
31.97012832
31.96811568
31.934645
31.93336303
31.93223353
31.9312122
31.9553566
31.9632095
31.95414937
31.93065539
31.90446624
31.88325724
31.85371384
31.84365731
31.80592352
31.8022858
31.79902682
31.79598581
31.9573316
31.97590934
31.95395183
31.90425689
31.84601727
31.79756825
31.74747013
31.72547709
31.68161663
31.67458745
31.66876791
31.66381717
32.10570286
32.11982929
32.0507378
31.94779194
31.83859747
31.74424558
31.66097672
31.61879157
31.56236614
31.55057447
31.54168708
31.53444194
32.69327025
32.65241171
32.41132683
32.15178278
31.92802444
31.74484864
31.60486733
31.52798595
31.4504237
31.43057268
31.41727625
31.4075452
34.9784671
34.51750593
33.45179472
32.69310585
32.19437075
31.83100428
31.58440629
31.45670984
31.3468549
31.31357312
31.29448974
31.28162773
46.47107366
43.25829194
36.25939806
33.87486941
32.73451294
32.04548242
31.60455341
31.40694439
31.25127157
31.20027384
31.17304512
31.15640319
71.70761093
42.76544038
35.99915659
33.62368165
32.40902382
31.68025355
31.37545493
31.16431608
31.09037128
31.05277382
31.03162699
134.8994495
52.43483407
38.95689433
34.80779481
32.89560715
31.80185017
31.36078026
31.08570536
30.98573565
30.93541442
30.90905484
169.1279625
61.01190089
42.0576857
36.12289929
33.4393409
31.95042966
31.36176761
31.01546582
30.88724638
30.82296787
30.79075045
170.0018289
66.18981598
44.68729133
37.34120495
33.96775156
32.09946497
31.36944841
30.95292135
30.79751836
30.71846473
30.67981769
157.9295833
68.42309346
46.52845953
38.29328423
34.39741243
32.22630746
31.38007583
30.89747799
30.71543667
30.62248732
30.57736181
158.4168767
80.65545195
202.9917533
164.4632805
201.315364
204.6793051
182.6627119
199.0621369
179.9886472
45.85751627
73.65339198
43.05278435
461.3113052
162.9650555
127.7502375
57.04377826
46.51699736
1559.744628
1098.280262
167.1798121
69.69516834
60.59891748
898.2048485
1226.783854
171.0514887
76.84366573
72.05677019
514.9853729
678.374233
1963.843895
337.150658
391.3889613
1068.051692
485.8206068
124.4059148
392.8266174
751.6975944
1240.349165
1562.125993
186.2718532
1094.680206
957.57359
777.4257785
1091.334819
183.7082855
708.3654763
879.200952
205.2756663
673.6997632
534.380613
948.0851218
697.1779344
205.9504018
402.8527376
496.5476999
2884.448114
3316.277079
331.4471092
1727.645655
2681.838826
468.578293
5370.997178
159.8587904
79.25395405
77.83982531
5611.481358
744.1087677
824.7415367
137.2101095
348.3296888
115.0153339
842.2171147
1068.905221
189.6774724
411.2350086
350.858941
517.228584
422.4634539
192.3360119
73.41358645
142.6663038
70.22978726
74.69870047
3664.808985
324.6222216
2605.513606
353.7674438
1917.093131
292.8253895
1267.187565
1250.394719
1031.962873
1054.907768
2014.108675
4521.556483
576.5929673
2410.478996
1332.751333
5056.289799
2860.438561
600.4863359
627.1124937
710.0502974
5010.870089
749.8274582
710.8347963
1311.567706
1324.457628
1012.824378
350.7635472
341.3552386
353.3146564
352.2542195
1005.932546
924.0264038
310.9145133
284.9038289
336.8384335
318.5824535
941.6829565
750.0890682
5236.120417
763.6657023
1260.402742
930.3572323
450.3883194
1131.068471
1867.462073
5842.508637
602.0250724
3303.836338
1889.55055
2574.35468
1072.190237
2968.38276
4194.106388
139.3635856
374.7440949
127.3371056
148.8872241
1465.879063
3552.261268
3719.319926
1175.101351
957.0265065
2632.481255
1938.499893
4411.717252
4345.621102
1172.670948
926.2341784
3199.170606
3540.760399
523.672581
229.4534666
193.2036012
274.3903348
241.8989618
547.5831525
1273.53511
4360.936029
4420.032602
1488.243177
1834.899748
1689.887961
829.7836451
610.064584
319.041886
330.7404865
850.8433133
347.2354084
352.5809651
334.8145218
344.3306949
835.7218977
436.4340482
897.3471497
728.9649474
4879.524097
1628.95222
1981.709136
1466.50738
5320.288935
5389.415253
1290.564695
1681.625594
5821.181746
1255.601551
513.0765734
1253.47219
4122.020827
2841.394228
947.1972888
4862.204667
5674.76799
3721.604125
1090.082326
673.7965252
1767.118876
1199.301817
608.0297924
386.0268732
1085.606035
3900.107076
4913.101006
1393.962892
1193.177352
3763.346461
3908.567889
2881.742985
2730.772783
979.3720842
4724.268269
4636.387623
3404.321231
4596.957568
4598.073516
1142.191399
4495.709836
2963.29351
2994.480376
3369.526901
1815.075601
862.7721275
930.4777562
3809.341619
1082.170753
1221.78752
958.0968836
1041.522998
3566.131222
3621.783864
1009.365308
1189.199935
2291.98139
2394.215913
877.6796448
3399.433442
3421.860571
4337.537488
2341.605065
1958.60925
3300.950802
2315.503505
599.329363
1651.923881
2188.629006
4259.12258
4321.621793
1283.724146
1429.666425
4493.681555
4239.448633
1589.961472
1855.460817
1271.713338
1480.753346
5471.119165
2917.926126
3187.241006
1980.470546
2806.445321
5750.276482
1340.240117
5609.066933
4822.779147
5586.826989
1434.335116
5777.068941
66.30229786
43.52999817
37.23118677
5725.914592
5701.831646
79.40831996
5966.006029
342.1531147
286.429437
173.3756237
311.3830276
231.4012605
492.9236377
1754.33005
313.1105918
333.4130396
55.02453645
64.6983136
125.1588451
402.8394195
780.5867153
1145.979297
868.5625483
964.2578923
3123.593555
696.5002161
613.6835477
366.2608512
1245.003819
1587.042782
565.1401179
4536.63489
3815.632993
5757.191154
5142.093963
847.2914585
2868.804008
5195.184667
3581.541946
4006.408694
5542.013756
1547.641059
1250.126697
753.17685
180.2823288
143.3556061
250.9201774
916.0168181
2412.588191
1709.847424
96.58393584
121.8467299
299.7105897
2990.32678
1963.649009
1517.889651
3829.903332
3030.7734
2208.539385
4024.671464
3672.521228
5700.641901
5404.797254
3921.194407
784.3906259
843.356618
1671.06388
5215.603735
2779.887222
3110.989689
4345.738398
2623.002897
3048.946186
5132.803973
5075.763572
3248.141969
3449.323437
5200.653662
5119.012516
5320.543507
813.9267812
1629.975779
1364.755938
5786.628754
5627.451964
5531.826943
4298.925487
3982.546288
2310.416266
1294.467387
1489.389509
1435.039507
3435.383222
5648.908415
4811.838097
5705.868336
5460.635792
3903.601427
201.5452317
285.5113581
922.4915417
3761.856559
3675.898284
3852.356038
3834.072135
3638.470792
2358.486581
2336.005472
2380.844563
2361.911456
3644.358732
4446.61073
2528.192148
2547.082326
2427.628457
2498.317873
4521.25505
3346.475007
2137.401418
1926.805638
2318.866515
2255.129306
3433.931147
4341.172103
2590.664911
2608.072974
2567.044711
2576.979376
4384.73741
3948.630254
3876.657052
4050.298691
3860.71917
5893.634613
6112.253277
5701.546209
4327.8201
5942.386177
2471.808783
3479.854512
2444.23015
3267.367313
2445.047635
978.2003408
3365.440419
2473.310582
5376.166362
5575.140665
5771.456715
4351.108932
4961.633204
1093.107611
5514.699293
5782.122353
5423.297472
2810.670297
2031.032687
2850.087603
1504.084585
2178.119584
2898.626704
3182.626199
2949.21558
4054.374184
2552.705727
2417.333933
3469.803293
2518.975587
3799.16765
3811.504131
2403.151292
2384.717404
2431.568488
2401.627729
3835.177076
2831.96429
1709.133518
1737.63561
4670.252927
4662.478513
3977.27661
5095.056132
4912.689809
4738.113058
4680.196231
4897.485685
3718.773794
2036.022454
2268.341933
1782.48864
1869.733429
3177.627787
5438.442002
4598.175728
2528.354514
5779.923255
5535.855492
5515.17181
3568.141168
5427.227604
5256.267506
2106.377637
2371.814189
4457.655946
2292.907639
1578.76316
1553.426816
1734.801571
1678.925034
2423.536542
3598.061358
3364.349917
2193.406214
3214.107198
3371.057292
3024.471024
3184.639754
2155.232743
3228.928859
3159.899021
4069.613284
3018.795482
4295.983767
2650.093634
2664.580029
2618.008561
2631.737233
4280.498071
4275.162961
2923.274613
3379.896462
2695.718867
2760.3064
4257.283305
5087.578411
4948.35951
5278.793521
3681.787975
4323.962992
3009.545098
4914.862283
4978.692215
4900.838049
4912.772818
3072.873188
2205.536635
4190.389216
3549.484348
4823.802902
4958.847019
2544.950419
5392.953437
3517.05339
3758.17085
2639.39415
3153.642881
5484.287915
5524.348086
5349.290645
4091.655074
4684.301977
5868.111068
5568.804749
31.94400833
31.9498486
31.95030039
31.96514617
31.96253718
31.96598335
31.9556493
31.95900099
31.94876247
31.91631424
31.93788243
31.90452067
31.86808855
31.91147011
31.85706154
31.82480938
31.8884054
32.02257947
31.94977432
32.03985217
32.06265764
31.97549635
32.05523607
32.03028988
31.96209696
32.01287728
31.95147513
31.91771524
31.92868187
31.85715243
31.85917322
31.83436434
31.77141356
31.80743582
32.40925139
32.08994529
32.4360465
32.47267347
32.1180627
32.42042688
32.33734874
32.06956134
32.2852335
32.14001896
31.97469491
32.08907115
31.93821988
31.86548171
31.89225386
31.77202716
31.76379114
33.82968691
32.64595998
33.9308913
33.95370779
32.64016896
33.69052535
33.27092232
32.46441263
33.09131434
32.66519696
32.21576112
32.53775435
32.20079008
31.98078812
32.10524461
31.87093357
31.78502963
43.5785401
34.80282432
43.54631325
41.08726823
34.60169777
38.90350517
36.01680625
33.65944704
35.29382579
33.87973151
32.85578772
33.54436549
32.76910867
32.30189533
32.57013184
32.10511943
31.91251632
63.21034762
61.09541875
46.31307734
49.27181797
43.34800922
40.5936264
40.71370447
36.28212706
34.30128676
35.45262019
33.75090522
32.96236321
33.36329171
32.51575766
32.18770549
95.74768475
67.97781265
56.76960637
49.92787382
39.95716423
37.02635717
38.30758341
35.17835079
34.06090727
34.50836904
33.09552284
32.64310014
152.7268366
94.50235689
84.95417647
59.1165722
43.98772027
40.86763134
41.4901678
36.79490354
35.53510627
35.81087148
33.77170138
33.25578026
172.3178725
109.1181925
105.2391559
65.1343488
47.32140399
44.78808941
44.21252844
38.33161222
37.15936293
37.06374548
34.4422196
33.93820878
166.3313411
111.8530048
111.8268349
67.94910754
49.66858128
47.92866006
46.2279373
39.53709336
38.6311317
38.08406347
35.01492088
34.59639486
153.1312114
114.8866128
116.0166113
50.01912941
39.78882513
35.12580558
145.8812904
198.1930219
223.6810587
91.78238763
107.6294797
91.23164539
200.1665277
287.5384567
290.2467568
231.6049031
252.3933313
175.7106852
202.5964109
269.8593246
267.5092464
290.1803382
288.4147252
205.9249501
184.7898065
216.4534633
212.4611081
244.2917527
239.4653105
197.0553183
208.2123378
204.5965207
177.9031029
1460.666972
1500.064017
1421.312051
63.31802555
1919.045147
1363.086518
65.35608361
70.60627803
81.96325284
45.01721895
58.97977659
52.11392451
439.5624856
505.3447359
540.5658826
206.5743346
244.4636978
199.6850195
82.14598351
70.56927066
103.6237442
53.42505332
62.7718846
68.07529019
52.51352374
57.52771987
49.86745452
1547.810925
2382.502356
2389.004457
1568.082533
1598.016412
1128.041058
103.588332
96.88137124
157.1573787
67.00340442
81.80783999
85.33166114
73.09718481
77.74570346
63.92890251
917.7744403
1124.721289
1090.874863
1655.590028
1640.856932
1213.003189
111.5915091
109.9680145
172.3187995
75.61619491
92.13607823
93.35199868
88.17415057
90.45015363
73.99061543
533.6935926
690.1505074
659.6036442
990.7254734
917.4648219
651.4793702
1303.387761
1415.892301
2268.944312
358.3648223
588.1751958
523.7048895
461.9166076
447.6540816
383.6446359
1026.785297
1482.243377
1537.600642
593.5789932
631.6046097
508.9036936
160.6566546
188.7461198
137.903807
416.3741146
317.9570575
292.17394
455.0610769
433.8046757
659.5732388
1251.648074
1680.615189
1670.874868
2382.676271
2371.567123
1555.048721
277.1358388
285.8276236
188.2549678
1073.567196
547.3708101
560.2416568
588.7783473
593.8841547
981.3747158
847.9792144
492.9454394
473.8635005
559.4183343
557.0043304
1042.574808
177.1381245
258.2547912
273.3942649
738.5311533
1121.086715
1018.936958
1061.871707
1038.143986
862.3109765
279.6547026
272.9823643
204.3873666
652.5652789
492.4642864
503.6244662
302.1313163
314.2651341
589.0082208
913.6085645
575.2708796
583.1875196
515.020269
526.3732362
780.9913208
206.1672671
286.9140742
282.0376349
412.3257368
495.421432
478.4764487
632.0641999
605.603507
480.2964021
503.8462402
1199.129517
643.9031604
1262.606905
750.4700095
117.3397009
111.6372767
164.6152788
78.99431475
94.60791385
94.46158799
94.09143835
94.52103169
78.49881533
778.3223922
1170.269196
999.4721078
924.4248744
904.7489547
801.4408653
213.4964374
130.8865152
102.1703959
268.1120579
244.6354839
322.8813106
101.4370889
122.4583963
150.311912
865.9648719
999.1411308
964.2827937
1430.22209
1327.911756
1026.233502
225.6359763
221.1468948
187.5135225
382.649026
274.8247356
268.3340958
258.8278614
266.0742566
373.5262699
472.1240475
286.3526507
298.1229162
270.9732059
282.8023087
458.1495101
194.4820892
234.8791606
229.9736578
109.9974597
122.0084303
138.5988942
160.3675493
71.03117996
100.0675671
85.50126327
113.9677812
108.6609694
72.56048917
470.0250577
715.5121964
392.2747998
880.2936234
354.5977249
261.7375554
1308.995188
1117.109263
1850.071367
229.7886399
330.6019236
431.881635
1714.884114
1778.045148
1296.061757
1229.657771
1681.491273
1713.164046
1296.141103
1272.372255
1015.370676
1079.003009
1371.790864
1327.469255
755.0994098
721.4033828
554.8958448
2122.648437
1393.062783
1498.719929
1036.780932
1072.689826
1415.573911
1628.772777
1750.276557
3210.677231
623.8925088
891.0719885
853.1647659
652.9810363
787.3023988
751.2356923
951.1842549
878.933101
681.6917294
1049.971039
1097.524672
790.3060486
670.9166745
929.5883514
985.4915368
1732.012336
1724.502711
1302.352519
1343.997575
1778.797255
1747.034688
598.932012
599.1340274
1054.145635
348.2341388
443.6182994
445.4846248
435.7564661
440.1074395
345.3133151
353.5760792
446.1558717
444.7732546
446.8724968
446.7610829
353.4610204
988.3832183
596.7759656
598.2458196
526.6166697
509.570281
868.1028025
303.0739836
382.643803
391.6578255
357.5520861
368.8452631
293.9091758
331.3642137
421.7875809
429.2367026
404.1365473
410.8535444
325.2979254
1014.067984
557.3185585
541.0610174
1301.920982
1167.417367
682.5321462
781.2317674
924.1530471
904.4272609
1078.628686
769.1397478
771.9674102
702.4855424
734.2624456
1033.234512
464.2579331
580.2805239
556.9403255
1193.767403
1728.969248
1567.00082
3468.939648
3082.826428
1711.954395
716.446907
2103.993332
3780.923668
3396.387825
124.2010859
178.1308505
235.5859084
173.9658723
117.8507987
357.7658496
197.1775647
283.9283917
335.9124956
470.7631445
139.95084
211.270325
174.6749322
243.0115063
238.5064665
146.9826101
2222.136682
2336.263443
1518.950142
1150.258445
1614.535894
1639.751313
1196.523594
1161.537106
938.541145
2416.472574
1532.878394
1604.737063
1374.19416
1447.38606
2130.469036
1194.716062
1615.275171
1578.227277
1306.695202
1407.575693
980.7217214
367.0478947
338.8752215
464.9606325
217.9928064
264.2177111
280.3562075
230.109323
247.3960833
205.131445
264.3537865
329.0100981
342.3842157
297.5917755
312.5752577
252.7178972
629.2935977
412.8042768
389.961484
1700.948548
1691.894595
1263.286865
1533.943043
2320.146933
2199.369244
1777.604155
1285.018846
1321.319053
1223.85751
1252.674229
1732.845943
845.8880058
1015.480294
994.8330478
470.2292938
481.1997385
630.5906396
322.7209436
389.3003294
382.8977331
402.2105878
395.9671503
327.1656953
556.4540495
566.8347911
897.4829529
349.3191093
435.1950886
430.6663295
442.3767886
439.1798767
351.3925722
338.0392731
414.4861933
408.5913396
425.5892586
420.342037
341.6240578
801.1208093
536.2803559
547.0843533
534.8482312
514.6921544
424.8581592
846.9515014
642.9324833
671.23687
590.0003561
615.8379354
762.0951212
928.9002878
1484.681016
2570.719672
1386.787279
2189.946235
1951.93077
2906.613099
2483.857502
1519.239158
621.2216283
3784.552383
2027.376306
2270.796492
1635.431085
1820.268518
3333.187842
977.4442838
1238.967992
1162.321638
903.3865307
1348.992732
1674.413239
977.0339848
1225.809888
818.5336273
1859.674652
2172.737603
1410.834668
501.7703528
695.5074999
867.1383974
490.9076477
598.2234478
453.121706
1350.203493
863.8141126
738.5709774
1337.038018
1828.131143
2009.544929
1650.980757
1675.489969
1214.992947
1650.784574
1682.747695
2790.79233
995.1487968
1249.379135
1225.36747
1511.418735
1436.496685
1110.897838
1248.424402
1310.833681
1943.866054
883.780387
1027.240895
995.1593451
1114.413283
1067.821528
906.9695576
1122.24683
1498.751394
1402.694439
1728.084545
1619.110565
1174.834189
981.2282399
1220.4863
1167.977337
1328.462212
1274.397505
1015.328183
3359.977774
1850.39318
1954.821642
2020.432172
2300.07631
4083.475983
1051.993992
1418.373917
1305.272568
1722.762201
1553.466491
1125.855744
829.6820269
1157.688563
1225.426629
800.6174577
852.3103819
630.1984879
1836.140241
1245.667949
1168.760689
1454.125325
1385.43737
2085.342674
1292.70715
1716.412658
1709.498208
2001.948489
1851.555494
1378.480856
1690.747326
3016.583689
2693.08016
3330.612531
3139.70858
1770.978453
1322.090652
1916.793085
1821.645909
2310.452757
2059.827631
1389.862944
2055.113415
1897.13112
1267.310154
1557.924404
2605.656939
2265.800093
54.73813784
49.1198483
51.60849411
40.97672782
43.74721196
47.99074256
38.48437705
41.02339781
38.93067049
94.18932112
93.70093
79.37075555
329.4298169
244.6474527
250.923214
232.0524107
237.9962932
296.1670854
273.9964404
405.8345491
482.3531091
279.1980709
348.7452575
243.1191646
953.0607941
462.3501441
416.9423284
766.9843013
1369.248938
2803.433648
333.4586273
505.2062835
431.5654259
549.3312269
550.1658473
342.5425301
78.33409806
69.74223194
61.79240876
95.23768396
80.1578155
86.77067838
433.6988915
465.3609366
419.9623078
913.9059396
638.1555053
562.7138382
773.3852558
688.1209156
987.3227787
898.1676001
1062.868601
1011.650022
1208.859286
1129.193311
929.5541978
2655.287483
1573.322475
1769.71568
668.1282715
543.661009
565.9010385
503.3378474
522.2435132
639.6332015
1403.77134
926.4193732
845.1803748
1069.041939
1003.070042
1454.839132
537.9361045
691.8262841
731.5202576
961.338407
1435.602024
1075.778572
1122.318004
984.0405
1018.420503
1339.658283
788.8773784
864.1602405
866.1978185
168.0236129
196.2211319
213.480065
276.7987832
218.7423866
199.1973371
1097.576721
1046.506094
889.3301454
2143.609622
1373.219853
1482.835986
1198.148652
1273.516701
1905.931146
102.1825083
114.2138407
107.543189
144.52887
133.637309
109.0297792
210.2703601
157.867776
201.8309502
806.1467355
905.4830179
889.2123584
961.7412724
936.4706234
822.4572662
1534.785643
1129.476823
1183.243314
971.5973615
949.9114536
796.9089066
1546.825038
1150.57899
1187.963487
1073.26768
1106.785121
1446.339789
214.9752541
274.0175697
243.2107694
366.7624118
322.784213
245.2542688
639.2771408
421.433637
540.1490468
31.96724622
31.97135348
31.98981323
31.97252098
31.96945837
31.98932623
31.9642184
31.95732999
31.98504384
31.94878095
31.94036036
31.97960268
31.93243751
31.92567006
31.97463765
31.92088384
31.91481608
31.97132098
31.91089891
31.90814368
31.96910638
31.94910997
31.95405956
31.95861917
31.96044878
31.95984153
31.96325026
31.94831775
31.94206805
31.94951489
31.91968195
31.91100565
31.9247422
31.88673177
31.8788774
31.89924485
31.81749017
31.80811369
31.85988053
31.79822899
31.79051319
31.84825141
31.78505996
31.78245373
31.84021537
31.97308185
31.98544304
31.96557179
31.99145732
31.98920211
31.97332664
31.96513186
31.95170207
31.94275607
31.90694141
31.88916074
31.88791955
31.83740932
31.82156492
31.83188192
31.75514307
31.72146541
31.7625857
31.69988517
31.68391504
31.7353947
31.67223819
31.66538953
31.7183823
32.17457723
32.20094532
32.10963184
32.18199449
32.17118622
32.10808582
32.10967133
32.08058858
32.02675645
31.9849141
31.95016292
31.92027355
31.84824488
31.81754407
31.8119979
31.73898988
31.66802149
31.69159201
31.62675377
31.59587456
31.63752048
31.57298932
31.55801292
31.60532709
32.9332248
32.97919367
32.69006741
32.86147137
32.79907686
32.60798877
32.58474787
32.50158411
32.34678346
32.26308274
32.18592743
32.09184904
31.97435482
31.91388865
31.87738432
31.80576896
31.66309226
31.65840326
31.58632385
31.53215923
31.5614319
31.49137621
31.46294912
31.50458472
36.21777374
36.33900054
34.93960762
35.34081548
34.93335627
34.27702037
33.93129007
33.63832394
33.23778086
32.94918269
32.76398942
32.54990988
32.29762108
32.17622653
32.09258475
31.98878269
31.71622985
31.67958303
31.58967054
31.49594167
31.51129891
31.43029234
31.38179148
31.41709448
50.05434778
50.30549077
47.2956871
37.46161187
36.39638253
35.46741052
34.37782141
33.9242899
33.52292055
32.92142987
32.67912017
32.53150375
32.31333522
31.85183151
31.77264627
31.63598852
31.49330787
31.49096669
31.38970792
31.31580213
31.34450483
79.3614699
71.77500646
66.23268529
45.03516358
41.84535703
40.20743081
36.80125396
35.83997007
35.21087428
33.90526464
33.46981754
33.24942267
32.76850386
32.06786642
31.94810183
31.73688566
31.51605845
31.50053478
31.36677915
31.2628398
31.28673802
141.0585245
118.2596276
113.1969908
54.79490517
48.85754679
47.10506077
39.89306933
38.27329637
37.53013002
35.14777342
34.46822555
34.1999347
33.30461201
32.34091739
32.19751372
31.87458837
31.56520623
31.53711828
31.36054945
31.22125218
31.24130601
170.7090439
143.276673
141.6416258
62.58039877
54.91184311
53.60846845
42.95603521
40.73835063
40.01626217
36.44433079
35.51504059
35.26015479
33.84567116
32.62441886
32.48203993
32.02625247
31.62897949
31.59486249
31.36572283
31.18904944
31.2062765
169.0064568
145.2207647
145.6777488
66.8880756
58.78298224
58.05183704
45.35772552
42.74866718
42.18183482
37.60129842
36.46942044
36.25790702
34.31016166
32.87554221
32.75601094
32.16639715
31.69329486
31.66018309
31.37757759
31.16433686
31.1788603
156.4552021
137.573845
138.8229612
68.53928724
60.6484629
60.4603595
46.92390913
44.14340778
43.78738748
38.50557139
37.23203739
37.04300164
32.97918974
31.71957091
31.1561255
50.50458419
107.7360465
102.005641
120.1359032
139.6140503
137.1770433
164.5306557
146.0744182
146.2528054
171.7277617
344.2862523
389.1314035
381.0055504
594.8496862
576.5155281
722.2854084
1094.681002
819.4990598
817.6211926
775.3081559
780.7664943
965.9297625
802.8529887
626.0880442
608.3594761
812.9930524
806.4753451
1081.710621
428.6836034
438.3277202
552.0591695
938.3030494
763.130295
769.6478823
370.9154971
139.7747331
140.9025123
161.3567568
161.4524891
136.7423459
125.0414805
401.361672
344.8121056
350.7793542
307.884828
313.743119
357.2834491
501.4423369
409.5513634
418.5375545
359.5770132
366.0891378
433.2997148
69.03758757
76.89066674
81.16611522
82.05098118
82.02639495
74.7660204
505.5930401
359.5027099
297.1758479
803.7342764
805.7188641
1021.717817
1000.57475
799.5865719
801.1594159
712.5729342
697.5773589
905.9552816
961.8700764
739.9790191
725.120933
879.0221677
865.1594305
732.1883834
1194.003447
966.4349045
993.0698656
821.0072144
842.3996504
958.8650204
481.5058297
470.3473346
499.5777326
573.6459367
505.3385659
489.7442244
711.7008655
721.0148004
864.4807896
825.1642719
693.8544001
703.1692653
879.6644527
782.5707772
804.6109148
61.63322303
57.08515806
60.03117936
337.3514332
296.6625591
302.9497219
175.3519414
200.8323475
197.6055923
57.52457889
65.02760359
61.19366162
110.8955303
101.0109257
106.7537602
373.0977341
433.6926137
421.4444682
163.8083563
179.7517368
155.3012259
266.427977
225.3151851
240.4560239
31.942206
31.94308904
31.95692847
31.95405529
31.94827495
31.9605701
31.95757428
31.96161026
31.9622094
31.95710752
31.95936063
31.9645756
31.96077276
31.96168744
31.95319192
31.95811912
31.96145139
31.96100514
31.9573562
31.95310393
31.93885782
31.93783986
31.94695484
31.91974569
31.92951427
31.92926571
31.94302738
31.93570396
31.92761033
31.89201403
31.90022178
31.91136421
31.8798097
31.89074496
31.88113212
31.91719633
31.90304701
31.89436991
31.84498914
31.86066616
31.87082354
31.84370821
31.85254894
31.83501093
31.89309631
31.87210017
31.86533967
31.9896224
31.9623737
32.05791806
32.00937528
32.00199868
32.02184666
32.01703687
32.0652421
31.97131001
31.99138326
31.99294589
32.05062336
32.01604846
32.02176227
31.99482429
32.00572774
32.04489058
31.9691084
31.98519077
31.97592899
31.99378982
31.96652699
31.98256132
31.93194945
31.95016514
31.97380834
31.93172421
31.93808049
31.92232041
31.90427204
31.89378859
31.9138574
31.85349639
31.87416528
31.88066244
31.87345736
31.87184455
31.85301929
31.8107469
31.81393555
31.83312235
31.78052506
31.79725618
31.78957406
31.81971328
31.80709471
31.79326056
32.2903956
32.15560338
32.46766885
32.30934574
32.30808132
32.29921806
32.30223371
32.48752808
32.11387859
32.21110716
32.20370416
32.39346955
32.28493385
32.30702129
32.21119292
32.24134066
32.37966333
32.08693996
32.16323076
32.1391237
32.23764621
32.14264854
32.18082243
32.06257084
32.10304266
32.18962966
32.00157907
32.05036183
32.01801949
32.03702961
31.98303354
32.0224618
31.90392306
31.94364259
31.98663152
31.89304481
31.91573552
31.88118955
31.84915872
31.82954806
31.86604242
31.76530046
31.79592227
31.80909508
31.78736498
31.78947175
31.76302092
33.32084919
32.86990694
34.0113265
33.43322228
33.41959481
33.29470709
33.34936574
34.03969467
32.65889151
33.01097527
32.97712539
33.53813941
33.18943157
33.29133093
32.89954074
33.01665201
33.43762501
32.52164025
32.76224898
32.68014801
32.93982217
32.68301304
32.79740116
32.46465949
32.57122351
32.80021515
32.28111106
32.42182777
32.34189747
32.4193317
32.27329721
32.36422507
32.10850564
32.18903797
32.30714894
32.03581847
32.11222303
32.04029202
32.01954976
31.96193936
32.0335082
31.83337794
31.89491878
31.94168592
31.82962949
31.85819849
31.80693695
38.37078326
36.01955387
43.58083338
38.55799102
38.74447409
37.49200807
38.08301833
42.08354709
34.76982909
36.27505682
35.9832969
37.70234277
36.34934025
37.04251304
34.97716078
35.51252761
36.90304887
33.90471584
34.65603485
34.28373112
34.73168075
34.11409883
34.52763443
33.44356561
33.75120626
34.27112271
33.03624771
33.38457791
33.15611662
33.25508245
32.95312474
33.17956742
32.57992323
32.75438815
32.99867083
32.42023635
32.59399051
32.43657513
32.39568341
32.28120517
32.42513103
32.02967051
32.14855934
32.2410692
31.99793267
32.06729221
31.96874425
63.32228757
56.36029106
56.21874089
54.51268835
55.54528074
63.14041923
46.93676421
50.5382508
50.039206
38.76567424
37.47899252
38.96018691
35.48824963
36.35392686
37.34514929
34.821639
35.57149288
34.91483353
34.77774598
34.26587126
34.80432237
33.45060884
33.82425734
34.21625787
33.22367582
33.53434568
33.20233163
33.03496576
32.85245628
33.13103095
32.39208139
32.60637005
32.75599168
32.34899559
32.46908361
32.28612214
83.73047713
77.53892188
86.58519468
63.33534039
68.99838979
73.77456622
45.31704501
43.53260786
47.46317044
38.85348719
40.80684813
42.18266443
38.37304526
39.6208256
38.01489006
37.02342797
36.30174075
37.39804875
34.74880165
35.44388157
35.99986876
34.58127628
35.06061257
34.42672879
33.9538097
33.6923289
34.17523871
32.9327207
33.2818345
33.48809744
32.92364014
33.10085631
32.78693705
127.1887899
122.8824234
147.2142265
91.33026438
104.4566684
108.0258646
96.62455067
100.7425349
88.67957107
52.14029042
50.54955786
57.08623512
42.87391702
46.06455367
47.37442558
43.45847574
44.8342269
41.98741676
39.54746365
38.7734997
40.52246191
36.34384825
37.42456668
38.01142372
36.4239905
36.99333996
35.97434113
35.00427282
34.7287937
35.46265146
33.59734815
34.11350059
34.3328
33.68767949
33.90131732
33.42668753
145.4460894
144.5222042
171.6170538
108.0193488
123.5369947
124.6895427
120.6207763
122.3149124
106.76581
57.10575638
56.12126363
64.03848506
46.50990468
50.53768873
51.46030721
48.46903012
49.60127284
45.78859688
41.80293677
41.18009787
43.49121743
37.9303957
39.37146072
39.88411464
38.43229601
38.97837873
37.58041918
36.02579373
35.77720038
36.75665945
34.27744507
34.95952137
35.1614988
34.53960379
34.74427759
34.10474614
143.7436777
144.3332323
167.5416505
59.9091612
59.44935885
67.58451352
49.06421343
53.48838199
54.08742549
52.2059251
52.99629143
48.67693676
43.48997642
43.08888554
45.69963975
39.27898982
40.99176386
41.30512115
40.2086398
40.67484634
38.98664007
36.87565227
36.68986006
37.86731599
34.88436931
35.70625389
35.86134964
35.35267866
35.52466926
34.73862425
54.50098911
54.84672202
50.39151499
41.59419234
41.87773177
40.03182057
35.99835422
36.15637416
35.24946865
206.8174147
178.954248
171.0844264
191.3007757
184.3620181
215.571742
288.9581547
243.6224749
241.803323
245.9380844
244.7810951
289.7276338
238.9747281
202.7904211
196.5868203
213.0325163
207.8163004
245.9406896
268.0337897
236.824471
238.6322336
289.9076967
247.0667298
246.5323883
247.0982464
247.1499124
289.1573893
54.69003481
49.02839739
48.1123468
44.66018197
56.20350215
51.17375255
52.21211868
47.85600791
48.97175461
53.89960034
77.9337187
87.83011508
92.38140801
78.43802799
83.24314751
75.13753193
112.3801323
96.01412842
89.84997418
101.5322497
116.499014
118.8031509
111.1102098
114.0539006
99.49406611
161.3894456
134.3418038
130.9795333
111.2044367
126.3174939
126.5393238
125.3685384
126.0380677
110.69276
172.1532109
146.3045178
145.9767671
966.0109601
836.5961571
855.8864222
798.7517736
818.4408263
938.2993262
409.6862233
399.4553688
351.035636
565.6849762
468.8561559
484.6216153
440.0442477
452.6760284
542.9973027
169.7879042
151.9802395
142.7913316
165.6557782
157.2450306
179.7422624
691.9821997
562.8125876
544.565651
280.6352202
235.5370883
232.520408
240.0493595
237.6834793
283.3116342
816.2101663
819.054908
1087.3427
561.8261254
627.4486477
648.5066849
615.7118989
623.7408336
561.6665321
974.0636143
785.4631258
789.7598528
656.3180131
639.2001849
825.4163634
558.0966723
598.9538907
608.8523313
576.9381506
589.1775798