/*--------------------------------*- C++ -*----------------------------------*\
| =========                 |                                                 |
| \\      /  F ield         | OpenFOAM: The Open Source CFD Toolbox           |
|  \\    /   O peration     | Version:  v2012                                 |
|   \\  /    A nd           | Website:  www.openfoam.com                      |
|    \\/     M anipulation  |                                                 |
\*---------------------------------------------------------------------------*/
FoamFile
{
    version     2.0;
    format      ascii;
    class       surfaceScalarField;
    location    "0.8";
    object      phi;
}
// * * * * * * * * * * * * * * * * * * * * * * * * * * * * * * * * * * * * * //

dimensions      [0 3 -1 0 0 0 0];
oriented        oriented;


internalField   nonuniform List<scalar> 
6464
(
0.4582628699
0.002084993548
-0.002111221661
0.458351824
0.002094397697
-0.002035731067
0.4584304546
0.001935276473
-0.001813439409
0.4584747394
0.001673700041
-0.001514326292
0.4584855473
0.00136377904
-0.0012124913
0.4584911854
0.00103630591
-0.0009581457715
0.458462857
0.0008452887968
-0.0006992909327
0.4584688091
0.0005804818051
-0.001597481478
0.9187047522
7.396216188e-05
-0.0005312328843
-0.001000299227
0.9187528178
3.576810098e-05
0.9158139327
0.9138357681
-0.003434259412
-0.2289964205
0.2288053585
0.003625241546
-0.004232535631
-0.2291894849
0.2291534347
0.004268585888
-0.004082781465
-0.2293264059
0.2294010381
0.004008149305
-0.003610298052
-0.2294139198
0.2295668763
0.003457341552
-0.002959301013
-0.2294330576
0.2296123912
0.002779967358
-0.002300456856
-0.229402422
0.2295681929
0.002134685966
-0.4589055949
-0.003302497975
0.4603748692
0.001833223768
-0.0004901153634
0.4610002842
-0.001226334439
-0.4592838344
-0.001359889019
0.9183671694
0.0002221773166
0.001475294537
-0.0008351871143
0.9182281159
0.0004271523595
0.9145515932
0.9142629205
-0.2275613143
0.02853441571
0.2271159646
-0.0280909089
-0.2221008251
0.0237476748
0.2196836476
-0.02133690432
-0.2234628984
0.01132553713
0.2192966573
-0.007165397295
-0.230278066
-0.005969871578
0.2297493135
0.006498174056
-0.2303950127
-0.005484178151
0.2307441428
0.005135048009
-0.003848341176
-0.2303314445
0.2310241723
0.003155613417
-0.46305488
-0.0005206139444
0.4619655595
0.001609934505
-0.4601487537
-0.00167338325
0.460208406
0.00161373098
0.0006030146231
0.9203779329
-0.00149852253
-0.001115255577
0.001880101773
0.9169510287
0.000875733175
0.9155559618
0.9151386536
-0.2257827984
0.03638839018
0.225384991
-0.0359962946
-0.2138463976
0.03384733543
0.2126591805
-0.0326753074
-0.2082022881
0.02691643908
0.2053681088
-0.02410160225
-0.2150575169
0.01291124943
0.2105591731
-0.008427159426
-0.2343951282
-0.001455351393
0.2367730336
-0.0009229228614
-0.004224856356
-0.2319741015
0.232024432
0.004174525887
-0.4620699317
-0.006408229061
0.4634215163
0.005056644469
-0.4610227671
-0.003720947855
0.4621232599
0.002620455061
0.003547104412
0.9206739513
-0.00202833003
-0.001814792826
0.002414759335
0.9180833738
0.001115406691
0.9168553145
0.9162540603
-0.2244574814
0.01248550065
0.2242370084
-0.0122719742
-0.2124604693
0.01458851156
0.2139036437
-0.01605043188
-0.2008944337
0.02004178375
0.2011028097
-0.0202789136
-0.2107970088
0.02850860415
0.202598558
-0.02033237192
-0.2166362605
0.006451895236
0.2126431112
-0.002472186959
-0.006120223102
-0.2335585682
0.2341743915
0.005504399774
-0.4652441853
-0.007511750076
0.4670124263
0.005743509109
-0.4631881181
-0.00443518815
0.4642966613
0.003326644948
0.004365367031
0.9229410677
-0.00368852626
-0.002943957134
0.002416793376
0.9200319474
0.001097034936
0.9181750729
0.9173510953
-0.2232131853
-0.03190729176
0.2228906116
0.03222860405
-0.2251134192
-0.02075424634
0.2294629666
0.01639461083
-0.2135323652
0.003447514878
0.2151388431
-0.005080212814
-0.1958499123
0.007757172875
0.1962514295
-0.008191337831
-0.2038420272
0.005749709648
0.2020770324
-0.004010298362
-0.003369109341
-0.2328849803
0.2311895346
0.005060416581
-0.4686078396
-0.007785054648
0.4702348186
0.006158075609
-0.4650194339
-0.004946479076
0.4656979585
0.004267954502
0.003662793573
0.9256025877
-0.003048009409
-0.003276304206
0.002006630432
0.9216881106
0.0008387666105
0.9193429367
0.9181898619
-0.02764830087
-0.1088232464
0.1082385159
0.02823303136
-0.02247389733
-0.249144916
0.04271793774
-0.02287856357
0.125467057
0.1263123821
-0.02478702626
-0.2265049048
0.2324314452
0.0188441709
-0.2010656457
-0.007684500361
0.2050760427
0.003639691368
-0.2007583392
0.002298247622
0.2003799913
-0.001946461755
-0.001059728309
-0.2240656704
0.2226353982
0.002479909873
-0.4718699412
-0.006637024155
0.4729624398
0.005544525504
-0.466812724
-0.004208345914
0.4679012753
0.003119794553
0.002136381915
0.9275087699
-0.001872798519
-0.00216976556
0.001008947606
0.9228155449
0.000377310909
0.9199745734
0.9185671728
-0.02977273412
-0.1381751311
0.1409362267
0.02701163858
-0.02978090949
-0.2514741885
0.256712089
0.02453609628
-0.2123574708
-0.01395124821
0.2147481747
0.01153350625
-0.201965188
-0.006415716401
0.2031000614
0.005250509465
-0.0002390714157
-0.2209809319
0.2204973921
0.0007127790163
-0.4743933172
-0.003935177832
0.4755549875
0.0027735075
-0.4687572667
-0.001970597996
0.4694555973
0.001272267431
-0.0003039781434
0.9283761029
5.104718227e-05
-0.0006144020896
-0.0004782098629
0.9229897766
-0.0003061281906
0.9198024917
0.9182610446
-0.01329033413
-0.1539622664
0.1545717549
0.01268084561
-0.01670296669
-0.2686250618
0.270774847
0.01455086911
-0.2219580017
-0.00873778021
0.2236351958
0.007045906176
-0.2063533341
-0.002818570378
0.2073116032
0.001843710571
-9.663038108e-05
-0.22092739
0.2210609901
-4.523721521e-05
-0.4768823072
-6.415371845e-05
0.4778790846
-0.0009326236524
-0.4697912248
0.001371958568
0.4699357012
-0.001516434999
-0.003241345181
0.9276661416
0.002284452459
0.001666854052
-0.002288353261
0.9220367847
-0.001188932043
0.9187030705
0.9170721126
0.004411369066
-0.1524826476
0.1515483997
-0.003477121228
0.0005512356867
-0.2707285876
0.2692000739
0.0009764284014
-0.2255519575
-0.002514705988
0.2257115673
0.002349429599
-0.2099032287
-0.0008653313588
0.2105427321
0.0002187262106
0.00153868121
-0.2227208237
0.2231542025
-0.001975938381
-0.4777931957
0.005154017944
0.4771364429
-0.004497265151
-0.4696578207
0.004217722915
0.4698443431
-0.004404245325
-0.00646185613
0.9253116556
0.004786965231
0.004029376912
-0.004236576371
0.9198115049
-0.002136418306
0.9166029125
0.9149356943
0.01412236074
-0.1432334217
0.1419146464
-0.01280358541
0.01260327954
-0.2610343256
0.2572750615
-0.008842679031
-0.2236927209
0.001141770038
0.2246649397
-0.002111565709
-0.2120069668
0.002297289227
0.2124434349
-0.002730093947
0.004385515062
-0.2254885096
0.2259861968
-0.004881546321
-0.4760408727
0.01003985603
0.4745645944
-0.008563577724
-0.4698356658
0.007267523956
0.4686698756
-0.006101733831
-0.009424641548
0.9215839578
0.006849949966
0.00630238936
-0.006106408994
0.9164932724
-0.003000259841
0.9134967633
0.9119354344
0.01757230625
-0.1329794206
0.1316927378
-0.01628562342
0.017675441
-0.2463039577
0.2425418506
-0.01390581641
-0.2214794369
0.008970504137
0.217863984
-0.005338800407
-0.2131138183
0.002896226826
0.2130867387
-0.002860018498
0.006702468954
-0.2279072549
0.2284534381
-0.007244169258
-0.4727776976
0.013947319
-0.01188437561
-0.4674012724
0.01009861933
-0.008566034297
-0.012012506
0.007330618447
-0.007713921862
-0.003745782017
0.157034887
0.01587751439
-0.156107558
-0.008125145752
-0.008679697608
-0.1391228554
-0.03299286299
0.1423429843
0.1546552371
-0.002577594764
-0.1556672215
0.001979776377
0.001609802823
0.1575981957
-0.006664030635
-0.007189612231
0.1443453185
-0.01340041351
-0.1457379143
0.007466813813
0.007326195519
0.1535639869
0.002933356759
0.002569262465
0.1334224726
-0.01734629125
-0.1346885127
0.01861233129
0.01552889528
0.142938784
0.01907953552
0.1319152434
-0.1055281663
0.1042278317
0.03010320107
-0.1357249874
-0.03350106912
-0.12264385
-0.02402546065
0.1241954133
0.04192246007
0.009164750006
-0.04160556027
-0.009481649805
0.02443285318
-0.07031555074
-0.02657136386
0.07245406142
0.01498622228
-0.1530709743
0.2803671212
0.02099682081
-0.2777531183
-0.02361085941
-0.2636660269
-0.03536366666
0.2692477147
0.04822453497
0.0008077238404
-0.04831327338
-0.000718985428
-0.04500812217
0.003510017373
-0.002904011535
0.04440211633
-0.001774429422
-0.1532858129
0.2817227529
0.003564893989
-0.2826251728
-0.002662489129
-0.0183726145
0.2820367661
0.0389278712
-0.004241539807
-0.0392795951
0.004593263704
-0.04197278147
-0.001687165762
0.00123418808
0.04242575916
-0.01208172092
-0.1445521143
0.2719022853
-0.010189916
-0.2752030534
0.01349067115
0.002119016195
0.2801549411
0.07018634929
-0.01103167843
-0.07067914597
0.01152447511
-0.07385706653
-0.01011741277
0.07339661651
0.005360265724
0.005217597063
0.008134741996
0.03077027073
-0.007840680497
-0.03106433223
0.0637734827
-0.01143422797
-0.06420261121
0.01186335648
-0.06688411983
-0.01164626197
0.01201446178
0.06651592003
0.004064111441
-0.04536937666
-0.003702856951
0.008800955137
-0.009017007342
0.04213851227
-0.1510092271
0.02331754342
0.1531175431
-0.01248134001
-0.01294451948
-0.08199150085
-0.008416656677
0.08272855488
0.01648055778
0.04386456786
0.004222985318
-0.04402344173
-0.001505076015
-0.0415049824
0.001037276945
0.0001553190729
-1.221228864e-05
0.04808142818
-0.07842085489
0.002000883324
-0.001967892876
0.07838786445
-0.04681743764
0.04663362891
0.0003391278039
0.04138165897
-0.001742054909
-0.04114468007
0.04354774523
0.003826839996
0.0008134376508
-0.04682315145
0.002706933181
-0.07854831232
-0.002579475745
-0.009927253117
-0.07434686389
0.005228713832
0.005188336639
-0.004111060923
0.004288572845
0.03875035928
-0.1498415583
-0.01027901756
0.1484797667
0.005937904409
0.00570290474
-0.07744304134
0.004096338313
0.0769291785
-0.007693536393
0.07364747338
-0.009475093579
-0.07409963292
0.04160287955
-0.001908386348
0.004084477775
-0.00742278582
-0.03929416807
-0.03905210503
-0.009061813278
-0.1510852185
0.005270929526
0.005034543997
-0.01155706566
-0.06733386352
0.01200680935
-0.01126764244
0.01165714404
0.06979684768
-0.02941208576
-0.007464796118
0.007026519355
-0.02977005981
0.008492716052
0.01168146902
-0.007445372869
0.03052634473
0.01282011301
-0.04332485417
-2.160357272e-05
0.01917324313
-0.03554807702
-0.02115502812
0.03752986201
0.04538998744
-0.007705499514
-0.03751530388
-0.0001691840409
-0.01614707156
-0.1341786403
0.2553108386
-0.01707971104
-0.2598676636
0.02163881196
0.01631717677
0.268188538
0.03881580725
-0.007432178034
-0.03118902078
-0.0001946084295
0.06484917256
-0.01326871623
-0.0654323343
0.006958356763
0.006893521206
-0.03332990031
-0.006639295893
0.006730493554
0.03323870265
-0.07033157235
0.0720679584
0.02269646714
-0.009444795489
0.0176203463
-0.08100230165
0.02547151018
-0.1484415328
-0.01384298014
-0.01419622428
-0.006685625197
-0.03347318658
0.00682891147
-0.0354444787
-0.006856164117
0.00730728884
0.03499335397
-0.1388109501
-0.01648547488
0.01787828824
0.1374181368
-0.07022345819
0.06975508941
-0.01079927366
0.06692369731
-0.01113259624
-0.06734816673
0.07321512558
-0.00968506496
-0.01065896363
-0.07059617298
-0.0160235857
-0.1402067663
0.01741940186
0.0193995859
-0.05230373283
-0.01814363266
0.05104777958
0.02436744591
-0.06828991746
-0.0263930792
0.03650998029
-0.1218380199
-0.01894378676
-0.02022214891
0.06166014176
0.06283383349
-0.0559379944
0.0549650383
0.02037254199
0.03096695472
-0.0004406099907
-0.07835584545
0.02207588526
0.08015845379
-0.01181919182
-0.01205930178
-0.04161329929
0.05677116831
0.01580908571
-0.03536747282
0.03696159631
0.01757911963
0.01461560033
-0.0434087866
0.02302439502
-0.07649897809
-0.01233551978
-0.0125457426
-0.04059534585
0.002552846128
-0.002544428202
0.04058692792
0.002239755808
-0.0409004454
-0.001934656257
-0.03956997777
-0.003218228696
0.003129302141
0.03965890432
-0.003452343091
-0.03987254604
0.003754911361
-0.006169635903
0.03638121286
-0.03543613945
0.005224562493
-0.009692093491
0.02206523982
0.03301684111
-0.07199631012
-0.01075250996
0.01113656077
0.07161225932
-0.03826366849
0.03641581619
-0.007844241191
0.03634280506
-0.006376469725
-0.03613597124
-0.03411846357
0.03815562374
-0.003808617117
-0.0002285430536
-0.006882365833
-0.03908680217
-0.01059657279
-0.0724208619
0.005544751788
0.005476372769
0.06290954478
-0.01297342939
-0.06340584512
0.01346972974
-0.01323272436
0.06431198093
0.006893892171
0.006876023825
0.01898684981
0.02886736158
-0.009038404136
-0.0432553807
0.006138129815
-0.005922460052
0.04303971094
0.006551199157
-0.04328355826
-0.006523021602
-0.03925457842
-0.000972788626
0.0008612183767
0.03936614867
-0.001324498391
-0.03943110449
0.00150102446
0.04009712435
-0.001046281267
-0.04037534147
0.08049980332
-0.0003721616572
-0.08078040474
0.0006527630784
-0.08146043825
0.001564335847
-0.001380793699
0.0812768961
0.07931392785
-0.002619543767
-0.07963213561
0.002937751529
-0.0009656805667
0.001244774686
0.0802207092
0.04008446601
-0.0009601302837
0.04131866881
0.002381120143
-0.04146003314
0.08178339059
0.00519494278
-0.08180296138
-0.005175371987
-0.08161731256
0.007570038092
-0.007683846013
0.08173112048
0.002255716619
-0.08160775963
-0.002108395236
0.004441476244
-0.004410404324
0.08175231867
0.04144332679
0.002428188147
-0.03799251609
-0.004642416773
0.004821391678
0.03781354118
-0.00187625744
-0.03217074815
-7.145797814e-05
-0.004669341119
-0.03821263858
0.004889463607
0.00616200723
0.03650498088
-0.006324183047
0.006949207292
0.03492418859
-0.006638981816
-0.03523441406
0.06853491518
-0.01143221413
-0.06895606679
0.01185336575
-0.03593951193
0.007444240529
0.005493559345
0.03704966075
0.01921507948
-0.0002282296705
-0.01288750954
0.01324042698
0.03520358784
-0.03817350105
0.002969913212
0.03446920571
-0.007008194094
-0.03453977961
0.007078767996
-0.03211645271
-0.00697319001
0.006640560042
0.03244908268
-0.004252671444
-0.01242553244
0.01324545008
0.003432753805
-0.007683479058
-0.03307787678
0.008644903128
-0.03029494145
-0.007695214987
0.00642904929
0.03156110715
0.02544305534
-0.04796704351
-0.02374600639
0.02272153794
0.02354845663
0.01854066431
-0.03381745971
-0.02027128162
0.02684711205
-0.05793202559
-0.02846542285
0.05955033639
-0.05234459293
0.02804585439
0.02411702507
0.02562476882
-0.04544019652
0.003843975932
-0.005745194794
0.04734141538
-0.04071422777
0.03998375221
0.0008778387392
-0.0001473631782
0.03891062709
0.0005920877594
-0.03914979182
-0.0003529230319
0.04244720184
0.002640806486
-0.04306393676
-0.002024071565
-0.04033143891
-0.003686778942
0.003826831244
0.04019138661
-0.04232372918
0.003510296768
0.04270813094
-0.003894698529
0.03759937859
0.006913298652
-0.005977383124
-0.03853529412
-0.03721351678
0.03734166351
-6.350046255e-06
-0.0001217966872
0.04296802907
-0.003529965511
-0.03921994104
-0.0002181225187
0.04261779829
-0.00296844015
-0.04294514571
0.003295787576
-0.04361696576
0.005936820019
-0.006859642438
0.04453978818
-0.0395469901
-0.02761434557
0.0557927645
0.01136857117
0.001841227585
-0.04236168346
-0.0001937718984
0.04255854735
0.006475707148
-0.04248305534
0.08051597439
0.01181809986
-0.08008639454
-0.01224767971
-0.07828757753
0.01430902901
-0.01499073735
0.07896928588
0.008404384255
-0.08144263723
-0.008579059582
0.01094966744
-0.01132056795
0.0808868749
0.04253669035
0.006159986818
-0.04026037129
-0.001131970757
0.0007478111798
0.04064453087
-0.0367504301
0.03684106553
0.0001624322507
-0.0002530676768
0.0001284141286
-0.03706910182
-0.0002728290923
0.0447255713
-0.00271683794
-0.04674778908
0.004739055721
0.003660520408
0.03827060793
-0.004331749753
0.002567494311
0.0414909614
-0.003501776378
-0.04055667934
0.03881555566
-0.004237517077
-0.03877226363
0.004194225048
0.07548537799
0.004559306464
-0.008605410136
-0.07610861543
-0.007299418342
0.07457967676
-0.0749892843
0.007709025878
-0.07621076079
-0.006414302311
0.006817568667
0.07580749443
0.03964572529
-0.003198600056
-0.03989946832
0.07782140719
-0.004543727173
-0.07824063651
0.004962956491
-0.003136489096
0.003465619374
0.07898479757
-0.006054629761
-0.07663202568
0.006475894657
-0.004954255936
0.005334889955
0.07744077317
0.03960597436
-0.003178477768
-0.01147632183
0.01183609572
0.06817514129
0.03466166135
-0.006593636878
0.06662400598
0.006679024799
-0.01289686927
-0.06709178671
-0.03811613076
-0.009479249479
0.01911548014
0.0284799001
-0.04089939194
0.01884947429
-0.01928039021
0.04133030787
-0.03126084352
0.04086508167
0.02559934968
0.0191148137
-0.04012372201
-0.01989048363
-0.02896472786
-0.00228522325
0.03143046316
-0.0001805120449
-0.006144960342
-0.02259671673
-0.0002230507919
0.0335063593
-0.007318877618
-0.03367933033
0.007491848651
-0.007504265955
0.008056336684
0.03391713498
0.01971798338
-0.01945649846
-0.0002614849211
0.01456994841
-0.01755600001
0.00251980283
-0.01381997787
0.0131880856
0.002095440015
0.006654600042
-0.03154731031
0.0328382079
-0.007945497633
0.009322106465
0.03328856794
-0.008170758438
-0.03443991597
0.03411986716
-0.006779293037
-0.03443882145
0.007098247325
-0.04126190481
0.02028906983
-0.02112316205
0.02794552989
-0.0001677677949
0.03108165807
-0.03054008201
-0.0005415760599
0.04517336285
0.01257458728
-0.04410929071
-0.01363865942
-0.04175787103
0.01332129518
-0.01409848311
0.04253505896
0.04686286101
0.01159001312
-0.04488649526
-0.01356637887
0.01178008978
-0.01207831902
0.0454715921
0.01353031218
-0.04108613435
-0.01420204886
-0.03853070542
0.01437167252
-0.0152250857
0.0393841186
-0.04118922495
0.04241460262
0.01762409662
-0.03754203479
0.03668322587
0.001171033745
-0.0003122248269
0.02617101157
-0.02608848246
-8.25291096e-05
0.004368078633
-0.04304964629
-0.00675862886
0.002457571993
-0.001881097572
0.04187072742
0.03861333984
0.0005225838858
-0.0002252966313
0.0006395830924
-0.03801219215
-0.0001694257242
0.0004236358265
-0.03755673041
0.03894697318
-0.001813878588
0.001065208604
-0.00219001498
-0.04119892281
-0.003443202705
-0.04018368017
0.003295443966
0.03762212462
-0.03620841623
-0.0003484997799
-0.03417821413
0.03515490846
-0.0005530585035
0.03555963012
-0.0351532488
0.006506917328
0.04152108525
-0.000388663866
-0.002160990098
-0.03188632257
-0.0001309014545
-0.003519953084
0.004386606426
0.04175114494
0.05081646021
-0.007637421291
-0.0002110098469
-0.003571938994
-0.03614578152
-0.03768283456
-0.007024068807
0.007607111097
0.03709979227
-0.005464985243
-0.0362544944
0.004036645081
0.03766267506
-0.006072405861
-0.03705525444
0.035955023
-0.005985901417
-0.03605600751
0.006086885926
-0.03693485046
-0.005857075598
0.006284269278
0.03650765678
0.03396480283
-0.006913980679
-0.03319578249
0.0370229992
-0.005855418486
-0.03736749177
0.006199911053
-0.03810762592
-0.005352090818
0.005209089523
0.03825062721
-0.005808132996
-0.03716926476
0.006042547301
-0.005657078914
0.005650348225
0.03702972989
0.03602863449
-0.004349054911
0.007414955575
0.03245178892
-0.007621069784
-0.03224567471
0.03244901347
-0.007130335007
-0.0326983528
0.00737967434
-0.007362354107
0.007714462042
0.03315425137
-0.002230807583
-0.04589378778
0.04402951433
0.004095081036
-0.008227025145
0.008673610289
-0.03999357524
0.006039008475
-0.04299493382
-0.006661040411
0.02756997213
-0.03555720604
-0.0002397912289
-0.04200803868
0.03993143136
-0.000154200264
-4.4373448e-05
0.04090945695
0.006117002865
-0.04355850803
-0.003467951779
0.009975428153
-0.01076851932
0.04765595218
0.005034216336
-0.0468454986
-0.0001967564146
0.009089947558
-0.008160466769
0.03997997616
-0.04237193475
0.007634703944
-0.007913170277
0.04265040108
-0.04261835674
0.04297739237
0.008730911924
0.005907023061
-0.04676659451
-0.0361411244
0.03644705824
8.739289875e-06
-0.00031467313
0.0002336418429
-0.0365705697
-0.0004135022445
-0.001013665213
-0.03991332946
0.000666623382
-0.003212366738
0.005736349246
0.04220158879
0.02544741322
-0.02513622282
-0.0003111904003
-0.0005679898021
-0.03550933833
-6.379626966e-05
0.0391943709
-0.005876491925
-0.0399161234
0.006598244431
-0.03782671843
-0.005146418512
0.004358541243
0.0386145957
-0.005183547211
-0.03769548818
0.004771409478
-0.006259975026
0.007405066853
0.03804927907
0.02308358637
-0.02269935803
-0.0003842283435
0.04157637299
-0.04020901916
0.001200140481
0.001972027669
0.03724812286
-0.006559583745
-0.03851477872
0.007247644041
-0.00426232346
0.003650643524
0.04218805293
-0.02084078896
-0.0002823730889
-0.03572329493
-0.006541345851
0.006289039103
0.03597560168
-0.02746109598
0.03060548678
-0.003029478224
-0.000114912575
-0.009644445256
-0.04274365402
-0.006034239039
-0.02127671949
-0.0001501374498
-0.006935260893
-0.03600936999
0.00722133595
-0.03048215034
-0.000219024841
0.02724168296
-0.135313613
0.0297391014
-0.2563911745
-0.03701642185
-0.2343943155
-0.03178207569
0.2413792998
-0.02544830352
0.02838252943
-0.002711625242
-0.0002226006664
-0.01982523186
-0.00544629312
-0.0001767785437
0.02216040813
0.2508294771
-0.01952166512
-0.0003035667382
0.06655651164
-0.0112790763
-0.02143438501
-0.1293526664
0.01143052301
-0.01753053085
-0.1293515639
0.01878239115
0.01731577715
-0.02027261342
-0.01640041904
0.0193572553
-0.02006207267
-0.009733197565
0.01836928104
0.01142598919
-0.006616157218
0.007530934507
-0.01334030972
0.02433334333
-0.029114211
-0.03339263339
0.01910777986
-0.02675183743
-0.01988187136
0.02752592893
-0.02282747366
0.02142902604
0.01871422477
-0.1280403141
0.0290045676
-0.03102071202
0.1300564585
-0.1246981861
0.1262231923
0.03498497404
0.02259310492
-0.06855723136
0.01003883756
-0.04067070121
-0.01033456603
0.04096642968
-0.04371222944
0.04419255528
0.01129976394
0.04594907872
0.01054581485
-0.04490488045
0.03131024943
-0.007025585244
-0.03152538151
0.007240717334
-0.007074287878
0.007468398532
0.03205490281
0.03151593915
-0.008543399702
0.006615558026
0.06614692898
-0.01277777692
0.06491100575
-0.01279397985
-0.06538574213
0.06532628563
-0.01159208216
-0.06574694161
0.01201273814
0.04638121816
0.009543288707
0.007436593673
-0.04393794755
0.007855509028
-0.04228314406
-0.007944299712
-0.02652650241
0.005530393472
0.007980337104
-0.02949416676
-0.008256230156
0.03580774227
-0.02756221423
-0.0002651909306
0.01777395591
-0.006948647537
0.007076930851
-0.0574742301
0.0147441933
-0.0005948173709
-0.03346312778
-0.00381839785
-0.0002337782573
-0.03287890354
0.03300886928
-0.007562143767
0.004850211157
-0.03108405024
-0.006645064459
-0.02608849779
-0.0002503118322
-0.03327915335
0.03328571193
-0.006979748586
0.03405306005
-0.00693856515
-0.03412268899
0.03295447998
-0.006617200002
-0.03305352649
0.006716246516
0.01509912782
-0.07750777242
-0.01587893293
-0.07466070732
0.01717413966
-0.018215562
0.07570212966
-0.07714330889
0.07861557622
0.02060361793
-0.006690850317
0.007002060688
0.03380865679
0.03330174189
-0.007708388933
-0.007275808596
-0.03368682382
-0.06387757547
0.02263239882
-0.0236018549
0.06484703156
-0.06034550656
0.06118519048
0.02600742813
0.01722659254
-0.03405340105
0.01393435206
0.04336860093
-0.0005317846826
-0.0440172086
0.0437414226
0.01421013806
-0.04308578224
0.01487765934
-0.02928665672
0.02941723797
-0.0001305812483
0.009660473122
-0.03875401027
-0.0001931195732
0.007186837142
-0.03549148677
-0.007131489823
0.03329918624
-0.03222999045
0.006117641344
0.002994153169
0.03552959557
0.0222029519
-0.000137712078
-0.006408877246
0.02867063409
-5.880494566e-05
0.03401958536
-0.007411621497
-0.006042122818
0.03526261344
-0.03538685941
0.006166368791
-0.005939722523
0.006138013151
0.03575673237
0.03727331108
-0.006634704828
-0.007554769991
0.04605534681
-0.0003449530784
-0.03927996341
0.0383239798
-0.006598786376
-0.03833635894
-0.00475222159
-0.007459810831
0.005934952796
0.03039221961
-0.0321582808
0.03244166123
-0.007743191256
-0.008187815663
-0.03309368478
0.03512599389
-0.001803908289
-0.000228400823
-0.03044171849
-0.002341468712
-0.0003104975783
-0.0364970745
-0.003715541875
0.002385809993
-0.03450946735
-0.004373417149
-0.02963825026
-0.0001466878933
-0.02359540874
-0.00656222854
-0.0002840812078
-0.02339286678
-0.0002025419602
-0.004285463905
0.004427698095
0.03867332147
0.04170147065
-0.004472832708
0.0387468347
-0.005852713085
-0.03945370536
0.02545775757
-0.0003077252956
-0.03249189486
0.03995984404
-0.007231763856
-0.0002361853305
-0.003805604584
-0.0003037608441
0.03034194899
-0.02914768207
-0.0049728902
0.03260321395
0.03364879597
-0.006172603493
0.01017192061
-0.001550780689
0.004624310167
-0.009858239072
0.01329099288
0.004159694994
0.006012225617
0.007439252771
-0.03318594837
-0.007331181182
0.04002444406
-0.03230206364
-0.0002831276503
0.0271321294
-0.02054805634
-0.000155023769
-0.005013035735
-0.0001568984972
-0.006637876957
-0.03066082599
0.01638891719
-0.01707998541
0.0313518942
-0.02887783146
0.02961062375
0.01837498756
0.02376362983
-0.03069113002
-0.04582771691
0.04207285434
0.003935014462
-0.0001801518891
-0.05368037176
0.008176721838
-0.0003240669902
-0.04084856624
0.04048558352
0.0004414135865
-7.84308584e-05
0.001400195485
-0.0001759073866
0.0006321946357
0.03955678908
-0.0002052315062
-0.0448902599
0.04398693865
0.001535515887
-0.04599083593
0.001978414777
-0.04318760389
0.04252749002
0.001252201628
-0.0005327993999
0.001332134152
-0.0001258021349
-9.541029663e-05
0.03788713923
-0.0004500654241
-0.04260523849
0.04343622265
-0.000926394455
-0.04201851893
-0.0005930696093
-0.04428991867
0.04435209171
-0.003592138547
0.0009713531645
-0.001825049189
-0.0003614486431
0.009095951271
0.04671826377
-2.145053907e-05
-0.04576561759
0.04750080742
0.007360761443
-0.04289527558
0.008498229161
-0.04715164414
0.003002035789
-0.004607666099
0.004956829379
-0.0002510857889
8.74215322e-05
0.03684648648
-9.284248504e-05
-0.04053866598
0.04093676003
-0.0003106725117
-0.04012780561
-0.000248428121
-0.0414760836
-0.0004140211995
-0.0002239943684
-0.000315329204
-0.0004466097027
-0.04058733864
0.04170715721
-0.0007538169585
-0.0003660016084
1.76813193e-05
-0.0001194364475
-0.04510662688
0.05266447285
-0.007247427898
-0.0003104180755
-0.003254163296
-0.0001453063704
-0.01809941136
-0.0002135770227
0.01950589248
-0.0003904123309
-0.007764151021
-0.0002921707367
-0.008778417687
-0.0003254554571
0.03421459706
-0.05304171552
-0.0004532717554
0.03499427579
-0.0007796787343
0.01885035356
0.04057542971
0.0002896519595
-0.03593842322
0.05307766519
0.02343618775
0.02347775643
-0.03381682998
-0.03379817668
0.03359199796
0.0002061787169
0.0194709262
-0.0001914376892
-0.001778727424
-0.0002539371949
-0.02219848004
-0.0003982366938
-0.006124667735
-0.0002458466827
-0.0296470542
-0.007561663772
-0.009143708616
-0.01341046242
-0.03328980312
-0.007718067969
-0.0002540337237
-0.0002589865125
-0.005165765882
-0.0001785073489
-0.0424288639
0.05816244995
0.01534807202
-0.01296203095
0.01427458965
-0.0001335120207
-0.0114106019
-0.04481624924
0.01134035588
0.04213747747
-0.04388760624
0.05798833657
-0.04648167045
0.008068287804
-0.0003406276261
0.01216929563
-0.0004885161319
0.002847385677
0.03400429805
-0.0001684578565
-0.03895985168
0.03777773088
0.004029506477
-0.03992724126
0.00213842333
-0.03790265001
0.01039328982
-0.008122334191
0.007997415055
-0.0002065186016
0.0004769664747
0.03829401167
-0.0001576383126
-0.04188956036
0.04126539119
0.00110113565
0.001160513548
-0.04066006703
0.001372408865
-0.0005363691931
0.001141693346
-0.000254549673
-0.001265963986
0.0001218488321
0.04009108833
-0.03937527736
-0.002277297536
0.04038661091
-0.03845989804
-0.002729257908
-0.03565483948
-0.0002975891155
-0.0002559876364
-0.0003780821901
0.0238080371
-0.0494048599
-0.009556425992
0.02405652091
-0.0002484838144
0.03099800266
-0.000434564422
-0.007627348955
-0.0002564256974
-0.02479421506
-0.006981321325
-0.000110786189
-0.02443429505
-0.00035992001
-0.009643835803
0.03602600096
-0.04245493269
0.03949033315
-0.00667923626
-0.005740262269
-0.03810186106
-0.003929975969
0.007101101881
-0.005712629798
0.04425289249
-0.03638440269
-0.0002613787076
-0.009406220178
0.02142912222
-0.007797914677
0.02173812919
-0.0003090069626
-0.02803738355
0.03122965436
-0.000198117644
-0.0001816130178
0.003034498195
-0.005269407236
0.03199027144
-0.0002851391493
-0.0003574861673
-0.03641032287
-0.006609985323
0.03610632752
0.009338915721
-0.007425258794
0.00377106362
0.04192357077
-0.001665120058
-0.04394889045
0.04259970989
0.005120244178
0.005311925855
-0.04516573527
-0.04182834995
0.007606684654
-0.005208888046
0.005980247992
-0.003278892523
-0.03827206982
-0.0005640287402
-5.758518143e-06
-0.003042162053
-0.04613196608
0.005615620105
0.03937780928
-0.04204310791
-0.0003768634237
0.03608174067
-0.000171883171
0.04746066993
-0.0002408526809
0.005736372301
-0.0003188102739
0.007260358396
-0.05638518533
0.009830536247
-0.0002908495243
0.02798674492
-6.547102133e-05
0.02834470446
-0.0003579595424
0.0119394953
0.0001297377077
0.03657974524
-0.0002624247013
-0.03898521869
0.0393791538
-0.0002641974027
-0.03846211216
-0.000514367237
-0.0396993673
-0.0001947964724
-9.635369414e-05
-0.0002238597994
-8.717815877e-05
-0.007403897151
0.03305506695
-0.0002037565725
-0.03704186318
0.03675030323
-0.007112337202
-0.00951361315
-0.0377243426
-0.001305759369
0.002212859369
-0.003186898738
-0.0002414120121
-0.0391554915
0.04700945309
-0.00776161239
-9.234919703e-05
-0.003876732627
-0.0001527649877
-0.006354897705
-0.0001997661834
-0.03380995273
-0.007054412326
-0.009499857667
0.000527387471
-0.03880258138
-0.001933825259
0.03503532682
-0.03429907275
-0.000208866598
0.03657007339
-0.0003346060826
0.03335922529
-0.0003891949602
-0.0006493411911
-0.0002905062722
-0.002203799704
0.00984526356
-0.04089016581
-0.007469876469
0.03494560401
-0.04849320723
0.03563101951
0.04052003294
-0.0002993160293
-0.007763191153
-0.0002099831381
-0.006465304036
-0.004082926458
0.03489884784
-0.0002104346087
-0.0350797891
0.03660101937
-0.005604156725
-0.03281913917
-0.005290128158
-0.03625859421
-0.008216522536
0.03483067149
0.007583554291
-0.007241129134
-0.0002612518875
-0.03556097617
0.04335243928
-0.007566907861
-0.0002245552513
-0.004032697121
-0.0002986246891
-0.03168409919
-0.007169279013