/*--------------------------------*- C++ -*----------------------------------*\
| =========                 |                                                 |
| \\      /  F ield         | OpenFOAM: The Open Source CFD Toolbox           |
|  \\    /   O peration     | Version:  v2012                                 |
|   \\  /    A nd           | Website:  www.openfoam.com                      |
|    \\/     M anipulation  |                                                 |
\*---------------------------------------------------------------------------*/
FoamFile
{
    version     2.0;
    format      ascii;
    class       volScalarField;
    location    "1.23";
    object      nut;
}
// * * * * * * * * * * * * * * * * * * * * * * * * * * * * * * * * * * * * * //

dimensions      [0 2 -1 0 0 0 0];


internalField   nonuniform List<scalar> 
3259
(
1.147839016
1.147415386
1.147434878
1.148391407
1.149963356
1.153974486
1.160879708
1.09070191
0.8183020837
0.6387393829
0.5244522928
0.4229230983
1.147613518
1.147198098
1.147311546
1.148457969
1.150378067
1.155061379
1.162391341
1.136477982
0.8820567775
0.6940424001
0.5502197811
0.2785758788
1.147431015
1.147019635
1.147221985
1.148571607
1.150778222
1.155957476
1.163589971
1.167267664
0.9877513826
0.8074453465
0.6553783344
0.08289798588
1.147351042
1.146945414
1.147221132
1.148745275
1.151203827
1.156787274
1.164626058
1.167895415
1.154302257
1.005984382
0.8456254529
0.05432001654
1.147260439
1.146852036
1.147184354
1.148885173
1.151607091
1.15750462
1.165378536
1.168062211
1.153811882
1.092721922
0.8290499984
0.0626939065
1.147239151
1.14682914
1.147198147
1.149028865
1.151950943
1.158076498
1.165835757
1.167731521
1.151735711
1.086018849
0.8036031458
0.07215933479
1.147159868
1.146742061
1.147132191
1.149087444
1.152214285
1.158487739
1.165997016
1.166950271
1.148190134
1.073058118
0.7521610729
0.06700742399
1.147132452
1.146713842
1.147113119
1.149139959
1.152387962
1.158739071
1.165885681
1.165779345
1.143887457
1.05580901
0.6733554346
0.05336878882
1.147014149
1.146594726
1.146999177
1.149100145
1.152479519
1.158842159
1.165531501
1.164273089
1.138914292
1.035917653
0.5981968653
0.04579165955
1.146948697
1.146540331
1.146950921
1.149083114
1.152502293
1.158818818
1.16497116
1.162481649
1.133285157
1.012211089
0.5374886355
0.04245695378
1.1467728
1.146377653
1.146800113
1.148984211
1.152477091
1.158695995
1.164242255
1.160438206
1.126911431
0.9823915741
0.4890069723
0.04203919452
1.146664701
1.146294537
1.146735824
1.148939177
1.152416211
1.158497277
1.163373838
1.158145959
1.119481437
0.9471380359
0.4493171831
0.04315560092
1.146433565
1.146088621
1.146555301
1.148808044
1.152331863
1.158237236
1.162380231
1.155570892
1.110487331
0.9102608436
0.4162235524
0.04450852047
1.146289934
1.145980238
1.146479867
1.148751154
1.152223798
1.157921795
1.161262243
1.152651475
1.099508096
0.8745546273
0.3884239018
0.04618442969
1.146014189
1.145737056
1.146272234
1.148591409
1.152097188
1.157551927
1.160013324
1.14930914
1.086511114
0.8410861583
0.364871596
0.04828681561
1.145842456
1.145607188
1.146186236
1.148524201
1.151946238
1.157126684
1.158622304
1.145460807
1.071831978
0.8100308731
0.3445814778
0.05090890555
1.145538555
1.145339226
1.145958756
1.148336548
1.15177643
1.156644501
1.157074123
1.141022975
1.055957538
0.7812192841
0.3268780362
0.05405881884
1.145341377
1.145188194
1.145859489
1.148257555
1.151581108
1.156104536
1.155349352
1.135949501
1.039345702
0.754484521
0.3113842698
0.0577804233
1.145035089
1.14491795
1.145630184
1.148051925
1.151368254
1.155505428
1.153427102
1.130230443
1.022352183
0.7296474
0.2977411896
0.06204514557
1.144803099
1.144735365
1.145504956
1.147951539
1.151130422
1.154845376
1.151286483
1.123885412
1.005222959
0.7065168743
0.2856591698
0.06682365541
1.14453442
1.144499934
1.145307733
1.147755266
1.150875731
1.154120522
1.148906737
1.116957303
0.9881222121
0.6849067321
0.2748857738
0.07212514608
1.144239236
1.144257705
1.145126889
1.147599959
1.150598255
1.153329308
1.146278538
1.109500114
0.9711532673
0.664643626
0.2652227334
0.07790678596
1.144056939
1.144103816
1.145005611
1.147469441
1.150307667
1.152474158
1.143417091
1.101569992
0.9543794973
0.6456202204
0.256528583
0.08411930865
1.143690547
1.143803644
1.144779802
1.147247779
1.1500264
1.151577929
1.140418034
1.093261118
0.9379569505
0.6278832618
0.2486508755
0.09063541374
0.4277896418
0.3259388717
0.5240100305
0.50742004
0.539343494
0.402834043
0.4978774131
0.3875855298
0.02910250532
0.04836733808
0.2654730273
0.04933588379
0.03085283342
0.00468280786
0.02878473359
0.3822711752
0.01810975953
0.01040970176
0.03050743931
0.01844660552
0.01176633849
0.04342107991
0.1880452303
0.1746861078
0.206519686
0.1934570581
0.04378174701
0.06534696344
0.2248999855
0.2112843713
0.2294284016
0.06667223946
0.04731762538
0.04631546372
0.1694643396
0.1594895903
0.02294360208
0.01162915188
0.0234126332
0.01533129809
0.02904604857
0.01156178831
0.01445723237
0.01179778014
0.02907737959
0.01207790082
0.01972102344
0.6146783771
0.3691497559
0.3904796783
0.2471262846
0.008269769771
0.005312393741
0.03203072876
0.09393896815
0.08856995243
0.01112642514
0.0161671026
0.04948683842
0.03766893235
0.004379598429
0.1214368735
0.1031547936
0.08672570544
0.08235642663
0.02838925311
0.02137288834
0.01787371739
0.01136574333
0.02092427883
0.02778653272
0.002854321418
0.03002036503
0.0194641128
0.1025473588
0.0958688154
0.0356961222
0.04594332273
0.1099608947
0.1043808103
0.04883321328
0.04243416806
0.02731145204
0.07968829887
0.07120564318
0.01258186535
0.0120855571
0.01707896681
0.01169479494
0.01261757022
0.01864302503
0.02990738405
0.008082663291
0.01275537891
0.01150616742
0.01201734557
0.02027835742
0.1173995272
0.1117356513
0.04643172136
0.05691996251
0.1258800669
0.1193662908
0.01927325826
0.01956130517
0.03167822871
0.01806505725
0.03029285466
0.01884727737
0.01901275904
0.01846026439
0.1343350118
0.1280523647
0.06012287272
0.06965899349
0.1418867823
0.136211678
0.03103280245
0.03109992269
0.04767680098
0.04598763895
0.03063777119
0.03060320244
0.02178490253
0.03438357218
0.03406067587
0.008460465495
0.01388005119
0.02067266298
0.01271009062
0.01199894748
0.01794844123
0.01819204252
0.02949483668
0.01162921044
0.008449318574
0.01154850759
0.01153355534
0.02755333751
0.01745926913
0.01803888765
0.01460634979
0.01956833589
0.01937767592
0.01525017441
0.03369335766
0.02014617188
0.02104971616
0.04068463312
0.02813126879
0.003024459739
0.02840031401
0.04343276831
0.04305836834
0.01783928322
0.0113454754
0.008321142686
0.003898951651
0.01238829717
0.01248568459
0.01862120581
0.01877856414
0.03021714696
0.01888322979
0.01893784706
0.01889294974
0.01918037074
0.01911885665
0.02902607038
0.02899187728
0.04403108126
0.0181427182
0.01915510704
0.01866786874
0.01873084955
0.04146319115
0.04086794096
0.02711635941
0.01267387872
0.01056138978
0.0105852964
0.007907280081
0.0109135951
0.01220144423
0.01766130857
0.01210808544
0.01242136131
0.01230123251
0.02961663418
0.01830109568
0.01850580177
0.01131570305
0.01165692514
0.01157248721
0.01194437509
0.01201851724
0.00845008142
0.008441223533
0.01191552186
0.01166054868
0.01190423038
0.0148278605
0.01829825934
0.02761276815
1.081755385
0.8650346236
0.8066038175
0.6665353048
0.6297523871
0.5463825908
1.118018159
0.9169615902
0.8758635923
0.8604870294
0.7156481789
0.6769050574
0.6740339291
0.5617145829
0.5487250052
0.5250818852
0.500129956
0.5171406006
0.4076922813
0.246374758
0.2605461109
1.167049535
1.008415909
0.9379287117
0.9550837133
0.8118834316
0.7364999421
0.7690687717
0.6541017019
0.5757558181
0.5611740004
0.5192557366
0.5015941922
0.2728922219
0.1307799175
0.1496056358
1.167781024
1.160317954
1.039452133
1.107125192
0.9822980638
0.8472067687
0.9485571385
0.862623304
0.694911602
0.8466700142
0.2363006421
0.3356377521
0.05536855734
1.168067933
1.16025763
1.160403119
1.154080519
1.116473716
1.03680526
1.093540834
0.9422018528
0.9451104192
0.8330978584
0.2187212985
0.2259798314
0.05959084766
1.167857383
1.159017236
1.160059513
1.152395449
1.112657675
1.115883016
1.088256935
0.9256275657
0.9390212298
0.8120709814
0.2178192716
0.2191534224
0.07088819731
1.167183908
1.156643566
1.158501325
1.149155285
1.10468122
1.11109042
1.076945069
0.893468963
0.9191950615
0.7681401214
0.200383331
0.2156531332
0.07010623746
1.166105849
1.153625049
1.155942183
1.145027508
1.093276728
1.102009699
1.06035957
0.8415825124
0.8822965552
0.6935261362
0.1634361348
0.1917928064
0.05619321499
1.164678117
1.150072291
1.152784198
1.140218564
1.08005581
1.090139136
1.041169715
0.7776769217
0.8265640464
0.6157335711
0.1360940513
0.1555568988
0.04721996966
1.162953812
1.146028244
1.149105967
1.134755656
1.064833119
1.076458232
1.018630749
0.7111159774
0.7607109014
0.5513536146
0.1149295772
0.1304074971
0.04292892914
1.1609717
1.141486318
1.144940983
1.128587068
1.046509845
1.060610895
0.9904696584
0.653036032
0.6955987465
0.5001896426
0.09858085252
0.1103335244
0.04197051909
1.158743216
1.136332576
1.140262285
1.121464084
1.023461013
1.041227635
0.9562578285
0.6047171893
0.6401219466
0.458557081
0.08690921959
0.09531138434
0.04284941325
1.156243512
1.130312647
1.134920808
1.112910535
0.9959516646
1.016928643
0.9194451007
0.5638898844
0.5938835812
0.4239573894
0.07913168153
0.08462554321
0.04414646334
1.153418048
1.12309228
1.128632242
1.102448282
0.9662408819
0.9886296443
0.8832902211
0.5288879133
0.5546356727
0.3949353406
0.07394636411
0.07767742182
0.04573168223
1.150183897
1.114410359
1.121064255
1.08993536
0.9363615784
0.9587295144
0.849221278
0.4986131272
0.5209082118
0.3704158763
0.07047354853
0.07289838804
0.04771986465
1.146475806
1.104212039
1.111998954
1.075633481
0.907314735
0.9289954692
0.8175777657
0.4721880154
0.491673875
0.3493940131
0.06837204957
0.06982786227
0.05020508451
1.142189908
1.092653671
1.101439088
1.060011435
0.8795435389
0.9002391076
0.7882204001
0.4488658551
0.4660840423
0.3310832183
0.0673225828
0.06799712227
0.05323354813
1.137277392
1.080009911
1.089581678
1.043546023
0.8532391756
0.8728217223
0.76098181
0.4281755536
0.4434563927
0.3150712549
0.06712174907
0.06717789157
0.05681872626
1.1317195
1.066570148
1.076712736
1.026620878
0.8283987757
0.8468927689
0.7356889111
0.4097327703
0.4233641413
0.3009961772
0.06756789821
0.06714184276
0.06096101572
1.12552779
1.052584785
1.06311505
1.009508156
0.8049296129
0.8224036649
0.7121486797
0.3932001484
0.4054271683
0.2885444887
0.06854770661
0.06771308962
0.06563076013
1.11874011
1.038247666
1.049025609
0.9923876804
0.7827309966
0.7992620529
0.6901750988
0.3782916245
0.3893309072
0.2774543615
0.06981345313
0.06877728611
0.07084433031
1.111410041
1.023704168
1.034625093
0.9753781303
0.7616921577
0.7773650178
0.6695824232
0.3647380505
0.3747937145
0.267495371
0.07135008688
0.07010252412
0.07656132546
1.103591218
1.009055062
1.020047827
0.958542609
0.7417053813
0.756604365
0.6502158232
0.3523364006
0.3615819805
0.2584792559
0.07302659403
0.07164616822
0.08277483366
1.095320623
0.9943345464
1.005393416
0.9418624226
0.7225905488
0.7369067099
0.6318573904
0.3408813457
0.349550058
0.2502319539
0.07495660393
0.07334478086
0.08938784633
1.086061751
0.9785938789
0.9908282572
0.9242518383
0.7030045366
0.7183548165
0.6131898785
0.3294072062
0.3386124285
0.241922476
0.07745382156
0.07532221136
0.09679098634
0.2654869178
0.2798634743
0.4426606008
0.1556790101
0.1709981177
0.3339885947
0.03668629745
0.5127382958
0.5382946722
0.5232040815
0.533028375
0.5277136639
0.5116168776
0.4935368034
0.5058792642
0.5299199657
0.4486717404
0.4862202951
0.475707036
0.5082055289
0.4904664933
0.4629897863
0.2273184228
0.2411547245
0.4027146092
0.02932300756
0.04642849962
0.0456036508
0.06998641671
0.06868052182
0.0476204794
0.009720960381
0.009109094063
0.228867313
0.01778105118
0.01944893864
0.04135096361
0.04931484096
0.05089741629
0.0733258118
0.07143375013
0.1435848504
0.07080472641
0.4472429099
0.2846168147
0.003352237712
0.02602768076
0.01425106729
0.04474108336
0.04428153867
0.02870388885
0.3673606047
0.2077672256
0.2213057798
0.01437855995
0.01369285482
0.005529934302
0.06072949738
0.05891641886
0.04159136833
0.1845302952
0.1352085324
0.1379546511
0.1146157823
0.1249193927
0.1786431526
0.2023242355
0.151323061
0.1551099147
0.1433261827
0.1466980175
0.197364159
0.04478958415
0.0632073274
0.06187070979
0.08699879171
0.0853819904
0.06427532081
0.2203749449
0.1681931139
0.1723551892
0.1595405528
0.1637395758
0.2157228134
0.2385126964
0.1844670263
0.1764553007
0.180463975
0.2339513891
0.06755825367
0.09004653955
0.08860219919
0.1668775842
0.1056220965
0.1118725063
0.09332373176
0.1024956485
0.1592075848
0.02347192434
0.016334184
0.016791583
0.01275743138
0.01291318605
0.01621823645
0.01365248762
0.01222536185
0.01257053662
0.01279777059
0.01573435136
0.5759539806
0.5430480667
0.5833443181
0.34786341
0.4924408996
0.519851763
0.4713534668
0.4864453872
0.3577157565
0.1182680289
0.144150962
0.2614788622
0.00802165832
0.03408721488
0.02737628701
0.09590094577
0.1097582123
0.006663994976
0.05038634624
0.04803422417
0.0301936542
0.09207335856
0.06908858923
0.07129360985
0.06587443148
0.06713690651
0.0901106613
0.01255062282
0.03304731469
0.02377143904
0.03430534079
0.03047319269
0.01590296912
0.03164423541
0.03180556593
0.05008224833
0.009759854935
0.006875360982
0.002860440064
0.1144339092
0.05980797112
0.06629841663
0.05121109195
0.05742026173
0.1082423677
0.08541734123
0.06352242406
0.06441346198
0.06127993869
0.06206696226
0.08344784909
0.02606766102
0.01774808136
0.01320902088
0.01430938935
0.012579514
0.0116216962
0.01711240661
0.005949175663
0.007780683489
0.100398491
0.07880929699
0.08067981635
0.07401674077
0.07645836736
0.09831880436
0.04002509689
0.05668130914
0.0537473455
0.06539845766
0.06418339661
0.04520023895
0.1080247264
0.08545815778
0.08703456655
0.08234198109
0.08394830545
0.1062909151
0.04837541275
0.03134743651
0.03142273386
0.07879210674
0.0582412322
0.05918796071
0.05015246323
0.05148374785
0.07102382459
0.01247372161
0.01245181232
0.01227046314
0.01719990373
0.01343233904
0.01400348198
0.01181361052
0.01207952917
0.0132742349
0.115439668
0.09169008119
0.09337682157
0.08854521974
0.09013266932
0.1136331048
0.04707521339
0.0675911263
0.06641308861
0.07848536537
0.07570676015
0.0534218541
0.1236124805
0.09942713537
0.1018398342
0.09516525961
0.09717395695
0.1214469311
0.1322619345
0.108525344
0.110479554
0.1042008706
0.1064712297
0.1302695931
0.06234763989
0.08343408503
0.08109858367
0.09303355385
0.09158803673
0.06872123174
0.1400114843
0.1162697739
0.1182847245
0.1123921161
0.1143064259
0.1381999372
0.01469382328
0.01531407963
0.02165524924
0.0126713274
0.012779958
0.01252025777
0.01356894089
0.01303166661
0.01291490967
0.01363698637
0.03071420501
0.0151409242
0.02154138246
0.0139452654
0.0147940779
0.02902525491
0.002075441167
0.00663648196
0.006378102371
0.009030302008
0.007363735711
0.003753942292
0.011404201
0.008585006047
0.009608541595
0.01027876199
0.009299255334
0.01146034514
1.149896927
1.151435954
1.153619661
1.156469022
1.160030907
1.156018833
1.150211715
1.152043042
1.151627123
1.15460169
1.157878453
1.157194031
1.161728432
1.16570565
1.164688771
1.097403523
1.021714958
1.010388409
0.8310913324
0.778968724
0.7664089572
0.6490585314
0.613784877
0.604854157
0.4177473824
0.3654196992
0.3705345176
1.150587821
1.15267892
1.152352416
1.155516896
1.159068671
1.158489464
1.163007887
1.16685064
1.16604528
1.148343477
1.079261886
1.065169145
0.8985047316
0.8470682691
0.8301334932
0.7105602842
0.6705535488
0.653863843
1.151007664
1.153321205
1.152992532
1.156387225
1.160132549
1.15961841
1.164136982
1.167665519
1.167074743
1.167464281
1.166466403
1.165389536
1.023305914
0.9748576213
0.9386636284
0.8498975047
0.8129087357
0.7695021516
0.7061599878
0.6860764244
0.6242707792
0.06786421739
0.01446913354
0.01388178276
1.15142788
1.153922765
1.153618657
1.157165759
1.161031584
1.160605125
1.165037555
1.168141267
1.167815241
1.167983797
1.166911502
1.166855627
1.154318734
1.145603706
1.109823108
1.071982459
1.050811357
0.9772140851
0.8409984169
0.6837069952
0.6903077718
0.05512775037
0.01609490036
0.01591467832
1.151803595
1.154443187
1.154183533
1.15781325
1.16172917
1.161406434
1.165645034
1.168222991
1.168204813
1.168013437
1.166720989
1.166827093
1.153440418
1.144467327
1.144947497
1.091601552
1.05827457
1.060000879
0.8244199805
0.6627785303
0.6683047946
0.06571196488
0.01774173378
0.01719762105
1.152107386
1.154856457
1.154653096
1.158305292
1.162210445
1.161996663
1.165952165
1.167894779
1.16817593
1.167579127
1.165876519
1.166137096
1.150933885
1.141196682
1.142219218
1.083443965
1.046454073
1.05017239
0.7937470078
0.6238830404
0.6367100859
0.07299073706
0.01933055729
0.0191160876
1.152322823
1.155151497
1.155008507
1.158635436
1.162477151
1.162369623
1.165973736
1.167201153
1.167753392
1.166692233
1.164528556
1.164907976
1.147179405
1.136017678
1.137410261
1.06898492
1.02554413
1.031547352
0.7335502749
0.5501297589
0.5714406733
0.06341353808
0.02129860318
0.0206453404
1.152451358
1.155330034
1.155245085
1.158810218
1.162543139
1.162533754
1.165736821
1.166188387
1.166976062
1.165432023
1.162757918
1.163236397
1.142705129
1.129867353
1.131490727
1.051097275
0.99930318
1.006213428
0.6534931544
0.4708892779
0.4885992557
0.0510526533
0.02492657319
0.02394851945
1.152502721
1.155405483
1.155370371
1.158846546
1.162429783
1.162507017
1.165274672
1.164904924
1.165891624
1.163850068
1.160629917
1.161192362
1.137568697
1.122809964
1.1246597
1.03043579
0.968376758
0.9767142726
0.5816372375
0.4119796656
0.4251896831
0.0445329285
0.02936323337
0.02816968867
1.152497008
1.155398918
1.155402521
1.158769856
1.162165121
1.162314261
1.164625695
1.163393764
1.164548328
1.161993294
1.158186704
1.158825232
1.131768681
1.114796736
1.116900144
1.00539054
0.9297782457
0.9402108148
0.5243744766
0.366464493
0.3768730109
0.04214492313
0.03471708251
0.0332614017
1.152449572
1.155332181
1.155363993
1.158606389
1.161778737
1.16198534
1.163824225
1.161678714
1.162985421
1.159888337
1.155441128
1.156158608
1.1251703
1.105505577
1.107982674
0.9739540112
0.8849253336
0.8963681974
0.478358938
0.3302683605
0.3385756914
0.04224156623
0.04112472098
0.03945128243
1.152374909
1.155220748
1.155274248
1.158375605
1.161293186
1.161547268
1.162892369
1.159756943
1.161220422
1.157529976
1.152363301
1.153170483
1.117399924
1.094214414
1.097270183
0.9379280747
0.8401445839
0.8510746763
0.440486436
0.3012242309
0.3079122122
0.04347341156
0.04837677382
0.04647504667
1.152276277
1.155072876
1.155144809
1.158087347
1.160720413
1.161017251
1.161837065
1.157602388
1.159243928
1.154875515
1.148857372
1.14977998
1.107937142
1.080240915
1.084000036
0.9011564586
0.7989430667
0.8088585393
0.4088198926
0.2776769852
0.2830996965
0.04489599815
0.05656826155
0.0544428787
1.152158426
1.154890629
1.154980611
1.157744649
1.160064122
1.160402572
1.160654844
1.155171913
1.157024819
1.151861444
1.144806072
1.145877017
1.096439031
1.063595936
1.067977173
0.8659593545
0.761729881
0.7706796894
0.3821772107
0.2585215619
0.262949224
0.04666569056
0.06543772931
0.06317423998
1.152018133
1.154674369
1.154782132
1.157347219
1.159323301
1.159704292
1.159336544
1.152418402
1.15451878
1.1484007
1.140072389
1.141325785
1.082980155
1.044951286
1.0497537
0.8331003863
0.7280843555
0.7361871908
0.3595245992
0.2425417293
0.2463011139
0.04890037398
0.07467489694
0.07234558465
1.151857528
1.154422503
1.154548952
1.156893766
1.15849447
1.158919944
1.15786902
1.149280439
1.151674986
1.144408021
1.134546889
1.136006974
1.067955346
1.025128796
1.030154443
0.8026220769
0.6975493349
0.7049149267
0.3399276178
0.2288423128
0.2320765751
0.05164609349
0.08402302962
0.08168719784
1.151674702
1.154135505
1.154279545
1.15638309
1.157572855
1.158045347
1.156234861
1.14570566
1.148432931
1.139813475
1.128172894
1.129846428
1.051856983
1.004795701
1.009898796
0.7743448154
0.6697303941
0.6764481826
0.3228107235
0.2170393029
0.2198237344
0.05495362891
0.09330387813
0.09099299218
1.151469964
1.153812649
1.153974672
1.155814501
1.15655234
1.157074908
1.154414331
1.141648744
1.144740963
1.134579025
1.120963683
1.122841557
1.035120425
0.9844079984
0.9894918438
0.7481024605
0.6443149042
0.6504606286
0.3078120277
0.2068393111
0.2092529291
0.05882015368
0.1023525044
0.1001165095
1.151248652
1.153456091
1.153633148
1.155186394
1.155424816
1.156001849
1.152385441
1.137094491
1.140561159
1.128700474
1.112984031
1.115046588
1.018074135
0.9642475361
0.9692566435
0.7237095507
0.6210072494
0.6266516865
0.2945818898
0.1979712318
0.2000723317
0.06323275941
0.1110034759
0.1088687878
1.151000847
1.153063772
1.153257156
1.154495696
1.154179044
1.154817704
1.150122157
1.132035947
1.135878756
1.122204899
1.104324378
1.106547738
1.000938798
0.9444554038
0.9493646474
0.7009765999
0.5995518788
0.6047563074
0.2828414355
0.1902138648
0.19205867
0.06816974963
0.1191785249
0.117152325
1.150748852
1.152637145
1.152842601
1.153735978
1.152799748
1.153512248
1.147603361
1.12649434
1.130700687
1.115139179
1.095082668
1.097442463
0.9838633367
0.9251044426
0.9298975678
0.679714947
0.5797042951
0.5845329048
0.2723384119
0.1834151223
0.185056605
0.07363626664
0.1268698702
0.1249380863
1.150453885
1.152167347
1.152395389
1.152895757
1.151263368
1.152078784
1.144792578
1.120488376
1.125040895
1.107558052
1.085352099
1.087826258
0.9669364571
0.906242007
0.910912284
0.6597538954
0.5612511278
0.5657634035
0.2628733871
0.1774055752
0.1789098676
0.07961266361
0.1341512305
0.1322608664
1.150158828
1.151639555
1.151914228
1.151949414
1.149530962
1.150519599
1.141620426
1.114035859
1.118925399
1.099513068
1.075209518
1.07778589
0.9501921786
0.8878846492
0.892455049
0.6409340723
0.544004216
0.5483177019
0.2542872222
0.1720767468
0.1735086426
0.08603727681
0.1411037209
0.1391802823
1.149794384
1.15102104
1.151429837
1.150803221
1.147408393
1.14885826
1.137788175
1.106707415
1.112412126
1.090956364
1.064592664
1.067449356
0.9334165974
0.8697266816
0.8746641998
0.6228488659
0.5275773052
0.5322023983
0.2462624198
0.1669882097
0.1685260783
0.09281854449
0.1478711095
0.1457810895
0.3756879963
0.3808697465
0.4329104463
0.2554879965
0.2678046604
0.320628639
0.516577295
0.5204452558
0.5127657291
0.4107071785
0.4418108857
0.4307527895
0.504545536
0.4957784777
0.4870358001
0.3351113111
0.3398065474
0.3925561044
0.4559277796
0.4081716296
0.3774526585
0.3255109923
0.3294195926
0.01821394716
0.4191800016
0.4157857281
0.3795113113
0.01139110129
0.01039876796
0.005639344493
0.01145340244
0.01577389459
0.01493814221
0.02298299898
0.01801602011
0.01467188176
0.02219473364
1.001887527
0.9912491076
1.072759371
0.8540281585
0.9187054448
0.929718787
0.7548866477
0.743635491
0.7957257014
0.6563294614
0.6972852431
0.7081786869
0.5974619753
0.5898351927
0.6205347546
0.5434403692
0.5643777972
0.5701450538
1.046068032
1.032604708
1.108927404
0.9020109984
0.9642886385
0.978399809
0.9394287343
0.9524365161
0.8886751129
0.808428919
0.7929636893
0.8450657634
0.7010444642
0.7450061447
0.7602296813
0.7194039242
0.7312727178
0.6880797209
0.6356727005
0.6233615488
0.660308549
0.5546474421
0.59068105
0.6006162651
0.5759714895
0.5830823588
0.5512298932
0.3552176498
0.3602877356
0.4128603232
0.2508820138
0.305744214
0.3008592884
0.3158027513
0.3108543428
0.2559133389
1.1336506
1.103799498
1.166811278
0.9788056505
1.037332833
1.066766155
0.9982248562
1.012603703
0.9534189492
0.9047912792
0.8732148943
0.9244527944
0.7796549856
0.8250220237
0.8567397461
0.7817714665
0.7989311194
0.7530758406
0.730605629
0.6968097816
0.7364647302
0.6195390365
0.6590375848
0.6938502096
0.6172850724
0.6330388784
0.5928741026
0.2024178465
0.1979384327
0.1445270605
1.166761735
1.166631402
1.1676354
1.117593544
1.164236637
1.164367017
1.098025158
1.134246843
1.074949097
1.059055981
1.014786029
1.062062049
0.933066137
0.972196455
1.018505517
0.890592944
0.9287586168
0.887802761
0.9162234553
0.862007279
0.8967730226
0.7957229034
0.8295334935
0.8861957405
0.7335762074
0.7786706337
0.7416333526
0.6984589575
0.7088404956
0.7685442679
0.2561681158
0.5091608514
0.4911398005
0.5553630861
0.5313104666
0.2900554206
0.01553893454
0.01510566429
0.05893120349
0.03865571373
0.04085028205
0.03305906848
0.03582470205
1.166901161
1.166926999
1.168042183
1.160378776
1.16446881
1.164394171
1.164451647
1.164487005
1.160425556
1.145292949
1.145507993
1.154247304
1.116872266
1.133413737
1.133131023
1.070312154
1.131480188
1.099176447
1.061284998
1.062274866
1.094154582
0.9450846994
1.015784617
1.014018751
0.9552860116
1.017312663
0.947870751
0.6732390533
0.6781912114
0.8369526981
0.2191102065
0.460564147
0.4544098772
0.4784425931
0.4683497515
0.2209833405
0.01677923412
0.01635296266
0.05706570526
0.04301643499
0.04259336748
0.04216516116
0.04294905965
1.166359485
1.16656097
1.167949568
1.15942729
1.163832067
1.163521819
1.164259885
1.164064692
1.159776623
1.143077524
1.143837122
1.152946067
1.114019421
1.13126585
1.130246113
1.13268671
1.132068387
1.115069464
1.053383469
1.056113854
1.090142187
0.9309298165
1.006070263
1.002157783
1.01186929
1.009244144
0.9353287959
0.647509881
0.6560214632
0.8188517627
0.2189583955
0.4379164831
0.4305521298
0.4491410081
0.443910182
0.2195048179
0.01871292206
0.01822985616
0.06857569986
0.04104326164
0.04094612113
0.04202380491
0.04143040333
1.165259963
1.16558294
1.167390963
1.15730325
1.16232822
1.161857892
1.163152482
1.162760875
1.157916222
1.1387305
1.139993877
1.150062663
1.107144605
1.126187174
1.124415589
1.129107062
1.127770862
1.109262279
1.037177015
1.042102008
1.080421814
0.9033801307
0.9860568603
0.9790133973
0.9975034337
0.9922215509
0.9118825456
0.5910471372
0.608684951
0.7821223244
0.2070406993
0.3982486316
0.3842910466
0.4215558292
0.4107586185
0.2125058436
0.02007417564
0.01964626092
0.07208100791
0.04323155
0.04493932037
0.04122695152
0.04201240826
1.16369171
1.164122657
1.166410188
1.154432029
1.160255645
1.159662107
1.161354669
1.160820322
1.15520501
1.133057294
1.134566403
1.146125227
1.096300404
1.118578518
1.116464166
1.122562961
1.120611909
1.099211945
1.012880628
1.019320966
1.064752136
0.8558634376
0.9530624419
0.943584272
0.9710321013
0.9622108902
0.8694696807
0.5077287344
0.5283120795
0.7137001911
0.1726129784
0.3363676355
0.3212502973
0.368810401
0.3528497224
0.1826744604
0.02302813566
0.02214796189
0.05959081131
0.05310021755
0.05652505843
0.04716573451
0.0498141286
1.161735066
1.162257164
1.165064703
1.151007432
1.157719531
1.15702076
1.159040902
1.158393239
1.15191185
1.126451999
1.128187685
1.141482386
1.083531
1.10964392
1.107211187
1.114269979
1.111996921
1.086891913
0.9846112301
0.992119408
1.046222616
0.7944566859
0.9125380872
0.901024338
0.9337202599
0.9234037909
0.8108270303
0.4393061975
0.4544935483
0.6342175007
0.1418466532
0.2833599112
0.2727262328
0.3075800948
0.2949528256
0.1481941573
0.02703759377
0.02596416389
0.04888481219
0.06723519826
0.07089967524
0.06004183517
0.06362780529
1.159445045
1.160046717
1.163410402
1.147084188
1.154780702
1.153987106
1.156297718
1.155550995
1.148110281
1.118933444
1.120901993
1.136183165
1.068864389
1.099416584
1.096637153
1.104697786
1.102101318
1.072733426
0.9501463236
0.9595339823
1.024690055
0.7272264752
0.8625629412
0.8487347911
0.8888352346
0.8759825147
0.7438207026
0.3878991839
0.3995765047
0.5660465972
0.1198024756
0.2448475777
0.236656117
0.262849352
0.2535684097
0.1249883119
0.03188027161
0.03058343023
0.04362088053
0.08191225136
0.08554779558
0.07456657988
0.07822321734
1.156854058
1.157529793
1.161490439
1.142672076
1.151467086
1.150578485
1.153170536
1.152330865
1.14382324
1.110348548
1.112615943
1.130204469
1.05148245
1.087615204
1.084323128
1.093753353
1.090752196
1.056172868
0.9077370705
0.9189124538
0.9981465044
0.6665639255
0.8066966895
0.7930650387
0.8346907377
0.8206135128
0.6807500857
0.3473486073
0.3566283745
0.5119606432
0.1022092336
0.2149332626
0.2085932992
0.2289318785
0.2217130289
0.1061242162
0.03781097274
0.03623704115
0.04197696689
0.09603668425
0.09942181592
0.08912040173
0.0926034924
1.1539504
1.154705575
1.159324169
1.137689808
1.147750658
1.146747823
1.14966396
1.148722
1.138998621
1.100162737
1.102903257
1.123357509
1.029699971
1.073307006
1.069193136
1.080854898
1.077189959
1.035627064
0.8622082682
0.8735107256
0.9652199326
0.6160055277
0.7544933841
0.742475972
0.7797962759
0.7669351417
0.6277957792
0.3149843261
0.3224222415
0.4682270116
0.08940848769
0.191941725
0.1870807843
0.2026811046
0.1971243244
0.09223408757
0.04462919685
0.04284165265
0.04254136173
0.1090945797
0.1121605256
0.1026857532
0.10591813
1.15067024
1.151530752
1.156896875
1.131916785
1.143522242
1.142364372
1.145710702
1.144636659
1.133451245
1.087582871
1.090986982
1.115212602
1.003136605
1.055412372
1.050354031
1.064839538
1.06024489
1.010142995
0.819029893
0.8294584804
0.9286806899
0.5734999109
0.7088376262
0.6983657627
0.7308719462
0.7196682912
0.5834917297
0.2888222566
0.2948681815
0.4320440207
0.08080267363
0.174236796
0.1704565629
0.1824897071
0.1782410111
0.0826343512
0.05236574531
0.05034193569
0.04380323331
0.1208974527
0.1236002553
0.1151580965
0.1180839826
1.146908363
1.147901046
1.154159144
1.125027006
1.138597673
1.137232315
1.141160039
1.139905791
1.126872489
1.07221962
1.076311242
1.105258376
0.9737446984
1.03402157
1.028266242
1.045088225
1.039637012
0.9812179601
0.7798599385
0.7892787741
0.8921620181
0.5371566402
0.6689618897
0.6597752992
0.6882394908
0.6784451939
0.5457350641
0.2676028796
0.2725076136
0.4017324213
0.0750649161
0.1605676882
0.1576825488
0.1669598528
0.1636962117
0.07632598711
0.06093934118
0.05873465065
0.04529733308
0.131112494
0.1334417122
0.1261988405
0.1287000229
1.142531252
1.143691441
1.15103719
1.116724728
1.132765371
1.13114319
1.135807088
1.134319306
1.118942823
1.054470807
1.05908903
1.093246698
0.9437792769
1.010401374
1.00431224
1.022397043
1.016435899
0.951238098
0.7444914459
0.7530031647
0.8575115531
0.505787391
0.6338784565
0.6257552294
0.6508752625
0.6422488878
0.5132174377
0.2502058376
0.2542732501
0.376181332
0.07117364934
0.149809738
0.1473415399
0.154994955
0.1523827066
0.07198494299
0.07002662568