/*--------------------------------*- C++ -*----------------------------------*\
| =========                 |                                                 |
| \\      /  F ield         | OpenFOAM: The Open Source CFD Toolbox           |
|  \\    /   O peration     | Version:  v2012                                 |
|   \\  /    A nd           | Website:  www.openfoam.com                      |
|    \\/     M anipulation  |                                                 |
\*---------------------------------------------------------------------------*/
FoamFile
{
    version     2.0;
    format      ascii;
    class       volScalarField;
    location    "1.64";
    object      k;
}
// * * * * * * * * * * * * * * * * * * * * * * * * * * * * * * * * * * * * * //

dimensions      [0 2 -2 0 0 0 0];


internalField   nonuniform List<scalar> 
3259
(
37.00290416
37.00422697
36.99964496
36.98693771
36.9754955
36.96623343
36.96057056
36.95709101
36.9107462
36.90940642
36.9087719
36.9084224
37.01951527
37.0274001
37.01274633
36.96506342
36.90659611
36.86045871
36.80920938
36.78951046
36.73501775
36.73065711
36.72856058
36.72755905
37.07763938
37.09267957
37.06347045
36.98769838
36.87867703
36.77378191
36.6787087
36.63450061
36.56671913
36.55679734
36.55210365
36.55022949
37.24367751
37.25012061
37.19011419
37.07434807
36.91768068
36.75483453
36.58858616
36.50230482
36.4082098
36.38945835
36.38027757
36.37670234
37.61537537
37.59535035
37.46188644
37.26092548
37.03193077
36.79754014
36.56128163
36.40150735
36.26459923
36.2285855
36.21210123
36.20570747
38.44685903
38.34513463
37.9858865
37.6070852
37.24587251
36.90858113
36.58010879
36.33872073
36.13642903
36.07357806
36.04623199
36.03548718
40.35314595
40.17293259
38.94097864
38.17197462
37.58026392
37.09043662
36.63799956
36.31731519
36.02298766
35.92461358
35.8817725
35.86497757
43.10979043
40.49527419
38.97369048
38.03721983
37.34009364
36.73306501
36.32359172
35.92704304
35.78286206
35.71952241
35.69494048
47.96745073
42.41355737
39.93944521
38.57686855
37.63775581
36.85325065
36.34435157
35.84622293
35.65068576
35.56271237
35.52882758
51.31952164
44.16565416
40.91736425
39.1424574
37.95065198
36.98581096
36.37413192
35.78262826
35.53207069
35.41657131
35.37198056
52.96210849
45.48349358
41.78005228
39.66771652
38.25119483
37.11519947
36.40932292
35.73277398
35.42985939
35.28613833
35.23001177
53.66190311
46.37617855
42.45936468
40.10417475
38.50726774
37.22951372
36.44499018
35.69740769
35.34466518
35.17413429
35.10629534
48.53095909
43.5086456
52.2363252
48.99293789
53.94205824
52.54261442
54.62081995
54.05529498
54.66102823
40.31558869
43.00111125
40.07738688
52.65344689
45.28789734
47.42908504
42.85766632
41.08500075
56.28888639
58.61796955
51.01239444
45.0279487
43.44519759
54.83965804
54.34372505
52.82937561
46.6036915
45.48677584
56.4310312
55.48481626
39.89596386
57.36540503
57.12202172
58.53894799
53.00028836
46.36102268
51.90870338
57.1601219
54.44380505
56.04949508
50.81321864
57.24514807
56.13882069
57.36160964
57.36636702
50.56255727
55.30852068
54.93142148
53.47658433
56.65781921
56.9080959
56.07923843
56.61361158
53.28790454
57.07319808
56.53417881
41.73153636
43.10623745
57.39671562
39.65254732
65.21012164
48.64526389
51.81193183
53.62112932
47.61239432
46.91068344
61.36721246
48.4359711
46.77897791
44.87471516
50.87443481
45.71247431
46.30889192
42.50114706
54.41746762
57.18233354
57.29416642
56.93980958
57.1621861
54.34843937
42.09798471
44.65471463
42.06904879
42.09357796
70.39051261
49.45985227
64.91275824
47.53603543
60.98840891
48.56052527
58.04267683
58.20196183
54.50404424
54.47258027
41.0947505
47.77170616
56.06718058
41.66537661
41.65998917
49.8909258
41.98719183
55.9419791
51.642985
49.37148362
54.16302815
56.63985546
56.24281643
55.36944456
55.5109446
56.72628334
55.05765178
54.45459401
55.64172523
55.22229091
56.63825352
58.0136493
53.07578951
51.99981823
54.22118446
53.39108534
57.99654799
55.50815999
50.69149933
55.43384493
41.96535868
45.44920402
56.80530661
41.93369415
40.95072088
62.91977938
52.29710197
64.80006246
40.0495632
40.98285778
56.23018691
41.72112641
46.89171773
43.75682326
47.5508303
43.63260622
43.88456671
57.11749756
60.44092451
58.99927143
58.6071484
54.61359468
44.65702526
44.7577136
48.80539913
48.27906189
54.19046161
57.97379822
62.08510045
60.81052331
54.56094512
49.77730484
48.22938252
51.59554423
50.26201612
54.94469304
54.79749495
49.77074948
49.13796749
55.65187198
44.89874609
45.05748652
55.13356463
56.77488161
56.35333797
56.28074788
56.05739396
56.02195732
55.75076134
56.24759844
56.08757577
56.06796912
56.87624349
46.10151842
50.55414508
55.07242811
58.21299947
57.53086668
56.99243259
51.73478885
51.52517874
39.78524454
39.92122901
61.74374078
61.31579901
50.07271301
61.79895242
46.26014805
41.58316736
44.07314479
51.11988618
57.30636732
70.70975054
57.32981199
53.32133186
61.46051625
58.20513548
52.5477769
49.23106695
55.22649047
56.48477978
55.74637063
57.43974379
58.52490233
58.5696811
57.0537227
45.90371925
44.92931245
54.55205795
48.4627292
48.23309699
45.36452362
47.96241492
48.10208831
54.23944885
48.04071571
46.30602044
42.09368401
42.83766305
41.23991222
50.47864577
49.43190062
44.65606558
47.23708265
45.71214772
49.021807
47.77830672
43.64075303
44.13243991
40.53412433
39.86500155
62.00157979
61.31031225
57.67347369
63.11712956
64.17838579
64.02255175
63.24907958
62.47091829
64.52284891
63.05974579
54.88076896
61.02354719
62.1074472
50.73900577
49.89840081
54.93518102
55.66507361
52.35865415
51.13648492
43.66545053
43.33511616
45.28660438
44.02278615
50.72112595
43.70999608
44.84821765
43.24069426
43.40136198
57.25882841
41.09451068
56.04804218
50.26188249
55.66930602
40.95115316
62.55202255
42.63945657
40.53258676
39.18230371
60.32956898
59.82099076
47.80665707
60.41270983
57.30541113
57.36831684
54.79423585
46.18356007
45.40369359
49.27342725
55.48053557
46.0237003
46.20735753
41.50337691
41.86260976
44.4005623
51.18642737
55.24995727
58.21130494
42.48943458
40.98003777
42.17466841
51.28901786
53.08948858
57.26870245
59.05923517
60.80402158
54.46320651
50.88576045
45.5875173
63.93419349
56.54111659
43.01346454
65.8568881
51.45590289
43.6747136
45.73351473
60.33742618
40.09241445
40.09450118
48.8294589
47.69131775
46.02471627
48.24654278
44.65810686
40.94803105
40.18691452
43.26358333
43.59197974
46.78213916
67.01152062
61.83192958
59.07476842
70.16164451
67.05309262
41.29494957
45.29365675
44.00757187
53.22311281
52.55192277
44.86299477
51.7289813
50.83365772
41.24207712
50.326162
42.34632394
42.67293057
48.93239834
40.97709449
41.94080811
50.002131
49.60109855
43.2013921
43.71706619
50.37865862
49.46876992
49.85307135
55.20706426
45.19254307
46.45978742
63.07497274
60.16616237
59.20997386
47.60594252
45.80322632
40.53685077
57.70274742
58.99626828
61.94935386
43.07700206
58.24444096
52.11251584
58.59988674
57.27201824
44.73735123
45.02708184
45.8229718
51.00022833
54.21713367
54.63903598
53.55970741
53.87529301
60.01340179
59.31248898
59.64944913
58.59565524
58.93979069
59.48113021
48.64448608
47.30561518
47.61510201
46.86053133
47.07074052
48.64728759
61.53873863
60.48925568
60.5272646
59.99193191
60.27956824
61.16743101
49.37952715
48.53377355
48.87573147
47.8987051
48.22465338
49.19715608
52.83116446
52.95178574
52.0540044
52.22404828
65.83720512
65.42117609
62.95711559
48.97469572
65.75165898
62.753451
68.79243345
63.05350776
65.62766157
60.92227717
52.03998388
67.36887159
61.84999428
52.30327895
51.79919511
61.82204385
48.1733971
53.23215418
58.13980404
56.96943753
58.52650617
56.03381405
66.08343615
62.30808042
66.52380467
60.22779269
63.22833202
66.05434526
67.62651809
66.93969443
55.89145374
56.31919732
56.67156437
55.41487054
55.65574244
55.55053771
58.01686294
57.86372142
58.209876
57.11325031
57.4530674
57.55006883
45.57164273
47.48990172
47.47384998
48.28806103
48.31355518
46.4178059
48.94642329
48.64874614
47.99867483
48.42852843
48.88316016
47.26514344
46.92448534
46.83469786
47.38056465
47.18239193
46.68926197
52.95060909
48.51092502
41.55250599
54.63035333
54.54805073
54.18567368
43.71785889
52.90178133
52.34502725
41.91913578
42.07235402
46.96639107
61.79885391
60.48198617
60.41490802
60.46033666
60.48857716
61.55651677
63.54389474
63.79723023
63.14356311
66.52831589
66.40787925
66.46417047
66.55938004
62.99745353
64.75059334
65.83397981
67.76796237
64.83349412
50.57992981
49.90267172
50.26837729
49.19991314
49.55917232
50.14525583
51.83075919
51.24873349
51.53368309
50.6221098
50.96123437
51.54091934
49.28901206
49.15358936
50.28487359
44.60129798
46.50655289
44.04441771
49.01599925
49.35995815
48.75688501
48.92081378
44.44810777
43.18481688
46.39037718
44.78124514
48.66997058
48.79256541
43.2040354
55.0101143
43.25207316
44.35904999
41.34124408
42.20862633
55.82354723
54.48312561
53.81434593
45.83433403
49.47767093
56.2131234
61.55442018
37.04819068
37.01223916
37.05579283
37.07105851
37.02735756
37.07039997
37.05552229
37.01993674
37.04561534
36.99748584
36.98219632
36.97711191
36.90323502
36.92096861
36.87784424
36.8081257
36.87106633
37.17444112
37.06772643
37.18823609
37.20166541
37.09398617
37.19703463
37.16569694
37.07495432
37.14792481
37.07492252
37.01035416
37.04493492
36.93980122
36.90629292
36.90185686
36.788182
36.7953877
37.47724983
37.22796372
37.49623314
37.49969857
37.25412303
37.47931267
37.40774361
37.21123448
37.37410546
37.25047501
37.10754217
37.20273622
37.04824062
36.95973844
36.9948429
36.83431584
36.79323942
38.12779411
37.58681171
38.16583748
38.16209809
37.60044177
38.07954645
37.89419348
37.50417939
37.82106403
37.58417847
37.3161366
37.50219718
37.26026395
37.09048254
37.18092848
36.95175577
36.8562119
39.99216468
38.39033021
40.01081312
39.77374744
38.36015462
39.41105214
38.84031417
38.08058825
38.65058065
38.15370882
37.70105111
38.00581744
37.60728367
37.33333549
37.48430701
37.14509606
36.99173394
41.56787723
41.59496597
40.34815793
40.98798435
40.29459767
39.81184436
40.05290823
39.01917097
38.34111194
38.754535
38.09469987
37.71679317
37.90778498
37.41853019
37.20515858
44.9819925
43.55658015
42.2028092
41.93090469
40.1237268
39.27464428
39.70256798
38.7085635
38.24239094
38.43967268
37.75594352
37.49686444
49.46366627
46.7176594
45.56498577
43.76301571
41.27159239
40.40460093
40.6987182
39.36115208
38.86519534
39.00688093
38.12191453
37.8451802
52.09806211
48.9732087
48.25593167
45.19187743
42.27841274
41.52973172
41.58909298
39.97661517
39.51500937
39.54513572
38.47614937
38.21004082
53.31638864
50.25233934
49.89668114
46.1768226
43.08069645
42.49547555
42.31364308
40.49405446
40.11041453
40.00539339
38.78769265
38.5588191
53.81696798
51.37482661
51.24841403
43.23885475
40.6048079
38.85439045
47.74895578
49.23976839
50.46701357
43.80283574
44.67832103
44.19980673
51.88941132
54.04630155
54.50700443
50.8464791
51.87180644
49.73083959
53.79786702
55.5154295
55.72953774
54.62791782
54.96286615
52.8216156
54.55267612
55.56801865
55.61182958
55.29763697
55.36227939
54.16719456
55.64156148
55.68256906
54.71593582
53.78746407
54.4436191
55.26539731
41.59308966
55.64227658
52.93388879
42.40816078
42.57614957
43.24439735
40.24396814
41.51824564
41.21278449
52.06027057
52.87377881
53.52282514
46.00786006
46.87924865
46.19476031
45.21558485
43.89151259
45.57906888
42.2627155
43.29243713
44.01512317
41.83886126
42.55735897
41.6639898
56.53720579
54.60607663
54.20626573
59.34410563
59.19843141
58.65138294
47.97812534
47.04168826
49.88575972
44.53744765
45.98829787
46.54297576
44.71709672
45.37290307
44.00351018
54.74827345
52.58856109
52.79972066
51.32789694
51.17940137
54.26068617
49.71750543
49.19637199
52.30419134
46.27480222
47.90059805
48.24405096
47.05042804
47.4968619
45.89579687
56.31408959
54.20743232
54.55584813
50.13925131
51.09584918
55.64516689
39.47165163
39.52505853
40.33459301
57.2860071
53.59619982
54.83688482
56.4190481
56.5572553
57.17528813
58.41624681
59.54040375
59.48250897
54.14026209
54.78218276
53.54960671
47.40681949
48.79453637
47.18072137
52.48706833
50.95556061
50.26603075
54.50143466
53.99844544
56.34737083
54.55203038
51.67909561
51.49717775
53.82992321
53.46704012
55.85735211
53.23978054
53.87404216
51.24479502
56.96400602
56.94692867
56.87134128
57.41900334
57.40351281
56.32066099
57.79088372
55.35523732
54.93188419
56.8009373
56.62296653
57.715049
49.90732926
52.17303875
53.00729978
55.11843348
48.57981666
49.80020754
52.94319182
53.05381202
55.00102645
55.33279186
55.48217701
53.65275674
56.69673964
57.39954515
57.41243308
56.40157751
56.36433636
56.80362237
55.99458044
57.430901
57.4272796
57.42760612
57.43520256
56.14383662
53.06482709
55.04589611
55.27872888
57.0126603
56.10846846
56.27367419
54.79641036
55.0573285
56.63642553
55.18129532
39.49061428
49.99989296
54.60586165
51.44591809
51.09387594
50.41544773
53.3918102
47.41304958
49.05044217
49.24414048
48.55416639
48.81301937
47.16854257
47.50160686
40.23860491
41.14374928
43.53078129
43.93646683
47.35984569
47.21860201
45.45437432
44.01527281
49.4926985
48.79638494
50.15504862
44.8901498
45.45163789
46.90878257
45.75080831
42.42689129
42.89671736
40.56600727
40.65009573
42.91056269
55.4967134
55.5395747
54.50174362
57.24233526
56.67589878
56.39509912
56.67828376
56.67601265
57.24957669
57.0436212
56.41018561
56.40636293
56.40292076
56.40946441
57.07622097
54.25342654
55.40840752
55.45869401
43.16309114
44.10817643
44.37595815
44.90085456
41.9975572
43.06008003
42.8398745
43.34929135
43.20847701
41.99197069
51.24824782
54.35682973
50.79401158
53.15362461
48.6835529
46.73652548
57.68412897
55.99374072
60.41595274
47.1145635
48.76605754
50.59981813
57.53312067
57.34055972
57.90389595
58.30945296
58.08620844
57.90195096
52.08385602
52.09310495
54.51448911
54.41514834
51.83171102
52.02216466
53.46444362
53.86875726
56.19484179
41.47414069
42.16612592
41.92251693
44.94259952
44.47270151
41.4573748
41.76052037
41.73031408
42.44974791
55.8067983
51.43124751
51.83832068
50.9342604
45.59346402
46.6351974
41.68120801
42.70398288
50.16251396
58.43001424
58.72734114
57.00694369
55.80965053
57.60987602
58.07323741
52.86729396
52.66735369
55.22359146
55.61653381
53.15229361
53.04131068
57.29762527
57.23295129
56.90483313
54.87135364
56.14781638
56.29349818
55.77223431
55.98244337
54.67524561
55.51248848
56.64258279
56.73351111
56.42335889
56.54047169
55.37781534
56.40178515
57.3803777
57.34539319
56.04445518
55.69455661
57.88929361
52.73999742
54.07861362
54.41779419
53.29757583
53.70041961
52.38012443
53.96171141
55.3031171
55.56018131
54.74665415
55.02584688
53.68905906
57.82280475
56.58867227
56.29409856
46.92588436
48.09750613
55.90585956
55.36030871
53.60575005
53.73697421
43.29301991
51.5138345
51.96694458
52.67288403
52.1511816
43.82888462
56.7192278
55.3008418
55.52713258
41.61551083
40.56767367
40.53541617
43.02855203
42.14032522
40.87166925
47.6483193
40.24093506
44.3872717
42.87826195
43.83665133
44.94153454
45.21130305
44.72834364
43.59784239
47.93203222
45.18788903
46.30454432
46.79564213
48.36227545
43.85820721
44.92544555
44.58068971
45.26385273
45.14009834
43.93431218
55.6067115
55.05270298
56.82088
58.6415569
58.99033232
58.8183125
52.21112419
52.38734607
54.6554944
44.56385265
47.91725711
47.63379162
48.82751741
48.35128015
44.61580082
54.20214078
51.06701708
51.056005
59.41060763
59.54211413
58.22808236
52.30550765
51.61887184
53.5144938
49.27594402
50.27059765
50.84480762
49.07454066
49.69078447
48.76140868
51.17221096
52.40031366
52.86466653
51.38825242
51.91120165
50.72624123
56.01295642
53.47903295
52.90378644
52.06072728
51.86887015
54.67377042
55.69146117
53.1744675
52.9851641
44.97649129
49.4114833
49.18034478
49.7599387
49.59035951
45.015586
55.07183906
53.13390295
53.2231089
57.37435685
57.38512038
56.72987872
56.33330985
57.15782297
57.15644414
57.14274784
57.15337616
56.312376
57.43133121
57.43117088
55.99959838
55.93957036
56.94006698
56.99120151
56.81241613
56.88133778
55.85494317
56.20030853
57.10256475
57.12652219
57.0352129
57.07280898
56.15224212
56.11159094
57.43156359
57.43144801
55.73551718
55.93270413
56.95079517
47.21031762
53.60367839
53.22006835
54.4113409
54.02290422
49.77267368
52.97978378
56.28292391
63.07732119
39.76691575
40.3138609
39.99254854
41.5421904
40.75719653
39.7958702
52.10818591
44.262867
40.63460191
40.87475255
40.34779315
40.47545734
42.7890445
43.6065902
40.8458009
41.11359042
55.74065304
58.56445065
60.61558653
55.6497428
57.67542492
54.91114959
61.62515506
63.20617054
59.58766921
51.08537599
52.89319768
54.67251296
50.41648351
51.7766282
50.37748133
57.05611231
53.88014461
52.62895443
57.69251039
56.81815789
56.2836896
58.56889408
58.38803464
58.43904066
47.53149389
47.49189004
45.20381563
54.53864403
52.09715589
52.13213661
51.20554962
51.5118965
54.32708256
42.86699852
42.54630709
41.35595299
50.17789668
46.44209461
46.92741439
45.30845485
45.8730373
49.7826005
46.72879838
42.8157075
43.14867899
42.49129957
42.56643507
46.15823965
48.64956537
44.28737271
44.74889239
43.5357036
43.88216762
48.16453752
43.0514504
41.73220982
41.83460243
40.01418237
40.40034519
46.32267254
40.34193097
39.62526169
39.61025442
39.84987594
39.70330784
39.99880418
57.34532604
58.98071213
59.2229526
56.5156744
57.09571503
55.3505556
61.6195246
59.45101387
58.88139807
60.28241228
59.9242679
62.05515978
55.07451037
52.46577856
52.26130754
53.0409653
53.14922595
55.67225226
43.47205237
43.15334644
42.85241734
44.03059527
43.5919261
43.39283131
44.90867321
42.50334014
42.47988837
42.63855332
42.55641755
44.46325822
40.86097202
40.6840749
41.25884275
40.88193116
41.42920748
41.0747439
41.9437788
41.12332725
41.28044391
40.03021537
40.47722187
41.14199686
39.45242974
39.93924744
39.57837234
49.41814234
49.56524072
47.95510453
57.36862094
56.68793705
56.68149315
56.71713291
56.69749192
57.32951337
45.99750512
47.18228992
47.56242235
46.25621231
46.74008542
45.9740889
53.69181413
48.27010414
48.39948179
49.36289325
52.70357901
61.19267271
46.12216892
47.38086861
46.98899487
47.83832964
47.75516188
46.1646059
42.55855749
42.31709276
41.78947719
43.69974653
42.86754072
43.05462051
51.67156124
52.26919923
51.74904186
56.33203356
54.07531844
53.24627587
55.68972303
54.83160394
57.21149299
41.95577315
39.92490655
40.16470486
39.63834855
39.72357241
41.40449558
41.01879857
39.62331948
39.77182661
51.92033815
55.06773943
54.75168836
55.60851238
55.34700374
52.52924588
59.85056907
57.18676756
56.41937234
58.37064882
57.75000947
60.24468482
53.93177711
55.36081359
55.95667228
40.57279856
40.02202871
41.08712294
40.84691603
41.87905866
41.60827255
40.04331425
47.71517233
44.78368689
44.61938584
47.13661182
47.8249337
48.45499734
49.03676182
47.95703028
47.28436688
41.50390438
41.90908375
45.20524788
40.55016461
40.3259592
40.30612176
40.53699259
40.39391453
40.36552514
43.3175025
43.70360052
43.59272035
44.10381455
44.00605869
43.42921713
45.67315576
44.5849675
45.21436047
51.43832273
48.49587394
48.81465366
47.4782369
47.92454388
51.10874163
41.29879732
43.8209703
43.37074425
53.3260105
53.45444311
55.27453595
45.47150734
50.29386569
49.99118577
51.01608609
50.68138577
45.94105975
45.20107944
46.08392017
45.7433682
46.6891746
46.47070147
45.50234282
49.55691737
47.41380111
48.09131233
37.01098205
37.01464544
37.00423864
37.01482793
37.01117873
37.00299782
37.00280617
36.9864985
36.99257679
36.96599363
36.9465475
36.9811262
36.92928428
36.91451729
36.97050487
36.90288352
36.89176228
36.96316312
36.88354583
36.87744719
36.95864892
37.02863215
37.03387406
37.02362828
37.03835285
37.03704622
37.02667737
37.02088749
37.00989086
37.00516511
36.96653602
36.94686424
36.95044915
36.89281373
36.87537808
36.89432819
36.79144687
36.76204097
36.82202915
36.7401699
36.72365577
36.79822528
36.71175308
36.70570259
36.78346819
37.10682089
37.11612733
37.08647719
37.12035813
37.1163012
37.08964154
37.08579493
37.06879442
37.0481018
37.0022992
36.97395051
36.96142956
36.88219935
36.85014325
36.84848855
36.75307266
36.67305469
36.71099002
36.62645091
36.59227804
36.65400335
36.56733867
36.55241042
36.62087276
37.31242397
37.32267056
37.25371614
37.31119165
37.29870013
37.2422675
37.24048977
37.21237881
37.16549854
37.11001147
37.07018467
37.03829916
36.93802571
36.89194831
36.87497561
36.78268178
36.65492191
36.65246488
36.56321219
36.49781516
36.53999364
36.44991825
36.41775866
36.47580734
37.76494234
37.76946089
37.62404247
37.72403756
37.681761
37.57996592
37.56110477
37.50772456
37.41653394
37.33002424
37.2677041
37.20520441
37.07490052
37.01071018
36.97322545
36.87706944
36.68687023
36.66489609
36.56670832
36.45167963
36.46984398
36.36729425
36.30698877
36.3536555
38.8127338
38.81269547
38.46831179
38.60505415
38.48608182
38.28770527
38.17645686
38.06127903
37.89057778
37.72495918
37.61957357
37.51446697
37.31581983
37.22121695
37.15926428
37.04176592
36.77304139
36.72278291
36.60446687
36.45749492
36.4519556
36.3248606
36.22424196
36.2562909
40.68499663
40.71513725
40.43383578
39.27107646
39.00568743
38.72187913
38.35222941
38.16766888
38.01193315
37.68110005
37.53735074
37.44995235
37.27529001
36.90746638
36.83414819
36.68201949
36.49014911
36.47021958
36.31895772
36.17084452
36.18941532
43.70439438
43.37909979
42.85827866
40.9641722
40.40706165
40.0167433
39.21440292
38.91208302
38.70614017
38.16538842
37.95619307
37.84615228
37.56174751
37.08361666
36.99024097
36.79120373
36.54476114
36.51477561
36.33296366
36.14089685
36.15031393
48.50187573
47.54905872
47.07164516
42.88255593
42.00164442
41.60339096
40.20110163
39.76416384
39.53727514
38.72135209
38.43733385
38.31276116
37.8743
37.28360626
37.18117464
36.91936514
36.61503688
36.57789557
36.35892797
36.12927785
36.13206784
51.60519648
50.47916855
50.19066733
44.53584165
43.44036506
43.10720056
41.16666657
40.60906332
40.39116386
39.27904671
38.92149891
38.80368383
38.18018316
37.48349658
37.38390639
37.05191706
36.69300741
36.65289531
36.39247262
36.13099139
36.12957583
53.098679
52.03326283
51.88309449
45.73691505
44.54872819
44.30222785
41.98049711
41.33646757
41.15395975
39.78605476
39.36656709
39.26391369
38.45029401
37.66426469
37.57706741
37.17501355
36.76924683
36.73068923
36.42988259
36.13659934
36.13411499
53.72808415
52.74357248
52.69479306
46.52836054
45.31751111
45.15914679
42.60024959
41.90249422
41.77086608
40.20143903
39.73564286
39.64899216
37.74303018
36.80256224
36.14077041
40.7093867
46.58091669
46.0627397
46.82139914
49.89066294
49.55731927
50.67344895
51.74554348
51.56945319
52.66723427
57.33816246
57.06553259
57.14641946
56.08222592
55.82402251
56.92799297
57.13881153
57.51363284
57.53815559
56.99690205
57.01576186
56.18854252
57.52515833
56.49950099
56.27995187
57.57963689
57.60188459
57.48248564
57.3375789
57.34303398
56.87989118
56.04294617
56.95527712
56.96730674
57.20626911
52.61617182
52.55545894
53.54352055
45.56172149
45.09573301
44.6220824
57.21223606
57.30334289
57.29496742
57.25428063
57.25953708
57.27399499
56.97415734
57.32219383
57.32713636
57.29672872
57.29788687
57.13530319
41.92351196
42.26528971
42.33437973
42.40633129
42.40425467
42.06818872
49.51655827
47.97863727
46.96653185
57.27979215
57.3204231
56.79366653
56.56070274
57.19491386
57.2341472
57.3680955
57.24940882
58.00700411
57.9630305
57.54597235
57.45576283
53.88377935
53.96537274
55.57153646
42.32973432
46.06245947
45.58929301
48.93399251
48.49530572
44.92689004
53.96174046
53.67664728
54.1662977
55.3098138
54.52094269
54.19640091
56.9432003
56.93551897
56.03680609
56.08296325
56.95689594
56.94748812
46.50923611
49.78367513
49.33866421
42.41814848
41.96012504
42.11967034
57.32894609
57.24404926
57.24827395
54.75062911
55.71354027
55.74713069
41.62471827
42.17368813
42.03299949
44.09794629
43.69383642
43.82658269
57.21488705
56.6768923
56.79986715
46.55637584
47.17211279
46.58003623
46.47972278
45.69262362
45.85076433
37.032956
37.02081906
37.06314495
37.04608911
37.04045136
37.05259238
37.04963413
37.06817938
37.02664688
37.03648477
37.03818729
37.06784749
37.05065909
37.05271764
37.04020405
37.04701857
37.06341683
37.02379058
37.03396602
37.02846243
37.03161019
37.0189028
37.03162472
36.98845258
37.00483191
37.01600123
36.99077849
36.996712
36.98389037
36.95283375
36.94840732
36.97018813
36.90281226
36.92778779
36.92986427
36.93474052
36.92841284
36.90912086
36.85159703
36.86101116
36.88274576
36.82461134
36.84323059
36.82977158
36.88180067
36.86093348
36.8460608
37.12950662
37.09471084
37.19931512
37.15270991
37.14270498
37.1579794
37.15764946
37.20316217
37.09187266
37.12157258
37.12258268
37.18998112
37.15030919
37.15538044
37.12921224
37.14180612
37.18002612
37.08412015
37.10956611
37.09902648
37.1264319
37.09465808
37.11374281
37.04846141
37.07309839
37.10222057
37.0307532
37.04951876
37.02715766
37.0118628
36.9906917
37.02121609
36.92419365
36.9585372
36.9769505
36.93499732
36.94458424
36.91304858
36.86319823
36.85471482
36.88976213
36.78630312
36.82088456
36.82516328
36.82094727
36.81891725
36.7882506
37.37565054
37.29633531
37.50272663
37.40271922
37.39407308
37.39545336
37.4006083
37.50579467
37.25582055
37.32519546
37.32097362
37.45594946
37.37925235
37.39021088
37.3315886
37.3580389
37.43527263
37.22914233
37.28430184
37.26463627
37.33607216
37.26923232
37.30209066
37.19454626
37.23342415
37.29468011
37.13806007
37.18118524
37.14697536
37.15223163
37.10906227
37.1530814
37.01297424
37.0620417
37.10077399
37.00020184
37.02833108
36.9838582
36.94106697
36.91408248
36.96369751
36.81586746
36.86473401
36.88739636
36.83354171
36.84685639
36.80294691
37.89558056
37.73306829
38.17315986
37.95813865
37.93898232
37.90231472
37.93636542
38.17732852
37.61482311
37.77253209
37.76644804
38.00664175
37.86885812
37.89535398
37.74424257
37.80727035
37.95688981
37.5445224
37.6506445
37.60975776
37.74429125
37.61616226
37.68126988
37.48101833
37.5495409
37.66528145
37.36825616
37.45095392
37.39148727
37.42171549
37.33946631
37.41032954
37.19604528
37.26807006
37.34118026
37.14866673
37.20441793
37.13946743
37.10327631
37.05411475
37.12489404
36.9148771
36.98415572
37.02700677
36.91469056
36.9470087
36.88385964
39.21590203
38.7585975
40.04272785
39.31225193
39.29701577
39.08618982
39.20513225
39.90554248
38.42389419
38.81893307
38.76952552
39.20338063
38.90494934
39.04289138
38.54728109
38.70723198
39.03691429
38.18032683
38.39795373
38.29112632
38.47553887
38.25306358
38.39759569
37.98433823
38.11527818
38.31040201
37.79552029
37.9472479
37.83479987
37.86761819
37.73622406
37.85833681
37.50623195
37.61831211
37.73553034
37.42290743
37.51657648
37.41463472
37.36669599
37.29197024
37.39810415
37.08874024
37.18891049
37.25383559
37.07447256
37.12925941
37.03885405
41.59380714
41.17500816
41.16277235
41.09556692
41.1403616
41.65866677
40.41123274
40.78103452
40.75690623
39.65576387
39.31395508
39.64413004
38.77313381
39.02741142
39.31585126
38.52289679
38.76824383
38.5515545
38.5153416
38.33421167
38.54334943
37.96155508
38.14111192
38.29629358
37.86034054
37.99508657
37.83334089
37.73366421
37.63477378
37.79325552
37.34173819
37.48427501
37.57146161
37.32509758
37.4013166
37.27171808
44.45880485
43.90137055
44.29143393
43.03270732
43.45567272
43.94123866
41.20410826
40.79791193
41.44483461
39.82573695
40.26972389
40.61508821
39.61703533
39.94587359
39.55490236
39.33323144
39.10831772
39.44284677
38.5418095
38.81062619
39.00439547
38.46406488
38.63969957
38.39222804
38.19341831
38.07004437
38.2961997
37.66555319
37.86046913
37.96619996
37.66597791
37.76199045
37.58075763
48.42867196
47.9941126
48.98919286
46.33412147
47.10680461
47.50613067
46.26702644
46.70070102
45.99360577
42.75826479
42.38442639
43.33548941
40.97720775
41.61654745
41.94526661
40.94940828
41.29127293
40.70222351
40.19718624
39.96631201
40.43299432
39.19194439
39.55757687
39.75429146
39.18289139
39.37800781
39.03308942
38.68489487
38.55941981
38.86114942
38.02945211
38.28310532
38.39099244
38.06951635
38.17680623
37.93733349
50.98027201
50.73264956
51.85998589
48.75888791
49.69315759
49.93980105
49.16782074
49.44943159
48.50711699
44.03599059
43.74928275
44.88236522
42.04134776
42.82004205
43.08268794
42.24739366
42.54592605
41.80115976
40.98822157
40.79078489
41.37250682
39.8231843
40.27879007
40.45518218
39.92877679
40.11443192
39.67450235
39.15502353
39.04033706
39.41324125
38.38896666
38.69992222
38.79989788
38.49377598
38.59580186
38.29873265
52.26957869
52.13811236
53.19980862
44.97138255
44.76805737
45.97613221
42.89118999
43.75557028
43.95595217
43.3232182
43.5586038
42.71411144
41.63585108
41.48675975
42.14334725
40.37631243
40.90176848
41.03444854
40.60147972
40.76562103
40.25097809
39.56113669
39.469592
39.90153615
38.7156415
39.07554462
39.15618337
38.89542969
38.98479352
38.63731329
44.12744334
44.28465161
43.38704669
41.15767278
41.27738546
40.71297218
39.2336819
39.31011845
38.92093627
49.66144181
48.87259002
48.4290848
49.58537358
49.18694822
50.07453985
54.21592889
53.1457577
52.96176265
53.47422535
53.31363375
54.3590477
51.20612345
50.25573145
49.89304839
50.87222103
50.55180647
51.54897866
55.55419424
54.80793158
54.76579585
54.7548919
53.75994142
53.62218966
54.00908165
53.88979039
54.85454155
41.09316018
40.69550001
40.64521111
40.23914379
41.39030989
40.9388496
40.9657051
40.74502514
40.83772588
41.30207448
44.74484614
45.36445745
45.82698005
44.41729494
44.89925292
44.3964841
46.24513258
45.54076351
44.99282681
47.6835127
48.55900626
48.88161736
47.87241317
48.23324963
47.38065834
50.30713884
49.21144332
48.82791311
49.57387407
50.52657015
50.70814263
50.14390317
50.35700373
49.37543461
52.50137289
51.39907787
51.18910027
50.45659312
53.12645547
52.97291925
53.47379637
53.32154628
50.81289893
56.89492109
56.99421463
57.30640132
54.05094797
56.06158426
55.83904009
56.43142566
56.25251921
54.47128854
47.87392542
47.31769175
46.80216392
48.10941223
47.63518063
48.34700672
56.65261394
55.59820462
55.30662955
53.46957068
52.37336027
52.14334636
52.77374801
52.56299198
53.66928562
57.44529943
57.46162907
57.0329705
56.98643513
57.30890615
57.39181078
57.22316753
57.2820132
56.91129235
56.26059412
57.05153413
57.07795038
56.85071402
56.66688208
57.6698757
56.74547347
57.08125876
57.16475786
56.85034969
56.9836302
56.67826784
57.60323997