/*--------------------------------*- C++ -*----------------------------------*\
| =========                 |                                                 |
| \\      /  F ield         | OpenFOAM: The Open Source CFD Toolbox           |
|  \\    /   O peration     | Version:  v2012                                 |
|   \\  /    A nd           | Website:  www.openfoam.com                      |
|    \\/     M anipulation  |                                                 |
\*---------------------------------------------------------------------------*/
FoamFile
{
    version     2.0;
    format      ascii;
    class       volScalarField;
    location    "2.27";
    object      omega;
}
// * * * * * * * * * * * * * * * * * * * * * * * * * * * * * * * * * * * * * //

dimensions      [0 0 -1 0 0 0 0];


internalField   nonuniform List<scalar> 
3019
(
674.7816838
130.3418139
66.23160886
46.01571525
37.97415274
34.18189364
32.10036867
31.28492231
30.80499334
30.620784
30.524287
30.4765436
422.5908708
121.4365685
65.5465149
46.37194823
38.23722547
34.31859524
32.1411478
31.26925246
30.74779877
30.54738031
30.44002274
30.38718811
302.6566063
113.3094932
64.30968475
46.27095401
38.2905601
34.35499433
32.14009991
31.24144549
30.69058717
30.47723657
30.35971543
30.30188501
268.3268099
108.5229444
63.40987264
46.02616522
38.17815826
34.30753307
32.11011789
31.20032756
30.62724392
30.4039594
30.27944202
30.21758779
254.7724638
106.0537751
62.64583964
45.68514895
37.9970236
34.22109767
32.05504037
31.14692144
30.55970851
30.32971312
30.19850938
30.13309216
245.1862082
104.3355484
61.78010033
45.23622671
37.77628422
34.1073466
31.97850245
31.0777469
30.48229191
30.24756336
30.11270855
30.04445914
232.7212028
102.1121306
60.73917694
44.76750749
37.55599835
33.97866811
31.88878781
30.99746671
30.39859596
30.16122198
30.02356345
29.95356056
219.0639552
99.56240625
59.89332501
44.36422666
37.3485492
33.84541629
31.79081071
30.90824863
30.30632071
30.06668669
29.92704136
29.85594464
207.7924156
97.39114029
59.31159148
44.03429852
37.16077811
33.7144884
31.68804892
30.8120819
30.2094074
29.96895767
29.82805589
29.75628657
198.3682233
95.49351966
58.88360586
43.79008182
36.99866016
33.59020993
31.58289952
30.71061965
30.10494367
29.86312389
29.72132916
29.64937811
190.4123216
93.85140389
58.54176202
43.62905194
36.86682391
33.47457746
31.47669125
30.60509188
29.99858241
29.75679693
29.61461795
29.54271069
183.6267218
92.4784515
58.28437682
43.53643522
36.76482615
33.36726418
31.36985049
30.49644411
29.88563269
29.64259813
29.50007857
29.42850685
177.8260925
91.35239326
58.11038256
43.4949644
36.6865977
33.26603369
31.26216542
30.38527046
29.77390942
29.53146926
29.3890614
29.31790839
172.7858589
90.4257572
58.00571379
43.48744299
36.62294592
33.16770615
31.15319892
30.27207222
29.65537814
29.41148679
29.26899846
29.19841384
168.3295375
89.65329089
57.95135314
43.49670889
36.5650475
33.06955498
31.04278301
30.15721301
29.54167727
29.29898091
29.15689475
29.08686887
164.362549
88.99677486
57.92936956
43.51087148
36.50675153
32.97023978
30.93119821
30.04128714
29.41912407
29.17453476
29.03244124
28.96303703
160.8244272
88.45855398
57.9356686
43.52217253
36.44486318
32.86975663
30.81909142
29.92473469
29.30650135
29.06370886
28.92211085
28.85325446
158.0621463
88.08590043
57.9520963
43.51887987
36.37605665
32.76850249
30.70719756
29.80830815
29.18018804
28.93474216
28.79306539
28.72477314
155.937654
87.74783547
57.91069899
43.47342279
36.29542534
32.66668576
30.59615688
29.69226556
29.07212383
28.82889545
28.68761128
28.61976074
153.1728055
87.08506154
57.69368773
43.36472291
36.20057626
32.56460685
30.48643743
29.57734821
28.94054622
28.69382851
28.5523431
28.48494438
148.6667111
85.86352406
57.28287873
43.19748703
36.09423104
32.46281566
30.3783723
29.46344351
28.84182245
28.59719239
28.45583757
28.3887352
142.7988701
84.2101617
56.73974908
42.99416365
35.98137275
32.36184341
30.27233007
29.35161636
28.70042789
28.45239373
28.31075938
28.2439903
136.6525936
82.39905587
56.14388548
42.77530871
35.86557909
32.26180122
30.16906216
29.241921
28.61876881
28.37078442
28.22895806
28.16232481
130.8995401
80.61764953
55.54517961
42.55253158
35.74875228
32.1627608
30.07052655
29.13769271
28.4369037
28.18515394
28.04270785
27.9763082
823.4665471
705.0599647
157.4888818
520.1649051
807.3343336
440.7613557
153.1573677
155.7803997
398.5737018
512.3805626
291.663195
594.6449826
610.6544631
535.9300035
258.4409529
281.6353017
1134.474377
713.2465359
1242.358155
961.5567265
504.1608308
680.2822254
315.9450243
140.0553021
149.9891602
443.8623358
485.746375
904.1074391
237.4538192
250.9777468
522.0059453
476.7938458
5882.396613
1840.48593
1019.833708
551.502568
4408.055185
3031.777858
962.5025803
4571.683655
5728.822721
2992.435653
4336.401002
6063.871731
1746.043603
2623.476207
1217.630023
1548.583917
5455.24813
6095.564589
1632.794171
5812.872959
4969.945126
142.8745807
76.10142297
922.8062832
2682.461039
1803.606463
4089.059534
2398.443689
1227.207951
720.8299629
5870.28083
6208.935742
6326.173629
5223.829698
6031.03632
978.0325215
1137.224724
5550.454923
5022.522326
5630.297506
5204.669796
6002.41652
5947.915688
5786.502571
3457.448104
5096.828466
4619.173426
5748.920827
5949.107127
3884.045895
4225.796987
4678.633446
5985.667859
4846.221195
3398.450153
3747.104075
5610.874122
4138.611215
4401.021643
3238.30155
3712.263339
5793.971923
66.25078231
49.27733227
45.92817511
39.30387055
37.86136393
34.83012218
600.6498928
400.3862429
429.8578586
123.9508698
74.53138193
75.88494689
65.69755953
49.62833921
49.35467242
46.32304104
39.67011142
39.44853752
38.19075776
35.03554732
34.8880613
384.0696846
213.0368687
232.3019757
115.0411364
72.66688472
74.26775666
64.60793947
49.51202862
49.62201747
46.3323207
39.79778765
39.74274149
38.29873686
35.1104881
35.06156667
417.8677112
470.023758
274.0500591
131.3650593
137.3436234
109.4449754
71.11308525
72.21573241
63.61884387
49.18354079
49.42304039
46.08299639
39.68169916
39.77838578
38.21250292
35.06641298
35.10728919
383.2492931
406.3317412
257.2957329
127.158715
129.9812167
106.5406914
70.05174562
70.81528322
62.83684314
48.80851081
49.10479615
45.77987098
39.49347446
39.64077706
38.04938041
34.96981401
35.04412409
361.5244411
377.5851261
247.7661858
124.8294503
126.5307207
104.7781293
69.04232103
69.81172691
62.01579755
48.32019866
48.69872488
45.35837994
39.22934113
39.43143027
37.83212317
34.8445968
34.94078894
335.7652476
355.6119267
236.171247
121.864015
124.2017381
102.736354
67.84367855
68.75988371
60.99985091
47.73894677
48.17842807
44.87869114
38.96372865
39.16174845
37.61021749
34.70283213
34.8100514
306.871362
328.4513998
222.2479692
118.1097836
120.9607913
100.1599055
66.74232912
67.53059607
60.07629504
47.22728874
47.602359
44.45868769
38.71719582
38.8999948
37.39879764
34.55703917
34.66641194
283.3011703
300.4333393
210.4254806
114.8120487
117.2353906
97.90562592
65.96059299
66.52403811
59.43825381
46.81679501
47.11453713
44.10909903
38.49669916
38.65943284
37.20555654
34.41486487
34.52095927
264.4778442
278.2072204
200.5690446
111.9610067
114.0616647
95.9446032
65.34390014
65.7957357
58.9814534
46.52054885
46.73204472
43.84292205
38.30886199
38.44640845
37.03647094
34.28141351
34.38055793
249.1872844
260.3716182
192.2867292
109.5028077
111.3110014
94.23697005
64.81768699
65.20455727
58.6196722
46.32624517
46.46344816
43.66224479
38.16025056
38.26789638
36.89686447
34.15974146
34.24985202
236.5129655
245.7979193
185.2225828
107.4196483
108.9476885
92.7969614
64.39046688
64.70084928
58.34056072
46.21057184
46.29080073
43.55411524
38.05160524
38.12952306
36.78778316
34.05024788
34.13129569
225.9692053
233.7009428
179.1967378
105.6820567
106.9555199
91.61332365
64.07106863
64.30098578
58.14674176
46.15512179
46.19179392
43.50150142
37.97624883
38.03006891
36.70441386
33.95065279
34.02457703
217.0618702
223.6109972
173.9876475
104.2242104
105.2946839
90.64145842
63.84517383
64.00675391
58.02633378
46.14336127
46.14880215
43.48713065
37.92304089
37.9613754
36.6380111
33.85693942
33.92686038
209.3816284
215.0393864
169.3936054
102.9794035
103.8956044
89.83417499
63.69188403
63.80111938
57.96138934
46.15677196
46.14474487
43.49349376
37.88050249
37.91184652
36.57938187
33.76506764
33.83394447
202.7200216
207.6312148
165.3171599
101.8977634
102.6962446
89.1515628
63.58903858
63.66235331
57.93208385
46.18177184
46.16254819
43.50734998
37.83972826
37.87043196
36.52157244
33.67244644
33.74205042
196.8838683
201.1923738
161.6536129
100.9534599
101.6479119
88.57862717
63.52998912
63.5701212
57.9315499
46.20914143
46.18868111
43.52012528
37.795634
37.82917652
36.46081789
33.57826547
33.6490538
192.1383927
195.5786434
158.664114
100.2313042
100.7484858
88.16555064
63.51251341
63.52289163
57.95042108
46.22680274
46.21544871
43.52224415
37.74372002
37.7836532
36.39417662
33.48250382
33.55448158
188.536358
191.173518
156.4616205
99.69303096
100.0902765
87.84734351
63.47019827
63.50931509
57.93639644
46.20807816
46.22690531
43.49036229
37.676261
37.7286629
36.31691243
33.38487813
33.45828809
184.5534522
187.6803655
153.9961824
98.91945645
99.54440024
87.30001564
63.25436131
63.43785914
57.76672329
46.10758778
46.19101709
43.39801043
37.58705272
37.65608458
36.22554626
33.28529019
33.36014967
178.4050028
183.2866735
149.938032
97.46369686
98.62894509
86.21893428
62.78224921
63.16065659
57.40137938
45.92264142
46.06874806
43.24366084
37.4777614
37.56136518
36.12161599
33.18442067
33.26014752
170.2258852
176.558018
144.2832451
95.34983759
96.98690159
84.64590361
62.10430266
62.62780392
56.88303223
45.67815682
45.86570738
43.04707316
37.3557208
37.44812171
36.00995865
33.08331462
33.15912474
161.5037232
168.1560622
138.060344
92.93439635
94.76687965
82.84381419
61.33043031
61.91626701
56.29362045
45.4058841
45.61169139
42.83064078
37.22758086
37.32405965
35.89467497
32.98258005
33.05807943
153.2498892
159.60327
132.0374639
90.49015877
92.34619288
81.00675007
60.53169939
61.13456116
55.68392758
45.12322579
45.33622326
42.6061399
37.09628402
37.19506632
35.77737722
32.8821188
32.95746668
145.2897381
151.7428336
126.1312843
87.9738256
89.98439405
79.09535186
59.68183821
60.35247013
55.03168829
44.81658176
45.05642576
42.36182032
36.95349287
37.06428667
35.65034325
32.77511473
32.85756672
857.8287162
1006.304306
965.0712422
597.6455099
620.2049601
742.9214191
163.3525812
260.700894
238.8385598
544.3546849
910.6823109
1597.029372
1205.669045
792.2795377
348.5033991
361.5359976
480.4707784
149.2108941
212.7809965
204.5389527
232.2371444
217.5609574
150.3894046
461.0201594
516.7506644
302.2995979
416.4642995
387.4113252
429.8245031
288.1328373
1467.91833
1066.220549
695.4519184
670.8229988
577.5484964
630.8643586
762.3801972
724.8211758
360.4284747
392.6613628
580.6211342
264.5581826
324.3740963
315.0801855
373.4581813
338.1742841
273.3663798
1640.218329
1464.680746
1068.718498
2813.434722
3082.099029
4636.187173
745.697861
1123.948037
983.2740963
1342.520123
2151.490604
1872.812375
706.2587339
743.6810498
1139.650547
521.3590475
616.4450832
592.9863475
643.9165794
542.2635175
852.1061712
797.1937029
654.2550902
2244.124293
2504.721027
941.1465699
950.4071526
222.9688158
231.1506052
366.3239753
143.1100188
177.0097546
172.4930572
199.3737124
182.1371546
146.3723535
455.4744695
530.3089111
513.4790617
569.9014307
549.995693
471.6129402
785.8831171
646.8353549
675.7235871
240.1751685
289.2789388
283.948495
304.3901476
297.4061967
246.8422671
493.9754197
366.9502492
382.9019
495.5414134
673.4575209
647.2686795
2102.454349
3682.187258
3203.497366
836.3569257
869.8297068
760.6586943
783.3773377
1070.234464
566.8743478
646.7848706
632.916962
3936.133251
2393.54608
2779.844293
1807.047265
2064.830885
3420.665123
1006.595304
1326.376241
1219.679187
1979.674408
3172.350019
2823.48846
4080.171962
3627.790053
2271.253255
1295.784594
1979.444891
1780.491244
2481.93118
2213.845737
1425.806086
2777.467138
2466.536776
1482.809206
107.6333409
108.8485774
144.567197
76.40404154
89.71227634
88.94907176
1137.083671
1069.422769
884.3223999
2386.697861
1465.608905
1612.66442
1228.281143
1324.73358
2065.106708
953.2926771
996.5538263
1338.440011
756.1568626
832.992474
829.8023803
877.8561664
769.6031974
1796.81041
1984.741797
1029.259346
1323.932779
1233.483076
1586.006894
1442.204778
1086.643532
34.13679916
32.75789904
32.06721253
31.60410221
31.28995857
31.07778256
646.6275012
557.4353298
575.8974805
128.2332443
104.7200832
105.9939872
66.04492338
59.06428818
59.09100668
46.20127976
43.49165325
43.37508779
38.04509079
36.82502751
36.74913832
34.29815148
32.86010464
32.81740285
32.12296133
31.62381293
31.61432985
31.28031255
31.04552969
31.06407201
409.596482
325.8579524
336.6453527
119.0615098
99.20850757
100.6797104
65.28670042
58.77222376
58.86305198
46.37295592
43.71902322
43.71753072
38.27280646
37.01808056
36.9773037
34.35557604
32.90048322
32.88636477
32.1439495
31.61981936
31.62353309
31.26029995
31.00770711
31.02882914
290.9665515
210.0274888
216.0009878
111.8105914
94.60860553
95.58297479
64.07194084
57.99264753
58.16486731
46.20860039
43.64262358
43.68902811
38.26971814
37.025331
37.04073986
34.32364686
32.88867052
32.89751522
32.13173562
31.59731343
31.61102597
31.22658634
30.96300271
30.98701791
263.7917386
196.5165295
198.7454427
107.7481585
91.90288547
92.42719436
63.21358417
57.40435633
57.55205858
45.95080453
43.43078861
43.48848005
38.13824001
36.91405924
36.94871887
34.24644103
32.83572365
32.86584006
32.08641285
31.55477468
31.57579028
31.17994955
30.909239
30.93761961
252.4536271
190.8499658
192.0612974
105.6149065
90.26831708
90.63746779
62.44575577
56.7864973
56.95051558
45.58322901
43.11551567
43.20390078
37.94290571
36.75258406
36.79635816
34.13814286
32.7599942
32.80084948
32.0188098
31.49189992
31.52488689
31.11652393
30.84452256
30.87873672
242.4247346
185.3480582
186.9010182
103.851747
88.79855588
89.17949465
61.52941237
56.0234493
56.2310782
45.11329559
42.71895134
42.81866965
37.72055154
36.56770297
36.61472658
34.01182991
32.66509482
32.71436809
31.93496613
31.41443205
31.45434698
31.0409407
30.76888694
30.80806781
229.2238535
177.770872
179.8194897
101.438482
87.04535322
87.5141678
60.49838646
55.1733519
55.3715141
44.66046137
42.34785033
42.43631503
37.5026306
36.38049782
36.42681787
33.87882388
32.55944611
32.61317257
31.84059738
31.32603754
31.37108217
30.95541985
30.68428333
30.72777638
216.0502009
169.9777981
171.7863912
98.98947891
85.38401643
85.7713711
59.72727308
54.5159259
54.65974376
44.27433977
42.02423283
42.10041268
37.29954819
36.20183533
36.24531382
33.74676821
32.44924515
32.50462024
31.73985857
31.23004925
31.27859458
30.86209331
30.59181293
30.63910553
205.2759177
163.4175108
164.9632646
96.89342656
83.96958437
84.3057921
59.19437126
54.06305248
54.16003774
43.96499154
41.75539944
41.81682329
37.11762063
36.03818808
36.07740028
33.6205445
32.33845736
32.39375596
31.63566828
31.12904308
31.17989815
30.76277393
30.49298944
30.54326656
196.2610191
157.8222047
159.1391258
95.05853088
82.722436
83.01945373
58.79080316
53.74987199
53.81895704
43.74253532
41.55191641
41.59636194
36.96278904
35.89465134
35.92843016
33.50269803
32.22918204
32.2835648
31.52988477
31.02469444
31.07710758
30.65890304
30.38882979
30.44168133
188.6131997
153.0181074
154.1516996
93.48319108
81.64753581
81.89814678
58.46928528
53.52346713
53.57280517
43.60017844
41.41490383
41.44333941
36.83869748
35.77409599
35.80207793
33.3934537
32.12199443
32.17534268
31.42335355
30.91796282
30.97151432
30.55153752
30.28075944
30.33540475
182.0946184
148.909206
149.8757013
92.17573819
80.76741478
80.96961758
58.23355846
53.37248647
53.40351271
43.5219961
41.33432958
41.3499689
36.74339104
35.67509415
35.69806941
33.29098067
32.01630343
32.06903382
31.31614219
30.80930898
30.86381265
30.44143624
30.16930159
30.22562807
176.5053173
145.3877547
146.2204304
91.10422471
80.06350581
80.22480009
58.07847426
53.28786019
53.30355145
43.49052904
41.29491795
41.30181769
36.66970919
35.59215819
35.61178461
33.19221355
31.91086214
31.96363699
31.20786303
30.69886695
30.75427397
30.3291049
30.05571569
30.11296622
171.6216025
142.3117474
143.0458994
90.21996316
79.50140909
79.63042406
57.98827718
53.25449412
53.25913003
43.48853753
41.28045754
41.28261081
36.60824457
35.51795985
35.53607508
33.09419561
31.80453221
31.85785593
31.09816473
30.58674664
30.64298024
30.21495871
29.93990432
29.99832244
167.298404
139.5818773
140.2349026
89.47985689
79.04835841
79.15311051
57.94337425
53.25419197
53.25244078
43.50021159
41.27639298
41.27707793
36.55068593
35.44613421
35.4641277
32.9952056
31.69688153
31.75086833
30.98709727
30.47323745
30.5301233
30.0994466
29.82331474
29.88193459
163.4316364
137.1201065
137.7149273
88.84922822
78.67883871
78.76340742
57.92910335
53.27352339
53.26703699
43.51429279
41.27275238
41.27395984
36.49172147
35.3728496
35.39141725
32.89496535
31.58825815
31.64265234
30.87515174
30.35887397
30.41612048
29.98310015
29.70525781
29.76473154
160.0459511
134.9610202
135.4562847
88.35020542
78.40813803
78.46458891
57.94104322
53.30641097
53.29764306
43.5232512
41.26304655
41.26652186
36.42849797
35.29635015
35.31586926
32.79387142
31.47941631
31.53382627
30.76304624
30.24428728
30.30157895
29.86649912
29.58784885
29.64671397
157.503343
133.35421
133.7058567
88.01021512
78.23442456
78.27468709
57.95174801
53.32454367
53.32401469
43.51269223
41.23536257
41.24507161
36.35718612
35.21451357
35.23563418
32.69217472
31.37106829
31.42517076
30.65146017
30.13009057
30.18715567
29.7501472
29.46937695
29.52904213
155.3622566
131.9805337
132.3551995
87.62747118
77.98505205
78.07014656
57.87454994
53.26443543
53.29440273
43.45244354
41.1699917
41.19069023
36.27301967
35.12475978
35.14801719
32.59011527
31.2637419
31.31732675
30.54090844
30.01672703
30.07341403
29.63447847
29.35309084
29.4112753
152.2065395
129.8449553
130.5043524
86.8326329
77.39372786
77.58335175
57.60796723
53.05256772
53.11996573
43.32767503
41.05790279
41.0900701
36.17487217
35.02676214
35.05192898
32.48818979
31.15777362
31.21078108
30.43164163
29.90446182
29.96081288
29.51967607
29.23530315
29.29490968
147.2519957
126.3883308
127.3757001
85.4785413
76.37626297
76.66497073
57.15598217
52.70230014
52.80006436
43.14906303
40.90809945
40.94815107
36.06644005
34.92298514
34.94929309
32.38698194
31.05320699
31.10592141
30.32360968
29.79322177
29.84967352
29.40578018
29.12129054
29.17875546
141.179337
122.0627783
123.2119727
83.75755278
75.08516392
75.42383158
56.592885
52.27049381
52.38287153
42.94028983
40.73739448
40.78123694
35.95260193
34.81638295
34.84318243
32.2867092
30.94950102
31.00303609
30.21630854
29.68259024
29.74043504
29.29227277
29.00353339
29.06523545
135.0002945
117.5733792
118.7629096
81.92384746
73.70521867
74.0608166
55.99004432
51.80863169
51.92626458
42.71917083
40.55779269
40.60331104
35.83628986
34.70856787
34.73563473
32.18710152
30.84497016
30.90279471
30.10829812
29.57111588
29.63386144
29.17784428
28.8903066
28.95260535
129.1792884
113.2573039
114.5247978
80.09026901
72.31414779
72.71127387
55.37207891
51.33312665
51.46559708
42.48985431
40.37159863
40.42208585
35.71706134
34.59873326
34.62774369
32.08143729
30.73139767
30.80777005
29.99086524
29.44983688
29.53210291
29.05291068
28.75744482
28.84684436
159.1951805
179.584547
177.202072
532.6799905
608.4888341
597.498062
908.1257075
898.362958
764.2105538
174.3967604
172.4116806
153.7807561
344.7136091
304.9972313
472.8697567
482.8184983
548.1287125
817.9392272
850.9437153
1005.684423
1275.114943
1342.989823
893.6984785
761.0576339
801.6309001
512.5605339
453.9825063
463.1159297
1120.896786
1188.32956
58.9778905
58.9377212
66.29780628
49.05566111
53.35751164
53.50752085
43.23315131
43.0475584
45.69621391
39.17507396
40.91992131
41.06423981
36.66306148
36.54870626
37.73750488
34.74689722
35.56353254
35.66214786
524.201617
539.1281849
621.5614128
410.0283204
468.1204566
456.9604514
496.7384204
482.5266077
419.8546402
102.1814793
103.1188975
125.4762882
75.11923198
86.87871586
86.10911461
88.33294968
87.51191558
75.37587805
58.99249902
59.0471104
65.93151077
49.54801828
53.7387898
53.73831843
53.62329708
53.71858675
49.54343677
43.63883964
43.61096043
46.26189807
39.63675717
41.43342064
41.46040949
41.22567452
41.29611663
39.51108593
36.95032015
36.88874919
38.1403795
34.99012933
35.85168405
35.90575221
35.7325693
35.8017926
34.94796772
307.2249518
316.7364492
392.382183
274.4750684
269.7154896
227.1588977
96.66233462
97.84282846
116.9465659
73.18039687
83.68579627
82.91293041
85.43106637
84.53070664
73.74333867
58.35559144
58.5680741
64.93129149
49.60227791
53.5788797
53.44016267
53.67796353
53.67454337
49.63368568
43.73170678
43.74251694
46.37985778
39.79308067
41.58558605
41.58495183
41.53903775
41.55544132
39.76568815
37.04387611
37.02921192
38.28985537
35.0997045
35.98067456
35.99416218
35.9334408
35.96622541
35.08773482
432.2011421
450.1186351
201.5826828
205.2713027
281.4508405
133.0322371
162.0562731
159.6992499
168.4261455
164.9546098
135.0172752
93.04699262
93.77054516
110.526519
71.44634978
81.09564395
80.61416457
82.26402781
81.64653739
71.82986943
57.70390329
57.8542306
63.84558071
49.25568286
53.08451549
52.9899468
53.31073344
53.19088204
49.33819829
43.54105249
43.59346948
46.14642154
39.71889135
41.47998762
41.4365636
41.55491983
41.51974861
39.75129683
36.97885344
37.0046804
38.24329056
35.08322303
35.9624316
35.94084863
35.99134254
35.98011026
35.09918594
389.6052811
397.1002433
193.3377556
194.7803095
260.207248
127.9064496
155.1992144
154.2794201
157.8260453
156.3380316
128.8266834
91.02484513
91.441674
107.0990128
70.29337215
79.50519288
79.19546309
80.20146235
79.83616471
70.54491727
57.10702555
57.25719157
63.02442466
48.91363015
52.64244411
52.51873964
52.87573513
52.76075361
49.01175419
43.28592104
43.36130683
45.86778656
39.54990886
41.28280182
41.2176927
41.38816018
41.34180496
39.5975609
36.83840967
36.87830579
38.09799664
34.99580568
35.85566213
35.82360095
35.9147683
35.88614085
35.02186208
367.0021055
372.3096124
188.3161689
189.6203233
250.1475194
125.4135308
151.9693644
151.1388661
153.486096
152.7358187
125.9654007
89.5461441
89.90701528
105.1983777
69.31041465
78.285937
77.97186742
78.89496698
78.59451579
69.56576013
56.42848052
56.61321179
62.23809844
48.45455061
52.10380113
51.94699914
52.38756961
52.25045894
48.58072459
42.92049936
43.02071171
45.47419234
39.29737
40.98766363
40.9040111
41.14676209
41.06946508
39.36527128
36.66140244
36.70747516
37.88777626
34.87797131
35.71557082
35.67672808
35.78933052
35.7532255
34.91032143
342.6986347
349.4041939
181.7948741
183.6421587
239.3878034
122.7236981
148.1101562
146.885836
150.2350838
149.2201294
123.4942154
87.96827566
88.39419225
103.3238672
68.1566067
76.95766268
76.60585687
77.64372799
77.30793489
68.46299288
55.58258287
55.80456071
61.27040889
47.88136933
51.42311223
51.24560896
51.78081876
51.60547003
48.02925897
42.52770049
42.62193533
44.99393734
39.02871852
40.66027619
40.58245708
40.82123817
40.73991783
39.09477673
36.47355967
36.52058907
37.66512189
34.73901441
35.55593334
35.51499655
35.63701031
35.59664819
34.77485831
313.7831297
321.1739138
173.6792599
175.6714082
225.6286115
119.0261031
142.8295804
141.5095966
145.5899166
144.2156476
119.9869248
86.175764
86.59949042
100.7843339
66.98088306
75.56218195
75.2599507
76.23817239
75.88688172
67.24258364
54.81721901
54.98847903
60.2775728
47.34637348
50.76260642
50.61912183
51.07616158
50.91506443
47.47143002
42.1798232
42.26233592
44.55747166
38.776618
40.36087513
40.29128261
40.5065456
40.43265123
38.83757101
36.28964096
36.3347446
37.45018822
34.5934078
35.3926912
35.35249187
35.47406869
35.43322482
34.6298774
288.6893884
294.3856502
166.5711481
168.2416938
213.1737325
115.589942
137.8794764
136.7591623
140.2496827
139.0415463
116.3963999
84.6527619
85.01170969
98.43774296
66.13558126
74.4525361
74.20860487
74.97614572
74.70773116
66.32255037
54.26700939
54.38528189
59.57615202
46.90894827
50.24584947
50.14120058
50.48494725
50.36042789
47.00826421
41.88223372
41.95144326
44.18918594
38.54906258
40.09635555
40.03642542
40.2239267
40.15890081
38.60333382
36.11779442
36.15930764
37.25184438
34.44978102
35.23511671
35.19732308
35.31279293
35.27361112
34.48514269
268.810086
273.3780539
160.5080789
161.9331337
202.8677549
112.6361942
133.6324486
132.6670296
135.6782388
134.6358335
113.3360381
83.32657147
83.64333078
96.41118094
65.48852874
73.52840891
73.31562682
73.9741318
73.74768142
65.63874234
53.89365548
53.97468893
59.08473
46.58413042
49.88265692
49.81272213
50.04616182
49.96019207
46.65449913
41.64509392
41.69812647
43.90118769
38.35235069
39.873769
39.82578943
39.97924195
39.92495743
38.39822471
35.96364168
36.00025264
37.07614846
34.31376784
35.08902808
35.05482169
35.16034893
35.12420483
34.34680654
252.741265
256.4616095
155.3300562
156.5532723
194.2340145
110.081969
129.9818508
129.1526307
131.737928
130.8432065
110.684376
82.16113368
82.43610958
94.63938226
64.94098303
72.71624634
72.53139416
73.10906323
72.90901919
65.0700452
53.62695064
53.6859506
58.70274711
46.366643
49.6410179
49.59478517
49.74955223
49.69247062
46.4122357
41.47553758
41.51168341
43.6999858
38.19355523
39.70168446
39.66698582
39.78108498
39.73970262
38.22942691
35.83147836
35.86233645
36.92884632
34.18899468
34.95849256
34.92853942
35.02165434
34.98952154
34.21901747
239.4648102
242.5561451
150.8813669
151.9282364
186.8823862
107.906215
126.853307
126.1489489
128.354911
127.588408
108.4151792
81.18345101
81.409328
93.13162292
64.48700035
72.02902326
71.87990762
72.35496375
72.18738131
64.59044019
53.43891724
53.47886908
58.40216698
46.23319268
49.48445651
49.45651324
49.5534225
49.51669128
46.25983167
41.36844826
41.390017
43.57527113
38.07528495
39.58170504
39.55912019
39.63549902
39.60710846
38.10121098
35.72216554
35.74748297
36.81237028
34.07657008
34.8449617
34.81907702
34.89965802
34.87179998
34.1035668
228.4360844
231.0081856
147.0835022
147.9791093
180.6175089
106.0875803
124.2056261
123.6098002
125.4738219
124.8263755
106.5114367
80.39553478
80.57624088
91.88743335
64.14144835
71.485128
71.37011178
71.73973191
71.60819528
64.21794246
53.32272084
53.34564441
58.18771567
46.16429145
49.39599378
49.38289136
49.43259088
49.41246292
46.1764111
41.31051252
41.32126866
43.51042611
37.99254704
39.5061031
39.49266532
39.53912456
39.52151287
38.01041897
35.63206952
35.65313641
36.72329563
33.97483166
34.74640473
34.72358587
34.79407402
34.76986722
33.99944727
219.1649872
221.3425154
143.8024106
144.5825281
175.2257431
104.5666541
121.954389
121.4414683
123.0370833
122.4856462
104.9228299
79.76680203
79.91102725
90.86732019
63.89402803
71.06863276
70.98151041
71.26260438
71.16218084
63.94771993
53.26583374
53.27533721
58.05050743
46.14305397
49.36105794
49.3593162
49.37292527
49.36571704
46.14455453
41.28554871
41.28956844
43.48788483
37.93492918
39.46170878
39.45382684
39.48092949
39.47067158
37.94764248
35.5544132
35.57307677
36.65355649
33.88005887
34.65801635
34.63684124
34.70130755
34.67947309
33.90334225
211.2017983
213.0831609
140.9067479
141.5988829
170.4899074
103.2735805
120.0003633
119.5504084
120.9454492
120.4651001
103.5784823
79.26323907
79.37918554
90.02277188
63.72472743
70.75393641
70.68813141
70.90027918
70.82449224
63.76095449
53.25184069
53.25200427
57.97353851
46.15174787
49.36347765
49.36808629
49.35949138
49.36063996
46.14764951
41.27788088
41.27895369
43.49070452
37.89069423
39.43444747
39.42885555
39.4467789
39.44036671
37.90109424
35.48205925
35.49998415
36.59375313
33.78803962
34.57420446
34.55342586
34.61585938
34.59499565
33.81098531
204.3039489
205.9350467
138.3234696
138.9455179
166.2944793
102.1559678
118.2784886
117.8766738
119.114244
118.6905044
102.4216043
78.85347818
78.94853709
89.31252337
63.61100389
70.51457666
70.46409696
70.62650095
70.56867076
63.63534017
53.26167751
53.25749127
57.93700949
46.17510938
49.38651791
49.39393244
49.37354501
49.3796848
46.16865707
41.27492042
41.27571197
43.50377811
37.85009462
39.41248627
39.40687794
39.42340001
39.41796678
37.8603059
35.40980901
35.4280416
36.53620618
33.69574304
34.49070752
34.46960206
34.53260241
34.51170054
33.71894098
198.2689541
199.7016969
135.9849146
136.5420192
162.5260582
101.1736324
116.7323873
116.3786052
117.4843348
117.1019542
101.4055296
78.52871951
78.60036108
88.70918757
63.54042077
70.33599176
70.30249055
70.41725989
70.3743642
63.55380078
53.28892878
53.28085355
57.92969505
46.2024479
49.41892617
49.42792878
49.40182952
49.41017344
46.19556277
41.26917947
41.27120813
43.51741975
37.80717067
39.38842764
39.38152547
39.40103298
39.39489929
37.81832878
35.33510279
35.35408817
36.47642156
33.6019581
34.40546875
34.38380598
34.448361
34.42698344
33.62555355
193.2023707
194.3399469
134.0860184
134.5044569
159.3261359
100.3870374
115.448206
115.1886379
116.0445596
115.7333409
100.5588674
78.3150155
78.35874868
88.25272389
63.51506143
70.2299397
70.2127843
70.27385605
70.24984745
63.51806284
53.32058061
53.31440494
57.94634349
46.22479561
49.45208851
49.45718881
49.43678992
49.44503275
46.22079613
41.25269056
41.25854975
43.52328963
37.75781218
39.35674707
39.34656567
39.37403931
39.3658335
37.77107706
35.25628182
35.27650524
36.41162896
33.5066045
34.317769
34.29534789
34.36197815
34.33997087
33.53059324
189.4008145
190.2540617
132.6942024
133.0234025
156.9805786
99.82809608
114.5241999
114.313418
114.9524394
114.7331648
99.95748315
78.13689134
78.19007482
87.93257275
63.49112644
70.1532761
70.1202555
70.19617743
70.17738519
63.50300837
53.3147796
53.32277215
57.94810086
46.21995383
49.45713687
49.44857302
49.45954719
49.45956589
46.22533395
41.20840245
41.22323666
43.50340073
37.69503369
39.30703289
39.29022134
39.33502633
39.32191323
37.71246896
35.17072725
35.19288851
36.33748886
33.40947671
34.22654008
34.20303683
34.27268277
34.24975055
33.43394395
185.7269712
186.730834
131.0679913
131.560498
154.732492
99.16555116
113.5466393
113.2036325
114.0894977
113.8370546
99.37091663
77.74427863
77.87758556
87.47985041
63.33129812
69.93326656
69.8329655
70.0745907
70.01312288
63.39203746