/*--------------------------------*- C++ -*----------------------------------*\
| =========                 |                                                 |
| \\      /  F ield         | OpenFOAM: The Open Source CFD Toolbox           |
|  \\    /   O peration     | Version:  v2012                                 |
|   \\  /    A nd           | Website:  www.openfoam.com                      |
|    \\/     M anipulation  |                                                 |
\*---------------------------------------------------------------------------*/
FoamFile
{
    version     2.0;
    format      ascii;
    class       volScalarField;
    location    "2.81";
    object      p;
}
// * * * * * * * * * * * * * * * * * * * * * * * * * * * * * * * * * * * * * //

dimensions      [0 2 -2 0 0 0 0];


internalField   nonuniform List<scalar> 
3019
(
-750.9418768
-999.7825288
-1087.142618
-1070.921115
-1012.90053
-948.0666316
-869.7433747
-826.4181037
-770.8541457
-752.8049101
-740.572829
-734.6670013
279.4174951
-405.8413817
-683.9646802
-797.9604768
-825.0860193
-811.8244783
-770.7333582
-747.19031
-707.36792
-696.2916656
-688.3606893
-684.6067914
254.1462289
-159.0248095
-438.3869316
-594.8322057
-665.0647051
-685.1476347
-672.938463
-666.9938668
-641.6477535
-636.9897965
-633.2583101
-631.5546856
187.7623144
-84.57019226
-307.7732624
-455.8156889
-537.0557169
-574.5172128
-582.7436571
-589.9164509
-576.6253862
-577.4242552
-577.3687314
-577.4230121
116.6072816
-69.96021508
-237.6854906
-360.0689278
-436.1893657
-481.6737132
-502.3040685
-518.3704423
-514.5382793
-519.5988823
-522.4402599
-523.8335747
65.85684181
-70.02083112
-192.9753486
-288.0217549
-355.8120574
-404.0012396
-432.0546133
-453.5199231
-456.6940091
-464.7500463
-469.7205804
-472.0714059
37.8511267
-64.0007372
-155.4922291
-232.5661141
-293.9949674
-340.96654
-371.8824177
-395.9221682
-403.6981363
-413.6261311
-419.9939504
-423.0293665
29.18311076
-51.36881291
-126.0134531
-191.332014
-245.7583392
-289.5127311
-320.6729279
-345.2843826
-355.7628227
-366.6529739
-373.8028676
-377.2113544
23.67776071
-42.3362389
-104.274641
-159.7497024
-207.4259376
-247.097283
-277.0737508
-300.9702149
-312.7616264
-323.9202166
-331.3617239
-334.9147186
19.24526145
-35.67432554
-87.60779966
-134.8758287
-176.4011084
-211.8221184
-239.7553217
-262.2378968
-274.369311
-285.2990978
-292.6751222
-296.2027881
15.6893249
-30.50395635
-74.39801117
-114.7973951
-150.8575577
-182.1961398
-207.6329676
-228.3426112
-240.1614336
-250.5352411
-257.6046851
-260.9902994
12.81600509
-26.32273564
-63.62938356
-98.23651283
-129.4878105
-157.0299327
-179.8417393
-198.6045296
-209.6931655
-219.313305
-225.9223494
-229.090192
10.47702629
-22.83013724
-54.64343713
-84.32072703
-111.3507284
-135.42469
-155.6395202
-172.4218055
-182.53271
-191.2930263
-197.3510097
-200.2558048
8.560150829
-19.83609259
-46.99625724
-72.43608463
-95.75469145
-116.6895959
-134.4203047
-149.269673
-158.272874
-166.1300969
-171.5921115
-174.2110321
6.979773313
-17.21539303
-40.37945142
-62.14126817
-82.18457444
-100.2896599
-115.6889934
-128.6981627
-136.535692
-143.4879516
-148.3407894
-150.6667186
5.669294508
-14.88161519
-34.5700541
-53.10800411
-70.24514748
-85.79995495
-99.03273233
-110.3150796
-116.9751433
-123.0458833
-127.2967287
-129.3326631
4.576100744
-12.7731103
-29.40262598
-45.08700438
-59.62814765
-72.879158
-84.10815244
-93.78204861
-99.27789692
-104.5047149
-108.1726972
-109.927536
3.657989023
-10.84368802
-24.74962387
-37.88248186
-50.08514458
-61.23907281
-70.62667069
-78.80325434
-83.16047081
-87.58713714
-90.69756615
-92.18335994
2.881088606
-9.057457973
-20.51016708
-31.33800826
-41.41621288
-50.63721742
-58.33370072
-65.11784277
-68.36081473
-72.03419219
-74.6141956
-75.84346892
2.217682399
-7.385358616
-16.60189929
-25.32526942
-33.46026657
-40.9180875
-46.98326328
-52.4889186
-54.65707983
-57.61983335
-59.69610956
-60.682646
1.644248758
-5.8024685
-12.95395762
-19.73216015
-26.07005292
-31.91403558
-36.39692229
-40.70448021
-41.78040978
-44.08232621
-45.6740556
-46.42317895
1.140671273
-4.286793815
-9.504223808
-14.45901746
-19.10873811
-23.41905571
-26.42510096
-29.55371457
-29.75945577
-31.38811589
-32.51795636
-33.05560142
0.6897076419
-2.818128183
-6.196566307
-9.416034492
-12.45570865
-15.30265161
-16.88553298
-18.94050697
-17.73543334
-18.71220667
-19.37743382
-19.6412544
0.2769855502
-1.376698024
-2.979031423
-4.521757413
-5.999398803
-7.426009823
-7.557576094
-8.511155846
-8.259891285
-8.727657947
-9.050512252
-9.28009546
-802.7238013
-847.30727
-1114.423207
365.5166051
-754.0223009
226.0427014
-415.1074956
-1000.628137
371.1561827
379.8806722
-1014.23052
-17.17784214
-92.4869935
-150.0048642
-479.0873739
-868.004389
-1162.269409
-435.0278589
-1213.565537
-1217.090047
-1260.452348
-343.4417939
265.8474936
-99.48963823
-296.9927346
-908.3593988
-1169.706116
-1167.209898
-117.6593445
-371.1142732
-77.84562881
424.4313623
-1410.231187
-1423.428227
409.3504532
176.470649
-1166.901581
-986.1672045
-1005.841688
-988.6171128
-1167.01649
-761.3465427
-938.5363398
-513.7652107
-546.8173936
-711.7967446
-336.534087
-493.3694449
-412.7182545
-1176.424274
-1375.245481
-1398.215521
-1177.891087
-1138.256557
-1217.548395
-955.4575735
-937.6706432
-769.8902302
-1547.265346
-1537.637485
-1424.441263
-1421.574987
-757.6047318
-772.7889812
-590.1182041
-596.8765496
-699.4634548
-140.0495348
-284.7962788
-1548.746473
-1405.963647
-1490.58585
-1003.416001
-998.64565
-987.4102803
-1107.785334
-799.8445389
-775.9814716
-763.6531083
-926.2167016
-864.595563
-864.8497106
-522.3313477
-578.5715387
-572.9017581
-394.6181074
-402.2085937
-449.170528
-1332.003926
-1338.5579
-1394.32744
-1195.788469
-1261.636229
-1268.153531
-1211.254998
-1167.883767
-1148.348554
-1084.222126
-1062.572893
-1000.750702
-474.2586941
-581.137389
-824.1741092
-517.782903
-725.8277205
-1077.629269
-769.4876896
-847.3580049
-1080.863974
-859.9157918
-871.7248318
-1028.965842
-869.6921794
-853.3233051
-963.8102704
324.2634723
61.82776863
-58.35483956
-198.5332164
-429.0949185
-633.5284505
-486.7750492
-611.3867385
-780.1173485
-639.1773259
-692.3661809
-823.4495353
-702.0116087
-715.0150817
-817.3711948
281.6659992
352.2626068
208.1409577
-23.05517612
-67.24976761
-94.32373708
-281.2910657
-381.4910174
-333.214302
-454.9521721
-565.3116142
-485.4135393
-551.4002066
-653.5805114
-566.1591947
-594.362823
-683.030822
186.8449629
255.9630104
132.6633448
-20.5857303
-19.18053416
-70.16777281
-211.0555462
-258.5465299
-251.7222398
-353.9731889
-425.909381
-381.3505891
-444.1994308
-521.8708288
-459.454267
-494.2761634
-567.4411566
112.4378558
165.670419
76.49686221
-34.01096669
-23.99125733
-70.23904753
-172.2021543
-199.6946161
-203.0105397
-282.4683235
-333.9953365
-304.5066845
-358.8639659
-420.9895025
-373.9330018
-411.5049997
-472.1225383
69.54574285
98.83667153
42.62024742
-39.26200261
-36.56393785
-66.55522989
-141.5514518
-164.4415383
-164.4690088
-226.4156104
-267.221999
-244.8764663
-293.792346
-340.886359
-308.0062977
-344.8492265
-393.4481369
52.28953728
63.21912044
30.69602794
-33.38444049
-38.88598982
-54.16778731
-113.7818013
-133.8554807
-132.5171794
-184.6613665
-214.7552161
-200.5904901
-243.8502335
-280.0812053
-256.7659998
-291.1638443
-330.3515855
42.53941795
49.71890577
24.95035223
-27.2973529
-31.61032816
-44.32678299
-93.52643904
-108.1240301
-109.1523741
-153.2390859
-175.9937099
-166.9228201
-204.7338778
-233.1928161
-216.2380019
-247.4637148
-279.4197081
34.84503141
40.44082166
20.2633548
-23.02691019
-26.09793832
-37.17387398
-78.25720572
-89.32115289
-91.39994629
-128.8342726
-146.5780668
-140.5830232
-173.4483256
-196.2719755
-183.5820928
-211.4642035
-237.8302381
28.74507554
33.18858201
16.50759515
-19.8068169
-22.14338929
-31.68860143
-66.30973844
-75.00732267
-77.43941358
-109.3508086
-123.5653575
-119.4456007
-147.937026
-166.5942149
-156.8082219
-181.4652291
-203.472815
23.83192226
27.41838663
13.47914594
-17.23780897
-19.11432363
-27.29409612
-56.66091632
-63.71230338
-66.13311703
-93.41926185
-105.0769886
-102.0998708
-126.7609712
-142.2824225
-134.4952093
-156.1563656
-174.7534988
19.82063335
22.75365293
11.01832262
-15.0979407
-16.66890854
-23.65048565
-48.66322134
-54.5263484
-56.74985723
-80.12263005
-89.87677611
-87.58875188
-108.9025936
-122.0181539
-115.6231744
-134.5535573
-150.4514571
16.50708408
18.93345852
9.004845203
-13.25491273
-14.6132341
-20.54550348
-41.88926531
-46.86826957
-48.80111161
-68.82696655
-77.13127257
-75.24317173
-93.62599979
-104.8653707
-99.44587693
-115.9104019
-129.6495977
13.74177596
15.76930348
7.347230099
-11.62617195
-12.83013615
-17.84079727
-36.04747445
-40.35070965
-41.9503958
-59.08372067
-66.26017849
-64.58543175
-80.39108871
-90.14376996
-85.41041961
-99.65729255
-111.6507003
11.41178124
13.12224087
5.974715063
-10.15768552
-11.24569137
-15.44190385
-30.93063272
-34.70700757
-35.95665008
-50.56432162
-56.84993969
-55.26294907
-68.78961245
-77.35124386
-73.09538568
-85.34837793
-95.92035348
9.429895072
10.88657771
4.831496934
-8.812576187
-9.810983395
-13.28185641
-26.38668046
-29.74584175
-30.64181326
-43.02161983
-48.59515355
-47.00884272
-58.50620206
-66.10564028
-62.17285901
-72.62881643
-82.03793355
7.727731633
8.980466377
3.873075815
-7.564553287
-8.492337788
-11.31134893
-22.30061488
-25.32613255
-25.8705265
-36.26498004
-41.26528207
-39.61617509
-49.29175276
-56.11100502
-52.38188687
-61.20855737
-69.66801897
6.250736535
7.339255524
3.063669794
-6.393704655
-7.26528406
-9.492259869
-18.58199689
-21.33962558
-21.53597931
-30.14254359
-34.68016124
-32.91957845
-40.94504967
-47.13065921
-43.51065593
-50.84518297
-58.5315873
4.95476757
5.911324526
2.37424017
-5.284345889
-6.111158839
-7.794101127
-15.15797836
-17.7009559
-17.55195252
-24.53119454
-28.69617118
-26.78494609
-33.30432459
-38.97444613
-35.39048903
-41.35920846
-48.40135702
3.802673541
4.654589001
1.780321667
-4.223079872
-5.015013752
-6.19105776
-11.96663309
-14.34056986
-13.84503133
-19.32524724
-23.19555583
-21.09670384
-26.2277922
-31.48765361
-27.87239841
-32.58772701
-39.10913667
2.762452872
3.533287603
1.261006634
-3.198055506
-3.96387309
-4.660545072
-8.954065408
-11.19871828
-10.35123945
-14.43161066
-18.07599326
-15.75237561
-19.58479252
-24.53118907
-20.81563469
-24.35183231
-30.48664844
1.80631023
2.51652675
0.7983510993
-2.198207439
-2.946156467
-3.181917763
-6.071710076
-8.223069322
-7.012993626
-9.766496389
-13.24699999
-10.65971374
-13.25877486
-17.97787451
-14.09619943
-16.51062259
-22.36207391
0.9103558655
1.577595267
0.3763119534
-1.213607126
-1.950965178
-1.736449373
-3.275687914
-5.36625201
-3.778473999
-5.25504532
-8.62699119
-5.736294957
-7.144737477
-11.71431444
-7.601703119
-8.932223946
-14.59798503
-0.08372928809
0.6951870779
-0.1482366625
-0.3430726083
-0.9672788873
-0.4161682729
-0.6554770302
-2.583938931
-0.7399809436
-1.002790523
-4.141872403
-1.092929712
-1.370273106
-5.636532802
-1.465548804
-1.7829144
-7.061765142
-853.2121296
-843.9291525
-792.6553689
-867.5067804
-961.2637264
-945.6024137
-1476.015978
-1483.101564
-1043.147051
229.0614284
482.1130303
-720.7922296
-560.2850387
-628.842669
98.45883948
20.81036666
157.8078382
-626.0176946
-448.1650936
-202.3953484
-907.5796192
-549.5002702
-709.5794849
412.2588054
440.5772705
-1166.132023
-1177.671873
-927.4927685
-1264.960363
-1285.022741
-1531.266906
-1526.589412
45.78641851
120.0572841
52.91128354
-172.1374177
-115.899159
-32.76738535
-297.1552331
-509.9746848
-387.8419135
-598.2671074
-531.3957745
-400.2029421
-848.821643
-673.7398623
-728.2526737
-1158.968904
-1109.665056
-1111.830993
-288.7416232
-351.4013097
-339.62505
-531.1467451
-510.4557618
-363.7600604
-1269.095889
-1265.474463
-1207.08265
-1250.424985
-1349.353744
-1373.125931
-1351.958968
-1349.592668
-1255.224426
-1445.520116
-1444.094185
-298.246127
-205.5517994
-256.013493
-185.5591354
-231.7645141
30.10995368
-96.64628417
134.812285
125.6897016
323.7204576
-145.0317463
-21.23740258
11.6790946
-145.9212343
-75.49085184
-208.384058
-993.9586297
-977.8716285
-888.3309201
-1161.345192
-1068.808001
-1081.015938
-1044.956302
-1056.268313
-1152.447663
-189.4840516
-91.37764685
-16.67202321
-284.0220214
-180.8749601
-274.535795
108.342355
-74.75537396
-186.0001072
435.5886376
555.0786757
528.4355775
-1478.904619
-1478.651933
-1417.486203
191.2308615
112.407055
327.360411
262.9939072
342.164841
117.4120007
188.6162599
250.4615018
-1108.789019
-1108.373442
-1157.857222
-992.3019705
-1046.480026
-1031.814787
-1059.289194
-1054.009572
-998.9421702
-596.4127638
-581.8957253
-533.0650577
-705.2404287
-629.0144608
-650.7372899
-388.2115292
-368.8362349
-313.5556734
-474.150189
-420.2044062
-439.9275936
-1380.455726
-1330.074093
-1325.402197
-1212.621171
-1403.734295
-1470.960471
-1366.861054
-1388.552269
-1218.867786
-948.5515524
-895.801086
-903.8477125
-876.2118051
-887.2904238
-942.1798456
-780.9450701
-832.0121792
-818.2617733
-1423.9249
-1475.824939
-1478.147102
-1473.067159
-1474.357405
-1425.460296
-1523.193683
-1521.561655
-87.45194839
-138.8854987
-189.4248487
-163.1595294
-114.2254966
-259.1573738
-209.1393425
-233.6331183
-981.6774412
-950.0535464
-917.5039052
-888.9549795
-863.9254979
-844.6930963
-656.5368463
-685.5448795
-775.4641648
-817.3471183
-871.0909658
-1034.42647
-971.4786716
-986.5713248
-1089.988169
-996.9491412
-992.1127958
-1058.553163
-963.952071
-952.0724347
-996.5128252
-845.3621471
-837.6221396
-894.1351062
-820.5223175
-803.2185328
-846.9906267
-787.2063746
-774.9023027
-808.8973226
308.059608
189.0284723
152.7660735
-318.0860254
-410.5911825
-496.6229774
-608.7474442
-653.4544276
-724.1406481
-740.4365113
-757.0837654
-810.5273843
-782.0875068
-784.2616143
-824.1298205
-715.1497881
-726.6949014
-781.6720063
-721.210274
-714.0711556
-758.6465605
-706.6978009
-700.4496824
-736.8787329
242.2308065
140.491007
139.8978019
-129.791717
-207.8832351
-242.289836
-397.5220621
-445.9865611
-487.5788633
-554.5339741
-579.8042807
-618.9392929
-630.0903062
-639.9577368
-673.519483
-600.169358
-623.4927868
-673.70073
-626.6606424
-627.8780842
-670.3153523
-627.5994647
-626.6822468
-663.1677672
168.2298963
106.556971
118.2506582
-78.52847904
-135.6737233
-146.6491305
-286.1414666
-328.3277837
-352.1703034
-428.9528476
-454.2432691
-481.5680104
-509.6740718
-522.3182914
-549.3616807
-503.1559959
-532.4177603
-576.4087002
-541.2623352
-548.1786564
-587.0965003
-553.0728305
-556.3526472
-591.2554331
101.8751654
60.08367561
71.35332189
-69.88839294
-111.445822
-115.6468394
-225.1171629
-257.9978452
-272.8018094
-340.3287599
-362.3605669
-383.1880256
-414.0865979
-427.725356
-449.6179599
-421.7124564
-453.4587251
-491.436388
-465.8794294
-476.4746771
-511.3150364
-484.7394901
-491.0175358
-523.3149736
56.63423181
24.85690819
31.84620501
-69.09653877
-99.42943605
-102.145633
-183.3255558
-208.1809896
-219.6915207
-272.5277881
-290.9987523
-307.0778677
-338.8392737
-352.4166959
-369.5004285
-355.3118866
-386.5860039
-418.5699715
-400.7736306
-413.3246836
-443.8422817
-423.5412169
-431.6442371
-460.85607
34.53771961
10.25300362
11.94865609
-60.64303237
-83.21328178
-88.00568611
-147.1861115
-166.9654503
-176.1984619
-221.1376696
-237.4017275
-249.3857449
-280.8274928
-293.5675957
-306.9878137
-301.1824861
-330.3946483
-357.2484634
-345.2422155
-358.443513
-384.9146464
-369.5112079
-378.524189
-404.5854495
27.73157663
8.305613879
8.715667041
-48.82222938
-67.26351727
-70.75135539
-119.9818417
-136.5346748
-143.3103471
-182.6690546
-196.8044465
-205.9815964
-235.364225
-246.941909
-257.6413643
-256.6942588
-283.3422685
-305.8278492
-298.0093762
-310.9863525
-333.8631923
-322.1440545
-331.3988822
-354.5286468
22.47772099
6.54316828
6.966112227
-40.49147307
-55.74993061
-58.31579161
-99.70854002
-113.6504613
-118.8193655
-152.9902704
-165.214262
-172.428999
-199.0658081
-209.395281
-218.0672357
-219.8087697
-243.8939903
-262.7660246
-257.7085885
-269.9698164
-289.7490913
-280.7351592
-289.773817
-310.2316069
18.28249443
4.996478337
5.358148446
-34.26623997
-47.03873301
-49.01509988
-84.02884531
-95.84161093
-99.91408418
-129.4652523
-140.017909
-145.8243716
-169.559863
-178.6803407
-185.816458
-188.9251769
-210.4440875
-226.5030455
-223.1026978
-234.4426745
-251.5890734
-244.5321018
-253.0759177
-271.1415705
14.91353248
3.71679294
4.012252342
-29.3802126
-40.16475531
-41.74709582
-71.50751334
-81.56429501
-84.86377744
-110.3671317
-119.4721477
-124.244838
-145.1658372
-153.1673523
-159.1291863
-162.7641432
-181.8299161
-195.5921027
-193.2477866
-203.558467
-218.4806352
-212.8147364
-220.7084201
-236.6696209
12.18607582
2.685880191
2.922024421
-25.39389581
-34.55310171
-35.85986472
-61.23603853
-69.82608831
-72.56276014
-94.53721519
-102.3897929
-106.3855385
-124.6810525
-131.6681302
-136.7185585
-140.3638876
-157.1562785
-169.0491295
-167.3342544
-176.5840004
-189.6346503
-184.9424468
-192.1110738
-206.2379701
9.961985557
1.870520074
2.056069145
-22.04065672
-29.84535616
-30.95194286
-52.62007694
-59.96929522
-62.2845216
-81.1788682
-87.94467114
-91.34422656
-107.2361609
-113.3124786
-117.6453404
-120.9870468
-135.7053055
-146.0665735
-144.6916912
-152.8991832
-164.3750445
-160.3519175
-166.7729474
-179.3120141
8.136387203
1.236355347
1.379671265
-19.14982625
-25.80688039
-26.76339928
-45.25537266
-51.54196564
-53.53392573
-69.72778379
-75.54557367
-78.47918746
-92.18937395
-97.45108137
-101.2115347
-104.0651839
-116.9065119
-126.0049673
-124.7726941
-131.9847128
-142.1333712
-138.557108
-144.2402788
-155.4102621
6.629117542
0.7524087288
0.8608484655
-16.60781105
-22.2784009
-23.11950391
-38.85870808
-44.22487935
-45.96403793
-59.77559005
-64.7610886
-67.32511869
-79.06014082
-83.5933675
-86.89241003
-89.14899121
-100.2994062
-108.3541049
-107.1255798
-113.4026478
-122.4348498
-119.1377098
-124.1114871
-134.1091706
5.377436926
0.3918031129
0.4717201026
-14.33539886
-19.14686414
-19.89743348
-33.22355872
-37.78367053
-39.32223067
-51.01631408
-55.26566581
-57.53332097
-67.4775037
-71.35760837
-74.28201867
-75.87834877
-85.50736372
-92.69708553
-91.37428791
-96.78136206
-104.8751523
-101.7298811
-106.0321017
-115.030861
4.331605441
0.1315051807
0.1882798645
-12.27551126
-16.32954663
-17.0081482
-28.19546896
-32.04210218
-33.41997072
-43.21601477
-46.80888426
-48.83733506
-57.15026503
-60.44191886
-63.0614148
-63.95607678
-72.22049091
-78.69262998
-77.20430763
-81.80408474
-89.11189502
-86.01781968
-89.68945423
-97.84374162
3.45167526
-0.04747805585
-0.009455159924
-10.38489828
-13.76311162
-14.38415597
-23.65436392
-26.86260772
-28.11126062
-36.18972455
-39.19176878
-41.02675511
-47.84250885
-50.59939955
-52.97123332
-53.12952879
-60.20421946
-66.06254088
-64.3491245
-68.19526594
-74.8505764
-71.72404009
-74.80670785
-82.25276567
2.705576051
-0.1606146815
-0.1377613841
-8.629767809
-11.39781885
-11.97265666
-19.50499017
-22.13579528
-23.28030177
-29.78957922
-32.2551309
-33.93312513
-39.36620326
-41.63413679
-43.80224268
-43.2265589
-49.23158924
-54.60560898
-52.55454476
-55.70993378
-61.83230581
-58.60048596
-61.13342019
-67.99949099
2.066730782
-0.2208091727
-0.210099799
-6.982184349
-9.192491658
-9.730838792
-15.66808487
-17.77047801
-18.83239341
-23.891776
-25.86561947
-27.41835132
-31.56542074
-33.38580759
-35.38886147
-34.07391082
-39.00364311
-44.04762319
-41.601899
-44.13103811
-49.82479271
-46.42708866
-48.45937581
-54.83791401
1.512525811
-0.2388942214
-0.2378000927
-5.418070397
-7.111679076
-7.621971769
-12.07523693
-13.68775033
-14.68585626
-18.38755378
-19.90504189
-21.36092775
-24.29441723
-25.69910662
-27.57623719
-25.46510099
-29.38004532
-34.11775975
-31.34758684
-33.26471464
-38.62548132
-34.97452105
-36.50789227
-42.59932418
1.023610839
-0.2238868944
-0.2303095563
-3.915979246
-5.123924018
-5.613751209
-8.666074014
-9.817894783
-10.76895735
-13.18001581
-14.26766387
-15.6520819
-17.42107184
-18.43285732
-20.21688435
-17.27026463
-20.24703154
-24.76270658
-21.61522488
-22.95050027
-28.0509129
-24.13669142
-25.16011189
-30.89566893
0.583366326
-0.1833661928
-0.1954810343
-2.456126849
-3.200477023
-3.676769487
-5.38582964
-6.097779793
-7.0169467
-8.181667716
-8.858100503
-10.19393112
-10.8275128
-11.46250289
-13.18374929
-9.351638695
-11.46666121
-15.80330812
-12.2670114
-13.03432169
-17.94057537
-13.71157441
-14.41926269
-19.76281756
0.1688205119
-0.1315580662
-0.1397673617
-1.024462169
-1.318678022
-1.782767933
-2.18894028
-2.47478082
-3.370417232
-3.31888469
-3.595526057
-4.897593871
-4.410265653
-4.67688763
-6.35773655
-1.900018441
-3.452259872
-7.035905905
-3.744525784
-4.029972203
-8.049962992
-4.37010736
-4.801479249
-8.909438874
-1232.145894
-1218.678721
-1094.864938
315.2484254
412.3383264
448.8200771
-744.3746071
-697.8872847
-703.2199324
-976.5288733
-865.5734363
-898.3177434
-1441.388026
-1441.696734
-205.3082809
-277.1654718
-225.9073314
-1220.043532
-1272.999313
-1270.650343
103.3279821
53.46138174
-1119.438361
-1118.549076
-1171.008144
-9.184527808
-67.53471838
-138.2963829
187.5954826
141.9530887
-1200.118371
-1316.374721
-1342.900849
-1258.458826
-1287.970195
-1185.369334
-1127.575438
-1198.074089
-1228.286307
-1139.799478
-1168.555806
-1106.049842
-1041.340854
-1085.825839
-1112.172256
-1037.206637
-1060.818945
-1020.703333
-513.1088869
-597.8821
-564.0650215
-659.8340863
-629.899211
-548.284488
-800.222511
-713.9014305
-741.0643133
-601.9374577
-726.3696906
-654.8199602
-830.7347025
-785.846347
-671.2200522
-1060.85128
-915.9694716
-948.2294697
-803.425612
-890.8489057
-865.3588476
-920.0249519
-908.6514532
-828.8751148
-1087.517554
-995.1505312
-998.2675371
-867.4975655
-928.2946807
-926.3197479
-922.5283509
-926.698273
-871.3852654
-1044.374774
-984.4019545
-974.8678736
-865.6738204
-908.4839292
-916.2995296
-889.8527333
-899.528213
-860.1019969
-980.0948078
-939.6130007
-926.7701591
227.1652167
212.2892727
320.3117434
40.62225623
82.35247319
-13.25638792
-286.0394106
-341.1974857
-250.5135335
-486.2542766
-419.3728825
-362.5827422
-572.1971052
-488.7354601
-553.9654861
-535.7743736
-590.9497752
-543.4850915
-662.1861179
-630.1842856
-577.0341896
-755.829758
-689.5083252
-718.2423425
-661.4778619
-707.31905
-687.6105321
-733.4507236
-722.4233263
-679.0201631
-818.7844534
-769.0908867
-777.2932747
-708.5876587
-745.5759872
-740.9318495
-748.1131151
-747.8843439
-712.8939537
-821.4548064
-783.9877832
-782.2686451
306.713402
327.6197641
128.6068206
136.4581809
227.1417881
-30.98196425
51.48067464
53.14642528
32.4805059
45.41939519
-45.08989401
-161.4935181
-181.4302091
-108.8470605
-308.8828712
-248.2679593
-223.9559914
-316.4418888
-278.7906409
-341.963082
-379.3030116
-410.2349939
-362.8986187
-487.5185219
-451.6306823
-419.7068633
-529.717882
-488.0894445
-524.1360376
-511.4039584
-544.0474587
-518.1864894
-583.0839978
-565.5334863
-533.2750361
-638.3357083
-600.490115
-617.0996815
-577.9300605
-608.0956251
-597.1254056
-622.6066958
-616.373486
-587.0872593
-679.3719486
-647.1445264
-652.1645537
208.9937956
231.8831122
83.00695859
94.75499276
149.895971
-17.4305206
38.41498006
31.01631178
51.33540391
45.39043217
-16.38693111
-120.8607514
-127.5292293
-73.91412845
-224.240704
-177.3679308
-167.3324685
-204.7570923
-189.5515481
-239.8206275
-289.1478304
-307.4816648
-267.6854767
-375.8461678
-343.5617508
-323.237945
-391.5126701
-366.2531864
-399.7410044
-405.4050226
-429.0099233
-404.2719688
-468.5271842
-450.3301546
-426.27784
-503.4847403
-475.9252974
-494.3070547
-472.6013381
-496.7588066
-483.8709879
-517.44531
-507.8074771
-484.1151353
-559.2369443
-532.8185076
-541.8033943
128.1509538
145.9649689
40.14356051
49.61077361
88.50647623
-30.9089976
8.86973192
2.658258261
23.42755147
15.81225026
-27.45228582
-104.9722429
-107.8763599
-70.03062161
-180.5341661
-145.1090656
-139.168542
-159.0717742
-151.8023171
-189.6381609
-231.6929707
-244.3870634
-213.6511972
-298.5322861
-272.6965261
-258.1944242
-304.9160945
-288.1819306
-315.6210599
-324.3827341
-342.8160421
-321.8922556
-378.1570057
-361.4373008
-342.3899828
-403.4465387
-381.8059096
-398.8805473
-387.6774597
-407.0551796
-393.3204228
-430.6371599
-419.4473636
-400.1673296
-461.521616
-439.9324216
-450.8575537
77.52179516
87.24508602
14.9235762
19.21631688
48.87748823
-39.52418078
-10.27522133
-12.44694999
-2.695761071
-7.008377616
-38.43302763
-92.61527267
-96.51493762
-67.88296135
-149.276418
-123.4921052
-117.5415589
-134.0893845
-129.0332298
-156.8779933
-186.2232872
-196.9912927
-173.853861
-239.0410537
-218.6782566
-206.8657203
-244.4578937
-231.2968913
-252.6888079
-262.2520506
-276.0886917
-258.1645882
-308.4402843
-292.8386393
-278.5508061
-324.664169
-308.1772084
-324.1093013
-321.2275009
-336.3473908
-322.9292033
-360.1770085
-348.7349679
-333.4898058
-382.0094205
-364.8926591
-376.3456421
55.0767634
58.46284525
9.11873985
9.639674005
32.41998267
-35.41538241
-13.05850677
-12.2558522
-13.44622203
-13.66966808
-37.50505008
-74.55302257
-78.70644863
-57.27101854
-119.9216471
-99.62549312
-94.44547022
-111.3163016
-105.2575366
-126.6064773
-150.6003711
-158.4614639
-139.5500585
-193.9643992
-176.6105604
-167.991448
-195.9598739
-185.9053568
-203.9696945
-215.7672276
-226.2191333
-210.5036845
-255.1777166
-241.1088107
-230.1866173
-265.219086
-252.7637919
-267.2335064
-268.9468381
-280.9053576
-268.4376555
-303.5574372
-292.5969396
-280.406757
-319.0854855
-305.475786
-316.5868169
44.79133388
47.20455414
7.404081244
7.857444848
26.3072318
-28.60660209
-10.46345318
-10.02880646
-11.54530203
-10.95976113
-30.03742428
-61.07397331
-64.04807221
-46.4826293
-98.03832935
-81.24886411
-77.48785652
-89.68756071
-85.30349665
-102.8913081
-124.3317527
-130.2234711
-114.3754898
-160.3329703
-145.5513175
-139.0355679
-159.979698
-152.5171249
-167.9020552
-180.0725587
-188.1836453
-174.5484228
-213.680734
-201.2292815
-192.6781972
-219.9355204
-210.2999069
-223.1524251
-227.1925928
-236.8056144
-225.5381915
-257.6060129
-247.4881608
-237.6024166
-268.8515221
-257.8940814
-268.2262132
36.60224384
38.46611339
5.737150526
6.132929242
21.34036107
-23.97434386
-8.98894779
-8.709393578
-9.642604287
-9.297933233
-24.99446809
-51.1163962
-53.35620062
-38.7755427
-81.71164729
-67.6787341
-64.82045424
-73.99007299
-70.72811596
-85.39154549
-104.2244855
-108.7950171
-95.42584668
-134.4073065
-121.7958082
-116.7091536
-132.9283158
-127.1921837
-140.3115463
-151.9418713
-158.3958544
-146.6119418
-180.6603789
-169.7479961
-162.8997499
-184.6053528
-176.9726134
-188.2578212
-193.297668
-201.1486252
-191.1281556
-219.8550636
-210.7209174
-202.5944871
-228.1976223
-219.2479987
-228.6162677
30.14537769
31.62453519
4.323802669
4.651802265
17.37104539
-20.53923139
-7.999079793
-7.79427084
-8.453796433
-8.21805444
-21.31627679
-43.41458265
-45.17539257
-32.94035451
-69.04911618
-57.21905478
-54.96176621
-62.13491058
-59.6058721
-71.94342884
-88.33331729
-91.9872919
-80.64483746
-113.8445437
-103.0592545
-98.97548998
-111.9060939
-107.3631269
-118.5760935
-129.2481487
-134.4995031
-124.3287007
-153.8606827
-144.3463649
-138.7481406
-156.400005
-150.2232466
-160.0726507
-165.3565335
-171.8673442
-163.0360417
-188.4927871
-180.3507062
-173.5787744
-194.8375733
-187.4319035
-195.8053696
24.96614995
26.16032774
3.172190699
3.436923454
14.17755092
-17.83311492
-7.243993086
-7.07667979
-7.601365897
-7.41846686
-18.45763525
-37.22716538
-38.66014341
-28.31178251
-58.89761325
-48.86071787
-47.020989
-52.82280143
-50.79215602
-61.24515121
-75.42474192
-78.42159279
-68.75585719
-97.12503055
-87.88208858
-84.52395847
-95.0948124
-91.40178169
-101.0067853
-110.5561357
-114.9137167
-106.1389602
-131.7097518
-123.4399978
-118.779117
-133.4093194
-128.3121734
-136.878947
-141.9762558
-147.454367
-139.7164443
-162.1133138
-154.9185714
-149.1999907
-167.0927306
-160.8796979
-168.2928795
20.75115582
21.72782406
2.253449486
2.463202663
11.58744186
-15.60097422
-6.607307725
-6.459061075
-6.915394312
-6.759197286
-16.12400674
-32.10310669
-33.30223575
-24.50415942
-50.53402742
-41.98270405
-40.44424435
-45.26557622
-43.58807818
-52.48634177
-64.69455526
-67.20599052
-58.94522713
-83.23818282
-75.30677805
-72.48841637
-81.31547623
-78.24625312
-86.48647831
-94.87900246
-98.55769407
-90.99122777
-113.1002908
-105.9297437
-101.9858956
-114.3152841
-110.0360094
-117.4685106
-122.1422898
-126.8131536
-120.0632844
-139.6609951
-133.3447852
-128.4556544
-143.7052954
-138.4254747
-144.9431429
17.27904114
18.08706225
1.532809124
1.696273916
9.471731755
-13.69300205
-6.030824148
-5.892189815
-6.31387643
-6.171265674
-14.14536479
-27.75370279
-28.78025112
-21.27981019
-43.48586559
-36.18510606
-34.87092644
-38.96795195
-37.54954421
-45.14404982
-55.59920489
-57.74279191
-50.67435399
-71.49051332
-64.68393245
-62.27676339
-69.78321987
-67.18395266
-74.25630767
-81.51913787
-84.67224518
-78.15548294
-97.23563906
-91.03431507
-87.64868564
-98.19463089
-94.54690928
-100.9792645
-105.1034523
-109.1348614
-103.27086
-120.3365831
-114.8227767
-110.5946391
-123.744184
-119.2039992
-124.9013233
14.38839633
15.06367337
0.9773758814
1.102404214
7.732435312
-12.01658892
-5.484578531
-5.350766201
-5.755102132
-5.61929944
-12.41765086
-23.98681899
-24.88201098
-18.48518927
-37.43299705
-31.20007342
-30.05769535
-33.6040588
-32.38135139
-38.86638924
-47.76090911
-49.61897625
-43.57460919
-61.39361545
-55.56053243
-53.47379371
-59.95736988
-57.72022916
-63.78414004
-69.97391421
-72.71234312
-67.11265094
-83.53261478
-78.18736304
-75.24409449
-84.38360427
-81.23190961
-86.7814572
-90.2977926
-93.81537812
-88.74346858
-103.5305528
-98.74390707
-95.04948527
-106.5096364
-102.5626613
-107.5154899
11.95859468
12.52830872
0.5582279777
0.6516645723
6.29437961
-10.51201156
-4.95342871
-4.822022841
-5.217713202
-5.085299187
-10.87449998
-20.66878904
-21.46197405
-16.01697796
-32.1509284
-26.84157361
-25.83321055
-28.9518955
-27.88051621
-33.40896648
-40.90698992
-42.54020712
-37.38532687
-52.59405472
-47.61126415
-45.77760906
-51.45587354
-49.50289319
-54.68802835
-59.86946087
-62.27729576
-57.48415129
-71.55538079
-66.96912315
-64.37970466
-72.3966651