/*--------------------------------*- C++ -*----------------------------------*\
| =========                 |                                                 |
| \\      /  F ield         | OpenFOAM: The Open Source CFD Toolbox           |
|  \\    /   O peration     | Version:  v2012                                 |
|   \\  /    A nd           | Website:  www.openfoam.com                      |
|    \\/     M anipulation  |                                                 |
\*---------------------------------------------------------------------------*/
FoamFile
{
    version     2.0;
    format      ascii;
    class       pointVectorField;
    location    "3.05";
    object      pointDisplacement;
}
// * * * * * * * * * * * * * * * * * * * * * * * * * * * * * * * * * * * * * //

dimensions      [0 1 0 0 0 0 0];


internalField   nonuniform List<vector> 
6506
(
(0 0 0)
(0 0 0)
(0 0 0)
(0 0 0)
(0 0 0)
(0 0 0)
(0 0 0)
(0 0 0)
(0 0 0)
(0 0 0)
(0 0 0)
(0 0 0)
(0 0 0)
(0 0 0)
(0 0 0)
(0 0 0)
(0 0 0)
(0 0 0)
(0 0 0)
(0 0 0)
(0 0 0)
(0 0 0)
(0 0 0)
(0 0 0)
(0 0 0)
(0 0 0)
(0 0 0)
(0 0 0)
(0 0 0)
(0 0 0)
(0 0 0)
(0 0 0)
(0 0 0)
(0 0 0)
(0 0 0)
(0 0 0)
(0 0 0)
(0 0 0)
(0 0 0)
(0 0 0)
(0 0 0)
(0 0 0)
(0 0 0)
(0 0 0)
(0 0 0)
(0 0 0)
(0 0 0)
(0 0 0)
(0 0 0)
(0 0 0)
(0 0 0)
(0 0 0)
(0 0 0)
(0 0 0)
(0 0 0)
(0 0 0)
(0 0 0)
(0 0 0)
(0 0 0)
(0 0 0)
(0 0 0)
(0 0 0)
(0 0 0)
(0 0 0)
(0 0 0)
(0 0 0)
(0 0 0)
(0 0 0)
(0 0 0)
(0 0 0)
(0 0 0)
(0 0 0)
(0 0 0)
(0 0 0)
(0 0 0)
(0 0 0)
(0 0 0)
(0 0 0)
(-4.023898319e-07 1.047942331e-05 2.775557562e-17)
(0 0 0)
(0 0 0)
(0 0 0)
(0 0 0)
(0 0 0)
(0 0 0)
(0 0 0)
(0 0 0)
(0 0 0)
(0 0 0)
(0 0 0)
(0 0 0)
(0 0 0)
(0 0 0)
(0 0 0)
(0 0 0)
(0 0 0)
(0 0 0)
(0 0 0)
(0 0 0)
(0 0 0)
(0 0 0)
(0 0 0)
(0 0 0)
(0 0 0)
(0 0 0)
(0 0 0)
(0 0 0)
(-2.50687788e-05 0.0001617776463 4.996003611e-16)
(-0.000144273881 0.001014769393 3.080868893e-15)
(-1.886520806e-06 1.342349326e-05 4.163336342e-17)
(-0.0002739489405 0.002669128039 8.007483565e-15)
(-0.0006803252545 0.006560431096 1.992850329e-14)
(-0.0008073959873 0.008886152142 2.69784195e-14)
(-0.0003765133021 0.004184576823 1.255939797e-14)
(-0.0004585110662 0.008817731921 2.646494135e-14)
(-0.0008039032265 0.01535226434 4.661548925e-14)
(-0.0006710107404 0.01696384395 5.151434834e-14)
(-0.0003949133307 0.01003478879 3.011479954e-14)
(0 0 0)
(0 0 0)
(0 0 0)
(0 0 0)
(0 0 0)
(0 0 0)
(0 0 0)
(0 0 0)
(0 0 0)
(0 0 0)
(0 0 0)
(0 0 0)
(0 0 0)
(0 0 0)
(0 0 0)
(0 0 0)
(0 0 0)
(0 0 0)
(0 0 0)
(0 0 0)
(0 0 0)
(0 0 0)
(-7.00133721e-05 0.0003237326776 1.026956298e-15)
(-0.0003824585432 0.00188576331 6.009082121e-15)
(-9.059661858e-05 0.0004521601706 1.429412144e-15)
(-0.001292510199 0.008058994808 2.536859611e-14)
(-0.002067042012 0.01274330393 4.062028491e-14)
(-0.002636844626 0.01774183708 5.653810753e-14)
(-0.001776835431 0.01208753648 3.805289417e-14)
(-0.002761741089 0.02585842706 8.140710328e-14)
(-0.003652833551 0.03386695372 1.079275558e-13)
(-0.003673522449 0.03896018351 1.241506897e-13)
(-0.002837397317 0.03037450441 9.5617958e-14)
(-0.00221748254 0.04156420915 1.308397835e-13)
(-0.002754339177 0.05128624494 1.634525848e-13)
(-0.002175337482 0.05407574425 1.723482468e-13)
(-0.001767643211 0.04414489038 1.389721671e-13)
(0 0 0)
(0 0 0)
(0 0 0)
(0 0 0)
(0 0 0)
(0 0 0)
(0 0 0)
(0 0 0)
(0 0 0)
(0 0 0)
(0 0 0)
(0 0 0)
(0 0 0)
(0 0 0)
(0 0 0)
(0 0 0)
(0 0 0)
(0 0 0)
(0 0 0)
(-3.01222437e-05 0.0001111052944 3.747002708e-16)
(0 0 0)
(-0.001282077336 0.005708921226 1.891542478e-14)
(-0.001905492556 0.008363530065 2.807476474e-14)
(-0.002981728269 0.01397806763 4.690692279e-14)
(-0.00218943594 0.0104048746 3.445854713e-14)
(-0.005002545747 0.02979022472 9.862943795e-14)
(-0.006070614165 0.03571726254 1.197791866e-13)
(-0.006787408432 0.04362252431 1.462580057e-13)
(-0.005710513699 0.03714060759 1.229294444e-13)
(-0.006495577858 0.05835367738 1.931094173e-13)
(-0.007404312057 0.06575426902 2.204209038e-13)
(-0.007074121656 0.07194317711 2.411681965e-13)
(-0.006267581137 0.06447323878 2.133571098e-13)
(-0.004310324986 0.07825822702 2.590427872e-13)
(-0.00475829792 0.08545628243 2.865624404e-13)
(-0.003662688058 0.0882101299 2.958328027e-13)
(-0.003335370705 0.08117032494 2.687017275e-13)
(0 0 0)
(0 0 0)
(0 0 0)
(0 0 0)
(0 0 0)
(0 0 0)
(0 0 0)
(0 0 0)
(0 0 0)
(0 0 0)
(0 0 0)
(0 0 0)
(0 0 0)
(0 0 0)
(0 0 0)
(0 0 0)
(0 0 0)
(-0.0001392228042 0.0004685105825 1.637578961e-15)
(-0.0003166138204 0.001050698968 3.719247132e-15)
(-0.001124584644 0.003927289495 1.393329896e-14)
(-0.0007560501596 0.002677149891 9.353628982e-15)
(-0.004444103166 0.01868672484 6.5336625e-14)
(-0.005257487365 0.02180599824 7.72854003e-14)
(-0.006778092286 0.02999582698 1.062899768e-13)
(-0.005876366447 0.02636400055 9.214851104e-14)
(-0.009282752303 0.05218001667 1.822153539e-13)
(-0.01025137691 0.05677773641 2.010613898e-13)
(-0.01080784726 0.06534100441 2.31328845e-13)
(-0.009879627214 0.0606750543 2.118027975e-13)
(-0.009777151074 0.0832176661 2.903371987e-13)
(-0.010380187 0.0868181377 3.071431998e-13)
(-0.009588586834 0.09190173723 3.251010572e-13)
(-0.00906386481 0.08834902104 3.082534228e-13)
(-0.005727813444 0.09866649113 3.443634267e-13)
(-0.005917235918 0.1000110708 3.539113447e-13)
(-0.004457031142 0.1009460619 3.572697693e-13)
(-0.004344033194 0.1002435793 3.499422974e-13)
(0 0 0)
(0 0 0)
(0 0 0)
(0 0 0)
(0 0 0)
(0 0 0)
(0 0 0)
(0 0 0)
(0 0 0)
(0 0 0)
(0 0 0)
(0 0 0)
(0 0 0)
(0 0 0)
(-1.325129212e-05 3.719452039e-05 1.387778781e-16)
(-3.615912257e-07 1.030418049e-06 0)
(0 0 0)
(-0.0009939976932 0.00315960939 1.169897512e-14)
(-0.001254589579 0.003929587213 1.476596623e-14)
(-0.002602906892 0.008580293354 3.222422329e-14)
(-0.002220712996 0.007429038421 2.750577544e-14)
(-0.007213510961 0.02866089368 1.059985433e-13)
(-0.007851403012 0.030735835 1.153382945e-13)
(-0.009538097934 0.03983161192 1.494221413e-13)
(-0.009037543314 0.03831408194 1.416367024e-13)
(-0.01250022949 0.06625822987 2.447902991e-13)
(-0.01301367075 0.06792350568 2.546296507e-13)
(-0.01335989258 0.07603399706 2.850081282e-13)
(-0.01289656755 0.07455233487 2.75404699e-13)
(-0.0116461928 0.09232665421 3.41074391e-13)
(-0.01188356974 0.09261511208 3.472083732e-13)
(-0.01069498355 0.09500754887 3.562150575e-13)
(-0.01055274598 0.09547748541 3.526900993e-13)
(-0.00616410275 0.09724768011 0)
(-0.006248245792 0.09578569974 0)
(-0.005488084026 0.09578628917 0)
(-0.004686535139 0.09581925658 0)
(-0.004638154343 0.09654285693 0)
(-0.004619593374 0.09724938223 0)
(0 0 0)
(0 0 0)
(0 0 0)
(0 0 0)
(0 0 0)
(0 0 0)
(0 0 0)
(0 0 0)
(0 0 0)
(0 0 0)
(0 0 0)
(0 0 0)
(0 0 0)
(0 0 0)
(-0.0001194012708 0.0003148024695 1.276756478e-15)
(-6.804334383e-05 0.0001822885376 7.21644966e-16)
(-5.566538599e-05 0.0001514842089 5.967448757e-16)
(-0.001802640029 0.005391797791 2.120525977e-14)
(-0.001869498485 0.005504166508 2.198241589e-14)
(-0.003461597344 0.01072490872 4.282685317e-14)
(-0.003370259568 0.01060857688 4.170275236e-14)
(-0.009068402904 0.03387880597 1.330463517e-13)
(-0.009212239907 0.03386871021 1.351002643e-13)
(-0.01096945536 0.04300384154 1.714739462e-13)
(-0.01081660836 0.0430925358 1.691702334e-13)
(-0.01404822032 0.0698365213 2.739891647e-13)
(-0.01418912889 0.06938311252 2.764871665e-13)
(-0.01437881345 0.07659738375 3.052419428e-13)
(-0.01425331811 0.07720913295 3.028965967e-13)
(-0.0122420525 0.09055446123 3.553407568e-13)
(-0.01229609577 0.08936084741 3.562150575e-13)
(-0.01089703334 0.0900848057 0)
(-0.01087147794 0.09151390412 3.59184904e-13)
(-0.006370117032 0.0914578077 0)
(-0.006386251137 0.09073283818 0)
(-0.005636460462 0.09072485491 0)
(-0.005620410913 0.09144868341 0)
(0 0 0)
(0 0 0)
(0 0 0)
(0 0 0)
(0 0 0)
(0 0 0)
(0 0 0)
(0 0 0)
(0 0 0)
(0 0 0)
(0 0 0)
(0 0 0)
(0 0 0)
(0 0 0)
(-0.0001960038146 0.0004836071477 2.095545959e-15)
(-0.0001770307849 0.0004442739167 1.887379142e-15)
(-0.0001553063813 0.000396321349 1.665334537e-15)
(-0.002221229775 0.006228646024 2.611799665e-14)
(-0.002296809406 0.006333962662 2.700617507e-14)
(-0.0040053859 0.01162267309 4.952982469e-14)
(-0.003910889829 0.01153993987 4.83779683e-14)
(-0.009784538727 0.03424099601 1.433575481e-13)
(-0.009901716108 0.03406834723 1.450228826e-13)
(-0.0116423141 0.04269390739 1.81687998e-13)
(-0.01152797589 0.04300269111 1.799810301e-13)
(-0.01459390768 0.06780586248 2.836203494e-13)
(-0.01467851095 0.06701363071 2.85022006e-13)
(-0.01478119871 0.07345842947 3.124167591e-13)
(-0.01471059161 0.07441437435 3.11251025e-13)
(-0.01241035981 0.08545745761 3.576028362e-13)
(-0.01243919812 0.08409654433 3.57811003e-13)
(-0.0109867967 0.08439510516 0)
(-0.01096530198 0.0858140048 0)
(-0.006471308886 0.08574124294 0)
(-0.006482491863 0.08503130687 0)
(-0.005734642286 0.08501930296 0)
(-0.005723360653 0.0857292374 0)
(0 0 0)
(0 0 0)
(0 0 0)
(0 0 0)
(0 0 0)
(0 0 0)
(0 0 0)
(0 0 0)
(0 0 0)
(0 0 0)
(0 0 0)
(0 0 0)
(0 0 0)
(0 0 0)
(-0.0002891314196 0.0006645930137 3.094746681e-15)
(-0.0002606715133 0.000610163135 2.789435349e-15)
(-0.0002353320753 0.0005607830753 2.525757381e-15)
(-0.002484938164 0.006507145855 2.921274334e-14)
(-0.002561143034 0.006587995127 3.011479954e-14)
(-0.004332565636 0.01172479958 5.356826094e-14)
(-0.004238864679 0.01167841025 5.241640455e-14)
(-0.0101896289 0.03326367803 1.491029522e-13)
(-0.01030332694 0.03303043149 1.507127756e-13)
(-0.01203438688 0.04110064621 1.874750355e-13)
(-0.01192384449 0.041473006 1.858374565e-13)
(-0.01489058185 0.0643925292 2.883526751e-13)
(-0.01497148533 0.06354368824 2.896571871e-13)
(-0.01502736202 0.06937980108 3.162609064e-13)
(-0.01496020567 0.07038488451 3.151923167e-13)
(-0.01251783412 0.07996889591 3.582828478e-13)
(-0.01254393919 0.07859201427 3.584355035e-13)
(-0.01107040877 0.07873140829 0)
(-0.01104973208 0.08014657144 0)
(-0.006558663612 0.08007398926 0)
(-0.006569373647 0.07936680852 0)
(-0.00582254081 0.07935498581 0)
(-0.005817119481 0.07970860798 0)
(-0.00581170302 0.08006193418 0)
(0 0 0)
(0 0 0)
(0 0 0)
(0 0 0)
(0 0 0)
(0 0 0)
(0 0 0)
(0 0 0)
(0 0 0)
(0 0 0)
(0 0 0)
(0 0 0)
(0 0 0)
(0 0 0)
(-0.000414057615 0.0008819460607 4.427014311e-15)
(-0.0003802164589 0.0008258878981 4.066191828e-15)
(-0.0003474850368 0.0007694355488 3.719247132e-15)
(-0.002799416969 0.006811295248 3.290423489e-14)
(-0.002883365675 0.00688172343 3.388955783e-14)
(-0.004724540024 0.01186100629 5.83977311e-14)
(-0.00462307195 0.01183251504 5.714873019e-14)
(-0.01065127093 0.03227111591 1.556393903e-13)
(-0.01077125287 0.03200292063 1.573324804e-13)
(-0.01248758066 0.03950841299 1.941641292e-13)
(-0.01237166524 0.039918927 1.924571613e-13)
(-0.01521597945 0.06093509218 2.935846011e-13)
(-0.01529900551 0.06004880655 2.949029909e-13)
(-0.01529728791 0.06526889005 3.205491428e-13)
(-0.01522920249 0.06630812182 3.194805531e-13)
(-0.01261882772 0.07443387344 3.588240816e-13)
(-0.01264259204 0.07303992753 3.589351039e-13)
(-0.01115165689 0.07306744227 0)
(-0.0111315915 0.07448343783 0)
(-0.006643282151 0.0744110984 0)
(-0.006653575495 0.07370325293 0)
(-0.005908025726 0.07369141842 0)
(-0.005902796841 0.0740453398 0)
(-0.005897536152 0.07439919487 0)
(0 0 0)
(0 0 0)
(0 0 0)
(0 0 0)
(0 0 0)
(0 0 0)
(0 0 0)
(0 0 0)
(0 0 0)
(0 0 0)
(0 0 0)
(0 0 0)
(0 0 0)
(0 0 0)
(-0.0005233156624 0.001026409977 5.606626274e-15)
(-0.0005411944736 0.001084297656 5.800915304e-15)
(-0.0004940329506 0.001010644299 5.287437155e-15)
(-0.003157791245 0.007096934305 3.71092046e-14)
(-0.003265097813 0.007186418946 3.837208329e-14)
(-0.005180597205 0.01199156842 6.399047958e-14)
(-0.005053235175 0.01194424391 6.243616735e-14)
(-0.01115400631 0.03117865745 1.627309398e-13)
(-0.01129969999 0.03092347591 1.647848524e-13)
(-0.0129953598 0.03785250819 2.016165013e-13)
(-0.01285590914 0.03825297858 1.995625887e-13)
(-0.01555866254 0.05735994295 2.990663273e-13)
(-0.01565456346 0.05647217498 3.006067617e-13)
(-0.01558515754 0.06107723317 3.251288128e-13)
(-0.01550831469 0.06212174732 3.238936896e-13)
(-0.01271022912 0.06883662343 3.591432707e-13)
(-0.01273163419 0.06742754447 3.59184904e-13)
(-0.01123080565 0.06740511934 0)
(-0.01121104164 0.06882079091 0)
(-0.006723479998 0.06874899008 0)
(-0.006733147439 0.0680412001 0)
(-0.005989009034 0.06802955328 0)
(-0.005984107379 0.06838357873 0)
(-0.005979177166 0.06873734055 0)
(-0.005711896204 0.08644028724 0)
(-0.006459943633 0.08645226151 0)
(-0.005806286558 0.08041526038 0)
(-0.005800863607 0.08076898121 0)
(-0.006547953035 0.08078120287 0)
(-0.005892277086 0.07475295129 0)
(-0.005887015316 0.07510687213 0)
(-0.006632924119 0.07511887701 0)
(-0.005974248035 0.0690910366 0)
(-0.005969284936 0.06944479789 0)
(-0.006713750031 0.06945658166 0)
(-0.005602341914 0.09217329644 0)
(-0.00635224071 0.0921827058 0)
(-0.0007790048653 0.09721437312 0)
(-0.0007927335996 0.09651145249 0)
(-0.01102895457 0.08156186451 0)
(-0.01249224288 0.08134837497 3.581301922e-13)
(-0.007295538448 0.08079326823 0)
(-0.007306150909 0.0800860201 0)
(-0.007219553086 0.08575325334 0)
(-0.007230669211 0.08504338196 0)
(-0.01111136006 0.07589952935 0)
(-0.01259459323 0.07582475943 3.587130593e-13)
(-0.00737955694 0.07513086091 0)
(-0.007389816857 0.07442304779 0)
(-0.007316729944 0.07937880432 0)
(-0.006601371778 0.07724329051 0)
(-0.005855000417 0.07723140959 0)
(-0.005849571516 0.07758549216 0)
(-0.005844177664 0.07793944372 0)
(-0.006590745795 0.07795136076 0)
(-0.003617010471 0.07719581823 0)
(-0.003614772587 0.0773728838 0)
(-0.003613114025 0.077549926 0)
(-0.003985945085 0.07755582773 0)
(-0.003991078019 0.0772017403 0)
(-0.003573283315 0.0800260726 0)
(-0.003946435569 0.0800320454 0)
(-0.003952145834 0.07967885561 0)
(-0.003579254499 0.07967301867 0)
(-0.00357618453 0.07984967582 0)
(-0.01119131376 0.07023626571 0)
(-0.01268730953 0.07023725631 3.59060004e-13)
(-0.007459497112 0.06946841941 0)
(-0.007469128964 0.06876079332 0)
(-0.00739997866 0.07371520015 0)
(-0.006684066852 0.07157934829 0)
(-0.005939046493 0.07156732513 0)
(-0.005933948608 0.07192128156 0)
(-0.005928816216 0.0722753361 0)
(-0.006674003165 0.07228723043 0)
(-0.003708618004 0.0715319897 0)
(-0.003704862441 0.07170893163 0)
(-0.003892424316 0.07171198358 0)
(-0.003895631235 0.07153499974 0)
(-0.003667098381 0.07436402377 0)
(-0.004037590171 0.07436975545 0)
(-0.004043212598 0.07401590633 0)
(-0.003673017317 0.07401014663 0)
(-0.003670336563 0.07418713913 0)
(-0.007478731175 0.06805296938 0)
(-0.006761652697 0.06591805226 0)
(-0.006389550609 0.06591222831 0)
(-0.006384811758 0.06626635512 0)
(-0.006756947272 0.06627214672 0)
(-0.003774159087 0.06587062715 0)
(-0.003775159367 0.06604800913 0)
(-0.003970750838 0.06605165367 0)
(-0.003971461178 0.06587446429 0)
(-0.003741750143 0.06870192292 0)
(-0.003934473432 0.06870535581 0)
(-0.003938266877 0.06852871056 0)
(-0.003746805303 0.06852536421 0)
(-0.003432759276 0.08854207307 0)
(-0.003438953247 0.08818547352 0)
(-0.00306475312 0.08817981243 0)
(-0.003061651683 0.08835818285 0)
(-0.003058774321 0.08853612933 0)
(-0.0034806373 0.08569304188 0)
(-0.00310500545 0.08568683094 0)
(-0.003102239281 0.08586421676 0)
(-0.003100451558 0.08604211208 0)
(-0.003475156583 0.08604827489 0)
(-0.003367929387 0.09143419447 0)
(-0.003378296165 0.09106928409 0)
(-0.003001597493 0.09107093704 0)
(-0.002991236242 0.09143511135 0)
(-0.003052253315 0.08889401295 0)
(-0.003426255967 0.08889968067 0)
(-0.003570218754 0.08020240089 0)
(-0.003567378441 0.08037909472 0)
(-0.003940725303 0.08038523519 0)
(-0.003528729244 0.08285700414 0)
(-0.003901354792 0.08286300117 0)
(-0.003907075334 0.08250918656 0)
(-0.003534547901 0.08250322403 0)
(-0.00651545297 0.08290523894 0)
(-0.006526342036 0.08219717301 0)
(-0.00577898682 0.08218511145 0)
(-0.00576799964 0.08289314287 0)
(-0.003163044326 0.08249740993 0)
(-0.003160190318 0.08267413642 0)
(-0.003156818388 0.08285095307 0)
(-0.003385751036 0.08002302113 0)
(-0.003382584532 0.08019934775 0)
(-0.003486439298 0.08533827468 0)
(-0.003110863937 0.08533222913 0)
(-0.003107348524 0.08550956973 0)
(-0.003153726568 0.08302793881 0)
(-0.003150351436 0.08320515014 0)
(-0.003522740211 0.08321114328 0)
(-0.003663960478 0.07454081138 0)
(-0.003660659231 0.07471753052 0)
(-0.004031773678 0.07472340401 0)
(-0.003996511788 0.07684736177 0)
(-0.00362198601 0.07684130059 0)
(-0.00361886959 0.07701858196 0)
(-0.006611969203 0.07653495663 0)
(-0.005865732087 0.07652291345 0)
(-0.005860367334 0.07687709575 0)
(-0.003428659323 0.07701535487 0)
(-0.003427128517 0.07719262943 0)
(-0.003482924277 0.07436119201 0)
(-0.003479247596 0.07453793786 0)
(-0.003388921371 0.07984666168 0)
(-0.003426303619 0.07736978403 0)
(-0.003737073164 0.06887848785 0)
(-0.003930844953 0.06888197088 0)
(-0.003898771301 0.07135808059 0)
(-0.003712369737 0.07135508061 0)
(-0.00669402323 0.07087199069 0)
(-0.005949163511 0.07086020043 0)
(-0.005944140592 0.07121359889 0)
(-0.00352474155 0.07135206046 0)
(-0.00351987334 0.07152885251 0)
(-0.003544101674 0.06869814587 0)
(-0.003537604472 0.06887458218 0)
(-0.003486438695 0.0741843119 0)
(-0.003515006794 0.07170574326 0)
(-0.00397417644 0.06569737368 0)
(-0.003777340238 0.06569360999 0)
(-0.006766356499 0.06556405646 0)
(-0.006394254411 0.0655582325 0)
(-0.003576939767 0.06568955742 0)
(-0.003572290265 0.06586645175 0)
(-0.003551203425 0.06852175239 0)
(-0.003575015401 0.06604396078 0)
(-0.01094334948 0.08723473898 0)
(-0.01237779191 0.08679419087 3.572697693e-13)
(-0.007208287572 0.08646420777 0)
(-0.007119884763 0.09146718597 0)
(-0.00713567315 0.0907432364 0)
(-0.006425111635 0.08858608144 0)
(-0.005676590181 0.08857492831 0)
(-0.005663964471 0.08929058397 0)
(-0.00641255083 0.0893017908 0)
(-0.003800099311 0.08890543458 0)
(-0.003806605097 0.08854787636 0)
(-0.003742755254 0.09143800997 0)
(-0.003753379338 0.09107205515 0)
(-0.005756938576 0.08360166649 0)
(-0.00650452453 0.08361369896 0)
(-0.003895595956 0.0832171441 0)
(-0.003854808999 0.08569903145 0)
(-0.003860610996 0.08534426425 0)
(-0.003849065199 0.08605426014 0)
(-0.003812766452 0.08819125983 0)
(-0.006436777507 0.08787478492 0)
(-0.005688461045 0.08786316806 0)
(-0.00196772294 0.08709313558 0)
(-0.001983107612 0.08691533231 0)
(-0.001817457799 0.08691280522 0)
(-0.001800435526 0.08709097628 0)
(-0.001856917228 0.09144443259 0)
(-0.001865955568 0.09125589255 0)
(-0.001676613317 0.09125768919 0)
(-0.001666246352 0.09144881096 0)
(-0.001899231417 0.08996028796 0)
(-0.001711185675 0.08995965564 0)
(-0.001706492936 0.09014157877 0)
(-0.001897270117 0.09014193695 0)
(-0.00321236578 0.09438861595 0)
(-0.003281243913 0.09363355718 0)
(-0.002897937361 0.09363777576 0)
(-0.002502652242 0.09365210307 0)
(-0.002467632035 0.09402636637 0)
(-0.002433522576 0.09439485527 0)
(-0.002977561852 0.09180432778 0)
(-0.003358167362 0.09179593525 0)
(-0.003783519553 0.06728750141 0)
(-0.003965677204 0.06729013554 0)
(-0.003969311091 0.06711319162 0)
(-0.003788303344 0.06711064219 0)
(-0.005256746794 0.06730982387 0)
(-0.005261676466 0.06695609493 0)
(-0.004891676874 0.06695043713 0)
(-0.004886616201 0.06730413102 0)
(-0.005276397548 0.06589503857 0)
(-0.004906529498 0.06588938294 0)
(-0.004901593876 0.06624347362 0)
(-0.005271528238 0.06624909744 0)
(-0.001923059269 0.08851913101 0)
(-0.001899473263 0.08833618356 0)
(-0.00166653896 0.08828882029 0)
(-0.001752745185 0.08851859624 0)
(-0.001782449995 0.08726791443 0)
(-0.001951278107 0.08727019775 0)
(-0.003457756865 0.08711619498 0)
(-0.003084302109 0.08711041456 0)
(-0.00308095188 0.08728871182 0)
(-0.003077692517 0.08746648425 0)
(-0.00345150356 0.0874724021 0)
(-0.002139287763 0.08727322417 0)
(-0.002152293832 0.0870958423 0)
(-0.002109451628 0.0885218907 0)
(-0.002098083454 0.08834068695 0)
(-0.001916212596 0.08566201567 0)
(-0.001904632622 0.08582928958 0)
(-0.002103589193 0.0858447327 0)
(-0.002099033925 0.08566689752 0)
(-0.002164300598 0.086917819 0)
(-0.003463883496 0.08675968972 0)
(-0.003090695025 0.08675351895 0)
(-0.00308760896 0.08693175476 0)
(-0.00340475923 0.08997950356 0)
(-0.003030518786 0.08997469377 0)
(-0.003021671926 0.09033959165 0)
(-0.003395893514 0.09034414785 0)
(-0.00208726016 0.09014415385 0)
(-0.002089501159 0.08996229894 0)
(-0.002049406443 0.09143609735 0)
(-0.00205549765 0.09125334591 0)
(-0.001933453183 0.08870017072 0)
(-0.002115461585 0.08870227937 0)
(-0.002089698282 0.08978091369 0)
(-0.001896927851 0.08977894711 0)
(-0.003412414821 0.08961783604 0)
(-0.003038135629 0.08961278218 0)
(-0.001707736412 0.08977717425 0)
(-0.001760867222 0.08869936833 0)
(-0.003550246996 0.08144070352 0)
(-0.003362235133 0.08143761127 0)
(-0.003360134783 0.08161451463 0)
(-0.003547568406 0.08161756448 0)
(-0.002086947429 0.08283496861 0)
(-0.002252150001 0.08283748835 0)
(-0.002261118512 0.082660994 0)
(-0.002096553915 0.08265848476 0)
(-0.003552729357 0.08126377356 0)
(-0.003364536625 0.08126067833 0)
(-0.003504668506 0.08427392081 0)
(-0.003130746151 0.08426777088 0)
(-0.003127230781 0.08444530884 0)
(-0.003124091385 0.08462278721 0)
(-0.003498568917 0.08462878181 0)
(-0.002007573132 0.08424880452 0)
(-0.001997353487 0.08442596907 0)
(-0.002167759099 0.08442873886 0)
(-0.002177504655 0.0842515994 0)
(-0.002105460856 0.08548993374 0)
(-0.001928542786 0.08548672791 0)
(-0.002077422075 0.08301151959 0)
(-0.002243176039 0.08301411419 0)
(-0.002187020598 0.08407462064 0)
(-0.002017677181 0.08407186833 0)
(-0.003510727636 0.08391951967 0)
(-0.003137304598 0.08391341084 0)
(-0.003133922305 0.08409045759 0)
(-0.003641048363 0.07577969064 0)
(-0.003452792608 0.07577662727 0)
(-0.00344896578 0.07595350224 0)
(-0.003637493942 0.07595660298 0)
(-0.003644137436 0.07560267197 0)
(-0.003456575561 0.07559962001 0)
(-0.003597302947 0.07861165521 0)
(-0.003411567872 0.07860873198 0)
(-0.003408332979 0.07878561668 0)
(-0.003594294421 0.07878857652 0)
(-0.003600344898 0.07843470155 0)
(-0.003414780827 0.07843178113 0)
(-0.003736013377 0.07011792388 0)
(-0.003554220753 0.07011529576 0)
(-0.003552573723 0.07029243683 0)
(-0.003733988166 0.07029505874 0)
(-0.003736270441 0.06994069416 0)
(-0.003552240491 0.06993789766 0)
(-0.00368087277 0.07294772738 0)
(-0.003485680877 0.07294418809 0)
(-0.003485555895 0.07312138709 0)
(-0.003679239434 0.07312483578 0)
(-0.003683346887 0.07277069859 0)
(-0.003487845872 0.07276715422 0)
(-0.005281298662 0.06554104601 0)
(-0.004911562153 0.06553539254 0)
(-0.003602826964 0.06728499006 0)
(-0.003595633762 0.06746174387 0)
(-0.003778418982 0.06746442121 0)
(-0.003609555402 0.0671082944 0)
(-0.001748650787 0.09295073949 0)
(-0.001786254263 0.09257161086 0)
(-0.001391034861 0.09258494256 0)
(-0.001340604613 0.09296675163 0)
(-0.001653995562 0.09164047114 0)
(-0.001845292929 0.09163600143 0)
(-0.003871125788 0.07295095517 0)
(-0.003873774197 0.07277392925 0)
(-0.005174053991 0.072971628 0)
(-0.005179383695 0.07261757669 0)
(-0.004807643887 0.07261172581 0)
(-0.004802248952 0.07296574314 0)
(-0.00519520676 0.07155551874 0)
(-0.004823762919 0.07154967272 0)
(-0.004818401411 0.07190365771 0)
(-0.005189943908 0.07190950535 0)
(-0.00515270986 0.07438737226 0)
(-0.005158069204 0.07403351882 0)
(-0.004786066854 0.07402763071 0)
(-0.004780641739 0.07438148308 0)
(-0.004796886904 0.07331976101 0)
(-0.005168757713 0.07332564695 0)
(-0.003868707575 0.07312798488 0)
(-0.005236418862 0.06872578221 0)
(-0.005241513501 0.06837202309 0)
(-0.0048708244 0.06836628817 0)
(-0.004865565875 0.0687200117 0)
(-0.004881384612 0.06765821683 0)
(-0.005251712516 0.06766391292 0)
(-0.003961844924 0.06746714199 0)
(-0.004014041102 0.07578556214 0)
(-0.004019964365 0.07543142192 0)
(-0.00364761343 0.07542552808 0)
(-0.005131066516 0.07580330898 0)
(-0.005136529384 0.07544916118 0)
(-0.004764231607 0.07544323533 0)
(-0.004758702968 0.07579738204 0)
(-0.004775186443 0.07473517048 0)
(-0.005147319793 0.07474109363 0)
(-0.002940680374 0.07435335917 0)
(-0.002932206224 0.07452979587 0)
(-0.003113370739 0.07453241366 0)
(-0.003119711714 0.0743558761 0)
(-0.002906790937 0.07505927053 0)
(-0.00309404369 0.0750623174 0)
(-0.003100490396 0.07488555131 0)
(-0.002915244771 0.07488266903 0)
(-0.003654149982 0.07507129926 0)
(-0.003657389245 0.07489434885 0)
(-0.003471739672 0.07489142703 0)
(-0.003467974785 0.07506833591 0)
(-0.003919714474 0.07012071497 0)
(-0.003921345062 0.06994357363 0)
(-0.005215973451 0.07014088338 0)
(-0.005220972139 0.06978695821 0)
(-0.004850055004 0.06978108796 0)
(-0.004844924234 0.07013504385 0)
(-0.004860341857 0.06907363711 0)
(-0.005231326386 0.06907940979 0)
(-0.0052004324 0.07120179467 0)
(-0.004829087215 0.07119595027 0)
(-0.004839661382 0.07048903046 0)
(-0.005210809796 0.07049483873 0)
(-0.003917328606 0.07029777811 0)
(-0.003723630692 0.07082560341 0)
(-0.00353945001 0.07082277154 0)
(-0.003534517565 0.07099906912 0)
(-0.003719868422 0.07100195313 0)
(-0.002990625715 0.07081463311 0)
(-0.00297943128 0.07099046586 0)
(-0.00316381585 0.07099330109 0)
(-0.003172934097 0.07081730262 0)
(-0.002947638276 0.07151911196 0)
(-0.00313741171 0.07152229897 0)
(-0.003146154394 0.07134573512 0)
(-0.002958185282 0.07134264357 0)
(-0.002975112174 0.06868747187 0)
(-0.002962344242 0.06886357479 0)
(-0.003134776714 0.06886650949 0)
(-0.003146361316 0.06869035421 0)
(-0.002924899745 0.06938143732 0)
(-0.003121662283 0.06939667987 0)
(-0.003117492444 0.06921941024 0)
(-0.002936950109 0.06921476323 0)
(-0.003730529845 0.06940912815 0)
(-0.003730799024 0.06923216178 0)
(-0.003529904192 0.06922816687 0)
(-0.003531695298 0.0694052658 0)
(-0.003676852947 0.07365613655 0)
(-0.003491459339 0.07365325183 0)
(-0.003491332691 0.07383035212 0)
(-0.003675434448 0.0738331827 0)
(-0.002953966865 0.0736457274 0)
(-0.00295898244 0.07382317542 0)
(-0.003131744673 0.07382526029 0)
(-0.003127031102 0.07364785014 0)
(-0.003125611983 0.07417913392 0)
(-0.002948775218 0.07417678467 0)
(-0.00293709073 0.07169561323 0)
(-0.003128681098 0.07169892881 0)
(-0.00290540097 0.07222518206 0)
(-0.003102531473 0.07222885191 0)
(-0.003111219334 0.07205222137 0)
(-0.002915968247 0.07204868111 0)
(-0.003693630845 0.07223982376 0)
(-0.003697357352 0.07206284847 0)
(-0.003505293436 0.0720595251 0)
(-0.003500479507 0.07223641672 0)
(-0.003762616826 0.06799500792 0)
(-0.003573428751 0.06799183053 0)
(-0.003565979585 0.06816854724 0)
(-0.003757313448 0.06817185859 0)
(-0.003028387758 0.06798306355 0)
(-0.003015071226 0.06815932192 0)
(-0.003183226899 0.06816189023 0)
(-0.003195587009 0.06798558324 0)
(-0.003158525824 0.06851434005 0)
(-0.002988414557 0.06851167379 0)
(-0.00313442927 0.06657703454 0)
(-0.003280313737 0.06657591424 0)
(-0.003261394622 0.06639741519 0)
(-0.00314759382 0.06641501687 0)
(-0.003792831552 0.06658092268 0)
(-0.003787624701 0.06640350441 0)
(-0.003602851543 0.06640069568 0)
(-0.00361446125 0.06657861399 0)
(-0.002011074322 0.08638372859 0)
(-0.001862033363 0.08638456672 0)
(-0.001847178577 0.08655935244 0)
(-0.002007566611 0.0865612009 0)
(-0.001991566841 0.08620400278 0)
(-0.001875573087 0.08622133813 0)
(-0.001885777988 0.09069766979 0)
(-0.001697905542 0.09069650085 0)
(-0.00169108386 0.09088386586 0)
(-0.001879428318 0.09088453599 0)
(-0.001311808245 0.09088599945 0)
(-0.001324495995 0.09070117167 0)
(-0.001281571403 0.09146442944 0)
(-0.001295542513 0.09126817207 0)
(-0.001336415668 0.09051664375 0)
(-0.001200119285 0.09053759906 0)
(-0.00189104824 0.09051023321 0)
(-0.001702278675 0.09051001003 0)
(-0.001901005986 0.08779959253 0)
(-0.001726333982 0.08779642363 0)
(-0.001706042801 0.08797154756 0)
(-0.001887399155 0.08797670137 0)
(-0.00191753749 0.08762286073 0)
(-0.001745631724 0.0876199018 0)
(-0.002100688519 0.08780389645 0)
(-0.002112791367 0.08762663129 0)
(-0.002693005492 0.08781623699 0)
(-0.002697252408 0.08763802027 0)
(-0.002505247101 0.0876345334 0)
(-0.002499555936 0.08781256189 0)
(-0.00271090434 0.0871045693 0)
(-0.002524287939 0.08710163158 0)
(-0.002517948933 0.08727964941 0)
(-0.002706338436 0.08728278077 0)
(-0.002682765339 0.08853044836 0)
(-0.002684527154 0.08835212827 0)
(-0.002492411963 0.08834892248 0)
(-0.002492682309 0.08852808519 0)
(-0.002495163285 0.08799103936 0)
(-0.002689331948 0.08799479207 0)
(-0.002091889108 0.08798170934 0)
(-0.002177852381 0.08638505716 0)
(-0.002157986992 0.08620529257 0)
(-0.002722141664 0.0863925289 0)
(-0.002721031023 0.08621425696 0)
(-0.002530724848 0.08621106119 0)
(-0.002536129271 0.0863896669 0)
(-0.002717826359 0.08567990376 0)
(-0.002515186398 0.08567581435 0)
(-0.002516954615 0.08585350501 0)
(-0.002717439463 0.0858574274 0)
(-0.002715233924 0.08692592632 0)
(-0.002530152185 0.08692307963 0)
(-0.002537336274 0.0865674799 0)
(-0.002721419922 0.0865702115 0)
(-0.002180353984 0.08656295724 0)
(-0.001899151434 0.08923635108 0)
(-0.002096177494 0.08924037118 0)
(-0.002104996246 0.08906078232 0)
(-0.001913556707 0.08905769619 0)
(-0.002670458347 0.08924812568 0)
(-0.002674153752 0.08906804137 0)
(-0.00248602387 0.08906512481 0)
(-0.002481659974 0.08924525404 0)
(-0.002492151453 0.0887069617 0)
(-0.002680437216 0.08870940057 0)
(-0.001701192177 0.08923147026 0)
(-0.001687990203 0.08940976337 0)
(-0.001890670664 0.08941559025 0)
(-0.001723757668 0.089054466 0)
(-0.002126383535 0.08212921427 0)
(-0.002284858769 0.08213116285 0)
(-0.00228346815 0.08195331393 0)
(-0.002136058129 0.08195338942 0)
(-0.002802133228 0.08213776265 0)
(-0.002799504498 0.08195999205 0)
(-0.002619563858 0.08195736149 0)
(-0.002625117757 0.08213527888 0)
(-0.002776619494 0.08142722303 0)
(-0.002570896558 0.0814231816 0)
(-0.002585873136 0.08160099081 0)
(-0.002783820277 0.08160460831 0)
(-0.002789585532 0.08284527499 0)
(-0.002793946768 0.0826685075 0)
(-0.002615063953 0.08266596013 0)
(-0.002609365907 0.08284260695 0)
(-0.002624273172 0.08231263052 0)
(-0.002801058986 0.08231507761 0)
(-0.002116241106 0.08230608405 0)
(-0.002278460353 0.08230819288 0)
(-0.002783944918 0.08071923006 0)
(-0.00278957332 0.08054241763 0)
(-0.002585996713 0.08053847728 0)
(-0.002578658815 0.08071522871 0)
(-0.00280740967 0.08001294989 0)
(-0.002609049256 0.08000925981 0)
(-0.002601208624 0.08018537798 0)
(-0.002801350881 0.08018913026 0)
(-0.002773738218 0.08125000748 0)
(-0.002565076959 0.08124581904 0)
(-0.002571879968 0.08089198933 0)