/*--------------------------------*- C++ -*----------------------------------*\
| =========                 |                                                 |
| \\      /  F ield         | OpenFOAM: The Open Source CFD Toolbox           |
|  \\    /   O peration     | Version:  v2012                                 |
|   \\  /    A nd           | Website:  www.openfoam.com                      |
|    \\/     M anipulation  |                                                 |
\*---------------------------------------------------------------------------*/
FoamFile
{
    version     2.0;
    format      ascii;
    class       surfaceScalarField;
    location    "2.19";
    object      phi;
}
// * * * * * * * * * * * * * * * * * * * * * * * * * * * * * * * * * * * * * //

dimensions      [0 3 -1 0 0 0 0];
oriented        oriented;


internalField   nonuniform List<scalar> 
5975
(
-0.05797287284
0.006526380349
0.0574833621
-0.0127110634
0.006674193798
0.01631217577
-0.1234554267
0.2434269231
-0.02881656301
0.01593930258
-0.1234064117
-0.2228051093
0.01455776998
0.2168542914
-0.008616227896
-0.1953495975
0.004320991805
0.1948271362
-0.003816722201
-0.1979866113
0.005047483763
0.1988635676
-0.00594093055
0.008794266759
-0.2273050768
0.2280497385
-0.009542750655
-0.4689622924
0.01627773034
0.4665386084
-0.01385404631
-0.4649005683
0.01196760456
0.4631848723
-0.01025190848
-0.01368712902
0.9151690763
0.009278072229
0.008810338348
-0.00877627902
0.9084670664
-0.00430502931
0.9062076398
0.9050176763
-0.1115784974
0.008916811726
0.111495018
-0.01750357297
0.008670240658
0.02837730655
-0.2362664065
0.2329388214
-0.02504994895
-0.2074364773
0.008804239453
0.2055425372
-0.006917924833
-0.1953929682
0.005059678076
0.1916908929
-0.001370577032
-0.2019862895
0.001802574556
0.2063643651
-0.00619213248
0.01030515682
-0.2322588328
0.2324971846
-0.01054413512
-0.464377675
0.01705814373
0.4624440801
-0.01512454882
-0.4614601025
0.01328465128
0.4595078
-0.01133234884
-0.0132473186
0.9099339356
0.009174974501
0.009307484853
-0.009546789279
0.9047665371
-0.004662911658
0.9013237622
0.9003547647
-0.2255748045
0.02032101405
0.2261663549
-0.02091256442
-0.2212348921
0.01376670638
0.2175937379
-0.01012658598
-0.1983502913
0.003109268607
0.1973825015
-0.002146914657
-0.1907360269
0.0027530571
0.1918148019
-0.00383977168
-0.2105417088
0.008366681007
0.2096369335
-0.007467479784
0.01251132732
-0.2324008172
0.22998998
-0.01010049014
-0.4607430343
0.01845800779
0.4574135053
-0.01512847876
-0.4575592124
0.0134715038
0.4553856078
-0.01129789923
-0.01359537217
0.9048658409
0.009399146218
0.00926432063
-0.009590609509
0.9007617745
-0.004867052919
0.8966002056
0.8954877118
-0.2225228884
-0.003208488231
0.2216517361
0.004082108489
-0.2102816597
-0.008096849722
0.2091818631
0.009196506776
-0.1970125011
-0.009822745255
0.1978740339
0.00895720972
-0.1973210953
-0.003428029492
0.1998887278
0.0008548279797
-0.2163131714
0.007618795097
0.2190183717
-0.01032626544
0.01163731401
-0.2279322972
0.2273086849
-0.01101370172
-0.4565295285
0.01841311227
0.4537309982
-0.01561458198
-0.4524289566
0.01211764273
0.4507705456
-0.01045923171
-0.01265682034
0.8984343981
0.009781169059
0.009307094053
-0.007109184974
0.8952141391
-0.004891885078
0.8943829057
0.8905958267
-0.2210424468
-0.02202572795
0.2212425529
0.02182994452
-0.2095632877
-0.01978165301
0.2107182262
0.01862724512
-0.2033176384
-0.01302708208
0.2059257865
0.01041626422
-0.2092903479
-0.0008677790827
0.212791185
-0.002635910838
-0.2261771658
0.01233141608
0.225874842
-0.01202913635
0.01055010567
-0.2256642935
0.2251727989
-0.01005861114
-0.4499763276
0.01710930099
0.4482238079
-0.01535678124
-0.4491530962
0.01368230593
0.4475325528
-0.0120617625
-0.01166607322
0.8912269926
0.01029545364
0.008578025118
-0.006616817474
0.8901648834
-0.004480882028
0.8922469703
0.8861149447
-0.2224576704
-0.01917483234
0.2230455254
0.01858987592
-0.2162021296
-0.01383647784
0.2184254568
0.01161334136
-0.2150905582
-0.003295451724
0.2182984306
8.638791625e-05
-0.2233498284
0.01002252359
0.2251982432
-0.01187109795
-0.2246167012
0.01090007416
0.2242573209
-0.01054069384
0.009418770788
-0.2238872862
0.2235000132
-0.009031497794
-0.4466210144
0.01559366257
0.4451587051
-0.01413135322
-0.4460487858
0.01269587826
0.4446279878
-0.01127508031
-0.01431909549
0.8860626598
0.00959432478
0.009889103533
-0.009406009945
0.8852517978
-0.001838450763
0.8846794111
0.8842764939
-0.2253333031
-0.0003221435861
0.226258653
-0.0006024158261
-0.2251611992
0.005192620076
0.227205658
-0.007237038819
-0.2259897061
0.01106512748
0.225864937
-0.01094035834
-0.224458998
0.01042700186
0.2242467771
-0.01021478097
-0.2233220556
0.009480010063
0.2230508725
-0.009208827063
0.008341343345
-0.2224898013
0.2221799566
-0.008031498617
-0.4438244765
0.01403446412
0.4426071353
-0.01281712297
-0.4433376655
0.01159595388
0.4421051687
-0.01036345705
-0.01329634855
0.8814106548
0.008809864713
0.009138488836
-0.008781516967
0.8807369662
-0.004361408448
0.8802593026
0.8799150855
-0.227794638
0.009456761858
0.2279630693
-0.009625193162
-0.2278826157
0.009661804163
0.2278635416
-0.00964273009
-0.2255373062
0.009465830018
0.2254405483
-0.009369072095
-0.2236932601
0.008977734085
0.2235318079
-0.008816281808
-0.2223352952
0.008252626737
0.2221247481
-0.008042079636
0.007357835684
-0.2213767256
0.2211277933
-0.007108903363
-0.4414933797
0.01253939363
0.4404735973
-0.01151961123
-0.4409904666
0.0104809363
0.4399248555
-0.009415325222
-0.012191013
0.8772590808
0.008004444531
0.008338142437
-0.008090105344
0.8766360586
-0.004029028664
0.8761982259
0.8758860568
-0.2283592401
0.008261729417
0.2284598801
-0.008362369451
-0.2277962349
0.008351367142
0.2277712629
-0.008326395141
-0.2251783471
0.008168650008
0.225098735
-0.00808903783
-0.2231018362
0.007775664281
0.2229738637
-0.007647691769
-0.2215615564
0.007200481001
0.2213935523
-0.007032476823
0.0064809805
-0.2204796909
0.2202764226
-0.006277712212
-0.4395382865
0.01115411237
0.4386794789
-0.0102953048
-0.4389627982
0.009408946277
0.4380411396
-0.008487287692
-0.01107629125
0.8735733988
0.007219103819
0.007542869473
-0.007379828746
0.8729395961
-0.003683888914
0.8725022861
0.8722021679
-0.2286909723
0.007250844103
0.2287487683
-0.007308640076
-0.2276908278
0.007269227375
0.2276625531
-0.007240952678
-0.224878528
0.007096662518
0.224810489
-0.007028623495
-0.2226271257
0.006768261388
0.2225222715
-0.006663407159
-0.2209385363
0.006298329029
0.2208011981
-0.006160990899
0.005707540337
-0.2197442044
0.2195755703
-0.005538906166
-0.4378890953
0.009896690183
0.4371605689
-0.009168163731
-0.4372093684
0.008408027512
0.4364104099
-0.007609069008
-0.009997940308
0.8703105861
0.006479373612
0.006781379381
-0.006683564298
0.8696252201
-0.003342968132
0.8691616899
0.8688591998
-0.2288789029
0.006393338418
0.2289104453
-0.006424880834
-0.2275744984
0.006367020214
0.2275443019
-0.006336823748
-0.2246196329
0.006202838142
0.2245599394
-0.00614314456
-0.2222341872
0.00592073041
0.2221459495
-0.005832492682
-0.2204251844
0.005527234862
0.2203105301
-0.005412580613
0.00503297383
-0.2191314332
0.218989437
-0.00489097762
-0.4364871875
0.008776062744
0.4358638855
-0.008152760815
-0.4356887943
0.007496850572
0.4349935298
-0.006801586085
-0.008987625593
0.8674238843
0.005799217428
0.006075109899
-0.00602451922
0.8666621137
-0.00301839306
0.8661555638
0.8658408067
-0.2289779793
0.005663007894
0.2289930017
-0.005678030256
-0.2274519131
0.005607957732
0.2274206726
-0.005576717219
-0.2243908485
0.0054510917
0.2243374883
-0.005397731553
-0.2219008918
0.005203724432
0.2218250603
-0.005127892886
-0.2199938124
0.004867602915
0.21989639
-0.004770180535
0.004447435715
-0.218613491
0.2184923653
-0.004326310024
-0.43528532
0.007786645373
0.4347475698
-0.007248895191
-0.4343647606
0.006679336626
0.4337570587
-0.006071634679
-0.008061158756
0.8648677593
0.005184815003
0.005432468818
-0.005415264345
0.8640162193
-0.002716941356
0.8634572408
0.8631238654
-0.2290206764
0.005036607585
0.2290250353
-0.005040966501
-0.2273261873
0.004963185212
0.2272945341
-0.004931532004
-0.22418531
0.004813073199
0.2241369759
-0.004764739187
-0.221612725
0.004592858974
0.2215464907
-0.004526624691
-0.2196253312
0.00430118327
0.2195413452
-0.004217197291
0.003939233714
-0.2181701829
0.2180657184
-0.003834769215
-0.4342463829
0.006919865182
0.433778709
-0.006452191306
-0.4332065235
0.005954439834
0.4326727632
-0.005420679504
-0.007226239946
0.862599608
0.004637898827
0.004856492368
-0.004862730241
0.8616527096
-0.002442543369
0.8610370539
0.860681322
-0.2290264893
0.004499128639
0.2290236584
-0.004496297795
-0.2271994741
0.004413802259
0.2271678225
-0.004382150606
-0.2239983797
0.004269995937
0.2239541547
-0.00422577089
-0.2213597378
0.004071615057
0.2213011228
-0.00401299997
-0.219306151
0.003815186009
0.2192328474
-0.003741882439
0.003499768821
-0.2177864984
0.2176955123
-0.003408782713
-0.4333410797
0.006165462881
0.4329311929
-0.005755576016
-0.4321881546
0.00531774803
0.4317168607
-0.004846454205
-0.006482908879
0.8605809972
0.004155086001
0.004346433702
-0.004368380175
0.8595381809
-0.002196324671
0.8588649984
0.8584849973
-0.2290071675
0.004040291964
0.2289993957
-0.004032520216
-0.2270731688
0.003947342868
0.2270417707
-0.003915944735
-0.2238267543
0.003809338323
0.2237859309
-0.003768514963
-0.2211348547
0.003628763045
0.2210823767
-0.003576285041
-0.2190263565
0.003400663333
0.2189616412
-0.003335947985
0.003122789313
-0.2174510887
0.2173710782
-0.003042778769
-0.4325462074
0.005513095142
0.4321841972
-0.005151084947
-0.431287984
0.004763372464
0.4308694442
-0.004344832633
-0.005830098921
0.8587769256
0.003734639421
0.003899531074
-0.003932579909
0.8576406619
-0.001978774652
0.8569111932
0.8565062227
-0.2289705964
0.003649749313
0.2289594279
-0.003638580763
-0.2269481379
0.003552120809
0.2269171367
-0.003521119592
-0.2236678671
0.003419370456
0.223629879
-0.00338138241
-0.2209327448
0.003253452724
0.2208852645
-0.003205972388
-0.2187783904
0.003048365652
0.2187206451
-0.002990620388
0.002801032522
-0.2171550549
0.2170840383
-0.002730015876
-0.4318428514
0.004952824011
0.4315205971
-0.004630569704
-0.4304875247
0.00428478339
0.4301134586
-0.003910717299
-0.005262982089
0.8571561366
0.003371900667
0.003511870408
-0.003552886624
0.8559305664
-0.001788897529
0.8551472041
0.8547173252
-0.2289221373
0.00331783384
0.2289086308
-0.003304327383
-0.2268248342
0.003217494506
0.2267942981
-0.003186958466
-0.2235196324
0.003089444707
0.2234840216
-0.003053833865
-0.2207492597
0.002935689046
0.2207058865
-0.002892315903
-0.2185563527
0.002749462699
0.2185043097
-0.002697419632
0.002527149738
-0.216891304
0.2168277007
-0.002463546436
-0.4312154875
0.004475650644
0.4309262161
-0.004186379242
-0.4297710403
0.003875579436
0.4294343025
-0.003538841643
-0.004776263035
0.8556906521
0.003062599406
0.003179148098
-0.003226308681
0.8543806121
-0.001625363035
0.8535462584
0.8530919621
-0.2288655876
0.003038759059
0.2288505345
-0.003023705907
-0.2267034308
0.002937151025
0.22667338
-0.002907100206
-0.2233802859
0.002813217605
0.2233466508
-0.002779582503
-0.2205810433
0.002669492792
0.2205410329
-0.002629482394
-0.2183554775
0.002498670782
0.2183080813
-0.002451274544
0.002296747438
-0.2166540089
0.2165964722
-0.002239210756
-0.4306511243
0.004074078753
0.430389089
-0.003812043425
-0.4291249394
0.003530225042
0.4288192728
-0.00322455842
-0.004364641082
0.8543550412
0.002802685763
0.002897566193
-0.002949683632
0.8529656546
-0.001486700058
0.8520832748
0.8516052621
-0.2288037646
0.002806545617
0.2287877387
-0.002790519657
-0.2265839488
0.002704674153
0.2265543737
-0.002675099004
-0.2232482892
0.002584284873
0.2232162818
-0.002552277474
-0.2204252925
0.002448779061
0.2203880238
-0.002411510327
-0.218171808
0.002290498899
0.2181281918
-0.002246882699
0.002105168825
-0.2164381248
0.2163855906
-0.00205263462
-0.4301387148
0.003740159584
0.4298988437
-0.003500288482
-0.428537284
0.00324220406
0.4282571362
-0.002962056219
-0.004022098974
0.853127168
0.00258822885
0.002661743347
-0.002719255103
0.8516628107
-0.001371143266
0.850735163
0.8502341188
-0.2287386933
0.002618267287
0.2287220993
-0.00260167333
-0.2264662841
0.00251674578
0.2264371301
-0.002487591825
-0.2231222856
0.002399246939
0.2230915735
-0.0023685348
-0.2202796377
0.00227028126
0.2202445517
-0.002235195217
-0.2180020897
0.002122002842
0.2179615037
-0.002081416859
0.001950122469
-0.21623977
0.2161916339
-0.001901986363
-0.4296680647
0.003469882382
0.4294455176
-0.003247335306
-0.4279974735
0.003008217563
0.4277380318
-0.002748775946
-0.003744384006
0.851984157
0.002416561071
0.00247083387
-0.002532387882
0.8504508146
-0.001277332938
0.849480108
0.8489567859
-0.228671824
0.002470266485
0.228654955
-0.002453397516
-0.2263502148
0.002369506628
0.2263214136
-0.002340705385
-0.2230010039
0.002254248084
0.2229712776
-0.002224521845
-0.2201419499
0.002130279025
0.2201085368
-0.00209686594
-0.217843442
0.001989668327
0.2178051767
-0.001951403074
0.001828021612
-0.2160559392
0.2160109742
-0.001783056579
-0.4292301065
0.003256520609
0.4290214931
-0.003047907214
-0.4274958799
0.002823483493
0.4272515838
-0.002579187452
-0.003527777727
0.8509146937
0.002282318566
0.002314922448
-0.002386878282
0.8493099151
-0.001204564019
0.8482977938
0.8477522218
-0.2286042138
0.002358642384
0.2285872849
-0.002341713422
-0.2262354777
0.002258944041
0.2262069624
-0.002230428709
-0.2228832602
0.0021453283
0.2228542408
-0.002116308844
-0.2200102774
0.002024969536
0.2199780818
-0.001992773882
-0.2176931127
0.00188994352
0.2176565357
-0.001853366488
0.001735699907
-0.2158823593
0.2158395252
-0.001692865866
-0.4288185245
0.003097063636
0.428620432
-0.002898971141
-0.4270232745
0.002686105869
0.4267926948
-0.002455526166
-0.003367577857
0.8498874192
0.002188244822
0.002206607505
-0.002278586007
0.8482209233
-0.001149755322
0.8471689631
0.8466024665
-0.228536568
0.002281541867
0.2285197015
-0.002264675321
-0.2261217454
0.002182987264
0.2260934301
-0.002154671934
-0.2227679205
0.002070389478
0.2227393382
-0.002041807242
-0.2198828158
0.001952327596
0.2198514164
-0.001920928221
-0.2175486736
0.00182099767
0.2175132314
-0.001785555538
0.001671763235
-0.2157161977
0.2156748111
-0.001630376618
-0.4284260592
0.002988910003
0.428234839
-0.00279768977
-0.4265742152
0.00259217791
0.426351486
-0.002369448704
-0.003269994262
0.8488971653
0.002118824379
0.002141423779
-0.002213443396
0.8471643724
-0.001119828014
0.8460753477
0.8454826385
-0.2284691863
0.002238899269
0.2284523025
-0.002222015476
-0.2260086395
0.002141137262
0.2259804191
-0.002112916883
-0.2226539004
0.002028877072
0.2226254758
-0.002000452443
-0.2197578993
0.00191177638
0.2197268796
-0.001880756614
-0.2174079512
0.001782293358
0.2173731081
-0.001747450265
0.001635767616
-0.2155547958
0.2155143276
-0.00159529934
-0.4280459912
0.002930234595
0.4278587797
-0.002743023116
-0.4261407577
0.002542988559
0.4259290294
-0.002331260337
-0.003199425713
0.002052649282
0.002107288892
-0.002162743693
-0.001087518993
-0.006749734765
0.02887957364
-0.02903047102
0.006900632145
0.006759437641
-0.01303017457
-0.05845187068
0.1229170951
-0.01681538558
-0.1239699485
0.01786823896
-0.009443800956
0.05505416927
-0.05502269541
0.009412327103
0.006755402353
0.02865055164
-0.01887618393
0.001436026414
-0.05177340125
-0.0518087396
0.2313254425
-0.0240316241
0.01440456077
0.01398817241
-0.118020329
-0.1176662225
0.01730481668
0.1219244542
-0.01103701366
0.1119097847
-0.1115620374
0.01068926635
0.008970769418
0.05500021158
0.1214339192
-0.02124318714
-0.1226445644
0.01114293304
0.01131089933
-0.05377791975
-0.009888386
0.01024549086
0.05342081489
-0.01018036556
-0.05424149282
0.01064393863
0.05493024224
-0.009883193562
-0.05522741424
0.1182724105
-0.01802808167
-0.1186439161
0.01839958725
-0.02055737759
0.1202650141
0.01077596109
0.01095032157
-0.03042761998
-0.00728416715
0.00764989214
0.03006189499
0.05543226799
-0.01205278296
-0.05589055351
0.006228973605
0.006282094877
-0.007335700877
-0.03073306306
0.007641143958
0.03025080249
-0.007118683961
-0.03046781941
0.06102524032
-0.01254660448
-0.06141099376
0.01293235791
-0.01175050905
0.01210569254
0.05507708451
-0.02319974077
0.01149231738
-0.1122359169
-0.1126684778
-0.01888408091
0.2263328663
-0.2300656654
0.02261666564
0.2331974518
0.01489600393
0.01160929329
0.05944058707
-0.0118333711
-0.05983043444
0.01222321848
-0.01242678208
0.01283307257
0.06061894983
0.03002135857
-0.007054723227
0.1152865066
-0.01248646457
-0.1153050663
0.01250502429
-0.01721055595
0.01710669795
0.1183762685
0.05450925748
-0.009467401241
-0.01398321157
0.1106465345
-0.1103097981
0.01364647522
0.01800511348
-0.01754015634
-0.0004649571367
0.03056961545
-0.007364656596
-0.03081394297
0.007608984117
0.04906143581
-0.008995380727
-0.04931656085
0.05173438208
-0.008398374969
-0.05248873653
0.009152729411
0.007146372013
-0.02658027626
0.02763995852
-0.008206054266
0.00658425546
0.02837724399
-0.007125581119
-0.02783591833
0.02942882106
-0.007041813572
-0.02949489998
0.007107892481
0.02651319363
-0.02495074326
0.005021805092
-0.01819156859
0.02570653875
-0.0003685981397
0.02801578637
-0.007738806734
-0.02809511384
0.007818134208
-0.005876724085
0.004113825628
0.02827609209
0.03003367535
-0.006577962075
-0.02306767854
0.02743438362
-0.00704794243
-0.0275281965
0.007141755308
-0.007561858049
0.007544636602
0.02803300782
0.02740936818
-0.006394461686
-0.02748432064
0.006469414148
-0.006842902751
0.006921489468
0.0273557969
0.0225106161
-0.006804277264
-0.01778848278
-0.0004030858147
-0.007230945353
0.007219036271
0.03058152453
0.02366431044
-0.005389615499
-0.0002695814651
-0.008798271463
-0.03557048758
-0.01592833637
-0.1243424759
-0.01629343498
0.2322053554
-0.2365124701
0.02059530562
-0.006814674134
0.00699967333
0.02924382187
0.02923599561
-0.006735475707
0.02876115128
-0.007408089022
-0.02909186899
-0.006240690182
0.004535274676
0.0299749215
-0.0069989381
0.03068884249
0.03074069274
-0.007207343041
-0.0308980063
0.0306705404
-0.006825715768
-0.03076051901
0.006915694377
-0.01709934978
0.02413786002
-0.006692637192
-0.0003458730428
-0.01656139051
-0.0005379592722
-0.01582779984
0.01636649351
-0.03157995212
0.02373482408
-0.007982671797
-0.007092094698
-0.0003499974086
-0.00614543135
0.02667703656
-0.02678906489
0.006257459684
-0.00628049322
0.006548641962
0.02714121944
0.02890876197
-0.0001834123606
-0.03606457917
0.02668867205
-0.008164249216
-0.006934533682
-0.000221283516
0.01642346233
-0.03346715864
-0.00790704695
0.0168818076
-0.0004583452644
0.02219421772
-0.0002906050285
-0.007420751277
-0.0003398686184
0.008268336136
-0.02862461324
-0.007738836743
0.02515600802
-0.03344906239
0.02628150504
0.02659321295
-0.0002851696026
-0.006499033696
-0.0003568157507
-0.006847554845
-0.0248822893
0.02529302916
-0.006988701938
0.006296473012
-0.007443938231
-0.005717842702
0.02405353792
-0.0253925235
0.02599634938
-0.006321668584
-0.006903771602
-0.004355092884
0.02835475846
-0.0003353551332
-0.02812939695
0.0299095624
-0.006135258325
-0.006830340408
-0.03015841546
-0.008093226272
0.02945337027
0.00689989119
-0.007148744259
-0.0003158379334
-0.01283801703
-0.2262691821
-0.007421341915
0.2001583882
-0.2012271566
0.008473178253
-0.002872778038
-0.1999167676
-0.00141941616
0.1944485324
-0.1944625207
0.001412174893
-0.002059997972
-0.1973659734
0.2186720483
-0.006301691112
-0.2170582487
0.004677306654
0.05637752662
-0.01172755212
-0.05670275747
0.05806146874
-0.01075835724
-0.05845835155
0.01115524005
-0.01159911217
0.01196175038
0.05907794886
-0.02210877984
-0.2381892993
-0.01268789362
0.2148573936
-0.2192351418
0.0170599335
0.01996956023
0.2267877963
-0.008872858609
-0.211259306
-0.0004854799172
0.1922501711
-0.1943513495
0.002572067574
0.005364431158
0.1990982105
-0.003803514275
-0.192089699
-0.006014059465
0.1966964252
-0.195737047
0.005041470817
0.004498757739
0.1949791444
-0.007171209388
-0.200840719
0.2239759841
-0.008825360476
-0.2220772053
0.006921349152
0.008009425687
0.219449217
0.1117649071
-0.01412706227
-0.1116210563
0.1140941664
-0.01407013478
-0.1142299931
0.01420596146
-0.01644688027
0.0168614964
0.1148718905
-0.01484546232
-0.2252744673
-0.006927528324
0.2034816561
-0.2054079181
0.008849243731
0.01145736164
0.2121985849
-0.005680800308
-0.1996028068
-0.005315599434
0.1903226124
-0.1899704484
0.004955146549
0.005244042398
0.1920539289
-0.00245210588
-0.1936086316
-0.003462073762
0.2016294154
-0.2004739366
0.002296486745
0.0009373032277
0.1975477122
-0.006083846311
-0.2079279402
0.22961358
-0.01089387597
-0.2286096109
0.00988903705
0.009053199666
0.2252247655
-0.004263513383
0.2234943601
-0.2241781537
0.2240173977
-0.1110165893
-0.002949663202
-0.2238351674
0.003025462259
0.2139916464
-0.2160201766
-0.0009966243169
0.01787934328
0.2222198758
0.004798328149
-0.212054977
0.007211765503
0.1995739811
-0.1998148016
-0.006974329873
0.004752470948
0.2018341713
0.00685302239
-0.1966581141
0.002608156594
0.195432323
-0.1935626862
-0.004483958017
0.002046809899
0.1910210835
0.0003913311386
-0.195110462
-0.007244392926
0.2101116511
-0.20751818
0.004646693681
0.00674917238
0.2032407856
-0.009746918862
-0.2138136151
0.2281573875
-0.01188215357
-0.2288333317
0.0125580978
0.01195382499
0.2301705196
0.01930530738
0.2210924621
-0.2216956577
0.2228695986
0.0192685854
-0.2210015139
0.01844205654
0.2122663493
-0.2118501111
-0.01885681945
-0.006754844602
0.2126503401
0.01775589758
-0.208876638
0.01345660563
0.2039545054
-0.2021137473
-0.01529965139
-0.01013622284
0.199884377
0.01120149588
-0.2010655268
0.00239968698
0.2064630297
-0.2032589627
-0.005607575377
-0.005695379558
0.1976940681
-0.0009663330161
-0.20592789
-0.01097678964
0.2223389801
-0.2191255692
0.007762138992
0.004779278051
0.2129476548
-0.01242242344
-0.2247319856
0.2258397986
-0.01083386806
-0.2263643312
0.01135840069
0.01227318637
0.2275215152
0.02179196098
0.2193672299
-0.2195799747
0.2205013167
0.02130157654
-0.2219638502
0.01691511758
0.2177192741
-0.2159430326
-0.01869032073
-0.02065200564
0.2131382046
0.01483343205
-0.2141201484
0.00679623748
0.2145323612
-0.2115729547
-0.009756986351
-0.01527158473
0.2061969487
0.003602968835
-0.2118988834
-0.006753187595
0.22043699
-0.2169309992
0.003245982475
-0.004268887836
0.2098609515
-0.01020173644
-0.2199019953
-0.01128967805
0.2248187093
-0.2251947503
0.01166571905
0.009548536175
0.2251212883
-0.01090222673
-0.2250041525
0.2240540544
-0.009702166273
-0.2244575653
0.0101056772
0.01104154257
0.2253483617
0.005884132913
0.2204958405
-0.2199323838
0.2193547375
0.005033157197
-0.2244810621
0.0001780778991
0.2255707967
-0.2236271938
-0.002121396261
-0.01575777495
0.2196413826
-0.002003312459
-0.2229797595
-0.009625789946
0.226071798
-0.2234242037
0.006978054967
-0.006315731234
0.2175515815
-0.01119515569
-0.2244202611
-0.01083538867
0.2248007593
-0.2250088923
0.01104352173
0.006647766073
0.2238111725
-0.01060650977
-0.2246878769
-0.009816857311
0.223572086
-0.223850242
0.01009501332
0.01124760279
0.2244711806
-0.009526682207
-0.2236122307
0.2226708296
-0.008604160489
-0.222985016
0.008918346843
0.009797867527
0.2236749577
-0.009787582057
0.2229917203
-0.2225710378
0.2211816438
-0.009975265295
-0.2276069548
-0.01003163695
0.228539464
-0.228537901
0.01003007402
0.003371484617
0.2273920965
-0.01001461556
-0.2278996371
-0.009831395524
0.2260837097
-0.2261662459
0.009913931708
0.01079066023
0.2263463188
-0.009728992302
-0.2256397095
-0.009312401646
0.2241057068
-0.2242618725
0.009468567398
0.0106197611
0.224608
-0.009140279906
-0.2238653819
-0.008540144925
0.2226309639
-0.2228436884
0.008752869372
0.009739346058
0.22331275
-0.008316494808
-0.2225589454
0.2215822572
-0.007592729313
-0.2218309564
0.007841428547
0.008638165198
0.2223740078
-0.0085393365
0.2244573627
-0.2241273201
0.2233939833
-0.008654388091
-0.2282441885
-0.008652909894
0.2285088503
-0.2285208367
0.008664896277
0.009664560881
0.2285367072
-0.008629085007
-0.2278200598
-0.008467285773
0.2257893434
-0.2258583398
0.008536282146
0.009544369022
0.2260051707
-0.008384065534
-0.2252615674
-0.008054164128
0.2235685249
-0.2236914095
0.00817704871
0.009124250241
0.2239591906
-0.007919031383
-0.2232369689
-0.007446666849
0.2218971422
-0.2220650276
0.007614552302
0.00845261157
0.2224309791
-0.007269387406
-0.2217388359
0.2207110206
-0.006689239187
-0.2209115163
0.006889734947
0.007593855067
0.2213462378
-0.007489483572
0.2255565652
-0.2253126471
0.22476426
-0.007556101835
-0.228624354
-0.007522639927
0.2284408642
-0.22846038
0.007542155689
0.00836561996
0.2284945974
-0.007495026191
-0.2277184416
-0.007347701561
0.2255366965
-0.2255967577
0.007407762669
0.008235105995
0.2257228874
-0.007277123326
-0.2249491063
-0.007005158549
0.2231356118
-0.223236067
0.007105613699
0.007892159523
0.2234520297
-0.006895230819
-0.2227370534
-0.006512014406
0.2213079514
-0.2214441953
0.006648258381
0.007359469054
0.2217381541
-0.00636786056
-0.2210826901
0.2200003948
-0.005892983501
-0.2201651082
0.006057696894
0.006672235426
0.2205197657
-0.006596536574
0.2263584012
-0.2261816588
0.2257818721
-0.006633535484
-0.228841904
-0.006579592703
0.2283505741
-0.2283747215
0.006603740111
0.007290102205
0.2284199894
-0.006549773102
-0.227604318
-0.006413395172
0.2253132059
-0.2253668128
0.006467002061
0.007154911641
0.2254784474
-0.006351823781
-0.2246812043
-0.006120922744
0.2227752189
-0.2228597566
0.006205460526
0.006864219107
0.2230396541
-0.006028972029
-0.2223261379
-0.005710303074
0.2208229206
-0.2209360746
0.005823457053
0.006428100123
0.2211781803
-0.005590542615
-0.2205449448
0.2194105114
-0.005194696871
-0.2195481129
0.005332298344
0.0058653303
0.2198426048
-0.005834013853
0.2269350596
-0.2268085107
0.2265210907
-0.005852495359
-0.2289594978
-0.005785006468
0.2282462086
-0.2282732961
0.005812093889
0.006392028628
0.2283255657
-0.005753965149
-0.2274829544
-0.005626406335
0.2251115147
-0.2251601746
0.005675066227
0.006255082765
0.2252609613
-0.005571616401
-0.2244456384
-0.005371231249
0.2224675947
-0.2225403317
0.005443968266
0.006001983228
0.222693966
-0.005292618736
-0.2219795043
-0.00502223293
0.2204151681
-0.220510962
0.005118026852
0.005635574422
0.220714581
-0.004920932844
-0.2200951125
0.2189131098
-0.004585766012
-0.2190297468
0.004702402991
0.00516533568
0.2192781496
-0.005183034198
0.2273466383
-0.2272564427
0.2270513843
-0.005189658313
-0.2290140523
-0.005113489262
0.2281330733
-0.2281619487
0.00514236462
0.005635592396
0.228218574
-0.005081900601
-0.227357776
-0.004961770046
0.2249269837
-0.2249716913
0.005006477615
0.005498697432
0.225063909
-0.004912289854
-0.2242347902
-0.004735393503
0.2221999292
-0.2222636205
0.004799084859
0.005273999916
0.2223973192
-0.004666988672
-0.2216811298
-0.004433663926
0.2200663907
-0.2201488219
0.004516095156
0.004959759194
0.2203230118
-0.004346635843
-0.2197123593
0.2184879733
-0.004058882387
-0.2185881399
0.004159049025
0.00456008098
0.2188004645
-0.00462656255
0.2276398971
-0.2275756114
0.2274295196
-0.004625286437
-0.2290277654
-0.00454373837
0.2280148544
-0.2280447377
0.004573621697
0.004992378026
0.2281038805
-0.004512052155
-0.2272311603
-0.004398374791
0.2247564853
-0.2247979302
0.004439819638
0.004856917386
0.2248831395
-0.004353187135
-0.2240435674
-0.004194917113
0.2219634933
-0.2220200488
0.004251472519
0.004654624033
0.2221381641
-0.004134541158
-0.2214201138
-0.003930351582
0.2197636946
-0.2198356096
0.004002266562
0.004380769547
0.2199868044
-0.003854584543
-0.219381918
0.2181202533
-0.003604523699
-0.2182072739
0.003691544231
0.004036268495
0.2183909385
-0.004149297807
0.2278491297
-0.2278031959
0.2276989633
-0.004142589863
-0.2290138754
-0.004057903442
0.2278940024
-0.2279243639
0.004088264956
0.004443840426
0.2279848162
-0.00402641615
-0.2271046561
-0.003918460929
0.2245977716
-0.2246364542
0.0039571435
0.004310697607
0.2247157836
-0.003876834029
-0.2238683812
-0.003733710278
0.2217520933
-0.221802879
0.003784495934
0.00412660104
0.2219085074
-0.003679802125
-0.2211887629
-0.003499019266
0.2194977484
-0.2195612157
0.003562486528
0.003884800374
0.2196940802
-0.003432309536
-0.2190930663
0.2177988338
-0.003212714801
-0.217875199
0.003289079969
0.003584257382
0.2180357648
-0.003741755396
0.2279991408
-0.2279661293
0.2278913896
-0.003731323003
-0.2289810288
-0.003645081265
0.2277721896
-0.2278026687
0.003675560415
0.003977754048
0.2278635912
-0.003613970743
-0.2269792484
-0.003511062881
0.2244490462
-0.2244853817
0.00354739841
0.003847388925
0.224559721
-0.00347241045
-0.2237065195
-0.003341726808
0.2215610523
-0.2216071228
0.003387797311
0.003678269372
0.221702587
-0.00329308595
-0.2209813857
-0.00313130254
0.2192614777
-0.219318092
0.003187916865
0.003462269195
0.2194361425
-0.003071943793
-0.2188377491
0.2175150656
-0.002877154242
-0.2175827384
0.002944827018
0.00319711622
0.2177245069
-0.00339483157
0.2281072487
-0.228083429
0.2280295587
-0.003381829188
-0.2289351396
-0.003295040801
0.2276504754
-0.2276808518
0.003325417183
0.003582591825
0.2277417186
-0.003264392543
-0.2268554824
-0.003165901125
0.2243087946
-0.2243431345
0.00320024101
0.00345517715
0.2244132395
-0.003129744254
-0.2235557893
-0.003009354714
0.221386715
-0.2214289005
0.00305154013
0.00329848226
0.2215160227
-0.002965040156
-0.2207935742
-0.002818806996
0.2190493773
-0.2191003879
0.002869817547
0.003103474483
0.2192063689
-0.002765459077
-0.2186097006
0.217262097
-0.002590990672
-0.2173226395
0.002651533162
0.002867070544
0.2174490276
-0.003103165832
0.2281853448
-0.2281681382
0.2281292159
-0.003088441409
-0.2288803121
-0.003001788855
0.2275295028
-0.2275596466
0.003031932616
0.003247830624
0.2276201393
-0.002971623719
-0.226733596
-0.00287691028
0.2241756908
-0.2242083593
0.00290957875
0.003123346526
0.2242748928
-0.002842823969
-0.2234143722
-0.002730894047
0.2212261094
-0.2212651119
0.002769896512
0.002977028254
0.2213453758
-0.002690115373
-0.220621822
-0.002556553054
0.2188570089
-0.2189034575
0.002603001659
0.002799255697
0.2189995843
-0.002508096673
-0.2184039339
0.2170343248
-0.002350174782
-0.2170890583
0.002404908339
0.002586384549
0.2172028622
-0.002860879431
0.228241601
-0.2282292419