/*--------------------------------*- C++ -*----------------------------------*\
| =========                 |                                                 |
| \\      /  F ield         | OpenFOAM: The Open Source CFD Toolbox           |
|  \\    /   O peration     | Version:  v2012                                 |
|   \\  /    A nd           | Website:  www.openfoam.com                      |
|    \\/     M anipulation  |                                                 |
\*---------------------------------------------------------------------------*/
FoamFile
{
    version     2.0;
    format      ascii;
    class       volScalarField;
    location    "0.74";
    object      k;
}
// * * * * * * * * * * * * * * * * * * * * * * * * * * * * * * * * * * * * * //

dimensions      [0 2 -2 0 0 0 0];


internalField   nonuniform List<scalar> 
3019
(
36.90869627
36.90874874
36.90881481
36.90891019
36.95440553
36.95490258
36.95583304
36.95805116
36.96256847
36.97071948
36.98288646
36.99785112
36.72744297
36.72763633
36.72786324
36.72834155
36.77397677
36.77663265
36.7823766
36.81344418
36.8346897
36.87284068
36.93172672
37.00080561
36.54736693
36.5478683
36.54850685
36.54965561
36.59642485
36.60340797
36.61752347
36.66286719
36.71536593
36.8070004
36.93649549
37.0511268
36.36864558
36.36917168
36.37025881
36.37315833
36.42194309
36.43688374
36.46807747
36.54124114
36.65193536
36.83204037
37.03541378
37.20710912
36.19191043
36.19272463
36.19488783
36.20047902
36.25363316
36.2810217
36.34128701
36.45923708
36.66858216
36.94975718
37.26834121
37.53671647
36.01691409
36.01810804
36.0218405
36.03204059
36.09303661
36.14014217
36.24533673
36.43595806
36.74745621
37.17541694
37.70477264
38.24787775
35.84482344
35.84701435
35.85371816
35.87014046
35.94205266
36.01617504
36.18428422
36.45600256
36.88868999
37.5276962
38.44485928
39.84456293
35.67664399
35.6800853
35.69049958
35.71644609
35.80375854
35.91260876
36.15723692
36.50203142
37.07402613
37.96965032
39.47463681
42.61539314
35.5149647
35.52064047
35.53694542
35.57640415
35.67765705
35.83126176
36.15675736
36.57269642
37.28750303
38.43317894
40.45537606
45.23143537
35.36117889
35.36926971
35.39192214
35.44622737
35.56644254
35.77095003
36.1714125
36.65917899
37.50438912
38.85355796
41.19155974
46.47061437
35.21802698
35.22964153
35.26096275
35.33408357
35.47141499
35.72899029
36.20073671
36.75713689
37.71939495
39.22992459
41.78437216
46.98978063
35.0852538
35.10008965
35.13944926
35.23077395
35.39076259
35.70161693
36.23622172
36.8617191
37.92666199
39.57451644
42.32692882
46.72879675
45.01963666
46.35048581
46.9833286
46.78404288
42.1699574
41.02625492
45.23310954
44.16655632
41.64716037
46.05536473
45.35744965
46.77420168
49.23712673
50.29516852
42.20757058
46.32275459
46.12016518
46.94685718
45.19440359
47.4123173
46.32940687
46.49196345
39.93084899
42.60657989
50.0112191
52.25823026
44.94361213
49.50971697
50.42074282
51.12235064
45.90913797
51.97366741
50.54046675
52.45332848
52.12607063
47.62452941
49.05565336
46.85269862
48.66618979
46.61551338
50.4474593
48.79281733
42.75475298
45.05661194
46.9150804
43.97920719
41.18908867
46.47810303
44.13442573
39.73488191
46.46092463
37.55509915
41.03138623
37.79363025
40.23514566
43.96517153
41.88939101
43.85409841
48.2645283
44.44518371
45.776944
51.18993289
50.76809939
50.57420086
48.65554132
44.19559249
59.40475047
47.7972079
57.13061016
41.94574012
44.35056127
41.38978845
46.02280415
45.63330919
64.63353624
59.97493699
51.16053364
60.43647467
61.55141349
55.17956756
60.03020642
51.46588019
47.06031778
54.29652102
46.96015803
60.57340485
55.21915519
47.77818938
58.01799847
64.44867958
51.30259107
46.73907642
51.21193068
52.56069417
50.68448858
54.52339233
47.19488381
50.18644019
52.49557654
47.7339621
47.60165626
49.73117387
49.62688769
42.86998609
42.67936159
45.37443925
45.21552444
45.49797596
39.91926192
39.76122174
43.93787321
47.166658
46.18376515
47.72594522
47.44809787
48.06546152
47.81444588
46.34571561
46.50421777
46.14557641
41.54477963
48.26929257
48.34807007
48.14236118
42.45007177
43.02897159
47.04617672
43.91724422
46.9454255
46.61802777
47.35152564
47.05024563
44.07177052
43.51450819
37.36666781
37.75313363
33.85433001
34.16033656
41.72835299
46.01763749
41.51601781
42.2907436
37.90460569
38.33709567
44.59791696
40.56027371
33.54100461
33.78261093
33.00176601
38.89732205
57.01120058
56.88038023
51.57405736
52.76605865
62.90851372
62.21173239
61.74400051
54.91717095
55.62025876
53.69845061
54.64450453
62.0967719
58.13806942
56.10191915
55.95253226
55.79492475
56.07701638
58.48023834
58.70061816
52.20375286
53.37562465
62.52041632
63.04999768
45.09533682
51.46075965
50.43195372
52.4295356
51.73916848
45.7887224
49.00851208
48.30371201
50.07433466
49.25126423
52.21377218
55.07103245
54.44272114
55.81082418
55.27010197
52.76146267
48.39084329
53.34229299
52.66264597
54.22606835
53.56572165
48.82399354
41.85818956
41.29594446
42.83256533
42.05525218
40.39821261
39.84741623
41.11735038
40.56352035
47.18425325
46.5274348
48.07676742
47.40952783
45.22381119
43.34585222
46.28938205
45.6335451
36.85502818
37.21330496
43.35850762
34.53796033
34.28536868
34.91209847
34.64162769
34.11852002
41.96011227
34.36184127
36.41087023
39.29351143
41.22465415
45.86235876
38.849781
36.07041243
39.73597549
38.88419051
35.3601889
35.03125515
35.87189764
35.48461678
44.75167847
38.49113602
39.01092953
33.23862627
33.47316674
40.40328138
39.17800416
33.00052679
33.18854435
49.73062806
48.67736004
48.59678051
48.68355622
48.68890806
49.88032631
48.55747929
48.40782651
48.47356575
48.26864974
44.77794457
45.50649571
45.86326747
46.96046204
49.17174188
58.52476091
64.25683152
65.14639118
60.75693822
60.89875449
59.42744957
59.26285607
55.87065311
57.11798671
56.65813948
59.06671721
58.8059339
59.50177466
50.38984915
51.81366849
58.0881741
59.82123554
66.68132442
62.27874862
66.63165861
67.03143933
63.64611915
43.13070573
45.75052018
45.14457694
50.06148685
49.78211747
46.45920413
42.65857818
42.37140456
44.62834117
44.2152509
51.18648058
53.81735616
53.42359753
56.2309899
55.82202915
53.91056908
47.54490794
50.78284327
50.45294859
53.02796608
52.64183239
49.72033245
43.98749022
44.57506801
48.13991737
47.18203343
43.2149311
43.7958869
48.04458539
48.62855333
50.05115652
40.73690885
40.5611818
42.12476366
41.89915111
37.95002592
40.30775758
40.16350057
49.28537409
47.2315075
47.84251786
37.47376004
40.10393087
39.95740236
33.94410843
36.44552872
36.31129224
36.85307929
36.60384584
34.03419049
33.16386524
33.09425749
33.62945504
35.97690558
35.85778098
36.19879335
36.08409136
33.70073842
33.31689046
33.22702928
34.50909952
33.49583817
32.98310017
58.07050886
54.70743114
54.49812464
58.19914833
66.38151831
67.96131958
59.31270127
65.02185021
69.58771141
63.64071599
61.42275669
58.053337
57.60141295
56.53546622
59.11691726
58.58557274
58.27787112
68.00901722
67.72504075
61.42902373
68.63027368
70.92806501
63.52808869
67.70900818
67.96204421
48.44501897
48.25694855
45.07057522
45.96929229
49.33846922
49.14270414
43.23901268
42.93602585
43.86887416
43.54239325
54.61168674
54.21080124
51.67848339
53.33007523
55.41883032
55.01472718
51.51558674
51.16414719
48.00214834
49.24651904
52.25558158
51.88786946
41.66462124
38.2718289
38.45275879
37.94550832
38.11125711
41.48109733
42.50930089
39.05337448
39.32135083
38.63288895
38.83421559
42.26813776
40.20165198
36.99617029
37.165812
36.71211269
36.87953949
40.05674132
40.93134571
37.62410251
37.79028409
37.30061351
37.47474521
40.75598641
41.18482237
40.98408259
46.9667643
44.56103241
44.78141823
44.10922201
44.31012284
46.73810678
41.64850927
41.42978164
39.36622099
39.29831342
44.911281
42.56123118
42.63953587
39.71653935
40.25246141
44.09181952
46.09216392
43.6743209
43.84021059
43.23385374
43.35140298
45.82098536
39.8847862
39.78071389
36.92355313
39.44986063
39.30341553
39.78692138
39.65104853
37.12747766
34.47316626
34.34540372
34.82471091
34.70985088
34.01845409
33.56370504
34.70984958
37.99123183
37.29331177
38.97905249
38.65492952
36.35001726
36.86579926
35.01546426
35.95585102
36.38486071
39.47917894
36.43106302
36.62036279
36.08687163
36.35325121
39.39592487
35.25320533
35.13060104
35.73205167
35.59960104
33.32535139
35.52785473
35.39060945
35.75154472
35.62577008
33.38472836
33.07222009
35.06874716
34.78278143
35.30917551
35.14014231
33.11102926
36.69835417
36.72814334
36.82774453
36.74097691
36.79472689
36.86086694
36.81607442
36.8995699
36.91433016
36.92700598
37.00826277
36.98146142
37.02983735
36.56834209
36.63194033
36.69936413
36.66062563
36.7748839
36.78049516
36.81791319
36.95491512
36.90453984
37.00027437
37.12435611
37.02707215
37.15408194
36.47573085
36.60532043
36.61730733
36.65903933
36.842586
36.78364157
36.91046579
37.12401548
36.98496661
37.19409476
37.379888
37.1714088
37.43044558
36.43568905
36.64085526
36.60818411
36.720943
37.00101944
36.87380922
37.10692291
37.45368651
37.18905673
37.57176934
37.92278431
37.47833266
38.02804419
36.44816126
36.732888
36.6593386
36.84915285
37.26626188
37.05759394
37.42863597
38.00416416
37.56577607
38.22626038
39.01461195
38.11497917
39.3161807
36.4892369
36.87076525
36.76355722
37.02801938
37.61468555
37.34480219
37.85742873
38.79233787
38.18126693
39.20472091
41.52080906
39.41042489
40.65259635
41.20176002
40.12391493
36.55306161
37.03315382
36.90636575
37.23333577
37.99618638
37.7053016
38.32094069
39.62944519
39.00894591
39.74226737
40.37259729
40.04818568
43.05319491
43.77086328
43.21573458
36.63635161
37.2109225
37.0771953
37.45001152
38.36340419
38.09023224
38.75290378
40.31534068
39.81664303
40.65984608
41.4799281
41.23956268
45.43244425
46.6839452
46.45294594
36.73191089
37.39260352
37.25628065
37.66577963
38.70150596
38.45080135
39.13911076
40.86910121
40.4628108
41.35048533
42.26902911
42.08933485
46.58184477
48.12247807
48.03825922
36.83447663
37.57227061
37.4383966
37.87503307
39.0134493
38.78211285
39.49051882
41.36111207
40.99397821
41.92936702
42.92834926
42.75993638
46.98537814
47.68401136
47.84599437
37.61720413
39.08834308
41.47838694
42.48534658
43.79983395
43.35644886
46.66475962
46.49835212
46.75670291
46.2132955
45.92360556
44.77364656
47.9967987
47.80964814
46.22096175
47.8938428
48.01720968
46.95847815
46.83853578
47.07214874
46.83446998
43.95662725
41.70463806
40.95292505
40.32042575
41.49646983
41.90191323
41.69859186
40.84886183
44.82711164
42.51448475
42.84050138
42.00164678
42.39688534
44.68187766
42.60524786
42.43714515
41.49918158
45.79874923
43.32196981
43.58922074
42.94188478
43.22917204
45.69792187
48.13977655
48.13783568
46.68322211
49.41003941
49.34575211
49.23316807
49.85717238
49.78840401
50.15849722
43.25475113
43.06803173
42.05784347
46.28030006
44.01627245
44.25846004
43.67738802
43.93211122
46.25443552
47.42852605
47.62396528
46.97215412
45.60924773
46.96160208
46.78000055
47.98163772
47.81459176
47.16293381
44.33262883
44.51895025
46.32241281
46.12895951
46.40845346
46.59887574
40.65478329
43.69547275
43.63504786
44.9955658
44.77849313
42.15878318
50.44504802
53.02233915
52.00757989
54.92767533
54.83641092
52.01156553
45.53896428
46.24615368
45.52150586
51.29753982
50.57880704
49.00574751
50.77204909
48.57589043
48.66920904
48.38086557
48.53121105
50.87360223
46.07940225
47.71221916
47.16631512
51.81276091
52.06534387
52.59988117
49.59233366
50.18034165
50.83256155
52.56578065
54.59645648
54.87599228
52.77456584
53.28840738
52.26360413
47.84656611
48.29164215
48.13633266
49.11470696
48.99052576
48.86734411
46.9156627
48.05136745
48.12756533
48.5316735
47.94730481
48.11332689
45.68303486
45.84992333
46.76358374
50.15392859
48.82303881
49.39951237
48.28328143
48.45397544
48.92522322
43.22278606
45.41355822
45.20471463
46.59534318
46.40843347
44.64099159
46.87747201
47.14611433
47.35977498
43.82438602
42.31514669
42.47873567
39.057191
39.22198846
41.35302703
46.32835747
45.3469687
45.51953485
42.64518807
42.80991564
44.28921338
43.55050595
46.03189022
37.37372734
34.67046775
34.78812283
40.87465678
38.75662796
38.90607839
34.98897257
35.39371092
38.12325375
40.97602644
40.68639204
39.99723582
43.22263746
41.35598715
41.85556052
40.56700202
41.17311917
42.92690578
44.79107463
44.30206883
43.47115684
46.8162182
44.99092864
45.87237282
43.74811841
44.66595696
46.22167605
47.07923244
46.8586877
45.5991496
51.24137667
48.00584584
48.30502758
47.54540042
47.90376209
51.18587695
49.89794237
46.94701851
47.41783346
46.11840344
46.77298453
49.63111624
44.50310588
45.59999939
45.22082905
48.89270298
50.3068756
48.65368869
61.89436817
59.43976532
55.52560771
42.24895712
43.32423084
42.72489204
43.16642849
42.10006306
45.89721392
43.68349738
43.06485975
44.12646141
43.84293805
40.869901
45.89291454
45.1325078
45.31930101
44.77858716
44.97390729
45.76618842
54.00943197
53.29242315
50.82367372
58.0597235
58.74548638
62.26951641
51.74704809
54.72426858
54.20867493
48.21765957
47.27201527
46.29544867
51.04488807
48.57775062
49.90669567
46.25810614
47.14402681
49.95253469
59.82031781
56.75642463
57.36145368
53.04322467
53.77489039
56.22706402
48.41853561
49.91248436
49.06767807
51.23449177
51.87374646
51.62615261
50.92250276
50.3796816
51.0075784
54.07520408
54.47862798
52.58571658
52.38707732
53.45370738
53.92725533
46.98846845
47.14851488
47.87276409
47.46050367
46.6664228
46.82838528
49.48095211
49.61493253
49.84152043
49.51255433
49.20802138
49.34559378
41.29715618
41.47897555
43.03942016
42.4604338
40.76050331
41.05715264
44.02716076
44.25888478
45.53349035
45.05946436
43.64248254
43.82420742
44.59667509
37.86013757
38.02248327
40.08454155
39.58508076
37.54351947
37.72824855
44.54883217
45.18393666
47.31368143
47.13979925
45.74807091
47.63550759
47.5344839
47.66118169
47.27298942
47.40497972
47.54273505
47.98493464
48.02350719
48.13861555
47.78513175
47.90637539
47.90074379
46.9709228
47.6543767
47.48358241
46.38747097
45.81121171
45.97140825
45.48040857
45.6509282
46.26868044
42.00810002
44.56490383
44.33029863
48.58594265
48.44056218
48.05868547
48.2841142
48.46017462
48.56112527
48.24869488
48.35636082
48.2153476
42.65514581
44.53098419
44.3432273
44.89545542
44.70992602
42.83087254
46.90099525
46.01270934
46.17783979
45.82691183
45.62127286
43.39621516
46.83863299
46.42997068
46.57785332
46.12645166
46.27960952
46.72945007
47.25309728
47.00234721
47.13868377
46.72240066
46.86363895
47.15264607
44.50230131
46.2188443
46.02571897
41.98794739
42.14856611
43.66898343
40.42865818
40.27170613
37.62739703
41.52890157
39.40938572
39.65089713
44.97489448
45.17383634
46.18278156
41.89850258
43.77709633
43.5148805
44.16731305
43.96578402
42.05194358
38.04139591
40.75853418
40.5961128
41.09185432
40.92627872
38.19323885
44.44387937
42.97564717
43.14027043
38.46055346
38.61138569
40.71882049
38.53200779
36.13239008
36.83120398
54.3209629
51.86997486
49.96544028
49.62715087
52.63779708
54.42413678
58.02565765
55.46745681
59.52192859
59.50552595
61.31306835
55.17785046
57.24509858
57.03098562
57.48288213
57.3985983
55.40952199
54.03031756
55.9863759
55.49321749
56.76110281
56.41147044
54.34172741
62.29850253
59.20174696
59.45757256
56.09071683
57.16148555
57.26807793
56.6805324
56.94900691
56.0491098
55.93404312
57.47269348
57.50500352
57.33585762
57.4124317
56.01907138
55.67952786
56.23052081
59.30713366
52.61895544
54.05502181
53.54564288
54.99744491
54.51234064
52.96948556
51.19065452
50.11888092
50.4470582
48.55577965
49.30589772
50.82872621
52.20576102
51.46026992
51.72643285
50.88545954
51.131157
51.96355508
48.77009261
46.49881785
46.76561436
45.98118685
46.2388951
48.53524808
49.77082102
47.62504533
48.00825856
47.03570945
47.31778067
49.50244342
54.86639996
54.9783472
55.26999572
54.39003684
54.68543446
54.6563649
55.64357817
56.12628043
56.40482279
55.5591505
55.8448037
55.46174068
53.11800495
52.61569507
52.90571258
52.03165583
52.31575406
52.88915274
54.00740771
53.79342989
54.09141128
53.20131776
53.49505726
53.78684797
47.85438564
45.50014707
45.73500244
45.02594606
45.25680282
47.63029478
43.20232499
41.65993193
41.82040034
39.97904949
40.38328302
42.21441289
39.75941752
42.41951224
42.07870224
43.22505276
42.83283865
40.45474612
45.67920235
44.51069612
44.75816388
43.30543203
43.47159041
44.90524043
38.64456906
41.43301303
41.26126106
41.82144838
41.61578812
38.81427604
40.24169916
38.16160922
38.31666373
37.11576131
37.40258291
39.4090111
49.54602151
49.4498351
49.57423535
48.65829155
49.10412272
49.15429362
48.98353054
49.04715676
48.63027755
48.69300114
49.27110883
49.29749366
49.19885195
49.23811637
48.69282742
50.02293319
49.71491658
49.63420445
48.5128251
48.83369289
48.91205885
48.65755268
48.74853467
48.46261311
48.6732545
48.86088226
48.72582185
47.62532423
47.78536448
48.4039308
44.99145243
46.73366533
46.54373756
47.14843056
46.93286213
45.22607502
46.28269486
47.63544183
47.38612477
48.08303357
47.87213554
46.67395216
49.04637645
48.61873816
48.77566409
50.89910453
51.85149993
51.17605156
53.03970583
52.44081889
51.34368273
57.2157219
54.45884071
55.12021241
44.18159395
45.99227262
45.81005192
46.35814981
46.17457973
44.37614467
48.00318946
47.30737887
47.46650787
46.34062581
46.50463183
47.32587031
43.41138475
45.2622006
45.07740291
45.62806912
45.44481115
43.60182024
48.23796801
49.12621245
48.96232656
49.45070805
49.28962789
48.43525797
49.94416109
49.74694466
49.87733776
48.92485341
49.06803623
49.40418799
47.43372419
48.45391851
48.27863704
48.79499036
48.62811122
47.64985871
36.86536949
36.86659767
36.95526971
36.86862757
36.87201243
36.95656682
36.87546517
36.88126344
36.95995233
36.88944048
36.90047386
36.96610756
36.91477075
36.93248366
36.9764256
36.95371003
36.97837738
36.98950652
36.99942818
37.0127583
37.00345692
36.68582734
36.68693013
36.77504029
36.68931775
36.69313001
36.77900038
36.69846898
36.6922705
36.80999946
36.77365997
36.77909179
36.81734394
36.80080925
36.81117468
36.84198929
36.84937921
36.86650704
36.88494619
36.92351867
36.94736244
36.94764968
37.00481376
37.01905952
37.01023053
36.51032301
36.5133998
36.59926794
36.51929709
36.52824106
36.60938149
36.54013796
36.55390194
36.65469624
36.6293983
36.64169413
36.67318056
36.69305975
36.71618681
36.73468195
36.80620547
36.84201685
36.83959009
36.95144454
36.98795182
36.96949076
37.07841096
37.0992647
37.07147002
36.33893931
36.34559155
36.42789941
36.35722899
36.37512364
36.4499345
36.40125339
36.44563317
36.52323539
36.5170912
36.54226974
36.56254191
36.65047519
36.69671271
36.69367994
36.85193959
36.90819365
36.88237565
37.07880706
37.13284576
37.08451648
37.27004194
37.30489538
37.23706663
36.17500153
36.18747481
36.26475854
36.20863975
36.24056684
36.30513304
36.28943705
36.38216895
36.42379774
36.44741905
36.49632218
36.50159506
36.68118114
36.75277235
36.73316109
36.99615073
37.08404494
37.02847677
37.35522167
37.44259752
37.34417745
37.67422197
37.72671276
37.59512423
36.0192154
36.0403637
36.11192719
36.07601762
36.12972224
36.18185565
36.21057137
36.36938396
36.3743411
36.43772189
36.51232993
36.50428011
36.77782229
36.88382664
36.84335116
37.25224756
37.39241242
37.30059604
37.8574201
38.02423085
37.84420797
38.54134012
38.67635469
38.38939704
35.87307107
35.90661219
35.97125389
35.96170348
36.04515329
36.0837526
36.16741516
36.38829533
36.37166877
36.4656109
36.56454565
36.54794161
36.93336961
37.08327162
37.02636671
37.63147127
37.85433202
37.726213
38.68300732
39.03425247
38.73251167
35.73863873
35.79004043
35.8458094
35.86948763
35.98803681
36.01320149
36.15501106
36.42716642
36.39522277
36.5183465
36.64596658
36.62182009
37.12838946
37.32851129
37.26127931
38.08999403
38.41477995
38.26923215
35.61921456
35.69170477
35.73776264
35.79913392
35.95452268
35.96856261
36.16182437
36.48492309
36.44017346
36.59309301
36.7495275
36.72203593
37.34155228
37.5887474
37.52350334
38.54254317
38.95541383
38.82676355
35.51626975
35.61187007
35.64778504
35.74879633
35.93987035
35.94516909
36.18564956
36.55635136
36.50158157
36.68296064
36.8666499
36.8362884
37.55856113
37.8464982
37.78283009
38.95138456
39.42531845
39.31407754
35.4301354
35.54918046
35.57514403
35.71581032
35.94122282
35.9396376
36.22114802
36.63693171
36.57576948
36.78248162
36.9911816
36.96013515
37.77109088
38.09328346
38.03354
39.31808711
39.83798455
39.73882043
35.5169198
35.94456612
36.65857346
36.88599289
37.11728881
37.08785378
37.97583462
38.3278577
38.27140571
39.6571751
40.21836088
40.12507908
42.56381934
42.08825848
41.71686848
40.56987777
40.85443865
45.10258583
44.18133777
44.30462656
43.29734993
43.47086839
44.35373088
45.97902639
45.04758577
45.14003735
44.42084936
44.5354663
45.47701013
46.3132968
45.62976286
45.67948219
45.22569198
45.30829504
46.17567923
45.33279786
46.06322419
45.94194459
45.72360064
45.76440475
46.32931805
40.1592731
41.73682529
41.58035925
43.76758636
43.63251636
42.45837957
50.54337975
49.9815799
49.92068662
50.20523148
50.19746499
51.04642647
50.50503448
50.62843046
50.6407376
50.34687143
50.25730826
50.3817485
42.90511372
44.0314567
43.89690622
45.8262803
45.70370542
44.9179644
41.42337748
41.2686807
39.56276832
46.45528941
43.73985909
42.91238917
43.11371817
41.41697777
41.68181015
42.25396541
47.83127705
46.88819243
47.25975344
44.15676402
44.62245862
44.97963654
51.23112296
50.16365781
50.20000587
49.45412254
49.61467197
50.94232211
50.36548345
49.1015261
49.28706246
47.5961691
47.91038401
49.01228303
44.75004217
44.21051938
43.87821734
42.67500855
42.52869217
41.22720494
53.22452306
51.57640052
52.3331371
46.72207496
47.37413291
47.83743976
51.46841279
51.56673364
51.40915735
51.11200566
51.23525888
51.3538754
47.65489568
46.53072807
46.27381548
46.74910911
46.63757132
46.03301392
46.5273979
46.9276518
46.84951104
41.70186505
42.95539169
42.80913221
44.84798914
44.7115933
43.75106452
44.21903659
45.10195741
44.97314515
36.70678939
36.74213506
36.73511901
36.75936299
36.74956814
36.71618069
36.82237188
36.78502446
36.79267385
36.7570408
36.78270514
36.76949973
36.81331195
36.7960884
36.77392148
36.8512822
36.82197111
36.83555964
36.84189434
36.85190832
36.8303325
36.89875007
36.87244627
36.86902336
36.89971791
36.8834345
36.90390525
36.95696492
36.94974488
36.92332664
36.99507253
36.97276375
36.98313845
36.96765155
36.96837089
36.9864882
37.04906343
37.03162591
37.01453597
37.04431113
37.06272257
37.0211694
37.0304196
36.5860785
36.61251983
36.59757946
36.65081508
36.63000769
36.60708482
36.68491971
36.65608128
36.67344673
36.6942151
36.70237342
36.67457405
36.7714629
36.73394536
36.73365642
36.75562465
36.74184751
36.77195374
36.86297203
36.84956235
36.80936105
36.93186455
36.89013459
36.90853072
36.87093588
36.87768262
36.91527469
37.04507642
37.01290256
36.97246007
37.08464054
37.0504896
37.08690592
36.99905677
37.02134722
37.05242391
37.17967155
37.13454739
37.11217645
37.15298864
37.20214716
37.08519499
37.1148824
36.51170571
36.52553567
36.49531812
36.60414288
36.56132405
36.55467317
36.58767763
36.57215241
36.60771895
36.71647714
36.70436431
36.65275189
36.8172607
36.75919708
36.77765471
36.7371681
36.7457486
36.79770924
36.98073881
36.94087356
36.87798906
37.06872974
37.00469605
37.0522983
36.93339654
36.96529003
37.02270755
37.26131511
37.19086167
37.1312649
37.29402592
37.24498582
37.32357332
37.12981423
37.18233948
37.22788756
37.47622644
37.38823155
37.34182894
37.42050236
37.52206649
37.26085486
37.33303682
36.49888109
36.496483
36.43959083
36.62598287
36.55873343
36.56716903
36.55217673
36.55355967
36.61498996
36.80802953
36.77733188
36.69857097
36.95278589
36.86217595
36.90134045
36.80159239
36.82975849
36.91128146
37.21848228
37.14862947
37.04910785
37.35289551
37.24993889
37.33511737
37.10853972
37.1744396
37.26552398
37.69041375
37.55720606
37.45639428
37.74218129
37.65223193
37.80860849
37.41424439
37.52618609
37.60450661
38.10606987
37.91350196
37.82665311
37.97184752
38.19063825
37.64322169
37.78226075
36.53353107
36.52135272
36.44186394
36.70641475
36.6092535
36.62817707
36.57840461
36.59269593
36.68085231
36.97707016
36.92727586
36.81201841
37.18989474
37.05292211
37.11585446
36.94651372
36.99812984
37.12135484
37.60624
37.49467203
37.33701336
37.8410209
37.66215133
37.79813266
37.43115094
37.54092477
37.69635781
38.46566319
38.22865845
38.0302067
38.64431373
38.43283256
38.73007751
37.98068635
38.19719877
38.37284539
39.58873737
39.12268693
38.87416892
39.29385937
40.03542312
38.48147392
38.83095972
36.60243836
36.58215077
36.47634437
36.83215227
36.70045212
36.72932111
36.65021091
36.67494608
36.79761625
37.20292542
37.14042913
36.97832524
37.51916333
37.31988939
37.39746777
37.17742671
37.2484703
37.43082442
38.13015962
37.98682419
37.74020034
38.57689773
38.26390884
38.43918718
37.94320446
38.10142539
38.37497429
39.7104305
39.35636887
38.93851617
40.43093324
39.83499524
40.32961854
39.04320778
39.4459434
39.93127484
40.85547427
40.69786913
41.00886377
36.69501214
36.6693213
36.53463051
36.99004251
36.82066823
36.85446434
36.75616687
36.78929218
36.94947476
37.45782229
37.391921
37.17954891
37.89989538
37.63053126
37.71045458
37.47049412
37.55266877
37.80489199
38.69305181
38.55469668
38.20533668
39.43179603
38.95902225
39.12434024
38.61225034
38.78887639
39.22476848
36.80657908
36.77768896
36.6142492
37.16611795
36.96097354
36.99740537
36.88953318
36.92496915
37.12143187
37.71850203
37.6539956
37.39589679
38.27431733
37.94493843
38.02106177
37.7893193
37.86736462
38.18286014
39.19893095
39.07962666
38.64945953
40.15885806
39.57731179
39.71412553
39.28279767
39.4336532
39.99315182
36.92844887
36.89745178
36.70708916
37.34745175
37.1101261
37.14790746
37.03458686
37.07217425
37.30178148
37.97153158
37.90968627
37.61262578
38.62002245
38.243517
38.3147962
38.09636209
38.17044254
38.53625446
39.63715209
39.53287696
39.04663723
40.73815898
40.09096413
40.20789695
39.84480861
39.97043642
40.6041492
48.10032935
47.48136214
47.51833184
47.39303934
47.43753252
48.07225587
37.05482068
37.02399507
36.80899212
37.52882706
37.26308951
37.30003505
37.18641148
37.22379387
37.48264995
38.21256354
38.15451039
37.82456414
38.93816472
38.5236897
38.58999062
38.38579391
38.45426232
38.86004781
40.03103695
39.93532247
39.40546014
41.23848152
40.54033551
40.64798907
40.32103222
40.43218364
41.11914046
47.74121394
47.4783096
47.44044708
47.53987953
47.50756821
47.79515401
37.33862611
37.37470729
37.65947446
38.65656033
38.72095045
39.16146607
40.75330536
40.8588797
41.59849689
46.58669672
46.70728916
46.64285707
46.82610635
46.76452103
46.67273474
47.93832812
47.58922673
47.56349373
47.62437238
47.60590095
47.97979713
46.91842117
46.93890984
46.87990251
47.04683344
46.98976893
46.99620481
42.75215228
42.46983965
43.0592657
41.4697864
41.90888192
42.18899174
41.32207876
41.56164455
41.16909225
40.67749644
40.75238393
40.42105573
41.59151827
41.20740029
41.01394621
41.35356695
41.76551725
43.92058339
44.05529737
44.96748923
43.51941653
43.40504109
42.7359911
44.52134988
43.62943575
43.780836
44.85265004
44.95308035
45.89356605
43.41148212
44.12852975
44.0325363
44.31422943
44.22219492
43.50190272
43.03967891
43.73354748
43.62708244
43.93536974
43.83519666
43.13603075
45.59010776
44.64402585
44.75107595
48.14489506
47.60768426
47.62460468
47.55430538
47.581612
48.14533141
45.51787942
45.57732982
46.29967351
44.09414796
44.81694308
44.74077586
44.96231953
44.89116384
44.17834827
43.76145779
44.49184843
44.40436556
44.6602373
44.5776679
43.84891702
46.21996927
45.38348095
45.45456977
47.49592224
47.32822777
47.2827666
47.40713772
47.36547685
47.56104117
46.29769538
46.17781847
45.47064148
44.4102774
45.09489773
45.0302148
45.21232081
45.15593682
44.45759592
46.32670531
45.80280494
45.83590315
46.22295652
46.45381944
46.3907493
46.58129074
46.51132726
46.31505006
42.06302746
41.87593136
40.41032666
42.91983794
43.13498388
43.67908924
42.30957022
43.50171198
43.36301809
52.71046464
51.79037222
52.00314884
51.41304088
51.59629194
52.38400409
54.94009279
53.8218398
53.87851805
53.58879643
53.72270257
54.91516857
50.09133278
50.03862794
50.66089354
48.61595231
49.34839125
49.3540108
49.31941893
49.3362507
48.64573995
48.455248
49.32371942
49.2772223
49.3552868
49.34751036
48.48586476
50.95841181
50.17597037
50.13912636
52.24442245
52.20624122
52.06180008
52.47527662
52.33393673
52.4240253
49.78676994
50.39506132
50.23900201
50.7076221
50.55135156
49.98285077
50.73226338
50.75072803
50.87349755
54.70263933
53.86319299
53.80996266
53.89819362
53.88789879
54.79775333
52.94794838
52.73372621
52.59889667
52.97696406
52.85128482
53.11895697
48.08148895
47.64022919
47.6335741
47.63851322
47.64086867
48.10737658
50.00567916
50.13141815
50.24996255
49.01539879
49.76906735
49.61084364
50.08289325
49.92663045
49.20789771
44.30014306
44.16256166
43.05989384
44.78000088
45.58754485
45.46399451
47.21895212
47.1481236
47.09382959
47.24212704
47.19197428
47.28971333
43.44785062
42.57185126
42.73681222
46.3235112
42.46689764
42.69862664
43.49426487
42.6031601
41.95782295
42.22126053
46.05828852
46.49256517
47.34953254
45.30287482
45.75597905
45.35875408
46.45953867
46.11270976
45.5903953
44.94165238
44.46368743
44.29318117
45.58144149
45.10770321
45.59268922
50.01182615
50.10566502
51.24763058
48.10830684
49.03306346
48.92341193
49.21282747
49.1272644
48.20675606
47.67372138
48.55867431
48.41717938
48.81009513
48.6847971
47.78778872
51.08931441
49.76130874
49.89711287
48.68663704
48.90597799
50.14271211
47.12098965
47.94071987
47.74265412
48.27435037
48.10928797
47.26913782
46.36042626
47.05162722
46.76078189
47.53922053
47.29913614
46.56721644
49.33562178
48.19108076
48.45330959
42.48631269
42.95993368
42.78599231
42.6856007
42.95774077
44.99993092
44.65871677
45.18034522
43.50777451
43.88055188
44.23356849
43.43486973
43.66471166
43.22278702
41.06090083
42.38374898
42.21536778
53.78355499
52.57584072
52.76736903
52.19360768
52.39567535
53.55351689
54.56753145
53.27673363
53.44334683
52.93715115
53.11763873
54.40368804
49.9039583
50.82906669
52.22020725
50.52411906
49.76520511
49.33903972
48.7036402
48.16159316
49.03448826
51.4624749
51.62878381
51.48154166
51.92505668
51.77241437
51.67634421
50.99465189
51.11618629
51.02271274
50.58213593
51.01933517
50.86366088
51.32917467
51.17455048
50.79025347
54.21712666
53.59346911