/*--------------------------------*- C++ -*----------------------------------*\
| =========                 |                                                 |
| \\      /  F ield         | OpenFOAM: The Open Source CFD Toolbox           |
|  \\    /   O peration     | Version:  v2012                                 |
|   \\  /    A nd           | Website:  www.openfoam.com                      |
|    \\/     M anipulation  |                                                 |
\*---------------------------------------------------------------------------*/
FoamFile
{
    version     2.0;
    format      ascii;
    class       volScalarField;
    location    "3";
    object      k;
}
// * * * * * * * * * * * * * * * * * * * * * * * * * * * * * * * * * * * * * //

dimensions      [0 2 -2 0 0 0 0];


internalField   nonuniform List<scalar> 
3259
(
37.00038151
37.00131963
36.99377893
36.98335325
36.97281133
36.96456968
36.95966726
36.9566883
36.91057904
36.90932409
36.90874754
36.9084244
37.00928439
37.016655
36.99323241
36.94468928
36.8925343
36.8518014
36.80405976
36.78711785
36.73369035
36.73014848
36.72835677
36.72746095
37.05911065
37.07066427
37.03358356
36.95283582
36.84537258
36.75273714
36.66627668
36.62842044
36.56421444
36.55545588
36.55139829
36.54975688
37.20698147
37.21086661
37.14485525
37.02390794
36.86965596
36.71363234
36.56274604
36.48940546
36.40210395
36.38645428
36.37861327
36.37553108
37.54344447
37.530443
37.39468196
37.19025284
36.96357512
36.74029441
36.51224926
36.37737581
36.25375935
36.22325138
36.20918653
36.20370309
38.33077827
38.2404363
37.88672387
37.50920442
37.15125684
36.82800848
36.51917019
36.29831838
36.11859423
36.06522431
36.04194674
36.03275755
40.16447207
39.97514679
38.7948256
38.03646781
37.45181894
36.98091499
36.55716077
36.25721673
35.99635866
35.91269409
35.87616984
35.86181424
42.82648828
40.27700096
38.79127291
37.86640583
37.19606043
36.62945672
36.24417008
35.88948504
35.76650003
35.71252675
35.69152235
47.49153665
42.11006758
39.70303201
38.36014719
37.45577786
36.72506703
36.25064157
35.79693715
35.62898586
35.55384983
35.52487244
50.7651518
43.78673682
40.62327629
38.87602995
37.73099551
36.83320206
36.2663922
35.71960921
35.5035261
35.40463785
35.36647223
52.38703366
45.04534493
41.42584362
39.35115848
37.9945512
36.94000867
36.28626395
35.65605917
35.3928879
35.26938487
35.22123872
53.07957639
45.88791682
42.04748979
39.74252289
38.21995383
37.03459205
36.30684577
35.60658414
35.29757318
35.15051729
35.09217332
48.01710844
43.20384204
51.6442321
48.47233667
53.34934099
51.94861767
54.03224157
53.46324902
54.07252474
40.12706538
42.70155477
39.89914053
51.70285449
44.84781683
46.96987759
42.5367427
40.83934171
55.82296124
57.60584286
50.46257335
44.62244112
43.09882045
54.72539723
54.18475522
52.25581081
46.13952017
45.06146395
56.17003797
55.32544392
39.66039555
56.99222325
56.76542624
57.51271396
52.03693709
45.92356695
51.04187383
56.15558336
54.26743988
55.61579262
50.25002207
56.6553962
55.79337747
56.36661233
56.75223928
50.00428065
55.16774983
54.8116126
52.88208453
56.31060688
56.54359857
55.74859044
56.26835612
52.69313494
56.72356094
56.26072464
40.87175521
41.87387784
57.01916675
39.55133786
63.04338803
47.71483932
48.46435514
53.03918555
47.10688973
46.43099453
56.63779445
49.19846289
47.64724391
44.45227271
50.07539206
45.29412874
47.2020335
43.3278864
53.82813388
56.76456815
56.88127673
56.57133771
56.74951637
53.75843928
41.76139592
44.25627299
41.82946577
41.79058458
67.78718338
48.68771077
62.73979364
46.74853819
59.16501855
47.82794668
57.30257061
57.43219119
54.37984897
54.34513129
40.92668437
45.55100304
55.85600165
41.38512295
42.17299436
47.19835923
41.59355001
55.74787926
52.15087177
50.06001531
50.73514651
55.53938392
55.14723003
55.04466834
55.16594011
56.23933081
54.3095307
53.70101802
54.9124451
54.47843415
56.17138327
57.17452742
52.33798497
51.28952176
53.46764989
52.64714325
57.18354351
55.34827769
47.8416013
55.28023159
42.58834727
46.38740013
56.49815091
42.68495284
40.87445534
58.02005899
52.74512908
62.43536573
39.86911358
40.45900661
54.699096
40.96165934
44.79823547
43.52168086
46.76168737
43.25962955
43.5965012
56.53214466
59.60695893
58.39627328
57.70293134
54.50150505
44.96669478
45.21897291
48.36673089
47.69809694
54.06669549
56.88671415
60.91109423
59.9141925
53.57233138
49.14428586
47.65961638
50.89774428
49.61048664
53.94363551
54.56094799
49.50687568
48.70605988
55.27899024
45.41455789
45.700584
55.00555989
56.42142725
55.68868446
55.60126319
55.77237649
55.31597153
55.02752155
55.56316447
55.38738539
55.78454721
56.55848928
47.00778871
51.07004354
51.53386001
56.51674653
55.7656913
55.36982914
48.56350507
48.45119133
39.93529958
39.78136063
56.94967857
59.24416939
49.18885469
59.74669721
44.3179897
40.93226263
45.05002602
48.08835936
52.926452
68.16283911
55.92238122
52.17112362
59.84097992
56.76000995
51.44903219
48.34099406
53.80754278
56.20394883
55.45801561
56.80704569
57.66769314
58.01371102
56.69660391
45.9952879
45.16566451
54.44053254
47.26291654
47.38766289
45.23012254
46.91287869
47.39144233
54.11649509
47.56113708
46.30963325
41.50351069
41.95493543
41.27858802
50.90766161
49.97853607
43.5032606
48.00857296
46.53263371
49.61296342
48.50198369
42.75241578
42.60000366
41.23127892
40.19752425
60.6426631
60.0975561
56.57600896
61.82587772
62.7100617
62.83028156
61.64468673
60.79800785
62.97367242
61.48771164
53.82999752
59.61100015
60.71713419
50.62624882
49.67069299
54.67713236
55.29367941
52.19293761
51.01182434
44.29946582
43.74025876
46.10934552
44.73622347
48.17650487
43.81632834
44.78024431
43.60270347
43.52679454
52.9112816
41.47532203
51.87620469
47.3785643
51.56973853
41.16499539
57.73325536
42.36991082
40.31471117
39.02842978
55.70880108
55.25953183
47.28646427
55.66508067
56.89199355
56.89261602
54.20624012
45.5550191
44.99041519
48.22932698
53.88590994
45.48163688
45.6135923
41.28979887
41.63434956
44.04402276
50.3084485
54.030019
56.82675922
43.48365893
41.79741869
41.19097395
51.74463766
53.3635961
56.90715468
57.65126365
59.33606961
53.42726171
47.94287794
43.81270937
59.07412804
52.66483829
44.02971915
63.63825365
48.26485789
42.27466861
43.85726624
55.83417463
40.07733231
40.3695186
49.51411756
47.14397382
45.55061644
47.59018954
45.62724877
40.55298077
40.06770346
42.96719703
43.25106213
46.09169871
64.7619258
59.99092504
57.42675034
67.71569944
64.88158662
41.05300746
43.70434713
42.72264918
49.7314407
49.12695091
43.46044552
52.03928028
51.22790803
41.34238534
47.48360855
42.0764953
42.34543292
46.47078089
40.35948566
41.03970897
47.6139344
47.35487709
42.74845336
43.12281783
47.67317939
47.33150288
47.80339575
55.0722322
45.86995896
47.21268783
58.18870981
55.57174428
54.81577705
45.34233817
43.89323156
40.19216202
56.12645004
56.24168861
60.13251135
41.9104457
53.80265485
48.92988156
54.10611376
53.03888519
43.11147762
44.51182401
45.30143033
49.79329998
54.07827516
54.46451734
53.48034696
53.77849934
59.25390806
58.43739953
58.72934542
57.83090062
58.13467213
58.79762892
48.12734298
47.83188872
48.09009148
47.43054427
47.5928749
48.06342428
60.50551044
59.39153371
59.40830075
59.00607254
59.24528385
60.21019525
49.08503573
48.93988633
49.23275968
48.36637492
48.6452404
48.85869521
52.75073807
52.92316315
52.01723981
52.21181685
60.9046809
60.23517816
58.16553112
46.52318739
60.81651374
60.78655253
66.3707189
61.03942555
63.25198201
58.99460336
50.79288962
65.13777417
59.80681791
48.98521206
48.77796375
57.04265208
45.84485687
49.92681987
56.16104352
52.68542968
54.04436503
51.95225766
63.9538276
60.45142209
64.36123226
58.68444437
61.44161218
64.03759365
65.40741844
64.76984564
55.64499675
55.8960725
56.21393263
55.16327665
55.37563851
55.35040201
57.5458738
57.20666643
57.51938357
56.56063698
56.87602354
57.12448812
45.70654535
48.14856218
48.12719209
47.22805427
47.43374744
45.80597955
47.46178829
47.15394744
46.80249835
47.82712552
48.18000327
46.98172503
47.5076762
47.37294181
48.04336558
47.81892829
46.59882384
49.31253801
46.02977173
41.22419234
50.69110003
50.65252355
50.37346699
42.61373345
49.39731632
48.93750405
41.87174918
41.91770329
45.10986662
60.4849872
59.23546413
59.15129648
59.29379822
59.30547844
60.28564244
62.23070437
62.41354091
61.49002505
64.56909175
64.49796181
64.42418528
64.55914295
61.33945793
63.13471588
63.96384114
65.86825861
63.17048226
50.39535696
50.15969599
50.47649759
49.53575802
49.84650464
49.98148388
51.71823914
51.33250104
51.56159049
50.79297346
51.0840563
51.42803489
46.95457831
46.92674951
47.69064114
43.77115061
45.03993175
44.0783793
47.20346173
47.42034779
47.17463726
47.2335484
44.45601677
43.45579325
45.27824561
44.24511968
46.84807129
46.86945448
43.43388637
51.08207144
42.08019273
42.93420857
40.83215546
41.35753088
51.68733635
50.54372386
50.1021604
44.03634685
46.76278231
51.96037733
56.95865552
37.03287889
37.00142168
37.04047986
37.05284056
37.01743931
37.05160534
37.03082356
37.00462962
37.01886279
36.96644913
36.95930703
36.94582857
36.87239337
36.90535577
36.85002831
36.78859929
36.86110123
37.14495414
37.05083265
37.15718197
37.16840736
37.07244379
37.16352244
37.12639944
37.04701238
37.10701672
37.02965704
36.97615538
36.99873825
36.89473554
36.87293148
36.85814346
36.74957577
36.77157208
37.41710057
37.19243011
37.43798318
37.44379818
37.2155369
37.42411379
37.34805573
37.16748979
37.3134
37.18617175
37.05804817
37.13754234
36.9840531
36.91025631
36.93206107
36.77882977
36.75143324
38.04296134
37.51231843
38.06516919
38.06609028
37.53664004
37.98779445
37.80507902
37.4376638
37.73166036
37.49393392
37.24589601
37.41186426
37.1716158
37.02071682
37.09393745
36.87307074
36.79557062
39.79526062
38.26552684
39.83345815
39.60148068
38.25410362
39.25072591
38.70378057
37.9800076
38.51910888
38.02817962
37.6034897
37.8810273
37.48573417
37.23732222
37.36535495
37.03753265
36.90658421
41.3179524
41.3817637
40.18015826
40.77817715
40.09438912
39.62350251
39.85543802
38.84459355
38.20547245
38.58300416
37.93313617
37.58584525
37.75006807
37.27592511
37.08975012
44.6074587
43.23673372
41.93364584
41.64987056
39.88937237
39.08830627
39.47402067
38.49642414
38.06786308
38.23365256
37.57363393
37.3452426
48.94541424
46.29346789
45.17960861
43.40296536
40.97518306
40.15966402
40.40968343
39.0962164
38.64293993
38.7508941
37.89820662
37.6530746
51.53341564
48.48024847
47.78557927
44.77065839
41.92404475
41.22443044
41.24420876
39.65917439
39.24065654
39.23985805
38.21231796
37.97688669
52.73723959
49.71689927
49.37387286
45.70679215
42.66694631
42.1291345
41.9119991
40.12879417
39.78405923
39.65418281
38.48773082
38.28529701
53.23156758
50.80844275
50.68607619
42.81424888
40.22836648
38.54677383
47.26540436
48.65769604
49.84042352
43.48064817
44.29448406
43.84075153
51.30004697
53.34438914
53.80932747
50.20704252
51.20168561
49.18225825
53.20450657
54.86768841
55.09076559
53.93377226
54.27828393
52.22699228
53.96393462
54.9708602
55.01689386
54.67581899
54.74525102
53.57576063
55.04848327
55.09144427
54.12755844
52.02224974
53.06717365
53.20211491
41.34417075
53.81955897
51.21884644
42.15678239
42.31012184
42.93908661
40.06442391
41.2930718
40.99200057
51.14650892
51.89739896
52.50038545
45.47941889
46.24954136
45.67055806
44.83949142
43.56353114
45.18491198
41.96502955
42.96438531
43.66087226
41.56790706
42.25843368
41.39346503
56.0352378
54.38639653
54.04476935
58.38705151
58.27193983
57.68056051
47.51557744
46.60870232
49.35678104
44.1484173
45.56554163
46.10326213
44.3373238
44.97157949
43.63697443
54.6338892
52.65573455
52.84624173
51.50229594
51.37180397
54.11723904
49.20071368
48.6964718
51.73704559
45.81999241
47.41482079
47.7471954
46.59376583
47.02577493
45.45786596
56.0687319
54.23565989
54.54288732
50.5896153
51.43055662
55.47494412
39.55880763
39.52533029
39.9205902
56.91670308
53.81846588
54.92516244
56.20182004
56.32710541
56.81597157
57.36468433
58.4969137
58.47208808
53.0906182
53.69121022
52.55571479
46.89876987
48.23098531
46.71046415
51.60459454
50.2110339
49.55465594
53.61187415
53.12154735
55.32380255
54.3565013
51.81490774
51.65424024
53.70561995
53.3979181
55.45079057
52.54124064
53.1702953
50.67751167
56.42439637
56.1596466
56.06127495
56.7960953
56.76016144
55.93024548
56.8470066
54.45670842
54.03564226
55.97642189
55.76944802
57.02288462
49.35984
51.49534714
52.31175928
54.99423732
49.21187798
50.29543604
52.97640359
53.08140825
54.88053803
54.66894215
54.83041665
53.05889
56.34797487
56.90082955
56.90735141
55.75471805
55.70380338
56.44839672
55.69255616
56.84518997
56.8247548
56.91423621
56.91728994
55.86872597
52.46985396
54.36594977
54.61021273
56.66970022
55.93200972
56.07617073
54.76954117
55.00145966
56.35019904
55.22734445
39.66821515
48.91553242
53.10695442
50.24880285
50.53884908
49.87330122
52.81223639
46.91199892
48.52272353
48.70969341
48.0452505
48.29525234
46.68203218
48.32203729
40.68247835
41.94923407
44.50959181
44.92133267
48.17551991
46.62607862
45.00438274
43.68481572
48.82397987
48.15839919
49.38601708
44.50541594
45.02621838
46.42419097
46.6822017
43.31804751
43.84445876
40.72315791
40.9307171
43.82578492
54.89303692
54.93937561
53.91248403
56.81470589
56.08348831
55.78613373
56.08923995
56.08453766
56.82444938
56.66080459
55.78147571
55.76523409
55.79075147
55.78741117
56.68513268
53.66288245
54.79623207
54.85042369
42.90586872
43.75991385
44.00695885
44.48199144
41.75392798
42.76744691
42.56290054
42.89846296
42.89089177
41.75980509
50.28855772
53.1816137
49.92918743
51.88585728
47.82426706
46.07906146
56.14022375
54.55797067
58.6260259
46.48726277
47.96537254
49.67721317
56.88880643
56.71715091
57.19427176
57.51168771
57.36230696
57.20338401
52.19351757
52.20288563
54.39587883
54.28645391
51.97102436
52.1387811
53.55995015
53.9266387
55.96546671
41.29418784
42.75901407
42.36708385
45.88224083
45.39360421
41.83220289
42.04359868
41.91968983
41.87785829
55.61725568
51.72410367
52.09294874
51.49919097
46.55302205
47.5671004
42.58109847
43.75368713
50.78647713
57.24694605
57.5485701
55.90299321
54.72716677
56.42600918
56.87653539
52.87760428
52.69974331
54.92104234
55.25487722
53.13631431
53.03570239
56.58262423
56.49609098
56.37752307
54.12045804
55.36776508
55.52531406
54.97408148
55.19144511
53.92223167
54.77803789
55.91297717
56.01652692
55.66788861
55.79777272
54.63814034
55.99283635
56.71386569
56.65522287
55.15666637
54.79972965
56.96146336
52.00977217
53.27371361
53.61009889
52.50982685
52.90388575
51.65921689
53.21015911
54.49516242
54.75487678
53.93503535
54.2171569
52.9402561
57.0996629
55.72866562
55.41907975
47.66908589
48.77155474
55.69701663
55.21413781
53.59934396
53.72484455
44.1777972
51.86551269
52.25728991
52.91593809
52.43687755
44.75293938
56.42304309
55.21858601
55.42157218
42.23746418
40.53143332
40.57652383
42.00433645
41.37966684
40.89154614
48.53283607
40.00185629
42.75158507
41.67687664
43.35780712
44.2362753
44.76321734
44.27989975
43.21651505
47.14632119
44.67284809
45.65939804
46.11359265
47.47756327
43.4242146
44.47361266
44.1070427
44.75326738
44.66808586
43.53619361
55.25295579
54.7800239
56.27995399
57.71069703
58.11095027
57.9657186
52.31663815
52.47638358
54.54330244
44.90691392
48.57011074
48.28911384
49.43928329
48.98954926
45.03082499
54.07152289
51.2714512
51.2647025
58.30164024
58.47309577
57.16234893
51.49574723
50.84224965
52.56710786
48.66284525
49.59411511
50.14501278
48.44899212
49.03880528
48.16907911
50.48815242
51.64022082
52.09013696
50.66596829
51.16919457
50.05778484
54.99202977
52.61947967
52.06672913
52.15548357
51.98574849
54.45837474
55.30847298
53.12961726
52.98061969
45.53233758
49.95809286
49.75657901
50.25240593
50.10725552
45.61481822
54.9456279
53.15730761
53.24399879
56.88544764
56.89197396
56.37945846
55.66344079
56.53027021
56.53296326
56.50583023
56.52077286
55.63792095
56.8753378
56.86291216
55.70245824
55.22803887
56.25779655
56.31851721
56.10788423
56.1882309
55.13733906
55.51080306
56.45393406
56.48387872
56.37152883
56.41696995
55.4573714
55.83581552
56.89854705
56.89090139
55.60744578
55.78114384
56.62049201
48.04665109
53.75885866
53.40469514
54.47370162
54.1295362
50.36021128
51.66461579
54.65882776
61.03918359
39.83118378
39.96527217
39.78977721
40.73827829
40.23106637
39.78561255
50.82215696
42.82887712
40.42748186
40.59516238
40.31053695
40.31335033
41.74746161
44.54670997
41.29796895
41.71017299
54.43677738
57.04001988
58.95929039
54.31793325
56.2058853
53.65220188
59.9047047
61.38950122
58.05292499
50.08427349
51.74836725
53.40665341
49.4385095
50.71412048
49.42257834
55.50500645
52.6090521
51.43322068
57.01772495
56.25978817
55.8303811
57.76539906
57.61018934
57.61093922
48.18947417
48.14559191
45.41135839
54.42331531
52.2095848
52.243213
51.40427642
51.68533987
54.201505
43.64761968
43.23614266
41.25985621
50.64076959
47.28941114
47.74692704
46.19190323
46.75076648
50.2868836
47.52640181
43.41248986
43.85129662
42.85058409
43.03780339
46.98021967
49.28571555
45.1333436
45.62364427
44.30704795
44.69833759
48.85087627
42.29849144
41.89085321
41.86768676
39.75269765
39.97661819
44.34572279
40.95534026
39.64468353
39.6977339
39.69918211
39.62330272
40.43185962
56.24258045
57.8235722
58.07635916
55.35911105
55.91498841
54.28199104
60.1961618
58.13036548
57.57505369
58.96626213
58.61419606
60.64609862
54.79411817
52.51778451
52.33624056
53.03890013
53.13576767
55.30160882
44.01994293
43.01194486
42.77680897
43.73206269
43.37647764
43.85932781
45.71469746
42.73936641
42.77931846
42.67068084
42.6950407
45.24310864
40.66501527
40.53400722
41.77257372
40.98222868
41.04037878
40.79432762
41.68312893
40.8925403
41.0774317
39.83532114
40.26444897
40.90077768
39.28715392
39.75273285
39.40645022
48.87447907
49.01561803
47.43211937
56.96942489
56.10118043
56.09223798
56.13127336
56.11081731
56.86000361
45.19656995
46.23588772
46.67273918
45.64736549
46.15804101
44.99663694
51.31304193
47.34598718
47.38078564
48.36200878
51.34450646
59.01782305
45.56198447
46.65171876
46.32055093
46.99287466
46.94226232
45.58911483
42.29120862
42.06615278
41.55612322
43.37263433
42.58906646
42.78007908
50.76710565
51.3227798
50.84424305
55.03960982
52.96218603
52.19616229
54.48148891
53.68340603
55.88510926
42.90615044
40.42902893
40.79055165
39.84332093
40.05882244
42.30520157
40.36999941
39.52669073
39.64572358
52.30534511
55.0577125
54.77568814
55.53960199
55.30839611
52.85796713
58.39901168
55.90905104
55.18888219
57.05736073
56.47037069
58.81378697
52.92305018
54.25009163
54.81334223
41.33426732
40.10994195
41.76519857
41.45112177
42.77692334
42.3954147
40.20571227
48.51242187
45.76426815
45.64474626
46.61403714
47.25238067
47.85644544
48.34700609
47.36784764
46.7192686
42.21732497
42.72946598
46.15964513
40.30703976
40.46752263
40.35870607
40.95994101
40.71441052
40.18455012
43.00501546
43.37920532
43.26060245
43.70665142
43.64307211
43.12857748
45.13180041
44.17292471
44.69498879
51.77727131
49.168876
49.45455363
48.24839876
48.65955754
51.47988004
41.5004577
44.72478324
44.20461302
53.33972364
53.46125253
55.13574295
46.18151528
50.72093816
50.45166291
51.3520609
51.06027002
46.68206412
44.66733798
45.47292895
45.15812889
46.10182868
45.86660809
44.94716523
48.49608912
46.70443715
47.30830471
37.00449366
37.00818397
37.00165305
37.00718363
37.00188976
36.99904915
36.98848529
36.9717225
36.98867849
36.95345935
36.93635936
36.97787142
36.92091233
36.90783953
36.9683831
36.89778671
36.88808541
36.96188406
36.88085227
36.87554905
36.95802106
37.01636154
37.02189931
37.01368282
37.025217
37.0225622
37.01483232
36.99945259
36.98967127
36.98765958
36.9414875
36.92254173
36.93179092
36.87475381
36.8592906
36.88163825
36.77407254
36.75092417
36.81505402
36.73236765
36.71804469
36.79459111
36.70771558
36.70245623
36.78189629
37.08421243
37.09245578
37.06623082
37.09490925
37.0890254
37.06586736
37.05252867
37.0344289
37.01731495
36.96386768
36.93547931
36.92654861
36.846432
36.81505327
36.81780564
36.7162081
36.64979847
36.69428953
36.60970461
36.57996036
36.64507723
36.5583372
36.54559107
36.61667292
37.27058641
37.27886248
37.21646601
37.26819494
37.25383253
37.20214195
37.19053205
37.16117568
37.11895002
37.05506
37.01495679
36.98757395
36.88536557
36.84125641
36.82882196
36.72987923
36.60862574
36.61837271
36.53135263
36.4738676
36.52135955
36.43219148
36.40508506
36.46647008
37.68508019
37.69459105
37.56172346
37.65328795
37.61093683
37.51458937
37.48763358
37.43340627
37.34853754
37.25326562
37.19072252
37.13432705
37.00075992
36.9385987
36.906921
36.80245819
36.6262796
36.61344892
36.51296331
36.4102266
36.43491296
36.33591615
36.28439138
36.33724552
38.67444895
38.67466636
38.35632547
38.48506784
38.37227267
38.18313374
38.0680056
37.95364827
37.79263767
37.61874109
37.51358189
37.41684296
37.21427642
37.12193404
37.06724127
36.93930848
36.69071946
36.65228185
36.5334576
36.3948368
36.39426082
36.27484068
36.18785983
36.22811991
40.48358873
40.51829531
40.25661987
39.10997614
38.85024011
38.58125154
38.20464196
38.02231621
37.87755936
37.54391013
37.40390969
37.32501416
37.13950345
36.79870924
36.73934475
36.59003415
36.4111802
36.39999451
36.24758017
36.11777953
36.14575746
43.38612654
43.07157169
42.58167179
40.72536588
40.1856391
39.81498865
39.01411721
38.71615567
38.52643174
37.98370139
37.78031927
37.68030798
37.38904603
36.94531071
36.86741767
36.67532004
36.4473849
36.42711301
36.24605093
36.07009072
36.08873363
48.01070802
47.09808342
46.63621118
42.56016268
41.70902933
41.32902612
39.94389578
39.51390409
39.3063628
38.49108151
38.21525573
38.10309611
37.66340187
37.11469355
37.0279962
36.77873695
36.49752393
36.47056916
36.2582524
36.04094246
36.0528431
51.04684272
49.95133927
49.66907549
44.14312976
43.08104687
42.76419398
40.8474039
40.29891593
40.10361213
38.99997717
38.65328803
38.54661188
37.93217232
37.28590189
37.20081823
36.88769139
36.55588874
36.52557833
36.27703949
36.02467692
36.03249086
52.52192663
51.4731659
51.32598649
45.2895262
44.1306578
43.89859371
41.60432648
40.97073457
40.81005777
39.45815961
39.0529344
38.95997411
38.16954281
37.44138672
37.36644352
36.98954507
36.61390675
36.58438751
36.29899191
36.01803176
36.02225512
53.14435025
52.16717288
52.11941682
46.03632164
44.85055071
44.70007886
42.17296662
41.48549456
41.37032693
39.82623344
39.3780192
39.30385542
37.50933888
36.63899312
36.01708472
40.49053302
46.16139653
45.66111733
46.38295343
49.37551363
49.05045254
50.12962273
51.19142301
51.01904235
52.09569675
56.96029988
56.76703615
56.83793822
55.10832361
54.84704356
55.91317012
56.56773284
56.8323033
56.84145189
56.5272842
56.53987962
55.83003614
56.54584643
55.53622147
55.30845123
56.85714347
56.86413655
56.84546015
56.85768464
56.86227141
56.51847614
55.72272699
56.50021376
56.50780896
56.89044164
52.04364396
51.98421179
52.96267801
45.12482827
44.69224699
44.23309932
56.7891013
56.81921758
56.81140307
56.76119203
56.77057294
56.85768111
56.60329755
56.84362442
56.84825676
56.81545598
56.81768876
56.7283494
41.73777828
42.03390062
42.07837744
42.06030495
42.07579185
41.84325028
48.50892073
47.1040747
46.26932752
56.71452952
56.73715135
56.29123691
56.1136256
56.66081584
56.6855378
56.47226803
56.33816056
57.12617334
57.17276148
56.68546409
56.5758464
53.86140225
53.94084371
55.40209368
43.054936
46.96417984
46.5052107
49.57999748
49.19411268
45.87251963
53.01894414
52.73596475
53.19130636
54.30068021
53.56222508
53.24621997
56.51319522
56.50115422
55.74683293
55.80308521
56.53476959
56.52041339
47.38976195
50.34441166
49.95386245
42.15045601
41.71887179
41.88232608
56.91417144
56.74340435
56.75180921
54.16244249
55.12422785
55.15954973
41.39374731
41.91760828
41.77613632
43.76539948
43.3585107
43.48602027
56.84674635
56.43067967
56.5403426
46.03563996
46.62914615
46.08130894
45.82355723
45.12719667
45.2622453
37.01881653
37.00863073
37.04658155
37.03239462
37.02667709
37.03752074
37.03555643
37.05085812
37.01691302
37.02479098
37.02596338
37.04740191
37.03327775
37.03679526
37.01853642
37.0278333
37.04104363
37.01033228
37.01776227
37.00960065
37.00425909
36.99480755
37.00771175
36.96078603
36.97954286
36.98734457
36.9723942
36.97471979
36.95843232
36.92176785
36.91990727
36.94248772
36.87811222
36.89964797
36.89883103
36.91765404
36.90678312
36.8893858
36.82709205
36.84092123
36.86031987
36.80884865
36.82521314
36.80763948
36.8705485
36.8465036
36.8334307
37.10468989
37.07441394
37.16643318
37.12493906
37.11606182
37.1286257
37.12907507
37.1702176
37.07101349
37.09721733
37.09746908
37.15468138
37.11909023
37.12561509
37.09402059
37.10852252
37.14253281
37.0583563
37.08020434
37.06760377
37.08425401
37.05650422
37.07681
37.0071198
37.03344328
37.05854043
36.99858049
37.01369149
36.98950997
36.96546052
36.94834993
36.97899666
36.88322803
36.91662962
36.93092131
36.90105109
36.90653223
36.87614696
36.82121428
36.81689209
36.85031489
36.7510739
36.78358908
36.78526127
36.79415879
36.785795
36.75950829
37.32211815
37.25528402
37.44577711
37.3541411
37.34365134
37.34537078
37.3514959
37.44908245
37.21794906
37.28169676
37.27775724
37.39960277
37.32794418
37.33957684
37.27760353
37.30521082
37.37677019
37.18699859
37.23721171
37.21602182
37.27429715
37.21287674
37.24689766
37.13560845
37.17575101
37.23170516
37.09004488
37.12857049
37.09294998
37.08688964
37.04878441
37.09323224
36.95395906
37.00203877
37.03575734
36.9497904
36.97332742
36.92971531
36.88028422
36.85847987
36.90610347
36.76528625
36.8115768
36.8291477
36.78946894
36.79842105
36.75650791
37.80530331
37.66235725
38.06946933
37.87188109
37.84731039
37.82025995
37.85102763
38.0831469
37.55110782
37.69974647
37.69349953
37.91724618
37.78625136
37.81344899
37.66272267
37.7250072
37.86824506
37.4784747
37.57846071
37.53690642
37.65444401
37.53458891
37.59997168
37.39816476
37.4672688
37.57517875
37.29910442
37.37552576
37.31519014
37.33128983
37.25614673
37.32711795
37.11405974
37.18516458
37.25129227
37.07802727
37.12776643
37.06385435
37.01842525
36.97575752
37.04432446
36.84264955
36.90862503
36.94489112
36.85101458
36.8775316
36.81749862
39.04099476
38.64072847
39.87419405
39.15604511
39.14248025
38.942923
39.04336931
39.72871958
38.31007699
38.69298596
38.64217419
39.05770464
38.76618401
38.90168834
38.42329598
38.5770081
38.89569184
38.0770812
38.28743628
38.18127597
38.34630186
38.13582877
38.27753536
37.86949827
37.99994698
38.1832716
37.69808321
37.84029498
37.72839226
37.74322415
37.62197638
37.74336115
37.39394921
37.50531347
37.61210254
37.32606811
37.4113103
37.31096438
37.25094953
37.18403833
37.28722811
36.98900667
37.08475476
37.14180047
36.98573089
37.03283825
36.94627939
41.35643716
40.97544669
40.93978585
40.8956153
40.93969808
41.44151042
40.23726496
40.58838388
40.56693132
39.46985152
39.14433639
39.46426846
38.61368438
38.86388293
39.13657542
38.38585647
38.61611306
38.40219149
38.34695817
38.17893752
38.38618529
37.81034264
37.98775218
38.13131152
37.72762898
37.85228946
37.69311493
37.58048423
37.49065933
37.64503331
37.20906068
37.34543327
37.42306571
37.20450287
37.27209273
37.14760665
44.11296713
43.57700327
43.94559036
42.73515938
43.14108559
43.61232406
40.9472578
40.56043331
41.18422169
39.61157747
40.04593273
40.3719266
39.42447001
39.73428972
39.35007939
39.11009342
38.90512922
39.23527107
38.34580371
38.61097338
38.78671277
38.28679078
38.44830529
38.20544762
37.99430076
37.88423302
38.10469658
37.49434877
37.68141696
37.77496773
37.50672718
37.59269493
37.41896568
47.95124406
47.52972352
48.48320934
45.92359753
46.67336535
47.05972031
45.8599676
46.27938744
45.59231645
42.43096168
42.07504472
42.99222934
40.70259704
41.32763421
41.63734436
40.69244147
41.01592605
40.43768926
39.91601044
39.70900621
40.16921697
38.9439719
39.30455951
39.48138179
38.95621208
39.13425889
38.79564457
38.43892654
38.32658101
38.61998881
37.8164435
38.05966094
38.15575953
37.8681393
37.96395755
37.73464003
50.44211572
50.19993709
51.29842355
48.27305649
49.18659011
49.4258333
48.67452588
48.94803707
48.02885154
43.64738651
43.37463438
44.47215636
41.70380366
42.46797595
42.71448998
41.92669304
42.20716941
41.47442835
40.65105989
40.47388141
41.04640141
39.52248663
39.97004405
40.12684606
39.64715208
39.81474314
39.384979
38.86236377
38.7596185
39.12151672
38.1352298
38.43200831
38.52107985
38.24790676
38.33978368
38.05604958
51.70458356
51.57541961
52.62211189
44.52826566
44.33743622
45.51269216
42.49784176
43.34707787
43.52979655
42.94202772
43.15861852
42.32672593
41.24659061
41.11203365
41.76038905
40.02233586
40.5365878
40.65661031
40.26665601
40.41006649
39.908456
39.22558884
39.14320246
39.56041045
38.42362894
38.76559013
38.8379063
38.60594349
38.68665102
38.35568987
43.68867387
43.83491295
42.94988404
40.76829349
40.87259671
40.32206111
38.90660272
38.97201787
38.6043859
49.06401522
48.33035179
47.90377655
49.01948645
48.63473182
49.46144288
53.51451253
52.49625121
52.31366358
52.82492659
52.66431672
53.66002508
50.55532161
49.66839377
49.31753247
50.26709141
49.95548195
50.88802446
54.91099563
54.18596904
54.1428814
54.06312397
53.11262625
52.97404857
53.36504669
53.24432367
54.16703048
40.87769023
40.50230022
40.45046835
40.05943644
41.16995781
40.73698461
40.76363656
40.55319031
40.63489355
41.08529042
44.38709553
44.98655698
45.43410065
44.07069891
44.5374708
44.04774535
45.82515559
45.15673971
44.62889404
47.23077279
48.08316854
48.39566721
47.41602523
47.76548687
46.93613068
49.77027234
48.71297002
48.33979159
49.06178233
49.99788521
50.17382105
49.6253935
49.83202027
48.86968602
51.93176449
50.85215151
50.64673041
50.86956759
53.23009544
53.08695074
53.55383404
53.41023792
51.17920776
56.62335691
56.70787989
56.93759717
54.23080186
55.94346296
55.74589254
56.2709997
56.11201573
54.60023659
47.3483398
46.83082622
46.33637114
47.59438184
47.13840939
47.80031993
55.63361293
54.62237578
54.33226881
52.76796879
51.73172708
51.50629886
52.12649162
51.91897683
52.96691592
56.80391736
56.80833144
56.48163427
56.20159187
56.55850911
56.66918276
56.44360248
56.52038927
56.10788508
55.88544509
56.56425359
56.58204043
55.90629196
55.70910042
56.70582061
55.91309438
56.27054411
56.37004938
56.01237597
56.15670598
55.83388612
56.93742438