/*--------------------------------*- C++ -*----------------------------------*\
| =========                 |                                                 |
| \\      /  F ield         | OpenFOAM: The Open Source CFD Toolbox           |
|  \\    /   O peration     | Version:  v2012                                 |
|   \\  /    A nd           | Website:  www.openfoam.com                      |
|    \\/     M anipulation  |                                                 |
\*---------------------------------------------------------------------------*/
FoamFile
{
    version     2.0;
    format      ascii;
    class       surfaceScalarField;
    location    "3";
    object      meshPhi;
}
// * * * * * * * * * * * * * * * * * * * * * * * * * * * * * * * * * * * * * //

dimensions      [0 3 -1 0 0 0 0];
oriented        oriented;


internalField   nonuniform List<scalar> 
6464
(
0
0
0
0
0
0
0
0
0
0
0
0
0
0
0
0
0
0
0
0
0
0
0
0
0
0
0
0
0
0
0
0
-8.032748977e-07
0
-6.179725168e-09
6.828935147e-07
0
0
0
0
0
0
0
0
0
0
0
0
0
0
0
0
0
0
0
0
0
0
0
0
0
0
0
0
0
0
0
0
0
0
0
0
0
1.897060276e-06
-0.0002314701794
-4.333900285e-06
0.0002293118221
7.822188745e-06
-0.0001847543886
-1.452903459e-05
0.000159422537
3.571304154e-06
-7.1403542e-05
-9.55344741e-06
4.455135572e-05
0
-1.320414492e-06
-2.313826595e-07
0
0
0
0
0
0
0
0
0
0
0
0
0
0
0
0
0
0
0
0
0
0
0
0
0
0
2.332132655e-05
-0.0008707772316
-3.427434282e-05
0.0008703750121
4.872306625e-05
-0.0007891450432
-6.49047429e-05
0.000736407601
4.130684327e-05
-0.0005174086273
-5.564858864e-05
0.0004315215464
1.60168502e-05
-0.0001807051565
-2.575139248e-05
0.0001122653158
0
-2.76843592e-06
-6.613468894e-07
0
0
0
0
0
0
0
0
0
0
0
0
0
0
0
0
0
0
0
0
0
0
7.667647161e-05
-0.001609911401
-9.120134707e-05
0.001611276806
0.0001240598593
-0.001526846248
-0.000145315275
0.001466679078
0.000107102893
-0.001184123996
-0.0001263688228
0.001058947103
7.5106623e-05
-0.0006566665419
-9.04824363e-05
0.0005172826805
1.615805645e-05
-0.0001550466281
-2.414303222e-05
7.689833098e-05
0
0
0
0
0
0
0
0
0
0
0
0
0
0
0
0
0
0
0
0
0
0.0001214450401
-0.002041842328
-0.0001242872433
0.002042044984
0.0002094140514
-0.002022043408
-0.0002244684423
0.001990664778
0.0002362133079
-0.001818485824
-0.0002530381155
0.001690475195
0.0001153342541
-0.001182319835
-0.0001281996969
0.0009974933418
4.904493598e-05
-0.0004547239639
-5.689033979e-05
0.0003028721029
-2.056466877e-05
1.859976301e-06
-3.19496913e-06
3.13634851e-07
0
0
0
0
0
0
0
0
0
0
0
0
0
0
0
0
0
-0.001069178572
5.867402942e-05
-5.89115228e-05
0.001069416066
-0.001102016266
0.0002920073562
0.002218531795
-0.001126082994
-0.0001330631276
-0.0001493767639
-0.002103116672
0.0002640643267
-0.0002801102556
0.00202343241
0.0001690776849
-0.00158980696
-0.000182472552
0.001394874904
7.672453001e-05
-0.0007476637524
-8.185170506e-05
0.0005492221503
-0.0001095827422
1.294792894e-05
-1.637040249e-05
3.472828044e-05
0
0
0
0
0
0
0
0
0
0
0
0
0
0
0
0
0
-0.001142203192
0.0001198219161
-0.0001180761242
0.0011404574
-0.002262005871
0.0003101835154
-0.0003162812761
0.002217238075
0.0002014328974
-0.001827989261
-0.0002058449555
0.00163111079
9.394533189e-05
-0.0009501422712
-9.688261597e-05
0.0007259734881
-0.0001976215258
2.381736327e-05
-2.696707148e-05
8.652364357e-05
0
0
0
0
0
0
0
0
0
0
0
0
0
0
0
0
0
-0.001183276854
0.0001145076467
-0.0001138942918
0.001182663499
-0.002366404395
0.0003225783946
-0.0003234088895
0.002338132928
0.0002214255967
-0.001981523097
-0.000224618133
0.001787155676
0.0001036038164
-0.001087572859
-0.0001054042471
0.0008483198325
-0.0002523661944
3.068523345e-05
-3.188879787e-05
0.0001226480559
0
0
0
0
0
0
0
0
0
0
0
0
0
0
0
0
0
-0.001226013329
0.000112099696
-0.0001116646488
0.001225578282
-0.00245098702
0.00032039768
-0.0003184461106
0.002417411298
0.000222393833
-0.002036964797
-0.0002210263285
0.001833914845
0.0001041210681
-0.001110304224
-0.0001036270636
0.0008651577525
-0.0002563390381
3.101382468e-05
-3.063981592e-05
0.0001240230834
0
0
0
0
0
0
0
0
0
0
0
0
0
0
0
0
0
-0.001271283691
0.0001103638011
-0.0001099379023
0.001270857792
-0.002533109931
0.0003069994838
-0.0003015388592
0.002472489823
0.0002069005677
-0.0020095092
-0.0002067396502
0.001799616247
9.557585346e-05
-0.001046644027
-9.357210145e-05
0.000799882782
-0.0002095317968
2.506656433e-05
-2.378207587e-05
9.008147758e-05
0
0
0
0
0
0
0
0
0
0
0
0
0
0
0
0
0
-0.001313798961
0.0001084533402
-0.0001083468021
0.001313692423
-0.002578805128
0.0002846515967
-0.0002773573968
0.002478156069
0.0001875912493
-0.001934131712
-0.0001737105111
0.001690544197
8.275513855e-05
-0.0009099046886
-7.68316642e-05
0.000668926795
-0.0001401550775
1.665958076e-05
-1.445164879e-05
4.574592127e-05
0
0
0
0
0
0
0
0
0
0
-0.0001094492195
0.001175486645
0.0001101040108
-0.0005898321751
-0.0005863092608
0.0001201148873
-0.001147068667
-0.0001152494125
-0.0001049285731
0.001221569895
0.0001055330243
-0.000611738945
-0.0006104354014
-0.0001074574635
-0.0005934603325
-0.0005918082775
-0.0001037337321
0.001264325349
0.0001029097128
-0.0006322412208
-0.0006312601093
-0.0001044970627
-0.0006131722892
-0.0006132725505
-0.0001007033102
0.001307382001
0.0001015699213
-0.001308248612
-0.001271874949
-0.0001031424742
-0.001314081095
-0.0001004211759
5.115585871e-05
-5.083572664e-05
0.001141808012
0.0001182412723
-0.001139934397
0.0001276332441
-0.001093343342
-0.0001363061682
-2.09401214e-05
0.0002920182788
2.107850072e-05
-0.0002921566581
0.0005789485755
4.963377509e-05
-0.0005805424074
-4.803994325e-05
0.001175022223
0.0001149720685
-0.0003139534534
0.002338760431
0.0003169695876
-0.002342412987
0.000319829769
-0.002275460072
-0.0003151591271
-2.325648119e-05
0.0003003796643
2.304406863e-05
-0.0003001672518
2.045620191e-05
0.0002957398864
-0.0002955837354
-2.061235289e-05
0.001221257496
0.0001124120952
-0.0003101983484
0.002432717481
0.0003112458146
-0.002433895291
-0.002367817785
-0.000312762158
-2.002759638e-05
0.0003118241897
2.014194514e-05
-0.0003119385385
2.176541779e-05
0.0003061679722
-0.000305549962
-2.238342799e-05
0.001264420756
0.0001102683943
-0.0003032239021
0.002512103055
0.0003061154186
-0.002519837913
-0.002452577376
-0.0003090354326
-3.800976144e-05
0.0006436990462
3.824719238e-05
-0.0006439364771
3.920233783e-05
0.0006351401018
-3.783644846e-05
-0.0003187567535
-0.0003177492376
-0.0003359343319
-1.261783879e-05
0.0003349313091
1.362086157e-05
-3.669104921e-05
0.000666144346
3.650083788e-05
-0.0006659541347
3.753201475e-05
0.0006563906647
-0.0006563927394
-3.75299401e-05
0.0002955568488
2.030201763e-05
-0.0002954026645
0.000291548815
-0.0002918030014
-2.068593492e-05
0.0001121298226
0.001162746127
-0.0001108787093
-0.0005838110587
-0.0005801861817
4.567841645e-05
-0.0002911234424
-4.463705139e-05
0.0005816308923
-2.109126294e-05
0.0002956362385
2.101187324e-05
0.000305273589
2.10874307e-05
-0.0003045956019
0.0003016389305
-0.000301221911
-2.367350065e-05
5.413785478e-05
0.0006027154283
-0.000602838006
-5.401527707e-05
2.330882376e-05
-2.342373666e-05
0.0003017538434
-2.16726736e-05
0.0003056726967
2.127356593e-05
-2.115045342e-05
0.0002957990769
0.0003005762937
2.311219437e-05
0.0006004076215
5.414413319e-05
-0.0006004138999
0.0006328587473
3.906616637e-05
-0.0003165440179
-0.0003161785579
0.0003120720393
-0.000311991843
-2.010779265e-05
0.0001029562171
0.001247160167
-0.0001031249152
-0.0006237376406
-0.0006232538283
4.137040388e-05
-0.0003115384904
-4.088213665e-05
0.0006231222625
-4.072522226e-05
0.0006327778246
4.080614496e-05
-2.206539481e-05
0.0003065606934
-0.0003110070836
0.0006222550782
2.059077139e-05
2.135582754e-05
0.001241893667
0.0001040419745
-0.0006220986571
-0.0006208807673
0.0006553734
3.758299295e-05
-0.0006554243782
0.0006455958461
-0.000645596203
-3.800940461e-05
1.016598882e-05
0.0003338979254
-0.0003327597428
1.206826118e-05
-0.0003378366043
-0.000666787236
0.0003338896637
-4.944139496e-05
0.0002856878671
7.88719047e-07
-0.0002370351912
0.0002974425528
2.47311867e-05
-0.0003015850934
-2.058864614e-05
-9.999670072e-05
0.000322479445
4.244872212e-05
-0.0002649314664
0.001306993117
0.0001088422239
-0.0002905416028
0.002573056874
0.0002951520069
-0.0026094775
-0.002543377671
-0.0003018686425
-9.846268898e-05
0.0003318266607
3.869946436e-05
-0.0002720634361
-3.003346695e-05
0.0006606062315
3.04457346e-05
-0.0003306516983
-0.0003303668008
1.556405202e-05
0.0003280834245
-0.0003280262545
-1.562122204e-05
5.476381479e-05
-4.999110829e-05
0.000574175869
-0.0002906568851
0.0005814398617
4.691371865e-05
0.001156218525
0.0001099693706
-0.0005780753395
-0.000575982734
0.0003282953202
1.582540631e-05
-0.0003285566745
1.922690767e-05
0.0003260299216
-0.0003269818185
-1.827501078e-05
0.0001025146065
0.001290683047
-0.001291119815
-0.0001020778387
4.011036469e-05
-3.988183292e-05
0.0006453673143
-3.942969263e-05
0.0006552133822
3.958971037e-05
-4.030384829e-05
0.0006347187278
0.0006437057799
4.010363101e-05
0.001286740398
0.0001026489095
-0.001286874701
0.0005458830735
2.372844763e-05
-0.000545872938
-2.373858312e-05
0.0005762171347
5.045366601e-05
-0.0005770370256
0.00114887952
0.0001196966944
-0.000576459887
-0.0005530146353
-6.026683211e-05
-7.883486004e-05
3.62954266e-05
-3.705488625e-05
0.0005466425332
0.0003639813709
-0.0004134227658
4.502755433e-05
0.0005808609756
-4.38321305e-05
-0.0002909790452
-0.0002910773542
2.417407355e-05
4.610294612e-05
0.0002937043512
2.189811152e-05
-1.981508337e-05
0.0002953595247
0.0002926873069
1.717463375e-05
0.0005774221596
4.32837499e-05
-0.0002884340298
-0.0002872443254
2.057610827e-05
0.0002982185715
-0.0002982608615
-2.053381826e-05
0.0002982786176
2.064583078e-05
-0.0002983483401
1.968626931e-05
0.0003099636991
-0.0003098566307
-1.979333773e-05
0.0003105125528
2.011751489e-05
-0.0003109437984
0.0003215740833
-1.922587611e-05
1.69566021e-05
-0.0003193048093
0.0003276999675
-0.0004161458111
-1.155085715e-05
3.861341027e-05
0.0006391837736
-0.0006391751244
-3.862205951e-05
2.24349237e-05
-1.796740439e-05
0.0003232324482
-1.948088079e-05
0.0003222014493
1.885351483e-05
2.013283856e-05
-4.193943405e-05
0.0003141440839
-0.0002923374884
0.0003206943299
2.422003881e-05
0.0006382427501
3.868348522e-05
-0.0003192332796
-0.0003190795455
-2.892168261e-05
0.0006658077037
2.911742929e-05
-0.0006660034504
0.0006618116458
-2.95808471e-05
-0.0003314143593
-0.0003308499064
-0.0004280183293
-8.19900058e-06
0.0003377546409
2.141232482e-05
0.0002939824095
-0.0002933083932
-2.20863411e-05
0.0002929051839
2.146947149e-05
-0.0002929623306
1.876610769e-05
0.000304276944
-0.0003041801047
-1.886294702e-05
0.0003040570895
1.8862573e-05
-0.0003041535548
-1.991422117e-05
0.0003039068218
2.006448885e-05
-4.717321468e-05
0.0006061351808
4.730835459e-05
-0.0006062703207
4.753432159e-05
0.0006031384552
-0.0006032035677
-4.746920901e-05
-4.693106055e-05
0.0006119230902
4.698847103e-05
-0.0006119805007
0.0006080546295
-0.0006081224104
-4.710543379e-05
-1.989406162e-05
0.0003042567845
-2.107496601e-05
0.0002981732674
2.118031626e-05
-4.778304716e-05
0.0005955513384
4.784521057e-05
-0.0005956135019
4.80975481e-05
0.0005921469172
-0.000592210647
-4.80338183e-05
0.0006005972259
4.759490111e-05
-0.0006006578054
0.0005967570501
-0.0005968034598
-4.773663741e-05
-2.109587714e-05
0.0002982394826
2.024832469e-05
0.0003146662108
-0.0003147647693
-2.014976621e-05
0.000309720524
1.469983175e-05
-0.0003042875172
0.0003142363058
2.04759595e-05
-0.0003144639406
-0.0003222782526
-2.020544314e-05
0.000323002815
-0.0003264929391
-1.810520388e-05
0.0003258493777
1.874876529e-05
-3.76979204e-05
0.0006499918941
3.802312347e-05
-0.0006503170971
2.019785486e-05
-0.0003274638863
-0.0003203178621
-2.118626667e-05
3.521299678e-05
-0.0004632313261
0.0006663923072
-0.000666144971
0.0003474537049
1.898503307e-05
-0.000366438738
-1.997701645e-05
0.0003293034276
1.981567905e-05
-0.0003291420902
1.275144481e-05
0.0003278559137
-0.0003270456987
-1.356165982e-05
-0.0003250846728
-3.077525167e-05
-5.827130049e-05
0.000414131225
0.000329831596
1.577654872e-05
-0.0003328566999
8.677112183e-06
0.0003289582213
-0.0003256317904
-1.200354303e-05
0.0005511859984
1.331561866e-05
-0.0005561429297
-1.069983851e-05
2.341151099e-06
0.0002988533733
2.720667779e-05
-0.0003013288644
0.0005860859195
6.251530278e-05
-0.0005730990888
-7.550213351e-05
4.241864224e-05
0.0005587355201
-2.719083361e-05
-2.277733026e-05
2.186464612e-05
0.0002989165004
-0.0002982887932
-2.249235328e-05
1.793549711e-05
-1.79317397e-05
0.0002950878958
-0.0002950916532
-1.781558446e-05
0.0002970520187
1.803829674e-05
-0.000297274731
-2.087926731e-05
0.0002971218461
2.082516986e-05
-0.0002970677486
2.106718704e-05
0.000310559485
-0.000310280396
-2.134627611e-05
2.346498562e-05
-0.0003089488605
-2.428972399e-05
0.0003097735989
-1.642667331e-05
-0.0003157447893
0.0003141576105
1.801385219e-05
1.768996709e-05
-1.744206274e-05
0.0003039660702
-0.0003042139746
-4.195799829e-05
0.000307226941
2.213929622e-05
-0.000287408239
-2.322819054e-05
0.0003071037235
2.343927796e-05
-0.0003073148109
2.139400532e-05
0.0002935955621
-0.0002943868738
-2.060269369e-05
2.17634528e-05
-0.0003647317475
4.65645578e-05
0.0002964037369
0.0002945245057
1.534337943e-05
-0.000291932388
-2.143344578e-05
0.0002927198053
2.161882444e-05
-4.836461733e-05
0.0005835089599
4.86404798e-05
-0.0005837848224
4.867995532e-05
0.0005818920509
-0.0005817741913
-4.879781493e-05
0.0005901643304
4.821095825e-05
-0.0005902777406
0.000586906723
-0.000586959398
-4.831194229e-05
-2.164965832e-05
0.000294198622
1.965502048e-05
0.0003044372742
-0.0003040335741
-2.00587206e-05
1.627318484e-05
-1.707959341e-05
0.0003029603198
-0.0003021539112
0.0003031046776
1.685404194e-05
-0.0003022687525
-2.219227889e-05
0.0003035580798
2.320570355e-05
-0.0003045715045
-0.0003097148232
-1.790843916e-05
0.0003111965891
-0.0003086576625
-2.408307539e-05
0.000310613444
2.212729396e-05
-2.090600551e-05
0.0003123271496
2.070224422e-05
-0.0003121233883
-4.058539995e-05
-0.0003132599666
0.0006270463582
4.10353141e-05
0.0006264151411
-4.569605512e-05
4.605806179e-05
-0.0006267771478
4.626587953e-05
0.0006231591796
-0.0006231672278
-4.625783139e-05
-1.960584095e-05
0.0003097604117
2.035798211e-05
-4.693851318e-05
0.0006173294769
4.685480732e-05
-0.0006172457711
0.0006135190369
-0.0006136294414
-4.6820656e-05
0.0006224703258
4.622932619e-05
-0.0006224337725
0.0006188583095
-0.0006194856527
-4.631116995e-05
-1.936131226e-05
0.0003097191704
0.0006507854999
-0.0006508387869
-3.764463344e-05
-1.754411898e-05
0.0003254688367
-3.160344777e-05
-0.0003281618392
0.0006556874926
3.237311465e-05
9.875091428e-05
0.0003407764652
-0.0004308959964
-8.631383059e-06
1.973204321e-05
0.0002987683551
-0.0002957059381
-2.279446014e-05
4.152996013e-05
7.84567112e-07
0.0003051391777
0.000296972646
1.724948559e-05
-0.0002944900884
5.961947374e-06
0.000310246679
-1.388872376e-05
-0.0003023199026
0.0003179428832
-2.956816103e-05
-0.0002824127748
-1.800396721e-05
0.0003312175194
1.835225087e-05
-0.000331565803
0.0003307561606
-0.0003322097231
-1.852345386e-05
3.429443393e-05
0.0004259260365
-0.0004602204704
-2.105614858e-05
7.703658258e-05
0.0002380904733
-1.969120012e-05
5.525509577e-06
0.0002440872175
-0.0003250929693
1.111602231e-05
-1.445506063e-05
0.0003284320076
-0.0003333051953
-1.500351582e-05
0.0003298491784
1.845953266e-05
-1.679067775e-05
0.0003270116486
1.744209871e-05
-0.0003276630696
9.788347877e-05
-0.0004225115619
-3.178626087e-05
-9.463863355e-06
-0.0002838428451
0.0003673859759
4.817595494e-05
-0.0004155619309
-1.757193654e-05
0.0002919609149
1.806979882e-05
-0.0002924587772
1.824895692e-05
0.0002909176682
-0.0002914093882
-1.775723692e-05
-1.688052001e-05
0.000292081313
1.982098086e-05
-0.0002950217739
0.0002908074624
-0.000291197985
-1.718141395e-05
0.0002894718787
2.039532374e-05
-0.0002916182455
2.025878167e-05
0.0002882770402
-0.0002891028141
-1.943300776e-05
2.349131817e-05
-1.968241757e-05
0.0002949594545
1.782469979e-05
-1.714693792e-05
0.0002990746078
-0.0002997523697
0.0003638168628
4.147772689e-05
-0.0004052945896
0.0002989989066
2.116942899e-05
-0.0002983036894
0.00029691233
-0.0002969467983
-2.084479898e-05
-1.800728961e-05
0.0002970051205
-0.0002968134153
0.0002986126611
1.7773074e-05
-0.0002985610353
-0.0003057672952
1.56364155e-05
-1.765370247e-05
0.0003077845821
-0.0003052209147
0.0003072984345
2.13874658e-05
0.0003094851504
2.092638376e-05
-0.0003093443471
-2.183477771e-05
1.758535501e-05
-0.000300971492
1.383738583e-05
-1.513225362e-05
-0.0003044724274
-1.313214547e-05
1.258577685e-05
-0.0003151984207
-4.231029296e-05
-0.0002884733453
0.0003090323988
9.375792687e-06
-0.0003045708057
0.0003082032427
-0.0003091366964
-2.229473683e-05
-9.84808889e-05
0.0003125286199
-0.0002560057293
0.0003105547967
1.411401767e-05
2.236610825e-05
0.0003228286316
-0.0003239207689
-2.127397097e-05
0.0003198191941
1.865755311e-05
-0.0003161106389
-2.105539311e-05
0.0003219868124
1.888777476e-05
-1.850112897e-05
0.000322462675
1.873176779e-05
-0.0003226933138
2.002442205e-05
0.0003193977039
-0.0003200950002
-1.93271257e-05
-1.2615665e-05
0.0003196774082
1.088113999e-05
-1.920383758e-05
0.0003183102052
1.938110158e-05
-0.0003184874692
1.947087802e-05
0.0003177682952
-0.0003175247914
-1.971438181e-05
0.0003193195001
2.026626553e-05
-0.0003195613436
0.0003179080447
-0.000317673044
-1.943883821e-05
-1.702211115e-05
0.0003146531251
-0.0003333924007
-1.902086388e-05
0.000333612868
1.880039652e-05
-1.571359582e-05
0.0003324200153
1.615661196e-05
-0.0003328630314
0.0003319732679
-0.0003327714371
-1.720579799e-05
-0.0002903060132
1.841229672e-05
-1.983602747e-05
0.000291729744
-0.0002941641508
0.0002944766216
2.145098198e-05
0.0002926547534
2.205537939e-05
-0.0002933161275
-4.719231622e-05
2.159647673e-05
-0.0002685683113
1.480080669e-05
-1.840228839e-05
-0.0002867045315
-0.0004119240637
-2.274559757e-05
0.0002889756349
2.032464271e-05
-0.0002865546801
0.0002916099283
-0.0002925051706
-1.59852777e-05
0.0002913575085
-1.548066122e-06
-0.0002750086357
0.0002928515766
-0.0002922673957
-2.332977847e-05
2.116011361e-05
0.0002934095448
-0.0002931993464
-2.137031204e-05
2.266914862e-05
-2.195955159e-05
0.0002921419796
0.0002919451126
1.782469267e-05
1.659646401e-05
-1.592834874e-05
0.0003041383776
-0.0003048064928
0.0003037657006
1.666230883e-05
-0.0003041548246
0.0003047629114
1.92720933e-05
-0.0003043799842
0.0003040329074
-0.0003055734486
-2.065173768e-05
1.780358515e-05
0.0003888697755
-0.0004066733606
0.0003035130991
1.616199013e-05
-0.0003030786252
-2.135017494e-05
0.0003166707304
2.269312802e-05
-0.0003180136835
1.802551606e-05
0.0003142323983
-0.0003124575514
-1.980036295e-05
0.0003161738532
1.897639735e-05
-0.0003156793725
0.0003175024443
-0.0003198714607
-1.898115854e-05
2.845893826e-05
0.0004117243047
-0.0004401832429
-2.423803118e-05
2.152149565e-05
-0.000305941127
-0.0003066749661
-1.617200256e-05
0.0003168583783
1.922434073e-05
-0.000318057203
0.0003115011404
-0.0003101720165
-2.556715509e-05
0.0004216287706
-0.0004534150314
1.893661796e-05
0.0003236581183
-0.0003228926142
-1.970212206e-05
5.438396741e-06
-1.77226454e-05
0.0003150044914
-0.0003027202428
0.0003327999439
9.994484894e-05
0.0003218431315
-3.173557713e-05
-0.0002846691576
0.0003240967223
1.945006807e-05
-0.0003246101724
3.851012773e-05
-0.0002731516141
0.001143014824
0.0001186151042
0.002245572359
0.0003215112247
-0.002265359888
0.0002774788127
-0.002150687333
-0.0002883735899
2.804985534e-06
-1.591315568e-05
0.0003160722129
-0.0003029640428
-3.467882846e-05
0.0003237495636
-0.0002862657496
-0.002626895955
-0.0002851350464
0.0004228603079
-0.0004575391363
-3.936696606e-05
0.0006563279382
0.001329698437
8.043624314e-05
-0.0006642960436
0.001329421887
0.0001004477756
-0.001329330677
0.0002761791805
9.726968833e-06
-0.0002828522701
-3.053879297e-06
-2.524874857e-05
-0.0002909364892
2.865659391e-05
0.0002875286438
-0.0003149068687
0.0003048346077
-2.070299063e-05
0.0003044139489
4.967367862e-05
-0.0003351025944
0.0002914438061
3.530556543e-05
-0.000286409039
-4.034033251e-05
2.582756487e-05
-2.923335677e-05
0.0002795849724
0.0001319580776
0.001112899455
-0.001122432369
-0.0001224251637
0.0001303501728
-0.0001208624745
0.001139391822
0.0005773018902
5.367905926e-05
0.0002887356378
2.179629186e-05
-0.0002883608365
-2.217109321e-05
1.772543458e-05
-1.72851653e-05
0.0002903671931
-1.895562612e-05
0.0002923448392
1.869209995e-05
-1.325578052e-05
0.0003331826404
1.356171917e-05
-0.000333488579
0.0003328245363
-0.0003336448854
-1.48932468e-05
-1.509928849e-05
0.0003368548898
-0.0003283820213
-3.160634145e-05
0.0006564683396
-3.159537185e-05
0.0006603667763
3.183482707e-05
-3.703419454e-05
0.0006598653983
3.713817697e-05
-0.0006599693807
-1.908653435e-05
0.0002917408366
0.0002903548215
2.128996211e-05
0.0002923658481
2.095438758e-05
-0.0002921601221
3.717645715e-06
-0.0003280297328
-0.0003358240909
1.159052644e-05
0.0003363018256
-9.303508554e-05
2.761110733e-05
-0.0002704001127
-0.0004271540441
0.0003331491013
-0.0003331689139
-5.0258919e-05
0.0002859672866
-0.0002349196485
2.027517819e-05
0.0003137160049
-0.0002915424609
1.907430083e-05
-1.902184638e-05
0.0003317742062
-0.0003232099782
1.360900938e-05
0.0003286752696
7.789460398e-06
-0.0002922999742
1.50979462e-05
-1.542641356e-05
0.0003281843811
-1.84965173e-05
0.0003294897403
1.831020462e-05
-1.532505218e-05
0.0003293544335
1.519966612e-05
-0.0003292290475
0.0005801585181
4.89446707e-05
-0.0005804232335
5.044865376e-05
0.0005765037764
-0.0005757277342
-5.122469594e-05
4.72173425e-05
-4.540643554e-05
0.0005790500686
0.0003267848214
-0.0003274367935
-1.613870566e-05
-1.482940181e-05
0.0003287841073
0.0003292324993
1.569704293e-05
6.278559288e-05
0.0005667114789
-0.0005764591405
-5.303793127e-05
6.757053863e-05
-6.29193688e-05
0.0005814347497
0.0002945437386
2.620774629e-05
0.0002895921763
-3.160373114e-06
-0.000240328857
1.844012963e-05
-1.984942769e-05
0.0002910014743
1.908939427e-05
0.0002930550866
5.076084598e-05
0.0003659795055
-0.0004167403515
0.0002877908957
1.96870466e-05
-0.0002567170964
-0.0003234184126
1.725124321e-05
0.0003231237714
-1.309145622e-05
1.063045739e-05
-0.0003209574137
-0.0003137916508
-1.860461476e-05
2.962822628e-05
-0.0004457740374
0.000321611919
-6.150356654e-06
-0.0002858333361
-1.35068941e-05
0.0003235679559
0.0003221916103
-1.805717489e-05
1.81255488e-05
-0.0003222599842
0.0003221385015
-0.0003222499573
-1.838967318e-05
-2.091097349e-05
0.000322684212
0.0003218586679
-9.870612714e-05
-0.0002650919748
2.304612689e-05
-2.116069077e-05
0.0003199732318
2.075512263e-05
0.0003164350881
0.0003324716182
-0.0003279217554
-1.274886336e-05
1.546467247e-05
-1.655030347e-05
0.0003335572492
0.000334197467
1.484656078e-05
-2.093946964e-05
0.0003072901202
-0.0003011972113
7.077008782e-06
0.0003085559121
-0.0003007863601
1.699090486e-05
0.0003134847417
-0.0003095258872
1.292429045e-05
0.0003135925016
6.491572334e-06
-0.0003013176278
-2.688737339e-05
0.00031675763
-0.0002827932478
0.0004094484123
-0.0004363357857
0.0003129642318
-0.0003130402507
-2.08299866e-05
-2.482766341e-05
0.0003122457285
-1.963870424e-05
0.0003155313936
2.096568893e-05
-7.154177509e-06
-0.0002855545811
4.050131864e-05
-9.936253942e-05
0.0003297946609
-0.0002709334402
0.000319408696
-0.0002948205331
-9.572040317e-06
6.275905192e-06
0.0003228416974
-1.63415248e-05
-1.69692658e-05
0.0003262493034
1.697082399e-05
-0.0003043835626
0.0002291414381
1.488425508e-05
0.0003992469699
-0.0003852936669
0.0004022644909
-0.0003297506837
1.634531773e-05
0.0003291819147
-9.627951315e-05
3.769831052e-05
-0.0002711694811
-8.27555849e-06
-3.295244646e-05
-0.0002844037855
0.0003224670702
-0.0002930443181
0.0003268088449
3.49178692e-05
0.0002909480655
-0.0002950466705
-3.081926422e-05
4.760836635e-05
-5.134262706e-05
0.0002951780668
0.0003020253509
4.39185581e-05
1.134057528e-06
-1.659037771e-05
0.0002982102208
-0.0002827539006
-4.771268238e-05
0.0002975189377
-0.0002486721978
1.899608843e-05
-1.836205014e-05
0.0003002087586
-0.0003008427969
0.0002987693056
-0.0002963635949
0.0002956623081
-1.822705742e-05
-0.0002953669904
1.986704062e-05
-2.015358092e-05
0.0002959488484
1.961851855e-05
0.0002953364178
2.016029691e-05
-2.017623295e-05
0.0002970679547
-0.0002967209765
0.0002967276925
-0.0002969097372
0.0003037371483
-1.824358803e-05
-0.000302935623
2.130301594e-05
-2.264776604e-05
0.0003050818984
2.064463315e-05
0.000304624453
2.384911584e-05
-2.412309918e-05
0.0003075009244
-0.000304222657
0.0003054240068
-0.0003003269488
0.0002966439743
7.161263463e-07
-0.0002507955429
1.92692463e-05
-1.853349355e-05
0.0002959082216
2.053682613e-05
0.0002951361571
1.908052472e-05
0.0002950624995
-0.0002949631037
0.0002955101348
-0.0002789035979
0.0003038455018
-1.688539587e-05
-0.0003040396994
1.887692355e-05
-1.92684448e-05
0.0003042370231
1.836680487e-05
0.0003034704385
1.989732258e-05
0.0003038519882
-0.0003036182091
0.0003042470868
-0.000303649563
1.944077604e-05
-2.172778744e-05
0.0003021401938
-0.0002998531825
0.0003003991142
-0.0002993203883
4.033486001e-05
-9.746241607e-05
0.0003055954055
-0.0002484678494
0.0003035886826
-0.0002849816101
-3.727571372e-05
-0.0002856177627
3.176456738e-05
-0.0004626605638
0.0003351356979
-0.0002757600232
0.0003380948413
-0.0004644297578
-3.244308569e-05
-4.171473762e-05
-0.0002215481148
0.0003688261429
-0.0004012692286
0.0002957727638
0.0003853173146
-0.0003845327475
3.179146351e-05
4.442241527e-05
0.0003091034358
0.0003066670889
3.026355228e-05
3.271452968e-05
0.0003587195341
-0.0003914340638
0.0002882885077
-0.0002111515628
0.000309333352
-0.0003029468976
0.0004128551
-0.0004424232611
0.0003269966047
-0.0002849127103
9.471505779e-06
0.0003311341083
0.0003360350028
-6.539494718e-06
3.898545629e-05
0.0003288723279
-0.0002699743054
-0.0004554640083
0.0003214847981
-0.0002919632051
2.205612714e-05
4.960583336e-05
0.0002957240154
-0.0002890234205
0.0002912301199
-0.0002440078386
-0.0002900380778
1.854896443e-05
0.0002913100942
-2.243521648e-05
2.018803448e-05
4.852251521e-05
-3.225047465e-06
0.0002852084613
-0.0002622963672
0.0002911968619
-0.000244816076
0.0002981867577
-1.971376177e-05
-0.0002956199339
1.916275283e-05
-1.878593409e-05
0.000297809939
1.974822736e-05
0.0002984891333
1.868975259e-05
0.0002974144278
-0.0002972568097
0.0002971606282
-0.0002754928445
0.0002975583655
-1.818508674e-05
-0.0002973805683
2.014810038e-05
-2.012381267e-05
0.0002975340778
0.0002969769879
1.98298738e-05
0.0002985310147
-0.0002985074538
0.000298213515
-0.0002989194666
0.0003056572534
-0.0003037548623
-1.955609348e-05
1.876078293e-05
0.0003072891076
-2.039263716e-05
1.734759403e-05
0.000309197771
1.666019951e-05
0.0003039713295
-0.000303046174
-0.0003022269165
-0.0004063524515
9.908934449e-05
0.0003198488839
2.56486062e-05
-0.0004320010577
-7.004558047e-06
-0.0002825452565
0.0003154554686
-0.0002586764171
-2.332660478e-05
0.0003131933973
-0.0002804909998
0.0004006109474
-0.0004239375522
0.0003159394534
-1.38093949e-05
2.216789974e-05
-1.849675972e-05
0.0003122683134
0.0003105734205
1.688061585e-05
0.0003110217748
-0.0003134980201
0.0003118818762
-9.930151599e-05
4.140606594e-05
-0.0002660253188
0.0003284206708
-0.0004170917294
0.000324397943
3.095961686e-05
-0.0004480513462
5.741031374e-06
-1.788537816e-05
-0.000301647304
-0.0002842567655
-0.0003143458472
0.0003194965062
-1.795357112e-05
-0.0003025426327
-0.0002926581441
1.710319189e-05
0.0003190457278
-1.647151153e-05
-0.0003250301129
0.000320972614
0.0002931307627
-2.088333191e-05
-0.0002920834582
2.063176826e-05
-2.094112516e-05
0.0002934401196
0.0002926382813
1.972323094e-05
2.101410819e-05
0.0002939993396
-0.0002941211235
0.0002941941065
-0.0002935534734
1.876196125e-05
-0.0002907189579
-0.0002917237854
-0.0002855199966
1.781233097e-05
0.0002880323083
-1.806932603e-05
1.396118642e-05
-0.000281411857
-2.375669643e-05
-0.0002808673097
3.227877996e-06
-0.0002472105334
0.000287568393
-0.0002703793286
0.0002893954463
-4.746042629e-05
0.0002948522671
-0.0002489399069
-4.987598712e-05
-0.0002661481051
0.000368078439
-0.0004179544261
0.0002972882342
0.0003030218481
-1.669478838e-05
-0.0003022554085
1.739316808e-05
-1.78360528e-05
0.0003034647329
1.74466671e-05
0.0003040848785
1.813159325e-05
0.0003040009123
-0.0003036579672
0.0003039535077
-0.0003036904468
0.0003071399075
-1.107800362e-05
-0.0002782583188
1.657870233e-05
-1.620534503e-05
0.0003067665502
0.0003079860617
1.689076243e-05
0.0003040690038
-0.0003037753336
0.000304460751
-0.0002986913471
4.250003662e-05
-9.901180664e-05
0.0003202191914
-0.0002637074213
0.0003117674603
-0.0002902068933
0.0003170087285
-0.0002820582179
1.1337477e-05
0.0003185955419
0.000324049975
-0.0003047750709
1.896850159e-05
0.000307328065
-1.727591441e-05
1.615207106e-05
-0.0003036512276
-2.201272185e-05
-0.0003012043195
-1.406836158e-05
-0.0002996111626
0.00030434232
-0.0003022586105
0.000307138819
-0.0003223974415
2.344428145e-05
0.0003181775008
-1.301985218e-05
0.0001000708229
-1.43194252e-05
-4.30182032e-05
-0.0002891665352
0.0003176575511
-0.0002606049314
0.0003155346775
0.0003179999454
-4.168723461e-05
-0.0002940353562
1.87776844e-05
-2.289028352e-05
0.0003221125446
1.318312015e-05
0.0003205990557
2.200159215e-05
0.0003288760023
-1.807765052e-05
-0.0003274343359
0.0003265456445
-0.0002691767216
4.135177686e-05
-9.936758344e-05
0.0003251858513
-0.0002671700447
0.000316593026
-0.0002931266273
1.039868099e-05
0.0003246275706
-0.0004188428011
0.0003298738987
-0.0004505783782
0.0003239200748
-0.0002925641246
0.0001289497733
5.664922949e-07
-5.415664435e-07
1.321868362e-08
0.0001270546513
6.635861203e-07
9.480884051e-05
-7.412210548e-06
3.234652736e-06
-0.0001094530422
0
-7.634066957e-08
-3.472802054e-09
7.743590693e-05
3.235806392e-06
2.358148755e-05
-5.355012216e-06
1.267695673e-06
-4.016325209e-05
0
0
0
1.082837385e-05
4.513430024e-07
0
-2.025570717e-08
0
-1.231967356e-07
0
0
0
0
0
0
0
0
0
0
0
0
0
0
0
0
0
0
0
0
0
0.0006859305916
-1.251399007e-05
6.343505508e-06
-2.113826921e-07
0.0006847908847
1.471408673e-05
0.0006101670386
-4.59610364e-05
3.268779052e-05
-0.0006466398586
-0.0002054474555
-1.355287233e-05
0.0005630429324