/*--------------------------------*- C++ -*----------------------------------*\
| =========                 |                                                 |
| \\      /  F ield         | OpenFOAM: The Open Source CFD Toolbox           |
|  \\    /   O peration     | Version:  v2012                                 |
|   \\  /    A nd           | Website:  www.openfoam.com                      |
|    \\/     M anipulation  |                                                 |
\*---------------------------------------------------------------------------*/
FoamFile
{
    version     2.0;
    format      ascii;
    class       volScalarField;
    location    "3";
    object      nut;
}
// * * * * * * * * * * * * * * * * * * * * * * * * * * * * * * * * * * * * * //

dimensions      [0 2 -1 0 0 0 0];


internalField   nonuniform List<scalar> 
3259
(
1.156650727
1.156662407
1.156550157
1.156412962
1.156268206
1.156167973
1.156086696
1.15605476
1.155829855
1.15583168
1.155852854
1.155879321
1.094274923
1.072473285
1.131050896
1.157281181
1.156552722
1.155976384
1.155505374
1.155285358
1.154957005
1.154978596
1.155040895
1.155120303
0.8570451406
0.8432146498
0.9041085078
1.040475423
1.157501393
1.15619674
1.155172161
1.154657745
1.154190123
1.15414791
1.154227273
1.154354605
0.5686437469
0.5802905765
0.6434230638
0.760894435
0.9524228217
1.157295863
1.15532172
1.15429441
1.153466129
1.15336856
1.153433368
1.153595126
0.3445008568
0.3579561395
0.4276380263
0.5378599065
0.7025400987
0.964210869
1.156218755
1.154307273
1.152977282
1.152639962
1.152651767
1.152824901
0.17035686
0.1978694041
0.2740163453
0.3819088185
0.5300453852
0.7531175042
1.10413805
1.154781033
1.152636324
1.151977063
1.151876029
1.152036717
0.06215013345
0.09752128229
0.1787977476
0.2826692352
0.4182863366
0.6111811162
0.9420332216
1.155804512
1.15247464
1.15136952
1.151094402
1.151216664
0.05484701907
0.1341204802
0.229883892
0.353955733
0.5278097626
0.8285396404
1.157185497
1.152535544
1.150855211
1.150331417
1.150383742
0.06532163658
0.1298354454
0.2138015669
0.3265141225
0.4848428396
0.7641962982
1.130525046
1.15280244
1.150451164
1.149627201
1.149586109
0.09073336977
0.1462370964
0.2221178913
0.3283429562
0.4774183433
0.7345667274
1.07194865
1.153300821
1.15023823
1.149062843
1.148908018
0.1235456769
0.1757864176
0.248809122
0.348839476
0.488810869
0.7356049977
1.041023604
1.153993528
1.150225552
1.148697648
1.148414739
0.1612002346
0.2175986898
0.2926363408
0.3918007242
0.5276319167
0.7630387059
1.040546754
1.15490936
1.15046382
1.148584656
1.148175943
0.05808149199
0.0475599384
0.08280218691
0.06096627625
0.1164902555
0.08679028988
0.1477620587
0.1214871629
0.1517313473
0.06274205944
0.04919796517
0.09241266603
0.02962620267
0.02037005266
0.06287751338
0.110203788
0.1140968565
0.03691913018
0.05012569267
0.08732926894
0.1252372545
0.1123518384
0.06283006585
0.04557463888
0.1193405941
0.1532512965
0.131218829
0.1122381958
0.08405010405
0.0208630149
0.1389191622
0.1339056498
0.04874791448
0.03086315068
0.05031109952
0.03273259979
0.04692346175
0.04514562556
0.03672928221
0.07241823816
0.05329818876
0.06001372591
0.04818683354
0.05355176976
0.07093644453
0.08027879382
0.06428653445
0.1037817498
0.08599247691
0.10877875
0.0605680536
0.08305036517
0.09932745053
0.1329552521
0.1165651909
0.01458809323
0.01293859621
0.1405531097
0.02363611002
0.01796363524
0.008705373382
0.009194168854
0.1540645005
0.1902608454
0.1616751729
0.01022932889
0.06832745372
0.05965322287
0.02334705045
0.03104089426
0.04886245829
0.05785319324
0.04180389249
0.1363234834
0.1267747615
0.1349815234
0.1124368403
0.1255291445
0.1330467893
0.02471836611
0.02062595766
0.03219734205
0.02353740358
0.01838560917
0.02375739615
0.02187031042
0.01042564434
0.01734691231
0.02248120034
0.04659489365
0.04732976926
0.05436664606
0.05315468408
0.02094713476
0.01029741698
0.09975916845
0.01769127602
0.03261688688
0.009528479136
0.01498615021
0.09563026289
0.08603353449
0.07287729544
0.01028727111
0.0389506561
0.03835768563
0.04329963636
0.04297348712
0.05715925488
0.06939861678
0.06474275256
0.07590298299
0.07106716554
0.05748753641
0.05841244746
0.05713771597
0.05205616411
0.0630894972
0.05853935126
0.05985970482
0.07603630924
0.009320780664
0.07459230666
0.03483427144
0.05144785822
0.128992182
0.03891802587
0.02256180975
0.006785564328
0.09063651334
0.003503008771
0.02176428712
0.01618043662
0.00616776756
0.0141896228
0.01089931243
0.01016954329
0.008998930244
0.01344451656
0.00946300921
0.03977315145
0.01731658874
0.0161962907
0.05059385548
0.05874498978
0.01760045427
0.0240372732
0.01124818675
0.01125831245
0.04757580708
0.04507926653
0.01965270138
0.01746778461
0.03804163265
0.04413750141
0.03993731708
0.05046679814
0.0456127212
0.03932202241
0.04420458207
0.01165563643
0.01130657348
0.03832107246
0.02550518802
0.02786915746
0.068335165
0.09511491905
0.1039628928
0.09605771545
0.06750697885
0.0836559686
0.07782026466
0.09318016977
0.08595625506
0.0687375493
0.1318076872
0.0540599115
0.07239851608
0.01072952802
0.01242063699
0.006401165911
0.01215879203
0.009304180454
0.009159537281
0.03191267678
0.02439863315
0.006680499026
0.01134640305
0.007632473172
0.01185076096
0.01098333344
0.01483054399
0.04907032398
0.0100661212
0.009474328431
0.01887451396
0.02195919272
0.01877020992
0.03072635036
0.02340362285
0.01838372746
0.01653844758
0.0127886123
0.01485355452
0.01162098448
0.04201908079
0.04979561687
0.01590088948
0.01495197139
0.01643711326
0.01702848081
0.05734203652
0.01024922318
0.01046900957
0.01366278997
0.01045703354
0.01055674361
0.04888992097
0.01084459852
0.01608620491
0.01424335613
0.01278726186
0.02343251358
0.06091515728
0.05543855249
0.01172444661
0.04576220774
0.03926932385
0.05343969647
0.04804060753
0.01230352108
0.01203046891
0.04213807232
0.03485499295
0.02729687305
0.02590272485
0.04375984439
0.01878361573
0.01892242745
0.01495306642
0.02714775374
0.03199399829
0.0196941102
0.02738423116
0.03475707099
0.03720254493
0.02861147695
0.01221940145
0.01180615746
0.04394682707
0.0399028888
0.01195153489
0.01237264366
0.02871050567
0.02428763368
0.03738222839
0.03113654018
0.007782688835
0.01545407397
0.01446218524
0.0226820142
0.01597777799
0.006513131343
0.03190039072
0.009402813932
0.01000346439
0.00938472453
0.02958358916
0.01012013991
0.05650084349
0.1202320757
0.1560131407
0.009869346495
0.009832008647
0.2016254608
0.006606662951
0.1393650296
0.145210479
0.1625718059
0.005024084365
0.007927548234
0.005866103947
0.004980485708
0.00606062357
0.004750285902
0.06053652541
0.03800976446
0.02375160533
0.02654046669
0.0234940441
0.0274103237
0.0516788441
0.04472431652
0.01354493596
0.07678790729
0.08990694518
0.1365474221
0.02906531021
0.03481113077
0.03341223432
0.01074266615
0.01171931752
0.01038307403
0.01038515701
0.05365538781
0.01544877383
0.00947375498
0.01209987326
0.01118110442
0.01021458893
0.0266921862
0.03329360283
0.06791621529
0.0386180221
0.03528645606
0.02598953798
0.05140160193
0.01732392139
0.0241548951
0.02464363017
0.01555313898
0.01055954869
0.02231321578
0.02014662846
0.01843629504
0.01823423257
0.02203839062
0.01916683282
0.01111765126
0.01191946282
0.006834404623
0.009260769806
0.01136079458
0.06851972316
0.06272320088
0.02549013409
0.009286489582
0.01560571412
0.01399652741
0.01087615774
0.01587620389
0.01382487332
0.009471542728
0.009527330267
0.01354434935
0.01284751382
0.009350779157
0.00943897041
0.008522792344
0.06975135651
0.02900127259
0.03566902392
0.01018559952
0.01002251081
0.01005583135
0.01076224181
0.01124260069
0.01795433904
0.006692745987
0.004323596367
0.008063995171
0.01249947548
0.009672772675
0.01034413589
0.009627224313
0.009866513225
0.01129413854
0.01062492588
0.007039167814
0.005434327882
0.0148108047
0.01526833235
0.01429487512
0.014447609
0.0168058786
0.02557570004
0.0259485231
0.0250740526
0.02540672748
0.01664586533
0.01110187999
0.01948907721
0.01944850761
0.02012669542
0.01962236842
0.01090220261
0.01866794986
0.02867065068
0.03179870187
0.02626216437
0.02710985432
0.01809845064
0.01160842851
0.01946367314
0.01944887291
0.01941015341
0.01944673089
0.01143749885
0.01374903549
0.01405472785
0.01321512982
0.01391673256
0.01040735084
0.007022320341
0.01032619472
0.01094780899
0.006956072581
0.01003215333
0.009440331649
0.01539661157
0.004126844876
0.009320492672
0.007253624662
0.005476651729
0.006759199689
0.009287017348
0.007198428776
0.01001346134
0.01075129415
0.01022137275
0.008639816143
0.009708712359
0.006522897997
0.009736486854
0.02344864303
0.02186692899
0.02327013129
0.02748506345
0.02906991031
0.0227783362
0.02117500819
0.02262971521
0.01414097817
0.02259641932
0.0240024218
0.01638610935
0.02268526886
0.01500848216
0.01556929575
0.02457247271
0.0248982219
0.02400946446
0.02444585294
0.01535821733
0.01661509024
0.02903600142
0.02854799598
0.01036044385
0.0104214776
0.01182869091
0.009520562116
0.009815864295
0.01011334911
0.01046308431
0.01006650816
0.01298068218
0.02404418354
0.02151652053
0.02777979886
0.02635894208
0.01509237172
0.009239236235
0.01021469241
0.01681715205
0.006621447619
0.009311676047
0.009295227538
0.01224846344
0.009273457622
0.009488924448
0.02048645917
0.01821565297
0.01035381934
0.02721596454
0.03868057899
0.03925560644
0.03524351802
0.03642038966
0.02567061476
0.01786044617
0.01915109677
0.02890289574
0.02072353003
0.01974809756
0.02195883184
0.02091141846
0.02934197981
0.02018403964
0.02088471942
0.0167137563
0.02159286418
0.01205337225
0.01950405001
0.01952017544
0.01949627988
0.01951646105
0.01199609199
0.01244688918
0.01809031174
0.01570595778
0.01941747032
0.0190683221
0.01242282529
0.009427264053
0.009689590452
0.009210753721
0.01222003801
0.01067549439
0.01508063338
0.009826875818
0.009744394137
0.009846885187
0.009836251969
0.01488673645
0.02029767322
0.01109093381
0.01281273551
0.009939013367
0.009664361024
0.01758112426
0.009634147609
0.012273218
0.01169589844
0.01595502167
0.01346156182
0.009585033098
0.009313402667
0.009535313107
0.01100975462
0.01017500994
0.006514287275
0.01036635462
0.9258172858
1.102842778
0.9307634206
0.9004759839
1.071677732
0.9064476903
0.9484355238
1.118626482
0.9676223618
1.072593979
1.157469906
1.10924182
1.157480421
1.156716597
1.157154367
1.156297616
1.156100602
0.6453495101
0.8664443466
0.6356689538
0.6371152204
0.8368344636
0.6439933116
0.6858181016
0.8836614715
0.70640567
0.7911074425
1.000884037
0.8273907236
0.9693432765
1.157909474
1.029531756
1.157384007
1.156467878
0.4079897841
0.5783798284
0.3964708078
0.3987318268
0.5727624541
0.4077455088
0.4537290235
0.6228578296
0.4745858381
0.5545069598
0.7258820005
0.5863082001
0.7094902924
0.8971932343
0.7584065208
0.9382155689
1.155642894
0.2121061523
0.3519560911
0.2074951335
0.22027596
0.348041499
0.2319688573
0.2847047398
0.4063963983
0.3062340891
0.3848748528
0.504621017
0.4152390334
0.5235943339
0.6556936637
0.566674211
0.7246873611
0.8764177942
0.07511342515
0.1754801672
0.07466501297
0.1036404068
0.1848320437
0.1171439762
0.1751735445
0.2519443156
0.1977118224
0.2739965143
0.3516261226
0.3028323373
0.4017956022
0.4880916789
0.4408010641
0.5833957631
0.6843887863
0.03045547502
0.0394631956
0.0667404798
0.07482264272
0.09905457853
0.1159768783
0.1409103157
0.2125607459
0.2544364567
0.239337849
0.33100337
0.38017345
0.3664441671
0.4937604784
0.5559398759
0.05528155269
0.07866559054
0.08193077442
0.1284784256
0.191048269
0.2037924426
0.2150881282
0.2982216778
0.3193506182
0.3305301887
0.4469562089
0.4775927248
0.07458946419
0.09172089712
0.085524608
0.1407265943
0.1957520686
0.1904315625
0.2170459778
0.2948868613
0.2949453229
0.3257136692
0.4369729445
0.4398435356
0.1025265968
0.1181176722
0.1076280426
0.1673376057
0.2202082414
0.2008956457
0.2407813019
0.3130098785
0.297473194
0.3411033493
0.4424744974
0.437717383
0.1361834197
0.1531948814
0.1395775911
0.2056949436
0.259168801
0.228313003
0.279804323
0.3511852429
0.3208014273
0.3791130515
0.4766395246
0.4497802431
0.1691156291
0.1866191737
0.1748662254
0.2719178357
0.3640807481
0.4892583452
0.05511769046
0.04864018103
0.05305399676
0.0396974863
0.03964555303
0.04705217355
0.07943635849
0.0743355413
0.07955649375
0.05463556115
0.06025039518
0.06326893966
0.1124239938
0.1097968194
0.1144058269
0.08173824934
0.08671999732
0.09078168696
0.1445982342
0.1407640305
0.1431689535
0.1183243094
0.1225477684
0.1257100572
0.1455211963
0.1480566096
0.1544853256
0.003113164584
0.003787302319
0.003480174724
0.0324335157
0.00313281404
0.002847717475
0.05169336103
0.04381448673
0.04059777552
0.07132686368
0.04442659888
0.06655356317
0.02884502245
0.02806408545
0.02880387788
0.017512824
0.01763217481
0.02056584872
0.08278053288
0.07995585076
0.05653145992
0.1095208859
0.0929217537
0.09449542399
0.0953766264
0.09316695728
0.1106394952
0.0373437293
0.02354934122
0.02333745623
0.03838895137
0.03759987152
0.05163281053
0.1035573643
0.09515083834
0.07658076009
0.1200601601
0.1067988582
0.1126342211
0.09756957433
0.1017449565
0.1157087866
0.06139447252
0.04832521628
0.05000712156
0.03208368325
0.03229250072
0.04603721089
0.1349625746
0.1225786293
0.1066826584
0.1453705067
0.1338337107
0.1419785759
0.1190301765
0.1260829154
0.1379735617
0.108132561
0.08112968021
0.08535716423
0.05269502728
0.05786690155
0.08775248653
0.03130660474
0.02878600659
0.01818649894
0.1373909476
0.09459233161
0.1083675686
0.1252447051
0.1294956886
0.1335122459
0.0476117444
0.04068197776
0.03920670531
0.02981765805
0.03060949438
0.03149377452
0.04307286655
0.0470220262
0.05263935105
0.03445598159
0.03612365343
0.03437508086
0.04686697744
0.04523762051
0.04379700936
0.0448097073
0.03179688404
0.03188535922
0.02325232253
0.02322599432
0.03678772935
0.06755766176
0.07144655003
0.08025323236
0.05411452013
0.06618722636
0.06113650034
0.07574786366
0.07393811866
0.0586930674
0.05237709794
0.05042251995
0.04859386467
0.06042262483
0.05702403759
0.05631922798
0.06369561934
0.06104922917
0.06562647794
0.07676157447
0.04528236864
0.05093524847
0.05149950448
0.05278093721
0.06561993906
0.09938960075
0.105653525
0.1082726634
0.08882898556
0.09792113808
0.09526805256
0.1120354248
0.1067569475
0.09854406343
0.06279074955
0.07943738757
0.07758696084
0.09251800496
0.08880011691
0.07364795394
0.09495092563
0.08958925247
0.09568256445
0.133199427
0.1162957088
0.120683768
0.08943240527
0.09371713182
0.1206786709
0.1131930046
0.03411643072
0.007507755365
0.009564569973
0.009148707657
0.1640903605
0.161011213
0.1401623791
0.1799723988
0.1685289266
0.1784807904
0.1504949344
0.1590406684
0.1706677207
0.06412880444
0.03584819635
0.04329729083
0.04967767292
0.051234176
0.06207589432
0.02491780357
0.03401649872
0.03413344976
0.03273779338
0.03135202212
0.02932669692
0.04744450769
0.03994994247
0.04137742334
0.05564473376
0.04472246941
0.04690981268
0.02935283352
0.03177798864
0.04405264857
0.134379936
0.138045267
0.1401394329
0.1316285402
0.1324759162
0.13349676
0.1397465125
0.1363613962
0.1355077785
0.1195533015
0.1207988358
0.1160337671
0.1293562191
0.123076568
0.121068403
0.1294437338
0.1266731679
0.1302949821
0.01311807972
0.02155834702
0.01835381591
0.01761061028
0.02890000787
0.01801081489
0.02761427113
0.01268608346
0.0159349424
0.02586353832
0.02049074988
0.02269794809
0.02529732105
0.01134981072
0.01592887867
0.01424956386
0.0167246299
0.01523472911
0.01579846648
0.02117941843
0.01874199854
0.01980912765
0.03422994508
0.03291931934
0.04547999245
0.04818822071
0.03519351944
0.03445254412
0.04155483609
0.04234061872
0.05527168147
0.0519112818
0.03908899368
0.04052903448
0.073229246
0.07717458536
0.103838667
0.02004625156
0.03163622858
0.02913040732
0.04565095478
0.04364307444
0.03045590071
0.02659713128
0.02467601311
0.01339577593
0.09184419454
0.0599254955
0.06306166398
0.08157102985
0.06107368096
0.06544323443
0.04618375084
0.05138451963
0.0770416159
0.03918128538
0.04123424869
0.04053545553
0.03769174903
0.03650364154
0.03754915258
0.03148823615
0.03151922768
0.04351139367
0.04241480767
0.03081103722
0.03131250925
0.06820027285
0.06633963098
0.05506564747
0.06804382224
0.06625969582
0.06792283151
0.06259529987
0.0632835946
0.06638210128
0.07431457961
0.07258001349
0.07424878531
0.06936751161
0.07094333455
0.07268835793
0.05833710486
0.07210832542
0.07023984232
0.05416956007
0.05225929291
0.05384219461
0.05544409817
0.05352438513
0.05522812619
0.05010095566
0.05181519215
0.05376507492
0.06164716247
0.06088851755
0.06164978752
0.056763987
0.05891040706
0.06008300612
0.05797394147
0.0573020248
0.05612165726
0.03775561859
0.04309213627
0.08401812698
0.07284267504
0.05985939791
0.06130974894
0.04223959823
0.06965224799
0.06992078714
0.0778268991
0.07377609798
0.04467752901
0.1249858062
0.09816756775
0.1026283209
0.03648002333
0.02416298639
0.02669319434
0.01242699192
0.01378635287
0.02461863691
0.07002865922
0.0196173466
0.01156307367
0.01256458672
0.01174913959
0.008930108667
0.006101638374
0.01021397141
0.01411559478
0.007532729665
0.00928992391
0.009364678923
0.007955036979
0.007541765461
0.01154870422
0.008190966597
0.011317375
0.005966340293
0.007036739703
0.01019701936
0.02565468358
0.02419034197
0.03821542099
0.05168981917
0.03711407537
0.03645964571
0.04512793122
0.04663176911
0.05993972943
0.01914746054
0.03266707286
0.03101877012
0.03710535587
0.03490177189
0.02177860175
0.04670139056
0.03273846233
0.03350544526
0.04598078008
0.04282008805
0.04645892579
0.04042189104
0.03791000172
0.03623484598
0.04268264467
0.03988864642
0.04152515245
0.03674898733
0.0382954512
0.04136205279
0.0488487281
0.04673608543
0.0484285874
0.043153579
0.04496866436
0.04728299493
0.0426853123
0.04362032386
0.04213909709
0.03162346325
0.0316905352
0.04448119699
0.03719936033
0.02362178357
0.02484779129
0.02639593827
0.04010453593
0.03884110834
0.04236106542
0.04126300592
0.02712605064
0.06697101053
0.05403445579
0.05524585085
0.1030178459
0.1005091363
0.09195783559
0.1015267758
0.09929235522
0.1020631055
0.09366502763
0.09647308678
0.09859796377
0.08292764702
0.08121299161
0.06392840593
0.08172342226
0.07969453124
0.08161022124
0.0760134085
0.07783599089
0.07965142
0.09075689149
0.08827657551
0.09091812252
0.08366363684
0.08594868143
0.08814651448
0.07176460495
0.08675027486
0.08477320819
0.1071903686
0.1116897426
0.1320221123
0.05857148306
0.08638866872
0.08220490056
0.09536501501
0.09080378174
0.06826671819
0.01064032557
0.01057263096
0.01288719542
0.0296157677
0.01879841824
0.02100672304
0.01442413229
0.01668087217
0.02700812809
0.007718390841
0.01158612966
0.02055863719
0.01843394853
0.02541010664
0.02283174623
0.01284414964
0.0470136323
0.03436998666
0.03700237326
0.0205688042
0.02071888701
0.02369351761
0.01753266693
0.01915851403
0.01971980138
0.02548796784
0.02783513068
0.02531248991
0.01746746439
0.0156910063
0.01669325552
0.01498095025
0.01517237076
0.01677582381
0.014237353
0.01385053103
0.01324251687
0.04396158286
0.031760073
0.02866955031
0.03608800891
0.03547026373
0.04885759658
0.03008914275
0.02949072349
0.01675985392
0.05641899912
0.04312735178
0.04400123277
0.03508090773
0.03711796223
0.05034640759
0.03604472273
0.0339988342
0.02186881679
0.05915443877
0.04748831243
0.04950087704
0.04274721321
0.04515840846
0.05722916997
0.04367668706
0.02984661037
0.03221977407
0.02554279159
0.02738561568
0.04123845682
0.05182818863
0.03812563016
0.04027797083
0.03437763578
0.03615671439
0.04964190905
0.01294486487
0.0233270827
0.02206896521
0.02029279521
0.01792910755
0.01107539644
0.04015440216
0.02881693202
0.03135815186
0.02374891174
0.02629298624
0.03704119736
0.04220737768
0.04329342307
0.0455441697
0.03403559268
0.03546398931
0.03555660087
0.03379415899
0.03649968721
0.03477676243
0.03999639303
0.03806862032
0.0299951343
0.04373334602
0.03155715482
0.03157534276
0.02732785257
0.02960141312
0.04139030925
0.02682540755
0.01468567837
0.01636019987
0.01351308938
0.01421208349
0.02551579617
0.0356450097
0.02296689089
0.02419161697
0.01902222208
0.02135122846
0.03355454275
0.02039845431
0.0220256413
0.0339833607
0.02711319311
0.01624367917
0.01856493823
0.08417408588
0.08937011349
0.0700255974
0.1287856022
0.108626763
0.09890259248
0.1347860495
0.1197453671
0.1408293054
0.1881933414
0.1985665382
0.2140422276
0.1355158936
0.1458721782
0.1425271203
0.1503448578
0.1481615271
0.1419756765
0.005799194533
0.004160240722
0.003852249134
0.007030050876
0.005839691009
0.00652311513
0.004387814369
0.004573533032
0.006684341047
0.004280989236
0.003848652142
0.003229345727
0.00527570392
0.004039746727
0.0052144788
0.00371962726
0.003752653653
0.004785357521
0.03245366889
0.03971953015
0.04468347338
0.03458698805
0.03512089278
0.0299313234
0.02641397227
0.02710442718
0.02721280384
0.02450983236
0.0262464628
0.02557546678
0.0276785539
0.02668563407
0.02582893899
0.04930712694
0.03923402097
0.04160082738
0.03398788711
0.03658634905
0.04696220045
0.01564830383
0.02590902932
0.02310325801
0.08093232012
0.1045487333
0.09995494237
0.1138276379
0.1092981439
0.08543610388
0.03071905204
0.02992464916
0.02871428782
0.0329806653
0.03124962299
0.03254420632
0.03273996683
0.03167733541
0.03276614278
0.04436200896
0.02880299403
0.04004215432
0.038085155
0.04484380704
0.04293599233
0.03094161262
0.06351693877
0.05465876474
0.05439453635
0.03732319962
0.0340054987
0.03531018931
0.0272609324
0.02997989454
0.02889541286
0.03966785053
0.04211276297
0.05356244948
0.01938149251
0.03038292352
0.02805800288
0.03525173126
0.03296004448
0.02172995714
0.021385887
0.01949032282
0.02299228738
0.01379473614
0.01658945137
0.01831614027
0.01448487476
0.01548019864
0.0122688784
0.06633387593
0.0560441076
0.05740863432
0.05176368501
0.05362182102
0.06463262503
0.02786477887
0.04083516738
0.03851813734
0.05666559608
0.05809165862
0.07130931651
0.0307728178
0.04548719142
0.04381451539
0.0493799485
0.04760449342
0.03327169608
0.009847660627
0.008723002751
0.01030992361
0.006192190497
0.007344954739
0.008211659143
0.006386528068
0.006694475508
0.005427607618
1.14353194
1.125720092
1.156664256
1.130576679
1.1575212
1.156632846
1.157305937
1.157065948
1.156480921
1.156797078
1.156557782
1.156338014
1.156342435
1.156158168
1.156209103
1.155998059
1.155886122
1.156117504
1.155784607
1.155709457
1.156066204
1.043842694
1.028144277
1.073176404
1.018979777
1.035076274
1.081246744
1.080167458
1.133163663
1.157918312
1.157642021
1.15736206
1.157087432
1.156701526
1.15647963
1.15638619
1.156078559
1.155569438
1.155652896
1.155299992
1.155100121
1.155377055
1.154951632
1.15487234
1.155231251
0.7806461028
0.7680149311
0.8404789475
0.7762266423
0.7865117781
0.8529434066
0.8382571554
0.8647795548
0.932240728
0.9688124205
1.016059632
1.091517495
1.157933001
1.157496695
1.157112285
1.156871708
1.155763481
1.155586606
1.155185154
1.154760623
1.154876254
1.154448876
1.154263773
1.154511534
0.5069124231
0.5055925102
0.5674126852
0.5192576097
0.5307117589
0.5913268225
0.5835234839
0.6072927261
0.667463913
0.6982990502
0.7368359499
0.8008127635
0.8823269946
0.9437507073
1.0149188
1.011049299
1.156804915
1.156130125
1.155696313
1.154866801
1.154730454
1.154265203
1.153869973
1.153989816
0.2950587875
0.2925919549
0.3386510049
0.3122750079
0.3260265722
0.3711710563
0.3827044543
0.4064010401
0.4515787915
0.4944207928
0.5278335627
0.5742964959
0.652426588
0.7028975339
0.7545429061
0.7843583254
1.018609683
1.134374866
1.157086185
1.155582699
1.155110112
1.154504877
1.153733051
1.153760254
0.1372652627
0.1379408622
0.1707003406
0.1673205702
0.1837046681
0.214026146
0.2454921486
0.2694888673
0.2985320983
0.3522716514
0.3842224291
0.4142117583
0.4968923044
0.5422772161
0.5760701137
0.6315909048
0.8355650171
0.9180442871
1.019545796
1.156989576
1.156142599
1.155240873
1.153963038
1.153748452
0.05027627115
0.05049927284
0.06195483755
0.1630572014
0.1866167776
0.2026512506
0.2654725672
0.2951452718
0.3124551285
0.398292207
0.438675687
0.4596682335
0.5400797692
0.7187910738
0.7716983274
0.8775200954
1.064539641
1.124360824
1.156434632
1.154575895
1.154171036
0.05451293845
0.06270824659
0.06340425406
0.130178959
0.1512498609
0.1559935415
0.2228050676
0.2498940185
0.2576694927
0.3437580164
0.3804411573
0.3915401576
0.4915989723
0.6431712313
0.6748337903
0.7917787131
0.9710847701
1.012826935
1.157947119
1.155507068
1.154951178
0.06851209999
0.07415201983
0.07150750635
0.1324485816
0.1504936742
0.1484627542
0.2144502534
0.2387117636
0.2388593616
0.3241360005
0.3578670241
0.3609819775
0.4781967289
0.6094803872
0.6215383566
0.7450875237
0.9115623196
0.9373490227
1.097148456
1.156683706
1.156031818
0.09446732614
0.0987785203
0.09523008899
0.152559568
0.1692102813
0.1630537865
0.2279875788
0.250765193
0.2447967615
0.3314632577
0.3631363331
0.3619016102
0.4810209994
0.6061365964
0.604554764
0.7316084397
0.8817833973
0.893174152
1.049364768
1.158000032
1.157303303
0.1278196403
0.1325824203
0.1282994862
0.1849701472
0.2014115426
0.1921496065
0.2581076939
0.2801848171
0.2709249931
0.3576229356
0.388210123
0.3795828542
0.5114423599
0.6293895332
0.614721449
0.7461956576
0.8806509735
0.8783630273
1.027863568
1.159409666
1.158675221
0.1609512252
0.1688124872
0.1636390957
0.2305227886
0.24782919
0.2344778908
0.3068819808
0.3293178804
0.3148971041
0.4061940765
0.435989268
0.4216512851
0.6494303701
0.8909904845
1.160076173
0.05179037572
0.06933654034
0.06724859713
0.06044912882
0.09199454643
0.08900376883
0.08371056897
0.1237162741
0.1195283752
0.1152282554
0.1379774127
0.13765262
0.1343412271
0.04586636068
0.04521656096
0.04582959786
0.05321337591
0.06862437547
0.06786315066
0.07501209395
0.07450445816
0.05953101279
0.04959583059
0.04796524542
0.0471402328
0.06686660744
0.06610622004
0.05411695859
0.1115096299
0.1094855397
0.1052584176
0.06117275148
0.07617287503
0.07553867687
0.138281951
0.1598384427
0.1555543615
0.1533543792
0.02357041992
0.02708935948
0.02719766654
0.1287693863
0.1289106535
0.1275693047
0.1393840046
0.1373540612
0.1373347902
0.1160381321
0.1156669948
0.1139612838
0.1257777711
0.1247955619
0.1240481195
0.02625172875
0.02248476549
0.02024024083
0.01997775584
0.01985536467
0.02353169444
0.0101905865
0.01175227609
0.01195188606
0.0714228502
0.07138212803
0.05671578911
0.05774250403
0.07288619864
0.07279701761
0.0551557995
0.05417428693
0.05695987769
0.06119366176
0.05791458745
0.05685825612
0.06323420052
0.06434030068
0.07795626903
0.0371770779
0.05014047629
0.0483087441
0.062356993
0.06029716179
0.04935611063
0.03788687041
0.0367899795
0.03675167561
0.04043119664
0.04068905871
0.03996032331
0.0816858335
0.08061817594
0.06641217357
0.0696414333
0.08381450977
0.08268951642
0.05560242075
0.06645121647
0.06412369319
0.06529748506
0.06724124663
0.05915946803
0.1371276846
0.1429306662
0.1407318961
0.1587528916
0.1517662514
0.156055275
0.05196848622
0.04731789907
0.05569864308
0.02751102558
0.02803110495
0.02477517945
0.1347343321
0.1327088683
0.133927261
0.0320161224
0.03293226009
0.03654237996
0.01220162031
0.01256050342
0.01146229236
0.9873592204
1.047490796
0.9184605543
0.9823033362
0.990813291
0.9609468188
0.9763466032
0.9026235022
1.072770068
1.033929552
1.019056557
0.9173730918
0.9784306216
0.9627547507
1.012857841
0.985741078
0.9274756091
1.087267858
1.039029869
1.072655803
0.9998750801
1.069028157
1.027315451
1.145616301
1.0886367
1.028087472
1.157681624
1.144720224
1.157892509
1.158178233
1.157753973
1.158066281
1.157150077
1.157444556
1.157863486
1.156904688
1.157151302
1.15690199
1.15684123
1.15662917
1.156898417
1.156181423
1.156405629
1.15656018
1.156242851
1.156303323
1.156114849
0.7190525699
0.7969078344
0.6326597668
0.7005526588
0.7067345671
0.7029274967
0.7004723117
0.6329716905
0.8338459244
0.7676759424
0.7697248097
0.6546387555
0.7200186261
0.7094792662
0.7510836834
0.7334437605
0.6683681668
0.8648387996
0.7994665936
0.8175491409
0.7309726063
0.7971596601
0.7717506063
0.8593218701
0.8254951593
0.7587267845
0.9618056851
0.8937056205
0.9295261351
0.8691946724
0.9413874101
0.8969823475
1.045600281
0.9898596569
0.9158765674
1.140271802
1.065894982
1.123846585
1.095199504
1.157925512
1.104928587
1.156987847
1.157456473
1.157873647
1.156776819
1.157061504
1.156696673
0.4641824925
0.5196658386
0.3895021705
0.4459251327
0.4500590798
0.453018505
0.4476337879
0.3930569549
0.5678842059
0.5061343864
0.5111725729
0.4201610215
0.4736411928
0.4616480384
0.5064413459
0.4885415492
0.4355074177
0.6054009457
0.5452234612
0.562882272
0.4981752335
0.5508783646
0.5272150439
0.607453833
0.5774834873
0.5247912075
0.6946962004
0.6341004685
0.6643852769
0.6224085956
0.6796399676
0.6423635682
0.7651435647
0.7189068738
0.6631397653
0.8456683735
0.7806475213
0.8279818528
0.8120788821
0.8756333914
0.8190957357
1.010448336
0.937845608
0.8722180039
1.083651233
1.008949429
1.081574219
0.25293634
0.2994735314
0.2077714728
0.2488526991
0.2490290348
0.2589177211
0.2513069168
0.2118325119
0.3420850452
0.2948370884
0.30172866
0.2468097772
0.2845999741
0.2703870944
0.320917426
0.3015133116
0.2646995383
0.387416204
0.342364365
0.3612265213
0.3302549243
0.3659154811
0.342503818
0.4212067973
0.3919064207
0.3567547869
0.4774015054
0.4318917651
0.4609514249
0.4477948068
0.4854618533
0.452901553
0.5632609506
0.522158695
0.4839643914
0.6112961379
0.5644299757
0.6071421312
0.6143723084
0.6562338066
0.6073775365
0.7691320952
0.7102461317
0.6672122264
0.8125219859
0.758931348
0.8186503798
0.1127264291
0.1404650088
0.07948178323
0.1087656578
0.1071009759
0.1253518929
0.1158466605
0.09134374274
0.1757336984
0.1434591979
0.1538070184
0.1330827825
0.1573404115
0.1397337028
0.1973086368
0.1762392527
0.153569655
0.2321235086
0.2022588479
0.2228222042
0.2216345745
0.2437636357
0.2199544272
0.2966623919
0.2692454311
0.2470231538
0.324238357
0.2948863891
0.3223481051
0.3337550271
0.3571741475
0.3259793113
0.4279306007
0.3908799986
0.3665291536
0.4494716347
0.4185615982
0.4558597652
0.4837084385
0.5105675266
0.4675316254
0.6140311375
0.5589625316
0.5308416302
0.6271839872
0.5919081635
0.6468800715
0.03196278286
0.04073700777
0.04008332277
0.04706470623
0.04275973353
0.03500666284
0.06377546957
0.05253902945
0.05704424358
0.1633734687
0.1735367007
0.1504660023
0.2237943107
0.1981185411
0.1874353176
0.2278233607
0.2114471596
0.237423529
0.2677953576
0.2802422083
0.2512267121