/*--------------------------------*- C++ -*----------------------------------*\
| =========                 |                                                 |
| \\      /  F ield         | OpenFOAM: The Open Source CFD Toolbox           |
|  \\    /   O peration     | Version:  v2012                                 |
|   \\  /    A nd           | Website:  www.openfoam.com                      |
|    \\/     M anipulation  |                                                 |
\*---------------------------------------------------------------------------*/
FoamFile
{
    version     2.0;
    format      ascii;
    class       volScalarField;
    location    "3";
    object      omega;
}
// * * * * * * * * * * * * * * * * * * * * * * * * * * * * * * * * * * * * * //

dimensions      [0 0 -1 0 0 0 0];


internalField   nonuniform List<scalar> 
3259
(
31.9892433
31.98973133
31.98631611
31.9810954
31.975982
31.97162571
31.9696329
31.96793922
31.93426686
31.93313069
31.93204691
31.93103616
31.95715312
31.96099381
31.94797409
31.92369312
31.89870517
31.87937219
31.85105027
31.84245139
31.80524487
31.80158367
31.79831721
31.79535574
31.95969101
31.96895846
31.9402015
31.88636501
31.83181706
31.78761527
31.74096287
31.72231824
31.67954198
31.67311187
31.66741865
31.66250363
32.10239388
32.10151665
32.02089067
31.91578985
31.80960985
31.72363568
31.64724197
31.61187055
31.55888417
31.54798522
31.53941466
31.53232036
32.65474029
32.6103668
32.35274018
32.09290477
31.86833164
31.70537361
31.57901488
31.51446471
31.44360251
31.42633657
31.41381254
31.4043382
34.89682365
34.43297799
33.34515333
32.58835144
32.08042112
31.75316969
31.53930292
31.43307462
31.33563769
31.30724168
31.28977932
31.27743849
45.98012319
43.00581134
36.08105448
33.68861751
32.52923541
31.9029913
31.53576404
31.36967918
31.23397028
31.19128436
31.16700922
31.15122928
70.87709215
42.44485771
35.68075933
33.27698378
32.16968921
31.56700657
31.32096813
31.13959065
31.07819272
31.04542414
31.02575343
132.7708476
51.86473131
38.44481296
34.27728721
32.5310441
31.63471505
31.28492265
31.05210043
30.96957696
30.92641668
30.90231533
166.1273106
60.14906942
41.29557082
35.36055413
32.93128143
31.72274756
31.25923928
30.97163251
30.86623726
30.81175071
30.78268379
166.6203474
65.00368818
43.56818509
36.31734065
33.31085077
31.81120602
31.24039997
30.89797153
30.7703892
30.70380177
30.66944156
154.4752965
66.82937834
44.9954545
37.01017329
33.60930241
31.88266135
31.22317294
30.83063084
30.68116752
30.60333176
30.56341105
155.8421459
79.69117485
199.2794629
161.7542616
197.2695988
200.8531021
178.7126216
195.0270372
176.0427248
45.58971347
72.75655162
42.81225908
449.5902355
160.1851915
125.7660551
56.45961558
46.14821559
1512.03349
1066.079272
164.2330821
68.76989855
59.889259
871.0065237
1188.923413
167.6959944
75.6202086
71.00321444
500.4538567
658.24361
1900.990616
327.1316471
380.5074102
1036.712036
473.3788438
122.5322905
383.3613842
730.4222674
1202.053116
1514.208535
183.042787
1062.989147
929.6769469
755.3186003
1059.764029
180.5451777
687.2020269
852.6142071
201.2478753
654.8317819
519.8037168
920.4289575
677.5208755
201.9565133
391.7067487
482.6545917
2801.720182
3236.35402
321.5706459
1673.343787
2607.37465
453.579354
5271.205686
156.4139167
77.75906013
76.48166686
5536.804523
720.0394601
798.737128
134.9320647
340.2167342
113.2819209
815.8933129
1036.45579
185.6941034
399.7425301
340.6041378
503.1388073
410.7216749
188.3404655
70.58454788
140.2489301
69.5053227
73.43680649
3553.907729
316.9195866
2529.435803
343.4106288
1863.932253
286.024053
1229.803657
1213.447521
1000.242849
1022.395904
1953.808233
4423.536809
559.9084527
2339.295533
1292.980367
4953.399021
2775.465976
582.9522745
606.1691186
686.9082477
4931.837214
728.7202031
690.8810118
1271.25013
1283.720354
983.9059472
342.4192292
333.4486554
344.5917256
343.7460082
977.1054175
897.5530989
304.0875442
278.8447701
329.1396792
311.4963491
914.6515495
727.9190461
5132.78909
741.0982991
1222.599053
901.6390912
437.9967066
1096.791317
1811.665633
5767.244696
581.9412854
3233.918459
1831.859383
2500.489175
1046.038346
2886.73349
4110.189131
138.5656561
363.3670945
125.1529341
145.7816338
1421.364478
3442.188287
3605.533784
1140.512633
927.7643124
2554.859897
1881.20227
4299.958025
4236.700406
1136.432544
899.304176
3099.375148
3429.982327
510.0730082
225.0089434
189.6787624
268.6635323
237.0858851
533.259607
1234.282634
4247.462245
4307.764854
1442.522004
1780.600788
1639.826538
804.9378368
593.1921912
310.9402923
322.3396451
826.1720113
338.4988112
343.8136949
326.3216961
335.6373817
811.5585699
424.4681745
869.5498643
705.4017997
4802.994121
1585.29943
1934.607267
1426.536356
5219.536026
5289.698578
1251.392976
1630.474969
5748.247104
1227.748372
502.8184929
1226.776426
4035.021786
2759.997385
918.0706865
4777.248197
5586.30117
3611.369238
1058.495774
654.8149691
1714.349844
1164.341203
591.0195412
375.5756909
1054.764908
3783.871984
4772.230415
1351.934517
1158.087735
3648.456968
3791.914953
2798.258257
2652.360185
949.4000536
4611.365728
4526.470492
3310.460209
4486.251146
4489.210317
1106.904941
4385.69828
2878.841436
2913.885627
3280.994469
1761.594542
835.7141946
901.5122839
3710.474536
1049.087781
1184.961419
928.3915645
1009.603879
3474.811438
3541.009412
978.4804252
1153.278794
2221.597433
2320.124869
852.1646065
3291.479053
3314.060095
4201.832572
2270.710399
1900.294152
3197.589116
2245.369288
583.2337078
1602.336621
2122.125128
4143.103819
4207.185373
1244.165643
1385.706175
4367.048927
4122.952679
1542.970589
1800.927144
1233.456311
1436.775673
5370.212669
2835.260684
3096.367775
1922.347067
2724.208245
5661.740055
1300.15091
5517.093614
4736.21562
5495.072164
1391.480769
5704.788259
65.59280306
43.25186369
37.06735665
5644.629167
5620.370549
77.75018617
5884.51691
332.0708234
278.0536742
169.4522726
308.7270885
222.3833594
474.0888522
1713.74398
305.408088
331.3920369
54.55853249
64.11267827
123.1683365
392.861328
758.4551374
1112.259259
841.4208888
934.5569019
3041.060811
673.8644077
593.5425343
355.7394395
1208.242128
1539.783061
550.0701398
4462.847235
3738.503483
5689.464205
5071.164379
820.6020113
2787.847655
5094.585831
3493.810862
3922.444919
5466.120568
1501.463088
1212.530792
729.0470671
177.0839343
140.9629462
245.6090073
887.662
2340.866127
1658.781927
95.34566409
119.9253968
291.5414109
2902.402165
1906.659405
1474.541466
3713.657768
2944.02562
2141.877474
3931.077358
3584.276392
5600.38466
5304.845271
3825.475868
759.4788461
816.7298115
1621.897522
5113.192464
2696.223638
3025.424214
4272.720387
2542.137021
2968.541412
5027.051639
4970.424638
3156.183605
3356.510716
5098.31091
5014.477303
5214.93117
789.5506977
1581.653316
1323.632739
5712.840927
5544.692876
5451.143238
4213.094166
3904.188434
2238.576532
1269.027599
1434.014388
1406.544386
3352.976352
5562.278434
4730.204832
5620.115622
5375.646287
3817.155018
196.9173699
277.5137688
896.9959647
3651.271911
3567.155607
3741.225194
3722.311375
3525.784607
2284.879766
2263.302046
2306.404216
2288.160574
3532.266287
4335.062444
2454.292125
2472.688005
2356.5987
2425.43988
4408.5976
3241.143827
2071.509795
1868.261824
2246.809201
2185.378171
3326.814899
4228.396262
2514.421917
2531.393974
2491.807967
2501.461077
4271.798918
3836.686442
3765.506077
3936.188333
3751.729554
5831.668072
6046.221422
5632.813705
4249.543212
5880.998721
2411.659336
3381.234765
2379.772155
3192.568763
2387.338419
949.9517197
3287.797326
2412.063019
5274.590347
5475.70834
5696.596828
4264.124507
4884.551331
1065.754819
5426.613513
5695.996697
5335.831953
2727.39994
1971.951099
2765.830217
1459.682882
2113.581072
2811.337627
3088.896961
2862.159114
3935.017514
2473.669465
2342.010864
3366.465795
2441.039551
3687.941354
3696.112833
2328.079356
2310.180374
2355.764206
2326.612358
3719.473875
2750.905634
1658.236666
1685.834345
4558.497198
4551.537629
3872.447076
4985.187609
4803.850789
4627.7942
4571.03509
4786.168404
3619.357163
1975.849008
2201.700862
1729.435329
1814.144442
3087.574617
5337.295936
4506.231798
2451.318287
5683.421605
5439.678452
5419.282829
3479.108515
5326.742013
5157.328875
2043.874387
2301.191363
4356.833468
2222.408363
1531.400658
1506.824167
1682.402937
1628.359251
2348.430024
3484.274904
3259.006085
2127.469358
3115.738083
3266.034189
2933.862136
3087.267517
2090.501675
3127.952432
3062.710101
3940.960813
2925.525846
4181.017222
2571.757966
2585.862906
2540.780001
2554.074969
4166.480544
4155.113652
2837.568627
3282.931942
2615.838862
2679.001122
4139.801831
4980.721665
4843.006497
5177.713201
3581.916076
4219.001959
2922.846686
4803.506486
4866.423415
4790.81825
4801.986422
2986.28359
2140.924863
4082.45567
3453.21416
4713.553505
4849.720986
2470.484011
5302.188996
3428.61935
3670.877341
2559.204011
3072.268392
5392.504733
5426.98793
5254.380201
3999.75734
4595.84635
5775.775368
5494.569463
31.94797531
31.95253746
31.95288811
31.96184468
31.96156578
31.96088957
31.94502138
31.95353446
31.93709844
31.90227706
31.93111703
31.89185812
31.8557383
31.90527037
31.84538672
31.81585673
31.88399103
32.02444147
31.95429066
32.03583809
32.05220123
31.97010416
32.04081321
32.00861422
31.94960463
31.98923137
31.92196434
31.90083626
31.89911263
31.83132454
31.84439917
31.80861239
31.75227543
31.79644917
32.38085619
32.08832876
32.41445126
32.44385642
32.10012579
32.38817564
32.29673911
32.04210092
32.24201579
32.080857
31.94336358
32.02843447
31.88435125
31.83520493
31.84176689
31.734633
31.74204414
33.80400895
32.6015103
33.86955201
33.88482954
32.60468137
33.6250999
33.19632778
32.41046243
33.01364925
32.55545232
32.15773084
32.42278416
32.09715962
31.91893585
32.00763571
31.79372563
31.74012413
43.24940585
34.71059518
43.38329437
40.87910604
34.52232341
38.73648773
35.88566379
33.56352658
35.1601836
33.6876813
32.75325004
33.34041264
32.57900382
32.18673453
32.38971999
31.96351074
31.82318724
62.49426216
60.52368197
46.04532573
48.91265519
43.08935742
40.3876398
40.46550722
35.95818224
34.12329901
35.1052371
33.42838987
32.75406797
33.0570521
32.27507288
32.0264077
94.37494851
67.24913708
56.25658455
49.46743187
39.43234623
36.71877662
37.74862877
34.65774401
33.70660521
34.01692578
32.72055171
32.37432784
150.1711164
93.20103857
83.87892408
58.38097073
43.20915981
40.36729936
40.66485021
36.03862513
34.98768422
35.10141213
33.23730613
32.84492637
169.0778813
107.3639973
103.6327723
64.11545244
46.24101226
44.03886
43.09631075
37.29808039
36.36523921
36.10328805
33.73343745
33.36076019
162.9071835
109.8266702
109.8992932
66.59383596
48.17352675
46.82582091
44.73437347
38.23090102
37.55479654
36.86978332
34.13912927
33.84410362
149.6880469
112.5658322
113.6719693
48.47786618
38.4010296
34.21689025
143.5893136
194.631138
219.421797
90.57722429
106.0336627
89.92973229
196.530949
281.2204977
283.679227
227.1180916
247.2962755
172.7294453
198.5586902
263.5254812
261.1669138
283.5928458
281.7695132
202.0461055
180.8289454
211.5022313
207.6019383
238.7245356
234.0136103
193.0305367
203.4286542
199.8926453
173.9680918
1398.178183
1433.510465
1356.703943
62.9276456
1866.569863
1309.597385
64.7469171
69.8374558
80.94584048
44.75293533
58.50681574
51.70458097
428.5658268
492.1342742
526.1904358
202.3774942
238.9045128
195.7468423
81.13000677
69.79693398
102.1305226
52.89479848
62.09785033
67.29605732
52.05718176
56.97294001
49.44810628
1500.526028
2309.465731
2315.79521
1520.933743
1549.79093
1094.813834
102.0331821
95.52041991
154.5222452
66.11558881
80.68311337
84.11239109
72.1920601
76.74123206
63.16890309
889.8828665
1089.611979
1056.774317
1605.248859
1590.827679
1175.510809
109.6726072
108.182523
169.0528728
74.40604999
90.63715117
91.81027349
86.83581822
89.05845974
72.91088083
518.5184869
668.5057768
638.9960094
960.0453384
888.7732926
632.1751818
1263.593033
1373.074454
2195.067359
347.9930016
568.9516789
506.8413285
448.7360962
434.9728243
372.8642988
996.8028069
1437.907322
1491.379794
577.5010665
614.2497331
495.6530623
157.9914243
185.4368123
135.7592294
406.1768787
311.0013027
285.9970859
443.8378724
423.2498959
641.4418709
1213.051916
1629.559289
1619.998692
2309.688414
2299.058433
1507.317564
271.2507426
279.5728925
184.9929264
1042.684962
532.5075419
545.1064964
572.2673215
577.2260055
952.9276276
823.69678
480.446802
461.9841302
544.3428206
542.105173
1012.494075
174.1266592
252.9833656
267.6370793
716.4292512
1086.777911
987.4387098
1028.677929
1005.692795
836.339363
273.109104
266.5771547
200.3537252
634.3422083
478.8558373
489.6966451
294.4710786
306.281351
572.8239201
886.9547912
559.1625266
566.8398574
500.7698856
511.7874434
758.5916917
202.1916051
280.2703052
275.4484458
400.9875254
480.9464623
464.6537946
612.4127044
586.8879958
466.9441469
487.9042183
1162.730518
622.7558408
1226.765227
727.5279593
115.0804919
109.5862958
161.1782997
77.49535043
92.83722886
92.67039928
92.45132719
92.84979685
77.13758197
753.5153307
1134.85426
968.8651013
895.9677295
876.7845249
776.0745204
209.1553258
128.7320306
100.9139161
262.5804837
239.7495042
315.5190971
99.95715022
120.5343429
147.8888022
838.9329689
968.5969508
934.6543133
1387.367182
1288.021013
994.85017
220.4736653
216.0969043
183.5431819
371.7736909
267.6292881
261.5558849
252.1489786
259.1535153
362.8471927
459.252707
279.0852301
290.5535478
264.1191143
275.620902
445.6083491
190.4729402
229.5120408
224.7308091
109.1589493
120.1938243
136.4021908
157.5604885
70.17679052
98.64341137
84.44917149
111.6445557
107.0800649
71.84474207
457.5658338
695.4158286
382.5297635
854.1507775
345.0336466
255.3718981
1271.997678
1084.783972
1799.057066
224.8629733
322.3285246
420.5989522
1661.960202
1722.91384
1257.569948
1193.480209
1629.911071
1660.352971
1256.015484
1232.926849
984.1545865
1045.754449
1329.556468
1286.455051
731.4010874
698.7616252
538.9655736
2059.945607
1351.583801
1454.393802
1005.066401
1040.110139
1373.533598
1580.756896
1698.803192
3126.198773
605.5609281
863.1401917
826.0636566
631.3416793
762.2435935
726.8451936
921.9930754
851.4954978
659.2083583
1019.07436
1065.080234
767.6722792
652.4601445
902.5508576
956.491793
1679.281241
1671.987139
1262.222092
1302.726106
1724.587002
1693.754466
582.1472173
582.4009089
1023.823848
339.9992348
432.1343944
433.9083975
424.7444545
428.8782432
337.2633301
344.8759574
434.2705076
432.8252817
435.0755294
434.922619
344.8835893
959.8151379
580.0411836
581.4731204
512.9202498
496.4422436
843.2102365
296.4723405
373.610335
382.3500288
349.3109331
360.2753871
287.6003899
323.8490302
411.3810358
418.5290092
394.3834425
400.8763167
318.0076339
984.919456
542.4729943
526.7752471
1262.569325
1131.797097
662.9166662
757.9916276
895.4206997
876.2855089
1045.885829
744.635158
747.3784556
679.9183663
710.7569929
1001.687882
451.4356054
562.4931662
540.0222054
1157.824484
1677.418207
1520.10746
3380.088821
3001.494829
1660.999603
693.0424858
2039.106364
3697.250946
3317.011341
123.0020312
172.7454528
235.1891114
166.8753521
114.1545209
348.7637963
189.2264527
276.3155733
326.1517354
455.068716
136.7770349
206.1028094
170.929941
241.3265865
232.1687449
143.8145101
2153.718077
2264.541112
1472.702708
1116.480923
1565.738866
1589.859623
1159.296177
1125.335465
909.9691134
2345.319569
1486.821637
1556.770744
1332.402887
1403.64075
2067.663732
1157.81398
1566.092222
1530.040926
1267.956745
1365.552908
952.0591731
358.6133862
331.3341727
453.2040048
213.8341972
258.7257035
274.4300548
225.5208528
242.358203
201.3282238
258.9002859
321.6413719
334.6363831
291.1526408
305.7188143
247.6205114
612.1778491
402.936338
380.7985766
1649.265394
1640.418761
1224.301018
1486.812474
2249.178903
2132.206403
1724.97515
1245.69682
1281.028816
1186.287583
1214.338471
1681.587151
820.438985
983.7668731
963.7646623
457.2316818
467.9005892
613.1011903
314.5194269
378.6117291
372.3800995
391.181853
385.1048206
318.856512
540.9239918
550.9841448
871.3256248
340.5566415
423.3657813
418.9327196
430.4330696
427.2815901
342.6189196
329.4728408
403.140979
397.3985295
413.9695342
408.8533699
332.9831376
778.0411467
521.384246
531.8482533
518.7727824
499.4294242
413.2037548
820.3079139
622.2906251
649.6534242
571.2126361
596.1154389
737.6978506
901.6710578
1443.502604
2505.795336
1344.931665
2125.991222
1894.144895
2824.313968
2411.808326
1473.097744
605.8892537
3696.564633
1966.447556
2202.19571
1586.397787
1765.670918
3250.3095
947.5275105
1201.570701
1127.22967
877.4871141
1309.975918
1625.439913
949.0387105
1190.507747
795.2092415
1805.037986
2108.446744
1369.315057
487.9902184
675.4814046
842.3127395
476.9605519
581.3483853
440.8155006
1312.680711
838.6177827
716.749729
1296.989809
1771.399838
1947.375543
1600.681246
1624.182718
1179.16032
1601.556899
1632.567337
2709.531873
964.627451
1210.591021
1187.312485
1465.306337
1392.461676
1076.57145
1210.929544
1271.694859
1886.698151
856.0772555
995.8115738
964.5672945
1080.582797
1035.261606
878.6932193
1088.14118
1454.519938
1361.005714
1677.59988
1571.547775
1139.233213
950.9442035
1183.805839
1132.719532
1288.83348
1236.238921
984.0652224
3267.588489
1795.803348
1897.129583
1958.956232
2229.704857
4003.985141
1019.946458
1375.742689
1265.946222
1671.621106
1506.991346
1091.537599
805.9185516
1123.533618
1189.035022
777.7651384
827.662888
612.9702971
1781.259354
1208.718994
1134.158985
1410.738111
1344.060867
2021.864546
1252.913924
1664.211644
1657.503482
1940.836734
1795.04159
1336.100402
1640.979465
2928.836093
2614.68743
3236.274213
3052.084352
1718.908848
1282.499229
1860.912155
1768.353001
2243.201696
1999.652656
1348.345259
1993.53415
1840.309967
1229.206672
1511.523505
2526.544531
2197.385583
54.26105334
48.73167706
51.20254136
40.73305262
43.47253794
47.62624316
38.31725625
40.8044674
38.7486637
92.35471121
91.79662494
77.67390406
319.5252953
238.4170251
244.4867092
226.2049508
231.9497365
287.476848
269.5358941
392.9006266
471.4660651
267.4857714
334.4295138
235.6488285
917.2472139
441.6243446
398.3784603
747.1957174
1335.778544
2744.386562
326.6930248
495.0134218
421.3186488
542.2244291
540.8168429
336.5142457
77.44407074
69.10946697
61.23249662
93.98578759
79.22141623
85.69871271
422.7485036
453.4048203
409.5178278
887.587459
620.5956304
547.6103874
751.4474555
669.0031264
958.6862863
870.1815153
1030.458462
980.5226055
1172.280019
1094.911722
900.8351645
2579.832284
1525.595199
1716.023063
646.2850075
526.6224734
548.0037989
487.9272117
506.0323456
618.6841947
1362.075672
899.5378852
820.9582358
1037.57851
973.7548397
1411.574607
523.8401503
672.536612
710.8674773
931.7492218
1392.561548
1043.030758
1088.38002
953.9092724
987.4096859
1299.405844
763.7714097
837.2722722
839.1421146
165.0966864
192.4474161
209.2903129
270.8079556
214.5041397
195.3882104
1064.270547
1014.644088
861.7911535
2079.666452
1331.91668
1438.402663
1161.927076
1235.265643
1849.269645
100.6844515
112.4867678
105.8819224
141.9135291
131.6093343
107.4387059
205.8062218
155.0927271
197.3363581
780.5554942
877.3246307
861.4480072
932.0897217
907.4581322
796.4999103
1489.351769
1095.25162
1147.631118
941.3070246
920.2913775
773.1912974
1500.724295
1115.059791
1151.482847
1039.937514
1072.593496
1403.05634
209.7008533
266.5528137
237.1303424
356.5503303
313.4345541
238.4280902
617.8021129
408.7477222
524.8685893
31.96809875
31.97083932
31.98996843
31.97026897
31.96648992
31.9885859
31.96085331
31.95299505
31.98382076
31.94463407
31.9364583
31.97842755
31.92904731
31.92282904
31.97378657
31.9185542
31.91325226
31.97069843
31.90979708
31.9072833
31.96877561
31.95107895
31.95467577
31.95962401
31.95696643
31.95481967
31.96033768
31.9413787
31.93431104
31.94323744
31.91097664
31.90232598
31.91789132
31.87922983
31.87197565
31.89387644
31.80931974
31.8033023
31.85649788
31.79465759
31.78775938
31.84639245
31.78290291
31.78053102
31.83942286
31.97375769
31.98240681
31.9652331
31.98270047
31.97716091
31.96435825
31.94808795
31.93357953
31.92783152
31.88702721
31.86873134
31.87144755
31.82086699
31.80575238
31.81869738
31.73749333
31.71046593
31.75382038
31.69163357
31.67752659
31.7307392
31.6673505
31.66138617
31.71616034
32.16664559
32.18158364
32.10607013
32.16025124
32.14438028
32.08835231
32.0774958
32.04390144
31.99666243
31.94219637
31.90829432
31.88783768
31.81387452
31.78565669
31.78419886
31.70451726
31.64632625
31.67322771
31.60982017
31.58274839
31.62760575
31.56310298
31.55042242
31.6003396
32.88858775
32.93507823
32.66367239
32.81517288
32.74833117
32.56386092
32.52738655
32.43433181
32.28934205
32.17872108
32.10273034
32.03127919
31.90358426
31.84779756
31.82148874
31.73682286
31.61822119
31.62473484
31.55595823
31.50810983
31.54237209
31.4731595
31.44955531
31.49462411
36.11113144
36.23532319
34.84598018
35.2457632
34.83867464
34.19129035
33.82868751
33.52064823
33.13208684
32.79536688
32.60950675
32.44052295
32.16508214
32.05114351
31.98457752
31.8616002
31.63893544
31.62332391
31.5326263
31.45649498
31.47904148
31.40024001
31.35963513
31.40036274
49.87430571
50.03982885
46.92015278
37.28266554
36.19096524
35.28514356
34.10610287
33.65182879
33.32463156
32.68496676
32.45784446
32.33656265
32.09790042
31.71978257
31.67094752
31.54602964
31.42887635
31.43948827
31.34425343
31.28229135
31.31750523
78.36448859
70.90302379
65.53119515
44.68863133
41.48966568
39.89865089
36.3486645
35.38532668
34.87301493
33.50965415
33.10145144
32.92145919
32.43602005
31.8627093
31.78310047
31.59796823
31.42315294
31.4225038
31.30199155
31.2158114
31.24697763
138.7790734
116.4393066
111.5075859
54.20026473
48.3001119
46.59245682
39.21415379
37.59252734
36.99487719
34.554269
33.91699786
33.70150382
32.83404265
32.04790443
31.9509241
31.67801708
31.43367655
31.42620459
31.27214887
31.15885723
31.18672214
167.596247
140.7691116
139.2315105
61.70474578
54.08483892
52.83370107
41.98042271
39.76873784
39.22505161
35.61769385
34.75232428
34.55079947
33.22500646
32.24026239
32.14401062
31.76876079
31.45625941
31.44308601
31.25130061
31.109392
31.13487258
165.6092469
142.4072263
142.877673
65.70284681
57.60295676
56.93283198
44.03494424
41.45085413
41.06074769
36.52102106
35.47884565
35.31658339
33.54969767
32.40719859
32.32768674
31.85085054
31.47966493
31.46707
31.23479966
31.06583706
31.08917363
153.0080192
134.6588952
135.9096101
66.96488484
59.08302178
58.87890541
45.23600419
42.48921926
42.27885864
37.1465725
35.99490745
35.88352295
32.47257736
31.4868074
31.04717219
50.10939894
106.1548395
100.5607914
118.3242218
137.2634617
134.9201965
161.7012333
143.3150469
143.5165134
168.3935522
334.1610762
378.1239707
370.1762883
578.9147123
561.2046943
702.0420229
1063.035973
796.4333304
794.5959034
753.5756066
758.8791465
937.8311156
779.8463482
609.0656605
591.9364698
790.0881511
783.7450534
1050.418605
416.748236
426.1568258
536.9497036
910.9076451
741.736658
748.0645849
360.2629762
136.8798913
138.0073708
157.9084711
158.7026483
134.5142671
123.1066533
390.0795603
334.7754742
340.6030602
298.9715699
304.6453921
346.9022331
487.7991099
398.0700207
406.8443089
349.1578621
355.5315845
421.3256447
69.78938931
78.11772182
79.99086452
80.51300675
80.79964225
73.73916148
489.0765055
348.3701571
289.2590633
781.1712476
783.0947555
992.5143914
971.7906513
777.1515305
778.6793973
692.5684173
678.0196424
879.9923014
934.2922099
719.0581447
704.604008
851.7764406
838.3679146
710.6816984
1158.10436
936.6520488
962.6665227
795.0992358
815.8611654
929.4192562
469.2807967
458.4525582
486.8329661
558.3918696
492.3776058
477.2854044
691.8359377
700.8488291
839.4068426
801.291452
674.5224632
683.5257459
852.2967402
757.6145982
779.0234774
60.99234514
56.58034307
59.46076755
327.3760289
288.1192553
294.2029411
171.4165052
196.180218
193.0200836
56.99753385
64.38289957
60.54516019
109.2868303
99.63321848
105.2107757
362.5669501
421.5068441
409.6351524
160.7162999
176.323152
152.657957
259.7140002
220.0599737
234.5527519
31.94577329
31.94615592
31.95736049
31.9547025
31.95070633
31.95827796
31.95686005
31.96029584
31.96184726
31.95654092
31.95753889
31.95750478
31.95498172
31.95764162
31.94369071
31.95081644
31.95280729
31.95708732
31.95151678
31.94668739
31.92583709
31.92733841
31.93657779
31.90934557
31.91961283
31.91495449
31.93658207
31.92699357
31.9187075
31.87917611
31.88925121
31.90014971
31.86977468
31.88027262
31.86803235
31.9107135
31.89451807
31.88635348
31.83418008
31.85197313
31.86132795
31.83656812
31.84454678
31.82509662
31.88823912
31.8657768
31.85966406
31.9933358
31.96675241
32.04848081
32.00846967
32.00288785
32.01111679
32.00984597
32.05537558
31.96884641
31.9872526
31.98687354
32.03210451
32.00266988
32.01049918
31.97624956
31.98967257
32.02421157
31.95853341
31.97114433
31.96027823
31.96743297
31.94504449
31.96186635
31.90914257
31.92806977
31.94534435
31.91576084
31.91946575
31.90299899
31.87610354
31.87053948
31.8906043
31.83044293
31.85121209
31.85401419
31.85878133
31.8515466
31.83565
31.78787636
31.79556172
31.8127623
31.76444247
31.77967373
31.76966794
31.80748282
31.79242837
31.77973028
32.26895982
32.14850257
32.43829103
32.29648058
32.29541545
32.27372795
32.28173714
32.45937276
32.10147992
32.194234
32.18656386
32.35703478
32.25499791
32.27869224
32.1720489
32.2104836
32.33732987
32.06427989
32.13332855
32.10949903
32.18755007
32.10097109
32.13871778
32.01997776
32.06110153
32.13411264
31.97086321
32.01027863
31.97594604
31.97761721
31.93812744
31.97883635
31.85977031
31.89829644
31.92975636
31.86131618
31.87550965
31.84346784
31.80231176
31.79106047
31.8239039
31.73278382
31.76118331
31.766876
31.76161547
31.75930791
31.73504579
33.27775417
32.84048934
33.93592791
33.36693287
33.36644985
33.24129611
33.29799056
33.97315146
32.62602997
32.96513583
32.93218076
33.4695397
33.12802676
33.22997308
32.82797722
32.95798841
33.36106987
32.47938738
32.70413891
32.62518203
32.84925917
32.6045578
32.71839226
32.38749043
32.49339045
32.69834623
32.22370619
32.34584804
32.26051964
32.30486923
32.19166555
32.28566006
32.02341037
32.10458748
32.19727376
31.97374741
32.03238877
31.96495319
31.92793484
31.88360366
31.95039518
31.76878138
31.82320401
31.85691563
31.77868035
31.79736572
31.75182629
38.19459326
35.93127817
43.38609472
38.39196158
38.62208268
37.35737663
37.93467857
41.85862734
34.69067966
36.16776962
35.87638131
37.55724694
36.22620332
36.91316063
34.85234644
35.39847406
36.76544281
33.82240366
34.55463835
34.18301499
34.57795574
33.9752044
34.38950879
33.309278
33.61686653
34.09637584
32.93353071
33.251428
33.01039088
33.04875962
32.80645639
33.04016886
32.42504029
32.6025182
32.7983686
32.30686376
32.44485002
32.29602849
32.22666974
32.13380359
32.27047398
31.9079353
32.01358255
32.08563446
31.89903296
31.95114256
31.86289799
62.66114306
55.93572826
55.46068349
54.16539479
55.13906128
62.57010067
46.6057025
50.17153707
49.6497784
38.49874388
37.23713208
38.71894735
35.25349304
36.11813204
37.05125745
34.64421786
35.34068064
34.6601149
34.42772699
34.00826243
34.56205907
33.17855474
33.55495738
33.87810528
33.01699898
33.2724929
32.95366885
32.74872488
32.59841137
32.86336559
32.1821145
32.37313384
32.4915302
32.1701504
32.26495705
32.1002432
82.63041171
76.57256135
85.393308
62.69983442
68.21335624
72.89853773
44.87112231
43.13174865
47.02832701
38.46300444
40.41706788
41.70174841
38.06821358
39.23243586
37.58989776
36.46100691
35.88079732
36.9977077
34.31239424
35.00834551
35.45502295
34.22925469
34.62139057
34.00807742
33.4968267
33.28978873
33.74945228
32.59750709
32.91095142
33.07069125
32.62360912
32.76413827
32.48369614
125.1610239
120.9709418
144.8095577
90.10766318
102.9333262
106.4087772
95.28215406
99.29705101
87.51774443
51.4515757
49.91692468
56.37332733
42.2589218
45.45434941
46.6504471
42.96117409
44.24294247
41.34734446
38.72097956
38.1250323
39.89673216
35.68267939
36.75950791
37.21569101
35.87395951
36.33444269
35.34447754
34.34683325
34.13022016
34.82380414
33.10580024
33.56587207
33.73475536
33.23069635
33.39825967
32.97518359
142.8157773
141.973343
168.4729532
106.3179705
121.4723721
122.5582239
118.6749789
120.2894167
105.1026419
56.12383507
55.18257849
63.01856386
45.57932095
49.62778808
50.42702736
47.72378093
48.73434016
44.86169966
40.6801104
40.21743605
42.5385118
36.99573313
38.41522996
38.79267844
37.62594834
38.04749673
36.69532082
35.14192331
34.95182468
35.8642027
33.61195343
34.21216816
34.36340821
33.89401915
34.05264135
33.48695013
140.8940296
141.4935374
164.1265224
58.55050305
58.13064967
66.21682953
47.77855174
52.21433215
52.639413
51.12073388
51.73830259
47.36567946
42.041502
41.75816093
44.38651144
38.03202352
39.68532575
39.92093689
39.10206765
39.42517984
37.81386933
35.76485788
35.63132451
36.70495786
34.0480103
34.75819692
34.86644756
34.50420638
34.6336322
33.94987132
52.97032108
53.20303419
48.71504471
40.12786806
40.30820131
38.56027987
34.96503981
35.05572521
34.29303499
203.0293555
175.9353063
168.2473314
187.9705612
181.2025885
211.5391947
282.5198842
238.6577056
236.8939799
240.8705159
239.7476325
283.2527053
234.2732633
199.1529615
193.1097247
209.1124231
204.0330614
241.0399107
261.7417001
231.6479955
233.4270904
283.2975199
241.913485
241.3947521
241.8674156
241.9327465
282.5149453
54.2424451
48.68025232
47.80566801
44.39030995
55.78992187
50.75981543
51.83624422
47.52799237
48.60893763
53.43948582
77.011177
86.67878459
91.12587247
77.47384196
82.18031526
74.26753768
110.7086913
94.67852827
88.64787789
100.0412517
114.6663067
116.9032575
109.4264266
112.2837477
98.06033688
158.6194741
132.1437403
128.8814883
109.3419822
124.0891456
124.2490246
123.2145663
123.8205838
108.8510443
168.8617502
143.5841483
143.3311356
935.9677117
810.4862857
829.1059656
773.8341954
792.8220327
909.0725727
398.1903543
388.2190166
340.7667333
547.2186834
454.8802525
469.9916732
427.2049045
439.3433655
525.4601325
166.9377329
149.5538393
140.5393568
162.9465318
154.7094681
176.6442775
672.7283219
547.9770363
530.3339278
274.6028042
230.9043835
227.9883366
235.2253813
232.9548307
277.1774066
793.2478356
796.0006043
1055.914098
546.5189431
609.9733996
630.332699
598.7014157
606.4186246
546.439221
945.7788814
763.452027
767.6156849
638.2325435
621.6802702
801.7633651
543.1148007
582.5841496
592.1105268
561.367047
573.1762759