/*--------------------------------*- C++ -*----------------------------------*\
| =========                 |                                                 |
| \\      /  F ield         | OpenFOAM: The Open Source CFD Toolbox           |
|  \\    /   O peration     | Version:  v2012                                 |
|   \\  /    A nd           | Website:  www.openfoam.com                      |
|    \\/     M anipulation  |                                                 |
\*---------------------------------------------------------------------------*/
FoamFile
{
    version     2.0;
    format      ascii;
    class       volScalarField;
    location    "3";
    object      p;
}
// * * * * * * * * * * * * * * * * * * * * * * * * * * * * * * * * * * * * * //

dimensions      [0 2 -2 0 0 0 0];


internalField   nonuniform List<scalar> 
3259
(
167.1668659
-12.96393121
-187.0440484
-341.0249995
-467.4829801
-565.3937121
-637.6289456
-688.3245702
-730.7885723
-750.0841908
-761.2405842
-766.4049822
196.6866927
8.94815747
-175.6113304
-337.6837262
-468.8641089
-568.9714367
-649.2172431
-696.7697397
-738.4162898
-755.332815
-765.1682141
-769.703342
203.4996112
-6.973924364
-206.2890048
-377.0629282
-509.5129652
-604.0152333
-681.1354
-720.6310069
-755.97724
-767.8664359
-774.7473608
-777.8144366
207.8093033
-58.71332742
-289.0143913
-461.297924
-585.2684608
-668.641539
-730.9393878
-756.8279283
-781.3229721
-786.2673427
-788.7064264
-789.6245774
220.5785472
-165.6938682
-450.0879475
-618.3079086
-709.6829187
-760.2557889
-796.5668534
-803.2274006
-810.79174
-807.2780235
-804.3135641
-802.6599748
274.1623818
-397.6407933
-747.0932167
-861.559796
-883.1650925
-878.7437573
-873.2897664
-854.3819373
-840.8578916
-827.7973479
-818.7830168
-814.374162
541.5015944
-1042.951097
-1253.026328
-1188.545562
-1093.221818
-1010.84776
-952.0198649
-903.476951
-867.504859
-844.1675873
-829.3021654
-822.2935754
-2754.146111
-1959.367895
-1544.861021
-1296.019686
-1132.460526
-1017.171218
-942.0781641
-883.916216
-852.4775113
-833.0653579
-823.912096
-4156.451902
-2463.430002
-1789.374234
-1431.347757
-1210.911038
-1053.559836
-960.7333199
-885.9293853
-849.5766305
-827.5575765
-817.1047333
-3843.64017
-2451.092786
-1808.887291
-1445.247482
-1221.772717
-1050.596675
-953.5195198
-870.9580927
-833.7648655
-811.3445174
-800.6442947
-2883.593331
-2066.852871
-1628.56885
-1352.809409
-1164.925031
-1007.458069
-919.8651005
-838.7122267
-804.8479067
-784.2349268
-774.3180952
-1884.738579
-1543.998147
-1337.057508
-1179.76636
-1054.910492
-931.8242172
-863.6822729
-791.4564109
-764.320692
-747.2319541
-738.9246871
-4451.70457
-2920.20623
-4188.300919
-4507.292384
-3136.60289
-4079.482496
-2052.10527
-2996.152625
-1923.239055
762.9122039
-2564.928534
-853.9548854
-5904.137421
-3747.403697
-4096.057802
-2636.165873
-2111.198592
-5955.416729
-6291.937384
-3935.270415
-2752.201971
-2729.880095
-4363.775328
-5191.452872
-3011.278587
-2354.699088
-2687.565964
-2872.942219
-3503.175587
-1605.591859
-1562.943408
-2119.466284
-6302.829835
-5962.152229
-4053.086501
-5700.566863
-6139.236674
-5241.377851
-5921.263256
-4380.33881
-5790.801798
-5151.558868
-6131.158485
-5823.10672
-4413.191621
-3596.685619
-4304.932903
-3555.792494
-4201.254007
-3525.80838
-5102.627569
-4307.539698
-3693.229423
-2201.02277
-2786.275263
-1561.604657
-1602.558583
-1485.647342
-1556.064695
-7397.037972
-4667.986111
-3433.515406
-2005.612804
-1759.553159
-2214.473496
-2006.31676
-1951.179421
-2243.521949
-3565.637466
-5559.132051
-3830.927273
-2291.436183
-2607.032758
-2448.869883
-2743.254147
-2175.531541
-3435.841408
-2827.149284
-2583.948874
1207.980623
-3276.631945
-962.4903084
910.259034
-7512.236828
-5311.029248
-7255.122938
-4453.402176
-7093.000632
-4983.089427
-6118.652304
-6143.691314
-4755.505195
-4811.615845
-3035.258406
-3363.511913
-3137.248943
-3342.620349
-3008.066105
-3759.623914
-3392.769895
-3227.394236
-1593.788824
-1862.101288
-1928.550408
-6259.085594
-6243.874782
-5561.073823
-5603.256483
-5505.058091
-4916.773503
-5074.548671
-4651.231655
-4855.71174
-5463.445692
-6014.524137
-5235.19513
-5246.117251
-5117.508844
-5215.310236
-5990.824653
-3888.23084
-3799.659003
-3939.807147
-2957.780106
-2631.941223
-2531.56028
-2651.686517
-2979.566357
-1936.253493
-1505.171884
-5836.07643
-2153.693935
-2306.33533
4591.115946
-2340.478879
-2507.043461
1898.855693
-4057.548117
-1118.536134
1076.277878
-6035.763765
-6805.820182
-6699.896667
-6239.245079
-4529.954236
-4722.00652
-4524.593348
-5456.262968
-5288.313703
-5034.832913
-6298.811847
-6811.394239
-6846.984093
-6064.634594
-5052.954756
-4762.715704
-5230.906527
-5116.865748
-6074.220394
-5384.852885
-5664.59654
-5513.367228
-5797.231218
-4462.823664
-4283.268266
-4145.006077
-3900.004253
-3656.254487
-3911.001802
-4739.994633
-4336.839965
-4576.262229
-3996.836196
-4253.254757
-4686.188081
-2448.310638
-2587.32889
-2285.058818
-1737.564316
-6743.976513
-5639.734865
-6388.001285
-3571.203353
-3633.58189
-1969.164079
-2107.143912
-2119.832805
4009.707424
4293.873958
3827.575747
-2680.522692
-2512.935003
-2468.775577
-2516.086622
-2698.555991
-7538.249877
-6573.332646
-6121.667656
-6906.632519
-6681.534309
-5937.469298
-5230.850907
-6287.992554
-6494.132562
-6400.005822
-6054.972176
-6217.502747
-6657.481334
-6533.861942
-4970.516402
-4785.595846
-4587.010496
-4842.90964
-5037.781204
-4583.855476
-4783.962233
-5096.604161
-4979.97028
-5233.401624
-5032.009249
-3174.677824
-3235.238063
-3204.219007
-3121.465743
-3259.742217
-3608.09164
-3501.187786
-3649.096602
-3306.015224
-3452.366004
-3553.637577
-1801.811989
-1778.97695
-1919.754636
-6862.333929
-6816.023488
-6292.463804
-6976.34032
-7065.203291
-6942.719572
-7018.145176
-6973.56222
-7101.772072
-7022.130977
-6158.727735
-6797.142313
-6877.181036
-5847.359692
-5712.487563
-5430.658315
-5746.579624
-6043.08848
-5884.539471
-3895.394163
-4055.673022
-3699.711719
-3847.382578
-3942.81489
-4332.526404
-4516.600599
-4107.798307
-4276.848896
-2706.858801
-2794.117502
-2859.319838
-2694.877099
-2909.462225
-2838.231546
-1819.759454
-2462.173327
-1883.148589
-1247.955785
-2292.619478
-2345.756687
-1605.444404
-2354.570309
-2096.317969
-1587.55934
-1546.436236
2267.929748
3416.625543
4380.50098
-4603.637517
-1283.393162
1320.400678
-1632.549317
-1262.250108
-3172.828223
-5636.472489
-6372.848868
-6619.841618
-1591.192963
-1731.419421
-1741.921819
-2196.481922
-1932.459978
-1876.834278
-6684.648916
-6778.159239
-6131.791588
-1574.591262
-1671.587974
-1683.236858
-1587.657473
-1543.431939
-7300.795486
-3469.974743
-1987.486722
-2055.194522
-2061.428832
-2288.348842
-2144.078782
-2109.519023
-4627.969265
-4106.214016
-4926.455136
-2424.532156
-2479.179303
-2331.735039
-2025.739716
-1483.898957
-3945.829549
-7410.30028
-7026.376154
-6875.328025
-7410.076299
-7394.90236
-3081.80025
-3113.504072
-3064.658507
-3380.244338
-3372.385483
-3345.066412
-2935.614057
-3072.773973
-3149.7898
-3722.744362
-3670.949454
-3721.488215
-1921.266347
-1898.741214
-1931.2633
-4065.642549
-4129.285916
-3771.691092
-3830.278014
-3855.867126
-4190.297977
-4211.123244
-4090.25732
-4227.950194
-4065.107209
-1934.916889
-2189.41821
-2232.641209
-2331.19829
-2284.422142
-2262.640487
4622.933839
4922.728603
4442.558672
-2395.053527
-2420.31979
-2341.873856
-2525.497341
-2471.444618
-2459.151349
-2510.185374
-1719.07338
-4419.00949
-6289.578643
-6294.846072
-6221.370582
-6260.78124
-6768.772755
-6606.509317
-6636.637511
-6546.579966
-6577.358627
-6735.495104
-5404.084005
-5321.98103
-5375.254606
-5207.588316
-5267.473558
-5349.555896
-6859.73846
-6673.265647
-6653.604726
-6663.824021
-6677.206226
-6872.676083
-5611.876723
-5527.215331
-5576.053807
-5428.106792
-5477.958029
-5564.339403
-6153.712015
-6187.235329
-6053.185395
-6106.452066
-1583.922176
-1744.628165
-1736.594193
-1726.041427
-1588.891159
-7067.692447
-7381.871529
-7056.568118
-6424.614883
-6112.143646
-5291.790549
-6881.230404
-6558.516856
-3514.78236
-3659.441036
-2116.874004
-2105.001611
-2113.715475
4159.430467
-2593.18813
-2528.990309
-2643.933228
-7256.435341
-7146.697319
-7477.923893
-6835.138412
-7129.47558
-7184.61983
-7387.25525
-7362.301754
-6452.873355
-6342.55038
-6372.963324
-6305.269228
-6317.373498
-6417.185843
-6612.232177
-6475.459946
-6512.36247
-6406.09885
-6439.797042
-6572.18401
-4911.731007
-4837.38575
-4895.913267
-4904.819554
-4974.726672
-4637.735242
-4665.965676
-4629.668845
-4724.180966
-5161.172242
-5204.206644
-5162.524147
-5078.299533
-5143.926734
-4956.14661
-5017.852877
-5098.865421
-3212.745888
-3131.142314
-3119.360813
-3144.781716
-3079.015061
-3134.106638
-3297.463718
-3324.015233
-3263.795667
-3569.022952
-3614.076322
-3641.310451
-6841.660517
-6645.864428
-6652.383629
-6640.841512
-6641.432173
-6826.347
-7007.599134
-7031.672637
-7025.362253
-7275.691547
-7232.828776
-7270.893433
-7295.921036
-7013.645079
-7102.319754
-7226.1314
-7235.170294
-7046.166035
-5806.79413
-5714.524291
-5755.419588
-5622.569608
-5669.022921
-5758.142743
-5987.859563
-5902.895439
-5985.232587
-5794.916713
-5841.044024
-5931.261226
-3981.355221
-4016.344135
-3918.78982
-3886.305459
-3918.8756
-4386.513418
-4418.98241
-4370.803867
-4556.028791
-4479.787246
-4446.985229
-4155.442133
-4190.146172
-4155.316689
-4319.751801
-4268.318408
-4216.488837
-2805.416572
-2787.627151
-2846.794458
-2684.760547
-2733.843198
-2768.25679
-2976.820314
-3020.045793
-2891.817139
-2902.596674
-2914.078675
-1877.904306
251.7591327
241.4408174
201.6861656
51.07277093
54.39606952
-0.2370059068
-147.686832
-131.9791547
-194.9205915
-324.6877354
-300.0913699
-364.2051609
-466.4467223
-438.7715887
-496.1945836
-571.0728749
-546.0267776
268.0825644
254.9793736
206.7957652
19.45084165
45.80038343
-41.64854539
-211.3575623
-158.5610527
-262.1961971
-395.7587342
-337.3728418
-434.3170968
-534.0681645
-480.1290961
-562.2639792
-631.5081141
-583.3501492
300.1971272
274.1762946
215.2194393
-49.10036238
6.401836979
-131.6974056
-343.2948881
-236.7659361
-400.3554232
-535.0924109
-423.3873141
-570.4393438
-653.1424399
-557.8268578
-674.0457627
-722.5153075
-651.6062302
396.2968295
314.0922152
252.1459171
-191.8439814
-74.87655816
-319.1080905
-594.6095463
-391.5243708
-655.6254537
-771.8431826
-584.245331
-792.9789438
-829.2607529
-692.0400683
-835.5337725
-845.4911677
-750.2255342
684.4151269
444.5998792
503.4812097
-605.3264064
-253.8528887
-804.2516682
-1078.018544
-687.4142821
-1104.429284
-1110.291132
-846.2564313
-1099.827411
-1055.450618
-881.7464364
-1039.226762
-992.3894923
-880.7393379
693.337795
-648.1555849
-179.4050288
-1452.997292
-1439.070562
-1161.585925
-1779.400178
-1527.299365
-1210.928645
-1459.895498
-1294.256347
-1116.598925
-1248.987434
-1136.10833
-1029.795517
-3521.207688
-2869.390252
-2370.305735
-2383.474022
-1866.904615
-1627.739119
-1746.837769
-1476.056503
-1348.319294
-1406.924935
-1241.484691
-1167.791017
-4183.874339
-3424.771959
-3343.9835
-2498.908685
-1954.494613
-1916.300258
-1823.170303
-1528.825853
-1503.989766
-1453.921013
-1274.174136
-1257.630365
-3510.700128
-3031.192914
-3239.927194
-2183.841175
-1788.856252
-1934.229624
-1688.2266
-1449.879779
-1519.289786
-1386.409689
-1228.999548
-1269.264148
-2501.423311
-2271.035312
-2565.771868
-1677.92676
-1472.395604
-1718.952986
-1415.102489
-1269.325527
-1411.405814
-1227.711778
-1118.300695
-1206.202895
-1529.740604
-1537.358195
-1732.928872
-1383.487842
-1215.381026
-1083.814988
-4359.836616
-4868.278182
-4995.736242
-3104.439263
-3530.695203
-3259.301607
-4285.418537
-4691.020352
-4505.086732
-5013.504288
-5021.861264
-4531.540551
-3276.648607
-3497.488961
-3259.889014
-4435.555714
-4214.882423
-3957.415067
-2182.484071
-2239.082567
-2100.711184
-3115.790477
-2963.754616
-2857.324723
-1963.721888
-1827.931258
-1795.512572
2773.285434
3835.892744
4566.314202
1151.848843
-1131.059616
911.8977864
-2223.071754
-2256.194273
-2668.052404
-388.6466219
-934.6878784
-1386.193299
-5806.158712
-6028.095663
-6114.291431
-3959.229111
-4515.625571
-4199.346932
-3298.264769
-2992.634629
-3717.644341
-2498.293915
-2785.597221
-2953.965117
-2291.279493
-2561.343093
-2320.457659
-5987.300606
-6131.277529
-6094.56644
-6460.892035
-6438.84618
-6276.472368
-3307.682521
-3403.645767
-4145.969797
-2784.38139
-3106.802442
-3056.243309
-3062.05326
-3111.232989
-2778.494722
-4415.884202
-4474.28708
-4415.822566
-5280.464885
-5227.911745
-5140.267667
-2668.09635
-2938.540818
-3389.22553
-2483.309106
-2706.623472
-2548.780632
-2967.916883
-2848.654994
-2595.973745
-2960.405742
-3010.207756
-2919.631586
-3613.775191
-3468.059895
-3410.405689
-1601.407145
-1651.915032
-1661.325017
-1799.274275
-1845.215483
-1584.160584
-2144.272461
-2060.405022
-2038.317283
-6306.507312
-6483.623619
-6477.577206
-6184.047322
-6245.122682
-6035.529058
-4514.799082
-4804.732012
-4227.937951
-5810.903987
-5462.348631
-5346.988503
-5760.12603
-5746.659865
-6130.300998
-5290.163103
-5380.869097
-5331.607828
-6058.740799
-6022.204949
-5885.011645
-4888.405451
-4746.145887
-4308.596245
-5677.500531
-5370.759055
-5440.972002
-4962.146453
-5047.496837
-5291.44187
-6093.89246
-5751.948624
-5761.754487
-5476.120581
-5524.076265
-5902.029699
-4421.011413
-5005.100323
-4924.874489
-3691.852119
-3809.5342
-3662.848613
-4358.424336
-4301.121465
-4252.405781
-3817.458999
-3576.719868
-3416.531824
-4098.462679
-4005.590542
-4101.672978
-3324.826136
-3572.8035
-3804.014301
-4951.712908
-4782.383984
-4873.624884
-4199.474309
-4298.580024
-4469.879647
-3827.544702
-4136.973157
-3898.032501
-2282.962462
-2313.25539
-2228.55308
-2830.029152
-2741.704366
-2700.499371
-1497.986658
-1551.421645
-4937.900089
-5756.195222
-5296.924762
-1938.678691
-2167.970021
-2375.515326
-1913.912903
-2025.619382
-1845.753393
-2380.047146
-2204.570742
-2066.430533
-2041.197172
-2096.748125
-1957.225482
-2256.792845
-2211.255379
-2201.068126
-4636.025523
-3903.811858
-3171.024883
-5206.607496
-5037.54009
-5380.774522
-3561.498711
-3917.718104
-4386.98746
-2334.819776
-2350.057721
-2302.74318
-2628.108891
-2583.1698
-2562.01378
-2523.189554
-2379.783835
-2315.193658
-2496.799897
-2447.287383
-2620.983576
-2147.169925
-2295.369258
-2416.019095
-3170.189482
-3008.905514
-3245.064907
-2699.568292
-2928.293184
-3083.350864
-2720.222009
-2815.315893
-2668.405811
1653.964375
-2820.517094
-2831.36657
-3377.505382
-356.3167161
-1051.145344
-1680.457255
1053.103557
-692.5634411
-118.6256848
-5823.622832
-6268.232244
-5580.508167
-5869.405232
-4964.925292
-4195.446798
-6683.90224
-6451.489995
-6907.365936
-4616.565589
-5012.869426
-5657.232357
-6246.230925
-6220.740405
-6095.01228
-6168.865303
-6303.822596
-6274.564032
-4826.080592
-4768.457052
-4699.554072
-4867.838727
-4943.064066
-4884.464499
-3194.193555
-3101.749891
-3048.465925
-3305.743988
-3273.298081
-3317.907803
-2982.010643
-3028.909429
-3054.849992
-3364.074534
-3412.453964
-3442.863297
-3318.547883
-3420.549351
-3278.037858
-1682.811871
-1695.008886
-1603.190852
-1909.614131
-1771.388948
-1772.113105
-6452.237084
-6456.912824
-6274.113525
-6229.137033
-6423.010644
-6441.417175
-5656.181689
-5613.967373
-5519.00546
-5647.861887
-5743.300693
-5697.894263
-5279.92056
-5350.356643
-5634.066791
-4973.848687
-5155.439504
-5092.936581
-5273.645118
-5217.866636
-5026.468903
-4723.30883
-4881.906791
-4803.501893
-5027.141263
-4956.586699
-4791.482869
-5336.714992
-5129.409885
-5207.212656
-5705.435619
-5732.594037
-6075.28001
-5247.417976
-5482.264906
-5463.125606
-5494.4939
-5493.092401
-5251.458085
-5155.222486
-5363.250634
-5323.732628
-5436.444993
-5402.596686
-5188.191956
-5925.766186
-5632.48162
-5671.440099
-4013.354665
-3858.400171
-3748.176741
-3987.831935
-4031.971733
-3980.426588
-2815.766732
-2784.026958
-2888.261693
-2605.812135
-2694.251158
-2771.045247
-2615.330212
-2654.819182
-2568.894097
-2697.60498
-2715.181048
-2670.368348
-3002.452331
-2945.764484
-2926.91318
-1512.217767
-2207.258567
-2222.403041
-2164.547845
2412.732211
3118.982867
2063.549703
3205.621923
2667.751403
4175.2825
3444.915202
-3465.257953
-3487.319475
-4174.555947
-594.9342315
-1211.18245
-1729.044016
1356.092106
-797.5848468
155.2838725
-6172.598831
-6159.673833
-6014.281781
-6258.729427
-6415.611464
-6390.783563
-4592.91555
-4533.716184
-4472.306462
-4654.926893
-4592.934301
-4654.809737
-4470.159402
-4530.594385
-4584.402954
-5088.254138
-5174.324275
-5118.348778
-6474.370195
-6482.301578
-6304.3046
-5626.732601
-5554.771238
-5897.186311
-4973.482595
-5249.735455
-5327.216785
-5037.007811
-5153.512028
-4877.652174
-5204.609424
-5464.329204
-5485.016308
-5387.867332
-5432.458522
-5167.287777
-6124.115285
-5722.676967
-5685.376551
-5477.312431
-5429.389936
-5337.966333
-5844.107612
-5977.11752
-5921.495013
-4399.345869
-4351.305755
-4410.900106
-4237.627439
-4293.361514
-4339.417056
-4195.701736
-4245.295687
-4190.461519
-3817.567043
-3910.85636
-3998.155583
-3740.533168
-3825.546206
-3736.762343
-4006.258188
-3915.411645
-3825.396044
-4593.270351
-4688.844092
-4899.347212
-4418.878654
-4551.470818
-4463.032372
-4721.980147
-4637.811687
-4498.637315
-4082.830902
-4189.693014
-4097.831314
-4372.866799
-4281.522382
-4168.309626
-4524.354496
-4397.646783
-4496.018826
-2483.311955
-2398.061392
-2365.407247
-2452.169463
-2430.117314
-2517.804629
-2256.932804
-2343.415645
-2374.496225
-5895.02338
-6324.416861
-6730.124439
-2019.285474
-2035.122136
-1978.575788
-2114.400421
-2080.987239
-2064.595413
4309.512466
-2630.63052
-2605.01819
-2650.674214
-2501.921275
-2550.786299
-2566.699904
-2515.486163
-2534.463472
-2486.639382
-6443.355927
-6789.070146
-6922.627837
-6462.745849
-6636.656843
-6292.751217
-7023.702246
-7089.849723
-6767.053191
-5730.930296
-6048.145441
-6271.631062
-5510.322438
-5796.749736
-5506.876929
-6649.12
-6168.801241
-5849.382298
-6073.502437
-6199.935844
-6186.497186
-6363.42808
-6333.81639
-6193.813384
-4716.238985
-4777.587065
-4849.654583
-4643.582506
-4710.632345
-4651.978127
-5060.243056
-5001.518241
-4924.026936
-3176.340362
-3226.840494
-3259.689471
-3167.171627
-3196.088605
-3147.461056
-3289.239306
-3242.515332
-3215.142842
-3550.541699
-3584.213898
-3535.054137
-3683.312822
-3633.883663
-3599.724339
-3354.317328
-3384.560304
-3336.348938
-3485.703857
-3434.775722
-3403.277838
-3494.789606
-3464.46982
-3519.030448
-1795.018726
-1853.290488
-1871.6639
-1827.232703
-1839.368491
-1788.197657
-1927.94389
-1884.712023
-1873.334729
-6284.745761
-6460.031719
-6465.456719
-6365.095641
-6398.944364
-6208.342143
-6831.957608
-6609.452352
-6578.152613
-6649.70222
-6635.558191
-6866.980992
-5475.591676
-5569.635524
-5523.797305
-5858.656607
-5797.298356
-5696.021031
-3945.271294
-3983.684649
-3933.522727
-4099.885869
-4038.283407
-3999.174518
-3750.954741
-3789.509691
-3735.002657
-3882.67082
-3839.869358
-3799.974402
-2819.041122
-2765.817906
-2745.863576
-2880.74277
-2896.173137
-2862.492327
-2201.169217
-1763.310487
-1671.653061
-1655.863354
-1713.603568
-1997.155286
-1222.617177
-1450.806488
-1440.961201
-1669.266715
-1497.696592
-1454.03546
-1860.701556
-1856.773361
-2001.103318
-1575.274544
-1715.103012
-1736.604521
2898.087175
3330.710597
2548.698343
3740.238362
3649.145511
3252.0401
4543.546007
4102.306155
4070.414158
-3018.4918
-2877.786317
-4196.13598
-618.9170576
-1353.968787
-1999.352418
1231.953153
-185.6780697
294.0410062
-1710.360579
-1824.239374
-1445.659937
-2917.966943
-2277.059167
-2102.121322
-5881.628085
-5956.586355
-5729.087157
-6465.658593
-6195.822963
-6107.622146
-6355.891101
-6278.289752
-6546.394352
-1637.737848
-1643.454658
-1594.898836
-1737.256112
-1689.406289
-1685.428704
-1707.20253
-1697.324966
-1741.914448
-2107.640867
-2084.471007
-2170.691817
-1912.561576
-1998.478777
-2019.915376
-6733.31801
-6477.419888
-6423.140525
-6549.180329
-6517.722923
-6762.190414
-6073.728506
-6290.072153
-6332.485174
-1546.897698
-2243.950378
-2226.703005
-2272.021558
-2131.104798
-2179.286665
-2194.211139
-2152.921544
-2165.112986
-2119.019203
-4471.872801
-4737.090014
-4898.697617
-5174.212936
-4838.66623
-4608.75223
-2441.234011
-2396.440705
-2382.645698
-2435.397309
-2415.184045
-2458.907332
-2318.084322
-2366.620738
-2381.273002
-1916.59257
-2343.42505
-2407.583773
-2055.545484
-2233.174494
-1740.520097
-3469.222017
-2812.840379
-2783.367916
-2979.711727
-3004.012775
-2957.44272
-3098.889873
-3050.630421
-3027.592001
-3100.517156
-3076.286912
-3125.338707
-4137.087575
-4083.961552
-4040.933608
-4172.19
-4129.058633
-4183.237636
-4022.658174
-4075.353912
-4117.429945
-2286.365315
-2859.743997
-2954.311328
-2395.699352
-2687.320128
-2051.914446
-4290.420542
-3439.831414
-3260.253328
168.7742823
77.89907127
77.46632882
-13.73650804
-103.7154428
-101.786695
-189.9559798
-270.7535248
-267.176235
-345.0156122
-412.0550476
-407.8892465
-471.6135682
-523.8248102
-519.8755273
-569.1530328
-608.2149205
-604.5853144
-640.8209889
-667.9909249
-665.2753687
198.8170022
150.6958872
149.0732424
7.308068782
-41.51186227
-39.93484177
-179.9874228
-224.3366875
-219.3179943
-344.0007368
-380.3251273
-373.3881835
-475.3394215
-503.1675323
-496.1956825
-592.2856337
-633.0124517
-617.724749
-662.8670172
-687.1074708
-675.2584114
-706.9619348
-722.4755665
-714.5710771
205.6007605
150.2842048
152.1162838
-16.00530838
-69.77504018
-58.63048313
-221.1503388
-267.3098243
-251.8436983
-392.5152443
-429.5066714
-413.9442049
-524.8555544
-551.2476263
-536.2399928
-649.913876
-680.1244794
-653.865123
-703.8867924
-722.5336989
-702.9935065
-737.2415462
-748.1251196
-734.7989405
209.1394317
136.5105928
140.8108357
-79.04123189
-145.7259887
-121.3083817
-320.5978074
-369.8322519
-337.4401747
-492.6071978
-526.2660603
-496.1063457
-611.6583887
-635.0486824
-610.022877
-734.5609208
-748.7385222
-711.8000797
-762.0339212
-771.894245
-745.5743251
-779.0667822
-783.6269861
-765.3053742
227.0247451
114.2893994
120.4145014
-206.5502455
-297.5955235
-249.2390191
-508.3382789
-559.4092797
-500.9986655
-671.8963226
-696.9448658
-647.3430318
-748.5561177
-760.6791821
-724.9799165
-847.3500622
-834.7510149
-789.9317174
-833.9449642
-831.9136474
-800.9214147
-828.7638247
-825.7180335
-804.3260826
304.2238107
80.06919388
92.40145542
-497.2356357
-625.0254879
-516.1515095
-852.540914
-889.2253361
-792.1195226
-935.734467
-939.3102734
-871.7957974
-933.3731242
-928.4469696
-883.3013237
-978.0788794
-932.1026722
-882.6859518
-913.2186009
-895.4963146
-863.7882888
-879.8166994
-866.7222422
-846.4525752
591.616518
289.6317795
298.1806349
-1417.547265
-1386.863572
-1245.790924
-1279.897344
-1244.248288
-1164.847265
-1146.681292
-1118.014682
-1070.846507
-1105.160194
-1027.776095
-981.4307662
-987.4221498
-953.0995476
-925.7468214
-925.0933582
-902.6757005
-884.1310608
-3034.229969
-2846.402078
-2609.995176
-2126.186993
-1967.039289
-1831.476613
-1623.595496
-1538.814428
-1471.637394
-1339.475003
-1286.779263
-1248.943037
-1197.402646
-1096.903077
-1066.946283
-1039.671782
-992.7386948
-975.8689158
-954.4352335
-924.7841554
-913.989014
-4187.8242
-3889.973729
-3852.51279
-2508.421695
-2285.951458
-2245.744596
-1816.804212
-1704.718388
-1680.606232
-1447.749765
-1381.276544
-1366.864993
-1226.209612
-1122.670018
-1116.034014
-1057.270884
-1004.13899
-1002.502632
-960.8125452
-926.4704128
-926.1819426
-3740.030936
-3539.438281
-3628.436832
-2379.75244
-2194.023869
-2250.058582
-1780.535852
-1677.42719
-1699.752335
-1434.952088
-1370.99394
-1379.792546
-1185.386838
-1096.378089
-1115.926144
-1033.740354
-982.4408455
-997.3688623
-939.9840791
-906.2227651
-917.1957717
-2755.74349
-2656.194595
-2773.795674
-1941.679242
-1830.086537
-1936.075668
-1562.5008
-1490.90706
-1548.062864
-1314.801653
-1266.075728
-1299.550398
-1086.053372
-1023.99444
-1065.17832
-972.950603
-930.3346258
-959.8170458
-894.2225049
-864.9625729
-886.3886626
-1764.245578
-1742.944571
-1849.380073
-1411.588997
-1370.669288
-1486.707977
-1257.655491
-1223.480533
-1293.61416
-1130.244143
-1101.742877
-1146.136048
-974.9756431
-895.195172
-836.7528503
862.575127
-3790.803993
-3702.0063
-4004.202939
-3707.699993
-3775.632799
-4015.942773
-2890.555321
-3006.281736
-3138.540637
-1641.408483
-1648.594011
-1567.044425
-5988.048058
-5977.27805
-6139.418708
-5755.983265
-5633.998217
-5666.725096
-5067.840227
-5108.450486
-5198.885295
-6122.217729
-5978.142504
-5974.727465
-5696.455086
-5723.156084
-5852.092716
-3458.534021
-3546.549995
-3616.97966
-5053.32475
-4972.832888
-5015.420793
-1488.133204
-1968.552068
-2074.899891
-2127.552051
-3948.215054
-3746.644288
-3417.560615
-2660.248277
-2620.475215
-2701.718565
-2157.393872
-2229.789004
-2255.254462
-3346.562846
-3285.255987
-3371.284936
-2783.126539
-2865.175615
-2911.868423
1472.952288
1624.768482
1315.071203
954.1752136
530.2261081
527.4790273
-4950.365587
-4690.820076
-4280.02156
-5411.147444
-5444.412691
-5546.779882
-5422.935949
-5331.521524
-5365.07776
-5890.750752
-5900.998753
-6035.215909
-5969.495718
-5849.288205
-5861.701257
-3930.279801
-3880.323686
-3841.522426
-2908.027894
-2885.669479
-2933.969655
-2616.119589
-2659.057102
-2677.886533
-5887.738698
-5852.165135
-6055.032484
-6097.328995
-5939.665562
-5905.016684
-4672.434056
-4719.286422
-4793.312144
-4632.434081
-4568.819143
-4616.558478
-2542.509238
-2527.181446
-2569.381744
-2366.180685
-2120.926945
-2174.078067
-2017.363055
-2003.668939
-2075.727242
-1669.792911
-1693.901596
-1561.669289
-1561.08592
-1884.673432
-1911.158141
-3079.518433
-2740.284427
-2788.988869
-1957.501879
-1976.943863
-1894.023034
-4337.631864
-4549.543426
-4297.994741
-3843.752698
-3474.772638
-3441.91501
248.6192919
244.6560619
152.8643297
151.9802543
200.2358898
54.66025626
103.2051884
101.9425341
103.3009627
103.5024301
54.59831444
-50.06879248
-44.19197749
4.300716644
-139.9054317
-93.09704691
-99.85907518
-85.11128682
-88.14064933
-135.3418322
-239.7974581
-230.6208613
-186.569263
-314.2103076
-273.9814137
-283.6561679
-260.242517
-265.8541477
-306.3959248
-400.520008
-389.0096567
-353.2499924
-454.7792805
-423.4583459
-435.023642
-407.3029679
-413.8717782
-445.9101783
-523.0831046
-511.8050579
-484.7797213
-560.495243
-537.5215032
-548.3825953
-522.5392143
-528.5945345
-552.3924996
263.1005365
258.9047582
144.5441269
147.5991501
206.0001358
30.30372846
88.96115015
81.79056644
98.75527926
94.59576084
39.03111139
-100.7837402
-83.72161992
-27.49319365
-190.1053765
-138.1087245
-157.520793
-109.502715
-122.2039633
-172.6169703
-309.8140013
-286.5461117
-239.6969412
-372.3643318
-330.823942
-354.3467643
-295.8047605
-311.3784271
-353.0036381
-470.07954
-447.9786085
-411.4504233
-513.5792422
-482.1475998
-503.3355669
-448.5181811
-464.0725768
-495.7462401
-587.7395698
-568.3305692
-542.3468248
-613.3362512
-591.9547833
-610.8151676
-560.987705
-575.4201058
-597.2938823
289.8237304
281.4005237
126.3914851
131.6662134
211.2260425
-27.42020356
51.28461217
37.4666622
73.19144685
63.11843551
-9.089474614
-208.7656159
-174.6177726
-103.1370336
-302.06072
-241.080581
-279.4464647
-180.820084
-208.4711761
-266.8038438
-450.925446
-407.4687472
-357.4876692
-492.5632856
-452.3514485
-495.5765246
-382.2007193
-414.7330066
-455.5313283
-601.4882332
-560.9840415
-528.6364564
-617.378037
-590.5477109
-628.8223873
-528.1877888
-557.0822441
-585.5520731
-692.204865
-662.3471946
-641.3995447
-696.8932578
-680.7690098
-708.3250731
-632.0621837
-655.460773
-673.3505659
360.3021891
333.7946672
100.9792737
108.0353398
236.4109754
-143.8706435
-20.86534137
-49.85903428
21.30157065
2.232505777
-105.8705651
-428.4825981
-356.4647958
-256.588805
-515.9815872
-442.8397877
-519.7600978
-324.6625128
-378.4063688
-448.4512364
-704.8301027
-627.4416276
-576.7416892
-703.3872684
-669.4205997
-743.2315506
-545.2456846
-603.0683327
-640.4207622
-808.7479894
-750.4996171
-729.9776025
-780.0140924
-766.8325167
-820.5525379
-671.3962391
-717.2210672
-734.2476861
-840.0565056
-799.1029154
-790.5892481
-811.810583
-806.0756427
-843.2341936
-738.42758
-771.0808245
-780.0448257
597.6047833
510.4717573
-103.8478701
57.71681178
341.619863
-446.0508483
-214.1358038
-333.1332804
-87.76799949
-139.4504079
-335.1955345
-939.6361334
-763.8098886
-627.9392173
-928.6738201
-861.6486247
-1027.27053
-611.4082877
-723.5500213
-798.2124994
-1115.519574
-996.6485756
-971.4382493
-1015.726802
-1010.10373
-1116.110703
-824.1068745
-912.7739989
-927.4742696
-1086.37403
-1010.980562
-1015.156214
-995.2029556
-1003.998969
-1071.312102
-878.2010969
-939.4304386
-937.2109591
-1023.10254
-975.3322818
-985.5112719
-954.7362523
-964.9900571
-1007.408729
-882.3436449
-923.0299628
-917.358685
185.3687824
260.4960681
645.8026395
-434.2555514
-112.2754904
-274.7283501
48.86330165
-14.53886017
-287.0245959
-1685.835697
-1535.693085
-1595.540738
-1422.626865
-1477.742158
-1602.300197
-1230.708437
-1352.318901
-1316.241171
-1399.076934
-1322.730592
-1370.913662
-1236.901768
-1278.111142
-1344.103154
-1140.626018
-1209.941004
-1177.350419
-1207.826171
-1163.935877
-1198.913977
-1102.19326
-1131.755091
-1170.283505
-1049.678627
-1091.345728
-1066.64409
-3265.665801
-3066.238534
-3291.494931
-2706.146662
-2874.594076
-3051.265904
-2177.968795
-2084.547287
-2270.140735
-1801.588867
-1930.859958
-2008.573801
-1722.411725
-1834.071972
-1720.947981
-1643.769072
-1596.447979
-1691.465279
-1440.806249
-1513.636149
-1554.358832
-1406.54198
-1464.315358
-1398.31659
-1345.508388
-1318.756608
-1376.264903
-1220.93262
-1267.257041
-1290.674652
-1206.424857
-1239.272212
-1196.333481
-3897.745734
-3904.27958
-4193.841892
-3406.677098
-3643.031244
-3645.786422
-3584.259441
-3626.354344
-3396.997357
-2285.899625
-2298.76091
-2519.299981
-1960.274497
-2115.007451
-2106.925844
-2066.264083
-2101.787047
-1947.503595
-1710.36495
-1716.007018
-1828.957157
-1531.952668
-1617.830178
-1613.604347
-1586.385537
-1607.568115
-1522.628872
-1387.294856
-1388.752135
-1456.126714
-1274.478275
-1328.57269
-1327.759167
-1309.30384
-1321.924478
-1268.657529
-3339.191837
-3442.432357
-3628.101315
-3102.791207
-3268.082805
-3178.028926
-3428.075503
-3353.130015
-3185.408579
-2033.984896
-2120.950871
-2289.350321