/*--------------------------------*- C++ -*----------------------------------*\
| =========                 |                                                 |
| \\      /  F ield         | OpenFOAM: The Open Source CFD Toolbox           |
|  \\    /   O peration     | Version:  v2012                                 |
|   \\  /    A nd           | Website:  www.openfoam.com                      |
|    \\/     M anipulation  |                                                 |
\*---------------------------------------------------------------------------*/
FoamFile
{
    version     2.0;
    format      ascii;
    class       surfaceScalarField;
    location    "3";
    object      phi;
}
// * * * * * * * * * * * * * * * * * * * * * * * * * * * * * * * * * * * * * //

dimensions      [0 3 -1 0 0 0 0];
oriented        oriented;


internalField   nonuniform List<scalar> 
6464
(
0.4582778934
0.002092720974
-0.002101804097
0.4583698524
0.002066951738
-0.001993241782
0.458441393
0.001881848778
-0.00175266466
0.4584783357
0.001609328955
-0.001449777827
0.4584831229
0.001301654948
-0.001154624251
0.4584858691
0.0009837551132
-0.0009116592366
0.4584567141
0.0008049451305
-0.0006646011406
0.4584646144
0.0005499867782
-0.001660564533
0.9186697622
0.0001402850594
-0.0004994827221
-0.001037771523
0.918727207
1.843845379e-05
0.91579379
0.9138184385
-0.003624891024
-0.2290327136
0.2288744026
0.003783328669
-0.004208021729
-0.2292227309
0.2292086154
0.004222137212
-0.00398653625
-0.2293456965
0.2294403021
0.003891930711
-0.003466481582
-0.2294197221
0.2295813473
0.003304856322
-0.002807230628
-0.2294278047
0.2296062427
0.002628792703
-0.002164393337
-0.2293923768
0.2295528279
0.002003942234
-0.4588802498
-0.003061512566
0.4603161077
0.001625654701
-0.0003135464785
0.4609516703
-0.001375984813
-0.459262139
-0.001552417363
0.9182296299
0.0003859038297
0.001606645831
-0.0009490630948
0.9181238527
0.0003743138865
0.914470413
0.9141927523
-0.227921235
0.0184617264
0.2275914058
-0.01812730199
-0.2241263987
0.01500566681
0.2224617829
-0.01330901225
-0.2252763236
0.006279914942
0.2223859768
-0.00335673377
-0.2303156849
-0.005893946449
0.2300296306
0.006181552557
-0.2303749422
-0.005168773701
0.230718607
0.004825108864
-0.003574823669
-0.2302841381
0.2309613798
0.002897582028
-0.4629483723
-7.324947991e-05
0.4617931414
0.001228480365
-0.4600580852
-0.001353387887
0.4600628938
0.001348579285
0.0002987245841
0.9200682351
-0.001243230045
-0.0008940997597
0.001700013461
0.9167225639
0.0007924016588
0.9153780249
0.914985154
-0.2265290396
0.02084926942
0.2261959749
-0.02050484941
-0.2187234602
0.01906117102
0.2180915829
-0.01836037466
-0.2152196969
0.01493218581
0.2136088704
-0.01322113044
-0.2201666349
0.006227718573
0.2173828852
-0.003365794515
-0.2343277835
-0.001425915537
0.237183675
-0.001426546169
-0.003804253221
-0.2318507677
0.2318767529
0.003778268031
-0.4618079522
-0.005753774133
0.46305137
0.004510356302
-0.460808278
-0.003270525178
0.4618250905
0.002253712668
0.003154152633
0.920137739
-0.001707009829
-0.001516646676
0.00218648145
0.917690235
0.00101102498
0.9165534813
0.915996179
-0.2252242437
0.0004069150392
0.2248231198
7.368276784e-06
-0.2187125977
0.001638066834
0.2200521701
-0.002896216716
-0.2120505179
0.007122541227
0.2128901034
-0.007817683856
-0.2213897604
0.01736390221
0.215253593
-0.01107297505
-0.2224088961
0.001773821175
0.2201717862
0.0005494219577
-0.005544992467
-0.2332975702
0.2338615089
0.004981053778
-0.4647504457
-0.006700580943
0.4663827647
0.005068262023
-0.4627923638
-0.003887584576
0.4637900108
0.002889937583
0.003932083397
0.9221336616
-0.003330637909
-0.002597368077
0.00217085501
0.9194514634
0.0009861794697
0.9177381569
0.9169823585
-0.223403969
-0.03298222172
0.222833216
0.03355561419
-0.2292935277
-0.02494714983
0.2324281262
0.02185898429
-0.2255897914
-0.005089503839
0.2262110743
0.004613056322
-0.2120047969
-0.00163956762
0.2132484625
0.0005935940307
-0.2162612682
-4.130514354e-05
0.2159312036
0.0005310669882
-0.003651302833
-0.2337488158
0.2329372087
0.00448449598
-0.4678171006
-0.006895139064
0.4692611259
0.005451113691
-0.4643962636
-0.004374974078
0.4649559906
0.003815247097
0.003258816561
0.9245102127
-0.00271128582
-0.002924081863
0.001783654756
0.9209266252
0.0007404164493
0.9187813952
0.9177227749
-0.02720423554
-0.108789879
0.1082028648
0.02779124977
-0.02209920158
-0.2488169194
0.04202745479
-0.02251425369
0.1252738228
0.1261290971
-0.02761939942
-0.2355162288
0.2405630996
0.02266825889
-0.2197496873
-0.01210442332
0.2233070015
0.008755436018
-0.2176492238
-0.002986806562
0.2183480468
0.002491552322
-0.002621108572
-0.2296215422
0.2292373143
0.003083613481
-0.4706989114
-0.005815546573
0.4715950912
0.004919366758
-0.4659564744
-0.0037229235
0.4669370593
0.002742338636
0.001845453194
0.9261839342
-0.001627716698
-0.001891457996
0.00085557433
0.9219165041
0.0003130697398
0.9193238998
0.9180358446
-0.02947719309
-0.1378976434
0.1406469992
0.02672783735
-0.02987861934
-0.2565441893
0.2611395949
0.02533407936
-0.231276615
-0.01562875725
0.2338657879
0.01324087486
-0.2222779982
-0.007761072494
0.2238917334
0.006374443355
-0.001947719421
-0.2297905795
0.2300459639
0.001806582632
-0.4728429959
-0.003389454441
0.4738513941
0.002381056254
-0.4677060951
-0.001688568403
0.468332827
0.00106183646
-0.0004061507395
0.9269240922
0.0001313006385
-0.0004653078721
-0.0005157252361
0.9220260786
-0.0003157368952
0.9191239114
0.9177201077
-0.01316561316
-0.1536775843
0.154295978
0.0125472195
-0.016419696
-0.271457256
0.2733009646
0.01460508938
-0.2410241054
-0.009586316935
0.2427353176
0.008072664645
-0.2282760556
-0.00405417925
0.2295296835
0.003041604737
-0.0008489104264
-0.231703612
0.2322170986
0.0004663455355
-0.4750645156
3.571349592e-05
0.4759968506
-0.0009680484848
-0.4686285363
0.001363910455
0.4687528545
-0.001488228692
-0.003101878405
0.9262377517
0.002163457818
0.001624761049
-0.002181739449
0.9211059396
-0.001131240868
0.9180734128
0.9165888669
0.004464541167
-0.1522740532
0.1513486826
-0.003539170535
0.0007926163156
-0.2736134506
0.2724161069
0.0004363515769
-0.2453536696
-0.001641287357
0.2457089379
0.001487701472
-0.2327392491
-0.0002351982367
0.2335168889
-0.0002977891222
0.00167765148
-0.2340207759
0.2344761324
-0.002001065989
-0.475905224
0.004731524557
0.4752994466
-0.004125747197
-0.4684907581
0.003888780797
0.4687199592
-0.004117981929
-0.006061418716
0.9240616212
0.004459204554
0.00377834464
-0.00397498416
0.9190195051
-0.002006518954
0.9161049476
0.9145823479
0.01415240196
-0.1430809138
0.1417671233
-0.01283861154
0.01326105554
-0.2661082401
0.2633216889
-0.01041934491
-0.2449724088
0.005022550774
0.2450593312
-0.004899741119
-0.235156309
0.004418712768
0.2354735481
-0.004491194345
0.004948102277
-0.2357983966
0.2360254512
-0.005056991109
-0.4743071434
0.00915419397
0.4729772719
-0.00782432252
-0.468785464
0.006648928516
0.4677210014
-0.005584465951
-0.008789305632
0.9206432721
0.006342884258
0.00586477049
-0.005702990265
0.9159331897
-0.002803568882
0.9132055263
0.911778779
0.01759378711
-0.1328562713
0.1315717918
-0.01630930755
0.01923434496
-0.2550882554
0.2524287028
-0.01648143756
-0.2428506415
0.01156894816
0.2414066613
-0.009895261209
-0.2356893165
0.007878193634
0.2355019609
-0.007455783675
0.007704141835
-0.2361792076
0.2360408564
-0.007473589399
-0.4713694263
0.01275144116
-0.01088687561
-0.4665732375
0.009265616982
-0.007870228338
-0.0111957972
0.006747147455
-0.007198654149
-0.003495628784
0.156741912
0.0157367444
-0.1558040601
-0.008062169594
-0.008612426732
-0.1388308014
-0.03268359859
0.1420372069
0.1544523243
-0.002634859895
-0.1554539195
0.002001641829
0.001634813296
0.1573167754
-0.006609401736
-0.007131074788
0.1442005082
-0.01343190847
-0.1455878187
0.007479523109
0.007339695934
0.1533710485
0.002953887227
0.002591929692
0.1333054557
-0.01736882927
-0.1345692245
0.01863259808
0.01555408653
0.1427988236
0.01909886614
0.1318003767
-0.1055208522
0.1042252146
0.02978673001
-0.1354497124
-0.03316781902
-0.1224890786
-0.02364376759
0.1240336446
0.04181477176
0.009115710652
-0.04149698243
-0.009433499978
0.02423423987
-0.07012382661
-0.02636083143
0.07225041816
0.01483761155
-0.1527784514
0.2799452516
0.02070220214
-0.277383688
-0.02326312928
-0.2643962634
-0.03487913265
0.2694055602
0.04815607972
0.0008019650128
-0.04824363351
-0.0007144112171
-0.04492794202
0.003495528691
-0.002892484043
0.04432489737
-0.001842834484
-0.1530660786
0.2813422614
0.003322885596
-0.2822082316
-0.002456785032
-0.01806757165
0.2815933493
0.03889734143
-0.00424339417
-0.03924830745
0.004594360189
-0.04192864794
-0.001690215483
0.001237042075
0.04238182135
-0.01211864676
-0.1443941755
0.2722674889
-0.01065717268
-0.2752197071
0.01361423425
0.002299854877
0.2798354503
0.07015206872
-0.01103837693
-0.0706440247
0.01153033291
-0.07381210734
-0.01012267908
0.07335325341
0.005362001678
0.005219531332
0.008146703763
0.0307754689
-0.007846955236
-0.03107521742
0.06373932022
-0.01144223119
-0.06416998438
0.01187289534
-0.06685400129
-0.01165454183
0.01202299266
0.06648555047
0.004047790158
-0.04528645376
-0.003689278412
0.00875517178
-0.008972266035
0.04203186601
-0.1506872469
0.02311579375
0.1527986902
-0.01238483846
-0.01284239859
-0.08178538208
-0.008373730021
0.08252649786
0.01638778602
0.04378410735
0.004204327648
-0.04394064484
-0.001508240182
-0.04146076492
0.001040357161
0.0001504064525
-8.622234881e-06
0.0480142955
-0.07829801703
0.001961112267
-0.001930692765
0.07826759753
-0.0467578908
0.04657538813
0.0003329091264
0.04134129019
-0.001745515827
-0.04110401455
0.04346999932
0.003809636718
0.0008065381528
-0.04676246394
0.002664602836
-0.07842242089
-0.002540198981
-0.009932409636
-0.07430014532
0.005230332984
0.005190114631
-0.004113330898
0.004290069414
0.03872060292
-0.1496727683
-0.0103169268
0.1483177419
0.005952938122
0.005719015052
-0.07738456646
0.004098438569
0.07687281503
-0.007700018038
0.07360143401
-0.009481413918
-0.07405242973
0.04156293043
-0.001911855719
0.004086618291
-0.007429298848
-0.03926353313
-0.03902174694
-0.009102486374
-0.1509092419
0.005287088504
0.005051871495
-0.01156521551
-0.06730384555
0.01201505977
-0.01127443262
0.01166323456
0.06976326678
-0.02944500795
-0.007475152531
0.007043546418
-0.02981276277
0.008514458581
0.01169144819
-0.007451329203
0.03040904254
0.01275203536
-0.0431593427
-1.735200652e-06
0.01903046981
-0.0354216746
-0.0209991389
0.03739034369
0.04541126058
-0.007707365921
-0.03753552677
-0.0001683678904
-0.01617241424
-0.1340526863
0.258879442
-0.01830476109
-0.2623767129
0.02183384215
0.01642692862
0.2691105283
0.03890531852
-0.007447888474
-0.03126409565
-0.0001933343957
0.06482078142
-0.01327630131
-0.06540237464
0.006961088079
0.006896806448
-0.03331337847
-0.006641957343
0.006732863984
0.03322247183
-0.07014970435
0.0718757927
0.02250815153
-0.009393017366
0.01751685626
-0.08079351032
0.02524639775
-0.1481196122
-0.01373330598
-0.01408072641
-0.006688468407
-0.03345592964
0.00683101958
-0.0354225858
-0.006857333275
0.007307758425
0.03497216065
-0.1386826559
-0.01651055867
0.01790014021
0.1372930743
-0.07018465913
0.06971669222
-0.0108064657
0.06688682213
-0.01114098252
-0.06731105512
0.07317030332
-0.009691548379
-0.01066605335
-0.07055698271
-0.01604977883
-0.1400749484
0.01744207132
0.01912040583
-0.05230218448
-0.01787179407
0.0510535727
0.02415708385
-0.06811233666
-0.02616857379
0.03604445082
-0.1216630505
-0.01869119026
-0.01997675623
0.06155259139
0.06273395475
-0.0559227242
0.05495193085
0.02009119918
0.03083298216
-0.0004239396217
-0.0781328138
0.02193430088
0.07993405396
-0.01174954627
-0.01198599477
-0.04146730003
0.05656623575
0.01573404643
-0.03524837607
0.03683185075
0.01744699513
0.01454008543
-0.04325535009
0.02286839629
-0.07627959686
-0.01225772008
-0.01246389316
-0.04053396365
0.00254313649
-0.002535589266
0.04052641642
0.002230287189
-0.04083758498
-0.001926665856
-0.03953415034
-0.003220468079
0.003130946499
0.03962367192
-0.003454287801
-0.03983572066
0.003755858121
-0.006169593994
0.03636155937
-0.03541830502
0.00522633965
-0.009693349868
0.02208457536
0.03302003509
-0.07195775151
-0.01075857807
0.01114136879
0.07157496078
-0.03824462526
0.03639399333
-0.007842717937
0.03631746623
-0.006376689517
-0.03611037071
-0.03412466735
0.03816289695
-0.003810289976
-0.0002279396287
-0.006881393124
-0.03907059805
-0.0106023116
-0.07238065049
0.005546702046
0.005478508533
0.0628851913
-0.01298346591
-0.06338085386
0.01347912848
-0.01324108416
0.06428491112
0.00689718467
0.006879769794
0.01904097713
0.0289196552
-0.009055313803
-0.04316067777
0.006111314893
-0.005898219745
0.04294758262
0.006522298606
-0.04318669684
-0.006496279531
-0.03920756341
-0.0009766300322
0.0008642593911
0.03931993406
-0.001327984099
-0.03938291595
0.001503336634
0.04005349588
-0.001050720839
-0.04033075914
0.08039083428
-0.0003951554231
-0.08066797218
0.0006722933214
-0.08133747476
0.001536567937
-0.00135633147
0.08115723829
0.07921735037
-0.002637137416
-0.07953271229
0.002952499337
-0.0009876523087
0.001263058464
0.08011542812
0.04004155687
-0.0009646910222
0.04125710863
0.002370006653
-0.04139682809
0.08164522312
0.005154685651
-0.08166080021
-0.005139108565
-0.08146279962
0.007518500113
-0.007636442183
0.08158074169
0.00222600529
-0.0814811327
-0.00208234735
0.004404234374
-0.004377105512
0.08161809426
0.04138295467
0.002417290446
-0.03796670626
-0.004644922112
0.004823291143
0.03778833723
-0.001878546829
-0.03217685622
-6.926429476e-05
-0.004671552194
-0.03818631165
0.00489115759
0.00616200702
0.0364800252
-0.006324565986
0.006950095573
0.03490451598
-0.006640644692
-0.03521396686
0.06850358797
-0.01143988522
-0.06892387043
0.01186016769
-0.03591696941
0.007444479184
0.005495131282
0.03702843511
0.01926778969
-0.0002268125653
-0.0128982665
0.01325057712
0.03497281399
-0.03798358968
0.00301077569
0.03446325442
-0.007011025732
-0.03453727054
0.007085041843
-0.03212484247
-0.006976980319
0.006648812557
0.03245301023
-0.004090991287
-0.01256659188
0.0134886955
0.003168887672
-0.007687996146
-0.03309396831
0.008657121983
-0.03032740096
-0.007701891897
0.006441180962
0.03158811189
0.02508084101
-0.04798960994
-0.02339337884
0.02272826347
0.02357388431
0.01839243414
-0.03370480703
-0.02010930171
0.02654604046
-0.05782813096
-0.02814194088
0.05942403138
-0.05233304826
0.02768155979
0.02410763144
0.02562469806
-0.04537347312
0.003833702767
-0.005732466621
0.04727223697
-0.04062123771
0.03989455846
0.0008727800254
-0.000146100779
0.03882758051
0.0005880429876
-0.03906500155
-0.0003506219487
0.04237806527
0.002629244999
-0.04299230488
-0.002015005389
-0.0402974044
-0.003688987213
0.003828270017
0.0401581216
-0.04227518744
0.003509606242
0.04265964744
-0.003894066246
0.03755816581
0.006909298436
-0.005975412465
-0.03849205178
-0.03716780927
0.03729545812
-8.106431161e-06
-0.0001195424261
0.04291907933
-0.003528550878
-0.03917435467
-0.0002161737889
0.0425758878
-0.002970455801
-0.04290210382
0.00329667182
-0.04353091216
0.005914865844
-0.006838618062
0.04445466438
-0.03945625624
-0.0275421087
0.0556603765
0.01133798844
0.001834069857
-0.04226294675
-0.0001923608078
0.04246464704
0.006445345086
-0.04238769352
0.08034632413
0.01174000015
-0.07991351587
-0.01217280841
-0.07810746934
0.01420895817
-0.01489256708
0.07879107826
0.008348423773
-0.08128416041
-0.00852706298
0.01087762864
-0.01125206387
0.08072075936
0.04244476079
0.006131201142
-0.04021519028
-0.001135532372
0.000751071297
0.04059965136
-0.03670006978
0.03679219519
0.0001590387704
-0.0002511641893
0.0001247941577
-0.03702175211
-0.0002708513108
0.04466657412
-0.002718225425
-0.0466846314
0.004736282704
0.003659781317
0.0382297543
-0.004331369807
0.002568408052
0.04144939819
-0.003502657776
-0.04051514847
0.03878730192
-0.004239699919
-0.03874359068
0.004195988675
0.07543416684
0.004561718872
-0.00861167813
-0.07605575978
-0.007310595442
0.07451024941
-0.07491808823
0.007718434261
-0.07613372066
-0.006426457983
0.006827692543
0.0757324861
0.03961159325
-0.003201288898
-0.03986459215
0.07773542548
-0.004558403336
-0.07815214202
0.004975119871
-0.003153381143
0.00347970218
0.07889102933
-0.00606722313
-0.07655286168
0.006486364149
-0.004968359125
0.005346638075
0.07735714654
0.03957246619
-0.00318134102
-0.01148424923
0.01184319126
0.06814464594
0.03464267137
-0.006595488664
0.06659477777
0.006681272078
-0.01290350372
-0.06706101453
-0.03821449814
-0.009499639543
0.0191760728
0.02853806488
-0.04074848154
0.01873745031
-0.01916568782
0.04117671905
-0.03112135119
0.04067794462
0.02541622056
0.01899371976
-0.03997448025
-0.01976772106
-0.02897999714
-0.002287923491
0.03144694796
-0.0001790273287
-0.006147544548
-0.0226095608
-0.0002228917868
0.03349203691
-0.007321479728
-0.03366622057
0.007495663385
-0.007506930626
0.008062217308
0.03390796774
0.01976713489
-0.01950632141
-0.0002608134767
0.01473326409
-0.01779235317
0.002499311955
-0.01395144857
0.01333076098
0.00206986259
0.006665009469
-0.03157291432
0.03285866475
-0.007950759905
0.009331394161
0.03329078477
-0.00817336456
-0.03444881437
0.03410080304
-0.006780992365
-0.03441910949
0.007099298814
-0.04132413894
0.02032813215
-0.02115931647
0.0279911925
-0.0001668665641
0.0309598397
-0.03042803412
-0.0005318055709
0.04504164018
0.01251330335
-0.04397736176
-0.01357758177
-0.04162610019
0.01324618816
-0.01402259804
0.04240251007
0.04673372551
0.01154418383
-0.0447623787
-0.01351553065
0.01172458971
-0.0120245819
0.04534163237
0.01345042361
-0.04095557486
-0.01412094894
-0.03840809488
0.0142765374
-0.01512631455
0.03925787203
-0.04104046189
0.04226258096
0.01751533123
-0.03746646137
0.03661081564
0.001165939441
-0.0003102937167
0.02612090482
-0.02603904838
-8.18564446e-05
0.004356694139
-0.04298627924
-0.00674388802
0.002446674321
-0.001872519459
0.04180391041
0.03853208161
0.0005185075161
-0.0002230086116
0.000635349705
-0.03793459132
-0.0001672197579
0.0004264094937
-0.03751195346
0.03890081706
-0.001815273088
0.001066292784
-0.002191094888
-0.04115038533
-0.003445511418
-0.04014919534
0.003297302361
0.03759208654
-0.03617903759
-0.0003467561626
-0.0341455436
0.03512310343
-0.0005511503401
0.03552463867
-0.03511938892
0.006504048688
0.0414888636
-0.0003871708133
-0.00216092286
-0.0318565135
-0.0001281072344
-0.003521568785
0.004386509418
0.04171094717
0.05075943913
-0.007630986123
-0.0002093736715
-0.003570826605
-0.03610204972
-0.03767547694
-0.007023937048
0.007611002251
0.03708841174
-0.005465584656
-0.03625048224
0.004040589961
0.03763706693
-0.00607200202
-0.03703064957
0.03593421561
-0.005987801883
-0.0360343834
0.006087969677
-0.03691104031
-0.005858273007
0.006284692839
0.03648462047
0.0339555241
-0.006913297247
-0.0331897714
0.03699629806
-0.005856060418
-0.03733974826
0.006199510621
-0.03807665026
-0.00535259358
0.005208797307
0.03822044653
-0.005809190213
-0.03714475151
0.006042901416
-0.005657930839
0.005650401177
0.03700382772
0.03601691737
-0.004349316753
0.007433110918
0.03248769538
-0.007631235112
-0.03228957119
0.03243304824
-0.007133727944
-0.0326824547
0.00738313441
-0.007365114578
0.007718049704
0.03313910179
-0.002220712323
-0.04578528201
0.04392736341
0.004078630928
-0.008202557662
0.008648704103
-0.03990240268
0.006015815087
-0.0429077531
-0.006638974149
0.02750051883
-0.03546665123
-0.00023642526
-0.04189657919
0.03982699575
-0.0001511288808
-4.15898747e-05
0.04080229115
0.006091491291
-0.04344118647
-0.003452595979
0.009936064994
-0.01072872569
0.04752638621
0.005016596414
-0.04671903263
-0.0001941429702
0.009058843169
-0.008130242841
0.03987369083
-0.04227064607
0.00759867993
-0.007878571134
0.04255053727
-0.0425155578
0.042874959
0.00869944197
0.00588618039
-0.04665486599
-0.03608861828
0.03639308081
9.629517544e-06
-0.0003140920431
0.0002305922648
-0.03651879996
-0.0004118620775
-0.001017399001
-0.03986792491
0.000670133623
-0.003213290044
0.005732490572
0.0421473736
0.02540881043
-0.02509999261
-0.0003088178205
-0.0005714633648
-0.03545733752
-5.981739495e-05
0.03915874314
-0.005875744903
-0.03987910903
0.006596110788
-0.03778929432
-0.005145539649
0.004357586522
0.03857724745
-0.005183960314
-0.03766387439
0.004771184443
-0.006259183595
0.007402498288
0.03801542845
0.02308873973
-0.022704794
-0.000383945732
0.04153634003
-0.04016982667
0.001201894699
0.001972983506
0.03721143648
-0.006557473943
-0.03847626728
0.007244446902
-0.004261743573
0.003650699917
0.04214738368
-0.02087641655
-0.0002828999143
-0.03570029984
-0.006541769348
0.006289536363
0.03595253283
-0.02749912222
0.03064712697
-0.003034893758
-0.0001131109926
-0.009651820385
-0.04279751048
-0.006041906051
-0.02130808506
-0.0001491311069
-0.00693537419
-0.03598668521
0.007221759561
-0.03056396141
-0.0002174258158
0.02693899587
-0.1350499093
0.03048050445
-0.2583691436
-0.03648951819
-0.2401371693
-0.0332478049
0.2458240403
-0.02550273183
0.02844344973
-0.002720066766
-0.0002206511339
-0.01986782833
-0.005458654398
-0.0001762490984
0.02260017055
0.2555563007
-0.01956475545
-0.0003030728749
0.0665196512
-0.0112873709
-0.02145140473
-0.1292719443
0.01144037258
-0.01754838786
-0.1292391102
0.01879967162
0.01708733324
-0.02029743043
-0.01618066299
0.01939076018
-0.02012354601
-0.009569285685
0.01845855511
0.01123427658
-0.006442928811
0.007337560374
-0.01346122343
0.02412230594
-0.02899354386
-0.03311235176
0.01890823923
-0.0266925818
-0.01966848412
0.02745282669
-0.02283154963
0.02143716827
0.0184817146
-0.1278266226
0.02864661572
-0.0306447243
0.1298247312
-0.1245029154
0.1259905217
0.03455684448
0.0223939943
-0.0683866148
0.009981546565
-0.04056180805
-0.01027659216
0.04085685364
-0.04358588824
0.04406760652
0.01124287143
0.04582820384
0.01049972039
-0.0447837404
0.03129477884
-0.007029450501
-0.03150997944
0.00724465111
-0.007078213444
0.007471981719
0.03203927996
0.03154145133
-0.008553395495
0.006618891559
0.06611887917
-0.0127849503
0.06488608454
-0.01280256704
-0.0653598188
0.06529473044
-0.01160097807
-0.06571571978
0.01202196741
0.04626195865
0.009502310186
0.007406974523
-0.04383104104
0.00781745636
-0.04217997017
-0.00790813226
-0.02658906358
0.005550308971
0.008002367263
-0.02954543441
-0.008269695622
0.03591017972
-0.02764412912
-0.0002636833363
0.01783557473
-0.006953485953
0.007081269093
-0.05726018547
0.01465982199
-0.0005589792136
-0.03348143724
-0.00382103809
-0.0002330514372
-0.03291570755
0.03303819348
-0.007570374406
0.00486350464
-0.03112535726
-0.006653854925
-0.02615226749
-0.0002483235213
-0.03326749858
0.0332721827
-0.006981664437
0.03403644381
-0.006940680876
-0.03410678867
0.03293932461
-0.006620060482
-0.03303841462
0.006719150487
0.01499095914
-0.07732650835
-0.01577192014
-0.07448005115
0.01703846018
-0.01807929473
0.0755208857
-0.07693357725
0.07840399259
0.02046388553
-0.006692771256
0.007003387603
0.03379018669
0.03329953922
-0.007710646352
-0.007277555391
-0.03367793934
-0.06374480233
0.0224041316
-0.02335929759
0.06469996831
-0.06022826611
0.06104426446
0.02573004211
0.01708945676
-0.03394539869
0.01386532683
0.04321982602
-0.0005189171009
-0.04387629261
0.04360111297
0.01414050646
-0.0429440794
0.01480183323
-0.02919354383
0.0293124522
-0.0001189083704
0.009618920607
-0.03862666364
-0.0001858007961
0.007188906338
-0.03547609001
-0.00713112135
0.0333056499
-0.03224101784
0.006124274286
0.00299877631
0.03553321324
0.02222234653
-0.0001377711707
-0.006413517671
0.02869398497
-5.812077199e-05
0.03401857473
-0.007412057308
-0.006044557651
0.03524417628
-0.03536769891
0.006168080283
-0.005941393228
0.006139220207
0.03573638863
0.03724733361
-0.006634203723
-0.007554892972
0.04606221975
-0.0003444298231
-0.03925602555
0.03829844235
-0.006597309766
-0.03831432952
-0.00475198601
-0.007472611732
0.005951924031
0.0304403429
-0.03217824619
0.03245535814
-0.007749723682
-0.00819536651
-0.03308952356
0.03512230909
-0.001805623288
-0.0002271622393
-0.0304375584
-0.002342821518
-0.0003091436484
-0.03647708204
-0.00371579431
0.002387779488
-0.03449181985
-0.004373041673
-0.02964360837
-0.0001454683674
-0.02359341022
-0.006561409775
-0.0002827384
-0.02339118652
-0.0002022236992
-0.004287926861
0.004429490127
0.03864573866
0.04166063722
-0.0044729826
0.03871183735
-0.005852314432
-0.03941699686
0.02552687978
-0.0003071660507
-0.03256100835
0.04004075841
-0.007244716791
-0.0002350332693
-0.003814767023
-0.0003027916027
0.03037568741
-0.02918552926
-0.004979497269
0.03263511792
0.0336494498
-0.006175936831
0.01031643725
-0.001413224359
0.004585482618
-0.01008019053
0.0132490782
0.004340492525
0.005975944727
0.007450494366
-0.0332083823
-0.007336080377
0.04009316273
-0.03236052598
-0.0002821423817
0.02718260252
-0.02058745252
-0.0001539690371
-0.005022828048
-0.0001550954108
-0.006643098449
-0.03057769977
0.01622902655
-0.01691514855
0.03126382177
-0.02881354553
0.02953344244
0.01818834232
0.02357129498
-0.03057034023
-0.04574575169
0.04199853526
0.00392498688
-0.0001777704482
-0.05358243721
0.008159035321
-0.0003223497983
-0.04077865193
0.04041781609
0.0004369326303
-7.609678626e-05
0.001394388555
-0.0001745052268
0.0006277837468
0.03946987442
-0.0002030997081
-0.04479977071
0.04389946004
0.001528094419
-0.0458968772
0.00196988651
-0.04310286666
0.04244533615
0.001245573491
-0.0005285988457
0.001325192231
-0.0001237259743
-9.799587874e-05
0.03784192039
-0.0004484663915
-0.04254757879
0.04337850346
-0.0009289205527
-0.04196008448
-0.0005956007371
-0.04423214454
0.044295306
-0.003591712335
0.0009730045685
-0.001826645649
-0.0003594297019
0.009071777092
0.0466088259
-2.022648945e-05
-0.04566988502
0.04740030249
0.007341359627
-0.04280640231
0.008474505723
-0.04705383996
0.002991032623
-0.004595122567
0.004941585091
-0.0002492434199
8.447902943e-05
0.03679770837
-8.999220713e-05
-0.04048162263
0.04087902423
-0.0003129225779
-0.04007062852
-0.0002519553407
-0.04141817467
-0.0004171156516
-0.000220998236
-0.0003181522019
-0.0004450419762
-0.04051827012
0.04163814727
-0.0007556728237
-0.0003642043265
1.746003196e-05
-0.0001179140614
-0.04503300435
0.05258037311
-0.007238728228
-0.0003086405373
-0.003251749264
-0.0001431078145
-0.01815929564
-0.0002123118659
0.0195658592
-0.0003897864003
-0.007787390056
-0.0002908798636
-0.008794759583
-0.0003237209166
0.03407410378
-0.05283436543
-0.0004054261706
0.03483244733
-0.0007583435475
0.0187489809
0.04032284469
0.0003550999215
-0.03579023361
0.05283388079
0.02327919752
0.02330665564
-0.0336806687
-0.03364935255
0.03341576924
0.0002335833072
0.01934775096
-0.0001632227252
-0.001781413719
-0.0002530755661
-0.02221080614
-0.0003987546672
-0.006139855852
-0.0002452767543
-0.02969287092
-0.007572342188
-0.009158433918
-0.0135549297
-0.03334263076
-0.007728198062
-0.0002533101182
-0.0002593203752
-0.005174409674
-0.0001770285849
-0.04228822134
0.05796390682
0.01528415422
-0.01289711153
0.01421000316
-0.0001053196323
-0.01136400458
-0.04469050339
0.01129212927
0.04201142848
-0.04375651246
0.05780835004
-0.04632534368
0.008029960268
-0.000331280226
0.01211560248
-0.0004770393475
0.002838923817
0.03393822433
-0.0001663325012
-0.03888875604
0.03770882614
0.004018853718
-0.03985371637
0.002130899772
-0.03783316665
0.01037163426
-0.008104014069
0.007979673559
-0.0002048381152
0.0004730350979
0.03821470947
-0.0001556629627
-0.04180968005
0.04118767229
0.00109504286
0.001154163613
-0.04058445482
0.001366088158
-0.0005324714348
0.001135688907
-0.0002523532776
-0.001268017647
0.0001234327725
0.04004540194
-0.03933060944
-0.002279109183
0.04034170098
-0.03841542551
-0.002730457021
-0.03562282697
-0.0003030869072
-0.0002531237142
-0.0003762907702
0.02379723278
-0.04936637085
-0.009550250859
0.02404489726
-0.0002476644793
0.03098174162
-0.0004327956662
-0.007622548834
-0.0002549584149
-0.02477173069
-0.006975458091
-0.0001093247247
-0.02441325411
-0.000358476575
-0.009635626718
0.03598181173
-0.04240180725
0.03944185833
-0.006675677799
-0.005737487372
-0.03805653987
-0.003929712245
0.007095696076
-0.005710377613
0.04428493884
-0.03641336036
-0.0002605762347
-0.009409626287
0.02145354729
-0.007797304559
0.02176284657
-0.000309299285
-0.02806832353
0.03126382964
-0.0001967297946
-0.0001812026727
0.003038158856
-0.005270066369
0.03201593541
-0.000283791582
-0.0003568349857
-0.0363833512
-0.006608619855
0.03607867381
0.009338357791
-0.007423266643
0.003756770077
0.04182788905
-0.001657295713
-0.04385346988
0.04250905778
0.005101182177
0.005292592368
-0.04506743132
-0.04174178622
0.007584088021
-0.005192279562
0.005959551117
-0.003266793195
-0.03817238857
-0.0005610558575
-2.688532298e-06
-0.003024342434
-0.0460093297
0.005592485671
0.03926194092
-0.04191416791
-0.0003721154472
0.03597613321
-0.0001667882616
0.04731477196
-0.0002351476191
0.005713006315
-0.0003124022632
0.007230062822
-0.05622973187
0.009799777332
-0.0002890780971
0.02790779138
-6.190101281e-05
0.02825680301
-0.0003490116291
0.01190076196
0.0001259782249
0.03652783224
-0.0002607296575
-0.03892794182
0.03932123217
-0.0002673121244
-0.03840203646
-0.0005162758455
-0.03964163569
-0.0001984005609
-9.305163433e-05
-0.0002273518825
-8.401935383e-05
-0.00739458792
0.03300521931
-0.0002018209566
-0.03698258092
0.03669298132
-0.007104988322
-0.009502200421
-0.03766619562
-0.001307304199
0.002212413724
-0.003185628023
-0.0002397044899
-0.03915132598
0.04700255622
-0.007760005164
-9.122507546e-05
-0.00387749352
-0.0001515233692
-0.00635591609
-0.0001989525468
-0.03379516759
-0.007052568356
-0.009497405367
0.0005300413346
-0.03876455798
-0.001935310026
0.03501955284
-0.0342824702
-0.000207041299
0.03655487342
-0.0003334258887
0.03334209207
-0.0003873669515
-0.0006516607101
-0.0002887174173
-0.002204782211
0.009840717404
-0.04085023504
-0.007466749638
0.03492207823
-0.04847254734
0.03560511536
0.04050375588
-0.0002981825342
-0.007759988394
-0.0002088030756
-0.006462839753
-0.00408915203
0.03494569784
-0.0002094188444
-0.0350912488
0.03660875957
-0.005606662801
-0.03283334023
-0.005292802331
-0.03626061387
-0.008217846101
0.03482663959
0.007591291253
-0.007243145553
-0.0002605213902
-0.0355994811
0.04339616075
-0.007572847123
-0.0002238325282
-0.004037777598
-0.0002978738652
-0.03170229797