/*--------------------------------*- C++ -*----------------------------------*\
| =========                 |                                                 |
| \\      /  F ield         | OpenFOAM: The Open Source CFD Toolbox           |
|  \\    /   O peration     | Version:  v2012                                 |
|   \\  /    A nd           | Website:  www.openfoam.com                      |
|    \\/     M anipulation  |                                                 |
\*---------------------------------------------------------------------------*/
FoamFile
{
    version     2.0;
    format      ascii;
    class       pointVectorField;
    location    "3";
    object      pointDisplacement;
}
// * * * * * * * * * * * * * * * * * * * * * * * * * * * * * * * * * * * * * //

dimensions      [0 1 0 0 0 0 0];


internalField   nonuniform List<vector> 
7018
(
(0 0 0)
(0 0 0)
(0 0 0)
(0 0 0)
(0 0 0)
(0 0 0)
(0 0 0)
(0 0 0)
(0 0 0)
(0 0 0)
(0 0 0)
(0 0 0)
(0 0 0)
(0 0 0)
(0 0 0)
(0 0 0)
(0 0 0)
(0 0 0)
(0 0 0)
(0 0 0)
(0 0 0)
(0 0 0)
(0 0 0)
(0 0 0)
(0 0 0)
(0 0 0)
(0 0 0)
(0 0 0)
(0 0 0)
(0 0 0)
(0 0 0)
(0 0 0)
(0 0 0)
(0 0 0)
(0 0 0)
(0 0 0)
(0 0 0)
(0 0 0)
(0 0 0)
(0 0 0)
(0 0 0)
(0 0 0)
(0 0 0)
(0 0 0)
(-3.054964701e-07 8.7560452e-05 3.330669074e-16)
(1.409766212e-06 7.443232663e-05 2.775557562e-16)
(0 0 0)
(0 0 0)
(0 0 0)
(0 0 0)
(0 0 0)
(0 0 0)
(0 0 0)
(0 0 0)
(0 0 0)
(0 0 0)
(0 0 0)
(0 0 0)
(0 0 0)
(0 0 0)
(0 0 0)
(0 0 0)
(0 0 0)
(0 0 0)
(0 0 0)
(0 0 0)
(0 0 0)
(0 0 0)
(0 0 0)
(0 0 0)
(0 0 0)
(0 0 0)
(0 0 0)
(0 0 0)
(0 0 0)
(0 0 0)
(0 0 0)
(0 0 0)
(0 0 0)
(0 0 0)
(0 0 0)
(-2.124866606e-05 0.008494103739 3.523570324e-14)
(-2.473240674e-05 0.01373030278 5.824507543e-14)
(0.0003070174146 0.01355256469 5.749567489e-14)
(0.0001788937208 0.008354771461 3.465283616e-14)
(0.000595179604 0.006403942537 2.656208586e-14)
(0.001055148514 0.01102066288 4.676814491e-14)
(0.001155715992 0.009628988256 4.085620731e-14)
(0.0006257221417 0.005360768011 2.223221607e-14)
(0.0003677983377 0.001956080609 8.118505868e-15)
(0.0009129646441 0.004736411658 2.009503675e-14)
(0.0006867050658 0.003164590849 1.34336986e-14)
(0.0002148407656 0.001014261498 4.218847494e-15)
(0 0 0)
(3.616951889e-05 0.00012473147 5.273559367e-16)
(0 0 0)
(0 0 0)
(0 0 0)
(0 0 0)
(0 0 0)
(0 0 0)
(0 0 0)
(0 0 0)
(0 0 0)
(0 0 0)
(0 0 0)
(0 0 0)
(0 0 0)
(0 0 0)
(0 0 0)
(0 0 0)
(0 0 0)
(0 0 0)
(0 0 0)
(0 0 0)
(0 0 0)
(0 0 0)
(0 0 0)
(0 0 0)
(2.772287113e-05 0.03290603118 1.498662305e-13)
(6.88129692e-05 0.03945050313 1.841859998e-13)
(0.001122080159 0.03916575092 1.829092433e-13)
(0.0008841253684 0.03263890709 1.486866186e-13)
(0.003033295699 0.02877149107 1.311450948e-13)
(0.003818476345 0.03504574663 1.638134073e-13)
(0.00442849941 0.03266098255 1.526972992e-13)
(0.003489708761 0.02655563174 1.210698208e-13)
(0.003752212372 0.01794841586 8.185119249e-14)
(0.004989516183 0.0231930864 1.084687895e-13)
(0.004721040476 0.01954525063 9.13991105e-14)
(0.003457686996 0.01472221996 6.712685963e-14)
(0.001761622564 0.005640909346 2.571554081e-14)
(0.002818033385 0.008786845239 4.107825191e-14)
(0.001991482678 0.00573670045 2.681188604e-14)
(0.001105495701 0.003268937675 1.490474411e-14)
(0 0 0)
(9.559675455e-05 0.000223493127 1.040834086e-15)
(0 0 0)
(0 0 0)
(0 0 0)
(0 0 0)
(0 0 0)
(0 0 0)
(0 0 0)
(0 0 0)
(0 0 0)
(0 0 0)
(0 0 0)
(0 0 0)
(0 0 0)
(0 0 0)
(0 0 0)
(0 0 0)
(0 0 0)
(0 0 0)
(0 0 0)
(0 0 0)
(0.0002147699173 0.05568762507 2.811917366e-13)
(0.0002509746315 0.05925893915 3.07587289e-13)
(0.002015348691 0.05899159174 3.063660436e-13)
(0.001826300906 0.05540069836 2.798872245e-13)
(0.00615329079 0.05129230876 2.59514632e-13)
(0.006824993554 0.05517620084 2.870342852e-13)
(0.008105886411 0.05282495857 2.749328543e-13)
(0.007266242137 0.04881917432 2.470940119e-13)
(0.008995782113 0.03827435077 1.938588179e-13)
(0.01028614265 0.04244055945 2.210870376e-13)
(0.01032955144 0.03800559184 1.979943987e-13)
(0.00893500068 0.03389604232 1.716959908e-13)
(0.00681852274 0.01948776624 9.867107131e-14)
(0.008498659152 0.02348590409 1.223882107e-13)
(0.007324040671 0.01869488618 9.744982599e-14)
(0.00580463386 0.01529530328 7.746581154e-14)
(0.002011041691 0.004317035466 2.18575158e-14)
(0.003005697902 0.00626808 3.264055692e-14)
(0.001695909962 0.003332745842 1.734723476e-14)
(0.0009691073959 0.001959740451 9.922618283e-15)
(0 0 0)
(0 0 0)
(0 0 0)
(0 0 0)
(0 0 0)
(0 0 0)
(0 0 0)
(0 0 0)
(0 0 0)
(0 0 0)
(0 0 0)
(0 0 0)
(0 0 0)
(0 0 0)
(0 0 0)
(0 0 0)
(0 0 0)
(0 0 0)
(0.0002554632967 0.06277411534 3.556183126e-13)
(0.0002192998717 0.06149013908 3.592959263e-13)
(0.002293725754 0.06143418439 3.592404152e-13)
(0.002303313787 0.06264207926 3.5513259e-13)
(0.008253505285 0.06075319917 3.452099717e-13)
(0.008474380839 0.060470284 3.545080896e-13)
(0.01035152758 0.05942304511 3.486655409e-13)
(0.01000953885 0.0592768117 3.370775881e-13)
(0.01367221214 0.05108277808 2.910727215e-13)
(0.01453613012 0.05238277807 3.082950562e-13)
(0.0152337456 0.04887205769 2.879224636e-13)
(0.01418083844 0.04708089184 2.685351941e-13)
(0.01308545794 0.03284335267 1.874611577e-13)
(0.01442053886 0.03504019549 2.064598492e-13)
(0.01320554401 0.02970979007 1.749850265e-13)
(0.01184468919 0.02752648578 1.570410468e-13)
(0.006447151865 0.01226672545 6.986078382e-14)
(0.007599440923 0.01399977307 8.22952817e-14)
(0.00547802179 0.009516885296 5.589972929e-14)
(0.004488153037 0.008052386064 4.582445534e-14)
(0.0002962180948 0.0004530800379 2.581268532e-15)
(0.0005088843129 0.0007538045331 4.427014311e-15)
(1.291835437e-05 1.822648035e-05 1.110223025e-16)
(0 0 0)
(0 0 0)
(0 0 0)
(0 0 0)
(0 0 0)
(0 0 0)
(0 0 0)
(0 0 0)
(0 0 0)
(0 0 0)
(0 0 0)
(0 0 0)
(0 0 0)
(0 0 0)
(0 0 0)
(8.607871654e-05 0.05569420784 0)
(6.414841114e-05 0.05472795676 0)
(0.001122732326 0.05470477817 0)
(0.00113892751 0.05567106851 0)
(0.008596498635 0.0554218242 0)
(0.008605567881 0.0544287203 0)
(0.008621796105 0.05342007118 0)
(0.009674140801 0.05336581478 0)
(0.01071163329 0.05333103296 0)
(0.01071104307 0.05532494261 0)
(0.01619122578 0.05270370823 3.435446372e-13)
(0.01643932308 0.05170356011 3.493871858e-13)
(0.01769547265 0.04959767676 3.35384498e-13)
(0.0173149683 0.05025511082 3.277517147e-13)
(0.01751038006 0.03841996023 2.50688359e-13)
(0.01813975899 0.03837262876 2.597644322e-13)
(0.01722287172 0.0337034335 2.28123076e-13)
(0.01644232765 0.03338119727 2.177702463e-13)
(0.01061290267 0.01762378408 1.147693052e-13)
(0.0116068178 0.01858304099 1.255107129e-13)
(0.009145684988 0.01381198552 9.320322292e-14)
(0.008237082876 0.01290159405 8.394673845e-14)
(0.001834229534 0.002453847618 1.59317004e-14)
(0.002292716736 0.002958256356 1.990074772e-14)
(0.0008213941435 0.00101030994 6.800116026e-15)
(0.0005588666693 0.0007126334326 4.62130334e-15)
(0 0 0)
(0 0 0)
(0 0 0)
(0 0 0)
(0 0 0)
(0 0 0)
(0 0 0)
(0 0 0)
(0 0 0)
(0 0 0)
(0 0 0)
(0 0 0)
(0 0 0)
(0 0 0)
(0.008556215 0.04748713049 0)
(0.008539757449 0.04649964254 0)
(0.009570358933 0.04647225126 0)
(0.009587868741 0.04745825309 0)
(0.01672965852 0.04702423397 3.575334473e-13)
(0.01672773359 0.04518643116 3.584077479e-13)
(0.01840076809 0.04422563479 3.511219093e-13)
(0.01833610332 0.0458764663 3.491235079e-13)
(0.01989143784 0.03749544559 2.856048731e-13)
(0.02012404377 0.03640623604 2.893241202e-13)
(0.01943100246 0.03249814758 2.581962422e-13)
(0.01916066946 0.03339882686 2.543243394e-13)
(0.01362310646 0.0194105442 1.474237399e-13)
(0.01392916256 0.01903337066 1.508237979e-13)
(0.0113112578 0.01457441816 1.153382945e-13)
(0.01102113499 0.01480957161 1.123406923e-13)
(0.00332649139 0.003819169091 2.886579864e-14)
(0.003756378169 0.004133607101 3.259892356e-14)
(0.001791526723 0.001879844862 1.480759959e-14)
(0.00147481525 0.00161445205 1.219857548e-14)
(0 0 0)
(0 0 0)
(0 0 0)
(0 0 0)
(0 0 0)
(0 0 0)
(0 0 0)
(0 0 0)
(0 0 0)
(0 0 0)
(0 0 0)
(0 0 0)
(0 0 0)
(0 0 0)
(0.008401393127 0.03960939959 0)
(0.008379404232 0.03862740462 0)
(0.009407597396 0.0386035562 0)
(0.009429755925 0.03958504964 0)
(0.01663472243 0.03941052365 3.592404152e-13)
(0.01659002692 0.03745597545 3.592959263e-13)
(0.01843711225 0.03698376348 3.551603456e-13)
(0.01845469859 0.03886064572 3.546191119e-13)
(0.02071366219 0.03273389261 2.991079606e-13)
(0.02080739648 0.03129279253 3.009537064e-13)
(0.0203262533 0.02823111278 2.714356517e-13)
(0.02019346269 0.0294785743 2.692984724e-13)
(0.01502699535 0.0178944226 1.6298074e-13)
(0.01524323619 0.01726098958 1.654509862e-13)
(0.0126525719 0.01350682656 1.292715934e-13)
(0.01242695605 0.01395178084 1.268984917e-13)
(0.004307262325 0.004131458513 3.740063814e-14)
(0.00448230123 0.004087781233 3.89271948e-14)
(0.002311510536 0.002010315625 1.91235916e-14)
(0.002179159535 0.001993241889 1.801336857e-14)
(0 0 0)
(0 0 0)
(0 0 0)
(0 0 0)
(0 0 0)
(0 0 0)
(0 0 0)
(0 0 0)
(0 0 0)
(0 0 0)
(0 0 0)
(0 0 0)
(0 0 0)
(0 0 0)
(0.00821437091 0.03176228771 0)
(0.008189481269 0.03078406844 0)
(0.009216535496 0.0307618746 0)
(0.009241553641 0.03173977425 0)
(0.01644122223 0.03158017312 3.592681708e-13)
(0.01638748765 0.02962338713 3.591987818e-13)
(0.0182002134 0.02918227017 3.543276783e-13)
(0.0182738236 0.03114768819 3.547995231e-13)
(0.02061748796 0.02626947551 2.997185833e-13)
(0.0205072123 0.02455373651 2.986361158e-13)
(0.02001856349 0.02211505737 2.68868261e-13)
(0.02013314042 0.02367421875 2.700201174e-13)
(0.01505672519 0.0144152271 1.637995295e-13)
(0.0149504973 0.01344238872 1.627586954e-13)
(0.0123771939 0.01048839479 1.267597138e-13)
(0.01247466799 0.01125668787 1.276756478e-13)
(0.004360803288 0.003361185733 3.79002385e-14)
(0.004303708701 0.003115110598 3.741451593e-14)
(0.00218031503 0.001505048072 1.804112415e-14)
(0.002220602527 0.001632259152 1.837419106e-14)
(0 0 0)
(0 0 0)
(0 0 0)
(0 0 0)
(0 0 0)
(0 0 0)
(0 0 0)
(0 0 0)
(0 0 0)
(0 0 0)
(0 0 0)
(0 0 0)
(0 0 0)
(0 0 0)
(0.008007865019 0.02394792143 0)
(0.007980202322 0.02297112224 0)
(0.009006285201 0.02294999101 0)
(0.009034167869 0.02392651376 0)
(0.01619077897 0.02371542143 3.583661146e-13)
(0.01610445793 0.02172624165 3.576444696e-13)
(0.01772798875 0.02116984002 3.490263634e-13)
(0.01788157877 0.02319698582 3.510525204e-13)
(0.01977168099 0.01909228912 2.894073869e-13)
(0.01935450152 0.01718627051 2.837730051e-13)
(0.01880995966 0.0153972177 2.540745392e-13)
(0.01915315492 0.01705366957 2.5833502e-13)
(0.01384819022 0.01002714208 1.511013537e-13)
(0.01349790061 0.008984176629 1.473821065e-13)
(0.01094770133 0.006867584645 1.123545701e-13)
(0.01127402715 0.007693284716 1.156436058e-13)
(0.003517537808 0.002050853837 3.060052212e-14)
(0.003328670226 0.00178453579 2.896294315e-14)
(0.001480027365 0.0007567382035 1.225408663e-14)
(0.001606696842 0.0008933896507 1.330879851e-14)
(0 0 0)
(0 0 0)
(0 0 0)
(0 0 0)
(0 0 0)
(0 0 0)
(0 0 0)
(0 0 0)
(0 0 0)
(0 0 0)
(0 0 0)
(0 0 0)
(0 0 0)
(0 0 0)
(0.00777948528 0.01615264564 0)
(0.007749046248 0.01517912164 0)
(0.008774785768 0.01515881259 0)
(0.008805541352 0.01613232942 0)
(0.01577554805 0.01575065623 3.539391003e-13)
(0.01562836876 0.01375452153 3.518851877e-13)
(0.01697652627 0.01318722255 3.380490332e-13)
(0.01720474609 0.01517363978 3.416295025e-13)
(0.01817863763 0.01188309862 2.677857935e-13)
(0.01786709562 0.01027387478 2.636085794e-13)
(0.01694461698 0.008978042069 2.299965773e-13)
(0.01748496524 0.01053145159 2.370603713e-13)
(0.01192414478 0.005841487097 1.304373276e-13)
(0.01117602807 0.004819760075 1.222910662e-13)
(0.008666175895 0.003525601672 8.909539773e-14)
(0.009416432889 0.004349817161 9.678369217e-14)
(0.002361585882 0.000933452487 2.056688153e-14)
(0.002062461338 0.0007183327785 1.795785742e-14)
(0.0006698865504 0.0002225807888 5.551115123e-15)
(0.0008431636417 0.0003179041186 6.994405055e-15)
(0 0 0)
(0 0 0)
(0 0 0)
(0 0 0)
(0 0 0)
(0 0 0)
(0 0 0)
(0 0 0)
(0 0 0)
(0 0 0)
(0 0 0)
(0 0 0)
(0 0 0)
(0 0 0)
(0.008423166353 0.04058986111 0)
(0.00739493492 0.04061601788 0)
(0.007384038484 0.04012635291 0)
(0.007373375527 0.03963500858 0)
(0.007522476106 0.047521836 0)
(0.007508413586 0.04653021775 0)
(0.008239106262 0.03274168683 0)
(0.007212466191 0.03276418801 0)
(0.007200250141 0.03227419093 0)
(0.007187901495 0.03178433258 0)
(0.007362612919 0.03914325931 0)
(0.007351756798 0.03865137642 0)
(0.008034376713 0.02492384176 0)
(0.007008419268 0.02494451771 0)
(0.006995347889 0.02445671173 0)
(0.006982058585 0.02396927263 0)
(0.007175461383 0.03129443105 0)
(0.007163095136 0.03080579471 0)
(0.007809915104 0.01712576264 0)
(0.006784576441 0.01714579116 0)
(0.006753544412 0.01617205435 0)
(0.006954522346 0.02299206338 0)
(0.006724551453 0.0151984524 0)
(-0.0009527528785 0.05571703007 0)
(-0.0009776011885 0.0547504378 0)
(0.008569792899 0.04847932662 0)
(0.007536019539 0.04851250861 0)
(0.007540920918 0.05546316846 0)
(0.007546354199 0.05447734075 0)
(0.004367485102 0.04364911765 0)
(0.004371763073 0.04389722067 0)
(0.004112270599 0.04390324033 0)
(0.004107283383 0.04365498595 0)
(0.004421123214 0.04762773147 0)
(0.003903269265 0.04764676539 0)
(0.003900782715 0.0471442502 0)
(0.004417953219 0.04712660536 0)
(0.00945188274 0.0405651412 0)
(0.01667714735 0.04135721533 3.591571485e-13)
(0.01462183599 0.04142325652 0)
(0.01457639104 0.03946441244 0)
(0.01474823428 0.04731255452 0)
(0.01470746408 0.04535035248 0)
(0.004145043618 0.03577793593 0)
(0.004151752662 0.03602310186 0)
(0.003859549818 0.03602939548 0)
(0.003852930787 0.0357844085 0)
(0.004279215434 0.03970645386 0)
(0.004010349746 0.03971154087 0)
(0.004012239828 0.03946608992 0)
(0.00427753386 0.03946072175 0)
(0.009266374323 0.03271894522 0)
(0.01649288319 0.03353830053 3.592959263e-13)
(0.0144334305 0.03358499868 0)
(0.01438315378 0.03162857139 0)
(0.01453014458 0.03750413865 0)
(0.004012670211 0.02793551484 0)
(0.004017238058 0.02818023151 0)
(0.003758629844 0.02818553892 0)
(0.00375550457 0.02794078962 0)
(0.004103961663 0.03185215328 0)
(0.003840138256 0.03185852882 0)
(0.003826684339 0.03161401317 0)
(0.004094074125 0.03160728549 0)
(0.009061044406 0.02490256157 0)
(0.01626468664 0.02569066895 3.588102038e-13)
(0.01422702856 0.02576922746 0)
(0.01417282408 0.02381917807 0)
(0.01433219627 0.02967605057 0)
(0.003801516947 0.02012731651 0)
(0.003815972379 0.020614503 0)
(0.003305409787 0.02062424338 0)
(0.003291484903 0.02013690915 0)
(0.003910895971 0.02403069623 0)
(0.003399098559 0.02404105272 0)
(0.003392168684 0.02379652522 0)
(0.003385848117 0.02355153149 0)
(0.003897655492 0.0235422154 0)
(-0.0005091535305 0.01240629414 0)
(-0.0002543718905 0.01240179721 0)
(-0.0002512206693 0.01264609348 0)
(-0.0005084638766 0.01265127952 0)
(0.003556052998 0.01233885198 0)
(0.003572886337 0.01282535125 0)
(0.003062616768 0.01283404436 0)
(0.003046185472 0.01234771698 0)
(0.003684752752 0.0162304834 0)
(0.003175176854 0.01623983949 0)
(0.003159893005 0.0157530337 0)
(0.003669690489 0.0157436726 0)
(0.004282562783 0.03995241976 0)
(0.004011511269 0.03995728474 0)
(0.00410278583 0.04340737654 0)
(0.004362729764 0.04340171315 0)
(0.008484952371 0.04354104422 0)
(0.007455311592 0.04356890241 0)
(0.007445584276 0.04307691707 0)
(0.007436042863 0.0425831494 0)
(0.008465028743 0.04255634213 0)
(0.00435880057 0.04315502745 0)
(0.004874202037 0.04314178425 0)
(0.004883369092 0.04363500387 0)
(0.004543127134 0.03970098123 0)
(0.004547517652 0.03994705926 0)
(0.004114016359 0.03209661009 0)
(0.003853812574 0.03210258703 0)
(0.003849315339 0.03553899161 0)
(0.004141044646 0.03553216576 0)
(0.008311040587 0.0356834647 0)
(0.007797413207 0.03569512945 0)
(0.007785716288 0.03520407999 0)
(0.008299255271 0.03519250773 0)
(0.004425414923 0.03552564212 0)
(0.004430072679 0.03577153313 0)
(0.00436488695 0.03184606954 0)
(0.004372775095 0.03209075634 0)
(0.004539465279 0.03945511294 0)
(0.004436391363 0.03601684362 0)
(0.008322674893 0.03617374642 0)
(0.007809002291 0.03618541219 0)
(0.003923914107 0.02451854866 0)
(0.003411733763 0.02452877808 0)
(0.00340543425 0.02428491499 0)
(0.003749848925 0.02769618804 0)
(0.004006591958 0.02769083234 0)
(0.008113125633 0.02785085138 0)
(0.007086804369 0.02787144506 0)
(0.007073989998 0.02738299984 0)
(0.007061102574 0.02689532543 0)
(0.008087193638 0.02687455597 0)
(0.004000067789 0.0274468386 0)
(0.004512485762 0.02743651331 0)
(0.004525297064 0.02792482287 0)
(0.004422219578 0.0240203957 0)
(0.0044353814 0.02450819964 0)
(0.004357080041 0.03160097369 0)
(0.004537711601 0.02841359385 0)
(0.004280668222 0.02841927306 0)
(0.004022336883 0.02842461946 0)
(0.008138479977 0.0288276123 0)
(0.007112585145 0.02884905599 0)
(0.007099850987 0.0283601565 0)
(0.00370026185 0.01671764605 0)
(0.003190297045 0.01672701094 0)
(0.003277670004 0.01964943671 0)
(0.003787878413 0.01963984008 0)
(-0.0007593101656 0.01240937433 0)
(-0.0007680551154 0.01216683342 0)
(-0.0005151486355 0.0121629671 0)
(-0.0007629124697 0.01265567842 0)
(0.003028822772 0.01186181787 0)
(0.003538668117 0.0118527724 0)
(-0.0002604646744 0.01215847239 0)
(0.002303659322 0.04568876163 0)
(0.002290753024 0.04593345283 0)
(0.002030787653 0.04592496863 0)
(0.002107754922 0.04572422239 0)
(0.002326047804 0.04771881983 0)
(0.002055464671 0.04773058909 0)
(0.002049839022 0.04746911344 0)
(0.002322151809 0.04746100165 0)
(0.001758815149 0.02213032291 0)
(0.001754381721 0.02237614811 0)
(0.001483165753 0.02240074358 0)
(0.001438451161 0.02219738405 0)
(0.008835558042 0.0171051843 0)
(0.01590137708 0.01774709753 3.555350458e-13)
(0.01400385822 0.01797486322 3.592959263e-13)
(0.01393906492 0.01602006332 3.591293929e-13)
(0.01411771313 0.02186905869 0)
(-0.0005569420754 0.01442941384 0)
(-0.0002398509549 0.0143628792 0)
(-0.0002353305384 0.01460709925 0)
(-0.0004988692055 0.01463066139 0)
(0.001586997837 0.01431892722 0)
(0.001602431348 0.01480554864 0)
(0.001092668855 0.01481445651 0)
(0.001085274115 0.01457098016 0)
(0.001078505482 0.01432758013 0)
(0.00164890098 0.01626608776 0)
(0.001394243366 0.01627062712 0)
(0.001386692397 0.01602724479 0)
(0.001641367076 0.0160226598 0)
(0.004934760129 0.04710868824 0)
(0.004940123058 0.0476057506 0)
(0.004892335001 0.04412933203 0)
(0.004376583788 0.0441445151 0)
(0.008504367408 0.04452526465 0)
(0.007474957653 0.04455133497 0)
(0.007465253661 0.04406038068 0)
(0.001655987352 0.01650993305 0)
(0.001401130332 0.0165146579 0)
(0.001698083857 0.01821756285 0)
(0.001434179807 0.01822457364 0)
(0.001431526885 0.01797990414 0)
(0.001692925384 0.01797353822 0)
(0.007896989541 0.02004679257 0)
(0.00687130138 0.02006737193 0)
(0.006842797676 0.01909339695 0)
(0.007868311087 0.01907309301 0)
(0.004298331449 0.01963005694 0)
(0.004312387477 0.02011738819 0)
(0.004194876263 0.01622093393 0)
(0.004210600379 0.01670800123 0)
(0.004409004349 0.02353223101 0)
(0.0043265761 0.02060458072 0)
(0.007925474622 0.02102194434 0)
(0.006899606598 0.02104257302 0)
(1.604999002e-05 0.05182928286 0)
(-0.0005473749085 0.05183731892 0)
(-0.0005580006605 0.05135381922 0)
(4.706065144e-06 0.05134574512 0)
(0.004424052634 0.04812782328 0)
(0.003905278269 0.04814757119 0)
(0.004388011191 0.0516500507 0)
(0.003308205606 0.05170682862 0)
(0.003306461167 0.05121751764 0)
(0.003331415325 0.05070998884 0)
(0.003885021091 0.05066492481 0)
(0.004415550033 0.05063677506 0)
(0.0005930633164 0.05132834038 0)
(0.0006005806361 0.05181243524 0)
(0.002227661686 0.04537416945 0)
(0.004400705548 0.045631191 0)
(0.003884570483 0.04564620631 0)
(0.003880340458 0.04539662269 0)
(0.003876146978 0.04514745451 0)
(0.004393415244 0.04513353112 0)
(0.002550126366 0.04542536708 0)
(0.002560117777 0.04567742646 0)
(0.002590155117 0.04745379407 0)
(0.002592031231 0.04770972563 0)
(0.002559650244 0.04592855966 0)
(0.004407999518 0.04612721294 0)
(0.003892537482 0.04614077876 0)
(0.003888489403 0.04589383785 0)
(0.004263046903 0.03774034173 0)
(0.004019250317 0.03774658092 0)
(0.004011105535 0.03750094978 0)
(0.004255093075 0.03749475151 0)
(0.004267702613 0.03798614229 0)
(0.004022317721 0.03799237216 0)
(0.004064135671 0.02989168901 0)
(0.003809323013 0.02989677482 0)
(0.003801125581 0.02965141634 0)
(0.004057317502 0.02964629933 0)
(0.004068751274 0.0301377167 0)
(0.003812823256 0.03014309921 0)
(0.001742555118 0.02017036615 0)
(0.001751207452 0.02041363307 0)
(0.001492498297 0.0204190785 0)
(0.001476690921 0.02017733079 0)
(0.001535692703 0.02188303983 0)
(0.001776774708 0.02188120556 0)
(0.00385726381 0.02207814542 0)
(0.003346353604 0.02208811989 0)
(0.003332611223 0.021601053 0)
(0.003843792759 0.0215910724 0)
(0.002037334292 0.02187535631 0)
(0.002032033201 0.02212142736 0)
(0.002006665735 0.02016348642 0)
(0.002013142044 0.02040716453 0)
(0.001841812789 0.02408094254 0)
(0.001795491725 0.02385477069 0)
(0.002064353849 0.02383072616 0)
(0.002084224345 0.02407287965 0)
(0.002033083227 0.02236604263 0)
(0.003870793812 0.02256562431 0)
(0.00335990724 0.02257564349 0)
(0.003352983666 0.02233179452 0)
(0.001521328642 0.01237289251 0)
(0.001538344751 0.01285907093 0)
(0.001031355047 0.01286714691 0)
(0.001014992607 0.01238086321 0)
(0.001071037957 0.0140842864 0)
(0.001063766339 0.01384085251 0)
(0.001571346831 0.0138324917 0)
(-0.0004775384893 0.01411624233 0)
(-0.0002322242348 0.01411481 0)
(0.004329741506 0.04167450344 0)
(0.004068755978 0.04168072428 0)
(0.004066764688 0.04143450149 0)
(0.004326011923 0.0414276413 0)
(0.004334137139 0.04192080758 0)
(0.004072405452 0.0419270453 0)
(0.004175002925 0.03381245433 0)
(0.003933034261 0.03381729483 0)
(0.00392556533 0.03357173889 0)
(0.004168768547 0.03356687047 0)
(0.004177979293 0.03405802141 0)
(0.003935468992 0.03406291941 0)
(0.004423053319 0.03380725003 0)
(0.004427204429 0.03405274529 0)
(0.006210690792 0.0337678047 0)
(0.00622245667 0.03425790246 0)
(0.005709593967 0.03426936893 0)
(0.005698052151 0.03377917561 0)
(0.006257297789 0.03573001586 0)
(0.005743850272 0.03574163129 0)
(0.005732418546 0.03525030437 0)
(0.006245776642 0.0352387362 0)
(0.00616216279 0.03180667764 0)
(0.006174469283 0.03229667267 0)
(0.005661872795 0.0323079069 0)
(0.005649520057 0.03181786766 0)
(0.005686186622 0.03328867291 0)
(0.006198735842 0.03327734926 0)
(0.00441727218 0.03356170116 0)
(0.004512389289 0.03773424855 0)
(0.00451767708 0.03797998956 0)
(0.006302650854 0.03769279832 0)
(0.006313716714 0.03818395255 0)
(0.005800501445 0.0381958342 0)
(0.005789525004 0.0377046327 0)
(0.006345915118 0.03965924763 0)
(0.005832251723 0.0396713204 0)
(0.005821798506 0.03917924741 0)
(0.006335327259 0.03916722294 0)
(0.006268754277 0.03622043733 0)
(0.005755262561 0.03623209901 0)
(0.005778237127 0.03721366448 0)
(0.006291454443 0.03720187327 0)
(0.004505386141 0.03748868207 0)
(0.003962323031 0.025982573 0)
(0.003705107216 0.02598802989 0)
(0.00369932802 0.02574356685 0)
(0.003956060985 0.02573816613 0)
(0.002116733338 0.024312304 0)
(0.001888103468 0.02431657127 0)
(0.003967891139 0.02622690509 0)
(0.003710018156 0.02623251258 0)
(0.001733575572 0.01992683516 0)
(0.00199953005 0.01991946127 0)
(0.001957939435 0.0182115938 0)
(0.00196387077 0.01845578193 0)
(0.001702559215 0.01846219113 0)
(0.003744706142 0.0181784572 0)
(0.003759290833 0.01866595748 0)
(0.003249264334 0.01867559524 0)
(0.003234755927 0.01818786701 0)
(0.001435819495 0.01846985425 0)
(0.001462533976 0.01993513853 0)
(-0.0006561994581 0.01408721007 0)
(0.0009974115528 0.01189551198 0)
(0.001504182146 0.01188735047 0)
(0.001250447511 0.0477912881 0)
(0.0009324432679 0.04779825917 0)
(0.001213033925 0.04748906157 0)
(0.0005827958874 0.01531468095 0)
(0.0005906257787 0.01555819271 0)
(0.0003203319568 0.01556675063 0)
(0.0003128714306 0.01532336626 0)
(0.0006249062631 0.01628572392 0)
(0.0003729174285 0.01628943374 0)
(0.0003629659409 0.01604673915 0)
(0.0006173493182 0.01604247746 0)
(-0.001421194698 0.04783487322 0)
(-0.0014508496 0.04755261079 0)
(-0.001125781471 0.04750769105 0)
(-0.001143466907 0.04786632574 0)
(0.0006271155821 0.01653058443 0)
(0.0003673734884 0.01653636994 0)
(0.000642753695 0.01726365005 0)
(0.0004019994368 0.01726457201 0)
(0.000391911261 0.01702183526 0)
(0.0006414366972 0.01701863361 0)
(-4.176488539e-05 0.04989531373 0)
(-0.0006422847428 0.0498935338 0)
(-0.0006704938602 0.0494057807 0)
(-0.0003476972078 0.04941475284 0)
(-4.071926751e-05 0.04941250014 0)
(-0.001833764258 0.0493554881 0)
(-0.001761167408 0.04988015224 0)
(0.002326180431 0.04797808249 0)
(0.002057471139 0.04799208282 0)
(0.002279803902 0.0497670588 0)
(0.001730230132 0.04980255281 0)
(0.001746001893 0.04930132622 0)
(0.002303092334 0.04925489841 0)
(0.0002886745401 0.04940076828 0)
(0.0005902775883 0.04938500038 0)
(0.0005804938221 0.04987411971 0)
(0.004199031943 0.03675803063 0)
(0.003925152514 0.03676409072 0)
(0.003892248672 0.03651861248 0)
(0.004177845644 0.03651251354 0)
(0.003227957559 0.03972675202 0)
(0.003245525051 0.03948230376 0)
(0.003480150403 0.03947686023 0)
(0.003466639893 0.03972144294 0)
(0.003286913097 0.03874681695 0)
(0.003516071572 0.03874131611 0)
(0.003505756088 0.03898673144 0)
(0.003275510838 0.0389923926 0)
(0.004274461074 0.03872289264 0)
(0.004275635734 0.03896881719 0)
(0.004018108052 0.03897468834 0)
(0.004020453259 0.03872895563 0)
(0.004034020444 0.02891367844 0)
(0.003771049519 0.028919537 0)
(0.00376468244 0.02867508725 0)
(0.004027566851 0.02866900443 0)
(0.002954922378 0.02894293147 0)
(0.002943860586 0.0286993571 0)
(0.00322212393 0.02869048315 0)
(0.003229835977 0.02893458575 0)
(0.002994816872 0.02795442388 0)
(0.003242642238 0.02795067251 0)
(0.003238557181 0.02819689703 0)
(0.0029855528 0.02820171571 0)
(0.003078706622 0.03187647817 0)
(0.003054509207 0.03163265802 0)
(0.003289573373 0.03162761177 0)
(0.003312209022 0.03187119578 0)
(0.002973269019 0.03092012457 0)
(0.003244642299 0.03089688289 0)
(0.003247985067 0.03114144629 0)
(0.002999643489 0.03114977908 0)
(0.004073330583 0.03087333998 0)
(0.00407771695 0.03111783453 0)
(0.00380555046 0.03112521322 0)
(0.003802432777 0.03088059947 0)
(0.004306768172 0.04069099241 0)
(0.00404534297 0.04069717796 0)
(0.004030601465 0.04045074591 0)
(0.00429714114 0.04044544005 0)
(0.003298732392 0.04071827588 0)
(0.003169743025 0.04040864235 0)
(0.003490809268 0.04046042361 0)
(0.003531306873 0.04070957587 0)
(0.003457074764 0.03996602688 0)
(0.003209137471 0.03996883064 0)
(0.004588497173 0.04166851402 0)
(0.004593206289 0.04191467533 0)
(0.006387623429 0.04162491773 0)
(0.006397872229 0.0421159547 0)
(0.005883947734 0.04212848583 0)
(0.005873829484 0.04163721967 0)
(0.006426505167 0.04359564228 0)
(0.005912355381 0.04360821469 0)
(0.005903095427 0.04311488858 0)
(0.006417152518 0.04310221872 0)
(0.006356448548 0.04015086635 0)
(0.005842696756 0.04016303161 0)
(0.005863769963 0.0411445496 0)
(0.006377519709 0.0411322939 0)
(0.004584084149 0.04142144111 0)
(0.004143214214 0.03283126924 0)
(0.003892720824 0.03283648356 0)
(0.003880277398 0.03259203555 0)
(0.00413378853 0.03258661722 0)
(0.00316821859 0.03285065657 0)
(0.003147599993 0.03260743413 0)
(0.003376577314 0.03260252557 0)
(0.003395952046 0.03284636434 0)
(0.003334609354 0.03211437792 0)
(0.003102771381 0.03211903447 0)
(0.004155056955 0.03479476454 0)
(0.004145116974 0.03504057858 0)
(0.003860334748 0.03504729252 0)
(0.003881957978 0.03480112369 0)
(0.002982613179 0.02771137303 0)
(0.003235619607 0.0277066448 0)
(0.002915210964 0.02698753203 0)
(0.003191703662 0.02697878863 0)
(0.003205602147 0.02722175589 0)
(0.002936038975 0.02722921141 0)
(0.003986178919 0.02695909635 0)
(0.003992780988 0.02720313358 0)
(0.003734323192 0.02720889003 0)
(0.003726597148 0.02696496873 0)
(0.004474297401 0.02597243873 0)
(0.004486873387 0.02646034641 0)
(0.00397377009 0.02647077769 0)
(0.006010196551 0.02594117681 0)
(0.006023033637 0.02642862613 0)
(0.005510920266 0.02643921599 0)
(0.005498122263 0.02595149432 0)
(0.006061722506 0.02789282512 0)
(0.00554952176 0.02790355269 0)
(0.005536754657 0.02741519689 0)
(0.006048955402 0.02740446931 0)
(0.004320025792 0.02988703127 0)
(0.00432544311 0.03013249789 0)
(0.006112885039 0.02985040873 0)
(0.006125363212 0.03033999268 0)
(0.005612764678 0.03035113646 0)
(0.005600559881 0.02986163682 0)
(0.005637073806 0.0313276948 0)
(0.006149809028 0.03131659318 0)
(0.006074684819 0.02838180993 0)
(0.005562347385 0.02839249536 0)
(0.005587843323 0.02937151532 0)
(0.006100270177 0.02936078263 0)
(0.004313755399 0.02964185542 0)
(0.003219697593 0.0177008299 0)
(0.003729974428 0.01769145795 0)
(0.00195167217 0.0179679562 0)
(0.002157404426 0.01625752509 0)
(0.002171985025 0.01674484448 0)
(0.001663199914 0.01675395646 0)
(-0.0005245969091 0.01339293649 0)
(-0.0008431298009 0.01345977522 0)
(-0.0007609601806 0.01314581721 0)
(-0.0005136322689 0.0131437964 0)
(0.002304586637 0.04669155253 0)
(0.002035797882 0.04669904031 0)
(0.00203165516 0.04644411582 0)
(0.002296961009 0.04643386999 0)
(0.001504369739 0.0474988418 0)
(0.001514516531 0.04776356962 0)
(0.002311610124 0.04694801804 0)
(0.002041378207 0.04695331241 0)
(0.001844765756 0.02309227527 0)
(0.001632751139 0.02309060154 0)
(0.001583176456 0.02285780705 0)
(0.001812610412 0.02285388355 0)
(0.001849890958 0.02333602919 0)
(0.001679120573 0.02330831151 0)
(0.0005627443328 0.01433852399 0)
(0.0005683996518 0.01458231116 0)
(0.0003032507139 0.01458989304 0)
(0.000298304783 0.0143458636 0)
(0.0003125723517 0.01507814581 0)
(0.0005786282004 0.01507045292 0)
(-0.0003757812091 0.01505829131 0)
(-0.0001970374102 0.01508700498 0)
(-0.0002789381845 0.01539987103 0)
(-0.001507445291 0.04674986033 0)
(-0.001419718725 0.04695671702 0)
(-0.0017392293 0.04701830232 0)
(-0.001758247558 0.0467642211 0)
(-0.001692734688 0.04781354564 0)
(-0.001713614952 0.04754375649 0)
(-0.001776206953 0.04651054575 0)
(-0.001588584107 0.04653820795 0)
(0.0006583902144 0.01824144522 0)
(0.0006508528112 0.01799806258 0)
(0.0009053546252 0.01799343625 0)
(0.0009040213625 0.01823910083 0)
(0.0008990662613 0.01725866604 0)
(0.0008968281339 0.01750453207 0)
(0.0006315384157 0.01751189091 0)
(0.001676428384 0.01724130644 0)
(0.001682521924 0.01748526468 0)
(0.001423640066 0.01749107597 0)
(0.001419101991 0.01724667534 0)
(0.0003158338233 0.01757771552 0)
(0.0004810725824 0.01821351369 0)
(0.0004262271565 0.01799993177 0)