/*--------------------------------*- C++ -*----------------------------------*\
| =========                 |                                                 |
| \\      /  F ield         | OpenFOAM: The Open Source CFD Toolbox           |
|  \\    /   O peration     | Version:  v2012                                 |
|   \\  /    A nd           | Website:  www.openfoam.com                      |
|    \\/     M anipulation  |                                                 |
\*---------------------------------------------------------------------------*/
FoamFile
{
    version     2.0;
    format      ascii;
    class       volVectorField;
    location    "3";
    object      U;
}
// * * * * * * * * * * * * * * * * * * * * * * * * * * * * * * * * * * * * * //

dimensions      [0 1 -1 0 0 0 0];


internalField   nonuniform List<vector> 
3259
(
(99.99827266 0.4105319911 0)
(100.0012706 0.416587742 5.565638765e-22)
(100.0040671 0.385158946 -1.171916259e-21)
(100.0053739 0.3280392959 8.312579161e-22)
(100.0054773 0.2613883193 0)
(100.0051075 0.1978036132 1.459460163e-21)
(100.0048434 0.1421053214 6.013275691e-21)
(100.0025991 0.1009653069 -1.71088061e-21)
(100.0107341 0.116556001 -1.492383334e-20)
(100.0074891 0.0724492388 0)
(100.0055964 0.03889610749 -1.882787963e-21)
(100.0054236 0.01232760491 -1.326761636e-20)
(99.895565 1.856047019 -1.346868676e-22)
(99.98804321 1.902331914 -2.942520372e-22)
(100.0763663 1.774268911 -4.121250145e-22)
(100.130268 1.516731779 4.276159412e-21)
(100.1444037 1.207598848 -8.666697259e-21)
(100.1297266 0.9156763489 0)
(100.1400732 0.6962629457 -2.567749112e-20)
(100.1011365 0.479346106 4.966258143e-20)
(100.1007035 0.3330857572 1.445143712e-20)
(100.0715261 0.2062992641 2.990223374e-20)
(100.0543482 0.1110809949 -2.999076514e-20)
(100.0478841 0.03524130263 1.515115315e-20)
(99.72688678 3.64901285 4.615778647e-20)
(100.0928574 3.752944513 -2.29819832e-20)
(100.3988506 3.458284602 -9.419456945e-20)
(100.5652548 2.908715486 3.432988238e-21)
(100.592482 2.278575463 -9.376308567e-21)
(100.5239215 1.684029191 -2.259150354e-20)
(100.464943 1.192527458 -1.540914256e-19)
(100.3444014 0.8090369244 -3.445728041e-20)
(100.2794665 0.5056270714 -1.48724635e-20)
(100.2009564 0.3114393591 3.382659551e-20)
(100.1533862 0.1676753295 -3.807550794e-21)
(100.1326459 0.05291768845 0)
(99.43926157 5.862548195 6.455094569e-19)
(100.3797028 5.959985739 0)
(101.0733336 5.31989142 3.486539832e-19)
(101.3619233 4.321833859 2.174531337e-19)
(101.3480934 3.268737152 -8.672627822e-20)
(101.1750302 2.352958244 0)
(100.9692828 1.582417305 5.649670696e-20)
(100.7127324 1.048202945 -4.389063885e-20)
(100.530174 0.6106004598 -3.816130608e-20)
(100.3828071 0.3709766439 1.935648271e-20)
(100.2912008 0.1977335789 -3.888617073e-21)
(100.2493297 0.06190737202 0)
(99.03727479 8.893567237 1.371411804e-19)
(101.171994 8.828762269 -1.100804003e-19)
(102.4565902 7.394798254 6.167911308e-19)
(102.7685602 5.629239422 0)
(102.5241404 4.072812356 2.205025085e-19)
(102.0747031 2.808274874 -5.806892826e-22)
(101.6284635 1.796348068 -9.448687481e-20)
(101.1799217 1.156710711 7.880060513e-21)
(100.8223087 0.6193400345 0)
(100.5891932 0.3710217759 3.977879083e-21)
(100.4435725 0.1935093915 -2.986976803e-21)
(100.375788 0.05979993204 -9.911106831e-22)
(98.10057538 13.71536255 -1.604762406e-19)
(103.1438253 12.90702607 2.750113429e-19)
(105.1359779 9.486501063 -1.365176973e-18)
(105.0034002 6.559916674 5.658423922e-19)
(104.1570896 4.460016807 5.554423457e-19)
(103.2154588 2.944579 -1.297419889e-21)
(102.3795511 1.756970762 2.437250005e-20)
(101.6920107 1.093285981 -1.638041809e-20)
(101.1205298 0.5172855115 0)
(100.7883869 0.3012779682 0)
(100.5834735 0.1496100353 -1.008297131e-21)
(100.4875595 0.04515034318 -3.031009067e-21)
(94.08408776 22.87605306 -2.504778285e-20)
(108.8125512 18.79963342 1.086719097e-18)
(109.823444 10.84492454 2.66755808e-20)
(108.0725724 6.543359067 4.82877505e-19)
(106.1344229 4.112956575 3.624814772e-19)
(104.4714038 2.585462009 1.550286128e-19)
(103.1197326 1.398459003 0)
(102.1800533 0.8152688818 9.042364287e-21)
(101.3752295 0.3029529429 2.662429372e-21)
(100.9439656 0.155496091 -3.146790652e-21)
(100.6830231 0.06515053032 -3.582734432e-21)
(100.5598625 0.01792427125 8.610896513e-21)
(123.277759 21.82240642 -1.616434884e-18)
(116.3224389 9.054938247 1.34133549e-18)
(111.4134709 4.802721855 -4.945109917e-19)
(108.0417987 2.792553039 -8.706941752e-19)
(105.6114423 1.628218939 0)
(103.7124844 0.7051607019 -4.838553804e-21)
(102.5467949 0.3338266494 2.046905625e-20)
(101.5302463 -0.01825122124 -3.259053535e-21)
(101.0191003 -0.05621030338 2.664152417e-21)
(100.7144465 -0.05439329446 -5.160692689e-22)
(100.5685472 -0.02051224509 -8.111927168e-21)
(135.8654247 6.798580794 4.662109722e-18)
(120.8826251 2.703373355 1.620911379e-18)
(113.6595336 1.217585481 0)
(109.275928 0.544836575 0)
(106.3166815 0.1715545891 0)
(104.0153074 -0.240758395 -4.973711652e-21)
(102.7030436 -0.3042376905 1.156699201e-20)
(101.5433285 -0.4125927599 1.125211899e-21)
(100.9845814 -0.3138273161 0)
(100.6544245 -0.1981666241 4.09992654e-21)
(100.4939404 -0.06692305137 4.049067187e-21)
(133.3440455 -8.982498888 -2.203269232e-18)
(120.6792596 -4.831260614 -1.511941837e-18)
(113.7579473 -3.067498877 0)
(109.352034 -2.088519737 4.818847422e-19)
(106.3571921 -1.516288808 -1.007002597e-19)
(103.9316065 -1.300503101 4.222678939e-20)
(102.5961269 -1.016869926 0)
(101.3891531 -0.8353538423 -1.103950477e-21)
(100.823609 -0.5899678739 -4.553986246e-21)
(100.4893053 -0.3518977077 5.078884961e-22)
(100.3244651 -0.1167159239 0)
(124.787022 -17.68106629 -6.282309726e-20)
(117.0022257 -10.38366934 -9.171767712e-21)
(111.9428165 -6.648075216 -8.001001666e-19)
(108.3576257 -4.4573689 -1.275135183e-18)
(105.7247193 -3.108466383 -7.25062713e-19)
(103.4554575 -2.302824233 0)
(102.2270494 -1.702978327 -2.754914417e-20)
(101.065573 -1.238968102 -1.379077757e-20)
(100.5345376 -0.8545026361 1.036042457e-21)
(100.2170905 -0.5000925406 -3.282774929e-21)
(100.0581158 -0.1649396609 4.80794947e-22)
(115.6968263 -20.78768301 -1.102277739e-18)
(112.0156718 -13.17277384 0)
(109.0619348 -8.862849611 -2.471602599e-20)
(106.5926939 -6.130317075 -1.138954569e-18)
(104.5695795 -4.336380831 -7.126777504e-19)
(102.6636754 -3.111342556 2.200432185e-21)
(101.6370195 -2.280065942 -3.346737864e-20)
(100.5961374 -1.58662799 8.161030711e-21)
(100.1313998 -1.080868557 0)
(99.84704514 -0.6292299012 3.782088919e-21)
(99.70235392 -0.2072330266 0)
(138.0831927 9.884986977 -4.21030343e-18)
(124.3745235 24.59633503 -3.197024353e-18)
(136.2070191 -8.191827121 4.731218818e-18)
(138.6522465 7.293369076 1.873761325e-18)
(126.9910904 -18.24443018 2.259147365e-18)
(135.2557599 -9.921422778 -2.342246271e-18)
(117.2131978 -21.85956101 1.176628914e-18)
(125.7408817 -18.98347465 1.659289288e-18)
(116.0421882 -21.99171463 1.101780676e-18)
(92.27394879 21.60051337 4.180153918e-19)
(121.3579873 25.21726165 1.272300798e-19)
(106.9285195 20.48783808 -1.014538142e-18)
(146.398223 28.68838008 -2.252671105e-18)
(126.9470943 42.95912636 9.229374383e-19)
(135.2754542 9.080972421 8.298468489e-20)
(122.6484254 5.519318729 -1.54547717e-18)
(117.9186467 10.84040721 -1.348883032e-18)
(149.1406513 -3.535854926 4.201655913e-18)
(151.6110845 9.503633738 -4.63179714e-18)
(134.1516376 -7.37240303 4.454787602e-18)
(123.6533857 -3.517675128 3.315300831e-18)
(123.4897079 3.274894908 -1.561878459e-18)
(136.218401 -20.40864862 1.667102603e-18)
(142.9486628 -14.33507574 2.003397292e-18)
(125.9411834 -16.95265745 -3.407023967e-18)
(119.9047632 -10.51802157 -1.374908885e-18)
(123.0413296 -5.562402351 -1.646701092e-18)
(123.7316482 -26.17471818 -1.433477817e-18)
(129.0643349 -24.40081207 1.703766227e-18)
(108.0228892 -31.73861399 -6.889667129e-19)
(112.3700965 -26.82149055 -2.016883817e-20)
(117.2365767 -27.11007095 -1.020115464e-18)
(151.639677 10.51839775 2.802333701e-20)
(147.1227481 27.53646102 0)
(134.3454148 17.5239171 1.598166372e-18)
(145.5281319 25.88339836 3.415533245e-18)
(150.5592266 10.50183444 4.575272186e-18)
(143.3659513 -13.79889936 6.217340898e-20)
(148.8670557 -4.286031437 2.118613951e-18)
(137.8458149 -1.66553216 2.176454885e-18)
(148.1542222 -3.953860222 2.894058533e-20)
(142.9491326 -13.37332679 1.96127448e-18)
(150.5758795 9.508579304 -3.17365002e-21)
(148.4165584 -3.2196489 2.056889598e-18)
(138.0175355 -0.5670655672 2.198548815e-18)
(129.8469052 -24.0561363 0)
(135.7643628 -20.74128405 0)
(130.700177 -15.42063467 -5.187641073e-19)
(135.2928088 -20.15108387 0)
(129.6236241 -23.26123431 -1.703064463e-18)
(142.5463428 -13.90616501 3.330780972e-20)
(136.1646618 -19.55923989 4.140676458e-21)
(131.905601 -14.25096734 -3.087013925e-18)
(117.9441915 -27.07665061 -1.085852565e-18)
(122.9899077 -26.34651502 -1.378398586e-18)
(105.5732003 -31.52762268 6.960068485e-19)
(105.1246967 -31.37659495 -6.857876026e-19)
(111.6828245 -26.77164374 -2.633093114e-20)
(108.0157765 -31.73946365 -6.518540177e-19)
(151.0093233 52.28745454 0)
(125.2075924 65.34667671 -1.599619852e-18)
(121.9369509 -27.60535656 5.370572168e-18)
(116.793269 -20.63096589 -6.881040117e-20)
(114.2836226 -14.18198318 0)
(118.5814313 -11.74288913 1.297054563e-18)
(103.7976659 -30.19757601 4.870950929e-18)
(114.5097548 -30.11439408 -2.499477921e-19)
(116.9836809 -29.97192901 0)
(126.4770216 39.34209361 0)
(144.1194741 28.13136158 -7.673843703e-20)
(132.340779 19.80316069 -2.199868402e-18)
(117.3567743 -29.91067538 9.183542759e-19)
(119.842239 -29.663475 -7.996243376e-21)
(120.8150682 -21.06374029 -1.390322616e-18)
(122.862799 -25.58447487 0)
(117.8865254 -26.32056963 3.891153851e-20)
(128.8514843 -23.6027449 -1.650770284e-18)
(123.5934476 -25.40497849 1.402329366e-18)
(122.0358379 -20.6587823 0)
(84.40578681 31.70601968 -6.552187892e-19)
(123.166981 43.0411356 -8.015616339e-19)
(105.6597903 34.95629208 -8.936933786e-19)
(87.00421378 34.27550719 0)
(152.2773196 49.11475524 8.419888861e-17)
(140.3936171 37.10750309 6.510062847e-19)
(150.9908217 48.88362433 -6.477989974e-20)
(125.3230286 60.93120204 6.992063018e-20)
(148.903878 51.49183308 3.97389363e-18)
(137.4988283 39.16735269 6.303268975e-19)
(150.4913805 2.125586514 -2.464234942e-18)
(150.6792159 2.985263176 0)
(139.401841 -17.99599174 0)
(139.8592919 -17.57777591 -1.875030188e-18)
(122.5095844 -29.09183988 1.249727448e-18)
(122.6587049 -27.79296025 0)
(125.9841263 -25.5442216 1.531956133e-18)
(125.1453316 -27.9045228 0)
(123.2226046 -28.76315911 0)
(125.7460549 -26.43018029 -3.311981855e-18)
(125.1871779 -27.79115009 0)
(126.7452823 -25.29305954 0)
(111.5987134 -29.76505457 7.856142447e-19)
(113.7865563 -30.06802811 -1.153706634e-18)
(104.9785927 -30.4868476 -5.48519442e-18)
(150.6498065 17.98815426 0)
(150.3837947 19.15608227 0)
(146.0455826 -9.643607503 -4.616249836e-18)
(146.3962838 -9.005895407 -2.323171214e-18)
(145.8919461 -8.677034183 2.806297926e-20)
(141.8275414 -6.433588655 -4.892639282e-18)
(143.0783779 -2.799773128 -2.502210088e-18)
(139.6351863 -10.69041708 -5.623677332e-20)
(141.3310469 -7.5670536 2.427102115e-18)
(145.552496 -9.313195 4.386428872e-18)
(149.9502796 3.148722129 -2.351129327e-18)
(144.1797466 4.095789697 -2.630188079e-18)
(144.0487685 8.69349072 2.633019661e-18)
(143.4038846 -1.498096385 -2.487619115e-18)
(144.0738397 2.641213591 1.159536058e-20)
(149.7873864 2.294701218 0)
(132.379172 -22.64029171 1.468113026e-18)
(126.063675 -26.17896907 0)
(132.7902191 -22.38339051 -1.506563001e-18)
(122.8590825 -28.84312735 0)
(120.3869013 -29.24839815 -1.029010567e-18)
(120.7987963 -26.75978819 -2.478653828e-18)
(120.1707426 -29.61165189 1.027013259e-18)
(122.2182721 -29.19464827 0)
(101.1325241 -29.79341736 2.765954799e-17)
(110.8685425 -29.62240938 -2.428168022e-20)
(119.7040155 87.18627425 0)
(113.8840077 -31.2440136 -1.742048241e-18)
(114.2360497 -30.96770702 -9.802936542e-19)
(38.28098812 8.589448154 -9.732771432e-18)
(114.0593407 -30.80766925 4.852257729e-19)
(113.380778 -30.24966292 -1.120654795e-18)
(70.12161465 42.86436083 0)
(120.3785946 64.49274189 -2.690576571e-18)
(100.7380638 51.75144378 -1.800822217e-18)
(77.11265964 49.62917119 -1.745604554e-19)
(149.7989591 -1.171817033 1.289904226e-17)
(154.3815084 9.293342587 2.990781997e-18)
(153.7402905 6.14144399 -1.526574552e-18)
(151.3331139 6.591247756 0)
(137.5640078 -19.48706082 1.719118365e-18)
(137.8148293 -20.99360595 1.739705967e-18)
(136.5307826 -21.86927745 2.280585695e-19)
(143.1054242 -15.78130436 -5.068861146e-18)
(141.5776842 -17.35202136 -1.102322046e-17)
(141.6561144 -15.82344402 -3.757647571e-18)
(151.4154435 13.62691486 -4.667682921e-18)
(154.4098439 13.6474029 -1.676486139e-17)
(154.5884732 10.37368035 5.891125e-18)
(149.236955 18.77716801 0)
(141.9270156 16.94615083 4.898908824e-18)
(139.1514503 21.95613909 4.675597598e-18)
(143.8333347 10.30198728 2.505843873e-18)
(142.5761711 15.25405617 -4.506118107e-20)
(149.479803 17.67904672 0)
(144.5678308 -12.10059983 -2.180012116e-18)
(145.0475536 -13.40543302 2.651057146e-18)
(143.6108545 -15.23042596 5.159330971e-18)
(147.8894286 -6.441300962 0)
(136.0587537 -22.16839389 1.843603827e-18)
(134.6363712 -22.92998364 0)
(134.456735 -21.47402278 1.572436612e-18)
(132.7894933 -21.65996112 -1.88150097e-18)
(131.1764509 -19.20050932 -3.590262603e-18)
(133.3640302 -17.62758994 -3.847298506e-18)
(139.5780841 -17.12038822 0)
(136.989718 -14.21626232 -4.276562e-18)
(139.0071612 -11.64358037 -3.77369799e-20)
(134.0984531 -17.03054484 -1.986056419e-18)
(136.2807312 -14.98586969 2.114814323e-18)
(139.1393854 -17.5362119 0)
(120.0819209 -26.86450896 0)
(120.0355121 -29.30285128 -1.015378688e-18)
(117.7005549 -29.3521521 -2.462985766e-19)
(102.5386408 -30.53085961 0)
(142.4113512 61.38333417 0)
(121.374106 83.61717814 4.703555413e-19)
(138.4868596 63.91218864 0)
(123.1839482 -27.14724733 9.249483721e-18)
(123.4489063 -27.01958574 6.534588038e-18)
(113.1807077 -31.31424598 7.470697679e-21)
(113.7822998 -31.24891334 0)
(103.5459 -29.78166067 3.732878389e-18)
(50.70548414 -7.904040785 0)
(45.24261378 8.366147061 8.130920288e-18)
(53.97860502 -9.804773084 0)
(115.5360123 -29.92894374 -5.818681075e-19)
(116.1118288 -30.44545869 7.651213091e-19)
(118.7918655 -29.79413473 -9.730411667e-19)
(112.5047968 -29.90360605 -7.487235165e-18)
(111.9334612 -29.4038942 0)
(154.3370205 41.04244101 0)
(149.1301861 38.58493039 -2.34409537e-18)
(144.4558384 43.28681563 4.438886329e-18)
(152.9759368 32.12117752 0)
(150.3401124 36.9636335 3.555409886e-20)
(142.6369152 44.80801439 2.67032679e-20)
(136.3223874 48.75033628 -3.892325598e-18)
(140.7135235 57.90036248 -6.237555385e-18)
(152.3267658 1.496527936 -1.94508057e-18)
(151.1287554 -1.151930752 1.075787848e-17)
(149.9606316 -0.3715435087 -4.430071123e-18)
(151.1942382 5.656293217 0)
(153.467139 5.144674081 1.558722665e-18)
(152.6189609 2.386099642 -5.887037849e-19)
(139.8341425 -19.39861089 -2.177258569e-18)
(138.3035088 -20.64028456 3.770861178e-18)
(138.0254403 -19.14520292 -1.732397367e-18)
(137.0984535 -21.15374787 2.192420635e-18)
(138.9173501 -19.89404071 8.645203019e-18)
(135.9103075 -22.25080896 -1.008951578e-18)
(136.5826339 -21.51432555 1.997396657e-18)
(139.4425468 -19.34905409 6.400887433e-18)
(141.2132525 -16.27624132 0)
(141.0450901 -17.76655769 1.188208202e-17)
(140.3147909 -18.92768221 -2.274959903e-18)
(122.7808011 -28.72032401 0)
(122.8943768 -28.52221173 2.642886642e-18)
(124.4684617 -28.41553707 0)
(125.1219915 -27.20294839 1.835538396e-20)
(126.255956 -26.91463955 0)
(126.0304719 -27.09216742 1.604460271e-18)
(128.1950223 -26.21808981 -1.358647993e-18)
(129.3654287 -25.75871741 0)
(126.6331676 -26.75033443 -1.277628255e-18)
(127.803729 -26.36567046 0)
(125.8725592 -27.28457755 -6.299499658e-18)
(106.7531164 -31.34310644 0)
(111.9944276 -31.23271065 0)
(112.9068529 -31.29207733 7.769408153e-19)
(154.4042396 18.58611474 5.300995258e-18)
(154.3580965 14.90074434 1.395217393e-17)
(151.2664963 14.68206836 -4.749456273e-18)
(155.1708145 14.96084402 -7.552634232e-18)
(155.4586139 18.6601248 -3.037399522e-18)
(154.9726955 13.6276755 0)
(154.5926009 25.7522089 2.912907426e-18)
(153.6296394 30.48334846 0)
(155.5235666 19.90365881 8.802145736e-20)
(154.7803134 24.29549909 2.823530804e-18)
(149.3165385 22.64428379 -2.309520913e-18)
(153.6197969 23.9477399 0)
(154.38115 19.87418119 -2.584654553e-18)
(146.7738841 -10.7637183 2.754621287e-18)
(145.5100947 -12.75848393 -8.859330804e-20)
(144.9518812 -11.50497592 4.392803862e-18)
(147.5112276 -7.102308441 0)
(147.9876553 -8.251066514 -8.737474328e-17)
(147.1296992 -10.07378295 0)
(131.2684745 -24.89002311 -2.237041998e-18)
(132.4421488 -24.34847377 0)
(129.7646706 -25.59475013 0)
(130.9192032 -25.04623819 0)
(126.3962271 -25.51599046 0)
(134.138187 -23.29134319 0)
(135.5152286 -22.5520272 -2.040675417e-18)
(132.8177451 -24.12110939 4.109329292e-19)
(133.7362719 -23.52806449 4.85924667e-18)
(111.2653576 -29.15641279 0)
(121.1673632 -29.45498289 -1.451494052e-20)
(114.4774282 -29.06158327 -5.908159344e-18)
(114.7383672 -29.61389198 4.523123677e-19)
(114.6529403 -28.95103512 -3.520670332e-18)
(121.4649846 -29.36748717 0)
(101.2858236 -30.22869139 1.494821371e-18)
(120.7554897 22.44445741 1.398015834e-18)
(115.8652876 11.83899044 -1.135282033e-18)
(110.0543582 12.4213003 3.882796783e-19)
(107.0016543 -29.99221063 5.196441644e-18)
(107.253245 -29.91570754 -3.283763295e-18)
(112.8274981 -14.6171326 0)
(106.579764 -29.66373055 -5.058145744e-17)
(117.1926209 -26.36881117 2.067197103e-18)
(112.7713823 -25.84723481 0)
(112.6280132 -22.02120239 9.071237988e-21)
(56.07445999 54.46113226 3.835955848e-18)
(53.89181438 30.98180867 -7.857380036e-18)
(40.98325856 17.92603302 1.165495955e-17)
(106.0395796 91.31422321 0)
(90.48006563 70.35033691 0)
(63.06697423 63.27759054 -1.790048447e-18)
(113.4803408 24.24607986 1.974174917e-18)
(108.9475779 32.25531822 6.001955893e-19)
(123.2473071 39.49858804 0)
(143.8268798 32.50362393 0)
(148.3049393 35.72991752 -2.157588276e-18)
(151.1715492 31.23937268 -4.571684094e-18)
(110.6268793 -31.0184672 6.614074848e-19)
(111.6542994 -31.24134822 0)
(107.2339437 -31.4486858 6.993362199e-19)
(116.9701995 -29.39222245 1.142249428e-18)
(114.7838497 -29.33743878 -9.930112029e-19)
(115.1301054 -27.10688808 9.038631774e-19)
(151.9255815 29.76991541 0)
(153.2998794 25.34058869 0)
(148.8543371 23.80337797 4.671091984e-18)
(101.5126871 -30.72476548 -1.115066956e-18)
(104.5642407 -31.26242992 -7.357998675e-19)
(99.1577114 -30.11235878 0)
(100.3539567 -30.35619253 -4.945554522e-18)
(110.262389 -30.99616829 -1.039362654e-20)
(149.1197018 55.15578602 -1.123374144e-17)
(122.3670434 -27.45307053 -1.234914413e-17)
(109.0265869 -31.23396521 -8.096372893e-19)
(108.7523311 -31.01830142 0)
(104.2120505 -30.10511281 -6.084921272e-18)
(115.8187468 -30.91523379 -1.233129239e-20)
(114.9861222 -31.01351084 -8.664807475e-19)
(115.8998783 -29.92987555 -1.780416081e-20)
(137.9146201 23.56593803 -2.28872906e-18)
(133.267235 27.83022656 1.95805749e-18)
(138.1945257 34.41537893 -6.506589903e-21)
(118.4406906 -29.87835958 -9.743286682e-19)
(116.2781265 -30.60356412 0)
(115.9891519 -30.8623406 4.689944143e-19)
(113.5373825 40.03500982 1.910355796e-18)
(105.5207961 48.85899993 1.563109831e-18)
(121.4088067 60.43589899 2.707016323e-18)
(152.5728538 46.31145404 0)
(150.434287 45.39834039 2.426401908e-18)
(148.6909447 47.60248374 -7.314241147e-18)
(155.4235999 32.66295396 5.393034112e-17)
(155.1364486 34.84570042 -1.127610714e-17)
(122.7214871 -28.94142654 -1.248232044e-18)
(120.5204767 -28.87215734 0)
(120.5189242 -29.06211482 -6.651580153e-18)
(119.7526111 -27.53970276 0)
(120.3847 -27.84085763 0)
(123.1587284 -28.07636892 1.443781067e-18)
(123.594665 -27.57828644 1.146974705e-18)
(124.7293503 -27.35026504 1.204524617e-18)
(124.1518525 -28.51263982 0)
(125.241053 -26.68590057 0)
(127.9894033 -26.66206624 0)
(128.1853542 -26.41621797 7.430844666e-18)
(106.0765051 -30.87446913 8.521419508e-19)
(109.7895825 -31.49675832 1.914097662e-21)
(109.4447708 -31.33518909 -3.858797728e-19)
(129.0944786 -24.91275395 1.950270938e-18)
(129.5924309 -24.72155806 -1.555195865e-18)
(128.4730093 -26.20633202 -4.734192015e-18)
(128.8038314 -26.00297358 0)
(126.5010795 -25.9839683 0)
(129.8944368 -24.49714851 -3.071179036e-18)
(129.5544518 -24.20906073 6.048524054e-17)
(134.0264069 -21.76094465 -1.565340416e-18)
(134.2015627 -23.15483472 -1.765346649e-20)
(132.9812936 -23.7022904 2.001157012e-20)
(101.8040817 -30.05965307 0)
(106.2162391 -30.18736159 4.462975029e-18)
(106.6639432 -30.07984011 0)
(111.0956805 -30.52179883 2.693451394e-18)
(111.2381423 -30.73618578 -6.718217328e-18)
(114.18693 -31.1186919 3.858164927e-18)
(39.30443693 1.944289869 1.976977249e-17)
(29.36330488 12.30738684 -5.791503745e-18)
(41.97667225 -4.21209016 0)
(113.8029424 -30.70443187 9.948748781e-19)
(109.2112125 -29.92364349 4.021371285e-18)
(110.2383043 -30.18686563 6.631770756e-18)
(109.6620626 -29.66488092 1.508369625e-18)
(109.656501 -29.78664726 2.417315823e-18)
(113.6318947 -30.48079299 -2.140628348e-18)
(109.3741105 59.82365079 -1.707069241e-18)
(97.09653326 67.70428401 0)
(112.9782969 82.78010326 0)
(150.711108 -2.613803431 -3.814507615e-18)
(150.9119044 -1.81942009 -1.034671936e-17)
(150.0943637 -4.143263182 -1.74773924e-20)
(150.4185781 -3.378982762 1.44860521e-20)
(154.1735111 8.236613194 -3.061852551e-18)
(153.3794526 8.340143537 0)
(153.5415965 9.376465715 -2.575117727e-18)
(153.0163985 6.316675377 -3.991650778e-18)
(153.2073434 7.320814142 -1.329229605e-18)
(153.966685 7.190594056 1.501545552e-18)
(142.6007138 -16.35150765 -1.239862358e-17)
(143.1790689 -15.7766891 4.199023761e-18)
(143.6335883 -15.23303045 -2.150839888e-18)
(142.2417019 -16.78568014 0)
(142.7134559 -16.30508879 -2.10304795e-18)
(142.0674167 -16.89957749 -1.12578911e-19)
(154.6114012 12.60578546 1.100955024e-17)
(153.6824864 12.71199951 4.694620116e-18)
(153.5674432 13.80951713 4.926924083e-18)
(153.6746116 10.44753995 0)
(153.7288757 11.57028224 -2.390200291e-18)
(154.6968577 11.50794173 1.375745255e-18)
(144.5811676 -13.99947538 -2.639546518e-18)
(144.9354919 -13.48969832 2.32699741e-18)
(145.3509983 -12.88570375 2.334896051e-18)
(144.0819699 -14.67561118 -6.626060481e-18)
(144.5150824 -14.0871812 2.257150009e-18)
(144.1088109 -14.62190584 0)
(149.4784036 -5.78298466 3.944874382e-18)
(149.7982052 -4.941035083 0)
(148.6728895 -7.232083241 0)
(149.1153207 -6.544486021 -3.738809436e-18)
(97.02236597 -29.77809239 3.482515913e-18)
(98.43106255 -29.78354224 2.724875852e-17)
(99.34691868 -30.04813614 -2.478349197e-18)
(103.8397598 -30.93678788 1.078466611e-18)
(96.34148595 -29.54905159 1.452454199e-17)
(144.9337855 63.17868554 0)
(148.275727 58.95766089 -3.621871084e-17)
(146.3832744 58.35014005 1.234490715e-17)
(132.2350023 77.29579036 2.447847971e-17)
(130.8326195 75.27136949 -1.657030504e-17)
(123.0230778 77.75626642 3.878284311e-18)
(142.4919813 66.9096132 3.447833368e-17)
(137.2345146 71.13480983 0)
(122.7040936 -27.29055187 -1.71967092e-18)
(123.0242762 -26.78515659 2.522121762e-17)
(104.2451055 -30.02033232 -8.139751777e-21)
(108.4075461 -30.79462586 -1.866183465e-18)
(107.3619672 -30.44784714 0)
(47.81598505 -4.492116791 0)
(111.4901749 -29.65126622 1.044478659e-17)
(108.9703976 -29.40603253 0)
(111.9207984 -29.52053525 -2.527505899e-18)
(153.1906452 40.76194302 0)
(151.9369505 43.20875433 0)
(153.6710072 43.90442724 0)
(152.2032471 33.67174772 0)
(153.8486953 34.44667482 -2.662499936e-18)
(154.4875005 32.48226611 0)
(154.7429041 36.62881425 1.542423539e-18)
(154.1492901 38.61101009 -9.281693994e-18)
(152.0040427 0.6555403074 6.324824017e-18)
(151.62327 0.8967714629 -4.955489301e-20)
(151.8551637 1.749033185 -6.907905512e-18)
(151.0856206 -0.9705884622 -2.038369934e-18)
(151.4799069 0.07695919108 1.844172489e-19)
(151.7184548 -0.1137886694 -2.179132475e-17)
(153.1746682 4.214640076 3.824984285e-18)
(152.5592684 4.41273379 5.075094626e-18)
(152.7971315 5.343757763 1.464064567e-20)
(152.0863172 2.618308646 -2.40713659e-18)
(152.3218727 3.507236617 -6.881304702e-19)
(152.897976 3.292418629 3.414534999e-18)
(139.3354176 -19.85501695 -2.070494686e-18)
(139.4289472 -19.424328 -1.988028553e-18)
(139.923319 -18.99282602 -2.019123672e-18)
(137.695939 -20.77878884 -2.320396729e-18)
(138.3133911 -20.38760061 -7.221334197e-18)
(136.0535173 -21.95838881 2.524834008e-17)
(134.3139474 -22.21374469 -9.471346542e-17)
(134.4456107 -22.56858084 1.021122907e-17)
(135.9797618 -21.82498194 -5.387634942e-18)
(139.8012342 -18.88637913 -3.048191637e-18)
(139.7616767 -18.45491681 0)
(141.0230704 -18.02548728 0)
(141.3545441 -17.65763211 1.925727653e-18)
(141.7940987 -17.23581607 -9.406040338e-19)
(140.4163 -18.55163615 2.080242732e-18)
(140.9011245 -18.10330716 -6.610115002e-18)
(140.7449939 -18.46844972 -3.224283568e-20)
(119.2278257 -28.45009595 0)
(119.9627145 -28.61949853 1.053642107e-18)
(122.7725811 -28.80234191 -9.268193487e-19)
(116.8201311 -28.30908086 5.433148505e-18)
(117.1981156 -28.67272498 5.903202057e-18)
(117.4286369 -28.55151976 -3.304558765e-18)
(123.1173298 -28.32587033 -9.929521811e-18)
(120.1633264 -28.06458631 8.385190327e-18)
(119.7772695 -28.28225095 -1.040855533e-17)
(127.6195482 -26.98755071 7.285080653e-19)
(127.8266747 -26.80846654 1.427816148e-18)
(125.7559198 -26.84565412 -1.215710715e-18)
(154.3862915 17.34483219 0)
(153.3512892 17.22939893 -1.295986145e-18)
(153.2841448 18.43793892 2.483868536e-18)
(153.4607634 14.87625563 -6.650733895e-20)
(153.4003063 16.04311855 -2.587771814e-18)
(154.3764379 16.10223172 -2.817260941e-18)
(155.3068826 16.10958226 -3.414574512e-18)
(155.3722108 17.41683916 -3.188655032e-18)
(154.4134697 27.24749284 8.196667214e-18)
(155.6532585 27.4285589 -6.276468868e-18)
(155.6822545 25.91840714 -6.721008446e-18)
(155.1279604 30.73843804 -1.03201106e-17)
(155.5348491 29.04834032 2.863403671e-18)
(154.119139 28.83818519 -5.08252139e-18)
(155.4110192 21.17978534 -5.123366267e-18)
(155.7869887 24.54951765 -7.791417148e-18)
(155.9292926 22.65839377 5.51021251e-17)
(155.0894797 22.5886029 -2.127774448e-18)
(146.3766576 -11.45502511 2.859486094e-18)
(146.5277277 -10.97111782 5.044200681e-18)
(146.886192 -10.3051657 -5.161559554e-18)
(145.7531553 -12.25525788 -4.858154275e-18)
(146.1448666 -11.61673176 -4.867089969e-18)
(145.949844 -12.09753848 0)
(147.8255809 -8.790145679 3.490463178e-18)
(148.0039602 -8.347265952 5.136290694e-18)
(148.4388755 -7.687962711 3.166116034e-17)
(147.2294691 -9.646886191 2.617262598e-18)
(147.5928992 -8.999017451 -3.28235859e-18)
(147.4888283 -9.419181634 -6.018771457e-18)
(128.3205886 -25.29214375 -6.013085973e-18)
(128.733631 -25.09245354 7.070510479e-18)
(126.7776529 -25.80432128 0)
(129.0130636 -25.76423791 -8.59498955e-19)
(128.8138855 -25.47219086 1.247159795e-17)
(134.569144 -23.04566455 0)
(132.8805536 -23.35774823 -8.478088863e-18)
(132.356887 -23.60900016 0)
(134.0186465 -22.8741735 5.241062907e-18)
(133.4264066 -23.12794002 0)
(135.0304004 -22.81026651 -1.935912778e-18)
(133.1151593 -23.91281645 3.95922023e-18)
(131.6979084 -24.14783415 -2.131226013e-17)
(131.8011149 -24.38660141 -1.3445408e-18)
(131.9214528 -23.84443474 7.446400247e-18)
(131.3879406 -24.04219291 0)
(133.4014339 -23.75893949 -6.267221378e-18)
(114.2130975 -29.20461549 2.618394163e-18)
(117.9430966 -29.7399514 2.930280554e-20)
(118.0473441 -29.59176558 1.214323989e-18)
(118.1550092 -30.03726861 0)
(117.9849478 -29.93650434 2.156700496e-18)
(113.7708656 -29.36919571 0)
(116.3882046 -28.93581167 8.909446226e-18)
(116.8592802 -28.80608865 -8.252701118e-18)
(117.9684789 -29.39490545 1.907982334e-18)
(117.2685389 -29.1264107 7.887060971e-18)
(113.9672852 -28.70987184 5.158730934e-18)
(101.7425427 -30.15419053 3.706682231e-18)
(99.73798138 3.106134374 0)
(99.9352608 1.808709085 2.44935745e-21)
(99.79112425 3.176635528 0)
(99.99968174 3.275820783 1.224023567e-19)
(100.0309661 1.906995719 -7.205515046e-23)
(100.0607047 3.266470737 -3.059103148e-20)
(100.2553591 3.110722226 8.011855535e-20)
(100.1182777 1.82769104 0)
(100.2975471 3.023543661 0)
(100.4157006 2.687372201 -5.907995929e-21)
(100.1747843 1.598983979 0)
(100.4306035 2.559030199 1.7646229e-21)
(100.4630812 2.1520671 4.66929637e-21)
(100.1884356 1.29581853 -3.756792367e-21)
(100.453239 2.01449068 -2.175636172e-21)
(100.4226637 1.619994294 0)
(100.1706918 0.9931138424 -9.967387324e-21)
(99.3391796 5.115129775 -8.115831909e-20)
(99.65299936 3.569610561 -2.725466383e-19)
(99.5178046 5.25010393 -4.858027847e-19)
(100.0919567 5.401841567 -1.985291535e-21)
(100.0066659 3.76704626 2.33930131e-20)
(100.2752587 5.360955982 2.668832921e-21)
(100.7396775 5.010349889 0)
(100.3393466 3.562601135 1.04775215e-19)
(100.8544478 4.834412978 2.147647246e-20)
(101.0792397 4.200346339 2.561460513e-19)
(100.5419001 3.059425163 -1.285397613e-20)
(101.1155046 3.969266362 -3.229805926e-19)
(101.1411925 3.264426783 -9.711307314e-21)
(100.6007211 2.436825571 -1.743491105e-20)
(101.125757 3.035253304 8.462751698e-20)
(101.0307609 2.392735566 -2.729089925e-19)
(100.5478081 1.823872177 -1.087056021e-20)
(98.75572678 7.77310756 0)
(99.21306601 5.706578249 -4.969215997e-19)
(99.15566951 8.027886417 -2.084341962e-19)
(100.4969334 8.166434123 -9.398414611e-20)
(100.1537077 6.016437941 1.996107666e-21)
(100.9020652 8.025104571 -1.005925004e-19)
(101.8217683 7.210057759 0)
(100.9385396 5.528835247 0)
(102.0183697 6.858171121 0)
(102.3204313 5.719172589 1.355555981e-18)
(101.3248439 4.584958283 6.862720898e-20)
(102.343673 5.328869983 -6.801852199e-19)
(102.2557352 4.235530534 -2.421394077e-20)
(101.3718328 3.527645586 0)
(102.1876678 3.9002633 2.115306198e-19)
(101.9222667 2.986656615 0)
(101.2282797 2.563725419 0)
(97.46881943 11.71512826 -4.383471469e-21)
(98.54370074 8.591754109 0)
(98.45743543 12.23172524 1.608693157e-19)
(101.6064658 12.20030159 -2.933674165e-19)
(100.6834692 9.018604375 -1.705302156e-19)
(102.4654859 11.72482396 3.895690612e-19)
(104.0536886 9.715268906 -7.897756248e-19)
(102.2410103 7.814426595 0)
(104.298998 8.985026384 7.8066558e-19)
(104.4552563 6.979933271 1.025000119e-18)
(102.7572375 6.066895426 4.730617425e-20)