/*--------------------------------*- C++ -*----------------------------------*\
| =========                 |                                                 |
| \\      /  F ield         | OpenFOAM: The Open Source CFD Toolbox           |
|  \\    /   O peration     | Version:  v2012                                 |
|   \\  /    A nd           | Website:  www.openfoam.com                      |
|    \\/     M anipulation  |                                                 |
\*---------------------------------------------------------------------------*/
FoamFile
{
    version     2.0;
    format      ascii;
    class       surfaceVectorField;
    location    "3";
    object      Uf;
}
// * * * * * * * * * * * * * * * * * * * * * * * * * * * * * * * * * * * * * //

dimensions      [0 1 -1 0 0 0 0];


internalField   nonuniform List<vector> 
6464
(
(99.98774777 0.8232706895 2.277584318e-22)
(99.99900664 0.4172260292 0)
(100.0005057 0.4204030311 2.782780817e-22)
(100.0066043 0.8355076043 -7.190247923e-24)
(100.0020318 0.4133689654 8.206165691e-22)
(100.0034297 0.3972007167 -6.610419044e-23)
(100.0222061 0.7727666549 -5.33798238e-22)
(100.0044702 0.3734415429 -9.119354793e-22)
(100.0051232 0.3443185211 8.963102301e-23)
(100.0303253 0.6571466027 1.625244504e-21)
(100.0054706 0.311901335 4.156410959e-22)
(100.005522 0.278079577 0)
(100.0313404 0.5225277841 0)
(100.0053476 0.2445709339 0)
(100.0051626 0.2125012504 7.297036591e-22)
(100.027547 0.3952515505 1.518143196e-21)
(100.0052925 0.1830537261 -3.700009548e-21)
(100.00516 0.1545000202 -1.370508345e-21)
(100.0233439 0.282768941 3.006867921e-21)
(100.0044679 0.1295515258 3.006643544e-21)
(100.0033457 0.108448751 -8.553686779e-22)
(100.0141385 0.1964170902 -5.344562286e-23)
(100.0008619 0.09334550419 1.661718991e-21)
(100.0091201 0.09198659317 -7.467781641e-21)
(100.0514426 0.2246363902 5.12476562e-22)
(100.0181758 0.2005589968 -2.667477302e-21)
(100.0029887 0.09321659863 -1.564981509e-21)
(100.0065447 0.05383402967 -9.426431662e-22)
(100.035681 0.1393008157 1.493438852e-20)
(100.0055099 0.0254070102 -7.577039487e-21)
(100.0267096 0.07496085077 -1.592461163e-20)
(100.0239435 0.02378324574 1.436342982e-21)
(99.9154136 1.828760164 1.15706911e-21)
(99.94807958 1.649257807 -5.715357327e-22)
(99.90565936 2.069569909 -6.734506253e-23)
(99.93945489 1.873991483 -1.011308918e-21)
(100.0094984 1.896498529 1.911129215e-23)
(100.028453 1.686263269 -3.865060159e-22)
(100.0204273 2.122562067 -1.418636543e-21)
(100.0319565 1.904848218 -5.252849024e-22)
(100.0973177 1.797059852 -2.060787447e-22)
(100.0825323 1.569545006 -2.147323857e-22)
(100.1220149 1.979027266 -8.766730502e-23)
(100.1141104 1.754598834 1.734443678e-21)
(100.1525249 1.557435038 2.138175493e-21)
(100.1130442 1.339801174 3.720845307e-21)
(100.1816064 1.690675205 3.725044577e-21)
(100.1583274 1.483932267 4.903717718e-22)
(100.1664197 1.253369444 -6.170713743e-21)
(100.116631 1.066236656 -5.776677616e-21)
(100.1925437 1.343619404 -2.078207623e-21)
(100.1635912 1.172049615 -2.049757878e-21)
(100.1502101 0.9572218777 -4.983544454e-21)
(100.0990434 0.8079775722 4.588435443e-22)
(100.167094 1.013524572 -1.344277127e-21)
(100.1425105 0.8843679242 5.483737901e-21)
(100.094093 0.5598180062 -1.283499593e-20)
(100.1498019 0.7614207243 -1.283399867e-20)
(100.2108954 0.8251535895 1.300045284e-20)
(100.1302184 0.6364189689 -2.633923376e-20)
(100.1107596 0.5283337119 1.141424099e-20)
(100.1539823 0.5649226944 -1.628682411e-20)
(100.0908113 0.4366206202 2.309391279e-20)
(100.0681795 0.3855077271 2.567069007e-20)
(100.0861295 0.2673318644 2.217469235e-20)
(100.1945008 0.4193779863 -2.147370796e-22)
(100.1480834 0.468289836 4.631502863e-20)
(100.0872574 0.3709380448 2.527154388e-21)
(100.0629275 0.1570366861 -7.129376952e-22)
(100.139178 0.2588766299 3.186478898e-20)
(100.0511145 0.07248812137 -7.406689849e-21)
(100.1064209 0.1393789375 -1.689718731e-20)
(100.0923178 0.04407811975 7.574871541e-21)
(99.77587556 3.4127575 2.30791284e-20)
(99.68990198 3.610682215 -1.087473432e-19)
(99.72708638 3.898691261 5.28195402e-19)
(99.77350099 3.6758199 1.245237807e-19)
(100.0762932 3.509642954 -2.677609419e-20)
(100.0497634 3.760725688 -2.170053173e-21)
(100.1139345 4.007286459 -1.260781135e-20)
(100.1390384 3.731883915 3.957040878e-20)
(100.3476191 3.240772084 -4.706685868e-20)
(100.3690008 3.511461943 6.907126617e-21)
(100.4604337 3.681178247 -1.755443104e-19)
(100.4290328 3.397009915 -4.720432122e-20)
(100.4970935 2.733869386 2.618055379e-21)
(100.5535475 2.985069839 -4.730088164e-21)
(100.6422242 3.084739208 -1.362605395e-20)
(100.5765851 2.830026322 5.610265431e-21)
(100.5227102 2.146526511 -5.775791039e-21)
(100.5966018 2.358189231 -1.339348755e-20)
(100.6710482 2.408291144 -4.688443201e-21)
(100.5883731 2.19959003 5.274708066e-21)
(100.5358674 1.753770974 -1.672983592e-20)
(100.4629534 1.589798455 -1.12942125e-20)
(100.5919026 1.772177531 -1.13094432e-20)
(100.5154327 1.615720066 6.074257443e-21)
(100.3725736 1.073242146 -5.075261299e-20)
(100.4964819 1.308935217 -2.647970196e-20)
(100.580681 1.298888071 -7.693840229e-20)
(100.4338519 1.087428062 -3.600097917e-20)
(100.2760738 0.7300179692 -5.862224094e-20)
(100.3736155 0.8963078419 2.316416727e-20)
(100.4292499 0.8749633519 -2.782066408e-20)
(100.3170101 0.7332307742 -2.433951643e-20)
(100.2402004 0.4072321099 9.983511395e-21)
(100.4120426 0.5580800928 -2.516617405e-20)
(100.3832282 0.6737663088 -1.709154655e-22)
(100.2862621 0.6043264233 -1.444537273e-20)
(100.1771461 0.238012625 1.491698352e-20)
(100.2983887 0.3412040969 2.659010693e-20)
(100.143015 0.1094474521 -1.903562341e-21)
(100.2277163 0.1827004358 -3.848088049e-21)
(100.1955365 0.05740847778 0)
(99.52295633 5.555492243 1.128796026e-19)
(99.32704433 5.783062994 6.519071896e-20)
(99.44894022 6.192484451 1.131727317e-19)
(99.55824736 5.911059573 1.689795266e-19)
(100.3265776 5.660545403 1.334129969e-21)
(100.2673069 5.987345249 9.936812765e-22)
(100.4461368 6.27969708 -5.530040096e-20)
(100.4850753 5.906956511 1.046326826e-20)
(100.9634672 5.07720463 1.850131755e-19)
(101.0060672 5.423833625 1.745415736e-19)
(101.2039963 5.56969995 3.731274077e-19)
(101.1280241 5.203729667 -2.48639679e-19)
(101.2386001 4.14553198 -5.274955797e-20)
(101.3433388 4.453502171 1.427382539e-19)
(101.503641 4.496153533 -3.439335305e-19)
(101.3714038 4.188980095 -4.725786317e-20)
(101.2357638 3.151217196 -4.778438793e-22)
(101.3600913 3.399100868 -4.293205237e-20)
(101.4730648 3.379758984 -6.605674142e-22)
(101.3313503 3.144560523 1.578824483e-19)
(101.2015652 2.457035259 0)
(101.0813226 2.2749354 4.501933487e-20)
(101.2762934 2.421568977 0)
(101.1459181 2.249732824 0)
(100.8330614 1.493804529 2.828620984e-20)
(101.0404637 1.749257517 1.824235688e-20)
(101.1267096 1.64907862 -1.643697188e-20)
(100.902223 1.436153117 3.551121215e-20)
(100.6139211 0.9944648328 -3.253777564e-20)
(100.7739465 1.16980242 -1.453155158e-20)
(100.8256923 1.084202097 -1.468012496e-20)
(100.6579023 0.9440946772 -7.05474234e-21)
(100.4564283 0.4884466902 -8.937421913e-21)
(100.6831732 0.6149655826 -1.907024649e-20)
(100.7057431 0.7929880118 -2.513741983e-21)
(100.5787476 0.7604225332 5.002054226e-21)
(100.3369928 0.2829622843 7.663593843e-21)
(100.4921259 0.3709922418 1.166673008e-20)
(100.270264 0.1290380734 -1.944181711e-21)
(100.372888 0.1956168747 -3.437829739e-21)
(100.3172302 0.06084989156 -4.95542806e-22)
(99.16436794 8.458240676 -3.567775926e-20)
(98.79206029 8.739261224 6.891206221e-20)
(99.00332356 9.376883633 1.919115485e-20)
(99.31615394 8.990362092 6.822671703e-20)
(101.0351915 8.427087089 -1.053376651e-19)
(100.9289751 8.923876907 -1.423313817e-19)
(101.3367228 9.26736055 -5.504496852e-20)
(101.3864854 8.688715444 -1.418295722e-19)
(102.2360408 7.126739823 3.086874346e-19)
(102.3493385 7.602896214 3.096961243e-19)
(102.7118154 7.660665669 -3.467761411e-20)
(102.5332096 7.175491935 -4.749437959e-21)
(102.5562774 5.478178863 -3.420871575e-19)
(102.7628219 5.848857763 2.367895118e-20)
(103.0126485 5.773951799 0)
(102.7574349 5.421434124 0)
(102.356086 3.986713821 2.158942933e-19)
(102.571202 4.254471113 -1.097966944e-19)
(102.7075199 4.146276616 1.101600583e-19)
(102.4722219 3.900794687 1.111936585e-19)
(102.1332955 2.951449595 -1.433956051e-20)
(101.9500111 2.762979003 -3.744649049e-21)
(102.2077953 2.842153717 1.794311062e-20)
(102.01516 2.676564624 2.197000992e-20)
(101.4561154 1.756036309 -9.214615544e-20)
(101.7553855 2.003767425 -5.840761761e-20)
(101.8147662 1.80467057 -3.279170545e-20)
(101.510226 1.621749312 -1.684181979e-20)
(101.0591404 1.13850927 1.134406245e-20)
(101.285926 1.301027546 3.417060735e-20)
(101.3093911 1.15304533 -3.846849458e-21)
(101.0884762 1.034458427 -3.747467126e-21)
(100.7057397 0.4972873815 1.989116907e-21)
(100.9790589 0.5683191643 0)
(101.0797214 0.8085862377 -1.142555206e-22)
(100.9387284 0.8141417817 -1.023561382e-20)
(100.5163787 0.2811365446 4.400055547e-22)
(100.6959652 0.3361419012 1.98893758e-21)
(100.4096784 0.1261473531 -1.995176372e-21)
(100.5190784 0.1715537243 -1.997531356e-21)
(100.4362117 0.05247227612 -2.011122908e-21)
(98.27919413 12.97314011 1.458108109e-22)
(97.47841784 13.40672092 -8.029155999e-20)
(97.86108474 14.60070869 -8.027774743e-20)
(98.79184674 13.89542602 -8.031009005e-20)
(102.7959401 12.31610893 3.323084241e-19)
(102.6303204 13.23360984 1.170276859e-19)
(103.5587438 13.56215003 -5.630800125e-20)
(103.5444175 12.50629384 3.153656872e-19)
(104.7148069 9.234998648 -2.887602798e-19)
(105.0194823 9.916696677 -4.756276452e-19)
(105.6238563 9.72389051 -6.785782308e-19)
(105.1886046 9.073890667 -4.23489404e-19)
(104.6851301 6.475129945 -2.312141966e-19)
(105.0746681 6.880438625 6.285222997e-21)
(105.3511993 6.616750916 -2.955900254e-20)
(104.9134709 6.260983681 5.61221355e-19)
(103.9331307 4.439103053 2.054220817e-21)
(104.2753299 4.690070906 -5.607620591e-21)
(104.3939274 4.457504173 -2.323888702e-20)
(104.0387479 4.247302536 2.800511218e-19)
(103.3313925 3.113128426 1.327411891e-19)
(103.06222 2.946737659 -6.474537326e-22)
(103.3738381 2.92612668 -1.553076732e-21)
(103.1064761 2.787568654 -8.295084092e-20)
(102.1914875 1.784958625 2.674977102e-20)
(102.5785306 1.979867231 -2.529369195e-22)
(102.5718823 1.688860073 1.637005473e-20)
(102.1984525 1.574475981 1.218244418e-20)
(101.5637127 1.121336641 -1.604499399e-20)
(101.8546576 1.240934041 -8.194468008e-21)
(101.8204657 1.038526114 -8.19605557e-21)
(101.5532222 0.9679454546 1.253737997e-20)
(100.9544352 0.4132766158 0)
(101.2609696 0.4100683515 1.331741101e-21)
(101.4485462 0.6752593265 -1.105383966e-20)
(101.3165007 0.7491283148 2.737175608e-20)
(100.6859216 0.2245975898 -5.041916076e-22)
(100.8738687 0.2283679251 -1.573699703e-21)
(100.5355144 0.09764715707 -2.023004258e-21)
(100.6387908 0.1073740394 -2.295629352e-21)
(100.5283048 0.03153493 2.577081158e-21)
(93.17390966 22.2670604 1.981054153e-19)
(94.47812426 21.95891231 9.566855593e-20)
(93.55783714 23.99031704 1.36046346e-19)
(95.17414747 23.28763908 -1.272838533e-20)
(107.5545024 19.68550997 -3.127924722e-19)
(107.6995546 18.03433345 1.118297531e-19)
(109.2784886 17.6402723 1.165020271e-18)
(108.3697102 20.49316643 9.795469916e-19)
(110.3126068 19.26351601 3.568215817e-19)
(109.9415498 20.01889247 5.822993097e-19)
(109.9375842 11.61397508 1.966159342e-19)
(109.1332462 10.76002814 1.402033118e-20)
(110.5892115 10.83373905 -6.569049532e-19)
(109.6437182 10.16202276 1.322550957e-20)
(107.6559091 6.611125718 -1.261079252e-19)
(108.3172206 6.960469857 1.938363449e-19)
(108.5051218 6.416354336 2.55701296e-19)
(107.8229729 6.174029022 3.385123716e-19)
(105.8828473 4.199924596 5.091605634e-19)
(106.3681571 4.362010143 1.850030353e-19)
(106.3880815 3.994572968 1.807876263e-19)
(105.9118986 3.891845826 1.821994267e-19)
(104.6656735 2.746707466 5.641253435e-19)
(104.3137892 2.658164259 1.532346957e-19)
(104.6275948 2.494545543 7.913200052e-20)
(104.2913591 2.429963839 -1.283642804e-22)
(102.9426302 1.509707731 4.326051815e-21)
(103.4162491 1.598810449 0)
(103.2861239 1.244224696 -2.53653927e-21)
(102.8677227 1.234001622 -4.543007534e-21)
(102.0623479 0.8994825338 4.521129657e-21)
(102.3979548 0.9453673621 -1.851134577e-23)
(102.2871168 0.7081224647 -7.313366432e-21)
(101.989893 0.7069196713 9.165973681e-21)
(101.1595942 0.2318515 -1.776167272e-22)
(101.4607527 0.1423449108 -2.983596522e-22)
(101.7686191 0.389796788 8.232229016e-22)
(101.6582272 0.4978354458 6.660963253e-21)
(100.8134909 0.1110528125 -3.373751395e-21)
(100.9876981 0.04964831582 -2.41539461e-22)
(100.6214406 0.04219752955 2.510236531e-21)
(100.7036826 0.005381004916 -2.279108664e-21)
(100.5680933 -0.0012950056 4.301029485e-22)
(123.8252786 23.20231964 -2.405792719e-18)
(122.0468884 22.13114946 -1.137814743e-19)
(124.5109475 21.29428855 1.677542104e-18)
(122.7730087 20.62657625 -8.246761108e-19)
(117.1133449 9.947218427 -3.569568127e-21)
(115.5212178 9.507897917 9.677758313e-19)
(117.0965613 8.437869265 -1.212763835e-18)
(115.602992 8.340905246 6.898837401e-19)
(111.0204791 5.112367437 1.161470026e-19)
(111.9346095 5.184082008 -7.876927465e-19)
(111.7825159 4.42892617 -1.154345932e-19)
(110.9332951 4.487574711 2.52160426e-19)
(107.8219422 3.00403956 -8.406622877e-19)
(108.4119929 2.990481525 -4.516242819e-19)
(108.2435244 2.548414245 -2.080622734e-20)
(107.7029924 2.623484203 1.8624807e-22)
(105.8828658 1.753490093 3.287954353e-19)
(105.4797824 1.77748604 4.280140094e-20)
(105.7307111 1.467068356 0)
(105.3618327 1.514194518 -1.679293179e-19)
(103.5814174 0.8976725966 -4.953420726e-21)
(104.1036838 0.8464812781 -2.415984675e-21)
(103.8125969 0.4808329395 7.948742578e-21)
(103.393904 0.6008103678 1.184554344e-21)
(102.466252 0.4674517366 -1.97386493e-21)
(102.811093 0.415968433 1.38471575e-20)
(102.6033878 0.1839872129 5.088970257e-21)
(102.3194247 0.2703580661 1.01085714e-20)
(101.2746771 -0.0353879633 -3.427851036e-22)
(101.5416782 -0.2152957192 -1.06834914e-21)
(101.9598248 -0.03047118446 -1.086451305e-21)
(101.9047719 0.1317268475 -1.256939936e-21)
(100.8667692 -0.05401708162 1.081893909e-21)
(101.0051635 -0.1849761293 1.332526607e-21)
(100.641494 -0.03666058595 -4.3141483e-21)
(100.6872579 -0.1262666243 1.660804129e-21)
(100.5334953 -0.04371667887 -2.136169309e-21)
(137.258949 7.047269591 3.26787998e-18)
(135.5665592 7.94075147 2.373671136e-18)
(136.0241293 5.661768751 2.332150761e-18)
(134.6140343 6.577369488 1.257131398e-18)
(122.1810955 3.016539177 -7.767311415e-21)
(120.5279562 3.639552954 6.417392376e-20)
(121.0780524 1.733533714 4.711272147e-20)
(119.7663078 2.472103748 2.18538777e-18)
(113.4726336 1.728663291 -2.761450562e-19)
(114.3805116 1.357000649 -7.650385542e-20)
(113.779523 0.6848126037 0)
(113.0151064 1.112780711 8.151200631e-19)
(109.171553 0.8577420681 2.382501816e-19)
(109.7406308 0.6099513966 4.878728412e-19)
(109.345943 0.2191131751 0)
(108.8555545 0.4925366959 0)
(106.6416314 0.2157945872 0)
(106.2543077 0.374562014 0)
(106.3585337 -0.03349738591 4.868650971e-20)
(106.0205163 0.1324496418 3.550666519e-19)
(103.9642249 0.008159749427 7.901192937e-21)
(104.4671207 -0.2016779591 -2.47944666e-21)
(104.0202908 -0.5041076811 -2.486627044e-21)
(103.6523261 -0.2600907399 -1.251349883e-21)
(102.6793019 -0.134931528 5.628991717e-22)
(102.9964248 -0.2919830101 7.052739279e-21)
(102.695324 -0.4790561211 5.783046498e-21)
(102.4532774 -0.3091344264 1.273164542e-21)
(101.2639344 -0.3597444352 5.62564648e-22)
(101.4668413 -0.6241060188 9.92952112e-24)
(101.9668474 -0.5368393449 3.751844443e-22)
(101.9833832 -0.3410583091 -5.7325232e-21)
(100.8194906 -0.2531490124 2.050116883e-21)
(100.9044953 -0.4519433826 -2.277749504e-21)
(100.5741768 -0.1313151784 4.074495067e-21)
(100.5722545 -0.2750469173 2.303561283e-21)
(100.4095958 -0.09182101663 2.024404291e-21)
(134.29996 -9.456526259 -2.272777411e-18)
(133.7492618 -8.178042887 1.124874899e-18)
(132.8838101 -9.725917612 -2.191624991e-18)
(132.4297448 -8.529721047 -1.101846948e-18)
(121.8561227 -5.182763701 -1.579048377e-18)
(120.9054818 -3.944718819 -1.392333371e-20)
(120.3283482 -5.649269129 -7.563782026e-19)
(119.6384662 -4.541010202 -1.425750568e-18)
(113.8539127 -2.540518753 -6.067071981e-19)
(114.4689192 -3.229042335 3.836475003e-20)
(113.6086698 -3.569002722 0)
(113.1168728 -2.915099723 0)
(109.4268931 -1.759200657 -2.843944063e-19)
(109.8216886 -2.18363277 4.788077739e-19)
(109.2985532 -2.407132966 1.30477052e-20)
(108.9270747 -1.996521972 2.038926228e-20)
(106.6868622 -1.568031524 -4.548078483e-19)
(106.3812843 -1.303494111 4.744058509e-20)
(106.3114448 -1.723002981 9.263946885e-20)
(106.0527548 -1.471116001 -9.692145571e-20)
(103.9776807 -1.034238995 2.11358234e-20)
(104.3934104 -1.376600941 -6.549776761e-20)
(103.8341903 -1.559509931 6.002637284e-20)
(103.5613243 -1.221899778 1.541235212e-21)
(102.6381153 -0.8355062527 0)
(102.8932522 -1.081619056 -2.040193548e-20)
(102.5199496 -1.190939727 0)
(102.3460465 -0.9557032454 0)
(101.1063812 -0.7094075754 -2.828968923e-21)
(101.223036 -1.037112274 -7.445782897e-21)
(101.7681691 -1.070893594 2.274456018e-21)
(101.8604855 -0.8650902587 -3.68016839e-22)
(100.6564546 -0.4673097109 -2.045262805e-21)
(100.6761239 -0.7222397703 -1.622231983e-21)
(100.4068819 -0.2329775273 2.539341367e-22)
(100.3512039 -0.4260005421 -1.387566228e-21)
(100.1898168 -0.1408288684 2.404037055e-22)
(125.2643584 -18.32592463 8.034391772e-19)
(125.364202 -17.31674544 -1.735442155e-18)
(124.20662 -18.0029131 -1.593435762e-18)
(124.2983395 -17.09135391 -8.334373134e-19)
(117.7885621 -11.05828888 6.44433707e-19)
(117.5549765 -9.818325363 4.808223777e-20)
(116.3994201 -10.86021989 5.71167643e-19)
(116.2794337 -9.808627431 -5.886177807e-19)
(112.237419 -6.257532276 -6.681831964e-19)
(112.4931756 -7.018880438 1.306307084e-19)
(111.6133955 -6.995255631 -9.089260937e-19)
(111.4357137 -6.319698796 -3.98992207e-19)
(108.5296067 -4.187961222 -6.269828209e-19)
(108.7533044 -4.683094747 -6.369169257e-19)
(108.1615251 -4.704530053 -4.163310913e-19)
(107.9922433 -4.25719162 -2.236629635e-19)
(106.0215246 -3.246183748 -3.607311635e-19)
(105.8312246 -2.920264808 -1.017166492e-21)
(105.5994261 -3.280278991 -4.518182315e-19)
(105.4472432 -2.984123891 -5.788257589e-19)
(103.5954076 -2.06056668 3.89418946e-20)
(103.8754994 -2.4851991 5.285026748e-20)
(103.270752 -2.52033057 -1.93354497e-20)
(103.1158689 -2.137628842 1.934065084e-20)
(102.3330805 -1.533918167 -1.376715806e-20)
(102.5015527 -1.839568982 5.948862054e-21)
(102.0903292 -1.854495928 -5.916124557e-22)
(101.9962931 -1.579936757 -1.428573483e-20)
(100.8000242 -1.043524841 -6.29813747e-21)
(100.8221509 -1.412795101 -1.197708889e-21)
(101.3725635 -1.564604642 -1.874334185e-21)
(101.5322987 -1.372689471 -5.429209721e-21)
(100.3758098 -0.6738462519 -1.165796206e-21)
(100.327511 -0.9676739763 5.180938024e-22)
(100.1376001 -0.3313771411 -1.407878287e-21)
(100.0282148 -0.5646565572 4.288829467e-22)
(99.87724452 -0.1860865054 2.404073939e-22)
(115.8694737 -21.39161891 1.274664813e-22)
(116.2462311 -20.70934568 -5.846290721e-19)
(115.1442212 -20.81778665 -5.50905592e-19)
(115.5195325 -20.21593604 -5.512183501e-19)
(112.4202099 -13.89624202 0)
(112.6494669 -12.94808464 0)
(111.3818825 -13.32020718 0)
(111.6251397 -12.53107332 2.307120315e-19)
(109.445609 -8.65510085 2.039387976e-19)
(109.4092803 -9.310671837 -1.167144368e-19)
(108.6686779 -9.026500569 -6.179660879e-19)
(108.7285118 -8.464680836 -8.314340956e-19)
(106.8332046 -5.960185564 -3.911406749e-19)
(106.878504 -6.419422193 -3.801513765e-19)
(106.3414285 -6.274504352 -5.702032585e-19)
(106.3215837 -5.870346984 -2.177535738e-19)
(104.8057451 -4.525736874 -3.551911909e-19)
(104.7309012 -4.202258281 -2.043494423e-20)
(104.3976588 -4.451683845 -3.08660121e-19)
(104.3441085 -4.161438855 -3.204749457e-19)
(102.8745485 -2.924646077 -1.82256592e-20)
(103.007738 -3.368226469 5.697405933e-21)
(102.3812312 -2.885117362 1.811814748e-20)
(101.7947035 -2.143142161 -3.513830555e-21)
(101.8679492 -2.470992336 4.46667869e-22)
(101.4427946 -2.109555196 -1.879008903e-20)
(100.3636277 -1.328232336 4.07801399e-21)
(101.0305768 -1.811866874 -8.217583079e-24)
(99.98921309 -0.8530644001 1.8911736e-21)
(99.77469635 -0.4174706648 1.890959127e-21)
(138.3597598 8.59084958 -1.171338484e-18)
(136.6795793 9.486288252 -2.066389195e-18)
(137.6355501 11.18403025 -8.855305655e-19)
(139.6973159 9.747027874 -2.932666929e-18)
(139.4709473 10.74581236 -4.551568262e-18)
(122.9151222 24.90379762 -1.50174984e-18)
(124.9300195 26.2825765 -3.702412423e-19)
(125.8601609 23.99015158 -6.535070308e-19)
(135.7334827 -9.057299634 1.193958519e-18)
(135.1796194 -7.782369413 4.593043232e-18)
(136.6711802 -7.256648688 1.757577251e-18)
(137.0581992 -9.128359048 3.034462935e-18)
(137.4040251 -8.430529535 1.177476123e-19)
(138.7814525 6.032024996 -3.311312129e-19)
(140.1749414 6.989474519 -9.551907667e-19)
(140.0560265 7.98156733 3.753488219e-18)
(126.363477 -18.61355856 1.959433671e-18)
(126.4668098 -17.58945777 -5.728182026e-19)
(127.6139611 -17.82181095 1.129476115e-18)
(127.302736 -19.07389457 -2.656716997e-19)
(127.7117163 -18.76711113 1.837873313e-18)
(134.7204722 -10.71301941 -3.692943746e-19)
(136.0075488 -10.85980415 -3.556419962e-18)
(136.3845682 -10.20922022 2.054898465e-18)
(116.6279912 -21.92565115 1.139204406e-18)
(117.0026566 -21.25612293 5.539317436e-19)
(117.8071982 -21.75961198 5.883905888e-19)
(117.4069623 -22.51349281 6.065171595e-19)
(126.1865021 -19.64826341 6.032764514e-19)
(125.1190038 -19.3042305 1.62301279e-18)
(116.204285 -22.6342876 6.28149589e-21)
(115.4609117 -22.02782128 5.506261988e-19)
(92.84471653 20.78507724 -1.765627925e-19)
(91.53045805 22.54470324 2.092301738e-19)
(121.0561109 23.81945563 7.710645146e-19)
(119.930071 25.26817957 6.383055393e-19)
(121.5909163 26.9326777 8.601682838e-19)
(106.2250666 20.00643084 -7.090795503e-19)
(106.3487507 20.88400755 -4.183013601e-19)
(107.3904179 20.89890094 1.571064135e-19)
(146.6903766 28.11491104 -1.124970226e-18)
(145.635699 28.51781419 -1.523943279e-18)
(146.0544957 29.32822022 -2.211536657e-18)
(147.1072497 29.18049943 -1.164062469e-18)
(126.7117655 41.1436833 4.612366068e-19)
(125.1046783 42.99721981 5.972040036e-20)
(127.1206265 45.01455639 -1.720748993e-18)
(128.848616 42.58117818 4.606981872e-19)
(134.0283282 8.730671883 1.116474113e-18)
(134.8384327 10.21642024 4.158824827e-20)
(123.0708956 4.397621732 -1.55367336e-18)
(121.4020372 5.073787138 -1.511659476e-18)
(122.0356916 6.556236914 7.973519422e-19)
(124.1315714 6.143831942 -7.728219728e-19)
(116.9306466 11.33665633 -1.296216676e-18)
(118.8091862 11.98365891 -4.283876281e-19)
(118.883247 10.12208807 5.752360701e-20)
(149.0038372 -3.91064042 3.160939638e-18)
(148.7743248 -3.370271657 3.115781638e-18)
(149.2636478 -3.152369026 2.098359447e-18)
(149.5230332 -3.677115993 2.101222788e-18)
(151.6218886 10.00993369 -2.308131919e-18)
(151.089649 9.510708671 -2.299743053e-18)
(152.1023234 9.48204395 -2.323881182e-18)
(151.5739522 9.008344532 -8.369227206e-19)
(133.1849578 -6.967453299 2.227888898e-18)
(134.5093655 -6.511612693 2.201128366e-18)
(123.3370999 -4.540638771 8.169539058e-19)
(122.3955544 -3.268564455 2.408023787e-18)
(123.7982563 -2.421489777 2.112912196e-21)
(125.0952234 -3.784820761 2.566644248e-18)
(125.0416635 3.656583725 -7.807967917e-19)
(123.7014284 2.119416105 5.635863855e-20)
(135.9745687 -20.57436467 8.329649379e-19)
(136.1986032 -20.16983016 1.102986961e-18)
(136.4514042 -20.29049891 8.345061696e-19)
(136.2915886 -20.66271292 8.353032386e-19)
(143.1580655 -14.06614602 1.029703528e-18)
(142.7460368 -14.12079965 1.01199752e-18)
(143.1512412 -14.58039296 1.005247993e-18)
(142.7362743 -14.5929688 3.147615972e-20)
(125.4072831 -16.36342947 -1.669589821e-18)
(126.5129864 -16.54272651 -1.741005764e-18)
(119.2365995 -11.13013069 -3.902806026e-20)
(119.0082856 -9.878815537 -6.470853399e-19)
(120.5025592 -9.798338779 -1.472798384e-18)
(120.8720071 -11.24953146 -6.8747778e-19)
(124.3810452 -5.992697097 -1.734280617e-18)
(122.5994569 -6.491827814 -8.238810903e-19)
(123.3606733 -26.26059686 -1.40594239e-18)
(123.6625196 -25.79109726 -1.616208115e-20)
(124.1044578 -26.07924914 7.111258389e-19)
(123.7583344 -26.56730901 -7.168913344e-19)
(129.457095 -24.22831341 8.508740343e-19)
(128.957748 -24.00291884 2.452757796e-20)
(128.6751146 -24.56064317 8.51476806e-19)
(128.9995178 -24.88834851 5.700559194e-19)
(129.260953 -24.74281209 -3.565071665e-19)
(106.5639813 -31.56321095 -6.873665851e-19)
(108.024064 -31.73923135 -6.703476588e-19)
(108.7547508 -31.69767088 -6.760908479e-19)
(107.9561863 -31.73225729 -5.340921549e-19)
(112.029447 -26.79668121 -2.20652792e-20)
(112.5034224 -26.50228901 -1.345279195e-20)
(112.7087026 -26.91009099 3.971831197e-19)
(112.3178183 -27.20900548 -9.402718508e-21)
(117.5901881 -27.09336517 -1.052970928e-18)
(117.2145499 -26.74076446 5.227288856e-19)
(117.2209072 -27.48040071 -1.028347267e-18)
(116.8832445 -27.11850672 5.02438126e-19)
(151.0938665 10.50786599 2.325245828e-18)
(151.628819 11.03112025 1.403982756e-20)
(152.1552847 10.51253624 -1.148780457e-18)
(146.5877692 26.96695142 1.144480988e-18)
(147.8297118 27.83787842 0)
(147.5128629 26.88546367 -2.275920474e-18)
(133.3414486 18.66463746 -3.020912567e-19)
(133.062992 16.61601181 7.989184916e-19)
(135.1472579 16.28913391 2.244161592e-18)
(136.1168375 18.06516484 1.983588554e-18)
(135.4589153 18.95368836 1.955879703e-18)
(144.8167218 27.00633347 1.674612333e-18)
(147.0214684 26.12627234 -1.879032551e-18)
(146.0954477 24.7527039 1.707161509e-18)
(144.3481861 25.1955646 2.984534574e-18)
(150.5585659 10.00487385 2.281080396e-18)
(149.9887899 10.48264377 2.268953483e-18)
(150.5381936 10.9920001 2.290481794e-18)
(143.156257 -13.5922977 1.016912713e-18)
(143.5707253 -13.52272385 1.063117945e-18)
(143.5762184 -14.03824927 6.474246393e-20)
(148.5064223 -4.113087579 1.059930814e-18)
(149.2413828 -4.433831949 -5.282054901e-20)
(148.7235868 -4.657450628 -1.545693091e-18)
(137.8687253 -1.113048037 2.187509752e-18)
(137.2089307 -1.673112215 6.9702573e-19)
(138.5192277 -1.765409014 1.088141002e-18)
(137.7904331 -2.181362945 1.700975863e-20)
(148.2845126 -3.586331169 1.043958362e-18)
(148.0136481 -4.315568243 1.040327806e-18)
(147.8173803 -3.810024493 -1.015787296e-18)
(142.7465243 -13.6390859 9.994040153e-19)
(142.7524315 -13.16583131 -9.737988305e-19)
(143.1494559 -13.10716847 9.672469691e-19)
(150.5739325 9.032620363 -1.153119783e-18)
(150.0204399 9.48473828 -1.576633085e-21)
(148.0665676 -3.081400093 1.008529548e-18)
(148.536521 -2.843663065 1.017739262e-18)
(137.4175742 -0.3436749743 2.253124271e-18)
(138.1247267 -0.03515965228 -1.995543381e-20)
(138.7098816 -0.620531543 -5.498194206e-20)
(129.7351029 -23.66048902 -8.520045643e-19)
(130.2431725 -23.87259117 2.287077256e-19)
(129.7862535 -24.55599112 -1.247667095e-20)
(130.0491323 -24.40134826 9.447456331e-19)
(135.6086243 -20.50603937 0)
(135.8375285 -20.94154627 1.689666784e-18)
(135.5581133 -20.85323578 -8.152538964e-19)
(131.3005285 -14.83599544 -1.80226806e-18)
(130.0156085 -14.8100762 -2.176619574e-18)
(130.0848495 -15.94395987 7.237796554e-19)
(131.1308595 -16.33008734 3.425330036e-18)
(131.5697879 -15.87803627 -1.386943569e-18)
(135.7282314 -19.85545277 2.068281566e-21)
(135.3122195 -20.73620348 -1.084007192e-18)
(134.8682022 -20.42360017 -2.549332113e-19)
(135.0501846 -19.72440634 9.701077177e-19)
(129.2383246 -23.43193112 -1.677148304e-18)
(129.4464835 -22.84964346 -8.515131704e-19)
(130.0131263 -23.08004579 -1.727957229e-18)
(142.3426786 -14.1564627 1.667784644e-20)
(142.3547634 -13.69140142 9.783813281e-19)
(136.4927422 -19.92492923 1.390187261e-21)
(135.9009021 -19.13959934 1.021371009e-18)
(136.6853767 -19.41421394 1.075688545e-20)
(136.5124196 -19.07749856 -1.105465227e-18)
(131.1590384 -13.66199338 -5.262807312e-19)
(132.4894798 -13.59943678 5.645965085e-19)
(132.405848 -15.17689803 -2.242518353e-18)
(132.8394016 -14.67507051 -3.600032304e-18)
(117.9150038 -26.70551971 -5.237195574e-19)
(118.2998104 -27.05029543 -5.426878834e-19)
(117.934598 -27.44751397 -3.961528872e-21)
(122.9263329 -25.96673999 -6.895536152e-19)
(123.0129218 -26.738258 -1.686549828e-19)
(122.6210044 -26.42353325 -6.888780938e-19)
(105.4058259 -31.45449037 -1.513543794e-21)
(106.7869278 -31.62170313 2.653913319e-20)
(103.499318 -31.13584709 -2.285147642e-19)
(104.7715515 -31.31662972 -7.107781605e-19)
(102.8704507 -30.85256721 -2.698889594e-18)
(111.6360265 -27.06786269 3.650209257e-19)
(108.6304594 -31.66444883 -3.259799019e-19)
(151.1902207 50.76674139 4.288001503e-17)
(150.0269625 52.67145218 1.811738558e-18)
(149.5803207 53.64767969 -5.348031302e-18)
(150.4426155 54.87750525 1.155551279e-19)
(125.2664959 63.13244334 -7.593376069e-19)
(122.7894261 64.91995519 -2.145095269e-18)
(124.9332869 68.23509905 -8.052438291e-19)
(127.6997022 65.51432814 -7.860436578e-19)
(122.1477087 -27.66342474 2.892341976e-18)
(123.598047 -27.73991026 2.625529507e-18)
(122.2242253 -27.536852 -3.58912273e-18)
(115.5541283 -26.22447506 1.953129987e-18)
(116.5926 -20.07601468 -3.441038543e-20)
(117.3516298 -20.53874583 -6.638936142e-19)
(113.5506558 -14.39955353 0)
(113.7857903 -13.45427771 0)
(115.0097384 -13.87426058 -6.051035104e-19)
(114.7829064 -15.02420096 5.31429727e-19)
(119.4245354 -12.52692277 8.37951695e-19)
(117.8760747 -12.25003949 1.252725607e-18)
(104.1969506 -30.29700173 -4.986999484e-20)
(106.4816301 -30.75950721 1.953820972e-18)
(104.0490444 -30.15498647 -7.255574587e-19)
(96.56949742 -28.14223284 9.858151178e-18)
(114.1507824 -30.09131062 -7.02064383e-19)
(114.6477692 -29.71058744 -6.219071074e-19)
(114.8816097 -30.12274949 -2.561431365e-19)
(114.2089315 -30.42905015 -6.039734074e-19)
(114.4437018 -30.49041767 4.371026807e-19)
(117.1562784 -29.94078102 4.586566777e-19)
(116.9802581 -29.75829414 3.813274724e-19)
(116.8981296 -30.10566898 4.569235913e-19)
(116.8195315 -29.95594149 8.742647389e-19)
(124.8942541 39.41830088 0)
(128.0988121 39.02398662 0)
(126.264543 37.81168226 0)
(145.075337 29.33731588 -1.469931423e-18)
(142.960303 27.31416648 -1.315879963e-18)
(143.2885695 29.22267496 -1.359076486e-18)