/*--------------------------------*- C++ -*----------------------------------*\
| =========                 |                                                 |
| \\      /  F ield         | OpenFOAM: The Open Source CFD Toolbox           |
|  \\    /   O peration     | Version:  v2012                                 |
|   \\  /    A nd           | Website:  www.openfoam.com                      |
|    \\/     M anipulation  |                                                 |
\*---------------------------------------------------------------------------*/
FoamFile
{
    version     2.0;
    format      ascii;
    class       pointVectorField;
    location    "0.21";
    object      pointDisplacement;
}
// * * * * * * * * * * * * * * * * * * * * * * * * * * * * * * * * * * * * * //

dimensions      [0 1 0 0 0 0 0];


internalField   nonuniform List<vector> 
6506
(
(0 0 0)
(0 0 0)
(0 0 0)
(0 0 0)
(0 0 0)
(0 0 0)
(0 0 0)
(0 0 0)
(0 0 0)
(0 0 0)
(0 0 0)
(0 0 0)
(0 0 0)
(0 0 0)
(0 0 0)
(0 0 0)
(0 0 0)
(0 0 0)
(0 0 0)
(0 0 0)
(0 0 0)
(0 0 0)
(0 0 0)
(0 0 0)
(0 0 0)
(0 0 0)
(0 0 0)
(0 0 0)
(0 0 0)
(0 0 0)
(0 0 0)
(0 0 0)
(0 0 0)
(0 0 0)
(0 0 0)
(0 0 0)
(0 0 0)
(0 0 0)
(0 0 0)
(0 0 0)
(0 0 0)
(0 0 0)
(0 0 0)
(0 0 0)
(0 0 0)
(0 0 0)
(0 0 0)
(0 0 0)
(0 0 0)
(0 0 0)
(0 0 0)
(0 0 0)
(0 0 0)
(0 0 0)
(0 0 0)
(0 0 0)
(0 0 0)
(0 0 0)
(0 0 0)
(0 0 0)
(0 0 0)
(0 0 0)
(0 0 0)
(0 0 0)
(0 0 0)
(0 0 0)
(0 0 0)
(0 0 0)
(0 0 0)
(0 0 0)
(0 0 0)
(0 0 0)
(0 0 0)
(0 0 0)
(0 0 0)
(0 0 0)
(0 0 0)
(0 0 0)
(-9.78595575e-07 1.094051154e-05 2.775557562e-17)
(0 0 0)
(0 0 0)
(0 0 0)
(0 0 0)
(0 0 0)
(0 0 0)
(0 0 0)
(0 0 0)
(0 0 0)
(0 0 0)
(0 0 0)
(0 0 0)
(0 0 0)
(0 0 0)
(0 0 0)
(0 0 0)
(0 0 0)
(0 0 0)
(0 0 0)
(0 0 0)
(0 0 0)
(0 0 0)
(0 0 0)
(0 0 0)
(0 0 0)
(0 0 0)
(0 0 0)
(0 0 0)
(-6.096352638e-05 0.0001582003813 4.996003611e-16)
(-0.0003507264291 0.000992437794 3.094746681e-15)
(-4.587993099e-06 1.335628431e-05 4.163336342e-17)
(-0.0006652057086 0.002656355815 8.021361353e-15)
(-0.001648374898 0.006418776082 1.995625887e-14)
(-0.001952254239 0.008695230111 2.702005286e-14)
(-0.0009131284091 0.004164921317 1.257327575e-14)
(-0.001103766148 0.008777006152 2.650657471e-14)
(-0.001921264885 0.01502280765 4.668487819e-14)
(-0.001590599311 0.01659846893 5.158373728e-14)
(-0.0009457526409 0.009988135985 3.015643291e-14)
(0 0 0)
(0 0 0)
(0 0 0)
(0 0 0)
(0 0 0)
(0 0 0)
(0 0 0)
(0 0 0)
(0 0 0)
(0 0 0)
(0 0 0)
(0 0 0)
(0 0 0)
(0 0 0)
(0 0 0)
(0 0 0)
(0 0 0)
(0 0 0)
(0 0 0)
(0 0 0)
(0 0 0)
(0 0 0)
(-0.0001702586428 0.0002930099189 1.026956298e-15)
(-0.0009296673147 0.001707299344 6.022959909e-15)
(-0.0002203032808 0.0004178001195 1.429412144e-15)
(-0.003134565102 0.007454225377 2.541022948e-14)
(-0.005005453876 0.01155419735 4.068967385e-14)
(-0.006370926906 0.01609428213 5.663525204e-14)
(-0.004301412479 0.01118504212 3.812228311e-14)
(-0.006625613447 0.02394781973 8.151812558e-14)
(-0.008730922614 0.03074961057 1.080940892e-13)
(-0.008731822635 0.03537554076 1.243449788e-13)
(-0.006775058099 0.02813255289 9.575673587e-14)
(-0.005158057086 0.03847943081 1.310340725e-13)
(-0.006348494178 0.04653527218 1.63702385e-13)
(-0.004901461027 0.04904419245 1.726119248e-13)
(-0.004034084323 0.04085486944 1.391942117e-13)
(0 0 0)
(0 0 0)
(0 0 0)
(0 0 0)
(0 0 0)
(0 0 0)
(0 0 0)
(0 0 0)
(0 0 0)
(0 0 0)
(0 0 0)
(0 0 0)
(0 0 0)
(0 0 0)
(0 0 0)
(0 0 0)
(0 0 0)
(0 0 0)
(0 0 0)
(-7.325584458e-05 9.148357413e-05 3.747002708e-16)
(0 0 0)
(-0.003114010077 0.004832383319 1.894318036e-14)
(-0.004625829736 0.006907136813 2.81163981e-14)
(-0.007228261154 0.01155816794 4.697631173e-14)
(-0.005311398334 0.008815168064 3.451405828e-14)
(-0.01205669574 0.02530685617 9.878209362e-14)
(-0.01461093575 0.02962776561 1.199595978e-13)
(-0.01627883412 0.03621150935 1.464939281e-13)
(-0.01371762097 0.03157266927 1.231237334e-13)
(-0.01537627909 0.04964627441 1.934147287e-13)
(-0.01748842324 0.05462188172 2.207678484e-13)
(-0.01658335011 0.05974695952 2.415567746e-13)
(-0.01472897975 0.05484334625 2.136901767e-13)
(-0.009727402627 0.06645707778 2.594452431e-13)
(-0.01069853212 0.0708218047 2.870204074e-13)
(-0.00797804462 0.07303066908 2.962907697e-13)
(-0.007299965235 0.06887086494 2.69131939e-13)
(0 0 0)
(0 0 0)
(0 0 0)
(0 0 0)
(0 0 0)
(0 0 0)
(0 0 0)
(0 0 0)
(0 0 0)
(0 0 0)
(0 0 0)
(0 0 0)
(0 0 0)
(0 0 0)
(0 0 0)
(0 0 0)
(0 0 0)
(-0.0003385667482 0.0003545990354 1.637578961e-15)
(-0.0007698938351 0.0007707908262 3.73312492e-15)
(-0.002733435777 0.002883846765 1.394717675e-14)
(-0.001837957064 0.002027658183 9.381384558e-15)
(-0.01077094395 0.0142111613 6.543376951e-14)
(-0.01273793164 0.01608942263 7.741030039e-14)
(-0.01639272223 0.02217101803 1.064565103e-13)
(-0.01421727278 0.02008145049 9.228728892e-14)
(-0.02228369483 0.03991943873 1.825067875e-13)
(-0.02460109212 0.04213837266 2.013667011e-13)
(-0.02584671656 0.04853527371 2.316896675e-13)
(-0.02363186509 0.04646831355 2.121358644e-13)
(-0.02303303809 0.06380283839 2.908090435e-13)
(-0.02446980954 0.06457300987 3.076150445e-13)
(-0.02245189095 0.06831961728 3.256145353e-13)
(-0.02120435634 0.06769584645 3.087391454e-13)
(-0.01288861295 0.07535736608 3.449185382e-13)
(-0.01336882698 0.07408348256 3.544525784e-13)
(-0.009800813532 0.07466258338 3.578387586e-13)
(-0.009491940873 0.07645304134 3.504974089e-13)
(0 0 0)
(0 0 0)
(0 0 0)
(0 0 0)
(0 0 0)
(0 0 0)
(0 0 0)
(0 0 0)
(0 0 0)
(0 0 0)
(0 0 0)
(0 0 0)
(0 0 0)
(0 0 0)
(-3.222705015e-05 2.251887013e-05 1.387778781e-16)
(-8.793899222e-07 6.518354123e-07 0)
(0 0 0)
(-0.002416564986 0.002084729301 1.171285291e-14)
(-0.00304996396 0.002490567556 1.477984402e-14)
(-0.006324535856 0.005448869666 3.227973444e-14)
(-0.005396129353 0.004910004633 2.75474088e-14)
(-0.01747327913 0.0190725104 1.061650767e-13)
(-0.01901997925 0.01966685165 1.155187057e-13)
(-0.02307074011 0.02554911047 1.496580637e-13)
(-0.02185368977 0.02556070584 1.41858747e-13)
(-0.03002175602 0.04441201122 2.451788772e-13)
(-0.03127961355 0.04378940411 2.550321065e-13)
(-0.0320276005 0.04904486961 2.854522174e-13)
(-0.03088440597 0.04999898055 2.758349105e-13)
(-0.02758873183 0.06184692828 3.416017469e-13)
(-0.0282151432 0.05963204089 3.477496069e-13)
(-0.02529047863 0.06108564112 3.56770169e-13)
(-0.02487968673 0.06389798607 3.532590886e-13)
(-0.01418190067 0.06485571205 0)
(-0.01447014159 0.06130676622 0)
(-0.01262231617 0.06126467523 0)
(-0.01067203363 0.06129891855 0)
(-0.01051299978 0.06305506711 0)
(-0.01042742924 0.0647714172 0)
(0 0 0)
(0 0 0)
(0 0 0)
(0 0 0)
(0 0 0)
(0 0 0)
(0 0 0)
(0 0 0)
(0 0 0)
(0 0 0)
(0 0 0)
(0 0 0)
(0 0 0)
(0 0 0)
(-0.0002903801467 0.0001536491951 1.276756478e-15)
(-0.0001654798731 9.457405316e-05 7.21644966e-16)
(-0.0001353769691 8.309357732e-05 5.967448757e-16)
(-0.004382397568 0.002966975476 2.123301535e-14)
(-0.0045451792 0.002865690919 2.202404925e-14)
(-0.00841308588 0.00560077944 4.289624211e-14)
(-0.008190144527 0.005853833085 4.17721413e-14)
(-0.02198825761 0.01888158693 1.332545185e-13)
(-0.02234747246 0.01787963125 1.353084311e-13)
(-0.02658550311 0.02277657329 1.717376241e-13)
(-0.0261982762 0.02408952295 1.694477891e-13)
(-0.03387860143 0.03925779818 2.744193761e-13)
(-0.03426406072 0.03696791113 2.769312557e-13)
(-0.03467172205 0.0408264647 3.057137876e-13)
(-0.03431332608 0.04341990996 3.033684415e-13)
(-0.02929366226 0.05076605855 3.558958683e-13)
(-0.02950309011 0.04745133897 3.56770169e-13)
(-0.026096766 0.04771527539 0)
(-0.02595277201 0.05118964764 3.597400156e-13)
(-0.01501418221 0.05079355852 0)
(-0.01509490961 0.0490322355 0)
(-0.01327278495 0.04896989989 0)
(-0.01319232842 0.05072845417 0)
(0 0 0)
(0 0 0)
(0 0 0)
(0 0 0)
(0 0 0)
(0 0 0)
(0 0 0)
(0 0 0)
(0 0 0)
(0 0 0)
(0 0 0)
(0 0 0)
(0 0 0)
(0 0 0)
(-0.0004766822207 0.0001716574493 2.109423747e-15)
(-0.0004305373878 0.0001732134516 1.887379142e-15)
(-0.0003777022481 0.0001679117958 1.665334537e-15)
(-0.005401284185 0.002652586279 2.615963002e-14)
(-0.005585500425 0.002484014198 2.704780844e-14)
(-0.009739882667 0.004579533195 4.961309141e-14)
(-0.009508655276 0.004935061607 4.844735724e-14)
(-0.02377087743 0.01485487609 1.435934704e-13)
(-0.02406846753 0.0136398287 1.45258805e-13)
(-0.02829351858 0.01717308877 1.819655537e-13)
(-0.02799549606 0.0187347583 1.802585858e-13)
(-0.03538756925 0.02975885094 2.840644386e-13)
(-0.03564333404 0.02717412151 2.854660952e-13)
(-0.03588185156 0.02979570932 3.129024817e-13)
(-0.03564972817 0.03266838707 3.117506253e-13)
(-0.03001997501 0.03731147567 3.581579477e-13)
(-0.0301704876 0.03390054726 3.583799923e-13)
(-0.02664073081 0.03388996233 0)
(-0.0265072413 0.03733777503 0)
(-0.01558746542 0.03690359859 0)
(-0.01565529692 0.03517853521 0)
(-0.01383812086 0.03510653743 0)
(-0.01377004964 0.03683159121 0)
(0 0 0)
(0 0 0)
(0 0 0)
(0 0 0)
(0 0 0)
(0 0 0)
(0 0 0)
(0 0 0)
(0 0 0)
(0 0 0)
(0 0 0)
(0 0 0)
(0 0 0)
(0 0 0)
(-0.000703193674 0.0001346249496 3.094746681e-15)
(-0.0006339694243 0.000148098322 2.789435349e-15)
(-0.0005723369205 0.0001578287167 2.525757381e-15)
(-0.006044578737 0.001848380529 2.926825449e-14)
(-0.006230552747 0.001617060046 3.015643291e-14)
(-0.01054257762 0.002902579483 5.365152767e-14)
(-0.01031272856 0.003341025012 5.249967128e-14)
(-0.02480978637 0.009745309395 1.493388746e-13)
(-0.02510115348 0.008410971913 1.509625758e-13)
(-0.02933385367 0.01055046019 1.87766469e-13)
(-0.02904222565 0.01223364555 1.861288901e-13)
(-0.03631432771 0.0192160401 2.888245199e-13)
(-0.03656460153 0.01653396853 2.901290319e-13)
(-0.03672995911 0.01805787253 3.167605067e-13)
(-0.03650308391 0.02101054167 3.156919171e-13)
(-0.03060343804 0.02364870467 3.588518371e-13)
(-0.03074772508 0.02022786669 3.590044928e-13)
(-0.02716825431 0.02012750645 0)
(-0.02703696717 0.02356628339 0)
(-0.01612429015 0.02313271116 0)
(-0.01619081427 0.02141431834 0)
(-0.01437609932 0.02134281921 0)
(-0.01434267425 0.02220208913 0)
(-0.01430927796 0.0230606399 0)
(0 0 0)
(0 0 0)
(0 0 0)
(0 0 0)
(0 0 0)
(0 0 0)
(0 0 0)
(0 0 0)
(0 0 0)
(0 0 0)
(0 0 0)
(0 0 0)
(0 0 0)
(0 0 0)
(-0.00100709086 2.297341837e-05 4.440892099e-15)
(-0.0009247626682 6.007428226e-05 4.080069615e-15)
(-0.0008451386086 9.053134776e-05 3.719247132e-15)
(-0.006812433257 0.0008228496952 3.295974604e-14)
(-0.007017575394 0.0005232779789 3.394506898e-14)
(-0.01150549849 0.0009306907179 5.848099782e-14)
(-0.01125602885 0.001457138603 5.723199692e-14)
(-0.02599578427 0.004223683432 1.558891904e-13)
(-0.02630510374 0.002766297682 1.575961583e-13)
(-0.03053533656 0.003504647883 1.944694406e-13)
(-0.03022732162 0.005312888693 1.927624727e-13)
(-0.03732560244 0.008334379616 2.940564459e-13)
(-0.03758497708 0.005551578954 2.953748357e-13)
(-0.03764932063 0.006035453771 3.210487431e-13)
(-0.03741669984 0.009071654223 3.199801535e-13)
(-0.0311730128 0.009939051223 3.593930709e-13)
(-0.0313120078 0.006503814691 3.594902154e-13)
(-0.02769004695 0.006364261007 0)
(-0.02756019809 0.009805096351 0)
(-0.01665421401 0.00937227216 0)
(-0.0167197633 0.007652239647 0)
(-0.01490816789 0.007580785318 0)
(-0.01487519348 0.00844079358 0)
(-0.01484214555 0.009300638833 0)
(0 0 0)
(0 0 0)
(0 0 0)
(0 0 0)
(0 0 0)
(0 0 0)
(0 0 0)
(0 0 0)
(0 0 0)
(0 0 0)
(0 0 0)
(0 0 0)
(0 0 0)
(0 0 0)
(-0.001272946586 -0.0001855771534 5.606626274e-15)
(-0.001316423622 -0.0001363643729 5.800915304e-15)
(-0.001201669477 -7.385185611e-05 5.301314943e-15)
(-0.007688609284 -0.0004914674708 3.716471575e-14)
(-0.007951112419 -0.000874851924 3.842759444e-14)
(-0.01262799469 -0.001425850106 6.410150188e-14)
(-0.01231441904 -0.0007946491291 6.253331186e-14)
(-0.02729334693 -0.001801141291 1.6298074e-13)
(-0.02766890924 -0.003396939138 1.650346526e-13)
(-0.03188506969 -0.004062802112 2.019356904e-13)
(-0.03151531184 -0.002116046414 1.998817778e-13)
(-0.03839537596 -0.002946940414 2.99538172e-13)
(-0.03869101405 -0.005835375105 3.010924843e-13)
(-0.03862742709 -0.006315422505 3.256422909e-13)
(-0.03836927569 -0.003194164629 3.244071678e-13)
(-0.03172015553 -0.003809522704 3.5971226e-13)
(-0.03185339763 -0.007249936976 3.597400156e-13)
(-0.02820664242 -0.007395110673 0)
(-0.02807754469 -0.003955045612 0)
(-0.01717334729 -0.004386517759 0)
(-0.01723737197 -0.006106451214 0)
(-0.01542919653 -0.006177368515 0)
(-0.01539701159 -0.005317088558 0)
(-0.01536477232 -0.004457451048 0)
(-0.01370147018 0.03855934581 0)
(-0.01551912887 0.03863128288 0)
(-0.01427588167 0.02391919066 0)
(-0.01424244701 0.0247787003 0)
(-0.01605776284 0.02485118389 0)
(-0.01480910722 0.01016024437 0)
(-0.01477605291 0.01102024943 0)
(-0.0165885113 0.01109213847 0)
(-0.01533253945 -0.00359797335 0)
(-0.01530022028 -0.002738339038 0)
(-0.01710918198 -0.002667070136 0)
(-0.01310691812 0.05248879985 0)
(-0.01492922395 0.05255460819 0)
(-0.00109377945 0.06446642096 0)
(-0.001167397469 0.06275855639 0)
(-0.02690542752 0.02700537035 0)
(-0.03046054364 0.02706804797 3.587130593e-13)
(-0.01787429325 0.02492331591 0)
(-0.01794058404 0.02320475368 0)
(-0.01740560035 0.03697563475 0)
(-0.01747326564 0.03525072479 0)
(-0.0274299401 0.01324615543 0)
(-0.03103293597 0.01337212962 3.592820486e-13)
(-0.01840273082 0.01116401794 0)
(-0.01846819701 0.009444062137 0)
(-0.01800679174 0.02148626816 0)
(-0.01639017896 0.01625432952 0)
(-0.01457658909 0.01618271534 0)
(-0.01454311926 0.01704310395 0)
(-0.01450974212 0.01790317613 0)
(-0.01632380822 0.0179748894 0)
(-0.009138549083 0.01596806208 0)
(-0.009122971206 0.0163983427 0)
(-0.009108802876 0.0168285997 0)
(-0.01001473802 0.01686429235 0)
(-0.0100474887 0.01600387496 0)
(-0.008870208771 0.02284530517 0)
(-0.009776920601 0.02288118897 0)
(-0.009811023259 0.02202298661 0)
(-0.008904937888 0.02198744802 0)
(-0.008887360773 0.02241668823 0)
(-0.02794854605 -0.0005154567917 0)
(-0.03158311117 -0.0003703578415 3.596289933e-13)
(-0.01892125683 -0.002595596621 0)
(-0.01898518561 -0.004315133743 0)
(-0.01853342668 0.007724016833 0)
(-0.01691548747 0.002491224768 0)
(-0.01510518975 0.002419342163 0)
(-0.01507253176 0.003279443123 0)
(-0.01503978428 0.004139780603 0)
(-0.01685049433 0.004211359571 0)
(-0.009685515377 0.002205743976 0)
(-0.009666255425 0.00263563715 0)
(-0.01012200373 0.002653794836 0)
(-0.01013993245 0.002223768356 0)
(-0.009422439214 0.009087439537 0)
(-0.01032269783 0.00912258489 0)
(-0.01035662472 0.008262774811 0)
(-0.009457088458 0.008227578331 0)
(-0.009440438242 0.008657655973 0)
(-0.01904905368 -0.006035153499 0)
(-0.01742822502 -0.0112657402 0)
(-0.0165240574 -0.01130120205 0)
(-0.0164922624 -0.01044066638 0)
(-0.01739651312 -0.01040528125 0)
(-0.01016897848 -0.01155207233 0)
(-0.01016125378 -0.01112083718 0)
(-0.01063648639 -0.01110077931 0)
(-0.01064835823 -0.01153144834 0)
(-0.009928090714 -0.004671649781 0)
(-0.01039636351 -0.004652270594 0)
(-0.01041569856 -0.005081440455 0)
(-0.009950487768 -0.005100537041 0)
(-0.008041033048 0.04353784623 0)
(-0.008076506719 0.04267138318 0)
(-0.007167229885 0.04263619709 0)
(-0.007149478184 0.04306960009 0)
(-0.007132295434 0.04350198541 0)
(-0.00832053832 0.03661519835 0)
(-0.007407812756 0.03657859369 0)
(-0.007390932394 0.03700962254 0)
(-0.007376401254 0.0374419459 0)
(-0.00828687666 0.03747838048 0)
(-0.007717854224 0.05056426669 0)
(-0.007763946948 0.04967784068 0)
(-0.006848177908 0.04966029042 0)
(-0.006802140766 0.05054492749 0)
(-0.007095953289 0.04437155105 0)
(-0.008004749726 0.04440674193 0)
(-0.008852663633 0.02327374632 0)
(-0.008835642665 0.02370308882 0)
(-0.009742817944 0.02373939133 0)
(-0.008599819635 0.029724147 0)
(-0.009505249768 0.02976005954 0)
(-0.00953941318 0.02890033896 0)
(-0.008634219568 0.02886451592 0)
(-0.01585714839 0.03001240324 0)
(-0.01592415838 0.02829186894 0)
(-0.01410818731 0.02821975931 0)
(-0.01404094081 0.02994020411 0)
(-0.007731506239 0.02882911227 0)
(-0.00771445011 0.02925853339 0)
(-0.007696129861 0.02968814403 0)
(-0.008414532381 0.02282715037 0)
(-0.008396739534 0.0232555816 0)
(-0.008354954275 0.03575316688 0)
(-0.007442356554 0.03571696752 0)
(-0.007423657528 0.03614784355 0)
(-0.007678480818 0.03011818171 0)
(-0.007660130188 0.03054875154 0)
(-0.008564984997 0.03058464106 0)
(-0.009404689497 0.009516992976 0)
(-0.009386546644 0.009946370613 0)
(-0.01028831068 0.009981896345 0)
(-0.01008098732 0.0151427672 0)
(-0.009170941802 0.01510658993 0)
(-0.009153216036 0.01553734484 0)
(-0.01645649537 0.01453312719 0)
(-0.01464324112 0.01446112628 0)
(-0.0146099215 0.015321761 0)
(-0.008691040081 0.0155186098 0)
(-0.008677168992 0.01594943893 0)
(-0.008974913251 0.009070011056 0)
(-0.00895585627 0.009499432148 0)
(-0.008432336417 0.02239863955 0)
(-0.008665020687 0.01638001686 0)
(-0.009906612581 -0.004242725748 0)
(-0.01037743118 -0.00422316465 0)
(-0.01015769495 0.001793895293 0)
(-0.00970476414 0.001775930389 0)
(-0.01698018974 0.0007723588722 0)
(-0.01517026916 0.000701051599 0)
(-0.01513782535 0.001559800548 0)
(-0.009248852825 0.001757846214 0)
(-0.009226896843 0.002187311364 0)
(-0.009447865559 -0.00469214754 0)
(-0.009421970215 -0.004263640374 0)
(-0.008993583492 0.008640254352 0)
(-0.009204939259 0.002617016552 0)
(-0.01066509794 -0.0119617625 0)
(-0.01018684647 -0.01198218128 0)
(-0.01745992733 -0.01212595944 0)
(-0.01655575971 -0.01216142129 0)
(-0.009699947558 -0.01200350634 0)
(-0.009678517355 -0.01157378005 0)
(-0.009475227981 -0.005120515964 0)
(-0.009674978133 -0.0111421373 0)
(-0.02637253394 0.0407900209 0)
(-0.02986064136 0.04071042313 3.578387586e-13)
(-0.01733750991 0.03870316882 0)
(-0.01683617123 0.05085928375 0)
(-0.01691599986 0.04910042023 0)
(-0.01531228581 0.04381615119 0)
(-0.01349342785 0.04374618299 0)
(-0.01342176189 0.04548506689 0)
(-0.01524077454 0.04555516933 0)
(-0.00891315398 0.04444213322 0)
(-0.008949440496 0.04357335769 0)
(-0.00862875777 0.05059500235 0)
(-0.008675535748 0.04970605228 0)
(-0.01397348652 0.03166184111 0)
(-0.01579002013 0.03173389322 0)
(-0.009470974474 0.03062057598 0)
(-0.009229727243 0.03665118127 0)
(-0.009264143198 0.03578914981 0)
(-0.009195426334 0.03751433782 0)
(-0.008984835859 0.0427068515 0)
(-0.01538136901 0.04208780848 0)
(-0.0135630359 0.0420167248 0)
(-0.004562801425 0.03993190516 0)
(-0.004610378585 0.03950058407 0)
(-0.004207863795 0.0394849568 0)
(-0.004156284915 0.03991707817 0)
(-0.004044318668 0.05050263895 0)
(-0.004077083991 0.05004485568 0)
(-0.00361673036 0.05003838197 0)
(-0.003580587613 0.05050236479 0)
(-0.004232151573 0.04689742157 0)
(-0.00377508855 0.0468851178 0)
(-0.003753265319 0.04732706559 0)
(-0.004216983584 0.04733885935 0)
(-0.007170553969 0.05773693033 0)
(-0.007381213672 0.05590548666 0)
(-0.006449235386 0.05589379454 0)
(-0.005487560964 0.05590598877 0)
(-0.005381005486 0.05681373817 0)
(-0.005276994463 0.05770750339 0)
(-0.006747761396 0.05144163122 0)
(-0.007673413007 0.05144302268 0)
(-0.01011060731 -0.008107416251 0)
(-0.01055324302 -0.008090583634 0)
(-0.01057220732 -0.00852048864 0)
(-0.01013236193 -0.008537049527 0)
(-0.01369043147 -0.007968804093 0)
(-0.01372266754 -0.008828361697 0)
(-0.01282360113 -0.008863299273 0)
(-0.01279104863 -0.008003834366 0)
(-0.01381920315 -0.01140672128 0)
(-0.01292045636 -0.01144164606 0)
(-0.01288818512 -0.01058120949 0)
(-0.01378709492 -0.01054635822 0)
(-0.004372586819 0.04339563966 0)
(-0.004325729081 0.04294958287 0)
(-0.003762227133 0.04282111594 0)
(-0.003958620103 0.04338458827 0)
(-0.004102435151 0.0403461474 0)
(-0.00451268967 0.04036136408 0)
(-0.00818343687 0.04007327095 0)
(-0.007275978707 0.04003783749 0)
(-0.007257626434 0.04047104839 0)
(-0.007239525089 0.04090298878 0)
(-0.008147841439 0.04093877672 0)
(-0.004969527897 0.04037948535 0)
(-0.005011299052 0.03994905239 0)
(-0.004825509013 0.04341301997 0)
(-0.004808250391 0.04297190126 0)
(-0.004519530852 0.03645020759 0)
(-0.00448180497 0.0368561519 0)
(-0.004964541892 0.03690508228 0)
(-0.004963651125 0.03647254194 0)
(-0.005050677842 0.03951700305 0)
(-0.008218741455 0.03920703323 0)
(-0.007311952922 0.03917066616 0)
(-0.007294246295 0.03960374283 0)
(-0.007890669447 0.04703033104 0)
(-0.00698124587 0.04699721196 0)
(-0.006938848459 0.0478836946 0)
(-0.007848240723 0.04791619617 0)
(-0.004678682063 0.04735512624 0)
(-0.004694541728 0.04691320392 0)
(-0.004512696276 0.05049339891 0)
(-0.004537966312 0.05004951776 0)
(-0.004387486615 0.04383630382 0)
(-0.004829789616 0.04385185058 0)
(-0.004705406275 0.04647230623 0)
(-0.004236934934 0.04645648862 0)
(-0.007929986178 0.04615163249 0)
(-0.007020482386 0.04611791794 0)
(-0.003777152269 0.04644134685 0)
(-0.003968012772 0.04382447181 0)
(-0.008733216347 0.02628265329 0)
(-0.008276376524 0.02626437189 0)
(-0.008261142251 0.02669426609 0)
(-0.008716578922 0.0267124113 0)
(-0.005096416189 0.02958803274 0)
(-0.005497844255 0.02960361651 0)
(-0.005529750149 0.02917510977 0)
(-0.005129872264 0.02915958803 0)
(-0.00874938073 0.02585271627 0)
(-0.008292101423 0.02583441729 0)
(-0.008460206191 0.03316699262 0)
(-0.007551632553 0.03313063415 0)
(-0.007532922331 0.03356198993 0)
(-0.007515129436 0.03399322236 0)
(-0.008425061487 0.03402923502 0)
(-0.004822523635 0.03302022264 0)
(-0.004787538126 0.03345028687 0)
(-0.005201599358 0.03346677636 0)
(-0.005235431019 0.03303674599 0)
(-0.004989405857 0.0360427486 0)
(-0.004559539189 0.03602482628 0)
(-0.005063153484 0.03001664525 0)
(-0.005465917579 0.03003244256 0)
(-0.00526869534 0.0326070931 0)
(-0.004857215079 0.03259070689 0)
(-0.008495226222 0.0323058657 0)
(-0.007587863961 0.03226963574 0)
(-0.007569505347 0.03269980509 0)
(-0.009278061812 0.01252713325 0)
(-0.008820627486 0.0125089081 0)
(-0.008801198136 0.01293863442 0)
(-0.009259292486 0.01295696603 0)
(-0.009295706063 0.01209701535 0)
(-0.008839957757 0.01207885767 0)
(-0.009009579196 0.01940853243 0)
(-0.008558264083 0.01939079225 0)
(-0.008540273045 0.01982057613 0)
(-0.008992136313 0.01983841828 0)
(-0.009027105182 0.01897856987 0)
(-0.008576205582 0.01896084631 0)
(-0.009833071382 -0.0012299809 0)
(-0.009391322633 -0.001246778022 0)
(-0.009377176672 -0.0008162800305 0)
(-0.0098180065 -0.0007995196802 0)
(-0.009843843705 -0.001660773963 0)
(-0.009396666132 -0.001678108468 0)
(-0.009537013212 0.005645512733 0)
(-0.009062745857 0.005625733592 0)
(-0.009052296357 0.00605645954 0)
(-0.009522902412 0.006075932097 0)
(-0.009553163217 0.005215335039 0)
(-0.009078144743 0.005195525841 0)
(-0.0138513849 -0.01226692133 0)
(-0.01295295773 -0.01230183332 0)
(-0.009671525827 -0.008123866535 0)
(-0.009643920476 -0.007694627456 0)
(-0.0100880792 -0.007677653859 0)
(-0.009697998106 -0.008552990887 0)
(-0.003694900941 0.05415795192 0)
(-0.003808014365 0.05323852385 0)
(-0.002846556691 0.05324830171 0)
(-0.00270211064 0.05417351095 0)
(-0.003539834862 0.05096754852 0)
(-0.004005094016 0.05096763652 0)
(-0.009999293046 0.005664251928 0)
(-0.01001586655 0.005234091182 0)
(-0.0131652509 0.005789103557 0)
(-0.01319847782 0.004928785263 0)
(-0.01229519237 0.004893278682 0)
(-0.01226180883 0.005753510675 0)
(-0.01329774946 0.00234805411 0)
(-0.01239518316 0.002312576308 0)
(-0.01236188273 0.003172731592 0)
(-0.01326468875 0.003208218987 0)
(-0.01303230808 0.009229254851 0)
(-0.01306559572 0.008369419191 0)
(-0.01216167421 0.008333807124 0)
(-0.01212822676 0.009193636388 0)
(-0.0122285052 0.006613745866 0)
(-0.01313210709 0.006649345143 0)
(-0.009983278883 0.006094435058 0)
(-0.01355994656 -0.004528074236 0)
(-0.01359258536 -0.005387695758 0)
(-0.01269184731 -0.005422860296 0)
(-0.01265881218 -0.004563334669 0)
(-0.01275805823 -0.007143426572 0)
(-0.01365792051 -0.007108377114 0)
(-0.01053379289 -0.007660538002 0)
(-0.01018439169 0.01256276166 0)
(-0.01021906652 0.01170226121 0)
(-0.009314298006 0.01166661524 0)
(-0.01289862692 0.0126698568 0)
(-0.01293218305 0.01180931158 0)
(-0.01202754559 0.01177359083 0)
(-0.01199382964 0.01263412966 0)
(-0.01209471539 0.01005306292 0)
(-0.01299895332 0.01008876769 0)
(-0.007657282065 0.00901992442 0)
(-0.007626581159 0.009448319317 0)
(-0.0080668037 0.009465055365 0)
(-0.008092325087 0.009036293131 0)
(-0.007534486425 0.0107339045 0)
(-0.007989483612 0.01075203212 0)
(-0.008015275092 0.01032272046 0)
(-0.007565147385 0.01030510783 0)
(-0.00935046868 0.01080593454 0)
(-0.009368474104 0.01037599117 0)
(-0.008917366748 0.0103582593 0)
(-0.008898086022 0.01078807161 0)
(-0.01027944989 -0.001212678371 0)
(-0.0102935559 -0.001643177961 0)
(-0.01342922516 -0.001089434732 0)
(-0.01346164023 -0.001949465377 0)
(-0.01256035562 -0.001984971924 0)
(-0.01252761773 -0.001124874162 0)
(-0.01262586654 -0.003704045562 0)
(-0.01352732055 -0.003668772339 0)
(-0.01333070469 0.001488525285 0)
(-0.0124283781 0.001453057076 0)
(-0.01249455702 -0.0002647092848 0)
(-0.01339640736 -0.0002293401676 0)
(-0.01026351244 -0.0007824121373 0)
(-0.009762452845 0.0004895286203 0)
(-0.009314910902 0.0004720994999 0)
(-0.009292827091 0.0009003590219 0)
(-0.009743210498 0.0009179818837 0)
(-0.007981301676 0.0004208932644 0)
(-0.007944022914 0.0008476643528 0)
(-0.008392060276 0.0008651132985 0)
(-0.008424301756 0.000437820496 0)
(-0.00783647275 0.002130870298 0)
(-0.00829758915 0.002149482902 0)
(-0.008328950087 0.001720794282 0)
(-0.007872214142 0.001702517039 0)
(-0.008065384185 -0.004750671786 0)
(-0.008024265117 -0.004323334068 0)
(-0.008443243772 -0.00430632766 0)
(-0.008481489414 -0.004733860398 0)
(-0.007903594796 -0.003066664261 0)
(-0.008381009971 -0.003018347021 0)
(-0.00838102372 -0.003449490577 0)
(-0.007942429752 -0.003471123574 0)
(-0.009860324849 -0.002953226618 0)
(-0.009871111544 -0.003383378833 0)
(-0.009383007644 -0.003404592047 0)
(-0.009377221476 -0.002973999623 0)
(-0.009486681241 0.007367274677 0)
(-0.009036193956 0.007349647658 0)
(-0.009025746058 0.007780133568 0)
(-0.009473096227 0.007797555014 0)
(-0.007730094825 0.007300582741 0)
(-0.007732126669 0.007732208327 0)
(-0.008151955562 0.007747167871 0)
(-0.008150655657 0.007315651609 0)
(-0.008116786927 0.008607008293 0)
(-0.007687068849 0.008591172807 0)
(-0.007800728159 0.002559303463 0)
(-0.008266253781 0.002578332614 0)
(-0.007693376124 0.003844758294 0)
(-0.008172348353 0.003864965812 0)
(-0.008203579845 0.003436111944 0)
(-0.007729168658 0.003416327048 0)
(-0.009608557073 0.003925480002 0)
(-0.009627748306 0.003495504044 0)
(-0.009161072035 0.003476428848 0)
(-0.009139242301 0.003906139152 0)
(-0.01001928827 -0.006388815139 0)
(-0.009559594201 -0.006407370825 0)
(-0.009531368779 -0.005978236594 0)
(-0.009996271133 -0.005959232385 0)
(-0.008235217369 -0.006459888325 0)
(-0.00819275587 -0.006032204156 0)
(-0.008601359514 -0.006016333233 0)
(-0.00864149894 -0.006444190359 0)
(-0.008521136605 -0.005161016914 0)
(-0.008107784936 -0.005177237908 0)
(-0.008573485262 -0.00987157446 0)
(-0.008928163535 -0.009865944926 0)
(-0.00889239532 -0.0103009214 0)
(-0.008614761959 -0.01026465124 0)
(-0.01017369863 -0.009824425792 0)
(-0.01017120014 -0.01025599002 0)
(-0.009722216684 -0.01027339679 0)
(-0.009740250532 -0.009840250473 0)
(-0.004708797187 0.0382099697 0)
(-0.00434646231 0.03820347353 0)
(-0.004300345961 0.03862748994 0)
(-0.004690109342 0.03864116631 0)
(-0.004671669019 0.03777197754 0)
(-0.004388720307 0.03780747475 0)
(-0.004157229652 0.04868906976 0)
(-0.0037006186 0.04867547151 0)
(-0.003673308782 0.04913052543 0)
(-0.004131095754 0.04914293821 0)
(-0.002751248224 0.04911399595 0)
(-0.002792671937 0.04866544536 0)
(-0.002644630332 0.05051830506 0)
(-0.002689828033 0.05004204504 0)
(-0.002832211448 0.0482175797 0)
(-0.002499704096 0.04826071382 0)
(-0.004180772374 0.04823375304 0)
(-0.003721926466 0.04822240236 0)
(-0.004360177832 0.04164533188 0)
(-0.003935768758 0.04162762796 0)
(-0.003876418324 0.04205215523 0)
(-0.004316961983 0.04207506676 0)
(-0.004410481348 0.04121668098 0)
(-0.00399278439 0.04119964583 0)
(-0.004845317198 0.04166722681 0)
(-0.004884886133 0.04123702586 0)
(-0.006284407279 0.0417311377 0)
(-0.006304934597 0.04129817391 0)
(-0.005838410154 0.04127870462 0)
(-0.005814382951 0.04171112819 0)
(-0.00636866278 0.04000224966 0)
(-0.005915206181 0.03998442378 0)
(-0.005889604826 0.04041678435 0)
(-0.006347360373 0.04043518243 0)
(-0.006218622799 0.04346664742 0)
(-0.006233115282 0.04303329007 0)
(-0.00576630764 0.04301449774 0)
(-0.005756706662 0.04345001967 0)
(-0.005793486456 0.04214471748 0)
(-0.006265254335 0.04216495683 0)
(-0.004813746855 0.04209894835 0)
(-0.005114123129 0.03822274819 0)
(-0.005076127181 0.03778464127 0)
(-0.006436746872 0.03827207421 0)
(-0.006444254269 0.03783866943 0)
(-0.005981843388 0.03782000502 0)
(-0.005984754152 0.03825446698 0)
(-0.006467059309 0.0365395869 0)
(-0.005974718784 0.03651804408 0)
(-0.005968843096 0.03695007354 0)
(-0.006455954564 0.03697108697 0)
(-0.006389415451 0.03956825444 0)
(-0.005939684077 0.03955073771 0)
(-0.005977507269 0.0386867617 0)
(-0.006424819087 0.03870394151 0)
(-0.005110018155 0.03865532871 0)
(-0.004273406839 0.04513768034 0)
(-0.004752105135 0.04515873326 0)
(-0.004783824177 0.04472269583 0)
(-0.004318652051 0.04470423306 0)
(-0.006147615823 0.04521046378 0)
(-0.006166909465 0.04477292869 0)
(-0.005709772703 0.04475506759 0)
(-0.005688851529 0.04519267361 0)
(-0.005745174523 0.04388480005 0)
(-0.006202717548 0.0439015089 0)
(-0.003792489423 0.04511448174 0)
(-0.00375018989 0.0455471185 0)
(-0.004242529384 0.04557288708 0)
(-0.003857475882 0.04468551402 0)
(-0.005232685612 0.02787475191 0)
(-0.005617793651 0.02788856213 0)
(-0.005624596258 0.0274561696 0)
(-0.00526626951 0.027447913 0)
(-0.006874800025 0.02793422188 0)
(-0.006878588565 0.02750194884 0)
(-0.006441341733 0.02748525183 0)
(-0.006444655254 0.02791804919 0)
(-0.006853464179 0.02620559029 0)
(-0.006353626848 0.02618398757 0)
(-0.00637985109 0.02661706147 0)
(-0.006860811389 0.02663718848 0)
(-0.006803789955 0.02965331556 0)
(-0.006824512183 0.02922388108 0)
(-0.006389831936 0.02920744685 0)
(-0.006365867118 0.02963651147 0)
(-0.00643244781 0.02834910496 0)
(-0.006862036436 0.02836517536 0)
(-0.005197904676 0.02830410401 0)
(-0.00559210444 0.02831851816 0)
(-0.006911807532 0.02448502932 0)
(-0.006935612545 0.02405555812 0)
(-0.006440986695 0.02403432402 0)
(-0.006413029757 0.02446354903 0)
(-0.007009284096 0.02276955584 0)
(-0.006527323375 0.02274922873 0)