/*--------------------------------*- C++ -*----------------------------------*\
| =========                 |                                                 |
| \\      /  F ield         | OpenFOAM: The Open Source CFD Toolbox           |
|  \\    /   O peration     | Version:  v2012                                 |
|   \\  /    A nd           | Website:  www.openfoam.com                      |
|    \\/     M anipulation  |                                                 |
\*---------------------------------------------------------------------------*/
FoamFile
{
    version     2.0;
    format      ascii;
    class       surfaceScalarField;
    location    "1.36";
    object      phi;
}
// * * * * * * * * * * * * * * * * * * * * * * * * * * * * * * * * * * * * * //

dimensions      [0 3 -1 0 0 0 0];
oriented        oriented;


internalField   nonuniform List<scalar> 
5975
(
-0.05797260005
0.006514588658
0.05748084984
-0.01268472706
0.006661888619
0.01618640893
-0.123441732
0.2433690827
-0.028530264
0.01580482337
-0.123388319
-0.2415710495
0.01928710296
0.2383072928
-0.01615103817
-0.2318909676
0.01217929393
0.2307430433
-0.01126589806
-0.229536805
0.01001231423
0.2291291682
-0.009810874815
0.009238229948
-0.2338559578
0.2335027442
-0.008932164337
-0.4669768617
0.01466449662
0.4648543081
-0.01254194299
-0.4634578455
0.01090275506
0.4619469614
-0.009391870873
-0.01278138656
0.913393166
0.008578795261
0.008120071512
-0.008227651294
0.9069383484
-0.004046501899
0.9049016933
0.9038333695
-0.1115084443
0.008834793637
0.1114191783
-0.01733041032
0.00858488272
0.02794647547
-0.2364352488
0.234181698
-0.02569860693
-0.2316039164
0.01514471088
0.2302612191
-0.01396724531
-0.2286129115
0.01203721167
0.2275228395
-0.01118217869
-0.2281621555
0.009811631135
0.2286753369
-0.01049258845
0.009955918678
-0.232863224
0.2324060247
-0.009505693619
-0.4629836104
0.01548622344
0.4613136587
-0.01381627174
-0.4604243383
0.01220085988
0.4586673647
-0.01044388622
-0.0122796868
0.9086402261
0.008452620539
0.008580006164
-0.008951775217
0.9036104368
-0.004380132177
0.9003300503
0.8994532374
-0.225409433
0.01970689125
0.2260030185
-0.02030047671
-0.2290115269
0.01849132858
0.227820218
-0.01736570496
-0.2261245019
0.01459999796
0.2253131547
-0.01398790097
-0.2245085908
0.01303287311
0.2241639136
-0.01292513678
-0.227475751
0.0127709255
0.2267512919
-0.01217008234
0.01156367078
-0.2318984356
0.2295579863
-0.009223221504
-0.4598428319
0.01707367933
0.4567195469
-0.01395039436
-0.4568995353
0.01247863393
0.4548883931
-0.01046749166
-0.01264990429
0.9040011909
0.008718519354
0.008570420151
-0.009001980371
0.8999625129
-0.004584111045
0.895912181
0.8948691263
-0.2264951943
0.01111870462
0.226655451
-0.01131291643
-0.2257356301
0.0110857903
0.2254499146
-0.01091793609
-0.2239588404
0.01066422019
0.2238237139
-0.01072495112
-0.22380542
0.01128695917
0.2238685953
-0.01153735489
-0.2264445039
0.01212336047
0.2264278813
-0.01217310957
0.01090867757
-0.2276439036
0.227056146
-0.0103209199
-0.4560034661
0.01728946978
0.4533503712
-0.01463637479
-0.4520631427
0.01127300985
0.4505141414
-0.009724008605
-0.01179236237
0.8979347184
0.009184247602
0.008674587257
-0.006560505501
0.894730656
-0.004626204162
0.8939778797
0.8902429222
-0.2273031414
0.007313742855
0.2275476685
-0.007605493557
-0.2254163731
0.008440284918
0.2255872257
-0.008729169783
-0.2240715134
0.009718421196
0.2242929834
-0.01009009431
-0.2243740671
0.01119729582
0.224580761
-0.01150750632
-0.2261902753
0.01192499372
0.2257287881
-0.01146410215
0.01001746246
-0.2254899507
0.2250163993
-0.009543911067
-0.4497145899
0.01624115362
0.4480489486
-0.01457551234
-0.4489862402
0.01298264186
0.4474426769
-0.01143907855
-0.01091527637
0.891021748
0.009794192339
0.008034054395
-0.006135686837
0.8899510665
-0.004245531095
0.8920877239
0.8859973911
-0.2282685581
0.008301042935
0.2284858438
-0.008553613316
-0.2263094364
0.009447629645
0.2265567353
-0.009769594692
-0.2250522934
0.0107270984
0.2252727946
-0.0110165062
-0.225066256
0.01163013583
0.2249895798
-0.01156098199
-0.2244612676
0.01052501836
0.2240961165
-0.01015986726
0.009042300614
-0.2237653635
0.2233866517
-0.008663588834
-0.4465104026
0.01494326326
0.4450952872
-0.01352814788
-0.446020179
0.01214204115
0.4446502055
-0.01077206758
-0.01369108775
0.8860827648
0.009189571124
0.009440499864
-0.0089967141
0.8852566929
-0.001637828969
0.8847288388
0.8843595621
-0.2290134662
0.01024806892
0.2291418001
-0.01038749061
-0.2271317212
0.01082146545
0.2272439076
-0.01094674708
-0.2255621592
0.01096393295
0.2254106629
-0.01081243666
-0.224181034
0.01023086096
0.2239509525
-0.0100007795
-0.2231407083
0.009229047306
0.2228626059
-0.008950944929
0.008077237641
-0.2223878234
0.2220816774
-0.007771091579
-0.4437954338
0.0135560491
0.4426027907
-0.01236340604
-0.4433990183
0.01117052494
0.4421989223
-0.009970428904
-0.01279011903
0.8815964409
0.008491875465
0.008784567507
-0.008447137705
0.8809137115
-0.004195685197
0.8804773863
0.8801638769
-0.2293411562
0.009626150787
0.2293738953
-0.009658889931
-0.2271660835
0.009660030821
0.2271277876
-0.009621734979
-0.2250205093
0.009391334478
0.2249079294
-0.009278754632
-0.2233533486
0.008845165393
0.2231800904
-0.008671907202
-0.222127445
0.008081546589
0.2219110187
-0.007865120313
0.007171674982
-0.2212786407
0.2210292049
-0.006922239139
-0.4415077494
0.01218970093
0.4405014311
-0.01118338267
-0.4411082096
0.01016027461
0.4400623949
-0.009114459909
-0.011793114
0.8775656423
0.007760502791
0.008063409812
-0.007824588851
0.8769451864
-0.003896647675
0.8765494451
0.8762672292
-0.2294425788
0.008328873576
0.2294573674
-0.008343662182
-0.2270203153
0.008323542863
0.2269865416
-0.008289769156
-0.2246104429
0.008104959014
0.2245224942
-0.008017010331
-0.2227222727
0.007680089447
0.2225872798
-0.007545096546
-0.2213328046
0.007080929137
0.2211607219
-0.006908846468
0.006349935661
-0.2203780544
0.220173974
-0.006145855221
-0.4395748282
0.01090308147
0.4387214953
-0.01004974852
-0.4391146732
0.00917130182
0.4382047276
-0.008261356221
-0.0107703822
0.8739663431
0.007035575278
0.007334106025
-0.007173936514
0.8733487407
-0.003580776499
0.8729562851
0.8726864527
-0.2294829843
0.007251625692
0.2294863097
-0.007254951147
-0.2268901674
0.007221211014
0.2268594813
-0.007190524846
-0.2242854004
0.007036224398
0.2242140213
-0.006964845335
-0.2222252477
0.00669410423
0.2221169942
-0.006585850766
-0.2206962476
0.006211965717
0.2205566468
-0.006072364907
0.005614495714
-0.2196389343
0.219469712
-0.005445273384
-0.4379345022
0.009716985097
0.4372080366
-0.00899051951
-0.4373811744
0.008234212015
0.4365889928
-0.007442030378
-0.009767268981
0.8707645795
0.006343430665
0.006625601915
-0.00652728917
0.8701087609
-0.003264465285
0.8696934612
0.8694219875
-0.2294840285
0.006349862662
0.229479783
-0.006345617203
-0.2267710308
0.00630294028
0.2267426373
-0.006274546837
-0.2240186
0.006141906011
0.2239589362
-0.00608224219
-0.221822968
0.005858625642
0.2217339907
-0.005769648408
-0.2201762913
0.005461977192
0.2200609452
-0.00534663107
0.00496570827
-0.2190241846
0.2188820873
-0.004823610974
-0.4365359602
0.008647065289
0.4359135995
-0.008024704589
-0.4358720602
0.007370674667
0.4351807593
-0.006679373787
-0.008816453971
0.8679210474
0.005699693276
0.005960292783
-0.005908166492
0.8672004734
-0.002959880938
0.8667451757
0.8664621065
-0.2294584591
0.005588701168
0.2294488687
-0.005579110803
-0.2266603377
0.00553058376
0.2266338168
-0.005504062878
-0.2237936964
0.005387683362
0.2237427036
-0.005336690563
-0.2214897989
0.005147918939
0.221415153
-0.005073273086
-0.2197441561
0.004815428085
0.2196473182
-0.004718590152
0.004397302538
-0.2185065021
0.2183858214
-0.004276621812
-0.4353359094
0.007693032733
0.4347991598
-0.007156283082
-0.4345547974
0.006587941288
0.4339496138
-0.005982757652
-0.007935766559
0.8653957655
0.005112489975
0.005348558466
-0.005330102857
0.8645948097
-0.002674185537
0.8640892584
0.863787921
-0.2294143057
0.004938748668
0.2294012326
-0.004925675505
-0.2265569222
0.004874313272
0.2265321655
-0.004849556587
-0.2236002973
0.004746133693
0.2235559977
-0.004701834038
-0.221208595
0.004539753148
0.2211449315
-0.004476089703
-0.2193796008
0.004256727741
0.2192972066
-0.004174333596
0.003900171802
-0.2180657448
0.2179622565
-0.003796683511
-0.4342992479
0.006850360165
0.433833214
-0.006384326309
-0.4334010568
0.005887864984
0.4328692331
-0.005356041266
-0.00713522048
0.8631501646
0.004585412604
0.004795408767
-0.004801302108
0.8622608913
-0.002411867676
0.8616998239
0.8613760533
-0.2293585974
0.004382221662
0.2293434281
-0.004367052358
-0.2264604692
0.004314942565
0.2264373945
-0.004291867839
-0.2234314249
0.004199069643
0.2233924287
-0.004160073501
-0.2209674804
0.004018941851
0.220912425
-0.003963886379
-0.2190680236
0.003774838298
0.2189970934
-0.003703908147
0.003467523388
-0.2176867413
0.217597213
-0.003377995027
-0.4333976582
0.006111847527
0.4329903123
-0.005704501635
-0.4323864086
0.005268434348
0.4319169904
-0.004799016185
-0.006417100285
0.8611487249
0.004116728331
0.004301811643
-0.004324578896
0.8601683699
-0.002174681806
0.8595499268
0.8592013715
-0.2292955523
0.00390908646
0.2292789316
-0.003892465758
-0.2263704106
0.00384011818
0.2263487801
-0.00381848767
-0.2232820671
0.003734319741
0.2232473063
-0.003699558951
-0.2207579648
0.003575073716
0.2207097476
-0.003526856471
-0.2187986787
0.003361981918
0.2187369412
-0.003300244404
0.003094383474
-0.2173578986
0.2172797686
-0.003016253447
-0.4326083581
0.005469450755
0.4322498741
-0.005110966749
-0.4314900731
0.004725676424
0.431073647
-0.004309250324
-0.005782297546
0.8593585203
0.003706043199
0.003866458985
-0.003901528339
0.8582876007
-0.001963707947
0.8576121065
0.8572376635
-0.2292276043
0.003507855158
0.2292101183
-0.003490369133
-0.2262857242
0.003437985019
0.2262652629
-0.003417523703
-0.2231483474
0.003340295129
0.2231169855
-0.003308933237
-0.2205737019
0.003197815424
0.2205309843
-0.003155097835
-0.2185633686
0.003009721564
0.218509074
-0.002955427008
0.002774418116
-0.2170700635
0.2170012932
-0.002705647825
-0.4319125474
0.00491494841
0.431594795
-0.004597196017
-0.4306940644
0.004254564107
0.4303225113
-0.003883011033
-0.005227662961
0.8577497321
0.003349805896
0.003486645201
-0.003530788546
0.8565907263
-0.001778478935
0.8558597968
0.8554591846
-0.2291568742
0.00316794305
0.2291389197
-0.00314998853
-0.2262053322
0.003097619664
0.2261857824
-0.003078069804
-0.2230272227
0.003006402559
0.2229986128
-0.002977792622
-0.2204098539
0.002877542265
0.2203716147
-0.00283930308
-0.2183557206
0.002709821166
0.218307503
-0.002661603536
0.0025009574
-0.2168159058
0.2167548599
-0.002439911409
-0.4312946557
0.004440607003
0.4310108076
-0.004156758917
-0.4299829057
0.003849848746
0.4296491565
-0.003516099559
-0.004749265405
0.8562953578
0.003044608548
0.003159031194
-0.003210266322
0.8550517272
-0.001618109607
0.8542676401
0.853841075
-0.229084676
0.002882916343
0.2290664966
-0.002864736884
-0.2261282483
0.002812339605
0.2261093954
-0.002793486726
-0.2229162958
0.002726287935
0.222889926
-0.002699918143
-0.2202626276
0.002608540385
0.2202280428
-0.002573955651
-0.2181706158
0.002457422258
0.2181273457
-0.002414152204
0.002270091414
-0.2165893651
0.2165346328
-0.00221535911
-0.4307415742
0.004039866308
0.4304858099
-0.003784102003
-0.4293431157
0.003506865309
0.4290409343
-0.003204683974
-0.004342878747
0.8549706132
0.002787056731
0.002880566573
-0.002937521058
0.8536463695
-0.001481490688
0.8528116097
0.8523595843
-0.2290116981
0.002646266604
0.2289933307
-0.002627899256
-0.2260536796
0.002575410219
0.226035369
-0.002557099551
-0.2228136963
0.002493549509
0.2227891715
-0.002469024663
-0.2201289615
0.002384936981
0.2200973658
-0.002353341285
-0.2180038386
0.002247362144
0.2179645964
-0.002208119996
0.002077610166
-0.2163851672
0.21633576
-0.00202820297
-0.4302420431
0.003705665867
0.4300090314
-0.003472654159
-0.4287627671
0.003219753404
0.4284865838
-0.002943570069
-0.00400330695
0.8537537524
0.002573707613
0.002646460184
-0.002709359933
0.8523524225
-0.001367141665
0.8514693915
0.8509924426
-0.2289378384
0.002454289788
0.2289192101
-0.002435661491
-0.2259811568
0.002383102585
0.2259633251
-0.002365270897
-0.2227179697
0.002304798945
0.2226949719
-0.002281801094
-0.2200063228
0.002203625951
0.2199771217
-0.002174424796
-0.2178519198
0.002076866218
0.2178158964
-0.002040842919
0.001921295481
-0.2161994703
0.2161546542
-0.001876479323
-0.4297854365
0.003434014597
0.4295703984
-0.003218976498
-0.4282312001
0.002985605961
0.4279761626
-0.002730568513
-0.003726877609
0.8526222958
0.0024022324
0.002456101761
-0.002523559441
0.8511491043
-0.001273913695
0.8502197457
0.849718529
-0.2288629233
0.002302748713
0.2288440334
-0.002283858889
-0.2259105092
0.002231324284
0.2258931227
-0.002213937766
-0.222627922
0.002156071984
0.2226061666
-0.002134316568
-0.2198924833
0.002060849273
0.2198651575
-0.002033523463
-0.2177117481
0.00194247344
0.217678189
-0.001908914378
0.001797616885
-0.2160288731
0.2159871962
-0.001755939987
-0.4293628787
0.003218496216
0.429162464
-0.003018081491
-0.4277387462
0.002799934836
0.4274993181
-0.002560506684
-0.00351034627
0.8515650025
0.002267551078
0.002300088417
-0.002378239165
0.8500169972
-0.001201266192
0.8490427727
0.8485172628
-0.2287870125
0.002188046992
0.2287678888
-0.002168923316
-0.2258415582
0.002116313132
0.2258245355
-0.00209929041
-0.222542462
0.002043523772
0.2225216814
-0.002022743089
-0.2197854409
0.001952864213
0.2197595174
-0.001926940758
-0.2175804332
0.00184070558
0.2175486858
-0.001808958208
0.001703728508
-0.2158688613
0.2158294706
-0.001664337847
-0.4289678497
0.003056814041
0.4287783012
-0.002867265503
-0.4272761718
0.002661100452
0.4270508294
-0.002435758031
-0.003349241808
0.8505508434
0.002172452432
0.002190948482
-0.002269404436
0.8489371598
-0.001146191453
0.8479195598
0.8473710713
-0.2287102407
0.002108673008
0.22869096
-0.002089392288
-0.2257738258
0.002036417583
0.225757001
-0.002019592734
-0.2224604478
0.001965232002
0.2224403382
-0.001945122389
-0.219683311
0.001877691547
0.2196583361
-0.001852716639
-0.2174554649
0.001769733617
0.2174249464
-0.001739215114
0.001638124305
-0.2157167393
0.2156788875
-0.00160027254
-0.4285926686
0.002945991297
0.4284103836
-0.002763706293
-0.4268378901
0.002565311105
0.4266208078
-0.002348228837
-0.003250388311
0.8495747545
0.002101886915
0.002124590318
-0.002203466384
0.8478902379
-0.001115857548
0.8468319509
0.8462552138
-0.2286330359
0.002064535756
0.2286137026
-0.00204520245
-0.2257065518
0.001991568213
0.2256896995
-0.001974715911
-0.2223805781
0.001920843408
0.2223607693
-0.001901034638
-0.2195842612
0.001834782305
0.219559761
-0.0018102821
-0.2173345342
0.001728974559
0.2173046665
-0.001699106934
0.001600276135
-0.2155697663
0.2155329221
-0.001563432003
-0.428230661
0.00288419765
0.4280528789
-0.002706415554
-0.4264159914
0.002513839126
0.4262100932
-0.002307940942
-0.003175958414
0.00203372898
0.002088497509
-0.002150022528
-0.001082174285
-0.006738949208
0.02887773316
-0.02902914501
0.006890361057
0.006749059584
-0.01300649671
-0.05845411214
0.1229066674
-0.01669772645
-0.1239676006
0.01775865966
-0.009367931417
0.05501479592
-0.05498475091
0.009337886409
0.006744367792
0.02864795403
-0.01872051141
0.001374393931
-0.05174719263
-0.05178306565
0.2312109521
-0.02365289032
0.01421848751
0.01381242883
-0.1179720721
-0.1176169059
0.01718645754
0.1219066188
-0.01075154526
0.1118165238
-0.1114690129
0.01040403438
0.008890978284
0.05495861128
0.1214404791
-0.02116095228
-0.1226615558
0.01110611254
0.01127591654
-0.05375784995
-0.009839979715
0.01019893749
0.05339889217
-0.01013533917
-0.05422311425
0.01060060347
0.05491344862
-0.009835940012
-0.05521284778
0.1182403609
-0.01790322864
-0.1186209528
0.01828382056
-0.02046522167
0.1202613937
0.01073390512
0.01091040193
-0.03043106707
-0.007277877631
0.007644236332
0.03006470837
0.05541861381
-0.01201979607
-0.05587889122
0.006213025264
0.006267048211
-0.00733011306
-0.03073719751
0.007636243504
0.03025538113
-0.007112411022
-0.03047308316
0.06104359069
-0.01252532291
-0.06143199885
0.01291373107
-0.01171441458
0.01207139156
0.05506163682
-0.02264177419
0.01121885701
-0.1121518775
-0.1125861836
-0.02086079877
0.2291903078
-0.2304790596
0.02213671299
0.2330620252
0.01468368941
0.0114117129
0.0594480124
-0.01180204892
-0.05984084934
0.01219488586
-0.01240322094
0.01281188747
0.06063492416
0.03002527315
-0.007047769652
0.1152249936
-0.01231479421
-0.1152508707
0.01234067131
-0.01707380005
0.01697886773
0.1183352932
0.05449022346
-0.009416754546
-0.01375915385
0.1105530001
-0.1102168808
0.0134230346
0.01800826805
-0.01753752983
-0.0004707382143
0.03057604255
-0.007361356536
-0.03082106401
0.007606377999
0.04901562104
-0.008942632016
-0.04927285584
0.05170740531
-0.008339967415
-0.05246326908
0.009095831185
0.007142892996
-0.02657963475
0.0276382407
-0.008201498948
0.006579058075
0.02837417948
-0.007119562047
-0.02783367551
0.02942961104
-0.007033799726
-0.02949623522
0.00710042391
0.02650745662
-0.02494816027
0.005019761725
-0.01819117354
0.02570269029
-0.0003686237484
0.02800800309
-0.007730397352
-0.02808781884
0.007810213111
-0.005871228878
0.00410979996
0.02826888554
0.03001070351
-0.006568342085
-0.02305127284
0.02742422956
-0.007036306841
-0.02751872782
0.007130805099
-0.007552745684
0.007536160039
0.02802458873
0.0273965122
-0.006379449181
-0.02747210358
0.006455040555
-0.006830458542
0.006909710089
0.02734497801
0.0224950567
-0.006793391475
-0.01778114487
-0.0004100286711
-0.007227082644
0.007215962297
0.03058716289
0.02366454194
-0.005389277345
-0.0002669965516
-0.008793909727
-0.03556686989
-0.01580417502
-0.1243352834
-0.01985192402
0.2442245561
-0.2470605984
0.02261754951
-0.006805682301
0.006991484268
0.02924380907
0.02923193
-0.006728979399
0.02875507638
-0.007398990939
-0.02908648279
-0.006238896341
0.004533742775
0.02998062948
-0.006996670977
0.03069656243
0.03074806601
-0.007203332919
-0.03090608963
0.03068023884
-0.006819483156
-0.03077110384
0.006910348165
-0.01709161868
0.02412517284
-0.006686160531
-0.0003473936277
-0.01654845518
-0.0005431634937
-0.01581205926
0.01635628843
-0.03156182429
0.02372297547
-0.00797321044
-0.007084277869
-0.0003523735866
-0.006126901235
0.02666269678
-0.02677511253
0.00623931699
-0.006264686426
0.006533188827
0.0271280098
0.02891237778
-0.0001853119039
-0.03606747189
0.02669188092
-0.008161938866
-0.006932783095
-0.000222311018
0.01641363243
-0.03346033195
-0.00790146074
0.01688020793
-0.0004665754992
0.02218934842
-0.0002893787695
-0.0074165177
-0.0003411239635
0.008260355809
-0.028617002
-0.007731172647
0.025147937
-0.03343603637
0.02627198958
0.02658457267
-0.0002854242897
-0.006492954213
-0.0003585094869
-0.006841070679
-0.02486921441
0.02527933936
-0.006978467029
0.006287953627
-0.00743419257
-0.005707063751
0.02403618618
-0.02537857147
0.02598148455
-0.006309976827
-0.006892623588
-0.004351723125
0.02835349955
-0.0003372344814
-0.02813047463
0.02991092036
-0.00613216886
-0.00682787105
-0.03015923489
-0.008088949721
0.02945427488
0.006896973607
-0.007145288128
-0.0003163967357
-0.01741317946
-0.2441244841
-0.01282563713
0.2342109351
-0.2354983439
0.01389547729
-0.01076515096
-0.2341780069
-0.008808577817
0.229533363
-0.230317278
0.0093616743
-0.008553611173
-0.2300024096
0.2326313838
-0.008368480642
-0.2328272041
0.008460987478
0.05636869352
-0.01169266885
-0.05669582074
0.05805751958
-0.01071580478
-0.05845719804
0.01111548324
-0.01156494693
0.01193057444
0.05908238489
-0.02200214368
-0.2380869445
-0.01687607885
0.2331487005
-0.23681953
0.02042645296
0.02209915584
0.2413280618
-0.01504414898
-0.233591365
-0.01122295783
0.2277389341
-0.2292060454
0.01245506374
0.01331289004
0.2328591596
-0.01158414863
-0.228485224
-0.01070826596
0.2271915378
-0.2275856935
0.01088927236
0.01049149013
0.2288263931
-0.01063094423
-0.2284248285
0.2313386567
-0.009559571132
-0.2314855216
0.009644670429
0.009585205434
0.232189513
0.1116809716
-0.01390109625
-0.1115390292
0.1140144037
-0.01383884085
-0.114153004
0.01397744115
-0.01625637331
0.0166767077
0.1148046592
-0.01943435596
-0.2304853139
-0.01594144002
0.226951825
-0.2281031938
0.01692894285
0.0166226684
0.2315434665
-0.01514369431
-0.2271181377
-0.0137407028
0.2245621072
-0.2251354884
0.01406806641
0.01259225594
0.2269443873
-0.01278602269
-0.2256964391
-0.01185317235
0.2259970447
-0.2263362378
0.01201446039
0.01001542846
0.2267829949
-0.01033533091
-0.2291293309
0.2303372848
-0.009898862732
-0.2306636801
0.0102119498
0.01019591124
0.2310484469
-0.0130815575
0.2256867431
-0.2252821993
0.2238156969
-0.1109131707
-0.01322631279
-0.2263753209
-0.01252170294
0.2260943355
-0.2265170812
0.01286060783
0.01961819246
0.2280310473
-0.01215977413
-0.2262068821
-0.01137951332
0.2243618435
-0.2247225178
0.01155766705
0.01537674259
0.2260044047
-0.01129934462
-0.224239163
-0.01154568703
0.2235809802
-0.2236476782
0.01139850123
0.01322642612
0.2241275866
-0.01172933022
-0.2238247426
-0.01220846734
0.2255570578
-0.2255638216
0.01209097965
0.01282924287
0.2257690336
-0.01224511467
-0.22649321
0.2278801708
-0.01110035262
-0.2285156916
0.01173587345
0.01203239421
0.229864071
-0.007699491506
0.2269247955
-0.2266547338
0.226041767
-0.007981861432
-0.2270675798
-0.008662291983
0.2258799365
-0.2257695631
0.00844698821
0.01123703557
0.2258487924
-0.008882867129
-0.2253186404
-0.009693953109
0.2242948939
-0.224153394
0.009391320443
0.01068232877
0.2241620099
-0.01002787397
-0.2239033541
-0.01110664673
0.2241134409
-0.2239024766
0.01074986138
0.01105231907
0.2236152375
-0.01143445001
-0.2241733512
-0.01201861666
0.2257925864
-0.225725714
0.01191261407
0.01198268332
0.225592557
-0.01179907905
-0.2264172408
0.2256664078
-0.0102547508
-0.2261721673
0.01076051029
0.01151070857
0.2272781398
-0.007800794566
0.2278542096
-0.2276413866
0.2271775349
-0.008072981778
-0.2280363084
-0.009021672633
0.2267753249
-0.2265218175
0.008688853748
0.008161356534
0.2260566852
-0.009365478795
-0.2260540076
-0.0104253194
0.2252592404
-0.2250031923
0.01007290729
0.009365318997
0.2244996434
-0.01076487194
-0.2248039598
-0.01157681218
0.2249478489
-0.2247759514
0.01135515248
0.01084516004
0.224342017
-0.01172888531
-0.2249419546
-0.01087403622
0.2246564827
-0.2250420169
0.0112595704
0.01191908509
0.2257817966
-0.01048181182
-0.224853492
0.2239221656
-0.009290856798
-0.2243192474
0.009687938587
0.01049411436
0.2251897559
-0.009893389634
0.2285664288
-0.2284111258
0.2280540203
-0.01006376106
-0.2288606441
-0.01063366775
0.2276092491
-0.2274460168
0.01044173104
0.009133629964
0.2270213471
-0.01081740824
-0.2269765429
-0.01124290033
0.2259465351
-0.225848159
0.01113166558
0.01041634737
0.2254941007
-0.01123024852
-0.2255811637
-0.01061719629
0.224491306
-0.2247221069
0.01084799719
0.01148170054
0.2250718627
-0.01036874769
-0.2244294826
-0.009539769087
0.223369502
-0.2236575922
0.009827859243
0.01088257787
0.2242989232
-0.009242657059
-0.2234378203
0.2225493869
-0.008315342992
-0.2228627501
0.008628706191
0.00941670094
0.2235477653
-0.009990337288
0.228990507
-0.2289183185
0.2287051332
-0.01002919151
-0.229302302
-0.01003739187
0.2277549415
-0.2277726662
0.01005511647
0.01068158181
0.2277338786
-0.009997591363
-0.227205884
-0.009752194242
0.2255184671
-0.2256202969
0.009854024028
0.0110615753
0.2258474572
-0.009631595322
-0.2251411082
-0.009167039444
0.2237261125
-0.2238970042
0.009337931108
0.01044410509
0.2242780618
-0.008981722264
-0.2235386658
-0.008352303154
0.222393153
-0.2226138734
0.008573023633
0.009497945999
0.2231006033
-0.008122405723
-0.2223573424
0.2214578107
-0.007389597658
-0.2217080356
0.007639822543
0.008373839835
0.2222527847
-0.008628091159
0.2291959362
-0.2291549916
0.2290532325
-0.008646622846
-0.2294240471
-0.008630956386
0.2276801671
-0.2276993622
0.008650151563
0.009678182415
0.2277367899
-0.008596233951
-0.2270550377
-0.008401838151
0.225170555
-0.2252498697
0.008481152834
0.009486560169
0.2254232414
-0.008308686122
-0.224703595
-0.007951153376
0.2231454989
-0.2232771373
0.008082791813
0.009004751583
0.2235665263
-0.007807921669
-0.2228655044
-0.007316296341
0.2216335303
-0.2218069224
0.007489688475
0.00828892364
0.2221857759
-0.007134469276
-0.2215146316
0.220579309
-0.006546261677
-0.2207816116
0.006748564245
0.0074094586
0.2212200271
-0.007504341516
0.229310274
-0.229287989
0.2292313417
-0.007510084726
-0.2294772411
-0.00747921386
0.2276009445
-0.2276210521
0.007499321497
0.008343017789
0.2276606921
-0.007447841563
-0.2269215397
-0.007286891585
0.2248920704
-0.2249565819
0.007351403077
0.008180029212
0.2250954848
-0.007211905192
-0.2243603868
-0.006926696955
0.2226889613
-0.2227937905
0.007031526189
0.007804109507
0.2230214788
-0.006812563057
-0.2223393816
-0.006418668827
0.2210282793
-0.2211676843
0.00655807379
0.007244809026
0.2214696504
-0.006271815648
-0.2208431008
0.219862692
-0.005791713135
-0.2200286784
0.005957699483
0.006542887638
0.220386357
-0.006562591991
0.229368059
-0.2293577243
0.2293290951
-0.006559982183
-0.2294866383
-0.006519204765
0.227519226
-0.2275398076
0.006539786285
0.007241467285
0.2275806882
-0.006490283532
-0.226799952
-0.006352803705
0.2246610136
-0.2247151681
0.006406958215
0.007097798486
0.2248304963
-0.006290535112
-0.2240808686
-0.006056435341
0.2223192605
-0.2224050318
0.006142206617
0.006793546953
0.2225895185
-0.005963157871
-0.2219162454
-0.005640632489
0.2205356332
-0.2206499899
0.005754989125
0.006344368093
0.2208958769
-0.005519814673
-0.2202971091
0.2192696458
-0.005121888646
-0.2194077489
0.005259991686
0.005773361521
0.2197038262
-0.005766522729
0.2293867984
-0.2293852578
0.2293759983
-0.005758100139
-0.2294668817
-0.005710771501
0.2274364466
-0.2274571662
0.005731491137
0.006323583449
0.2274985829
-0.005683807109
-0.2266873021
-0.005563755608
0.2244641324
-0.2245106585
0.005610281683
0.00619393527
0.2246089844
-0.00551082213
-0.2238466299
-0.005314265551
0.2220125161
-0.2220842568
0.005386006321
0.005940480561
0.2222374056
-0.005236414755
-0.2215676496
-0.004967385349
0.2201270621
-0.2202225109
0.005062834071
0.005571095075
0.2204265154
-0.004866377222
-0.2198451642
0.2187721891
-0.004532006635
-0.2188885589
0.004648376407
0.005098367721
0.2191369864
-0.005090653311
0.2293752966
-0.2293805283
0.2293864342
-0.005078286096
-0.229426673
-0.005027375888
0.2273541033
-0.2273745445
0.005047817025
0.005551283806
0.2274157465
-0.005002186951
-0.2265821111
-0.004895792765
0.2242931267
-0.2243337806
0.004936446676
0.005432616078
0.2244191997
-0.004849979217
-0.2236461109
-0.004681881063
0.2217529661
-0.2218140766
0.004742991544
0.005216749835
0.2219436852
-0.004615742177
-0.2212747339
-0.004387685876
0.2197827477
-0.2198636412
0.004468579389
0.004906910291
0.2200355799
-0.004302020364
-0.2194652663
0.2183498867
-0.004017518935
-0.2184490937
0.00411672596
0.004509495608
0.218659996
-0.004513948092
0.2293426748
-0.2293523295
0.2293687579
-0.004499226016
-0.2293733194
-0.004447207793
0.2272739
-0.2272936897
0.004466997475
0.004894617989
0.2273337986
-0.004423725944
-0.226483951
-0.004328451874
0.2241424995
-0.2241784836
0.004364436031
0.004785529396
0.224253731
-0.004288232972
-0.2234716438
-0.004142287461
0.2215297888
-0.2215826383
0.004195136966
0.004598617965
0.2216941013
-0.00408525539
-0.2210245125
-0.003889236602
0.2194885455
-0.2195580174
0.003958708495
0.004334525293
0.2197049501
-0.003815666479
-0.2191415937
0.2179875257
-0.003570888866
-0.2180729908
0.003656353943
0.003996088039
0.2182539705
-0.004021233515
0.2292965134
-0.2293090313
0.2293321885
-0.004004915552
-0.2293118702
-0.003952593843
0.2271965184
-0.2272156109
0.003971686388
0.004334546688
0.2272542959
-0.003930622503
-0.2263923819
-0.003844445297
0.224008249
-0.2240404669
0.003876663104
0.004234026354
0.2241075427
-0.003808702929
-0.2233178095
-0.003680364819
0.2213352699
-0.2213815615
0.003726656387
0.004069998334
0.2214787323
-0.003630565067
-0.2208077645
-0.003460090763
0.2192341365
-0.2192944782
0.003520432504
0.00384182109
0.2194215627
-0.003396222447
-0.218862547
0.2176736047
-0.003183565019
-0.2177479132
0.003257873562
0.003550324452
0.2179047247
-0.003602255786
0.2292419337
-0.2292561184
0.2292834745
-0.003584938074
-0.229244922
-0.003532547138
0.2271216766
-0.2271401767
0.003551047182
0.003859046909
0.2271775896
-0.003511817639
-0.2263064537
-0.003432990829
0.2238871772
-0.2239163633
0.003462176955
0.003765709469
0.2239768593
-0.003400844691
-0.2231804935
-0.003286639096
0.221163638
-0.2212046648
0.00332766595
0.003619930686
0.221290413
-0.003242650333
-0.2206176906
-0.003092764314
0.2190117069
-0.2190646766
0.003145734009
0.003420320003
0.2191757984
-0.003036748446
-0.2186193844
0.2173991271
-0.002850243111
-0.2174643244
0.002915440431
0.00316654495
0.2176014432
-0.00324675476
0.229182966
-0.2291979684
0.2292274857
-0.003228894635
-0.2291747343
-0.003176538323
0.2270488672
-0.2270669087
0.00319457984
0.003456357464
0.2271033042
-0.003156787655
-0.2262250829
-0.003083862584
0.2237767063
-0.2238034483
0.00311060457
0.003368820953
0.2238586514
-0.003054624669
-0.2230564606
-0.002951886431
0.2210104921
-0.2210472428
0.00298863713
0.003237691207
0.2211237622
-0.002912620969
-0.2204491193
-0.002779496042
0.2188152235
-0.2188621863
0.002826458836
0.003061075439
0.218960353
-0.002729886774
-0.2184053299
0.217156944
-0.002564800918
-0.2172146631
0.002622520026
0.002837890688
0.2173356545
-0.002948689733
0.2291219603
-0.2291373118
0.2291678361
-0.002930557484
-0.2291028083
-0.002878184931
0.2269775311
-0.2269952523
0.002895906101
0.003115573804
0.227030913
-0.00285918049
-0.2261472527
-0.002790965536
0.2236747747
-0.2236995485
0.002815739259
0.003032619366
0.2237504895
-0.002764082912
-0.2229431784
-0.002670671966
0.2208723938
-0.2209056639
0.002703942145
0.002913364167
0.2209746702
-0.002635250288
-0.2202980492
-0.002515753794
0.2186398722
-0.2186819524
0.002557834018
0.002755478284
0.2187695663
-0.002471353
-0.2182150166
0.2169411871
-0.002323703355
-0.2169928142
0.002375330446
0.002557295107
0.2171006063
-0.002701574446
0.2290601443
-0.2290756591
0.229106563
-0.002683258595
-0.2290300139