/*--------------------------------*- C++ -*----------------------------------*\
| =========                 |                                                 |
| \\      /  F ield         | OpenFOAM: The Open Source CFD Toolbox           |
|  \\    /   O peration     | Version:  v2012                                 |
|   \\  /    A nd           | Website:  www.openfoam.com                      |
|    \\/     M anipulation  |                                                 |
\*---------------------------------------------------------------------------*/
FoamFile
{
    version     2.0;
    format      ascii;
    class       surfaceScalarField;
    location    "2.86";
    object      phi;
}
// * * * * * * * * * * * * * * * * * * * * * * * * * * * * * * * * * * * * * //

dimensions      [0 3 -1 0 0 0 0];
oriented        oriented;


internalField   nonuniform List<scalar> 
6430
(
-0.007992199781
0.9334691929
-0.01620155681
0.9328616516
-0.02459362466
0.931525708
-0.009054959172
0.9294032251
-0.02451527485
-0.4588423927
0.4602008069
-0.01041337341
-0.456469936
0.01193484513
0.4581834641
-0.01364837319
-0.4439905162
0.01541254701
0.441812202
-0.006275757755
-0.006931075741
-0.1891552138
0.003372951863
0.187500045
-0.001678131338
-0.1728504957
0.001039738696
0.1728394902
-0.0009765225172
-0.1888092217
0.002382001126
0.1878329242
-0.001372460854
-0.2161041817
0.005414659164
0.2173885142
-0.003345742298
-0.003353249375
-0.05247507866
0.002774414489
0.05256860935
-0.002867945179
-0.00450520264
0.9379743955
-0.009150652162
0.9375071011
-0.01408425332
0.9364593092
-0.00963234667
0.9348018127
-0.009850494219
-0.4636153597
0.4650577693
-0.01107475629
-0.4616794202
0.01268816428
0.4634256261
-0.01443437023
-0.4414090303
0.01634908769
0.4458723526
-0.009915086521
-0.01086635646
-0.1844214814
0.01090000368
0.1846183057
-0.01105542816
-0.1706782086
0.01036363816
0.1702207859
-0.00985229467
-0.1920098981
0.007959364071
0.1913781161
-0.007295358989
-0.2217139759
0.005874391815
0.2229921808
-0.003577726012
-0.00357487072
-0.0548286318
0.00590982915
0.1100847481
-0.05480070906
-0.003177063652
-0.00318817272
-0.004693153074
0.9426675486
-0.009520740673
0.9423346887
-0.01462018049
0.941558749
-0.01000705306
0.9403266223
-0.01013793702
-0.4665883252
0.4681056422
-0.0115243701
-0.4651804808
0.01316752619
0.4669294391
-0.01491648447
-0.4532793307
0.01680120819
0.4616387221
-0.01261871462
-0.01253165979
-0.1886882686
0.01863941096
0.1913263277
-0.02124279482
-0.1703712812
0.02659346175
0.1711928119
-0.02736424317
-0.1870403029
0.02608535686
0.1853624346
-0.02437041812
-0.2205114727
0.01522881583
0.2162586383
-0.01096821637
-0.1132639447
0.009775705959
0.226581124
-0.009892362374
-0.1132005229
-0.004754087267
0.9474216359
-0.009627040683
0.9472076422
-0.01473559629
0.9466673046
-0.01009778504
0.9458062102
-0.01011739913
-0.4696123062
0.4711211896
-0.01160666847
-0.4686493689
0.01321185865
0.4703324962
-0.01489498591
-0.467519238
0.01667767456
0.4695228557
-0.00942307441
-0.009258218912
-0.203389913
0.0199938337
0.2087809887
-0.02536410305
-0.1772798986
0.0391862228
0.1807671368
-0.04263217018
-0.1824839904
0.04836111312
0.182806248
-0.04864482103
-0.2059928609
0.04523660383
0.2039205278
-0.04314350013
-0.219807444
0.03676386085
0.2160159839
-0.03296774728
-0.004704169554
0.9521258054
-0.009507709428
0.952011182
-0.01450355594
0.9516631512
-0.009947848891
0.9511050823
-0.009854579171
-0.472575687
0.4740184204
-0.01139058221
-0.4719604125
0.01290704583
0.4735292029
-0.01447583627
-0.4713346299
0.01611238103
0.473048102
-0.008968710523
-0.008857142552
-0.2284263896
0.009987814286
0.2344562294
-0.01601499228
-0.1960118493
0.03773790038
0.2025778316
-0.04427934744
-0.1889352277
0.0600960371
0.1927561166
-0.0638867816
-0.2028225209
0.07105586972
0.204094611
-0.07230678475
-0.2066577794
0.068429703
0.2059387253
-0.0677047472
-0.004566168729
0.9566919742
-0.009210272968
0.9566552863
-0.01399842439
0.9564513026
-0.009595955768
0.9561205177
-0.009417903946
-0.4753914218
0.4767376524
-0.0109421864
-0.4750259698
0.01234047998
0.4764522877
-0.01376679794
-0.474657219
0.01523123928
0.4761614408
-0.008438805174
-0.008296655922
-0.2369380736
0.009221550804
0.2373347428
-0.009618220026
-0.2254002936
0.01460381765
0.233538799
-0.02273798495
-0.2088225182
0.04526689208
0.2153271581
-0.05175705085
-0.2108134777
0.06698135182
0.2135084334
-0.06966363351
-0.2121552792
0.07263173729
0.2154987283
-0.07597221798
-0.004361673193
0.9610536474
-0.00877962021
0.9610732333
-0.01329429175
0.9609659741
-0.009097945919
0.960789189
-0.008865017106
-0.478008072
0.4792438358
-0.0103337097
-0.4778003539
0.01160177244
0.4790755797
-0.01287699817
-0.4775645321
0.01416550587
0.4788659017
-0.007806729138
-0.007660146362
-0.2384197368
0.008475837031
0.2387497713
-0.008805871446
-0.2375922147
0.009783766639
0.2379114722
-0.01010302414
-0.2358097084
0.0110381868
0.2367632187
-0.01199144557
-0.222815374
0.02570102453
0.2264774509
-0.02936058137
-0.2240413398
0.03827661027
0.2261144359
-0.04034922434
-0.004111490913
0.9651651383
-0.00825955682
0.9652212992
-0.01246228333
0.9651687006
-0.008506976487
0.9650803064
-0.008246424242
-0.4804015968
0.48152455
-0.009629929635
-0.4802736537
0.01076747864
0.4814023137
-0.01189613864
-0.4800713081
0.01301979751
0.4811866961
-0.007131397644
-0.007003787795
-0.2396518136
0.007708354684
0.2399264859
-0.007983027007
-0.2387688985
0.00878048074
0.2390247991
-0.009036381304
-0.2375371016
0.009769627628
0.2377565831
-0.009989109152
-0.2287873014
0.01027101041
0.2287341189
-0.01021782791
-0.2288153562
0.01104803672
0.2290254382
-0.01125811876
-0.003834597898
0.9689997362
-0.007689095787
0.9690757971
-0.01156388036
0.9690434852
-0.007871348736
0.9689891393
-0.007601364518
-0.4825683625
0.4835818217
-0.008884807948
-0.4824592396
0.009898664864
0.4834530549
-0.01089248024
-0.4822182041
0.01186923971
0.4831716203
-0.006464231568
-0.006358424328
-0.2406779853
0.006962879063
0.2409074601
-0.007192353899
-0.23971558
0.007848010201
0.239923043
-0.008055473213
-0.2383244994
0.008635371349
0.2384882058
-0.008799077777
-0.2286140262
0.00897273843
0.2285844053
-0.008943117519
-0.2294991732
0.009647139122
0.229618618
-0.009766583833
-0.003545904278
0.9725456405
-0.007098234653
0.9726281275
-0.01064450061
0.9725897512
-0.007224444628
0.9725277294
-0.006958646159
-0.4845167028
0.4854263074
-0.008134049234
-0.4843822661
0.009034208845
0.4852554471
-0.009907389772
-0.4840534437
0.01075701386
0.4848715656
-0.005835095674
-0.005740040045
-0.2415367102
0.006261497202
0.2417293268
-0.00645411378
-0.2404868356
0.006998435594
0.2406572556
-0.007168855646
-0.2389167099
0.007635032835
0.2390413621
-0.007759685037
-0.2285257755
0.007870319566
0.2285162555
-0.007860799517
-0.2298941889
0.008458368739
0.2299640917
-0.008528271525
-0.003258057204
0.9758036977
-0.006512082856
0.9758821532
-0.009740811361
0.9758184797
-0.006592950562
0.9757183688
-0.006338500209
-0.486260706
0.487074716
-0.007406960523
-0.4860717151
0.008205161857
0.4868388792
-0.008972325992
-0.4856309164
0.009711994749
0.4863362947
-0.005252692241
-0.00516468085
-0.2422593147
0.005617599403
0.2424222499
-0.005780534557
-0.2411234797
0.0062373351
0.2412653366
-0.006379191925
-0.2393700852
0.006759416933
0.2394663854
-0.006855717078
-0.2285171246
0.006931209217
0.2285268554
-0.006940940048
-0.2301249473
0.007447436597
0.2301652631
-0.007487752386
-0.002979539315
0.978783237
-0.005947252398
0.9788498663
-0.008876372649
0.9787475999
-0.00599214084
0.9785884786
-0.005754341527
-0.4878181686
0.4885455647
-0.006719536925
-0.4875562574
0.007427227911
0.4882310195
-0.008101990032
-0.4869923226
0.008747267225
0.4876030328
-0.004720141673
-0.004637835682
-0.2428723626
0.005034399622
0.2430113853
-0.005173422304
-0.2416558472
0.005560980522
0.2417754365
-0.005680569779
-0.2397221172
0.005994608772
0.2397976238
-0.006070115379
-0.2285823673
0.006127938899
0.2286090971
-0.006154668693
-0.230255847
0.00658420741
0.23027763
-0.006605990474
-0.00271656753
0.9814998046
-0.005415756133
0.9815490549
-0.00806779052
0.9813996343
-0.005432379771
0.9811680919
-0.00521502409
-0.4892077907
0.4898576914
-0.00608228049
-0.4888625439
0.0067103396
0.4894572911
-0.007305086801
-0.4881722818
0.007869890293
0.4887034717
-0.004237501114
-0.004163579066
-0.2433968704
0.004509716811
0.2435164632
-0.004629309685
-0.2421064152
0.004961440797
0.242208339
-0.005063364599
-0.2399996358
0.005325587633
0.2400597873
-0.005385739161
-0.2287115108
0.005436491697
0.2287524786
-0.005477459504
-0.2303232943
0.005842514695
0.2303329893
-0.005852209689
-0.002472654539
0.9839724591
-0.004924165461
0.9840005658
-0.007323534174
0.983799003
-0.004919526398
0.9834872449
-0.004723160807
-0.4904481229
0.4910293735
-0.00550077701
-0.4900147073
0.006059254177
0.4905404604
-0.006585007285
-0.4891999177
0.007081388563
0.4896643527
-0.003804856637
-0.003740966934
-0.2438494315
0.004042017235
0.2439531438
-0.004145729516
-0.2424918276
0.004433044282
0.242579513
-0.004520729671
-0.2402220854
0.004741943253
0.2402708306
-0.004790688437
-0.2288933581
0.004840506134
0.2289457165
-0.004892864582
-0.2303489249
0.005204401212
0.230350506
-0.005205982348
-0.002250651661
0.9862231108
-0.004477748575
0.9862276627
-0.006650282604
0.985971537
-0.004456386063
0.9855757492
-0.004282400826
-0.4915566295
0.4920776215
-0.00497737815
-0.4910339917
0.00547543443
0.491500491
-0.005941933803
-0.4900995772
0.006380243686
0.4905079836
-0.003422369658
-0.003366280469
-0.2442431323
0.003630313907
0.2443338426
-0.003721024257
-0.2428245085
0.003971856608
0.2429006116
-0.004047959669
-0.240403575
0.00423653822
0.2404438322
-0.004276795479
-0.2291166787
0.004329045422
0.2291777598
-0.004390126537
-0.2303462471
0.004657902078
0.2303422396
-0.004653894579
-0.002051592641
0.9882747034
-0.004078200526
0.9882542706
-0.006049577657
0.9879429141
-0.00404363422
0.9874620109
-0.003892205104
-0.4925498258
0.493018371
-0.004512179421
-0.4919393236
0.004958085361
0.4923551435
-0.005373905255
-0.4908918887
0.005763032822
0.4912533112
-0.003087277498
-0.003037177837
-0.2445885132
0.003270827755
0.2446685357
-0.003350850183
-0.2431141174
0.003571755854
0.2431807336
-0.00363837201
-0.2405545739
0.003800878202
0.2405885344
-0.003834838678
-0.229371397
0.003891189723
0.229438985
-0.003958777751
-0.2303238408
0.004191119656
0.2303158539
-0.004183132691
-0.001875877581
0.990150581
-0.003726012519
0.9901044055
-0.005521378496
0.9897382801
-0.003680654539
0.9891728909
-0.003551604021
-0.4934428804
0.4938662189
-0.004103993023
-0.4927473122
0.004505214376
0.4931200243
-0.004877926478
-0.491594214
0.005225519761
0.4919162646
-0.002795295291
-0.002752275038
-0.2448940889
0.002958427621
0.2449652868
-0.003029625582
-0.2433683526
0.003225810683
0.2434271534
-0.003284611455
-0.2406829618
0.003426201017
0.2407122563
-0.003455495562
-0.2296492093
0.003516526547
0.229721436
-0.003588753167
-0.2302873103
0.00379256412
0.2302764651
-0.003781718947
-0.001723467104
0.9918740481
-0.003420875363
0.9918018138
-0.005064594096
0.9913819988
-0.003366634147
0.9907340393
-0.003259108316
-0.4942497725
0.4946345241
-0.003751385771
-0.4934726591
0.0041147105
0.4938090877
-0.004451139147
-0.4922208943
0.004764024836
0.4925096675
-0.002544795654
-0.002508002461
-0.2451669046
0.002690639425
0.2452308309
-0.002754565661
-0.2435934925
0.002930339213
0.2436458629
-0.002982709641
-0.240794645
0.003107546332
0.2408205094
-0.003133410665
-0.2299431382
0.003199101127
0.2300184432
-0.003274406206
-0.2302406665
0.003455570484
0.2302277886
-0.003442692563
-0.001593705293
0.9934677534
-0.003161213964
0.9933693225
-0.004676344092
0.992897129
-0.003098102306
0.9921684896
-0.003012692093
-0.4949832039
0.4953357729
-0.003450671326
-0.4941286572
0.003782319079
0.4944349055
-0.00408856731
-0.4927844146
0.004373052739
0.4930465912
-0.002334843803
-0.002300385557
-0.2454126352
0.002464054784
0.2454704771
-0.002521896651
-0.2437947103
0.002680729911
0.2438417902
-0.00272780977
-0.2408941194
0.002839266602
0.2409175017
-0.002862648933
-0.2302474155
0.002932676355
0.2303245156
-0.003009776489
-0.2301868605
0.003173184006
0.2301725659
-0.00315888946
-0.001486134803
0.9949538882
-0.002946184286
0.994829372
-0.004354854942
0.9943057996
-0.002875732143
0.9935006183
-0.002811251546
-0.4956554067
0.4959807618
-0.003201087237
-0.4947272102
0.003506542335
0.495008755
-0.003788087106
-0.4932977717
0.004049516246
0.4935399898
-0.002162530338
-0.002129203951
-0.2456358559
0.002276899153
0.2456887033
-0.00232974657
-0.2439763407
0.002474783217
0.2440191467
-0.002517589164
-0.2409848674
0.002618568772
0.2410065295
-0.002640230892
-0.2305573229
0.002714191719
0.2306352119
-0.002792080712
-0.2301281322
0.002941878944
0.230112898
-0.0029266448
-0.001400875574
0.9963547638
-0.002775163588
0.99620366
-0.004098904285
0.9956295403
-0.002690477724
0.9947424328
-0.00265024103
-0.4962755408
0.4965833953
-0.002998332253
-0.4952789578
0.003283892924
0.4955408143
-0.00354574949
-0.4937729772
0.003788056424
0.4939974678
-0.002019352305
-0.001993194713
-0.2458409933
0.00212597396
0.2458900833
-0.002175063896
-0.2441422752
0.002309347786
0.2441817301
-0.002348802664
-0.2410696957
0.002441829896
0.2410902596
-0.002462393802
-0.2308690901
0.002539894856
0.2309469592
-0.002617763914
-0.2300662503
0.002757398381
0.2300504599
-0.002741607977
-0.001335008418
0.9976897722
-0.002644404257
0.9975130558
-0.003904238758
0.9968893748
-0.002558501692
0.9959303815
-0.002533685825
-0.4968611567
0.4971491764
-0.002846521351
-0.4957934538
0.003113888868
0.4960395163
-0.003359951349
-0.4942147852
0.003587810155
0.4944258391
-0.001908669991
-0.001890194068
-0.2460323657
0.00200893571
0.2460785052
-0.002055075221
-0.244295991
0.002181011871
0.2443328752
-0.002217896057
-0.2411509152
0.00230511521
0.2411708959
-0.002325095859
-0.2311796617
0.002405806369
0.2312568291
-0.00248297373
-0.2300026591
0.002615239169
0.2299866408
-0.002599220895
-0.001297329534
0.9989871017
-0.002563471568
0.9987791978
-0.003782406641
0.9981083099
-0.002473508191
0.997069778
-0.002448294898
-0.4974121907
0.4976753863
-0.002736703752
-0.4962790098
0.002993057937
0.4965142555
-0.00322830367
-0.4946318628
0.003445901751
0.4948330851
-0.001828566788
-0.001818557212
-0.2462131193
0.00192429925
0.2462570636
-0.001968243594
-0.24444051
0.002087975013
0.2444755218
-0.002122986878
-0.241230518
0.002206338939
0.2412503822
-0.002226203183
-0.231486637
0.002309945079
0.231562581
-0.002385888986
-0.2299386001
0.002513097413
0.2299226498
-0.002497147117
-0.001255341975
-0.002493373196
-0.003683234844
-0.002422356237
-0.002361078461
-0.4979392466
0.4981980506
-0.002681160285
-0.4967435527
0.002923799562
0.4969707195
-0.003150966389
-0.4950323943
0.003361294714
0.4952245028
-0.001782559016
-0.001770844132
-0.2463860775
0.001871638232
0.2464285285
-0.001914089226
-0.2445785679
0.00202957641
0.2446123746
-0.002063383073
-0.2413104051
0.002144888928
0.2413306769
-0.002165160723
-0.2317882173
0.002251938796
0.2318627231
-0.002326444578
-0.2298751917
0.002450687795
0.2298594696
-0.002434965693
0.002731949211
-0.002837834401
-0.05236919347
0.002953032395
-0.003062448108
-0.05471921608
0.005155618325
-0.2148404836
-0.003180914093
-0.003238402355
0.1053568167
-0.00271994263
-0.1049330825
0.005028157635
0.02177161052
-0.2201733968
-0.01972428255
-0.003587907015
0.1097730972
-0.002950984664
-0.1093459788
0.005476898644
-0.002781308856
0.0051555066
0.1057570335
0.05333194873
0.002882891902
-0.002997739759
-0.05321710088
0.02635694636
-0.0002928985031
-0.02689732509
0.0008332772416
-0.02771516685
-0.0008158468939
0.00119823623
0.02733277752
0.005296557699
-0.005682918373
-0.112877584
-0.001349123251
-0.02793973368
0.001573690082
0.02715838229
-0.0008548463823
-0.02765265915
-0.002498986417
0.04756963282
0.003670647835
-0.02578925188
-0.02295204236
-0.0002135078722
0.0006409163141
0.02592953792
0.002892554004
0.0534413143
-0.003001919569
-0.02250222349
0.022345721
-5.700537184e-05
0.02405393036
-0.004518361009
-0.01201610914
-0.01001844663
0.02668291928
-0.0003403838838
-0.02287876054
8.363854131e-05
0.005027415609
0.02432103608
-0.02421789836
-0.001199467914
0.001618603457
0.02379876282
-0.05199734776
0.003300667531
0.0521296345
-0.003432954272
0.0524944915
0.003333204225
-0.05239633398
-0.001742031444
-0.0016893303
-0.05177317532
0.003141898451
0.0518281191
-0.003196842233
0.003256193115
-0.003328837325
-0.05192470355
-0.0007622191679
-0.02467408656
0.001218407375
-0.02490143405
-0.001116513497
0.001377403865
0.02464054368
-0.05136511289
0.002973547564
0.05144669988
-0.00305513455
0.00312078182
-0.003215804186
-0.05167815295
0.002921101893
-0.002988186759
-0.05129802802
-0.0009325090749
-0.02521183441
0.001242909436
0.02459326279
-0.0005099679857
-0.02501580388
0.02416875042
-0.0006920011259
0.003327753292
0.05256680635
-0.001718341268
-0.001681726872
0.05302342755
0.01368374485
-0.05281397097
-0.005205388759
-0.008687812676
-0.01232352261
0.02558876877
-0.02475291874
0.01148767258
0.01223638173
-0.01572068523
-0.008839219104
0.02371990758
-0.0236333051
0.004776382361
-0.02353322094
-0.005465343532
0.005356063639
0.02364250084
0.02375375894
-0.0002433438191
-0.02427263429
0.02693007477
-0.02142701127
-0.0004756478929
-0.005574662674
-0.02347488859
0.005516330327
-0.006365306921
0.01255223546
0.02074314624
0.02303782592
-0.0004835348857
0.02423528815
0.02463086202
-0.0246706835
0.01034615052
-0.006882443558
-0.2239717647
0.2261279016
0.009101649014
-0.005329265067
-0.1122936692
-0.1123100587
0.00547596708
0.1102069592
0.1115026406
0.00575767056
-0.006245746597
-0.1110145645
-0.005964261884
0.09485438943
-0.09562507192
0.006734944401
-0.002424757337
0.003728798716
0.04626559144
-0.004757901583
-0.02638682124
0.003668868529
0.0274758543
-0.02636027819
0.001962883927
0.02668335065
-0.00228595639
0.02667823538
0.001661612562
-0.001525442669
-0.02681440527
0.02595368518
-0.00432451215
0.07938720951
-0.009681412388
-0.07567005897
0.02624003708
0.0008731542761
-0.0004916976904
-0.02662149366
-0.02467598779
0.004227636583
0.02657083701
-0.006122485804
-0.03225451428
0.02382530876
0.03401797427
0.02384634549
0.05435164587
-0.01890789872
-0.006266665089
0.003384407674
0.05455024641
-0.003475361529
-0.05445929254
0.001612923233
0.02649651171
-0.001431199555
0.02596123559
0.001709498666
-0.001570248601
-0.02610048566
-0.0004220811658
0.02455024573
-0.02501170519
0.0008835406222
0.02454755826
0.02163582729
-0.02189708954
-0.0001608189127
0.01973446757
-0.003728894787
-0.01515690956
-0.0008486632221
-0.008448025867
0.04928157731
-0.04878131987
0.007947768429
0.002393275468
0.02373596184
-0.02001813256
0.02542390484
0.0004862227779
-0.0001043798697
-0.02580574775
-0.0308460247
0.02602338228
6.474083175e-05
-0.02551398729
0.00175367621
0.0255423311
-0.001782020018
0.001933915046
-0.002346463889
-0.02594772935
-0.005994217005
-0.02458499595
0.004192391715
-0.0005139208766
-0.02598702551
0.0009505320903
0.0255504143
-0.025820506
0.001614854122
0.02571387876
-0.001508226877
0.00169078221
-0.001637360094
-0.0255674094
0.0008411570598
0.02584197949
-0.0004430994745
0.003603802377
-0.004590024212
-0.02368976595
-0.001186239912
0.001597751601
0.02413873405
0.002030292819
0.02591622089
-0.001985278119
0.02684114727
0.009238457856
-0.009738977827
-0.02634062729
-0.00191727257
0.02451483612
-0.01958733758
-0.003010225964
-0.004288099756
0.008166476127
0.0158560912
0.02078462071
-0.0003350333242
-0.0165237225
0.0215836444
-0.004330470804
-0.0007294510888
0.01884736239
-0.004411195378
-0.01816506179
0.02366413745
-0.004953855945
-0.0237183594
0.005008077899
0.02505313091
-0.0001431469496
0.01374331459
-0.0008931493241
-0.02277775252
-0.005988461123
0.00570337511
0.02306283854
-0.004008190377
-0.01179796968
-0.0007175624422
-0.006202717175
-0.02261028717
0.006035251825
-0.0147580069
-0.02208223481
-0.02612232982
0.001659862706
0.02603335918
-0.001570892061
0.00155505462
-0.001493263655
-0.02588229697
-0.02642989531
0.0009290925778
-0.02563061796
0.003013229272
0.02684502527
-0.02568566295
0.001738119842
0.0258389367
-0.00189139359
0.001580040531
-0.001640914083
-0.02606145627
-0.02389876903
0.02306817627
-2.42536184e-05
0.002327187627
-0.02622732831
1.371648104e-06
-0.02770257925
0.002377107727
0.02213447205
0.0001094774285
0.0001017715141
-0.0001074516468
0.02622912914
0.0005612417798
-0.02277031975
0.02253486925
0.0001279988555
-4.252736584e-05
-0.02375031856
0.0008272834721
4.42745535e-05
-0.02541339854
0.001536103189
0.02541621527
-0.001538919914
0.001682420574
-0.00183895171
-0.02552913182
-0.02476020457
0.002733388991
-0.02618200335
0.001160900141
0.02586226027
-0.02552250571
0.001480877236
0.02548777133
-0.001446142855
0.001512697295
-0.001495021245
-0.02543107459
-0.02465009355
0.02425293354
-0.0001128079778
0.0004421426762
-7.548799837e-05
-0.02501674822
0.0008582268632
-0.02543188807
-0.001164663929
0.02378461392
0.001548800429
-0.02376379663
0.0230848329
-0.0004857001989
-0.000202864219
0.006819760224
-0.00737732836
-0.0241953506
0.02567068247
-0.02513930907
0.006288386828
0.02667445737
0.01048389768
0.0002012080721
0.004059170209
-0.004260378276
-0.01871775059
-0.004380262998
0.004901977985
0.02367775016
0.01916236419
-0.004603101555
0.0204401274
-0.002141682942
-0.02021571703
-0.02173289617
0.02145967728
2.987506599e-05
0.0002058375643
-0.02189728717
-4.144655577e-05
-0.02467612501
0.0006093282792
-0.01794166402
-0.0004955808559
0.01359038489
-0.001038149427
-0.004864843917
0.01907947123
-0.0006242424195
0.0219685562
-0.006090253881
-0.001469545472
0.02220571559
0.002301655798
-0.02090168615
0.01941953951
1.26011651e-05
7.445624912e-05
0.02469311748
-0.02469417286
0.02250317196
0.0001974501237
-2.401925854e-05
0.02238308014
0.0001601676068
-4.007578392e-05
0.01499284021
-0.01500333595
1.049573703e-05
-0.004787982057
0.003656239815
-0.03102074473
5.434364145e-06
-0.02215039032
0.01992655933
0.02759965105
-0.02068506311
0.0271580525
0.001524735039
-0.001412520445
-0.02727026709
-8.847835903e-05
0.02328195572
-0.0240411777
0.0008477003376
0.0006104996065
-0.0001437926053
-0.02547841219
0.02569558223
-0.026159562
0.001074479381
0.02528108024
0.00129804261
9.358990555e-05
-0.01084026454
-0.003377560066
-0.0009390849472
-0.009517843734
-0.001322420807
0.01193945882
-0.001493650571
-0.0105342866
0.01657676634
-0.004197550134
-0.01641425214
0.00403503594
0.003008243087
0.003560802172
0.01794579087
-0.02234272998
0.02219804627
4.030384058e-05
5.556549381e-05
0.0001365737708
0.0004789468918
0.002384433772
-0.0001113700511
0.02194739343
-0.02209025417
6.737274431e-05
0.02178556493
4.902052313e-05
0.0222383294
9.552694476e-05
4.922379215e-05
6.493548564e-05
8.313974524e-05
-0.0222651338
-0.004475280725
0.002297719699
-0.001478020599
0.002392567669
0.01950714245
-0.0210127493
2.758625398e-05
2.852577642e-05
0.02153954831
4.315239745e-05
4.109881143e-05
0.02502377063
0.001855061211
-0.003421989405
0.003306450963
-0.003478605957
0.0007913615221
-0.01659085354
-0.003787845559
0.01603429885
-0.01310489891
-0.002138038414
0.01322528096
0.009661681659
-0.00149520553
-0.002143505799
-0.00129971145
-0.002878268138
-0.001411735842
-0.004857383627
0.01692318429
-0.01999961477
-0.005178011814
0.02032024295
-0.01935054624
-0.004979539326
-0.0001712505793
0.000548256487
-0.02205276424
-1.577351607e-05
2.135088745e-06
-0.0005524408713
-0.01781803736
0.0233165153
-0.004780029415
-0.0007184485256
-0.01268076155
-0.004426118086
-0.000711157717
-0.01813796866
-0.005220767957
0.01065942223
-0.00548087559
-0.001138547447
-0.01164198165
-0.001038779893
0.005278973559
-0.005920704525
0.02494812518
-0.0005896803944
0.01934139536
-0.01501929614
0.0002612892459
0.004411153237
-1.090986596e-05
0.004534634023
0.007378398735
-0.007371088147
-0.1891270501
-0.003610305393
0.1705946821
-0.174524167
0.007590274693
-0.002797747982
-0.1736129038
-0.001560807218
0.1823030799
-0.1824041499
0.001701081065
-0.00178937272
-0.1885486558
0.2136654225
-0.2120751167
0.003569381509
0.0211381777
-0.02032095626
-0.1851975489
-0.01796985305
0.1706514973
-0.1712938485
0.01866591465
-0.001697344508
0.1733863006
-0.01743539721
-0.1711591558
-0.01734296447
0.1839553611
-0.1836485988
0.01707610204
0.001679041936
0.1830456789
-0.01795137103
-0.1913698104
0.2207424349
-0.2192190582
0.02025004181
0.003744726979
0.2153389512
0.2186951148
0.005545394938
-0.003422271701
-0.003429723841
0.108569041
-0.004145010513
-0.1082083244
0.003784293916
-0.1071305413
-0.004013786612
0.003657272596
0.1074870553
0.05289131871
0.002832764171
-0.002951336348
-0.05277274653
0.05230032697
-0.05220413353
0.003159999682
-0.05195367993
0.003057839168
0.05203773922
0.01702416647
-0.01896157343
-0.1867138007
-0.02253605671
0.1715053464
-0.170675897
0.02175786146
0.01075782631
0.1703113951
-0.02286169946
-0.1699936436
-0.02086463593
0.1801845252
-0.1813256516
0.02204806535
0.008619790218
0.1833353423
-0.019132326
-0.1887368804
0.2123961412
-0.215943242
0.01390438321
0.005934983046
0.2206841116
-0.007047153891
0.2242221221
0.005817222778
0.223721431
-0.004194213886
-0.1112204402
-0.1111084847
-0.00424544615
-0.1103794626
-0.004277137158
0.003916262275
0.1107403375
0.1105443988
0.005887276802
-0.003176845896
-0.003170081603
0.0552219915
-0.003484734753
-0.05504597578
0.003308719034
-0.05466600291
-0.003406368018
0.003293839435
0.05477853151
0.02063753198
-0.02532953476
-0.1986730634
-0.03690542223
0.1808443695
-0.1774739871
0.03357684873
0.02528028881
0.1728680945
-0.03957695721
-0.1745639927
-0.04302920209
0.1786272177
-0.1782336623
0.04267808058
0.02714099132
0.1791717766
-0.04257440927
-0.1828997777
-0.03697225486
0.1997105631
-0.2021567387
0.03944246913
0.018927367
0.2087125738
-0.03412934275
-0.2088171151
-0.02625383824
0.2217638595
-0.2240991595
0.0285950198
0.008505795896
0.2273978117
-0.02274614144
-0.2233119157
0.01286801224
-0.01990895586
-0.2213783315
-0.03999024
0.2019505435
-0.1955668873
0.0336318951
0.03508773269
0.1849811621
-0.0458239716
-0.1901488422
-0.0591913402
0.1883181538
-0.1845865248
0.05549362376
0.04726237041
0.1797671902
-0.06209656258
-0.1859968402
-0.0665617868
0.1980146609
-0.1971057432
0.06567864446
0.04697597718
0.1979968679
-0.06703951322
-0.2023226188
-0.06276559232
0.2110294284
-0.214122571
0.06586894898
0.03904931446
0.219486328
-0.0605177712
-0.2088994366
0.009400750535
-0.009815254688
-0.2365235694
-0.02244239945
0.2325785612
-0.2244238372
0.01429263577
0.03074542227
0.2089633898
-0.03042323603
-0.2174100846
-0.05191163059
0.2110168952
-0.2043644195
0.04527683078
0.05553946351
0.1929050922
-0.05791460852
-0.2028008327
-0.07173929346
0.209596767
-0.2057494002
0.06790900855
0.06927907033
0.1998158035
-0.07426385751
-0.2082736836
-0.07480400909
0.2058479767
-0.2052233279
0.07418644447
0.0713273756
0.208141672
-0.07786665798
-0.209088812
0.00866749108
-0.00901237945
-0.2380748485
-0.01004254754
0.2378469998
-0.2375055888
0.009701136588
0.01042033234
0.236763282
-0.01038052
-0.2372542423
-0.01519634222
0.236724883
-0.2328265066
0.01129923953
0.03820525106
0.218091665
-0.02188053718
-0.2291232547
-0.03878794047
0.2276200261
-0.2228921735
0.03406507866
0.06277813051
0.2138140691
-0.04214854781
-0.2194498737
-0.05051667314
0.2169663335
-0.2137102807
0.04726290907
0.07074190693
0.2077436315
-0.05297509712
-0.2215820101
0.007898271232
-0.008184937046
-0.2393651478
-0.009023471641
0.2390415747
-0.2387664745
0.008748371448
0.009460560567
0.2381702059
-0.009293636203
-0.238498734
-0.01007317578
0.2378479974
-0.237594334
0.009819512299
0.01072976285
0.2370333069
-0.01031083971
-0.2372994377
-0.01063334692
0.2340625127
-0.2340552839
0.01062611813
0.02091209819
0.2324111605
-0.01056867391
-0.2288519744
-0.01143341687
0.2242390333
-0.2237640672
0.0109584508
0.03521528452
0.2200290044
-0.01168284465
-0.2285659284
0.007144786694
-0.007383802245
-0.2404389697
-0.008071603443
0.2400098399
-0.239785966
0.007847729482
0.008519404633
0.2393026508
-0.008289910237
-0.2394972732
-0.008903707287
0.2387106529
-0.2385152427
0.008708297132
0.00953248696
0.2380851381
-0.009079414216
-0.2381487924
-0.00927498835
0.234044971
-0.2340546445
0.00928466192
0.01026953222
0.2340639909
-0.009240247372
-0.2286487671
-0.009973216088
0.2257551561
-0.2254214182
0.009639478182
0.01061939832
0.2246676717
-0.01011004334
-0.229362346
0.006433585002
-0.0066339951
-0.2413363001
-0.007203872815
0.2408036086
-0.240619179
0.007019443175
0.00763492457
0.2402229256
-0.00738269214
-0.2403080163
-0.007874393548
0.2393838894
-0.2392302093
0.007720713394
0.008451635564
0.2388943887
-0.008007665928
-0.2387834375
-0.008130976171
0.2339902506
-0.2340051154
0.008145840977
0.008984685429
0.234033024
-0.008116443
-0.2285403087
-0.008739245349
0.2268550756
-0.2266116085
0.008495778272
0.009338852938
0.2260634423
-0.008819168159
-0.2298142661
0.00577503736
-0.005944155473
-0.2420901966
-0.00642110461
0.2414621223
-0.2413083948
0.006267377099
0.006822448958
0.2409795952
-0.00656947392
-0.2409751104
-0.006969180603
0.2399182802
-0.2397956128
0.006846513193
0.007489984183
0.2395289381
-0.007071788447
-0.2392674774
-0.007154110665
0.2339347571
-0.233947361
0.007166714543
0.007885154748
0.2339754155
-0.007159206998
-0.2285120283
-0.007687230888
0.2276575626
-0.2274800917
0.007509759992
0.008233385383
0.2270800589
-0.007733669253
-0.230078509
0.005174239632
-0.005318136614
-0.2427284656
-0.005721536401
0.2420150245
-0.2418853896
0.005591901501
0.006090204816
0.2416092526
-0.005846180458
-0.2415312032
-0.006175184989
0.2403480377
-0.2402489478
0.006076095101
0.006643273002
0.2400344241
-0.006255294603
-0.2396420076
-0.00631631134
0.2338987405
-0.2339052844
0.006322855249
0.006942538469
0.2339234279
-0.006339036787
-0.2285596418
-0.006786499138
0.2282413555
-0.2281124598
0.006657603418
0.007283573772
0.2278214255
-0.006812173681
-0.2302301724
0.004634785495
-0.004758291246
-0.2432733646
-0.00510313127
0.2424846515
-0.2423740658
0.004992545613
0.00543649099
0.242139514
-0.005209083775
-0.2420004627
-0.005483059041
0.2406977956
-0.2406167747
0.005402038138
0.005900466192
0.2404421803
-0.005546612495
-0.2399360823
-0.005598403436