/*--------------------------------*- C++ -*----------------------------------*\
| =========                 |                                                 |
| \\      /  F ield         | OpenFOAM: The Open Source CFD Toolbox           |
|  \\    /   O peration     | Version:  v2012                                 |
|   \\  /    A nd           | Website:  www.openfoam.com                      |
|    \\/     M anipulation  |                                                 |
\*---------------------------------------------------------------------------*/
FoamFile
{
    version     2.0;
    format      ascii;
    class       volScalarField;
    location    "1.22";
    object      k;
}
// * * * * * * * * * * * * * * * * * * * * * * * * * * * * * * * * * * * * * //

dimensions      [0 2 -2 0 0 0 0];


internalField   nonuniform List<scalar> 
3019
(
45.16778552
53.29259806
46.8662252
43.04880275
40.65827137
38.91961732
37.46828293
36.57930665
35.74006541
35.3132875
35.09885526
35.01220502
55.27146833
53.25943485
47.18549573
43.41752155
40.90616359
39.06547674
37.54532425
36.60817533
35.71940129
35.26113693
35.0236024
34.92662334
55.42421025
52.70213921
47.24444466
43.58111361
41.03835401
39.14237887
37.58793877
36.62305992
35.69555102
35.21347111
34.95710211
34.85189989
53.2675681
51.82511137
47.08103158
43.59916688
41.04848392
39.15343575
37.59608486
36.61883227
35.6591378
35.16181873
34.89290952
34.78128339
50.89522567
50.89320664
46.69025726
43.42240159
40.96719767
39.12181753
37.57623927
36.58742606
35.60995956
35.10492976
34.82613649
34.70961582
48.76121386
49.88486479
46.14707131
43.08971784
40.78058837
39.02360372
37.50406947
36.5219027
35.54048431
35.03369645
34.75180035
34.63196937
47.20329498
48.8155316
45.5170026
42.69971818
40.54310906
38.87111193
37.39494239
36.42923882
35.45428388
34.95059141
34.66809763
34.54685734
46.0097524
47.78645343
44.91217694
42.31410862
40.28433828
38.68749668
37.25961489
36.31477338
35.35210209
34.8544316
34.57325609
34.45151542
44.88770882
46.8498223
44.35326068
41.94402866
40.01963017
38.48755551
37.10600947
36.18355186
35.23747763
34.74825721
34.46976646
34.34819684
43.82459576
45.99121714
43.83227843
41.59272466
39.75700994
38.28023644
36.94038628
36.03994198
35.11129666
34.63101597
34.35571505
34.23471358
42.82288423
45.19900159
43.3436319
41.25925684
39.50052864
38.07080837
36.76747008
35.88755832
34.97815117
34.50786462
34.23619447
34.11601306
41.88186588
44.46379565
42.88301624
40.94129435
39.25175789
37.8624128
36.59066429
35.72934653
34.83711583
34.37573676
34.10744461
33.98815234
40.99947974
43.77758602
42.44689323
40.63681997
39.01090655
37.65685051
36.41233077
35.56750125
34.69395823
34.24231146
33.97754321
33.85918587
40.17268142
43.13353128
42.032228
40.34427489
38.77757893
37.45500667
36.23402296
35.40372461
34.54447327
34.10036788
33.83852704
33.72102422
39.39559503
42.52762343
41.63650324
40.06243536
38.55125348
37.25725673
36.05676061
35.23913836
34.39740752
33.96231922
33.70359333
33.58691949
38.66390034
41.9556298
41.25760188
39.79023653
38.3313759
37.06366195
35.88115594
35.07469366
34.24293861
33.81353067
33.55716069
33.44119169
37.97457015
41.41567679
40.89381361
39.52678017
38.1174449
36.8741546
35.70759096
34.91082135
34.09655876
33.67563456
33.42195088
33.30664512
37.3247056
40.90381761
40.54369449
39.27125905
37.90897661
36.68857397
35.53628482
34.74817237
33.93791128
33.52063973
33.26883269
33.15408047
36.71196601
40.41658961
40.20610085
39.02298979
37.70553592
36.50674155
35.36737555
34.58672332
33.79679753
33.38776677
33.13821366
33.02396268
36.1345812
39.95156722
39.8801693
38.78142524
37.5067496
36.32846728
35.20095087
34.42718727
33.63177949
33.22456283
32.97661933
32.86280789
35.59107347
39.50698104
39.56515382
38.54608199
37.31226085
36.15350219
35.03712723
34.26912887
33.50258391
33.10305756
32.85682161
32.74337496
35.08041707
39.0821304
39.2604766
38.31658509
37.12180623
35.98176199
34.87633918
34.11403829
33.32411439
32.92618187
32.68159704
32.56852205
34.60229144
38.67638559
38.96570525
38.09261516
36.93516
35.8130703
34.71997817
33.9619551
33.21891207
32.82503575
32.58143004
32.4685759
34.15910603
38.2927699
38.68226542
37.87465457
36.75251381
35.64748288
34.57250703
33.81892188
32.98884033
32.59761004
32.35587743
32.24342205
41.02264155
44.18503229
54.73021239
50.93685993
41.34860274
54.83145917
55.18762407
54.75259314
53.13967039
51.33689678
57.46524374
47.46723451
46.73470568
50.83958722
57.76487403
57.55603696
39.20470183
43.27608506
39.17060198
39.65828316
53.95822515
44.16223996
55.93334094
54.52028657
55.09632512
55.43010336
54.3907792
40.10141735
57.89337532
57.8233267
51.43411518
51.71196615
65.93157111
39.67855543
40.6887419
49.53294678
51.11114252
42.52554236
39.5323665
53.67371721
66.08373409
42.67515395
50.38152376
72.91422993
39.70901869
41.46802899
39.32098047
39.52510334
64.78225407
68.6603339
39.44188013
65.97545035
57.45937846
53.91405832
48.07742168
39.85388911
41.49665577
39.67910979
47.12474056
40.59504432
39.27411892
45.46723788
69.62782459
72.6199799
74.31974268
62.0608258
71.18721282
39.68317266
39.36818517
62.8359433
56.3503711
63.94113651
59.38578245
69.06098494
68.90866276
67.21206705
44.51610651
60.31786283
53.77273507
67.65649288
69.24190157
47.42764089
51.10478704
55.77577753
71.5253936
58.83109707
45.33066914
47.52550067
64.50716607
47.86099967
50.77732197
42.95311813
45.35779833
65.8176885
46.71353635
43.71284685
42.95005137
41.0892846
40.57574618
39.25550919
47.90420492
56.40373634
55.76068353
53.32513425
48.40346883
48.21867167
47.11659952
44.12692363
43.81878463
43.33778216
41.39659071
41.18138311
40.85600677
39.44781049
39.30797167
55.66407497
57.50862106
57.8647068
52.89173297
48.46294714
48.47819253
47.24825134
44.34061384
44.19588121
43.55798041
41.58443134
41.45970034
41.01892884
39.55759323
39.48043639
49.66215577
49.54048959
53.83894246
53.34950247
54.23728489
52.05169482
48.25364461
48.44185447
47.15027424
44.38308924
44.36097623
43.60698629
41.62202601
41.60285247
41.05458201
39.57836032
39.56894302
47.67714642
49.31631438
51.48794595
52.17587539
53.05555521
51.13147871
47.81046163
48.15878227
46.80400431
44.22130236
44.36709296
43.48378914
41.55880518
41.6162566
40.99981919
39.54978583
39.57509523
45.28567059
47.05056854
49.24524209
50.96001727
51.87773614
50.14532573
47.21871472
47.67539004
46.29440126
43.88038981
44.15007944
43.18337609
41.36061148
41.51945964
40.83363375
39.45364969
39.5331553
43.65556847
44.78784526
47.54150377
49.71508107
50.64862174
49.08386634
46.52086118
47.05157387
45.67613955
43.44426026
43.77576635
42.79752856
41.10059657
41.29922388
40.60531948
39.29598989
39.41863349
42.73871284
43.3874143
46.29946174
48.52373573
49.40893371
48.03454166
45.81881383
46.3399318
45.05872829
43.01037175
43.33414115
42.40931655
40.81821975
41.0311799
40.35002338
39.10364903
39.25036105
41.88874806
42.52824639
45.16259027
47.43862332
48.24272406
47.07612911
45.17300307
45.65244925
44.48916227
42.59822118
42.90509421
42.03481924
40.53129452
40.74646163
40.08583841
38.89317185
39.05226282
41.03435233
41.67441135
44.08471027
46.44716998
47.18240481
46.19923515
44.57455244
45.019253
43.95930239
42.20992661
42.49896035
41.67879606
40.24864102
40.46000833
39.82219446
38.67495224
38.83907645
40.18102975
40.82112045
43.06755245
45.5386435
46.21271165
45.39137343
44.01660354
44.43150019
43.46301052
41.84312871
42.11634194
41.34107722
39.97438866
40.17920224
39.56395513
38.455137
38.62000563
39.34221559
39.96920673
42.11154234
44.70173128
45.32313596
44.64268883
43.4935484
43.88276787
42.99574295
41.4946205
41.75439803
41.0194491
39.70979063
39.90732742
39.31319924
38.23721693
38.40041121
38.53338537
39.13696114
41.21461198
43.92652615
44.502442
43.94503298
43.00068556
43.36766772
42.55380154
41.1619381
41.410045
40.71176538
39.45462027
39.64513905
39.07039341
38.02305785
38.18330209
37.75999839
38.33666826
40.37452535
43.20823781
43.7420128
43.29079957
42.53405704
42.88170748
42.13402508
40.84322719
41.08101272
40.41636118
39.20813286
39.39221481
38.83523126
37.81347133
37.97023639
37.02382287
37.57250813
39.58547889
42.53684771
43.03634266
42.67575953
42.09043511
42.42110784
41.73378111
40.53701065
40.76555393
40.13195204
38.96957796
39.14777806
38.60720851
37.60871645
37.76184558
36.32550836
36.84574966
38.84276191
41.90508227
42.37541713
42.09573091
41.66717274
41.98280052
41.35085688
40.24200595
40.46225214
39.85743914
38.73825679
38.91109324
38.38577314
37.40874484
37.55829549
35.66475861
36.1569319
38.14310734
41.30726918
41.75275051
41.54784768
41.26212555
41.56426772
40.98342821
39.95710505
40.16986447
39.59187087
38.5135428
38.68147458
38.17039719
37.21337241
37.35948752
35.03990775
35.5052882
37.48360914
40.73969508
41.16260602
41.02936892
40.87354607
41.16349865
40.63000965
39.68136938
39.8873451
39.33443424
38.29488778
38.45833057
37.96060552
37.02237233
37.16523444
34.45016268
34.88930239
36.86174977
40.2003694
40.60233395
40.53621819
40.50002462
40.77880191
40.28937309
39.41398007
39.61376721
39.08440689
38.08178003
38.24110809
37.7559439
36.83548485
36.97528489
33.89498179
34.30830849
36.27561342
39.68710209
40.06967282
40.06588728
40.14051864
40.40887291
39.96060143
39.15429715
39.34835909
38.8412153
37.87379513
38.02931838
37.55602977
36.65246896
36.78938661
33.37356289
33.76181986
35.72353036
39.19847673
39.56271405
39.61622229
39.79409305
40.05272044
39.64291568
38.90176615
39.09051281
38.60435451
37.67053645
37.8225504
37.36049431
36.47303593
36.60729179
32.88480621
33.24917306
35.20397847
38.73328685
39.08008137
39.18646456
39.46005736
39.70945124
39.33569967
38.65595387
38.8396986
38.37342981
37.47169599
37.62042179
37.16905441
36.29702137
36.42872121
32.42683009
32.76976554
34.71492962
38.29036966
38.62085423
38.77523574
39.13772622
39.37843353
39.03836947
38.41646476
38.59550481
38.14808488
37.27700527
37.4226428
36.98146869
36.12426961
36.25353867
31.99630787
32.3233637
34.25254914
37.86610439
38.18472179
38.37971158
38.82533016
39.05920125
38.74959846
38.18263307
38.35758526
37.9277716
37.08612757
37.22896435
36.79744517
35.95457768
36.08157412
31.5668124
31.91167302
33.7879584
37.43265911
37.77450142
37.97382293
38.50206189
38.75349175
38.450181
37.93948322
38.12657289
37.69865681
36.88783543
37.03961824
36.60638121
35.77867353
35.91293842
40.54571107
39.27825753
39.42412179
49.14077326
48.27429598
43.18214536
54.63933717
57.25429508
57.36674054
49.90937117
41.12773232
39.45394037
39.21518367
41.54082209
57.23449337
57.08119582
53.23010654
54.76011224
57.45326256
57.41524381
57.39527304
57.45456654
54.76858051
52.0619649
50.71612497
57.387168
56.15803777
56.7077177
55.94158751
57.38578851
39.39207719
39.52518551
43.27529486
43.9975561
48.24822119
45.89821375
41.78710723
42.5019541
57.14818666
56.59848822
48.75785476
57.7004886
57.46667507
57.60101487
56.85831347
57.33193066
57.6286887
39.4062894
39.25514316
39.20831361
42.77392363
43.9419575
55.77031787
42.41459161
39.22494231
39.25079
39.22824953
40.05653137
39.64115921
45.38127467
44.3069862
39.28663456
53.48524092
49.60325599
50.40238698
48.73332845
52.95121085
40.46225749
41.07652568
45.03543908
41.07598033
41.82580282
40.06878377
39.81397658
56.93513778
57.35526017
55.61482062
54.77285617
56.44241823
56.10265838
57.32029721
56.70120239
54.964968
55.13621139
52.46614907
53.01095058
51.155984
51.82514048
54.76785714
42.22176445
47.34163325
46.37255035
57.8925048
57.82507925
57.86228662
57.6947437
57.76958043
57.86283914
52.72732387
56.95064233
56.7136407
51.36871921
44.78187396
45.16036576
40.05902397
44.76957819
42.64308918
40.85766097
40.52339131
41.94492438
41.52416224
40.5278647
48.80120702
44.83203823
45.40175712
47.16514401
40.56961115
41.50645381
39.59781644
39.98005345
44.22789985
39.34208291
39.17814953
39.12711218
40.07136944
43.75878776
42.29870272
49.43311182
45.88688317
40.61896003
39.38283294
40.22144235
39.92796883
41.33374391
40.64899966
39.39006122
41.40420773
40.59750547
39.30370837
51.38739739
51.30319595
53.66623411
47.97765453
49.53967932
49.64107276
39.13790464
39.1792118
40.1810232
40.67434101
39.24640347
39.38197855
39.14702471
39.2020401
40.0973864
39.90857186
39.7620441
39.32462775
44.26719304
41.74915597
41.60807696
41.02089467
43.84848356
40.24932712
40.60968291
39.54235098
39.60541563
39.61754787
39.74025885
39.62879051
39.43789571
38.87484211
37.98216293
37.41971064
36.95427978
36.56339714
36.22676459
46.10731336
50.70699955
49.95757376
53.31910857
51.50138393
51.45140126
46.94804887
45.80932613
45.70230599
43.1747795
42.47016474
42.36641419
40.72357675
40.23541076
40.17315888
39.03723264
38.10560508
38.04961204
37.51070278
37.01547893
36.98617217
36.59766435
36.23710044
36.23375331
55.5176742
57.33547836
57.33682576
53.15715322
51.4864675
51.53639949
47.23354414
46.1189509
46.05066048
43.46570032
42.75345365
42.70556507
40.95494476
40.43775481
40.3934208
39.12950502
38.18291948
38.1484941
37.57174141
37.05526202
37.03792566
36.61897815
36.24003425
36.24065455
54.91466479
55.9798522
56.46633706
52.49387872
51.06844877
51.21210212
47.23391034
46.18204898
46.17923462
43.59399158
42.87990389
42.86729273
41.049744
40.52463866
40.5137999
39.15483808
38.21505627
38.20353731
37.5982274
37.07179779
37.06679891
36.62302056
36.23115935
36.23799714
52.68158883
53.9780073
54.47889054
51.59650946
50.38829923
50.56806352
47.0002125
46.03442165
46.09771307
43.57351719
42.87095919
42.88780913
41.03751164
40.51116641
40.5212867
39.13473834
38.205513
38.21301989
37.59152255
37.06589959
37.0704825
36.61075098
36.20269008
36.22110662
50.31848581
52.00572545
52.49128768
50.64976074
49.61513044
49.81736286
46.56691909
45.67085302
45.77758363
43.35103061
42.6817622
42.74434765
40.92782842
40.42156493
40.45375879
39.05499231
38.15599573
38.18903864
37.54562086
37.02151214
37.04947953
36.56228492
36.14983683
36.18083597
48.31653776
50.19448121
50.62096635
49.62018357
48.74158118
48.96879948
45.99396406
45.16403662
45.3003443
42.99305931
42.36593515
42.45036218
40.72449552
40.24667004
40.29584693
38.913211
38.051211
38.10918378
37.45340607
36.93712007
36.98279112
36.48165998
36.07232614
36.11490941
46.88849662
48.68865527
49.03782157
48.54923704
47.80722657
48.04063231
45.36100918
44.60242043
44.74037053
42.60227863
42.01936856
42.1065773
40.4796363
40.02746019
40.08485952
38.73551162
37.91032037
37.98429651
37.33003993
36.82414543
36.88321701
36.37668875
35.97397374
36.026699
45.72360153
47.39663607
47.70749291
47.5441958
46.92551406
47.13830826
44.76849065
44.07590671
44.20382508
42.21990465
41.6732396
41.75902796
40.21831212
39.78814232
39.84901574
38.53851678
37.74692167
37.83079041
37.18468082
36.69043145
36.75911185
36.25267288
35.85808826
35.91923876
44.61637544
46.21949512
46.50415894
46.62834568
46.11964989
46.31471727
44.21969942
43.58653882
43.7057501
41.85442157
41.33785317
41.42040757
39.95356101
39.54189621
39.60364516
38.33239428
37.56989486
37.65969085
37.0243763
36.54212789
36.61753971
36.11430095
35.72841297
35.79606629
43.56840597
45.14113732
45.4021078
45.78733563
45.37766371
45.55774341
43.70726648
43.12825074
43.24020263
41.50777145
41.01707213
41.09585132
39.6922182
39.29605629
39.357224
38.12311053
37.38520145
37.47821617
36.85460379
36.38387056
36.46382452
35.96555166
35.58818676
35.66077686
42.58206364
44.1488528
44.3895857
45.01018464
44.68975804
44.85712643
43.22600071
42.69622537
42.80197471
41.17840229
40.71096714
40.78619095
39.4375892
39.05454221
39.11439202
37.91423326
37.19693301
37.29131667
36.67938608
36.21919848
36.30202457
35.80967523
35.44056966
35.51650125
41.65570698
43.22994632
43.45332303
44.28795995
44.04799126
44.20447435
42.7718152
42.28697998
42.38731089
40.86397816
40.41803174
40.49011939
39.19081189
38.81913716
38.87737277
37.70784782
37.00783306
37.10235947
36.50157546
36.05078446
36.13523466
35.64921536
35.28760894
35.36597646
40.78786404
42.37228902
42.58154787
43.61277332
43.44599853
43.59308511
42.34132317
41.89778543
41.9933383
40.56261801
40.13670351
40.20602261
38.95188935
38.590365
38.64693818
37.50502172
36.81963584
36.91354671
36.32309851
35.88054778
35.96573679
35.48609125
35.13159197
35.21120077
39.9739737
41.5674397
41.76395065
42.97864807
42.87846268
43.01734342
41.9316102
41.52629165
41.61761656
40.27285478
39.86569106
39.93253411
38.72036216
38.36810703
38.42307637
37.30623513
36.63338094
36.72621946
36.14521532
35.70984318
35.79514387
35.32168257
34.97327967
35.05391468
39.2085733
40.8109403
40.99577294
42.38161693
42.34146912
42.4730382
41.54027453
41.17052961
41.25809252
39.99351966
39.60397449
39.66858285
38.49570014
38.15203816
38.20549849
37.11161048
36.44965087
36.54117847
35.96872013
35.53958259
35.62458287
35.15700736
34.81456806
34.89513648
38.48774283
40.09992763
40.27358625
41.8177239
41.83176176
41.956829
41.16529938
40.82880815
40.91299977
39.72358583
39.35066128
39.41324279
38.2773546
37.94173922
37.9937945
36.92109187
36.26873712
36.35883249
35.79409743
35.37039193
35.45480813
34.99272787
34.65497728
34.73599686
37.80852594
39.43059463
39.59425209
41.28525042
41.34630119
41.46548421
40.80505121
40.49973726
40.580888
39.46218357
39.10499514
39.16573398
38.06483235
37.7368056
37.78755947
36.73454895
36.09076582
36.17938417
35.62163633
35.20266774
35.28631648
34.82938683
34.49676975
34.57677963
37.16811314
38.7990641
38.95358052
40.77979408
40.8833847
40.9971034
40.45815115
40.18212705
40.26051586
39.2085285
38.86628489
38.92534791
37.85765467
37.53682535
37.5863808
36.55179883
35.91573708
36.00289735
35.45149065
35.03669381
35.1194644
34.66724307
34.33790048
34.4184427
36.56434149
38.20266675
38.34859983
40.29835739
40.44132537
40.54997244
40.12355559
39.87506289
39.9508842
38.96198964
38.63396702
38.69147578
37.65541686
37.3414451
37.38987856
36.37266172
35.74359528
35.82934326
35.28374133
34.87261747
34.95446461
34.50664742
34.18211285
34.26065656
35.99543312
37.63936095
37.77723984
39.83852237
40.01919357
40.12287666
39.80041904
39.5777959
39.65122918
38.72202291
38.40754607
38.46362216
37.45773659
37.15031692
37.19771837
36.19688154
35.57431442
35.65871811
35.11834052
34.71051224
34.79154057
34.3475287
34.02463933
34.1046482
35.45981138
37.10730809
37.23769442
39.39894281
39.61575321
39.71497901
39.4880355
39.28971014
39.36089743
38.48817307
38.18660337
38.24134279
37.26427763
36.96312793
37.00956742
36.02434335
35.40771083
35.49115861
34.95506162
34.5501539
34.63082741
34.19003031
33.87249912
33.94935053
34.95583141
36.60474036
36.72862966
38.97862767
39.22922404
39.32443257
39.18584175
39.01031037
39.07937823
38.26008215
37.97081221
38.02429423
37.07479426
36.77966468
36.8251927
35.85488615
35.24295927
35.32683637
34.79316586
34.3909073
34.47288468
34.03318503
33.71516248
33.79713869
34.480829
36.12899031
36.24953275
38.5759408
38.85792194
38.95030796
38.89314019
38.73902335
38.80626682
38.03738878
37.75985202
37.81218178
36.88905489
36.59972133
36.64439374
35.68826133
35.07736118
35.16691556
34.63008028
34.23023805
34.31896167
33.87497851
33.56451217
33.646638
34.02858159
35.67296302
35.80321558
38.18380759
38.49473403
38.59486434
38.60544387
38.47214067
38.54266206
37.81789845
37.55184472
37.60537656
36.70579487
36.42216331
36.46733488
35.51563379
34.89932362
35.01674011
34.45467717
34.05720698
34.17350874
33.70378855
33.38861493
33.50604754
54.69187597
55.62923637
55.65860404
50.45325366
46.60726753
47.06364135
39.77110561
39.62725527
42.31263435
55.66370053
55.6801618
54.75802187
57.15244696
57.29762832
53.9226569
53.61703701
50.241137
41.64980569
41.0922179
39.47230735
40.01284093
39.97363269
39.91976554
43.13968527
42.04046507
51.91208688
54.6573539
54.35491156
40.1529505
40.05791683
45.55840214
45.43323534
46.6017622
43.57591709
44.43685595
44.57329702
42.26669644
42.14017318
42.8154316
40.98760938
41.53748463
41.64980731
40.10220089
40.0181026
40.48333917
39.18901565
39.5877031
39.66313044
52.01434637
51.40019756
47.05090805
56.22131534
54.42316659
54.8278674
53.55084278
53.99531624
55.95334821
51.55720581
51.52932899
53.31364341
48.38167507
49.87651581
49.91586599
49.74442704
49.8097664
48.27253471
45.99633055
45.90293083
47.04981763
44.0286472
44.90499431
45.00587596
44.69558313
44.82157354
43.95186538
42.6257734
42.56342068
43.25855052
41.34179182
41.92650804
41.98392231
41.74912547
41.83146446
41.25302017
40.35250265
40.29788792
40.80107536
39.40362239
39.83258572
39.88332081
39.72403167
39.78229914
39.36026243
57.21550577
57.30250875
55.66534776
57.85939007
57.82761254
57.82333041
51.33382334
51.41078346
53.04980743
48.47640262
49.87785043
49.83553941
49.93226614
49.91354905
48.48580847
46.16586964
46.15158882
47.24659046
44.31425083
45.17999093
45.20505368
45.06178127
45.13231182
44.25507195
42.84456464
42.80591921
43.5259285
41.54558117
42.14957458
42.18998047
42.05522477
42.10650215
41.50944423
40.49528777
40.46581926
40.98521831
39.53521316
39.98507664
40.01056986
39.92051244
39.95823685
39.51280645
49.80588967
49.78843788
54.98212944
55.48320066
54.38865377
53.64559759
54.92966585
54.53433273
55.72173383
55.32671855
53.94279753
50.74248928
50.91026482
52.27543817
48.33497792
49.57958672
49.45957785
49.77587833
49.68652136
48.40159284
46.14700203
46.17391582
47.20462855
44.38552579
45.23692769
45.22709702
45.21938378
45.23599761
44.3753868
42.89251318
42.89186798
43.60685169
41.62264613
42.2331458
42.23303943
42.21072009
42.22289883
41.61469434
40.52699126
40.52839928
41.05560157
39.57908927
40.03680147
40.03543002
40.02549892
40.0346599
39.57688054
48.28339472
48.84270246
52.98341985
53.47796357
52.08634836
52.47093627
53.36413522
52.97386385
54.14298466
53.75223348
52.76331839
50.01334132
50.20352278
51.36556867
47.93634746
49.04365201
48.88913297
49.32929007
49.19040303
48.05263985
45.87436787
45.96030504
46.90755803
44.28116165
45.08776207
45.01602994
45.19716914
45.14783463
44.33004984
42.79728798
42.8392956
43.53390777
41.58813061
42.19147506
42.15657702
42.22789269
42.215452
41.60434276
40.47972647
40.49752887
41.02379776
39.55945825
40.01009005
39.99691823
40.03075062
40.02226833
39.56955595
45.83781091
46.43089627
51.06701141
51.52973968
49.76587716
51.2692812
51.81049351
51.42665625
52.58536133
52.19720457
51.57550855
49.1906691
49.40620799
50.40043603
47.37897425
48.3793786
48.19456766
48.72691674
48.55695286
47.53139488
45.43117966
45.55505299
46.43470042
43.97838759
44.73800139
44.62794514
44.9331115
44.84008794
44.06871445
42.5325943
42.61061468
43.27099285
41.41853933
41.9935985
41.9258039
42.11117663
42.05615387
41.47203207
40.34181284
40.38397325
40.88298074
39.48461155
39.91856456
39.88244462
39.97649574
39.95017106
39.51158418
43.97529971
44.35004693
49.40379717
49.78878975
47.91117932
50.02474346
50.30414467
49.94393142
51.0467611
50.67215505
50.33636595
48.27607995
48.50999577
49.35262556
46.70138004
47.60428271
47.39985758
48.00310648
47.80597212
46.87856377
44.88082786
45.02306292
45.83662145
43.55511377
44.26316733
44.13753712
44.51129577
44.38892418
43.66619822
42.19363099
42.28020453
42.89541748
41.16868932
41.70575452
41.62905774
41.85465632
41.78111424
41.23505941
40.14075503
40.1948313
40.66591641
39.33945819
39.75325151
39.70484386
39.84249315
39.79924927
39.38054097
42.94635136
43.15196012
48.02629105
48.35317338
46.59227874
48.81177862
48.91769063
48.59494033
49.5924093
49.25013065
49.10703053
47.35604469
47.57894332
48.28873151
45.98872343
46.79109764
46.59660557
47.19349176
46.99005482
46.16237569
44.33417266
44.46702246
45.20829227
43.11704563
43.77009177
43.65129995
44.0133068
43.89078885
43.22501555
41.84540811
41.93224374
42.50541976
40.88973274
41.3945916
41.31590091
41.55141453
41.47317154
40.96079938
39.90931162
39.96887272
40.41519411
39.15396817
39.54900011
39.49437475
39.65448974
39.60241159
39.2029185
42.10287178
42.31644059
46.79517557
47.09267126
45.44113237
47.70065205
47.68000021
47.3926427
48.28140693
47.97620893
47.96857807
46.51391575
46.71744972
47.3075087
45.32969611
46.03798043
45.85947666
46.40637744
46.22022784
45.4894653
43.82697342
43.95032337
44.62753131
42.69899355
43.3066378
43.19558644
43.53445993
43.41958069
42.80128949
41.50385315
41.58815213
42.12678932
40.60286851
41.08089332
41.00334394
41.23728876
41.15891035
40.67463077
39.66532985
39.72687541
40.15210369
38.94686567
39.32564132
39.26826734
39.43885255
39.38252097
38.99990642
41.2465241
41.46007072
45.66868188
45.94107385
44.34862268
46.68682175
46.57627903
46.31763129
47.11331609
46.84134718
46.93183327
45.7413344
45.92858448
46.41155461
44.72012628
45.34494874
45.17998967
45.68456785
45.51309165
44.86832071
43.35385328
43.46927274
44.08841583
42.3048537
42.87311455
42.76894266
43.08636642
42.97889341
42.40117841
41.17557086
41.25623882
41.76601971
40.31861688
40.77427656
40.69929572
40.92635004
40.84997116
40.38908808
39.41861961
39.48020384
39.88773066
38.72987115
39.09469705
39.03662846
39.21061055
39.15269276
38.7845644
40.39397482
40.60741669
44.63508714
44.88553337
43.31602383
45.75862869
45.57653337
45.34010367
46.06501326
45.81807875
45.98325483
45.02748532
45.20095532
45.58743827
44.15261439
44.7030161
44.54960887
45.01809377
44.85914129
44.29088533
42.9091936
43.01793373
43.58420058
41.93299646
42.46539475
42.36699484
42.66630934
42.56514765
42.0240508
40.86226523
40.93921707
41.42390232
40.04205959
40.47884446
40.40687262
40.62505606
40.55157117
40.1103351
39.17460711
39.2351758
39.62785865
38.51004407
38.8629293
38.80533463
38.97862643
38.92068978
38.56497804
39.5495315
39.75853557
43.68089011
43.91264445
42.34492913
44.90481838
44.65916082
44.44097755
45.10854575
44.88163772
45.11191933
44.36352613
44.52524757
44.82477476
43.62130839
44.10466341
43.96113139
44.39881723
44.25054008
43.75103465
42.48893212
42.59188466
43.11004838
41.58017874
42.07942327
41.98596884
42.26989944
42.17406094
41.66676595
40.56295326
40.63655744
41.09847151
39.77503124
40.19537444
40.12629772
40.33564831
40.26515747
39.84087949
38.9360188
38.99507876
39.37514085
38.29141916
38.63409856
38.57759267
38.74799641
38.69089659
38.3457956
38.7324255
38.93358079
42.79418529
43.01028234
41.43329193
44.11472864
43.81041595
43.60738541
44.22689718
44.01669486
44.30693285
43.74239196
43.89399748
44.1151531
43.12129881
43.54367562
43.40864643
43.81984311
43.68071707
43.24360685
42.09003105
42.18789894
42.66209341
41.24373339
41.71228851
41.62317651
41.89365161
41.80243657
41.32642689
40.27600405
40.34666673
40.78747685
39.51756709
39.92307941
39.85661471
40.05790235
39.9901695
39.58106928
38.70392065
38.761322
39.13035964
38.07620976
38.41009506
38.35493915
38.52142952
38.46558258
38.12959801
37.94993568
38.1421171
41.96354488
42.1663179
40.57955267
43.38306552
43.01769404
42.82741026
43.40761293
43.21106448
43.56092343
43.15818369
43.30105883
43.45053733
42.64845199
43.01495005
42.88728827
43.27555997
43.14434944
42.76431492
41.70995132
41.80333731
42.23705181
40.92168661
41.36176876
41.27650241
41.53507233
41.44794652
41.00093805
39.99997186
40.06802789
40.48914135
39.26898793
39.66081502
39.59668508
39.79076024
39.72549938
39.33034226
38.47843583
38.53420296
38.89333644
37.86544239
38.19162299
38.13787542
38.30015159
38.24570371
37.9176699
37.2043967
37.38722232
41.18339504
41.3739517
39.77823964
42.70075006
42.27445979
42.09584777
42.64017318
42.45588352
42.8672138
42.60636104
42.74148599
42.82607848
42.19933876
42.51432097
42.39315736
42.7613385
42.63703262
42.30954991
41.3465566
41.43594729
41.83213959
40.61246694
41.02601362
40.9441944
41.19214325
41.10865557
40.68864168
39.7337293
39.79942723
40.20208633
39.02851263
39.40755839
39.34555045
39.53311224
39.47007482
39.0879091
38.25932431
38.31352638
38.66357529
37.65946894
37.97877455
37.92642036
38.08449855
38.03145875
37.71048824
36.49653629
36.66988594
40.4499407
40.62902595
39.02428325
42.05962629
41.57587319
41.40747089
41.91991732
41.74667107
42.21636296
42.08340513
42.21160879
42.23765143
41.77120323
42.03853322
41.9231472
42.27349904
42.15530369
41.87640166
40.99801092
41.08384325
41.44506877
40.31476834
40.70346501
40.62472688
40.8631779
40.78294214
40.38817824
39.47632026
39.53989077
39.9251927
38.7954436
39.16246813
39.10238091
39.28404105
39.22301787
38.85305255
38.04619562
38.09894034
38.44054308
37.45831272
37.77138586
37.72035339
37.87441441
37.82273192
37.50814118
35.82655937
35.99055335
39.76032149
39.92886176
38.31413668
41.45384123
40.91627829
40.75705082
41.2414319
41.07772158
41.60232943
41.5861061
41.70819145
41.68183305
41.36177855
41.58493878
41.47473819
41.80910341
41.69638366
41.4624837
40.66277136
40.74540488
41.07391613
40.02743452
40.39275852
40.31679576
40.54670154
40.46938826
40.09834963
39.22691759
39.28855616
39.65746839
38.56913098
38.9247911
38.86645345
39.04274067
38.98355031
38.6251054
37.8386279
37.8900198
38.22369781
37.26180828
37.56915796
37.51936756
37.66964248
37.61924293
37.31049354
35.19286618
35.34790906
39.11029968
39.26929673
37.64486881
40.87884339
40.29221761
40.14143905
40.59999092
40.44505183
41.01980176
41.11213827
41.22852811
41.15649629
40.96923059
41.15132508
41.04583674
41.36575273
41.25795636
41.06587462
40.33956643
40.4193017
40.71712287
39.74949107
40.09275751
40.01931049
40.24148528
40.16681128
39.81814576
38.98481122
39.04469031
39.39807206
38.34901221
38.69388444
38.63714393
38.80852975
38.75101027
38.40349063
37.63622191
37.68636216
38.01255505
37.06973892
37.37177717
37.32314599
37.46988253
37.42068353
37.11734169
34.59441975
34.74068243
38.496605
38.64676456
37.01381227
40.33271029
39.70119067
39.5584542
39.99268927
39.8459107
40.46668304
40.6598534
40.77098007
40.65727757
40.59205208
40.73600161
40.63487815
40.9414686
40.83818837
40.68496875
40.02732771
40.10440465
40.37338564
39.48008004
39.80247984
39.73133777
39.94645846
39.8741803
39.54666995
38.7493599
38.80762682
39.1462501
38.13455926
38.46915537
38.4138799
38.58078242
38.52478496
38.18766433
37.43858227
37.48756306
37.80664797
36.88184149
37.17890646
37.13135735
37.27479895
37.22671377
36.92842452
34.03076273
34.16829995
37.91699225
38.05884134
36.41895967
39.81305477
39.14176086
39.00657565
39.4176667
39.27876631
39.94055886
40.22775711
40.33388788
40.18148947
40.22913429
40.33769601
40.24060675
40.53479788
40.43574479
40.31857954