/*--------------------------------*- C++ -*----------------------------------*\
| =========                 |                                                 |
| \\      /  F ield         | OpenFOAM: The Open Source CFD Toolbox           |
|  \\    /   O peration     | Version:  v2012                                 |
|   \\  /    A nd           | Website:  www.openfoam.com                      |
|    \\/     M anipulation  |                                                 |
\*---------------------------------------------------------------------------*/
FoamFile
{
    version     2.0;
    format      ascii;
    class       volScalarField;
    location    "1.57";
    object      nut;
}
// * * * * * * * * * * * * * * * * * * * * * * * * * * * * * * * * * * * * * //

dimensions      [0 2 -1 0 0 0 0];


internalField   nonuniform List<scalar> 
3259
(
1.147962512
1.147859156
1.148584919
1.150768193
1.153708138
1.160048416
1.019556383
0.8426518528
0.6830373803
0.5649017642
0.4747221286
0.4079995762
1.147986733
1.14794585
1.148867701
1.151386621
1.154870833
1.161678334
1.076348479
0.8935776973
0.7488764882
0.6265223755
0.5191936077
0.2811856408
1.148073805
1.148087407
1.149194101
1.152057691
1.155939284
1.163063738
1.14766896
0.9794762972
0.8456759556
0.7320879697
0.625731739
0.09786755813
1.148282936
1.148349193
1.149618313
1.152786824
1.157002794
1.164307238
1.166588834
1.109652437
0.99261537
0.9080324448
0.7914708146
0.04921788798
1.148464239
1.148568049
1.149977346
1.153452272
1.158002054
1.165358174
1.16719986
1.155073682
1.115571003
1.009734951
0.6081075508
0.02788685127
1.148710843
1.148849682
1.150375053
1.15410063
1.158899169
1.166233982
1.167572793
1.154294538
1.104562541
0.9361760199
0.2887546419
0.03614857974
1.148870024
1.149030595
1.150650883
1.154623365
1.159671057
1.166930623
1.167751648
1.153036056
1.095985506
0.8523038261
0.1460546379
0.07010521177
1.149081311
1.149268749
1.150968766
1.155124381
1.160317892
1.167476554
1.167689383
1.15122112
1.085154126
0.7783728361
0.1173371083
0.09664181826
1.149180807
1.149390544
1.151161121
1.155501189
1.160860706
1.167908088
1.167460134
1.148786876
1.070885242
0.6953227374
0.09780831392
0.1198879808
1.149348329
1.149594635
1.151437685
1.155908107
1.161326173
1.168268364
1.16716762
1.145907597
1.052098072
0.6189041449
0.08351137125
0.1435394746
1.149392284
1.149676114
1.151595413
1.156218489
1.161748176
1.168594208
1.166904453
1.142890347
1.027060096
0.5552732653
0.07350606041
0.1653474448
1.149530466
1.149868445
1.151875373
1.156610803
1.162147028
1.168907543
1.166689615
1.139773723
0.9974450379
0.5086478173
0.06810941087
0.1820370814
1.149532027
1.149923569
1.152022698
1.156904925
1.162539454
1.16921484
1.166476729
1.13634834
0.968880381
0.4794730005
0.06584169921
0.1931225582
1.149656483
1.150116554
1.152320149
1.157311005
1.162925116
1.169514855
1.166197604
1.132207656
0.9444584755
0.4626206431
0.06537201126
0.199750421
1.149627478
1.150150986
1.152456923
1.157590842
1.163310266
1.169803887
1.165790384
1.127213829
0.9241151571
0.4527783016
0.06601982245
0.2038293275
1.149748478
1.150349652
1.152771672
1.158012096
1.163686882
1.170076775
1.165202623
1.121467233
0.9069498664
0.4465626465
0.06739659719
0.2065632597
1.149699018
1.150367386
1.152893865
1.158267579
1.164061469
1.170326297
1.164394942
1.115200123
0.8923228483
0.4427080583
0.06933534044
0.2084780153
1.149818125
1.15057004
1.153220972
1.158702809
1.164423211
1.170545019
1.163346948
1.108673968
0.8798901379
0.440683128
0.07176265521
0.2098338926
1.149761407
1.150579431
1.153330696
1.158928227
1.164782181
1.170725347
1.162059459
1.102105328
0.8693131922
0.4401321437
0.07464112474
0.2108100436
1.149867665
1.150774172
1.153657693
1.159373802
1.165124412
1.170860169
1.160550582
1.095645082
0.8602924262
0.4407221833
0.07794393843
0.2115179642
1.149829121
1.15079622
1.153770885
1.159575578
1.165462428
1.170942146
1.158850998
1.08939525
0.8526029703
0.4422543901
0.08165274396
0.2120485246
1.149896076
1.150957607
1.154073644
1.160014404
1.165779028
1.170967938
1.156997467
1.083423144
0.8460697207
0.4445614912
0.08575472814
0.2124611159
1.149909187
1.151021922
1.154215046
1.160220196
1.166091187
1.17093867
1.155039628
1.077742629
0.8404682538
0.447322245
0.09019075219
0.2128296007
1.149995094
1.151226545
1.154597853
1.160770274
1.166397336
1.170874105
1.15308821
1.072348471
0.8355900741
0.4502918349
0.09493218418
0.2132383305
0.4121556387
0.3247961103
0.4666238827
0.4305965204
0.504949505
0.3968810699
0.4236714946
0.3780460326
0.03047518476
0.05010186235
0.2805811309
0.05106676788
0.03208909339
0.004724530098
0.03017540787
0.3735724906
0.01893003733
0.01117007356
0.03174092733
0.01925820166
0.01297687448
0.04523643894
0.188305435
0.1761226124
0.2050878955
0.1932366194
0.04558086929
0.0669985763
0.2216950995
0.2093980879
0.2257657344
0.06829217805
0.04885948583
0.04786021417
0.1713635348
0.1625434222
0.02424781533
0.012150682
0.01873963888
0.01368105623
0.03031868757
0.0125457654
0.01340187131
0.01296334329
0.03035624155
0.01315112006
0.01588845109
0.5885918385
0.3792877906
0.3871948284
0.2560108653
0.008733119263
0.005327454801
0.03351042521
0.09640116894
0.09126912448
0.01204125962
0.01699923885
0.05098767919
0.03912778436
0.004388113225
0.1252734831
0.1086019837
0.08952279413
0.08537287995
0.02983829742
0.01687334712
0.0186971705
0.01187624433
0.01783422283
0.02149686883
0.002829248037
0.0312801926
0.02030541858
0.1046435724
0.09822038139
0.03734257421
0.04772005248
0.1116906998
0.1063891153
0.05034691756
0.04397825521
0.02874568222
0.08281947323
0.07456614766
0.01344080758
0.0127810441
0.01791682683
0.01227780828
0.01378328646
0.01538174531
0.03117135441
0.009020518473
0.01336863877
0.01214202546
0.0134001649
0.02114131448
0.1187292771
0.1133739861
0.04820165324
0.05865712473
0.1267458932
0.1205918353
0.02003973757
0.02033490788
0.0329335427
0.01887816861
0.0315348554
0.01959752816
0.01977401593
0.01928388791
0.1346917479
0.1287975313
0.06184642474
0.07119093887
0.1417199618
0.1364455926
0.03223492576
0.03229284775
0.04920888023
0.04754788009
0.03184325745
0.03179345781
0.02293484478
0.03648883558
0.03591676163
0.008786607317
0.01460388834
0.01668771002
0.01392040867
0.0134119494
0.01867863047
0.01892085977
0.03076864661
0.01270445741
0.009257070417
0.01255289718
0.012934442
0.02878276238
0.0181766234
0.01876424132
0.01337365141
0.02029425853
0.02009877856
0.01582838797
0.0350152985
0.02093057935
0.02185183169
0.04281372701
0.02976997814
0.002985934205
0.02983965445
0.04560631055
0.04526805969
0.01866479354
0.01181579225
0.008686145017
0.003466931842
0.01340002572
0.01372214814
0.01935842129
0.01952600838
0.03146709133
0.01970714205
0.01964018504
0.01959514679
0.01989344481
0.01982843074
0.03016698133
0.03014217998
0.04556304988
0.01882988576
0.0198683075
0.01936138856
0.01942843494
0.04366841593
0.04312285988
0.02853792849
0.01362089119
0.01112872067
0.01085610891
0.008285660812
0.01136384142
0.01296020839
0.01848618236
0.01294080719
0.01400702122
0.01370394878
0.03088580192
0.01903464813
0.01923750791
0.01242026276
0.01239523565
0.01245445
0.01321384358
0.01302523375
0.008865528492
0.009119019897
0.0133313571
0.0125308802
0.01299188673
0.01544387676
0.019047062
0.02880697035
0.8282044131
0.7061003084
0.670243215
0.5790161986
0.5528380255
0.4849918433
0.8747923338
0.7627716622
0.7189096767
0.7283407496
0.634615974
0.5914082207
0.6057916678
0.5223604303
0.4910579101
0.4822854687
0.453552934
0.4584884791
0.3950286523
0.2440661073
0.2566664563
0.9529367353
0.8476424996
0.7826180909
0.8164706171
0.7258667076
0.6557444153
0.6985139047
0.6174437222
0.5410176843
0.534860324
0.5031738991
0.4853487226
0.2766062831
0.1387214506
0.1557844355
1.070317752
0.9771529923
0.8773959163
0.9496895571
0.8781130483
0.7585553363
0.8569287261
0.8056565582
0.6549390682
0.7997117671
0.2370359923
0.3562032495
0.06218032075
1.155280066
1.130707573
1.017946248
1.118182612
1.057530713
0.9267713352
1.02369989
0.8078578524
0.883993125
0.6647025784
0.08719214451
0.2090645925
0.02857201915
1.154528089
1.124019923
1.129028116
1.107143625
1.015302416
1.048433957
0.9583093296
0.5715295034
0.7719502179
0.356816892
0.03502620477
0.06299584701
0.03234023825
1.153393701
1.118911992
1.122708773
1.098295665
0.9650475484
1.002107894
0.8689184135
0.3231350539
0.4909341569
0.1663307501
0.03852935796
0.03458451059
0.06032181581
1.15173824
1.112409658
1.117424374
1.088156014
0.9222284113
0.955278437
0.7984330705
0.2497116556
0.2908852685
0.1232554633
0.04590012496
0.04065414466
0.09104102019
1.149446907
1.103870321
1.110482639
1.074818353
0.8656298095
0.9095648958
0.7159064732
0.2101925671
0.2387185199
0.1021032775
0.0537753964
0.04766010937
0.1139683109
1.146652076
1.092941618
1.10137257
1.057318532
0.7950339904
0.8489682711
0.6369448836
0.1790199052
0.2017719364
0.0866288122
0.06466076019
0.05615644236
0.1376281996
1.143650543
1.079186572
1.089793256
1.033927456
0.7241835174
0.7766246497
0.569759254
0.1545799587
0.1723111631
0.07554507073
0.07886726162
0.06791851364
0.1603301151
1.140563729
1.062207349
1.075232585
1.004963698
0.6671336649
0.70828402
0.5185594637
0.1373708842
0.149679661
0.06911800398
0.09491426068
0.08283906004
0.1783979296
1.137260007
1.04315153
1.057556766
0.9756808715
0.62796644
0.6557206296
0.4853443214
0.1276635284
0.1340496374
0.06622437821
0.109314647
0.09879369549
0.1908361977
1.133321409
1.024106262
1.038317453
0.9501471256
0.6029939964
0.6206244975
0.4659974681
0.1234168464
0.1261405544
0.06536611416
0.12035566
0.1123750811
0.1984029926
1.128539249
1.006410832
1.019532155
0.928870178
0.5867692786
0.5983063079
0.4547706578
0.1226016068
0.1229969708
0.06578768489
0.1286900556
0.1226778049
0.2029671477
1.12296234
0.9904209789
1.002255112
0.9109858639
0.5754652607
0.5836009318
0.4478534172
0.1235094627
0.122696243
0.0670064581
0.1351041131
0.1304617806
0.2059699924
1.116800347
0.976090748
0.9866881433
0.8957609188
0.5671844692
0.5731570342
0.4434898559
0.1256102958
0.1239301636
0.06881801385
0.1400779114
0.1364611418
0.2080613358
1.110316077
0.9633371731
0.9727592788
0.882812609
0.5611461223
0.5654603537
0.4410379756
0.1287283812
0.1262950114
0.07113561515
0.1439949114
0.1411383628
0.2095381113
1.103741425
0.9520766112
0.9603893768
0.8718017503
0.5569986758
0.5599533893
0.4401536307
0.1327096606
0.1296390775
0.07391407106
0.1471404182
0.1448365396
0.2105995987
1.097243232
0.9421655764
0.9494814411
0.8624140782
0.5543159212
0.5562071801
0.4404845207
0.1374152896
0.1338064743
0.07713116795
0.1497079936
0.1478172561
0.2113688172
1.090932707
0.9334693961
0.9398863043
0.8544070173
0.5528265789
0.5538415331
0.4417958887
0.14272898
0.1386582704
0.08076487249
0.1518604808
0.1502596297
0.2119433672
1.084887986
0.9258510138
0.9314726271
0.8476171338
0.5523576805
0.5526227654
0.4439434424
0.1485537466
0.1440863093
0.08481579401
0.1537205045
0.1523188902
0.2123886897
1.07913574
0.919129369
0.9240966903
0.841796458
0.5526290591
0.5523651792
0.4466490792
0.1546856847
0.1499605711
0.08924268222
0.1553905471
0.1541055073
0.2127711171
1.073652191
0.9131136473
0.9175808428
0.8367217327
0.5533559675
0.5527520028
0.4496558588
0.1609530283
0.1560420738
0.09401909286
0.156974705
0.155720784
0.2131719413
1.068105001
0.9073356905
0.9117503429
0.8319625281
0.5545381859
0.5535282697
0.4531401628
0.1677114526
0.1621505402
0.09953380659
0.1586572435
0.1572604468
0.2136876002
0.2610520034
0.273781069
0.4247597811
0.1606647976
0.1744359258
0.3305461015
0.02931257668
0.4518229698
0.469456175
0.4588806794
0.4493626452
0.4562340546
0.4463153001
0.4700151924
0.4651597833
0.4918862578
0.4066016432
0.447918797
0.4578883428
0.4462481058
0.4453842131
0.4083320958
0.2271038766
0.2394140301
0.3908006122
0.03069037955
0.04853735033
0.04770880545
0.07187935511
0.0706106811
0.04936971734
0.009913236357
0.009556586079
0.2411304612
0.01819082613
0.01832873446
0.0327362003
0.03987909509
0.0526206504
0.07514305195
0.07329455546
0.1432913523
0.07229728369
0.4286213461
0.2779714073
0.003275103656
0.02781441793
0.01552803039
0.04687597584
0.04642701744
0.03010984743
0.3611936439
0.2097318698
0.2217350951
0.01587509564
0.01459446869
0.004948556482
0.06285900643
0.06104782803
0.0433788588
0.1851259355
0.1369947539
0.1395375324
0.1171157602
0.1270062596
0.1797296494
0.201282865
0.1519726099
0.1554875885
0.1445489596
0.1476894153
0.1967859361
0.04658609267
0.06528338966
0.06396846025
0.08847298672
0.08691621153
0.06595360035
0.2176137508
0.1675771757
0.1714086876
0.1595812456
0.163469694
0.2134158523
0.2339182806
0.182492216
0.1751663478
0.1788359062
0.229829182
0.06915332968
0.0914008362
0.09001577368
0.1690713761
0.1086329528
0.1145251694
0.09691406394
0.1056875299
0.1620772331
0.01871373933
0.01434369533
0.01451894274
0.01346286316
0.01327227778
0.01405481129
0.01315663577
0.01380457065
0.0135876214
0.0133510267
0.01381029785
0.5600966483
0.5273145963
0.5582555916
0.3536726227
0.4914006713
0.5202871824
0.4589348828
0.4838366827
0.3614036632
0.1310315443
0.1541137452
0.2673436039
0.008442534687
0.03892295254
0.03172511772
0.1020698785
0.1176883874
0.006863561308
0.05250405879
0.0501315903
0.03157652633
0.09461295715
0.07153077996
0.0737087306
0.06840069625
0.06963577201
0.09274712585
0.01401764795
0.02683397319
0.02005139737
0.02810035402
0.02505174633
0.01721398396
0.0328237176
0.03298259625
0.05157591319
0.01003255489
0.0069533266
0.002810774665
0.1188200885
0.06332655668
0.06952810658
0.05550709609
0.06118343772
0.1131596478
0.08827138466
0.06614054348
0.06700007552
0.0639995172
0.06474670257
0.08640639675
0.02001767513
0.01561641082
0.01385505467
0.01494451263
0.01387585321
0.01321266347
0.01528399983
0.006228998179
0.008123442485
0.102579864
0.08107503601
0.08290696702
0.0763769441
0.07878894424
0.1005948194
0.04181731912
0.0588401362
0.05587403319
0.06741740276
0.06623271551
0.04698771422
0.109853863
0.08751200689
0.08903050154
0.08450552821
0.08606244109
0.1082082789
0.0498962094
0.03253769545
0.03260862789
0.08198450527
0.06104651352
0.06196863427
0.05314278892
0.05433085631
0.07432260181
0.01376504379
0.01376290218
0.01324280455
0.01445862489
0.01332539997
0.01347223844
0.01314249262
0.01350723419
0.01329018676
0.1168795993
0.09349720973
0.09511362416
0.09048032115
0.09200351014
0.1151684057
0.04883182182
0.06954946515
0.06840590398
0.08020006221
0.07747993931
0.05515349849
0.1246069098
0.1009262172
0.103243584
0.09683085046
0.09875889216
0.1225558296
0.1327540435
0.1096378765
0.1114930115
0.1055089578
0.107679546
0.1308821106
0.0640484123
0.0850266482
0.08275486401
0.09426052451
0.09287693109
0.07027990823
0.1399829629
0.1169739026
0.118877425
0.1133064678
0.1151177639
0.1382970755
0.01362535069
0.01377231905
0.01744436238
0.01394996389
0.01368898526
0.01360273726
0.01398669668
0.01359020972
0.01426663263
0.01335854246
0.03224208519
0.01569896921
0.02243216821
0.01465342283
0.01540433119
0.03059239145
0.002038800363
0.006855703875
0.006626752177
0.01029312325
0.008147938298
0.003193738591
0.0124157425
0.009543997381
0.01042720927
0.01089033013
0.0102712834
0.01234745767
1.153276497
1.15587677
1.159322958
1.134181735
1.011946033
0.8726045275
1.154346994
1.15735104
1.156774168
1.160919432
1.14178056
1.137126642
1.044899629
0.9225003688
0.9015232051
0.8495521773
0.8083104447
0.7967144025
0.6969894317
0.6647095164
0.6509380663
0.5772349941
0.5508281829
0.5394908658
0.4035870384
0.3555590559
0.3599685841
1.155404171
1.158659367
1.158084652
1.162377295
1.165165387
1.161199507
1.107601254
0.9841775078
0.9510127629
0.9066304874
0.8708698624
0.8554478751
0.765410513
0.7335865636
0.7165841957
0.6443540486
0.615938185
0.5982680737
1.156485888
1.159957265
1.159408997
1.163700571
1.166356035
1.165777039
1.166153664
1.092269354
1.027411576
1.005646276
0.9718977295
0.9422633037
0.8753007575
0.8466042965
0.8139585828
0.7689567742
0.7449901433
0.7063227789
0.6715776131
0.6575105956
0.6050766377
0.08383505461
0.01567953289
0.01513111441
1.157533283
1.161163148
1.16063927
1.164824768
1.167284904
1.166835901
1.16692344
1.160210217
1.153798236
1.151447508
1.116609911
1.073966321
1.039883362
1.018889061
0.9692739935
0.969385647
0.9637923732
0.8917220901
0.7668305403
0.6062125634
0.6407785676
0.04101953027
0.01889066167
0.01753157344
1.158487373
1.162234504
1.161723174
1.165825727
1.167993914
1.167640783
1.167497215
1.160027496
1.160199048
1.154907541
1.147851783
1.148340284
1.112783797
1.094297394
1.098631107
0.9951259141
0.9341804046
0.9559359456
0.5159364346
0.3055849294
0.3823081263
0.02798331714
0.03499673029
0.02798060433
1.159320774
1.163105966
1.162673545
1.166606857
1.168598493
1.16833755
1.167665605
1.159434825
1.159921494
1.154030674
1.146178102
1.14663658
1.102442384
1.076338825
1.080515759
0.9128504556
0.7983169138
0.8381171039
0.2365290748
0.1067292676
0.1397640881
0.04216289981
0.1003383476
0.07835676489
1.160024614
1.163825351
1.163468841
1.167223948
1.169005575
1.168820598
1.16774647
1.158481533
1.159256197
1.152649111
1.143886817
1.144521412
1.093556417
1.061911646
1.065778204
0.835467382
0.6687894183
0.6930758947
0.1361717593
0.05710325488
0.06131907701
0.07969582033
0.1715804002
0.1593829663
1.160612676
1.164414026
1.164121257
1.167706754
1.169275503
1.169154788
1.167590109
1.157069361
1.158160124
1.150667553
1.140762844
1.141632324
1.081937907
1.043431672
1.048543942
0.7576971518
0.5757213505
0.597592134
0.1118470832
0.05157812623
0.05259850542
0.1023499552
0.1920255693
0.1873929916
1.161108026
1.164904533
1.164657874
1.168096968
1.169456547
1.169373224
1.16731439
1.155343729
1.156657537
1.14809809
1.136732369
1.137817599
1.066675477
1.018890112
1.025736835
0.6752240848
0.5006591561
0.5177856616
0.09385014813
0.04915469949
0.04958918676
0.1258579929
0.2098871899
0.2054372822
1.161545047
1.165332315
1.16511379
1.168435823
1.169602565
1.169530965
1.167029571
1.153565111
1.1548962
1.14515736
1.131994443
1.133226592
1.046468059
0.9850098303
0.994545454
0.6016635387
0.4395470665
0.4537518824
0.08073796041
0.04825514474
0.04836129199
0.1493908639
0.2276678555
0.2232746809
1.161949391
1.165727908
1.165523249
1.168753451
1.16974737
1.16967396
1.166792737
1.151835959
1.153131439
1.142121859
1.126803104
1.12814311
1.019877313
0.9418553928
0.9530267421
0.5418861744
0.390618413
0.4014305974
0.07188118488
0.04856203375
0.04839930993
0.1700446174
0.2438366946
0.2400676427
1.16234268
1.166109255
1.16591124
1.169063398
1.169896459
1.16982186
1.1665873
1.150077066
1.151414018
1.138967631
1.121084988
1.122581842
0.9900109767
0.8998141805
0.9096517103
0.4998704529
0.3575442653
0.3642546504
0.06732077727
0.0493898176
0.04914663913
0.1853179594
0.2562197771
0.2535756795
1.162728716
1.166483986
1.166289809
1.169367223
1.170036539
1.169968589
1.166349623
1.147997326
1.149602365
1.135390182
1.114454846
1.116216525
0.9623550679
0.8661962969
0.8737502791
0.4743404912
0.3390990565
0.3426188211
0.06558551633
0.05057786388
0.05024569962
0.1951270379
0.2638466326
0.2623414829
1.16311439
1.166853252
1.16666289
1.169662203
1.170150423
1.170097671
1.166013662
1.145377475
1.147404302
1.131038695
1.106737009
1.10875961
0.9390273356
0.8407785158
0.8464908896
0.4596706657
0.329891179
0.3316903268
0.06545692081
0.0520795691
0.0516704719
0.2009458996
0.2679726102
0.2671676751
1.163493284
1.167216724
1.16703027
1.169943988
1.170220822
1.170191952
1.16552215
1.142128092
1.144630481
1.125840126
1.098179154
1.100375952
0.9195593091
0.8211954812
0.8256709596
0.4509279965
0.3256492703
0.3263947617
0.0663140254
0.05387715368
0.05339147425
0.2046101054
0.2702273603
0.2697805631
1.163870497
1.167571445
1.167390394
1.170206495
1.170228918
1.170233422
1.164828439
1.138289434
1.141226183
1.119938937
1.089182701
1.091451053
0.9030732399
0.8054454512
0.8090938963
0.4454104222
0.3239743997
0.324220263
0.06784537994
0.0559493331
0.05539512815
0.2071068012
0.271470766
0.2712296256
1.164237566
1.167915736
1.167740138
1.170442343
1.170155524
1.170202567
1.16390217
1.133989109
1.137256957
1.113583545
1.080130054
1.082380744
0.8890248545
0.7925056468
0.7955079747
0.4420460889
0.323978189
0.3238335455
0.06991762585
0.05825617783
0.05764197436
0.2088618375
0.272071795
0.2719692687
1.16460078
1.168246365
1.168077271
1.170644656
1.169984541
1.170081126
1.162733714
1.129380122
1.132866858
1.107028767
1.071315231
1.073485303
0.8770864578
0.7818806996
0.7843386544
0.440425305
0.3253818753
0.3249139666
0.07246859493
0.0607666384
0.06009514013
0.2101113006
0.2722310418
0.2722227577
1.164954212
1.16856305
1.168398349
1.170806699
1.169704609
1.169854874
1.161333369
1.124605893
1.128204059
1.100475827
1.062914825
1.064970771
0.8669243638
0.7731649103
0.7751844026
0.4401875717
0.3278852026
0.3271674356
0.07547017338
0.06346684613
0.06273740574
0.2110137519
0.2720888551
0.2721441512
1.165300622
1.168861732
1.16870157
1.17092245
1.169309803
1.169514626
1.159725824
1.11978199
1.123407242
1.094059872
1.055009418
1.056937324
0.8582538945
0.7660188159
0.7676864178
0.441027699
0.3312400865
0.3303227492
0.07889590258
0.06633519746
0.06554836724
0.2116749624
0.2717502335
0.2718430864
1.165643637
1.169143363
1.168980679
1.170986498
1.168799392
1.169057653
1.157941362
1.115001194
1.118586176
1.087875908
1.047643
1.049432794
0.8508637992
0.7601905103
0.7615312712
0.4427803131
0.3353148306
0.3342188066
0.08274001951
0.06937109729
0.06851552808
0.2121782442
0.2712957283
0.2714076886
1.165971144
1.169401391
1.169236509
1.1709931
1.168171862
1.16848893
1.15600315
1.110317239
1.113824037
1.081977045
1.04081931
1.042476825
0.84459582
0.7554936835
0.7565777717
0.4452494197
0.3399241533
0.3387007221
0.08698579459
0.07258521238
0.07164847767
0.2125819737
0.2707844524
0.2708980548
1.166297041
1.169627708
1.169465096
1.170928562
1.167413103
1.167823858
1.15389727
1.105744714
1.10917082
1.076365022
1.034480594
1.036025434
0.8391844191
0.7516249825
0.7525256652
0.4481227223
0.3447757825
0.3434533269
0.09158631272
0.07597583234
0.0749387838
0.212964433
0.2702903403
0.2703880749
1.166669579
1.169870576
1.169685983
1.170805409
1.166474561
1.167101789
1.151487443
1.101030061
1.104643876
1.070974349
1.028500001
1.030024985
0.8343632351
0.7483159477
0.7491488763
0.4512618791
0.3497828251
0.3482569891
0.09654700714
0.07955840603
0.07839055745
0.2133954034
0.2698704646
0.2699645129
0.3644138925
0.3688804722
0.4165038757
0.2578971888
0.2691288317
0.3195103146
0.4373489341
0.4400619014
0.4351876048
0.402915899
0.4208168394
0.423114992
0.430517188
0.4262366795
0.4170027861
0.3294966406
0.333491465
0.382206672
0.4358162418
0.3924937601
0.3696220858
0.321349058
0.3245637997
0.01502985172
0.4210557397
0.4224108543
0.3784349226
0.01241824227
0.01139619548
0.005723992708
0.01268254332
0.01754621081
0.01652060224
0.01792882797
0.01521994902
0.01344304508
0.01772394576
0.7834695076
0.7736580451
0.8203814698
0.6934962819
0.7310559631
0.7425711525
0.6377602738
0.6255268885
0.6580529743
0.567659462
0.5954290374
0.6073528352
0.5287460846
0.5189270328
0.5421392459
0.4791584149
0.4984163171
0.5072683243
0.8374885613
0.8218827186
0.8648995203
0.7455869675
0.7829747775
0.7994710404
0.7568941056
0.7692140483
0.731596756
0.6956366236
0.6784910703
0.7109767139
0.6183715114
0.647514655
0.6643651587
0.6200648551
0.6339436101
0.60506678
0.5780753917
0.5634723627
0.5901704743
0.5087825956
0.5389296883
0.551344396
0.516634274
0.5273009156
0.4991369937
0.3467661836
0.3511335705
0.3994237339
0.2480759691
0.3000899918
0.2958212803
0.3088821196
0.3045590076
0.2525498562
0.9175053099
0.8925074285
0.9306920042
0.8216173023
0.8561976997
0.8815528928
0.8183065003
0.8337399244
0.7986393411
0.7858590703
0.757137753
0.7885220246
0.6978658976
0.7273297522
0.7552479719
0.6855324046
0.7025315056
0.6735594809
0.6718331326
0.640849197
0.6685490458
0.584916775
0.6138865146
0.6457108407
0.5697843566
0.587641185
0.5592436541
0.2074306893
0.2032364134
0.1508263176
1.037529095
1.00276735
1.038905905
0.9398060513
0.970617477
1.006492738
0.9086606944
0.9390471494
0.9070078445
0.9244353329
0.883789747
0.9109644624
0.8337261254
0.858178804
0.9005513279
0.78490133
0.8200566501
0.7942442385
0.8364541861
0.7886035492
0.8105251958
0.7449059448
0.7670211664
0.8173637817
0.6816501751
0.7222202641
0.6972147474
0.6815773072
0.7035903546
0.7287146826
0.2955310815
0.5275153577
0.4830925498
0.5658695642
0.5408635208
0.311953441
0.01669151947
0.016039339
0.07232509674
0.03197397582
0.03465836873
0.02863006544
0.03035747385
1.148877842
1.149410714
1.155498994
1.114010752
1.137895643
1.140791617
1.044730964
1.087513807
1.062728273
1.102574004
1.075570831
1.093200402
1.051680787
1.061327934
1.082890809
0.9472751339
0.9995146062
0.9823608822
0.976418287
0.9926966287
1.033876905
0.850653544
0.935121856
0.9077492795
0.8828436061
0.9509998988
0.8750929709
0.4751183162
0.5294701209
0.7200189216
0.1265848216
0.3048170011
0.2529956973
0.4424303539
0.380034793
0.1506410678
0.02351150361
0.02077294971
0.03262764347
0.05444020376
0.06804197293
0.03881855993
0.04508369281
1.147055123
1.147438092
1.154731291
1.12559454
1.137858541
1.137080625
1.139782871
1.138780093
1.127298206
1.08507229
1.089711484
1.109922737
1.02735375
1.063157994
1.055635705
1.076947253
1.070334079
1.038516786
0.8756431857
0.9059477751
0.9775461509
0.6464230274
0.8004897566
0.7512789588
0.8805242118
0.8452352844
0.7081264282
0.1774740075
0.2400038953
0.4443224577
0.03710833992
0.09618762477
0.0708799255
0.1768808874
0.1416958094
0.04540928265
0.05971428192
0.04556849268
0.02963776187
0.1270058257
0.1488606117
0.08565718449
0.1056120309
1.145130878
1.14567815
1.153740485
1.120261361
1.134837031
1.133978741
1.136385727
1.135643176
1.121526501
1.069406627
1.072869714
1.100440776
0.9757371389
1.033337801
1.02765295
1.047840445
1.040291788
0.9888656245
0.7217705746
0.7591437131
0.8900816419
0.3647174214
0.5721403937
0.5244460507
0.6901686584
0.6302277588
0.4236800527
0.06971016653
0.08353465369
0.1945062553
0.03649155218
0.04127569489
0.04031225439
0.05275645739
0.04462964361
0.03509326729
0.1436360511
0.1233346712
0.0501634464
0.2092984201
0.2255148778
0.1702264685
0.190784736
1.142443774
1.143197106
1.152212559
1.11420698
1.130942913
1.129776559
1.13301594
1.132012488
1.115864773
1.053313547
1.057760659
1.090956751
0.9340106412
1.008750496
1.001550224
1.021765036
1.015470405
0.9449921601
0.6206535006
0.6445497405
0.8175287533
0.2616048888
0.4421438133
0.4226837337
0.4870645832
0.4633942884
0.2745472266
0.05383848278
0.0552591558
0.1295261339
0.04433740551
0.04049036514
0.04070267932
0.04009809385
0.04031414077
0.04282845032
0.1826114432
0.1776266379
0.08552957154
0.2526866662
0.2566811988
0.2380248569
0.2479331899
1.138853096
1.139835777
1.15007464
1.106218039
1.125757205
1.124239234
1.128524955
1.127185793
1.108420946
1.032069292
1.037951738
1.078497541
0.8813052934
0.9766171315
0.9669841079
0.9938257815
0.985537828
0.8959503856
0.5359110783
0.5551802841
0.7367859636
0.2190950548
0.3737468667
0.3597407762
0.4049389678
0.3887153987
0.228556711
0.05012459903
0.05077774587
0.1067903282
0.05156561005
0.0415921139
0.04198416116
0.04095614516
0.04124980046
0.04953490913
0.2010063779
0.196554593
0.108130743
0.2680517461
0.2717467114
0.2605471826
0.2643266099
1.134430904
1.135601777
1.147385098
1.095914436
1.119161753
1.11730223
1.122632797
1.120939573
1.098722697
1.003357977
1.011455292
1.062165378
0.8134220578
0.9328931147
0.9196208974
0.9565491541
0.945208167
0.8314950251
0.4686863236
0.4843321568
0.6557462093
0.1863260996
0.3219996793
0.3104155001
0.3465183214
0.3340144267
0.193905414
0.04854046951
0.04879677837
0.09012424735
0.06159794432
0.04347484145
0.04409984091
0.04242389116
0.04291912659
0.0587610579
0.2187959498
0.2143198439
0.1317437984
0.2828635892
0.2866093929
0.2754367133
0.2791403827
1.129453941
1.130737198
1.144405795
1.082927698
1.111253142
1.109075802
1.115363973
1.113348194
1.086460265
0.9640839577
0.9748071644
1.040409621
0.7409919378
0.8756457123
0.8604929143
0.9055085929
0.8907542582
0.7585398486
0.4132664166
0.4260337173
0.5852666488
0.1601010515
0.2792735462
0.2700076055
0.2994563992
0.289123155
0.1661052062
0.04830668207
0.04824858466
0.07806395692
0.07502778062
0.0464049312
0.04734634624
0.04478815552
0.04557145057
0.07136346508
0.236094153
0.231950924
0.1550043421
0.2978263277
0.3014690677
0.2903671934
0.2941146384
1.124027757
1.125432544
1.141346526
1.066723344
1.102018037
1.099480786
1.106813051
1.104461441
1.071073589
0.9200033339
0.9307835237
1.012475901
0.6797068439
0.8176764571
0.8049357995
0.8456166729
0.8312805677
0.6934378767
0.3720009412
0.3808092972
0.5296451557
0.1411447075
0.2471249505
0.2409590392
0.2615557556
0.25397504
0.1452362032
0.04893204179
0.04873585859
0.07040735532
0.09092416716
0.05065486663
0.0519217359
0.04835719669
0.04947438069
0.08688010646
0.2506205754
0.2473667412
0.1743948846
0.3115839701
0.3145532996
0.3050031048
0.3083877203
1.11790722
1.11952902
1.138131416
1.047992762
1.091295526
1.088385102
1.096847849
1.09411831
1.052806403
0.8818586155
0.8905448956
0.9827357128
0.6362108762
0.772399256
0.7633783552
0.7931351667
0.7823010271
0.6454394037
0.346730219
0.3517043719
0.4921196306
0.1293568796
0.227295067
0.2240913308
0.235616134
0.2311207122
0.1313879797
0.04994162329
0.04965073617
0.06670235163
0.1060165548
0.05599037851
0.057404402
0.05325121134
0.05460516758
0.1024975819
0.2605862388
0.2585530373
0.1882409267
0.3218324349
0.3236931682
0.317262469
0.3196910991
1.110723085
1.112623256
1.134382775
1.028773528
1.079227831
1.076075251
1.085395968
1.082338763
1.033516021
0.8526074779
0.8591614558
0.9561109725
0.6082189191
0.7409073523
0.7346998359
0.7551749041
0.7477090462
0.6140716564
0.3336795331
0.3360653811
0.4698538505
0.1240200006
0.2178851708
0.2163979174
0.2216047971
0.2196481055
0.1248643936
0.05129190355
0.05092033598
0.06542584624
0.1178975411
0.06167719019
0.06310370912
0.05882257423
0.06025187218
0.1152421352
0.2662296572
0.2651325795
0.1968757737
0.3277854377
0.3287445351
0.3252883643
0.3266430928
1.102538788
1.104661697
1.129816035
1.010679229
1.066491131
1.063290768
1.072893977
1.069695064
1.015053579
0.8304056695
0.835430299
0.9338353297
0.5902485468
0.7189700776
0.7145024654
0.7290166602
0.723792646
0.5940845573