/*--------------------------------*- C++ -*----------------------------------*\
| =========                 |                                                 |
| \\      /  F ield         | OpenFOAM: The Open Source CFD Toolbox           |
|  \\    /   O peration     | Version:  v2012                                 |
|   \\  /    A nd           | Website:  www.openfoam.com                      |
|    \\/     M anipulation  |                                                 |
\*---------------------------------------------------------------------------*/
FoamFile
{
    version     2.0;
    format      ascii;
    class       volScalarField;
    location    "1.92";
    object      k;
}
// * * * * * * * * * * * * * * * * * * * * * * * * * * * * * * * * * * * * * //

dimensions      [0 2 -2 0 0 0 0];


internalField   nonuniform List<scalar> 
3019
(
44.24160229
54.06706046
47.11170306
42.51522393
39.677245
38.00806071
36.8495409
36.14089249
35.45699931
35.16865797
35.03073016
34.97593927
54.96187441
54.04979311
47.23817114
42.5950295
39.77933966
38.10665066
36.8959264
36.14502254
35.410311
35.09408539
34.93831887
34.87601991
55.5543475
53.36587123
46.91555086
42.49702691
39.7913561
38.16747596
36.92114877
36.13732695
35.36416887
35.02520775
34.85415756
34.78546293
53.84260861
51.81820295
46.16729152
42.21736228
39.74100884
38.1820574
36.92127873
36.11083652
35.31080202
34.9552448
34.77309543
34.69910214
52.73646656
49.84106424
45.11575924
41.8310217
39.6751311
38.16314807
36.89284813
36.06538753
35.24931959
34.88288645
34.69140492
34.61302098
51.29029647
47.97798084
44.16475663
41.48624384
39.56038118
38.09173362
36.82379109
35.99502147
35.1731278
34.80056762
34.6046077
34.52294736
49.86806077
46.70723359
43.58393965
41.21466224
39.388913
37.97278748
36.72535957
35.90419338
35.08430554
34.7096347
34.51113665
34.427602
48.65511624
46.00215779
43.15147885
40.92565289
39.18715216
37.8226421
36.60439715
35.79561112
34.98258338
34.60833116
34.4087989
34.32407194
47.55135936
45.35883285
42.7406109
40.6345453
38.97070673
37.65298176
36.46654981
35.67246197
34.87047167
34.49900476
34.29961509
34.21426013
46.52736186
44.75675396
42.35218736
40.34944194
38.74875966
37.47206424
36.3163997
35.53797423
34.74810221
34.3800732
34.18127341
34.09563845
45.57045054
44.18927744
41.9833849
40.07386695
38.52679384
37.28553696
36.15786713
35.39502887
34.61941646
34.25615167
34.0584323
33.97277913
44.67133328
43.65104689
41.63124044
39.80851256
38.30794607
37.09706895
35.99414059
35.2460984
34.48317164
34.12392875
33.92710202
33.84150454
43.8263958
43.13752397
41.29347566
39.55283672
38.09382311
36.90903777
35.82762968
35.09312641
34.34478641
33.99074127
33.79507573
33.70962276
43.02206859
42.64476888
40.96816656
39.30593793
37.88505215
36.72289487
35.66004739
34.93771888
34.20007074
33.84937764
33.65433744
33.56894481
42.24968668
42.16961628
40.65367665
39.06694149
37.68176695
36.53950791
35.49261793
34.78100328
34.05753115
33.71198249
33.51789385
33.43258659
41.50243082
41.7093873
40.34852776
38.83500272
37.48381508
36.35933433
35.32616298
34.62398678
33.90760228
33.56413227
33.37023673
33.28485145
40.77837422
41.26194335
40.05144855
38.60936102
37.29093675
36.18260812
35.16125362
34.46718502
33.76542922
33.42711193
33.23391246
33.14847532
40.07428831
40.82553251
39.76130653
38.38929259
37.10279378
36.00939854
34.99827141
34.31132783
33.61120288
33.27337348
33.07995949
32.99426766
39.38880182
40.39872688
39.47713717
38.17414186
36.91902773
35.83968854
34.83748493
34.15648244
33.4740118
33.14153686
32.9485591
32.86267612
38.7219633
39.98055464
39.19816657
37.96334936
36.73929288
35.67338262
34.67908533
34.00341324
33.3135283
32.97997507
32.78650743
32.70019446
38.0729564
39.57000186
38.92375488
37.75641618
36.56324551
35.51033452
34.52328336
33.85176706
33.18792641
32.85961177
32.66625404
32.57965244
37.44149901
39.16696948
38.65345526
37.55295513
36.39061198
35.3504866
34.37054903
33.70302714
33.01446763
32.68486697
32.49093921
32.40373736
36.82876866
38.77176511
38.38697702
37.35263952
36.221131
35.19365968
34.22221736
33.55725914
32.91228521
32.58495518
32.39073766
32.30318415
36.24011115
38.38823474
38.12562646
37.15581063
36.05488985
35.03985659
34.08254539
33.42033833
32.68883814
32.36063075
32.16547766
32.07702026
40.50983098
43.29346024
55.51168
49.93775461
40.77388121
54.46334232
55.9858127
55.53687823
52.34749747
50.35663735
58.04597397
46.37540999
45.65382828
50.03376811
58.3522378
58.14032004
39.41685413
42.40755271
39.44758186
39.5635459
53.82751162
43.20516139
56.03072373
55.31898998
55.8971078
55.48719909
54.31819489
39.79921852
58.4950596
58.41624152
50.68205739
50.68868376
71.77651522
40.38433474
40.89728559
48.484259
55.56689965
44.64530372
39.48977383
58.41463667
71.88236855
44.95416566
54.97798397
78.77369497
40.54987054
43.26512362
39.65926219
40.18674697
70.73555968
74.90651373
39.97933549
71.44238679
62.38092705
54.69402062
48.647383
39.68398238
43.24909275
40.51051168
50.79459859
41.79551574
39.55074131
44.64195934
75.36092604
78.57158298
80.2340671
67.77969514
77.18164759
39.8087082
39.6778163
68.54930845
61.44485477
69.84625281
64.96854166
75.04589694
74.70516733
73.08333932
47.43947845
65.65785277
58.94994781
73.32681625
75.23925502
51.23247614
55.89500887
61.25041483
77.29583124
64.4325913
48.58334948
51.41815346
70.20842712
51.74755258
55.32795446
45.26843729
48.52192963
71.92328804
47.08137286
43.38196837
42.4310257
40.2123606
39.63837404
38.31216745
46.9598378
56.61737293
55.87646309
54.11937583
48.7792846
48.69633761
47.22718444
43.53406049
43.46543213
42.58750859
40.34681704
40.2531173
39.76555816
38.42724765
38.34659096
55.52800663
58.15973832
58.47538436
53.62866766
48.52272763
48.77856424
47.028647
43.46394387
43.54680892
42.53509257
40.35266035
40.35034817
39.79537403
38.50155787
38.44977719
49.46502264
48.8214577
54.14568189
53.74848833
54.99918133
52.26356906
47.72550327
48.38183556
46.40030065
43.15733706
43.41221472
42.30230029
40.28024153
40.34352986
39.75807826
38.5244073
38.5097859
51.20155696
49.95402831
53.03864818
51.65376232
53.25932453
50.34763301
46.48156741
47.43722772
45.38318739
42.66694655
43.04797216
41.93249939
40.15901305
40.2502275
39.69135305
38.51100914
38.52364482
51.22992289
51.40858202
51.65507154
49.5128524
51.10029964
48.40276168
45.25955295
46.15768452
44.37525442
42.16366037
42.53212856
41.55709387
40.03383223
40.13043615
39.59574299
38.44723727
38.501121
50.13046229
51.00250188
50.2104363
47.88252325
49.03892898
46.95496496
44.41285005
45.00193607
43.69549183
41.82797847
42.06458875
41.28496414
39.85407937
39.9936123
39.43543116
38.3287136
38.42170293
48.8795569
49.81474491
48.94500835
46.97427512
47.59188589
46.1704896
43.91994714
44.28374329
43.25776027
41.51065462
41.74942197
40.99855509
39.63976303
39.80281865
39.23944113
38.17518528
38.2929096
47.68664979
48.57427854
47.81930407
46.22974274
46.78329533
45.5154869
43.46000964
43.80225806
42.84115342
41.19328903
41.4308621
40.70698105
39.40968879
39.58320309
39.02561251
38.00017291
38.13301144
46.5656676
47.39992114
46.77658569
45.53329383
46.05137545
44.90379739
43.02707771
43.34940631
42.44732368
40.88459623
41.11510206
40.41989985
39.17452858
39.35108065
38.80441385
37.81282394
37.95422656
45.50895852
46.29579581
45.80409942
44.87867466
45.36596677
44.32821113
42.61704123
42.92258166
42.07392071
40.58792477
40.80926132
40.14179773
38.9403892
39.11573285
38.58208353
37.61942027
37.76485609
44.50797587
45.25386933
44.89048872
44.25979883
44.72083606
43.78311813
42.22639285
42.51768026
41.71784616
40.30340428
40.5156926
39.87391109
38.71055704
38.88244755
38.36225582
37.42423176
37.57068069
43.55140228
44.26481959
44.03340193
43.67114752
44.11001316
43.26381672
41.85248079
42.13144407
41.37667922
40.02997291
40.23405941
39.61589687
38.48653941
38.65397979
38.14686509
37.22993507
37.37551381
42.63584439
43.31883486
43.2198285
43.10779978
43.52811087
42.76619186
41.49299873
41.7613448
41.04841742
39.76638192
39.96320217
39.36688724
38.26877104
38.43151114
37.93672862
37.03808415
37.18171565
41.75630542
42.41279868
42.44036102
42.56589786
42.97045012
42.2869077
41.14596395
41.4051492
40.73136897
39.51153061
39.70189366
39.12599728
38.05719876
38.21530868
37.73207947
36.84954353
36.99063057
40.90596493
41.5411318
41.68696959
42.04211754
42.43337081
41.8231819
40.80961819
41.06094106
40.42401872
39.26441482
39.44906569
38.89237379
37.8515224
38.00524322
37.5328204
36.66472489
36.80299265
40.08212475
40.6975341
40.95742708
41.53393042
41.91367569
41.37270567
40.48243127
40.7270117
40.12502737
39.02412147
39.20373201
38.66522246
37.6513439
37.80097597
37.33869916
36.48377943
36.61912999
39.28470921
39.88030186
40.24852123
41.03926211
41.40910501
40.93369049
40.16311474
40.40191369
39.83324719
38.78983699
38.96502058
38.44382442
37.45624352
37.60211249
37.14940509
36.30672064
36.43916302
38.512275
39.08934879
39.55842598
40.55644792
40.91746481
40.50457905
39.85054937
40.08438242
39.5476631
38.56080551
38.73211698
38.22749944
37.26577496
37.40821187
36.96457706
36.1334562
36.26306294
37.76322547
38.32292062
38.88689105
40.08464883
40.43751851
40.08436704
39.54384863
39.77335794
39.26745985
38.3363929
38.50429539
38.01566804
37.07952926
37.21883619
36.78386855
35.96383645
36.09072345
37.03657968
37.5797086
38.2333223
39.62398832
39.96844407
39.67191776
39.24228563
39.46800257
38.99195569
38.11603973
38.28094631
37.80780924
36.89710785
37.03358244
36.60692637
35.79766098
35.92198327
36.33164835
36.85904707
37.59673828
39.17310564
39.51044531
39.26697029
38.94535241
39.16763791
38.72066204
37.89931523
38.06153639
37.60351452
36.71818756
36.85206413
36.43346561
35.63481595
35.75665055
35.64725218
36.16109301
36.97615721
38.7303605
39.06191603
38.86914392
38.65262376
38.87180832
38.45316813
37.68584678
37.84565981
37.40242506
36.54246816
36.6739713
36.26321405
35.4751182
35.59460841
34.97956169
35.48725087
36.36790467
38.2924855
38.62217162
38.47687044
38.3629102
38.58026885
38.18852762
37.47507998
37.63298625
37.20405502
36.36959934
36.4990188
36.09585747
35.31835315
35.43566745
34.28596417
34.84272986
35.73247067
37.83003458
38.1948806
38.06283047
38.05659296
38.29478922
37.90892476
37.25349162
37.42400064
36.99595087
36.18943628
36.32732372
35.92177737
35.15598014
35.27987095
40.15548476
39.38130278
39.4363927
48.3690444
47.45902586
42.38092283
55.41601758
57.91489065
58.05386613
48.86020887
41.12318075
40.09604744
39.53785516
40.93800285
57.48015934
57.3039156
52.60209105
55.55336289
58.18488271
58.1526841
58.0935491
58.17586562
55.56039618
51.07961471
49.63987679
57.97118268
56.420931
57.05219722
56.16765812
57.99024239
39.76439325
39.60043838
42.34236057
42.9716943
47.1681001
44.8364277
41.12029986
41.69236357
57.48138422
56.84255754
47.84775341
58.2861744
57.94239539
58.09025917
57.23512679
57.79585218
58.21149808
39.99549761
39.67355254
39.32742536
45.22772156
46.78340996
61.37080885
41.65651749
39.50210637
39.46583519
39.56727182
41.10608765
40.41482658
44.52335492
43.49249538
39.46015251
53.300215
48.95661457
49.81488325
48.03055791
52.70216721
40.15271844
40.57950465
44.01486847
42.71737588
43.82892146
40.10665605
39.86874926
57.47950034
57.92057743
55.48935144
55.5800421
57.21122551
56.87105217
58.06214908
57.47116438
55.77196758
55.16253971
52.08220906
52.68620028
50.63825421
51.37018415
54.73827268
41.5346959
46.49593764
45.51930198
58.49414159
58.3241441
58.36844044
58.18789692
58.26795537
58.45846649
52.04439214
57.182931
56.90320997
50.31978291
44.11758342
44.51291525
40.97651396
47.68279893
44.78266472
40.57608327
40.36504893
41.3444539
41.02192234
40.79972276
47.72130726
43.71561876
44.25067345
50.694965
41.92442213
43.26033095
40.36617281
40.97809357
46.91500839
39.39635935
39.50220262
39.4296064
41.16233261
46.42598127
44.45855861
53.64904313
49.17863425
42.0175563
39.82294988
41.41885293
40.89752596
43.08813128
42.05652217
39.91349338
43.08018614
41.93405162
39.70191066
52.14361591
52.04451821
54.43539857
48.53236357
50.23129696
50.34292926
39.36598569
39.36288769
39.89070486
42.09388943
39.71568624
39.97585535
39.45871451
39.56405683
41.20238087
39.72936143
39.67515796
39.64282738
43.44615949
41.10439237
40.91789656
40.52800492
43.0391207
41.33193245
41.93790568
39.74374858
40.08885984
40.01255316
40.50019033
40.25112592
39.70461578
37.97765388
37.26360676
36.82084657
36.45181601
36.13859101
35.8531801
45.15003767
50.04558094
49.24062469
54.10451819
52.26117897
52.20262994
47.19300879
45.80127176
45.73257118
42.5227198
41.69182464
41.66394537
39.72332811
39.21190113
39.17372491
38.08564081
37.34687385
37.30860495
36.87474057
36.48088308
36.46679162
36.14543647
35.83867552
35.84855337
55.28948533
57.61732914
57.59928158
53.9435525
52.17360534
52.24903619
47.16616976
45.80919526
45.85125536
42.59778887
41.75048145
41.75040492
39.79118543
39.28950276
39.27839504
38.15648441
37.40064537
37.37665202
36.91131853
36.49760941
36.49068597
36.14373832
35.81890352
35.83187402
55.01362869
56.486763
56.99892677
53.04590903
51.41588548
51.69251318
46.77442964
45.49197091
45.60585096
42.44452061
41.64922121
41.68697835
39.78472545
39.30677065
39.30770687
38.18227951
37.42354102
37.41560908
36.924372
36.49822164
36.50040194
36.12890172
35.78949047
35.80695399
53.57700037
54.41202621
54.91176586
51.34607031
49.89276186
50.31908155
45.91552955
44.81616365
45.0175545
42.1277033
41.41260085
41.48035137
39.72309212
39.2847567
39.29256374
38.17262728
37.41536245
37.42176339
36.91303091
36.47861985
36.49154525
36.09647481
35.74668536
35.77075019
52.4024255
52.52854833
52.9951941
49.3422955
48.10375099
48.54666456
44.85524637
43.95637878
44.16818821
41.73243137
41.12960618
41.2000843
39.65373055
39.23711855
39.25517732
38.11554976
37.3702532
37.39985768
36.86247871
36.42398113
36.4542157
36.0365063
35.6859271
35.71960284
50.92705455
50.65461609
51.12598252
47.59176183
46.58000793
46.9115765
43.97903623
43.25151249
43.39941772
41.42078273
40.89702706
40.95346031
39.52156518
39.12045372
39.15518459
38.00645602
37.28095596
37.33012835
36.77782602
36.34217368
36.38561377
35.95492425
35.60642918
35.64889702
49.5438156
49.07768375
49.40499545
46.51800649
45.68352231
45.8430046
43.47413545
42.83251909
42.93083728
41.14330046
40.64912877
40.71353709
39.34055861
38.95590585
39.00019703
37.86267
37.16075746
37.22410102
36.66733643
36.23746474
36.2919343
35.85420842
35.51036708
35.56096183
48.37098448
48.00478456
48.2616345
45.83700113
45.0869176
45.23207129
43.04659306
42.44580605
42.54117695
40.85265754
40.38350899
40.45065183
39.13397495
38.76473132
38.81421548
37.69685431
37.01880646
37.09201778
36.53729044
36.1144743
36.17761679
35.73740609
35.39960189
35.45734651
47.28836559
47.0353559
47.26984359
45.20472845
44.52977926
44.66576497
42.64147992
42.07537814
42.1662531
40.56250039
40.11435053
40.18148872
38.91546818
38.55981891
38.61184892
37.51806538
36.86214851
36.94195092
36.3927611
35.97766618
36.04727894
35.60776905
35.27671443
35.34026197
46.28232368
46.14173937
46.35903088
44.61186883
44.00561282
44.13385249
42.25827687
41.72340946
41.80973265
40.27959439
39.84912245
39.91481718
38.69311504
38.34908204
38.40200645
37.33249022
36.69605795
36.78001526
36.23797011
35.83095038
35.90514672
35.46838504
35.14409026
35.21228147
45.34058128
45.30766291
45.51130676
44.05217141
43.50949499
43.63112686
41.89388945
41.38825743
41.4706008
40.00658275
39.59134478
39.65500188
38.47170734
38.13748255
38.19027322
37.14421559
36.52440228
36.61072646
36.0764885
35.67741347
35.75473057
35.32191313
35.00431158
35.07581976
44.45563862
44.52084148
44.71378072
43.52051823
43.03733992
43.15333153
41.54553332
41.0675903
41.14650979
39.74372142
39.34210268
39.40360638
38.25393645
37.92803537
37.98008658
36.95589431
36.35004468
36.43741819
35.91111386
35.51947231
35.59876492
35.17054653
34.85907628
34.93314708
43.6218938
43.77270885
43.95635481
43.0125285
42.58557927
42.696788
41.21105218
40.75947544
40.83542081
39.49032723
39.10127532
39.16072231
38.04111929
37.72240314
37.77340256
36.76916908
36.17499778
36.26251222
35.7438868
35.35896811
35.43937173
35.01604159
34.71047399
34.78599578
42.82626528
43.05855012
43.2341261
42.52444302
42.15107463
42.25822915
40.88859233
40.46228576
40.53563517
39.24548346
38.86827633
38.92582651
37.83372033
37.52134422
37.57115914
36.58503326
36.00062547
36.08766093
35.57625602
35.19729458
35.27815194
34.8597406
34.55921065
34.63597795
42.06056095
42.37524971
42.54308512
42.05325692
41.73125012
41.83495686
40.57656975
40.1746477
40.24573267
39.00832866
38.64244577
38.69826945
37.63178982
37.32513113
37.37372941
36.40402914
35.82782294
35.91398789
35.4092269
35.03546534
35.1163083
34.70269875
34.40716707
34.48408937
41.31933563
41.71968446
41.88141636
41.5964023
41.32389737
41.4246682
40.27355047
39.89530873
39.96442535
38.77803299
38.42309535
38.47735962
37.43513374
37.13373506
37.18113881
36.22642508
35.65715425
35.74219718
35.24348488
34.87422912
34.95471163
34.54565187
34.25393752
34.33148143
40.6005462
41.08529066
41.24214367
41.15187426
40.92722061
41.02547566
39.97830428
39.62318074
39.69059314
38.55384939
38.20958517
38.26245047
37.24347175
36.94700036
36.99326074
36.05233526
35.48896737
35.57273912
35.07949491
34.71410501
34.79398315
34.38922627
34.10180036
34.17850192
39.90115891
40.46725989
40.62033691
40.71796143
40.53971267
40.63580908
39.6897322
39.35727456
39.42322107
38.3350636
38.0012863
38.05290851
37.05645248
36.76467454
36.80986133
35.88175924
35.32343114
35.40586983
34.91755998
34.55548949
34.63459673
34.23376752
33.94884028
34.02615868
39.2203131
39.86437064
40.01377978
40.29341388
40.16018735
40.25437563
39.40693629
39.09676985
39.16143097
38.12105757
37.79764488
37.84814816
36.8737314
36.58648953
36.6306648
35.71461616
35.16067703
35.24173518
34.75787664
34.3986246
34.47687087
34.07969755
33.79876236
33.87420266
38.55794009
39.27517557
39.42126591
39.87720391
39.78771582
39.88021906
39.12915922
38.84096376
38.90450759
37.9112735
37.59814985
37.64766011
36.69494906
36.412141
36.45538524
35.55075351
35.00078528
35.08048975
34.60050092
34.24366189
34.32110804
33.92701893
33.64699898
33.72389141
37.91294481
38.69901793
38.84201002
39.46852586
39.42156158
39.51253407
38.85581018
38.58929602
38.6518478
37.70524105
37.40236261
37.45098086
36.51977915
36.24134864
36.28372489
35.39011953
34.84355396
34.92228005
34.44530873
34.09045706
34.16751274
33.77592844
33.50040911
33.57424094
37.28455911
38.13600698
38.27628054
39.06716643
39.06134649
39.1509165
38.58646878
38.34135694
38.40301608
37.50259211
37.20993419
37.25774489
36.3479567
36.07388819
36.11545443
35.23253324
34.68830651
34.76730745
34.29163393
33.93846023
34.01667822
33.62554645
33.34882051
33.42760499
36.67098163
37.5846239
37.7252538
38.6727493
38.7061947
38.79523195
38.32066643
38.09672079
38.15769676
37.30297513
37.02053179
37.06763443
36.17921554
35.90952099
35.95034041
35.0777535
34.53253499
34.61673194
34.1370632
33.78529269
33.86983184
33.47401321
33.20386989
33.28267744
36.06453919
37.03688923
37.1937968
38.27846642
38.3501111
38.44841059
38.05472029
37.85233367
37.9168387
37.1045311
36.83253856
36.88088745
36.01241058
35.74720505
35.7884539
34.91756613
34.36527391
34.47561092
33.97108952
33.62055761
33.73125398
33.31014045
33.03438109
33.1474551
55.47178568
56.41003125
56.44120301
49.40685187
45.34254776
45.78765959
39.59266596
39.43091856
41.58413379
56.44708213
56.46530922
55.54296983
57.68236748
57.89821977
53.56052226
53.22453421
49.40823632
41.02252114
40.56882888
39.48066806
40.42691075
40.54154879
39.58997492
42.35315039
41.36454042
51.1754043
54.36554588
54.02912671
40.44917496
40.43780456
45.69177268
45.57131711
46.95067846
43.30860737
44.37090892
44.46430553
41.59917401
41.54672401
42.37453175
40.16294505
40.81016847
40.8643923
39.13437777
39.09653563
39.59467943
38.27884903
38.66005315
38.6944073
51.46789975
50.80101274
46.09700584
56.40411781
54.26129402
54.70660744
53.28743297
53.78280156
56.08669659
52.30618303
52.27518795
54.10228168
48.78204949
50.50433529
50.5150245
50.41224146
50.48002325
48.76620224
45.84405267
45.83024688
47.21087839
43.53650984
44.61170983
44.62045675
44.53248099
44.57057869
43.47999616
41.75059682
41.71886854
42.57394283
40.31048471
40.96896373
41.00453838
40.91106292
40.95777746
40.30217477
39.25583839
39.23342418
39.73465654
38.4051913
38.79384149
38.81328183
38.73282668
38.76501521
38.37757969
57.50449529
57.59099424
55.4823572
58.36770653
58.33798762
58.43437355
51.91136663
52.05825322
53.82400681
48.6298276
50.30784185
50.17293489
50.47893039
50.4041361
48.70529752
45.69481607
45.7579916
47.11143644
43.49868432
44.56014333
44.51270067
44.62010945
44.6150446
43.55119539
41.71372709
41.74705062
42.56814503
40.37079773
41.01603944
40.98939914
41.00446878
41.01213444
40.36169939
39.30963906
39.29972254
39.79992454
38.48440425
38.86539567
38.88074715
38.83648496
38.85149278
38.46864458
49.14418835
49.06605864
55.4287701
55.95841914
54.52890518
54.2046879
55.5738962
55.08227327
56.47873652
56.04243242
54.62413378
50.72127235
51.08949948
52.67615466
47.98565306
49.49632375
49.17974807
50.00507988
49.77416552
48.20877238
45.19989551
45.35625008
46.60566566
43.25652727
44.244572
44.11955947
44.44391572
44.35377294
43.34239345
41.5437393
41.60084135
42.37883582
40.30687667
40.91327881
40.87273994
40.97243918
40.94708964
40.3284796
39.29870637
39.3037771
39.77316154
38.52209068
38.89254319
38.89239042
38.88472106
38.88992716
38.51779259
50.89256469
50.44901372
53.45852609
53.92997684
53.31531006
52.20359646
53.5032328
52.9501064
54.57075752
54.04366306
52.74190769
48.99871918
49.45049003
50.85273132
46.80767659
48.07894448
47.69010695
48.83226174
48.46250746
47.12874648
44.38564487
44.60354053
45.65188333
42.80127318
43.6558796
43.48261441
43.98083784
43.82398574
42.93078507
41.27284401
41.34491031
42.03341953
40.18714091
40.73108613
40.68389576
40.82742193
40.77933486
40.21872006
39.26763807
39.27666571
39.70623471
38.51674849
38.88276436
38.87512467
38.89122655
38.88849989
38.52161111
51.3747104
51.42954614
51.60432638
52.06691288
52.03255316
50.02010038
51.24882651
50.69433125
52.38583053
51.81605824
50.55245361
47.2791679
47.67882738
48.86021116
45.54106698
46.56460332
46.22649976
47.30339389
46.92575572
45.84228003
43.56794841
43.75489534
44.60684146
42.27700385
42.98020322
42.83266657
43.30921515
43.14035318
42.40088124
41.00752739
41.06489318
41.63993159
40.06994409
40.54588765
40.50321884
40.63499208
40.58896433
40.10160069
39.1865551
39.2140578
39.62708139
38.46898466
38.82858783
38.80418764
38.86451883
38.84887622
38.48735725
50.43881427
50.73448388
49.78340741
50.20130775
50.56476574
48.21774198
49.23092795
48.84358845
50.16523125
49.67565318
48.60617438
46.04127312
46.29062197
47.24958639
44.57432903
45.39759204
45.19223393
45.91658861
45.63881709
44.77310467
43.0294698
43.13077094
43.82010898
41.90545866
42.49604611
42.4083901
42.70041552
42.58838118
41.98213042
40.77658898
40.837897
41.35381825
39.90324244
40.3551898
40.30041083
40.45712571
40.40759189
39.94990678
39.0425947
39.08279703
39.47977344
38.36216846
38.71066468
38.67403944
38.77609516
38.74480894
38.39344845
49.18948381
49.50261414
48.52522926
48.79623784
49.24088493
47.16864948
48.0036347
47.77875786
48.50567032
48.23454196
47.36774902
45.37980474
45.53023272
46.34219978
44.03944462
44.76049158
44.62706643
45.03525908
44.8962186
44.16068868
42.63750852
42.73467631
43.365353
41.59049044
42.14407174
42.05610096
42.32046406
42.23226854
41.67016161
40.51743819
40.58367361
41.07117762
39.69537837
40.12576196
40.06516823
40.243672
40.18535267
39.74981762
38.86269281
38.90999846
39.29065164
38.21597625
38.5521285
38.50828069
38.63522817
38.59450434
38.25535243
47.97788334
48.27373907
47.50931691
47.75416337
48.09244587
46.41112085
47.12771042
46.91837902
47.55783614
47.34083582
46.5956048
44.80387576
44.94422473
45.67482916
43.57231723
44.24009811
44.11528386
44.49590297
44.36693997
43.68638509
42.25829218
42.35148982
42.94314475
41.27204692
41.79522735
41.70969973
41.96853938
41.88153961
41.3512771
40.24879589
40.31617673
40.77972241
39.46800333
39.87951648
39.81692087
40.00380078
39.94185898
39.52589104
38.66341291
38.71442287
39.08008008
38.04538121
38.36989701
38.32196973
38.46319719
38.41699722
38.08971027
46.83954429
47.11757984
46.58023647
46.80559271
47.03019041
45.7032369
46.31202585
46.11673827
46.71273501
46.51064096
45.87588995
44.26391084
44.39586137
45.05308951
43.13300226
43.75205768
43.63445865
43.99239906
43.8713408
43.24041696
41.89714642
41.98568597
42.54373723
40.96070064
41.45842639
41.37655593
41.625027
41.5412514
41.03754606
39.98095335
40.04748442
40.49093466
39.2334033
39.62879017
39.56628984
39.75419778
39.69145052
39.29228009
38.45481589
38.5074521
38.86001055
37.86045279
38.17465184
38.12466478
38.27340539
38.22424135
37.9076011
45.76758872
46.02982042
45.71805756
45.92814837
46.04127019
45.03875021
45.54955077
45.36629377
45.92464781
45.73562594
45.20114828
43.75431542
43.8791233
44.46904815
42.7176146
43.29108728
43.17957957
43.51847136
43.40403255
42.81944371
41.55388248
41.63813969
42.16553679
40.6609251
41.13661079
41.0584623
41.29563763
41.21566117
40.73470188
39.71919266
39.78390595
40.21037539
38.99861164
39.38036747
39.31907931
39.50401575
39.44202535
39.05707453
38.24316316
38.29611986
38.63753966
37.66808811
37.97333367
37.92262783
38.07441794
38.02393483
37.71656761
44.75366541
45.00202168
44.90920213
45.10711818
45.11353628
44.411472
44.83226367
44.65913703
45.18574501
45.00776785
44.56513374
43.27064851
43.38934631
43.91679741
42.32238885
42.85314375
42.74687868
43.06945417
42.96066136
42.4194784
41.22623953
41.30680889
41.80538118
40.37344479
40.82913626
40.75431758
40.98118643
40.90475579
40.44420644
39.46564411
39.52822067
39.93992839
38.76750458
39.13767641
39.07809171
39.25818818
39.1977168
38.82481213
38.03235726
38.08483261
38.41684872
37.47304138
37.77054956
37.71998837
37.87191275
37.82119475
37.52185433
43.78653179
44.02434278
44.14220261
44.33033955
44.24308011
43.81576293
44.15272858
43.98793538
44.48824035
44.31946809
43.96202613
42.80911907
42.92262011
43.39146128
41.94452133
42.43505499
42.33329663
42.64180431
42.53787668
42.03749706
40.9120721
40.98945377
41.46068898
40.09736133
40.53434001
40.46242943
40.68026132
40.60694281
40.1653836
39.22066957
39.28112692
39.67952062
38.54196335
38.90207049
38.84431308
39.0189601
38.96028557
38.59777828
37.82467971
37.87623057
38.20023951
37.27833991
37.56919594
37.51928786
37.66956898
37.61928662
37.32685488
42.86116114
43.08880066
43.41168386
43.59118295
43.41975728
43.24650427
43.50447058
43.34670537
43.82500941
43.6638776
43.38658286
42.3663359
42.47544769
42.88877192
41.58163796
42.03398525
41.93606869
42.23255744
42.13279874
41.67107263
40.60960086
40.6842131
41.12937739
39.83142589
40.25061873
40.1812492
40.39118567
40.32058818
39.89702431
38.98383485
39.04231907
39.42835086
38.32263
38.67373658
38.61775431
38.78700754
38.73014997
38.37687385
37.62127372
37.67169564
37.98875592
37.08577822
37.3709108
37.32191965
37.4696037
37.4201325
37.13364051
41.97321388
42.19193123
42.7127695
42.88451931
42.63256936
42.69954897
42.88284512
42.73101755
43.19055725
43.03593262
42.83437692
41.93947403
42.04483544
42.40516941
41.23165696
41.64744658
41.55283242
41.83903401
41.7428365
41.3180427
40.31735463
40.38953288
40.80966704
39.57448156
39.9766108
39.90949005
40.11247364
40.04426601
39.63793063
38.75450878
38.81117454
39.1855074
38.10952572
38.45237029
38.39806738
38.56220678
38.50708067
38.16222725
37.42262945
37.4718359
37.78273028
36.89635212
37.17652496
37.12858564
37.27319709
37.2247239
36.94336773
41.11599149
41.32772047
42.04453742
42.20911253
41.87300831
42.17151672
42.28321704
42.13646943
42.58046965
42.43120845
42.30192306
41.52614167
41.62832239
41.9377898
40.89278994
41.27333996
41.18153638
41.45896169
41.36580595
40.97655609
40.03401614
40.1040821
40.50002346
39.32551997
39.71115352
39.64599925
39.8428839
39.77677632
39.38706545
38.53200471
38.58702821
38.95014329
37.90240963
38.23751107
38.18475171
38.34416141
38.29064474
37.95364772
37.2288413
37.27683733
37.58214247
36.71057915
36.98640412
36.93955039
37.08092315
37.03352355
36.75665541
40.28564482
40.4908085
41.40010414
41.55927597
41.13771836
41.65962088
41.70330116
41.56117389
41.9909092
41.84654665
41.78619206
41.1243255
41.22379185
41.48418427
40.56344164
40.90982971
40.8204272
41.09035692
40.99979868
40.6449615
39.75840867
39.82664234
40.1990558
39.08359988
39.45317515
39.38973953
39.58128775
39.51701972
39.1434657
38.31565096
38.36919629
38.7214431
37.70089479
38.02861825
37.97726774
38.13234965
38.08030938
37.75076986
37.03980008
37.08662463
37.38676353
36.52865811
36.80061596
36.75483967
36.89296791
36.8466542
36.57376278
39.48164758
39.68015888
40.77436223
40.92935191
40.42394926
41.16180422
41.14126705
41.0036472
41.42007162
41.28003095
41.28509218
40.73240787
40.82953864
41.04246427
40.24227095
40.55540144
40.46805817
40.73156771
40.64323166
40.32186474
39.48950859
39.55615767
39.9055751
38.84788806
39.20173689
39.13979742
39.32669608
39.26403216
38.90627867
38.10482363
38.15704649
38.49867371
37.50456744
37.82516561
37.77509084
37.92624687
37.87554824
37.55318816
36.85530532
36.90101773
37.19629635
36.35063283
36.61909453
36.57436153
36.70933195
36.66408066
36.39476929
38.70317534
38.89547547
40.16400998
40.3151567
39.72925022
40.6760671
40.59677252
40.46294788
40.86707418
40.73145964
40.79639647
40.3490167
40.44412453
40.61098598
39.92810788
40.20876017
40.12319395
40.3811824
40.29474779
40.0060443
39.22639504
39.29167285
39.61852431
38.6176062
38.95597558
38.89533776
39.07819888
39.0169232
38.67470434
37.89891766
37.94996137
38.28113748
37.31297973
37.62661844
37.5776934
37.72531339
37.67582063
37.36045463
36.67508405
36.71975303
37.0103839
36.17642877
36.44167069
36.39793286
36.52988496
36.48564971
36.21962073
37.94847681
38.13489292
39.56810454
39.71582639
39.05308259
40.20167177
40.06629167
39.9355907
40.32995583
40.19774895
40.3192588
39.97312207
40.06643914
40.18862803
39.62001735
39.86888363
39.78487106
40.03803397
39.95326751
39.69651663
38.96831762
39.03240239