/*--------------------------------*- C++ -*----------------------------------*\
| =========                 |                                                 |
| \\      /  F ield         | OpenFOAM: The Open Source CFD Toolbox           |
|  \\    /   O peration     | Version:  v2012                                 |
|   \\  /    A nd           | Website:  www.openfoam.com                      |
|    \\/     M anipulation  |                                                 |
\*---------------------------------------------------------------------------*/
FoamFile
{
    version     2.0;
    format      ascii;
    class       pointVectorField;
    location    "1.92";
    object      pointDisplacement;
}
// * * * * * * * * * * * * * * * * * * * * * * * * * * * * * * * * * * * * * //

dimensions      [0 1 0 0 0 0 0];


internalField   nonuniform List<vector> 
6426
(
(0 0 0)
(0 0 0)
(0 0 0)
(0 0 0)
(0 0 0)
(0 0 0)
(0 0 0)
(0 0 0)
(0 0 0)
(0 0 0)
(-0.0007546774567 -0.09362109745 0)
(-0.0007672000427 -0.09388321125 0)
(-0.0007779604002 -0.09414541714 0)
(-0.0002356561978 -0.09415252364 0)
(-0.0002115461387 -0.09362861588 0)
(0.008073472795 -0.093789716 0)
(0.00803056685 -0.09483844496 0)
(0.007987227724 -0.09588686956 0)
(0.0102134686 -0.09593583448 0)
(0.01029734127 -0.0938375947 0)
(0.009185820538 -0.09381376339 0)
(0.01626990188 -0.08976778882 3.433225926e-13)
(0.01598138078 -0.09046628365 3.384514891e-13)
(0.01704901556 -0.08507293317 3.181899189e-13)
(0.01750623079 -0.08521715442 3.258227022e-13)
(0.01765739092 -0.06333436192 2.421535195e-13)
(0.01701960465 -0.06248076454 2.337019467e-13)
(0.01579060283 -0.05323822892 1.992017662e-13)
(0.01645772773 -0.05422810621 2.074174166e-13)
(0.01001721615 -0.02649669992 1.015298956e-13)
(0.009414049755 -0.02546668615 9.545142454e-14)
(0.006887741743 -0.01748286432 6.557254739e-14)
(0.007418925464 -0.01841421407 7.059630658e-14)
(0.001055276092 -0.002213137944 8.493206138e-15)
(0.0008578475084 -0.001839840177 6.911138328e-15)
(6.801799191e-05 -0.0001388320001 5.273559367e-16)
(0.0001299521025 -0.0002593573014 9.853229344e-16)
(0 0 0)
(0 0 0)
(0 0 0)
(0 0 0)
(0 0 0)
(0 0 0)
(0 0 0)
(0 0 0)
(0 0 0)
(0 0 0)
(0 0 0)
(0 0 0)
(0 0 0)
(0 0 0)
(-0.001287422227 -0.1019368175 0)
(-0.001300309349 -0.1024633011 0)
(-0.001313208917 -0.1029902739 0)
(-0.0001919015117 -0.103017723 0)
(-0.0001661134156 -0.1019642666 0)
(0.007683007647 -0.1021564092 0)
(0.007631443432 -0.1042628327 0)
(0.009840154492 -0.1039179112 3.580330477e-13)
(0.009918555663 -0.1021302962 3.591293929e-13)
(0.01513752536 -0.09231439084 3.241573676e-13)
(0.01475872348 -0.09218320504 3.172462293e-13)
(0.01550050394 -0.0850707607 2.927103004e-13)
(0.01595562894 -0.08557668369 3.00454106e-13)
(0.01481394415 -0.05811071877 2.040728697e-13)
(0.01421449807 -0.05696338435 1.960515084e-13)
(0.01267468932 -0.04657095326 1.603439603e-13)
(0.01354224515 -0.04874561143 1.712380238e-13)
(0.007105191519 -0.02049080254 7.209510766e-14)
(0.006192263692 -0.0182230991 6.282474541e-14)
(0.004208041436 -0.01162024107 4.007905119e-14)
(0.004795028378 -0.0129734148 4.567179968e-14)
(0.0001766213378 -0.0004039882776 1.415534356e-15)
(7.977869015e-05 -0.0001862913262 6.383782392e-16)
(0 0 0)
(0 0 0)
(0 0 0)
(0 0 0)
(0 0 0)
(0 0 0)
(0 0 0)
(0 0 0)
(0 0 0)
(0 0 0)
(0 0 0)
(0 0 0)
(0 0 0)
(0 0 0)
(0 0 0)
(0 0 0)
(-0.001493701432 -0.1103634901 0)
(-0.001545277625 -0.1124704029 0)
(0.0006973318883 -0.1125253008 0)
(0.0007489080806 -0.110418388 0)
(0.00742029457 -0.1095956066 3.562011797e-13)
(0.007273184182 -0.1099438932 3.506639423e-13)
(0.009205572692 -0.1066185683 3.399225346e-13)
(0.009447728213 -0.1071349839 3.480549182e-13)
(0.01351416995 -0.08977993097 2.914057884e-13)
(0.01293064992 -0.08752356978 2.788325126e-13)
(0.01322242934 -0.07848370133 2.500083474e-13)
(0.01390597273 -0.08103786484 2.630118345e-13)
(0.01176037523 -0.04995246824 1.622035839e-13)
(0.01092644513 -0.04725682377 1.506156311e-13)
(0.009273916888 -0.03677249864 1.172395514e-13)
(0.01009204965 -0.03929863881 1.2766177e-13)
(0.003963210574 -0.01236113103 4.021782907e-14)
(0.003405263506 -0.01081815793 3.452793607e-14)
(0.001742491778 -0.005195934118 1.659783422e-14)
(0.00236685708 -0.006929576078 2.255140519e-14)
(0 0 0)
(0 0 0)
(0 0 0)
(0 0 0)
(0 0 0)
(0 0 0)
(0 0 0)
(0 0 0)
(0 0 0)
(0 0 0)
(0 0 0)
(0 0 0)
(0 0 0)
(0 0 0)
(0 0 0)
(0 0 0)
(0 0 0)
(0 0 0)
(-0.001580146698 -0.1140510524 3.450573161e-13)
(-0.001493779199 -0.1106511095 3.289313266e-13)
(0.0005688521109 -0.1088555527 3.234634782e-13)
(0.0005814166505 -0.1126579513 3.406858129e-13)
(0.006454859229 -0.1030509246 3.112787805e-13)
(0.0060473322 -0.0977402618 2.901290319e-13)
(0.00743800504 -0.09189523987 2.726985304e-13)
(0.008004521991 -0.09763169096 2.948058464e-13)
(0.01049907805 -0.07463398118 2.252642517e-13)
(0.009482567683 -0.06835661268 2.027683577e-13)
(0.009335970263 -0.05903557697 1.751238043e-13)
(0.01045885263 -0.06519526252 1.967731533e-13)
(0.007776305595 -0.03535697203 1.067756994e-13)
(0.006590812383 -0.03043270051 9.033052084e-14)
(0.005148606124 -0.02181641251 6.47676357e-14)
(0.006252484581 -0.02607855428 7.878420138e-14)
(0.001568775374 -0.005253460982 1.589006704e-14)
(0.001010408143 -0.003441300795 1.022792961e-14)
(0.0002264445912 -0.0007246865357 2.15105711e-15)
(0.0005234603719 -0.001646575996 4.982125823e-15)
(0 0 0)
(0 0 0)
(0 0 0)
(0 0 0)
(0 0 0)
(0 0 0)
(0 0 0)
(0 0 0)
(0 0 0)
(0 0 0)
(0 0 0)
(0 0 0)
(0 0 0)
(0 0 0)
(0 0 0)
(0 0 0)
(0 0 0)
(0 0 0)
(-0.001004110643 -0.08896157339 2.512989816e-13)
(-0.0008067926131 -0.07871324682 2.187139359e-13)
(0.0005589822665 -0.0763228991 2.120248421e-13)
(0.0005691154414 -0.08658213444 2.445127434e-13)
(0.004465287415 -0.07360791766 2.077088501e-13)
(0.003848147135 -0.06356353717 1.764699498e-13)
(0.004522742496 -0.05766599299 1.600802824e-13)
(0.005321122579 -0.06747804576 1.903893709e-13)
(0.00605676519 -0.04526030044 1.276756478e-13)
(0.004883153194 -0.03687824191 1.023764407e-13)
(0.004452435113 -0.02959301218 8.215650382e-14)
(0.005667358817 -0.03723202042 1.050409759e-13)
(0.00310000236 -0.01495381161 4.221623051e-14)
(0.002095288725 -0.01025091654 2.847722058e-14)
(0.001235496566 -0.005559651512 1.543210004e-14)
(0.002054318985 -0.009108648778 2.571554081e-14)
(1.726845127e-05 -6.180794929e-05 1.665334537e-16)
(0 0 0)
(0 0 0)
(0 0 0)
(0 0 0)
(0 0 0)
(0 0 0)
(0 0 0)
(0 0 0)
(0 0 0)
(0 0 0)
(0 0 0)
(0 0 0)
(0 0 0)
(0 0 0)
(0 0 0)
(0 0 0)
(0 0 0)
(0 0 0)
(0 0 0)
(0 0 0)
(0 0 0)
(-0.0002997367841 -0.0442204254 1.171285291e-13)
(-0.0001868743065 -0.03303402532 8.618106229e-14)
(0.0003378068345 -0.03130623793 8.165690346e-14)
(0.0004201445927 -0.04223981681 1.118688475e-13)
(0.001947580684 -0.03219291662 8.523737272e-14)
(0.001372429876 -0.02270420874 5.920264279e-14)
(0.001468797816 -0.01905662418 4.969635814e-14)
(0.002154644426 -0.02782193659 7.366329768e-14)
(0.001774179567 -0.01381916172 3.659572645e-14)
(0.001007930532 -0.007937283631 2.070565941e-14)
(0.0006904586698 -0.00480906739 1.253164239e-14)
(0.001383658307 -0.009520224864 2.521594045e-14)
(0.0001589704757 -0.0008118506247 2.137179322e-15)
(4.463326559e-07 -2.31380341e-06 1.387778781e-17)
(0 0 0)
(1.858628065e-06 -8.749356677e-06 2.775557562e-17)
(0 0 0)
(0 0 0)
(0 0 0)
(0 0 0)
(0 0 0)
(0 0 0)
(0 0 0)
(0 0 0)
(0 0 0)
(0 0 0)
(0 0 0)
(0 0 0)
(0 0 0)
(0 0 0)
(0 0 0)
(0 0 0)
(0 0 0)
(0 0 0)
(0 0 0)
(0 0 0)
(0 0 0)
(0 0 0)
(-2.159880789e-05 -0.007078382241 1.765254609e-14)
(-6.050255775e-06 -0.002356962239 5.800915304e-15)
(2.473466954e-05 -0.00192984029 4.74620343e-15)
(7.939024172e-05 -0.006305892062 1.572353359e-14)
(0.0001734128599 -0.002908873607 7.258083023e-15)
(2.148203658e-05 -0.0003641293174 8.881784197e-16)
(3.959204457e-06 -5.323731752e-05 1.387778781e-16)
(0.0001316528566 -0.001748523172 4.357625372e-15)
(0 0 0)
(0 0 0)
(0 0 0)
(0 0 0)
(0 0 0)
(0 0 0)
(0 0 0)
(0 0 0)
(0 0 0)
(0 0 0)
(0 0 0)
(0 0 0)
(0 0 0)
(0 0 0)
(0 0 0)
(0 0 0)
(0 0 0)
(0 0 0)
(0 0 0)
(0 0 0)
(0 0 0)
(0 0 0)
(0 0 0)
(0 0 0)
(0 0 0)
(0 0 0)
(0 0 0)
(0 0 0)
(0 0 0)
(0 0 0)
(0 0 0)
(0 0 0)
(0 0 0)
(0 0 0)
(0 0 0)
(0 0 0)
(0 0 0)
(0 0 0)
(0 0 0)
(0 0 0)
(0 0 0)
(0 0 0)
(0 0 0)
(0 0 0)
(0 0 0)
(0 0 0)
(0 0 0)
(0 0 0)
(0 0 0)
(0 0 0)
(0 0 0)
(0 0 0)
(0 0 0)
(0 0 0)
(0 0 0)
(0 0 0)
(0 0 0)
(0 0 0)
(0 0 0)
(0 0 0)
(0 0 0)
(0 0 0)
(0 0 0)
(0 0 0)
(0 0 0)
(0 0 0)
(0 0 0)
(0 0 0)
(0 0 0)
(0 0 0)
(0 0 0)
(0 0 0)
(0 0 0)
(0 0 0)
(0 0 0)
(0 0 0)
(0 0 0)
(0 0 0)
(0 0 0)
(0 0 0)
(0 0 0)
(0 0 0)
(0 0 0)
(0 0 0)
(0 0 0)
(0 0 0)
(0 0 0)
(0 0 0)
(0 0 0)
(0 0 0)
(0 0 0)
(0 0 0)
(0 0 0)
(0 0 0)
(0 0 0)
(0 0 0)
(0 0 0)
(0 0 0)
(0 0 0)
(0 0 0)
(0 0 0)
(0 0 0)
(0 0 0)
(0 0 0)
(0 0 0)
(0 0 0)
(0 0 0)
(0 0 0)
(0 0 0)
(0 0 0)
(0 0 0)
(0 0 0)
(0 0 0)
(0 0 0)
(0 0 0)
(0 0 0)
(0 0 0)
(0 0 0)
(0 0 0)
(0 0 0)
(0 0 0)
(0 0 0)
(0 0 0)
(0 0 0)
(0 0 0)
(0 0 0)
(0 0 0)
(0 0 0)
(0 0 0)
(0 0 0)
(0 0 0)
(0 0 0)
(0 0 0)
(0 0 0)
(0 0 0)
(0 0 0)
(0 0 0)
(0 0 0)
(0 0 0)
(0 0 0)
(0 0 0)
(0 0 0)
(0 0 0)
(0 0 0)
(0 0 0)
(0 0 0)
(0 0 0)
(0 0 0)
(0 0 0)
(0 0 0)
(0 0 0)
(0 0 0)
(0 0 0)
(0 0 0)
(0 0 0)
(0 0 0)
(0 0 0)
(0 0 0)
(0 0 0)
(0 0 0)
(0 0 0)
(0 0 0)
(0 0 0)
(0 0 0)
(0 0 0)
(0 0 0)
(0 0 0)
(0 0 0)
(0 0 0)
(0 0 0)
(0 0 0)
(0 0 0)
(0 0 0)
(0 0 0)
(0 0 0)
(0 0 0)
(0 0 0)
(0 0 0)
(0 0 0)
(0 0 0)
(0 0 0)
(0 0 0)
(0 0 0)
(0 0 0)
(0 0 0)
(0 0 0)
(0 0 0)
(0 0 0)
(0 0 0)
(0 0 0)
(0 0 0)
(0 0 0)
(0 0 0)
(0 0 0)
(0 0 0)
(0 0 0)
(0 0 0)
(0 0 0)
(0 0 0)
(0 0 0)
(0 0 0)
(0 0 0)
(0 0 0)
(0 0 0)
(0 0 0)
(0 0 0)
(0 0 0)
(0 0 0)
(0 0 0)
(0 0 0)
(0 0 0)
(0 0 0)
(0 0 0)
(0 0 0)
(0 0 0)
(0 0 0)
(0 0 0)
(0 0 0)
(0 0 0)
(0 0 0)
(0 0 0)
(0 0 0)
(0 0 0)
(0 0 0)
(0 0 0)
(0 0 0)
(0 0 0)
(0 0 0)
(0 0 0)
(0 0 0)
(0 0 0)
(0 0 0)
(0 0 0)
(0 0 0)
(0 0 0)
(0 0 0)
(0 0 0)
(0 0 0)
(0 0 0)
(0 0 0)
(0 0 0)
(0 0 0)
(0 0 0)
(0 0 0)
(0 0 0)
(0 0 0)
(0 0 0)
(0 0 0)
(0 0 0)
(0 0 0)
(0 0 0)
(0 0 0)
(0 0 0)
(0 0 0)
(0 0 0)
(0 0 0)
(0 0 0)
(0 0 0)
(0 0 0)
(0 0 0)
(0 0 0)
(0 0 0)
(0 0 0)
(0 0 0)
(0 0 0)
(0 0 0)
(0 0 0)
(0 0 0)
(0 0 0)
(0 0 0)
(0 0 0)
(0 0 0)
(0 0 0)
(0 0 0)
(0 0 0)
(0 0 0)
(0 0 0)
(0 0 0)
(0 0 0)
(0 0 0)
(0 0 0)
(0 0 0)
(0 0 0)
(0 0 0)
(0 0 0)
(0 0 0)
(0 0 0)
(0 0 0)
(0 0 0)
(0 0 0)
(0 0 0)
(0 0 0)
(0 0 0)
(0 0 0)
(0 0 0)
(0 0 0)
(0 0 0)
(0 0 0)
(0 0 0)
(0 0 0)
(0 0 0)
(0 0 0)
(0 0 0)
(0 0 0)
(0 0 0)
(0 0 0)
(0 0 0)
(0 0 0)
(0 0 0)
(0 0 0)
(0 0 0)
(0 0 0)
(0 0 0)
(0 0 0)
(0 0 0)
(0 0 0)
(0 0 0)
(0 0 0)
(0 0 0)
(0 0 0)
(0 0 0)
(0 0 0)
(0 0 0)
(0 0 0)
(0 0 0)
(0 0 0)
(0 0 0)
(0 0 0)
(0 0 0)
(0 0 0)
(0 0 0)
(0 0 0)
(0 0 0)
(0 0 0)
(0 0 0)
(0 0 0)
(0 0 0)
(0 0 0)
(0 0 0)
(0 0 0)
(0 0 0)
(0 0 0)
(0 0 0)
(0 0 0)
(0 0 0)
(0 0 0)
(0 0 0)
(0 0 0)
(0 0 0)
(0 0 0)
(0 0 0)
(0 0 0)
(0 0 0)
(0 0 0)
(0 0 0)
(0 0 0)
(0 0 0)
(0 0 0)
(0 0 0)
(0 0 0)
(0 0 0)
(0 0 0)
(0 0 0)
(0 0 0)
(0 0 0)
(0 0 0)
(0 0 0)
(0 0 0)
(0 0 0)
(0 0 0)
(0 0 0)
(0 0 0)
(0 0 0)
(0 0 0)
(0 0 0)
(0 0 0)
(0 0 0)
(0 0 0)
(0 0 0)
(0 0 0)
(0 0 0)
(0 0 0)
(0 0 0)
(0 0 0)
(0 0 0)
(0 0 0)
(0 0 0)
(0 0 0)
(0 0 0)
(0 0 0)
(0 0 0)
(0 0 0)
(0 0 0)
(0 0 0)
(0 0 0)
(0 0 0)
(0 0 0)
(0 0 0)
(0 0 0)
(0 0 0)
(0 0 0)
(0 0 0)
(0 0 0)
(0 0 0)
(0 0 0)
(0 0 0)
(0 0 0)
(0 0 0)
(0 0 0)
(0 0 0)
(0 0 0)
(0 0 0)
(0 0 0)
(0 0 0)
(0 0 0)
(0 0 0)
(0 0 0)
(0 0 0)
(0 0 0)
(0 0 0)
(0 0 0)
(0 0 0)
(0 0 0)
(0 0 0)
(0 0 0)
(0 0 0)
(0 0 0)
(0 0 0)
(0 0 0)
(0 0 0)
(0 0 0)
(0 0 0)
(0 0 0)
(0 0 0)
(0 0 0)
(0 0 0)
(0 0 0)
(0 0 0)
(0 0 0)
(0 0 0)
(0 0 0)
(0 0 0)
(0 0 0)
(0 0 0)
(0 0 0)
(0 0 0)
(0 0 0)
(0 0 0)
(0 0 0)
(0 0 0)
(0 0 0)
(0 0 0)
(0 0 0)
(0 0 0)
(0 0 0)
(0 0 0)
(0 0 0)
(0 0 0)
(0 0 0)
(0 0 0)
(0 0 0)
(0 0 0)
(0 0 0)
(0 0 0)
(0 0 0)
(0 0 0)
(0 0 0)
(0 0 0)
(0 0 0)
(0 0 0)
(0 0 0)
(0 0 0)
(0 0 0)
(0 0 0)
(0 0 0)
(0 0 0)
(0 0 0)
(0 0 0)
(0 0 0)
(0 0 0)
(0 0 0)
(0 0 0)
(0 0 0)
(0 0 0)
(0 0 0)
(0 0 0)
(0 0 0)
(0 0 0)
(0 0 0)
(0 0 0)
(0 0 0)
(0 0 0)
(0 0 0)
(0 0 0)
(0 0 0)
(0 0 0)
(0 0 0)
(0 0 0)
(0 0 0)
(0 0 0)
(0 0 0)
(0 0 0)
(0 0 0)
(0 0 0)
(0 0 0)
(0 0 0)
(0 0 0)
(0 0 0)
(0 0 0)
(0 0 0)
(0 0 0)
(0 0 0)
(0 0 0)
(0 0 0)
(0 0 0)
(0 0 0)
(0 0 0)
(0 0 0)
(0 0 0)
(0 0 0)
(0 0 0)
(0 0 0)
(0 0 0)
(0 0 0)
(0 0 0)
(0 0 0)
(0 0 0)
(0 0 0)
(0 0 0)
(0 0 0)
(0 0 0)
(0 0 0)
(0 0 0)
(0 0 0)
(0 0 0)
(0 0 0)
(0 0 0)
(0 0 0)
(0 0 0)
(0 0 0)
(0 0 0)
(0 0 0)
(0 0 0)
(0 0 0)
(0 0 0)
(0 0 0)
(0 0 0)
(0 0 0)
(0 0 0)
(0 0 0)
(0 0 0)
(0 0 0)
(0 0 0)
(0 0 0)
(0 0 0)
(0 0 0)
(0 0 0)
(0 0 0)
(0 0 0)
(0 0 0)
(0 0 0)
(0 0 0)
(0 0 0)
(0 0 0)
(0 0 0)
(0 0 0)
(0 0 0)
(0 0 0)
(0 0 0)
(0 0 0)
(0 0 0)
(0 0 0)
(0 0 0)
(0 0 0)
(0 0 0)
(0 0 0)
(0 0 0)
(0 0 0)
(0 0 0)
(0 0 0)
(0 0 0)
(0 0 0)
(0 0 0)
(0 0 0)
(0 0 0)
(0 0 0)
(0 0 0)
(0 0 0)
(0 0 0)
(0 0 0)
(0 0 0)
(0 0 0)
(0 0 0)
(0 0 0)
(0 0 0)
(0 0 0)
(0 0 0)
(0 0 0)
(0 0 0)
(0 0 0)
(0 0 0)
(0 0 0)
(0 0 0)
(0 0 0)
(0 0 0)
(0 0 0)
(0 0 0)
(0 0 0)
(0 0 0)
(0 0 0)
(0 0 0)
(0 0 0)
(0 0 0)
(0 0 0)
(0 0 0)
(0 0 0)
(0 0 0)
(0 0 0)
(0 0 0)
(0 0 0)
(0 0 0)
(0 0 0)
(0 0 0)
(0 0 0)
(0 0 0)
(0 0 0)
(0 0 0)
(0 0 0)
(0 0 0)
(0 0 0)
(0 0 0)
(0 0 0)
(0 0 0)
(0 0 0)
(0 0 0)
(0 0 0)
(0 0 0)
(0 0 0)
(0 0 0)
(0 0 0)
(0 0 0)
(0 0 0)
(0 0 0)
(0 0 0)
(0 0 0)
(0 0 0)
(0 0 0)
(0 0 0)
(0 0 0)
(0 0 0)
(0 0 0)
(0 0 0)
(0 0 0)
(0 0 0)
(0 0 0)
(0 0 0)
(0 0 0)
(0 0 0)
(0 0 0)
(0 0 0)
(0 0 0)
(0 0 0)
(0 0 0)
(0 0 0)
(0 0 0)
(0 0 0)
(0 0 0)
(0 0 0)
(0 0 0)
(0 0 0)
(0 0 0)
(0 0 0)
(0 0 0)
(0 0 0)
(0 0 0)
(0 0 0)
(-0.0007436300857 -0.09335850692 0)
(-0.001016458207 -0.09335456992 0)
(-0.001026957296 -0.09361722284 0)
(-0.0001886034094 -0.09310399411 0)
(-0.0007323791671 -0.09309592136 0)
(0.008113909677 -0.09273984949 0)
(0.007005016778 -0.09271667002 0)
(0.006964141925 -0.09376642788 0)
(-0.001274524796 -0.1014098446 0)
(-0.001835191308 -0.1013961197 0)
(-0.001848081559 -0.1019230928 0)
(-0.001038308622 -0.0938796101 0)
(-0.0001403253194 -0.1009108102 0)
(-0.0006609726806 -0.1009147111 0)
(-0.001186466113 -0.1009268163 0)
(0.007793557726 -0.1000723841 0)
(0.006684248415 -0.1000482153 0)
(0.005568302632 -0.1000231496 0)
(0.005517403538 -0.1010684026 0)
(0.005473755083 -0.1021194635 0)
(0.006921092783 -0.09481500646 0)
(0.003799272836 -0.08949448743 0)
(-0.001467913336 -0.1093100337 0)
(-0.002589220539 -0.1092825846 0)
(-0.002615008635 -0.110336041 0)
(-0.001860964726 -0.1024495765 0)
(-0.0008799336419 -0.08967193434 0)
(-0.0006062862998 -0.08967662577 0)
(0.003632862129 -0.09369584661 0)
(0.003676736679 -0.09264674968 0)
(0.002572331448 -0.09262524675 0)
(0.002549836476 -0.0931499774 0)
(0.002526857993 -0.09367405974 0)
(0.003227830233 -0.09000959891 0)
(0.003779485486 -0.09002041042 0)
(-0.0003307169127 -0.08968200072 0)
(-0.0009779826206 -0.09780040317 0)
(-0.001513787263 -0.09779624643 0)
(-0.001546386435 -0.09831607863 0)
(-0.001011325406 -0.09831997236 0)
(-0.0009441512308 -0.09728045426 0)
(-0.001481413524 -0.0972757233 0)
(-0.0004365444939 -0.09780650929 0)
(-0.0004028091237 -0.09728680283 0)
(0.003440595139 -0.09788364765 0)
(0.003490887403 -0.09683818392 0)
(0.002376366876 -0.09681349583 0)
(0.002319958578 -0.09785680252 0)
(0.002503492965 -0.09419813262 0)
(0.002479894068 -0.09472175914 0)
(0.003587396855 -0.09474392541 0)
(-0.0006742855885 -0.09151959013 0)
(-0.0009537412623 -0.0915130919 0)
(-0.0009597697568 -0.09177751887 0)
(-0.0006827857103 -0.09178312428 0)
(-0.002769392098 -0.09568568177 0)
(-0.002753442099 -0.09542531649 0)
(-0.003037490589 -0.09541723706 0)
(-0.0008560169265 -0.0957153846 0)
(-0.0008284759633 -0.09519288272 0)
(-0.001368065052 -0.09518726249 0)
(-0.001381543979 -0.09544886328 0)
(-0.001394768288 -0.0957098828 0)
(-0.000666038163 -0.09125609875 0)
(-0.0009475235271 -0.09124891437 0)
(-0.000398096313 -0.09152488234 0)
(-0.0003887727198 -0.09126180897 0)
(0.001516608772 -0.09155603753 0)
(0.001537854329 -0.09103034608 0)
(0.000990240083 -0.09102085748 0)
(0.0009688429456 -0.09154674105 0)
(0.001029828265 -0.0899690608 0)
(0.001578158286 -0.08997890964 0)
(-0.003224780145 -0.09987570748 0)
(-0.003214103086 -0.09961374435 0)
(-0.001422687259 -0.09623232647 0)
(-0.0008839077879 -0.09623778 0)
(-0.002777327974 -0.09594986621 0)
(-0.002844689738 -0.09778902737 0)
(-0.002832612983 -0.097527686 0)
(0.0008004722952 -0.1083119646 0)
(-0.0003208300148 -0.1082845156 0)
(-0.001442137218 -0.1082570666 0)
(0.007517893176 -0.1083007948 3.588240816e-13)
(0.005285696214 -0.1084217606 0)
(0.005233149749 -0.1105015365 3.593236819e-13)
(0.005414624717 -0.103154968 0)
(0.005388848598 -0.1042079351 0)
(0.001427525089 -0.09365414975 0)
(0.00145066025 -0.09313026708 0)
(0.0009031941942 -0.09312112481 0)
(0.0008801740696 -0.09364510822 0)
(0.0009475763132 -0.09207189344 0)
(0.001495225906 -0.09208113812 0)
(-0.0004077073937 -0.09178789971 0)
(0.0031978033 -0.1020466136 0)
(0.003267412216 -0.1010118552 0)
(0.002150476982 -0.1009894091 0)
(0.002076496097 -0.1020191646 0)
(0.00226000456 -0.09889855364 0)
(0.003390125326 -0.09892876432 0)
(-0.0004711608024 -0.09832580252 0)
(-0.00139056103 -0.1061501538 0)
(-0.001364772947 -0.1050966974 0)
(-0.002486080132 -0.1050692484 0)
(-0.002511868228 -0.1061227047 0)
(-0.001645846709 -0.09048729996 0)
(-0.00145213807 -0.09045512676 0)
(-0.001527390536 -0.09011830701 0)
(-0.0006364494155 -0.09046618387 0)
(-0.0006278411945 -0.09020211382 0)
(-0.0009088936636 -0.09019562546 0)
(-0.0009154260831 -0.09046013801 0)
(-0.002857420952 -0.09805030375 0)
(-0.002702139895 -0.09987699609 0)
(-0.002665118258 -0.09935624402 0)
(-0.00318980874 -0.09935710838 0)
(-0.001122288164 -0.09987449555 0)
(-0.001085201155 -0.09935619303 0)
(-0.001616143089 -0.09935465225 0)
(-0.001647893295 -0.09987504377 0)
(-0.003258741419 -0.1001304422 0)
(-0.001783128829 -0.09149734209 0)
(-0.001791461443 -0.09176073347 0)
(-0.001517507465 -0.09176513866 0)
(-0.001517022439 -0.09149920514 0)
(-0.001813514023 -0.09255039219 0)
(-0.00153715486 -0.0925558844 0)
(-0.001526929034 -0.09229371438 0)
(-0.00179927557 -0.09228954438 0)
(-0.0007111126674 -0.0925714544 0)
(-0.0007014180497 -0.0923091245 0)
(-0.0009750071145 -0.09230453241 0)
(-0.000984841452 -0.09256680993 0)
(-0.002056449987 -0.09229044585 0)
(-0.002083993265 -0.09254700229 0)
(-0.001983688715 -0.09152631213 0)
(-0.002056126583 -0.09174343465 0)
(-0.001855535616 -0.09360139492 0)
(-0.001851275864 -0.09333658195 0)
(-0.002132046549 -0.09333000257 0)
(-0.00213434891 -0.09359525513 0)
(-0.002120363383 -0.0928011395 0)
(-0.001834519173 -0.09280926288 0)
(-0.003023563712 -0.09458091732 0)
(-0.002699375713 -0.09464647804 0)
(-0.002688005559 -0.09438360165 0)
(-0.002948739733 -0.09436772096 0)
(-0.001885001111 -0.09465647485 0)
(-0.001875414597 -0.09439326105 0)
(-0.002148192642 -0.0943891784 0)
(-0.002156983896 -0.09465270543 0)
(-0.002139500686 -0.09385950772 0)
(-0.001861300313 -0.09386548563 0)
(-0.00193488884 -0.09570361309 0)
(-0.001921740321 -0.09544268964 0)
(-0.002195104528 -0.09543815201 0)
(-0.002208168567 -0.09569922441 0)
(-0.002167572271 -0.09491584575 0)
(-0.001896083778 -0.09491940724 0)
(-0.002962761872 -0.09491273221 0)
(-0.002708314954 -0.09491005041 0)
(-0.001863623036 -0.09115917005 0)
(-0.0009253672864 -0.09072344105 0)
(-0.0006461044465 -0.09072983663 0)
(-0.001718182439 -0.09071265011 0)
(-0.00147679336 -0.09071346746 0)
(-0.001522403146 -0.09123116967 0)
(-0.003164102758 -0.09883480637 0)
(0.009225528266 -0.0927636832 0)
(0.01650564338 -0.08870715181 3.470279619e-13)
(0.01472667286 -0.09113385598 3.566730244e-13)
(0.01456676571 -0.09265171521 3.545080896e-13)
(-0.0009953363404 -0.09282907128 0)
(-0.0007223468171 -0.09283335494 0)
(-0.001550877171 -0.09281708756 0)
(-0.001576977955 -0.09360757741 0)
(-0.001569671871 -0.09334372027 0)
(0.004904867466 -0.08951680282 0)
(0.00823237677 -0.08958641054 0)
(0.007123828775 -0.08956314159 0)
(-0.001147693605 -0.08966910059 0)
(-0.001179562049 -0.08992550219 0)
(-0.000897719651 -0.08993240156 0)
(-0.0006177243336 -0.08993881508 0)
(-0.0003590297928 -0.09047199579 0)
(-0.0003496723563 -0.09020813991 0)
(0.0004639851302 -0.09048563124 0)
(0.0004739655791 -0.090222525 0)
(0.00020042892 -0.09021803211 0)
(0.0001902601426 -0.09048123166 0)
(0.0002190897913 -0.08969232635 0)
(0.0004932762214 -0.08969727577 0)
(-0.002408929071 -0.09359058982 0)
(-0.00239806748 -0.09332828849 0)
(-0.002598974563 -0.0933576417 0)
(-0.002673053487 -0.09357340216 0)
(-0.002473709543 -0.092991704 0)
(-0.002873052221 -0.09415204883 0)
(-0.002674269094 -0.09412186029 0)
(-0.002746309524 -0.09378614731 0)
(-0.00241528308 -0.09412095421 0)
(-0.002416361277 -0.09385419908 0)
(-0.00317712016 -0.09909617367 0)
(-0.002996597839 -0.09516614811 0)
(-0.002801402242 -0.09674011191 0)
(-0.002793506199 -0.09647695464 0)
(-0.00198703972 -0.09675040218 0)
(-0.00197409691 -0.09648908202 0)
(-0.002243650972 -0.0964864981 0)
(-0.002256110576 -0.09674787905 0)
(-0.002220205567 -0.09596174177 0)
(-0.001948699999 -0.09596520575 0)
(-0.001387526282 -0.08966822343 0)
(-0.001459389124 -0.08990107588 0)
(-0.001191463203 -0.09045529015 0)
(-0.001190820929 -0.09018877298 0)
(-0.001797605498 -0.09202452114 0)
(-0.002127212435 -0.09195652668 0)
(-0.002249461883 -0.09232307675 0)
(-0.002323928271 -0.09254646533 0)
(-0.001846906173 -0.09307147791 0)
(-0.002134469318 -0.0930627739 0)
(-0.002400693184 -0.09277674983 0)
(-0.00242925167 -0.09464897799 0)
(-0.002419926981 -0.09438565986 0)
(-0.002728043038 -0.09516895236 0)
(-0.002454539534 -0.09517319964 0)
(-0.002439339663 -0.09491227744 0)
(-0.001793134253 -0.09094346858 0)
(-0.001510875016 -0.09096863986 0)
(-0.001223380101 -0.09097739116 0)
(-0.001204243648 -0.09071739764 0)
(-0.001236126494 -0.09150578758 0)
(-0.001233854083 -0.09124033845 0)
(0.009342762534 -0.08961060574 0)
(0.01267798219 -0.08968324182 0)
(0.01045329509 -0.08963480453 0)
(0.01781552913 -0.08454099005 3.306105389e-13)
(0.01812472802 -0.06347304787 2.482181127e-13)
(0.01866824286 -0.07168001042 2.802619248e-13)
(0.01824047401 -0.0717652768 2.743361094e-13)
(0.01714986682 -0.05519730499 2.159106227e-13)
(0.01083748009 -0.02801954441 1.097871793e-13)
(0.01331980946 -0.03685876776 1.443289932e-13)
(0.01250608199 -0.03540990664 1.355859869e-13)
(0.008203284178 -0.01990327072 7.804867863e-14)
(0.001441766868 -0.002955504538 1.160183061e-14)
(0.0032858403 -0.00710087208 2.788047571e-14)
(0.002717833989 -0.00600837037 2.306488334e-14)
(-0.0003134404558 -0.09572244881 0)
(-0.0002862362308 -0.09519974285 0)
(0.001326624147 -0.09574820284 0)
(0.001353351256 -0.09522538728 0)
(0.000805068075 -0.09521622501 0)
(0.000778931919 -0.09573929983 0)
(0.000856208404 -0.09416911743 0)
(0.001403612049 -0.09417820921 0)
(0.01002842664 -0.1001248895 0)
(0.01541900351 -0.09174189588 3.288758155e-13)
(0.0140083495 -0.09646613654 3.459454945e-13)
(0.01379899895 -0.09740579666 3.421429806e-13)
(0.01439941734 -0.09409527893 3.521627434e-13)
(0.01636324371 -0.08571902733 3.072264665e-13)
(0.01567009361 -0.06016742371 2.156885781e-13)
(0.01652371487 -0.06966500207 2.496614027e-13)
(0.01579898798 -0.06807795633 2.390032616e-13)
(0.01765580088 -0.07112332072 2.659816811e-13)
(0.01425102941 -0.05021381331 1.800642968e-13)
(0.007694397171 -0.02172869617 7.804867863e-14)
(0.01010888843 -0.03056487839 1.097177904e-13)
(0.009452046634 -0.02918751462 1.026401186e-13)
(0.01185333449 -0.03432563005 1.285638263e-13)
(0.005292097712 -0.01402111413 5.039024753e-14)
(0.0004093502719 -0.0009168351681 3.302913498e-15)
(0.00158269452 -0.003735657098 1.34336986e-14)
(0.001121773114 -0.00270363211 9.520162436e-15)
(0.002392570839 -0.005408806534 2.031708135e-14)
(-0.0002692538225 -0.1061776029 0)
(-0.0002434657263 -0.1051241465 0)
(0.003094662893 -0.1062599499 0)
(0.003120450989 -0.1052064935 0)
(0.001999143787 -0.1051790444 0)
(0.00197335569 -0.1062325008 0)
(0.002050708001 -0.103072621 0)
(0.003172015204 -0.10310007 0)
(0.009624819186 -0.1067011396 3.533562332e-13)
(0.01398464364 -0.09108665925 3.013561622e-13)
(0.01296503791 -0.09802798121 3.2439329e-13)
(0.01259242754 -0.0971694139 3.154559947e-13)
(0.01350322091 -0.09774339125 3.364808432e-13)
(0.01446381686 -0.08267198725 2.734895643e-13)
(0.01245716333 -0.0519259161 1.718625242e-13)
(0.01367948635 -0.06270109298 2.074729277e-13)
(0.01300371305 -0.06074190093 1.97189487e-13)
(0.01522805844 -0.0670595365 2.307321001e-13)
(0.01100580643 -0.04207533648 1.39305234e-13)
(0.004919867279 -0.01506577252 4.994615832e-14)
(0.007036432332 -0.02307285509 7.646661082e-14)
(0.006020846084 -0.02010672742 6.537825836e-14)
(0.008502991656 -0.02679514563 9.234280007e-14)
(0.002945287588 -0.008459135807 2.806088695e-14)
(0 0 0)
(0.0003121262636 -0.0007992377361 2.650657471e-15)
(0.0001456984239 -0.0003804225043 1.249000903e-15)
(0.0008459438239 -0.002081245763 7.188694084e-15)
(-0.001614656403 -0.1153437111 3.552713679e-13)
(-0.003851341609 -0.1157368632 3.566591467e-13)
(-0.00376768843 -0.1147848563 3.474304178e-13)
(-0.003736310945 -0.1103085921 0)
(-0.003787887137 -0.1124155049 0)
(0.0006075396433 -0.1144714737 3.524264214e-13)
(0.00679475002 -0.106823121 3.284594818e-13)
(0.004868339736 -0.1104213187 3.396588566e-13)
(0.004655940315 -0.107300376 3.242267566e-13)
(0.005154453704 -0.1118397166 3.568811913e-13)
(0.008488366597 -0.1019809969 3.134575932e-13)
(0.01141925783 -0.07995581533 2.456090886e-13)
(0.01086690322 -0.08846208768 2.717825964e-13)
(0.01008230297 -0.08331842527 2.514932707e-13)
(0.01212195379 -0.09534929913 3.037986529e-13)
(0.01149055705 -0.07053922884 2.166877788e-13)
(0.008912525998 -0.03987972184 1.225686219e-13)
(0.01019316736 -0.05014866821 1.540989558e-13)
(0.009046767693 -0.04521461028 1.365019209e-13)
(0.01218928486 -0.05797760023 1.847272335e-13)
(0.007328641769 -0.03007325149 9.246770016e-14)
(0.002177219647 -0.00716672524 2.206568261e-14)
(0.003795881637 -0.01337092829 4.114764085e-14)
(0.002987581597 -0.01070294228 3.236300117e-14)
(0.005342591691 -0.01817072038 5.798139746e-14)
(0.0008976417527 -0.002774632093 8.54871729e-15)
(0 0 0)
(0 0 0)
(0 0 0)
(1.396551001e-05 -3.715633181e-05 1.249000903e-16)
(-0.001193965451 -0.09790392455 2.812194921e-13)
(-0.003002781916 -0.09922353657 2.851052727e-13)
(-0.002625875903 -0.09035245919 2.552957845e-13)
(-0.003591062197 -0.1116476911 3.320399511e-13)
(0.0005691963303 -0.09562256733 2.745859096e-13)
(0.005045198995 -0.08283608928 2.376571162e-13)
(0.003743965683 -0.08809131502 2.527977827e-13)
(0.003356177235 -0.07887778948 2.22627472e-13)
(0.004396802707 -0.1024864985 3.04312131e-13)
(0.00608455755 -0.0766340288 2.198241589e-13)
(0.007235966614 -0.05347256629 1.533495553e-13)
(0.007205765846 -0.0617903262 1.772054725e-13)
(0.006133624047 -0.05312845265 1.498801083e-13)
(0.009200959583 -0.07707813091 2.286504319e-13)
(0.006910379234 -0.04485361239 1.28647093e-13)
(0.004212991833 -0.02003491887 5.749567489e-14)
(0.005331056048 -0.02782748467 7.983891326e-14)
(0.004117207468 -0.02178551614 6.149247778e-14)
(0.007833014757 -0.03974223121 1.179334408e-13)
(0.003008396739 -0.01314200117 3.771982726e-14)
(0.0001962871799 -0.0006910939592 1.984523657e-15)
(0.0008566073835 -0.003222528831 9.256484468e-15)
(0.0003775073626 -0.001443032627 4.080069615e-15)
(0.002202151249 -0.008020767062 2.381428388e-14)
(0 0 0)
(0 0 0)
(0 0 0)
(0 0 0)
(0 0 0)
(-0.0004442883988 -0.05588761869 1.503797087e-13)
(-0.001422631867 -0.05718833607 1.539046668e-13)
(-0.001063945381 -0.04540709781 1.202926647e-13)
(-0.002222396272 -0.08012149304 2.22696861e-13)
(0.0004863512089 -0.05370558571 1.444955267e-13)
(0.002568291323 -0.04245138394 1.141586825e-13)
(0.002030389033 -0.0469051711 1.26162969e-13)
(0.001575205896 -0.03613523377 9.570122472e-14)
(0.002934875593 -0.06869680092 1.907501934e-13)
(0.002912306208 -0.03745025554 1.007111061e-13)
(0.002701914643 -0.02082688178 5.601075159e-14)
(0.002972320734 -0.02644475715 7.110978473e-14)
(0.0020547793 -0.01844423286 4.884981308e-14)
(0.005048498158 -0.04413758523 1.225131108e-13)
(0.002268604856 -0.01542728052 4.149458555e-14)
(0.0005840365402 -0.002939541256 7.91033905e-15)
(0.001133470153 -0.006243219146 1.679212325e-14)
(0.0005009726422 -0.002797543287 7.410738689e-15)
(0.002983976021 -0.016001835 4.443667656e-14)
(0.0001713773346 -0.0007945172332 2.137179322e-15)
(0 0 0)
(0 0 0)
(0 0 0)
(8.098862315e-05 -0.0003145594462 8.743006319e-16)
(0 0 0)
(0 0 0)
(0 0 0)
(0 0 0)
(0 0 0)
(-5.25869686e-05 -0.01401839227 3.548550342e-14)
(-0.0002883111318 -0.01469776021 3.720634911e-14)
(-0.000141047576 -0.0075567148 1.884603584e-14)
(-0.0007510625254 -0.03407463399 8.888723091e-14)
(0.0001568561566 -0.01290624111 3.26683125e-14)
(0.0004615643741 -0.007687093997 1.945665851e-14)
(0.0004250026139 -0.009646050433 2.441102875e-14)
(0.0001814849887 -0.004131096981 1.029731855e-14)
(0.001142147841 -0.02604593589 6.791789353e-14)
(0.000431140472 -0.005670295325 1.434963259e-14)
(9.615389782e-05 -0.0007760439718 1.970645869e-15)
(0.0002216436126 -0.002052645095 5.19029264e-15)
(1.674859956e-05 -0.0001571426733 3.885780586e-16)
(0.001267894703 -0.01148857392 2.996214388e-14)
(1.112301378e-05 -7.958097898e-05 1.942890293e-16)
(0 0 0)
(0 0 0)
(0 0 0)
(0.0001139833861 -0.0006456059394 1.679212325e-15)
(0 0 0)
(0 0 0)
(0 0 0)
(0 0 0)
(0 0 0)
(0 0 0)
(0 0 0)
(0 0 0)
(0 0 0)
(0 0 0)
(0 0 0)
(0 0 0)
(0 0 0)
(-4.717523434e-05 -0.002630127973 6.467049118e-15)
(0 0 0)
(0 0 0)
(0 0 0)
(0 0 0)
(3.706544174e-05 -0.0008500055328 2.081668171e-15)
(0 0 0)
(0 0 0)
(0 0 0)
(0 0 0)
(0 0 0)
(0 0 0)
(0 0 0)
(0 0 0)
(0 0 0)
(0 0 0)
(0 0 0)
(0 0 0)
(0 0 0)
(0 0 0)
(0 0 0)
(0 0 0)
(0 0 0)
(0 0 0)
(0 0 0)
(0 0 0)
(0 0 0)
(0 0 0)
(0 0 0)
(0 0 0)
(0 0 0)
(0 0 0)
(0 0 0)
(0 0 0)
(0 0 0)
(0 0 0)
(0 0 0)
(0 0 0)
(0 0 0)
(0 0 0)
(0 0 0)
(0 0 0)
(0 0 0)
(0 0 0)
(0 0 0)
(0 0 0)
(0 0 0)
(0 0 0)
(0 0 0)
(0 0 0)
(0 0 0)
(0 0 0)
(0 0 0)
(0 0 0)
(0 0 0)
(0 0 0)
(0 0 0)
(0 0 0)
(0 0 0)
(0 0 0)
(0 0 0)
(0 0 0)
(0 0 0)
(0 0 0)
(0 0 0)
(0 0 0)
(0 0 0)
(0 0 0)
(0 0 0)
(0 0 0)
(0 0 0)
(0 0 0)
(0 0 0)
(0 0 0)
(0 0 0)
(0 0 0)
(0 0 0)
(0 0 0)
(0 0 0)
(0 0 0)
(0 0 0)
(0 0 0)
(0 0 0)
(0 0 0)
(0 0 0)
(0 0 0)
(0 0 0)
(0 0 0)
(0 0 0)
(0 0 0)
(0 0 0)
(0 0 0)
(0 0 0)
(0 0 0)
(0 0 0)
(0 0 0)
(0 0 0)
(0 0 0)
(0 0 0)
(0 0 0)
(0 0 0)
(0 0 0)
(0 0 0)
(0 0 0)
(0 0 0)
(0 0 0)
(0 0 0)
(0 0 0)
(0 0 0)
(0 0 0)
(0 0 0)
(0 0 0)
(0 0 0)
(0 0 0)
(0 0 0)
(0 0 0)
(0 0 0)
(0 0 0)
(0 0 0)
(0 0 0)
(0 0 0)
(0 0 0)
(0 0 0)