/*--------------------------------*- C++ -*----------------------------------*\
| =========                 |                                                 |
| \\      /  F ield         | OpenFOAM: The Open Source CFD Toolbox           |
|  \\    /   O peration     | Version:  v2012                                 |
|   \\  /    A nd           | Website:  www.openfoam.com                      |
|    \\/     M anipulation  |                                                 |
\*---------------------------------------------------------------------------*/
FoamFile
{
    version     2.0;
    format      ascii;
    class       volScalarField;
    location    "2.25";
    object      p;
}
// * * * * * * * * * * * * * * * * * * * * * * * * * * * * * * * * * * * * * //

dimensions      [0 2 -2 0 0 0 0];


internalField   nonuniform List<scalar> 
3019
(
-800.3739435
-1000.020987
-1065.127104
-1044.102585
-998.0461588
-940.238043
-858.3633546
-812.9977798
-753.4800205
-734.4352996
-721.5404906
-715.2746573
223.4305678
-431.017236
-668.9060446
-760.4921231
-791.2876198
-786.7601587
-749.7678457
-727.7547642
-687.1233158
-676.1976777
-668.2040901
-664.3933644
188.0494675
-190.5799387
-419.420462
-546.9329874
-617.2199998
-649.0622926
-644.9860486
-642.8878191
-619.0632144
-615.3212755
-612.0000835
-610.491875
137.93723
-93.2318174
-274.3935954
-400.7502181
-483.9068624
-533.8839744
-551.0933015
-562.9086218
-552.443275
-554.6149127
-555.2803902
-555.7098738
107.6203695
-49.36505666
-188.9362062
-300.8758164
-384.4354066
-440.7443843
-469.5081342
-490.067977
-489.6447903
-496.2129343
-499.9882077
-501.8129773
87.30574792
-29.36354626
-139.5816871
-234.8889212
-310.3569049
-365.8134254
-400.0489073
-425.394128
-431.927193
-441.4310424
-447.3478078
-450.1273554
69.30548715
-22.36947351
-111.0672783
-189.9553333
-255.2672966
-306.660171
-342.0857392
-369.0210604
-379.7273805
-390.9186733
-398.1267893
-401.5475834
52.26444011
-20.88455976
-92.21506849
-157.2345137
-213.2033673
-259.2684359
-293.6606818
-320.2212493
-333.0803518
-344.9749747
-352.8068936
-356.532751
40.10606225
-19.77565945
-78.23410939
-132.3719476
-180.2203009
-220.8922544
-252.8791577
-278.0429649
-291.6738975
-303.558947
-311.51384
-315.3086007
31.07651163
-18.6850125
-67.29476955
-112.7713555
-153.7037487
-189.3092138
-218.3248923
-241.5381785
-255.0216896
-266.4294038
-274.1639956
-277.8609791
24.27538842
-17.52947185
-58.37082854
-96.83914575
-131.905297
-162.9200092
-188.8251025
-209.840809
-222.6011148
-233.2490936
-240.5443278
-244.0354686
19.10788684
-16.28561846
-50.85522628
-83.56096323
-113.6353312
-140.5569982
-163.4263182
-182.1975011
-193.9058695
-203.641145
-210.367539
-213.5884906
15.17308328
-14.96311142
-44.37414164
-72.26844786
-98.06906282
-121.3674034
-141.378743
-157.9704665
-168.4613096
-177.2192034
-183.31113
-186.2287854
12.14565308
-13.59356092
-38.68188541
-62.49938691
-84.61490673
-104.7127029
-122.0853518
-136.6216255
-145.8341272
-153.6076373
-159.0436563
-161.6466242
9.760874756
-12.21234128
-33.60876314
-53.92594788
-72.84050429
-90.10898724
-105.0714806
-117.7017232
-125.6344394
-132.4515368
-137.2385755
-139.5295073
7.841510147
-10.84412133
-29.03491942
-46.30929264
-62.41988973
-77.1786769
-89.94889114
-100.8277618
-107.513752
-113.4214209
-117.5829997
-119.5728314
6.283770723
-9.501878524
-24.87325489
-39.47083755
-53.10214865
-65.62286942
-76.39899266
-85.67467729
-91.16195024
-96.21583075
-99.78394414
-101.4878154
5.011421274
-8.191728118
-21.05456131
-33.26952926
-44.68561979
-55.19499329
-64.15550877
-71.9620643
-76.30247253
-80.55975778
-83.56951468
-85.00424848
3.961926498
-6.916569167
-17.52130931
-27.59064029
-37.00505931
-45.67597783
-52.99425226
-59.44569181
-62.68294201
-66.19998016
-68.68575366
-69.86745179
3.082900799
-5.677568979
-14.22467219
-22.33905286
-29.92777537
-36.91618647
-42.69601999
-47.90554221
-50.09150688
-52.91695009
-54.91064221
-55.85553847
2.329998932
-4.4744289
-11.12105729
-17.43090291
-23.33753366
-28.80498733
-33.07249288
-37.14307069
-38.27326397
-40.46114075
-41.9863718
-42.7021376
1.664756194
-3.306152428
-8.17074248
-12.78916175
-17.1193887
-21.14339669
-24.00645024
-26.96126999
-27.24548213
-28.79250304
-29.87446902
-30.38659078
1.052450669
-2.171224518
-5.336085238
-8.34165881
-11.1689875
-13.8198609
-15.33611272
-17.27133363
-16.22899604
-17.15737538
-17.7954945
-18.04899775
0.4660571497
-1.06814596
-2.579600776
-4.019787174
-5.388735017
-6.712505399
-6.855313699
-7.749363502
-7.506106026
-7.957426118
-8.263106188
-8.474895873
-855.8403085
-894.6347556
-1115.068913
311.1605329
-808.4722209
173.6057731
-443.2911796
-1006.737975
298.3559613
323.4607194
-1035.209516
-69.93697167
-146.4783745
-201.4096003
-514.3896334
-893.9949008
-1204.800095
-493.3494347
-1254.434303
-1254.831666
-1280.389818
-401.039003
200.7636428
-141.7703723
-329.2760612
-941.9142572
-1193.888854
-1206.608233
-160.1632107
-408.3088018
-128.6095912
356.0551682
-1454.024103
-1455.538873
362.6942756
126.2621053
-1217.655459
-1043.239195
-1053.420681
-1047.424993
-1220.886749
-828.0347324
-998.5235244
-592.7853897
-615.426027
-778.5304273
-404.2987735
-562.1312248
-493.8216734
-1231.165298
-1408.958537
-1439.953228
-1231.238636
-1133.811904
-1192.649727
-1005.162218
-995.9976443
-832.822966
-1574.119712
-1562.489653
-1453.377757
-1443.052291
-830.4251268
-846.3562234
-668.7882803
-674.0859637
-772.5140266
-204.0978234
-351.5990239
-1578.145871
-1448.199761
-1525.557705
-1064.344709
-1060.671383
-1049.380041
-1163.828665
-867.0553624
-848.2176196
-833.2457527
-989.4909101
-931.7742861
-929.1440576
-597.9649109
-653.8457058
-651.668277
-472.688567
-477.8893512
-525.941312
-1376.127326
-1377.773677
-1433.127867
-1244.513212
-1306.644506
-1315.79468
-1183.366784
-1139.907831
-1123.209454
-1070.649263
-1052.66793
-997.3681981
-526.7074512
-623.1166025
-860.3082064
-538.8640524
-719.3446321
-1059.64625
-753.791218
-814.5987907
-1052.902687
-825.6077301
-841.0099871
-1010.891362
-839.979565
-830.2752632
-955.3797385
260.3531615
9.979228722
-102.8909023
-230.8220719
-423.5744669
-628.6308433
-469.3791644
-569.3732543
-745.0918306
-593.4114524
-645.208352
-787.3608546
-656.802817
-678.1835274
-790.3014738
209.5789107
283.0130541
148.8540146
-50.76914079
-109.5226595
-110.4839251
-262.4623996
-374.2135555
-304.1485121
-405.142923
-521.5721305
-432.0672813
-496.8053001
-603.762492
-513.6156759
-551.3544992
-643.9343089
153.8192006
190.4751822
113.9518386
-16.06867051
-39.1006579
-57.44149428
-171.951927
-234.5540874
-206.1332622
-296.2041939
-373.7478578
-322.195515
-388.5622197
-466.5129205
-406.8580731
-450.7148515
-523.8994062
119.1140694
143.8822055
91.91571269
-2.013716823
-11.17473306
-32.84159738
-121.7030571
-156.485301
-149.4861621
-225.9359632
-275.5780733
-248.913055
-309.5134195
-366.1902364
-326.8036995
-370.5479761
-428.8080285
94.20957211
111.9868436
73.86324551
0.6937380818
-0.3931243696
-23.34920399
-94.24044734
-113.1819344
-116.9112277
-180.4248498
-212.7528807
-199.8210216
-252.1576201
-293.4870769
-267.6265362
-308.2638326
-353.5195845
74.00161569
89.17821253
56.10048112
-1.903250955
0.4504146726
-21.17897957
-78.07215965
-89.58007514
-96.37378374
-148.3593304
-171.4253991
-164.5456703
-209.2098301
-240.2851331
-222.7414884
-259.2005313
-294.9326011
57.85679504
69.4250516
42.82324413
-4.382661894
-2.632255016
-20.04520517
-66.3919716
-74.82871747
-81.39071607
-124.4364554
-141.752508
-138.0142905
-176.053633
-200.1412013
-187.7752137
-219.9234589
-248.5886379
45.72490054
54.4884814
33.09529645
-5.990943599
-4.85551118
-18.96198368
-57.3442501
-63.92987501
-69.80964453
-105.8200507
-119.365497
-117.2775101
-149.7174932
-168.9200992
-159.8334505
-187.9342071
-211.3382432
36.49359007
43.18288629
25.80399456
-6.955177581
-6.285772039
-17.82637937
-49.98332718
-55.37202192
-60.45109255
-90.82152798
-101.7805566
-100.5410272
-128.2657168
-143.9558829
-136.9849879
-161.4306342
-180.8648835
29.35753561
34.53706434
20.2701826
-7.418583646
-7.113423112
-16.60480506
-43.76915266
-48.33761989
-52.6252789
-78.39352034
-87.50479534
-86.67248088
-110.4108128
-123.5046942
-117.921713
-139.1211596
-155.5130037
23.79965022
27.8365008
16.05994829
-7.490580815
-7.469235305
-15.29960886
-38.38141523
-42.35409895
-45.91242305
-67.86317649
-75.60372391
-74.93339378
-95.27788307
-106.4001046
-101.7426151
-120.0787643
-134.0945705
19.43624213
22.61026515
12.8331777
-7.274637342
-7.459586707
-13.93829596
-33.61948681
-37.13839098
-40.04123955
-58.77515442
-65.47035783
-64.81849505
-82.2501123
-91.84345312
-87.80607742
-103.6212034
-115.7534416
15.94934726
18.49341991
10.30812298
-6.86664755
-7.187332014
-12.55716178
-29.34911655
-32.51007272
-34.82624118
-50.81039174
-56.6889258
-55.97149569
-70.88294773
-79.26721877
-75.64588305
-89.23913341
-99.85605401
13.09496953
15.18374952
8.284171885
-6.337662625
-6.743662827
-11.18412012
-25.47650756
-28.34664181
-30.13682694
-43.7396573
-48.96631203
-48.13446757
-60.84644467
-68.25999696
-64.91303607
-76.54115411
-85.92688876
10.72188358
12.46094327
6.643736268
-5.730474992
-6.191965466
-9.83460122
-21.93441727
-24.56214483
-25.87905207
-37.39401972
-42.09073544
-41.11573676
-51.88949353
-58.51425572
-55.33989115
-65.22035549
-73.59816703
8.729481667
10.19152797
5.306355784
-5.071649048
-5.569775474
-8.516060379
-18.67039393
-21.09419833
-21.98038825
-31.64300099
-35.90503205
-34.76676713
-43.81471007
-49.79495838
-46.7148198
-55.02940457
-62.58076204
7.03693427
8.281050294
4.206421206
-4.380207677
-4.90121151
-7.23198119
-15.64009805
-17.89249627
-18.38062517
-26.38038743
-30.2852817
-28.96681201
-36.46074444
-41.91428104
-38.86387955
-45.75797566
-52.63758994
5.578257427
6.652646978
3.289211567
-3.670837192
-4.204055535
-5.983926665
-12.80577032
-14.91452327
-15.02910377
-21.51849158
-25.13048922
-23.61660664
-29.69677802
-34.71902468
-31.64696703
-37.2421352
-43.56696716
4.298307919
5.243508389
2.508571407
-2.954814975
-3.492074245
-4.771887803
-10.13364065
-12.12378729
-11.8810642
-16.98097778
-20.35651948
-18.63001183
-23.41101472
-28.08469593
-24.94571575
-29.35506866
-35.21849324
3.148776131
4.000487946
1.824790941
-2.241241066
-2.775875387
-3.595033862
-7.593032433
-9.487323444
-8.896040579
-12.69874361
-15.88910134
-13.92865469
-17.49766996
-21.90187158
-18.64490744
-21.9466093
-27.46681581
2.085366397
2.876529418
1.202306092
-1.537802383
-2.064151803
-2.451887665
-5.154873676
-6.974996902
-6.035866219
-8.606967557
-11.66038893
-9.439041494
-11.85753225
-16.06568976
-12.63680925
-14.88645265
-20.15560815
1.067705477
1.82805164
0.6097227346
-0.8525736219
-1.364374039
-1.342043641
-2.791796932
-4.558113509
-3.264405195
-4.645064012
-7.606637841
-5.092920045
-6.400140216
-10.47948475
-6.823860347
-8.059055188
-13.16357032
0.07064138095
0.8179034584
-0.09058058622
-0.3605790904
-0.6832490074
-0.4214422116
-0.6184925267
-2.207947825
-0.6912436335
-0.9241543784
-3.666608377
-1.004891366
-1.252457153
-5.052903708
-1.336874769
-1.6153424
-6.373027711
-905.7552744
-899.1154628
-848.8109156
-909.5295893
-1000.739925
-990.0855149
-1457.871482
-1478.062649
-1058.50686
178.7429494
433.4930164
-784.0330565
-625.7489655
-685.8028672
48.75378061
-26.98745669
107.887438
-645.4514193
-480.872386
-241.2376632
-927.9490305
-579.8648586
-726.2608392
342.0184763
375.8088425
-1181.223569
-1199.273665
-958.5621024
-1282.623756
-1293.836806
-1554.279434
-1547.543358
-8.692578501
67.29362024
1.269303887
-227.2600701
-175.2583081
-89.59034527
-342.4203798
-552.5087806
-440.3362556
-631.4031198
-570.7701609
-441.1737188
-882.3509752
-710.5336235
-758.5232478
-1204.345001
-1156.105363
-1155.964894
-363.5725299
-426.1405013
-416.6590532
-589.0560747
-576.0951024
-428.6133003
-1307.369631
-1306.8502
-1251.526592
-1280.344699
-1374.186334
-1404.387655
-1368.391247
-1370.772
-1279.972791
-1461.751755
-1456.579234
-361.8948783
-267.1015765
-312.3601493
-257.8545483
-306.0339097
-29.97306701
-158.9864487
77.35098507
69.30379977
258.2914644
-184.8997291
-69.21774685
-38.36032666
-186.5752176
-119.6781205
-244.5580982
-1024.707307
-1012.337026
-925.314052
-1189.748305
-1100.492598
-1108.727625
-1086.202943
-1092.706304
-1185.49946
-230.1829761
-135.7769966
-62.82880523
-326.0526857
-223.9606714
-313.4923265
58.70868893
-121.5625182
-232.5719103
368.8377221
484.1771832
456.1238601
-1507.771949
-1511.011267
-1453.889172
137.8647287
56.22298384
278.5660991
211.9527295
292.2852349
66.63055513
137.1856962
200.2997677
-1160.566967
-1157.349891
-1206.251294
-1045.72307
-1098.17387
-1087.933799
-1105.745187
-1102.518925
-1049.305878
-664.9670692
-654.5347896
-605.4809501
-775.6917685
-701.542226
-718.6996767
-456.5516539
-440.2405466
-384.6024098
-546.8212738
-492.3301539
-508.5864178
-1416.674685
-1367.408187
-1360.822847
-1197.381321
-1377.25985
-1449.071005
-1333.171849
-1357.930023
-1198.511289
-1000.569011
-949.4478618
-954.4959102
-936.5296427
-944.0375464
-996.7727613
-840.5454744
-890.6381554
-880.641699
-1450.218131
-1499.355049
-1504.256974
-1491.714384
-1495.170509
-1448.689894
-1541.794301
-1538.636646
-155.5951472
-208.9273217
-254.2079918
-231.1461057
-180.6490903
-329.7126678
-278.6905922
-300.2107227
-978.6503244
-946.3122997
-911.3273949
-880.4952348
-853.3771424
-831.6481375
-707.7288479
-731.3026594
-819.552787
-826.1748818
-873.4979015
-1028.787747
-951.8651155
-962.4948971
-1063.306868
-967.6248219
-963.891932
-1033.99821
-943.9576688
-934.7142538
-984.4684033
-823.8465061
-820.6602045
-883.3477838
-804.184072
-786.9178259
-834.5684377
-770.7386957
-758.1302104
-794.2009545
248.11978
133.0134715
100.0083456
-346.4062533
-429.1915192
-513.1834003
-593.1833427
-628.7348221
-700.4959282
-700.1871494
-715.4340043
-772.0986381
-743.8158387
-748.3527796
-792.6698444
-681.127634
-699.2965337
-759.0364439
-696.3053222
-690.9770228
-738.7241193
-684.6609655
-678.874072
-717.4968612
175.6799727
82.46911291
81.63898789
-157.9725855
-223.4595219
-261.1196732
-375.9560071
-414.6486612
-458.4450921
-504.7990939
-527.7988131
-568.8438714
-580.1535298
-592.6881378
-628.2408665
-560.1580555
-590.1459756
-642.786979
-596.4957596
-600.2778884
-644.655448
-601.8092622
-601.9588183
-639.9606177
129.2250012
73.50987542
76.11337384
-79.0143064
-125.8052858
-144.0260501
-248.4304984
-283.4112739
-310.7627372
-372.1290643
-396.5888822
-425.0783583
-456.4139943
-472.2021226
-499.2160065
-462.0986672
-496.8358883
-541.5663175
-508.769709
-518.3307153
-558.1222116
-525.2091998
-529.9681919
-565.6186187
101.9675927
64.64630675
66.79234636
-42.70047684
-77.37752256
-86.56647619
-173.9369067
-203.2362993
-219.6127776
-281.7117943
-304.6621549
-324.4037752
-363.6829917
-380.0301967
-400.8984574
-382.6316594
-418.1492509
-455.7317359
-433.2591846
-446.2130478
-481.0430338
-456.3605462
-464.1121644
-496.5158823
82.93762115
55.07543153
57.67201642
-26.72020812
-53.628251
-57.95580827
-130.9636809
-155.2274945
-165.0288969
-222.1627462
-242.2141234
-255.7622208
-295.0783141
-310.332662
-325.9512898
-319.9098674
-353.1952827
-384.0220664
-369.7500387
-384.1486749
-413.9748063
-395.9277133
-405.3100105
-434.0990138
64.86857723
42.66115114
45.86082649
-21.82055316
-43.35313277
-45.12911842
-105.7505879
-125.5349553
-131.9240108
-180.839839
-197.7723214
-207.6222347
-243.7132079
-257.3906336
-269.3575998
-269.8618946
-300.1814094
-325.3503441
-316.804934
-331.237726
-356.6492832
-343.4740709
-353.4778113
-378.8251739
48.87527015
31.31728857
33.75335398
-20.59654777
-37.88768056
-39.1023619
-88.35400228
-104.5262245
-109.199379
-150.4062617
-164.6978825
-172.1420749
-204.226548
-216.2450534
-225.6308525
-229.5013258
-256.7727499
-277.4544192
-272.4163051
-286.1593375
-307.8182067
-298.1295986
-308.0786968
-330.315025
37.59298485
23.23687252
25.03446182
-19.50634775
-33.70042133
-34.66534493
-75.26367583
-88.66585039
-92.26505862
-127.053234
-139.1515701
-144.9803942
-173.0644299
-183.5292145
-191.0593753
-196.4240136
-220.5937398
-237.879902
-234.902507
-247.6446067
-266.1688358
-258.9248679
-268.4126413
-287.8711925
29.19537058
17.26079839
18.59333492
-18.40381819
-30.22135996
-31.04327315
-64.90388474
-76.13079177
-79.01993518
-108.4916838
-118.7727727
-123.4756661
-147.8659723
-156.9387589
-163.1085558
-168.8914986
-190.1506281
-204.7376569
-203.0103806
-214.5842204
-230.5096677
-224.9477129
-233.7476444
-250.7853717
22.84793865
12.8115783
13.80402949
-17.22691225
-27.16481392
-27.89923697
-56.3775092
-65.85807116
-68.25456956
-93.30152982
-102.0683489
-105.9597275
-127.0442544
-134.8923406
-140.0444431
-145.6389959
-164.2452755
-176.6927044
-175.6656908
-186.0282719
-199.8070493
-195.3842148
-203.3873615
-218.337846
18.02230937
9.511231288
10.24446187
-15.9613982
-24.37954285
-25.05543308
-49.14922428
-57.20075988
-59.238962
-80.57256133
-88.06625067
-91.35322339
-109.5166448
-116.2937863
-120.6667663
-125.7464853
-141.9728724
-152.702403
-152.0256236
-161.2035217
-173.2025642
-169.5405472
-176.7131864
-189.8723764
14.34270053
7.08544592
7.623289322
-14.62366846
-21.7909173
-22.42190546
-42.88483357
-49.746581
-51.51431285
-69.69811527
-76.11052208
-78.93544924
-94.52667626
-100.3680585
-104.1327334
-108.5286392
-122.636801
-131.9746708
-131.4211976
-139.4783901
-149.9978976
-146.8303126
-153.1838052
-164.8122315
11.49778016
5.298531225
5.696927478
-13.24815864
-19.36513303
-19.9573834
-37.36096796
-43.21553965
-44.77357708
-60.25454583
-65.7393654
-68.20341681
-81.52805807
-86.55021524
-89.83188763
-93.46887113
-105.6969167
-113.8958329
-113.3209014
-120.3381861
-129.6218886
-126.7621493
-132.3330481
-142.6550377
9.242312817
3.958468811
4.259589519
-11.86839966
-17.08452723
-17.64181989
-32.42234266
-37.41156563
-38.80281532
-51.93992545
-56.62135904
-58.79796882
-70.11930237
-74.42152517
-77.31427134
-80.16643754
-90.72663785
-97.98856613
-97.29619785
-103.3588376
-111.6097419
-108.9214747
-113.7588165
-122.9708291
7.421411574
2.939992816
3.169074687
-10.50581462
-14.9359779
-15.46137542
-27.95881468
-32.19450659
-33.44984104
-44.53278353
-48.51126645
-50.45520907
-59.99563906
-63.66149003
-66.23775825
-68.30494199
-77.38246628
-83.86991096
-82.99608669
-88.18671375
-95.57360291
-92.95611902
-97.11317169
-105.3850326
5.941565275
2.167552282
2.340829311
-9.171177881
-12.90738701
-13.40397196
-23.88884157
-27.46024331
-28.60339385
-37.86564117
-41.22245226
-42.97635343
-50.92050482
-54.0196612
-56.3371211
-57.6279526
-65.38365304
-71.23027913
-70.12984369
-74.52427964
-81.18992315
-78.56481453
-82.09385724
-89.57468772
4.730335192
1.585913823
1.7160462
-7.869556588
-10.98625726
-11.45716964
-20.14643499
-23.12520338
-24.17559592
-31.80469016
-34.60551469
-36.20393785
-42.70198486
-45.29146898
-47.39782237
-47.91178943
-54.50090036
-59.81439763
-58.45329366
-62.11633776
-68.18378234
-65.48618589
-68.43673293
-75.25657733
3.728038266
1.150199151
1.247593804
-6.60342121
-9.160665848
-9.608746529
-16.67674699
-19.12055259
-20.09411696
-26.24110506
-28.53913134
-30.00995722
-35.18382536
-37.30948072
-39.24268986
-38.99408708
-44.57339561
-49.4316632
-47.75137713
-50.73923355
-56.31771636
-53.48915148
-55.90389802
-62.18572884
2.88443776
0.8234492975
0.8966960792
-5.373457647
-7.419134591
-7.847242044
-13.43229304
-15.38717522
-16.29804109
-21.08294605
-22.92139874
-24.28883897
-28.23906286
-29.94082051
-31.73191961
-30.75074591
-35.36201648
-39.89366969
-37.80995296
-40.19006884
-45.37769845
-42.36953586
-44.300645
-50.12770085
2.15687691
0.5746236373
0.6310676325
-4.179147986
-5.750591729
-6.161463387
-10.37061387
-11.87243013
-12.73329489
-16.24840671
-17.66140483
-18.94757218
-21.75242144
-23.06374862
-24.74406223
-22.99015854
-26.63151375
-30.93149141
-28.47956286
-30.28935326
-35.17368803
-31.91083512
-33.36495459
-38.92696644
1.50799787
0.3764405294
0.4226360057
-3.019350013
-4.144330424
-4.54064136
-7.452670455
-8.5279813
-9.350672965
-11.66179928
-12.67441923
-13.899978
-15.61058417
-16.55360125
-18.15266575
-15.59698522
-18.35504359
-22.44717451
-19.63565979
-20.8936581
-25.5401027
-22.0159512
-22.99199704
-28.22424332
0.9039234763
0.2041786694
0.2460899832
-1.892621412
-2.589940808
-2.97417699
-4.641271549
-5.307930798
-6.103684435
-7.252175459
-7.881463652
-9.065582086
-9.711827644
-10.30217529
-11.84637304
-8.451290313
-10.38954305
-14.32568607
-11.13621901
-11.85823609
-16.32936715
-12.49439686
-13.15444111
-18.05123212
0.3146443743
0.02921291645
0.08128566519
-0.8070771018
-1.085230488
-1.451607408
-1.904853062
-2.17234931
-2.946565244
-2.957460647
-3.213507239
-4.36851604
-3.965575141
-4.211467548
-5.720462053
-1.71529393
-3.110229637
-6.361773812
-3.385881997
-3.646207123
-7.318163842
-3.952667358
-4.333836802
-8.125531757
-1227.066396
-1217.888348
-1099.679639
262.6373115
358.9797934
393.078803
-801.3396464
-755.2513566
-758.013629
-986.3386261
-879.4791057
-907.884355
-1446.272527
-1444.861918
-254.4325439
-326.37388
-277.8119909
-1254.771828
-1305.568871
-1306.168312
43.33333213
-8.718508029
-1159.973606
-1156.803577
-1208.074568
-59.36740038
-116.3108543
-187.3149833
131.8262427
83.93638196
-1170.31222
-1281.484775
-1307.745184
-1229.309685
-1255.153612
-1155.604612
-1105.859106
-1179.116563
-1203.877008
-1131.095284
-1154.894101
-1088.410853
-1034.462687
-1084.647384
-1107.709468
-1039.063523
-1061.788723
-1016.026323
-560.9194569
-644.7794917
-616.1266834
-699.5998066
-672.8924569
-592.9514896
-839.5246837
-755.215566
-779.3472283
-615.1766357
-734.9646327
-670.6727356
-821.6865779
-785.8029944
-674.8359649
-1048.941471
-910.860334
-935.2919558
-779.9752934
-867.4837567
-848.137407
-889.6556255
-880.8233234
-799.7224778
-1059.070619
-968.7576939
-969.7228488
-833.2314051
-898.6096055
-895.3581037
-894.671787
-897.1755579
-838.0438092
-1022.965283
-958.9629857
-952.0343109
-838.3956779
-885.8430267
-891.0621706
-871.362689
-879.2389949
-835.0159093
-970.2263226
-924.4318475
-913.1908878
167.2471598
153.9531143
258.0399276
-7.996963873
30.79208839
-60.18411252
-306.1791516
-361.1755803
-281.3231812
-481.3505758
-427.0161254
-369.8224859
-578.2166035
-495.7688333
-549.2895673
-508.1474864
-564.6186367
-526.8266788
-622.5695767
-596.1588977
-541.159725
-725.4314801
-657.6202041
-681.194927
-613.7633689
-662.6539893
-644.5138374
-689.5496956
-677.5465555
-630.9321547
-780.9524913
-727.4822948
-736.8176191
-665.9942715
-706.0499302
-698.9473935
-714.1192833
-711.0483066
-673.0663688
-792.1155058
-750.9289701
-751.4328834
232.4048335
255.0600464
78.59523446
80.86680636
162.0689575
-65.60425189
5.920515693
13.0915033
-18.255321
-4.13707544
-84.74670063
-165.7688148
-191.9297696
-131.6734121
-294.7599817
-246.2380462
-216.4086355
-321.9305016
-281.2145919
-331.7427473
-341.5771631
-375.9943689
-337.8632545
-439.865874
-409.8078641
-375.1049052
-492.2431438
-448.6302708
-478.5464747
-456.16573
-490.3235467
-466.5991021
-529.6769644
-511.2853676
-477.6965542
-587.7033248
-547.8789071
-565.2739307
-528.2397718
-559.3651861
-545.6554962
-580.497076
-570.9073206
-540.7542582
-637.0837865
-603.0182192
-611.348218
164.2169697
175.6547448
68.93364591
71.13535959
121.175472
-22.17370054
24.89109514
26.93527632
18.23034613
22.04729282
-29.75603437
-97.48449541
-110.4431893
-67.21476205
-189.8493305
-151.3712393
-135.7065213
-191.1462716
-169.6895523
-210.5504013
-238.2174333
-259.3574831
-225.8379252
-319.3281509
-290.4887766
-268.2250521
-343.8263436
-315.621676
-345.1781388
-346.2404128
-370.3300158
-345.9235904
-412.7228304
-392.5809648
-368.363514
-446.9461515
-418.7066748
-438.6158514
-423.2681012
-446.9997564
-430.8344938
-473.7557497
-461.2375544
-437.8232231
-512.4840986
-486.0260764
-498.0626805
126.6785646
134.85308
60.05932365
62.41251883
96.78604936
-4.265759895
29.46446791
29.30410784
28.29474003
29.14709082
-7.280227377
-63.25376505
-69.67162581
-37.24379167
-131.6176821
-101.1757813
-92.91541988
-122.3244007
-110.9038784
-143.1321908
-176.1668463
-188.8320349
-160.8670359
-240.6706091
-215.4491626
-201.6702379
-248.4930099
-230.9832922
-257.1487291
-270.5485918
-286.7792784
-264.4576429
-326.8579482
-307.5999068
-290.7682213
-346.1780779
-325.9918309
-345.6777522
-342.6977222
-360.6764098
-344.5308702
-388.7152244
-375.36303
-357.2500585
-415.6292722
-394.7921468
-408.0945782
98.87211972
105.2019979
49.01151326
52.06173463
78.81109556
0.8925473857
26.74670396
25.40617214
28.66876292
27.77913842
0.4905539225
-47.33086993
-50.12868642
-24.7480872
-99.60613292
-75.12161265
-71.00481835
-85.93003088
-80.05011181
-105.8715667
-138.8983556
-146.5897272
-123.4625978
-190.2156544
-168.877524
-160.0983193
-189.4421166
-178.5784914
-200.9246072
-218.2523822
-229.7496632
-210.5220156
-264.9170078
-247.8812761
-235.7005967
-275.2994111
-261.0444775
-278.6585859
-282.1209276
-295.7517166
-280.8672533
-322.4479547
-309.5924218
-295.6585907
-340.309012
-324.4523539
-337.4887555
79.05858715
84.047006
36.46480751
39.47829467
60.43460638
-1.078043867
19.56315334
17.62884486
23.64075608
21.62285803
-0.2072711287
-40.4046832
-41.80827113
-21.47634256
-81.58267819
-61.86386977
-59.38735159
-67.56429015
-64.56731009
-85.39933393
-114.2267272
-119.6546084
-100.870777
-155.4653019
-137.8707999
-131.5722591
-152.0656848
-144.6808893
-163.1311058
-180.0983241
-188.6211025
-172.393516
-218.8824988
-204.1228245
-194.9921653
-224.4030266
-213.903534
-229.2187512
-235.583926
-246.1528083
-232.892583
-270.4553155
-258.6670354
-247.7397186
-282.5673171
-270.259827
-282.3254191
61.46915132
65.30934841
26.9780736
29.07171993
45.74893674
-3.858533653
12.81141016
11.46914508
15.86530461
14.26904758
-3.278538378
-35.67945366
-36.75040676
-20.31770373
-69.01490034
-52.99249945
-51.13605442
-57.09915129
-54.97427586
-71.81914912
-96.09041185
-100.1677426
-84.75563099
-129.833773
-115.2070112
-110.4510957
-125.7275975
-120.2868317
-135.5925298
-151.1574922
-157.7172846
-144.0134187
-183.6085313
-170.9217467
-163.8432956
-186.4503216
-178.4430353
-191.6233886
-198.9985468
-207.381465
-195.7647278
-228.9902087
-218.4536062
-209.7186274
-237.4220366
-227.6769424
-238.5121876
48.44502162
51.35887646
20.02799294
21.57259643
35.26290782
-5.656463319
8.056702807
7.099759397
10.23313593
9.098188978
-5.279205767
-31.89437665
-32.77858793
-19.23549404
-59.42004245
-46.17820794
-44.69280354
-49.38975327
-47.74064903
-61.61077297
-82.06178896
-85.2714111
-72.46115454
-110.0826385
-97.82109275
-94.0736416
-105.9865768
-101.7845606
-114.5895669
-128.4250049
-133.6423227
-122.030544
-155.7812925
-144.8981203
-139.2436875
-157.169006
-150.8637223
-162.1724743
-169.5809691
-176.3794971
-166.2786632
-195.3703168
-186.0753453
-178.9524778
-201.4299748
-193.5601212
-203.1439586
38.57961078
40.80544822
14.87269024
16.0229112
27.44116643
-6.765795607
4.672001245
3.993268567
6.220328087
5.412764973
-6.543348617
-28.65202295
-29.42524785
-18.11774867
-51.69970514
-40.62301184
-39.37472282
-43.27633742
-41.92177414
-53.49339785
-70.75917247
-73.38112578
-62.62591978
-94.29720596
-83.94465439
-80.8885722
-90.52285893
-87.15157727
-97.94520312
-110.0312717
-114.2971012
-104.4203508
-133.249686
-123.9115771
-119.2773163
-133.8756483
-128.7716236
-138.4734619
-145.425137
-151.0508204
-142.2995597
-167.632263
-159.494515
-153.5782632
-172.1613926
-165.6839264
-174.0875594
30.97666379
32.70087987
11.03614677
11.89038332
21.51483345
-7.343482657
2.289251201
1.820462768
3.372361577
2.805517095
-7.242298976
-25.7442265
-26.44691669
-16.91863415
-45.23528418
-35.8894332
-34.80261695
-38.17230038
-37.01173743
-46.75671277
-61.35712895
-63.56119859
-54.46417484
-81.30086373
-72.51143787
-69.95088505
-77.97135511
-75.18226892
-84.33495238
-94.77594206
-98.3439826
-89.91594824
-114.5903928
-106.5726155
-102.6923326
-114.8524996
-110.6222362
-118.9510745
-125.2162235
-129.9538016
-122.3872121
-144.3715627
-137.281751
-132.2869734
-147.9133673
-142.487633
-149.8167956
25.06343917
26.40715035
8.20442444
8.832491987
17.0080379
-7.503609875
0.6682141366
0.3591389438
1.39599899
1.012890337
-7.497037436
-23.06337401
-23.71574462
-15.63256183
-39.66326408
-31.7294157
-30.7606608
-33.74849672
-32.72476915
-40.98653924
-53.34312972
-55.23711582
-47.50292675
-70.3455175
-62.85480201
-60.66329492
-67.49249796
-65.12926867
-72.92349084
-81.86508817
-84.90621678
-77.69916416
-98.84311264
-91.95721394
-88.6494223
-98.96967571
-95.39443507
-102.5474864
-108.0361737
-112.086902
-105.5556447
-124.5832837
-118.4294255
-114.1520664
-127.4864405
-122.8719577
-129.23897
20.43361281
21.48995377
6.125530943
6.587341477
13.56421398
-7.350079999
-0.3819694924
-0.5757321529
0.08287825149
-0.163276255
-7.412228377
-20.55891269
-21.17004862
-14.28188082
-34.7595601
-27.99894925
-27.12218083
-29.8169163
-28.89677209
-35.93182815
-46.37941684
-48.03616305
-41.44149861
-60.93139961
-54.53539824
-52.62647018
-58.54940471
-56.50826845
-63.1614827
-70.74988707
-73.38402473
-67.21664472
-85.33661817
-79.42635728
-76.56262777
-85.46311258
-82.39100635
-88.53206944
-93.22438019
-96.73453147
-91.10819667
-107.5322397
-102.2092189
-98.49948254
-110.0275289
-106.0502025
-111.5622587
16.75386678
17.60064221
4.582072003
4.927696722
10.88624469
-6.982221214
-1.029756333
-1.145158721
-0.7468683695
-0.8975645177
-7.089466437
-18.20755697
-18.78193055
-12.90255485
-30.37632662
-24.60894296
-23.80716775
-26.26560773
-25.42815405
-31.42952007
-40.23249114
-41.70265921
-36.07639461
-52.71006824
-47.24914157
-45.56232946
-50.77816339
-48.98677601
-54.66844983
-61.04069998
-63.35320296
-58.0798576
-73.58872022
-68.52464093
-66.01289571
-73.79475742
-71.11706339
-76.38182502
-80.29668839
-83.37368128
-78.54019193
-92.6705795
-88.08379151
-84.8307288
-94.91226882
-91.44322154
-96.19757003
13.75877197
14.45432943
3.414473501
3.677202094
8.750612033
-6.478530138
-1.404484157
-1.465667939
-1.24525556
-1.331332345
-6.614062279
-15.99452462
-16.53549296
-11.5255905
-26.4113635
-21.4994041
-20.76056698
-23.0220962
-22.25304991
-27.3677438
-34.7368692
-36.05684459
-31.26549496
-45.43354213
-40.78096541
-39.27248962
-43.92365932
-42.3306365
-47.17492175
-52.45317434
-54.50749157
-50.01038699
-63.24561975
-58.9206555
-56.69184007
-63.57759166
-61.21474144
-65.71553709