/*--------------------------------*- C++ -*----------------------------------*\
| =========                 |                                                 |
| \\      /  F ield         | OpenFOAM: The Open Source CFD Toolbox           |
|  \\    /   O peration     | Version:  v2012                                 |
|   \\  /    A nd           | Website:  www.openfoam.com                      |
|    \\/     M anipulation  |                                                 |
\*---------------------------------------------------------------------------*/
FoamFile
{
    version     2.0;
    format      ascii;
    class       volScalarField;
    location    "2.46";
    object      nut;
}
// * * * * * * * * * * * * * * * * * * * * * * * * * * * * * * * * * * * * * //

dimensions      [0 2 -1 0 0 0 0];


internalField   nonuniform List<scalar> 
3019
(
1.155882506
1.155851376
1.155821874
1.155800375
1.156029485
1.156029218
1.156051019
1.156099229
1.156189713
1.156337286
1.15649961
1.117243905
1.1551183
1.155031447
1.15494936
1.154897247
1.15512436
1.155166691
1.155296554
1.155597566
1.156029147
1.156731148
1.157739934
1.036236112
1.154322654
1.154174255
1.154048667
1.153990989
1.154250988
1.154392093
1.154709085
1.155332122
1.156389879
1.13893488
0.9217951507
0.8014494136
1.153501964
1.153309676
1.153159987
1.153124251
1.153438409
1.15376231
1.154498949
1.155662313
1.11023135
0.8290527729
0.6539120718
0.5543091164
1.15266148
1.152422279
1.152267642
1.152298376
1.152734482
1.153354876
1.154736524
1.15685199
0.8417200562
0.6032081199
0.4469300143
0.3484567214
1.151816694
1.151553646
1.151419522
1.151538704
1.15218884
1.153256718
1.155622649
0.9865969744
0.6678344572
0.4571859461
0.3031836588
0.196914317
1.150960027
1.15068555
1.15060431
1.150922177
1.151811787
1.153518049
1.157105391
0.8429235661
0.5654291674
0.370102501
0.2173431589
0.09976196976
1.150163003
1.149892134
1.14989248
1.150448864
1.15157517
1.154154301
1.067996049
0.7663621215
0.5219209644
0.3434693752
0.1997423537
0.08234932024
1.149423218
1.149172255
1.149292235
1.150140745
1.151629146
1.155147434
1.005453291
0.7306297988
0.5234916616
0.3713106656
0.2574885589
0.1836785822
1.148821767
1.148606978
1.148868074
1.150049338
1.15197701
1.156429686
0.9753592686
0.7345503954
0.5512775364
0.4244110913
0.3461106047
0.3457025418
1.148353369
1.148190221
1.148632398
1.15022038
1.152604051
1.157944911
0.966542462
0.7508408278
0.5892526298
0.4794979623
0.4223842478
0.4771707011
1.148081225
1.147975302
1.148593758
1.150583047
1.153462428
1.159515431
0.972278558
0.7781988035
0.6297410778
0.5244862866
0.4601443651
0.449633955
0.1635566924
0.328608149
0.4637949234
0.4559730903
0.08004194056
0.323678133
0.3196407888
0.1887629172
0.4061593777
0.4442502324
0.3356279086
0.3941781066
0.2014499378
0.227940706
0.4548176538
0.4828566015
0.4572071415
0.4860325457
0.1307294188
0.1696641463
0.4794384501
0.4397104663
0.07736204633
0.1019475809
0.06580554413
0.1535557081
0.03145853795
0.05977165287
0.2315778109
0.2580968451
0.2711157368
0.2009834247
0.1856897621
0.1747478139
0.2040095514
0.1724140575
0.1975531817
0.4115754304
0.1539445735
0.129678268
0.1838857907
0.1559708023
0.1033325204
0.1291029283
0.4788733982
0.1036757291
0.07880973518
0.1282879522
0.105003793
0.07562125971
0.4382055
0.05309872508
0.0777710266
0.05464515133
0.2378799395
0.1706707074
0.09578314926
0.1028753068
0.06491923465
0.03691839292
0.2499371813
0.2614265993
0.1685258225
0.1525691589
0.07235115387
0.1150952142
0.0412772521
0.01298236355
0.02264435841
0.03827502493
0.03066274433
0.09133442601
0.253960773
0.2416903414
0.04981042221
0.04163084888
0.09646490747
0.06532771917
0.05762861778
0.03978188063
0.06485285104
0.1087177933
0.03817173814
0.02350920576
0.01483578361
0.05287422142
0.02621486368
0.04217560652
0.0252117502
0.05893503683
0.1978033325
0.03099477104
0.1971334122
0.2196883142
0.03466097763
0.03876675283
0.03140679678
0.03417026872
0.2157129368
0.142053021
0.1404832662
0.1710913843
0.1693504995
0.09450097958
0.09272251689
0.1161002176
0.1145306949
0.2375247176
0.07085353835
0.07001907453
0.01585527687
0.01269066903
0.1445879584
0.3163874988
0.3047828875
0.3318299155
0.3202506004
0.1477782527
0.2698108995
0.2578231491
0.09259657994
0.1831417929
0.3471144288
0.3356353463
0.05934074082
0.06124202171
0.1342906658
0.116382726
0.2854551622
0.2737000444
0.3009267733
0.2893526915
0.1181403483
0.09983052416
0.03673734218
0.03744886134
0.02131338385
0.02213104935
0.08308962259
0.1232846063
0.05525137512
0.05894433179
0.03774594886
0.0384108306
0.108983854
0.07477394541
0.02070592736
0.02117493584
0.02032139023
0.06376709407
0.03830721439
0.03993771657
0.01511872018
0.01645908466
0.04485981358
0.04400128739
0.06741498856
0.07888066733
0.09616782241
0.05924284502
0.0740157205
0.06831729455
0.05976019739
0.1378336211
0.1266320912
0.1044938244
0.1396883816
0.05967669722
0.03897170731
0.04351185671
0.05422565282
0.03360865814
0.03762829367
0.02918878694
0.09411581473
0.08249100672
0.1004376616
0.09654280165
0.03030750461
0.07420415052
0.07201546033
0.07917662237
0.07499714941
0.03616042964
0.1167434195
0.1123102317
0.1239239615
0.1183179497
0.03674349939
0.03251419893
0.1055262122
0.1017785574
0.1108920532
0.1068292568
0.03285796088
0.04301401517
0.04225684312
0.04516055832
0.04327494304
0.04086593714
0.03983672449
0.04200610178
0.04113233133
0.06868916812
0.06675852721
0.07133512138
0.0693618357
0.06137854216
0.04783387214
0.06595280267
0.06389384277
0.03579643109
0.03638880359
0.09851633127
0.0213094202
0.02110119645
0.02195585886
0.02149114096
0.02044683875
0.08538342795
0.02277611375
0.03365859721
0.04052497775
0.05341393115
0.1215420112
0.03710036425
0.02406568192
0.03970187666
0.03678395331
0.02271951316
0.02218819732
0.02363233542
0.02293842594
0.1103318197
0.03863636034
0.0395096882
0.02011979507
0.02060116835
0.07385242469
0.06591831642
0.01924680227
0.02005902264
0.2130352811
0.3771971808
0.3659069009
0.3638906537
0.3784132916
0.2167821887
0.3622072931
0.3508888563
0.186595368
0.1485883247
0.06677026255
0.07048597265
0.07348111141
0.08397788121
0.1620653065
0.04015456372
0.04775251483
0.03695884201
0.04240971557
0.06610003124
0.09309657719
0.09172771717
0.04132710758
0.06669908434
0.06310374227
0.09070611327
0.08896049513
0.06349351689
0.0328152653
0.03953320768
0.03530233097
0.02709084959
0.02769398594
0.02284051718
0.04662285845
0.04527025879
0.0500155988
0.02349858444
0.03376012485
0.03213511088
0.05191747435
0.05154620978
0.03074186726
0.0285017651
0.02809322656
0.03110158175
0.03040400459
0.03518966761
0.05791517833
0.05730887819
0.06149841341
0.06074131844
0.03801688167
0.031734636
0.05312930686
0.05261862249
0.05668566547
0.05607147971
0.03371660752
0.0642167997
0.06608257427
0.1469069187
0.1357683557
0.06181315272
0.06362474103
0.09069649843
0.09379854471
0.1765575443
0.02651034072
0.02636669623
0.02785766574
0.02764082866
0.02025177829
0.02610003225
0.02599513775
0.1639080787
0.08614933881
0.08953959361
0.03689606148
0.05580505587
0.05534915209
0.02154999339
0.03573697307
0.03548831001
0.03704166483
0.03609521425
0.02175416395
0.02066898478
0.02044753479
0.02088036503
0.03500634598
0.03478890853
0.03533379658
0.0351531994
0.02100467817
0.02156624144
0.02097176731
0.03142960784
0.02251970263
0.01619067659
0.03990589322
0.03090594024
0.01032228569
0.01145399125
0.01872518086
0.02099077696
0.01218415172
0.01511669248
0.01494191517
0.0460415525
0.04299826615
0.08193903044
0.07349656837
0.04327066294
0.0632289114
0.08810454499
0.08465300523
0.03520075068
0.03240260423
0.03047626339
0.02300413847
0.0297971975
0.04328986607
0.04382240289
0.03834012408
0.04754565731
0.047735033
0.03060851303
0.03028516001
0.05058107426
0.05057075496
0.0291858909
0.02879667568
0.02995076218
0.02953281176
0.05902758665
0.05844726574
0.03558879434
0.03736381859
0.06016072242
0.05959917795
0.05431588461
0.05377220722
0.03216960741
0.03324398338
0.0554461347
0.05487669843
0.04274943069
0.02523718443
0.02550236727
0.02482147913
0.02502351305
0.04250859074
0.0440594719
0.02642850055
0.02690520391
0.02576347754
0.02606882954
0.04358907536
0.04049250923
0.02362310448
0.02385830115
0.02326250748
0.02348834967
0.0402653292
0.0417327967
0.02443491575
0.02462159686
0.02401992313
0.02424996313
0.04146495537
0.02694358686
0.02676152216
0.06805414057
0.04579514583
0.04611028572
0.0451085406
0.04538347904
0.06734842865
0.02738409266
0.02718096277
0.02487046568
0.02610956929
0.05934783313
0.04143648612
0.04113732017
0.02779328699
0.02918463846
0.05305632611
0.0654797371
0.04442032094
0.04461611465
0.04371571954
0.0436673117
0.06427090721
0.02567172116
0.02571618242
0.03571936611
0.05331612347
0.05301433032
0.05467928629
0.05432733734
0.03629361801
0.02126592909
0.02103047044
0.02183362406
0.02156431462
0.02154101004
0.01689636258
0.02394290929
0.04388583378
0.03932781681
0.05089325922
0.04911882773
0.03392671326
0.02611956414
0.01818483368
0.02336116324
0.02483198233
0.0390400297
0.02291586867
0.02319885453
0.02224337522
0.02296917245
0.03910716991
0.0225567133
0.02233412043
0.02336919846
0.02312798237
0.02033274661
0.03421710957
0.03386225528
0.03463402594
0.03435851366
0.02040964897
0.01979103153
0.0331890491
0.03134999099
0.03374430259
0.03316493199
0.01977649623
1.155351133
1.155960034
1.15590266
1.156217235
1.157202303
1.156536199
1.157614176
1.034875293
1.157444699
0.995225086
0.8853211362
1.051651846
0.8653775535
1.155507271
1.156791936
1.156070404
1.157356421
0.9619743336
1.15760797
0.8995851103
0.7523871781
0.9631432031
0.7157116624
0.632615269
0.8224082168
0.6134162868
1.156447651
0.9821204734
1.157203988
0.900126623
0.7037707682
0.888289152
0.651817106
0.5261139316
0.6893372879
0.4926877303
0.4141386752
0.5732429675
0.3949687133
1.034115338
0.7744341785
0.920174382
0.7060816731
0.5342294665
0.6536225709
0.486431074
0.3664823301
0.480119572
0.3332116648
0.2509280231
0.3679666565
0.2298344999
0.8725337396
0.6464370335
0.7340039301
0.5854497847
0.4298639004
0.5025803012
0.3859947817
0.2681970281
0.3370968253
0.2332624884
0.142488814
0.2186747709
0.1193514336
0.7814701811
0.5829160481
0.6248781951
0.5283108403
0.3862405511
0.4138140905
0.344396796
0.2305012897
0.2529265506
0.1967500936
0.09406996014
0.1249799135
0.08776005907
0.05362600198
0.08471529868
0.7354477905
0.5655187631
0.5749244493
0.5187786643
0.3963489201
0.3840102799
0.3600365342
0.2655062279
0.2327561029
0.2073881637
0.1802291189
0.1700324819
0.08631555206
0.0749727294
0.06802315324
0.732811135
0.5838813536
0.5686045599
0.5428565516
0.4388356284
0.4064518772
0.4099030163
0.3392031282
0.281632795
0.2787321214
0.2604582656
0.2355320998
0.2050768184
0.2047450047
0.1796656047
0.7446266876
0.6150517065
0.5906406557
0.5794692401
0.4905518584
0.4519566593
0.4665022063
0.4138235176
0.3591080781
0.3674608783
0.3620906001
0.337624517
0.3616457142
0.3734641573
0.3599730278
0.7688320015
0.6517382002
0.6238545858
0.6191128699
0.5367186078
0.5028273582
0.5140646449
0.4631533854
0.429141658
0.4360028617
0.4369041716
0.4233609288
0.4884915683
0.3726723078
0.3840012226
0.6619424668
0.5474581382
0.4711037561
0.4561003304
0.4696005355
0.4528485169
0.4392793004
0.3100306499
0.3221922863
0.1568822494
0.1364217111
0.1452215818
0.3494209388
0.3370000146
0.3091810423
0.3877197247
0.3988562347
0.4479644719
0.3261494995
0.3379986039
0.4642718822
0.03607798661
0.0482449814
0.08344549766
0.0721704454
0.04523635116
0.312362323
0.2863592684
0.3010228961
0.2668688896
0.2681001873
0.313209127
0.2104035441
0.2530385336
0.2473925658
0.4062257174
0.3858594514
0.3876255934
0.3988023289
0.3777643215
0.4183563195
0.3254076772
0.3696977626
0.3828678445
0.4105780142
0.3860879157
0.3776612527
0.2054402174
0.261291508
0.2573459974
0.2841197215
0.280377882
0.2242318683
0.4521967561
0.4462604546
0.4466347676
0.4860058634
0.4448086723
0.4622680734
0.4203121382
0.450156177
0.4830589873
0.3573996342
0.3688952051
0.4933213233
0.1358670884
0.2010998953
0.1977284776
0.2234402719
0.2191607225
0.1650672488
0.4516560672
0.4608317331
0.4581236934
0.2938683906
0.3060575345
0.435992424
0.08457139669
0.1450338635
0.1471622724
0.1657514084
0.1620741151
0.09789880916
0.07484438416
0.07420725755
0.06380494488
0.1587036005
0.1426669899
0.1365515313
0.03297817831
0.02735240989
0.02595412892
0.05464420475
0.04825244015
0.05332685166
0.2422592927
0.3480405309
0.3594530021
0.2918305434
0.3388886113
0.246045863
0.2873288459
0.3250640066
0.2813820533
0.1959094929
0.1224363585
0.127249455
0.09922034602
0.1026927
0.1911835084
0.1994079498
0.1496271425
0.1561337409
0.1288195868
0.1335769278
0.2081934135
0.1762546312
0.230758569
0.2267667664
0.2534352608
0.2495551298
0.1938129815
0.4300557915
0.4024534472
0.4134213945
0.1520856825
0.1241624176
0.1260535006
0.1047502706
0.1060781575
0.1312771884
0.1783625343
0.0948794203
0.09810774272
0.1282348247
0.1305522582
0.1580237555
0.1081267173
0.1728074774
0.1691605031
0.1943118697
0.190869638
0.1243858871
0.4713275938
0.3419236497
0.3535570586
0.1023937938
0.07839564497
0.07928916963
0.05557100069
0.05628994183
0.07997296833
0.1267115413
0.1021430898
0.1035422905
0.08026126465
0.08118613801
0.106315016
0.1466218516
0.2898237657
0.05214822564
0.03310096513
0.03343380876
0.07674788358
0.05442117501
0.05498797057
0.03430057319
0.03645392611
0.05716859124
0.2127585732
0.193468381
0.2206435149
0.1267559851
0.1652604802
0.1960264476
0.13400996
0.1565038451
0.1154196814
0.09052169743
0.081140469
0.09292201828
0.04714436913
0.06800147776
0.0808568991
0.05268593741
0.06164995877
0.04298009485
0.2569940401
0.2307420857
0.2272049507
0.2544902234
0.2318988378
0.2759482295
0.1727139754
0.2142306889
0.2303223839
0.1106412622
0.1239569356
0.1572702761
0.08850386047
0.1122981698
0.09932342127
0.1291279609
0.1184967516
0.1031750504
0.0131838025
0.01098857296
0.01068458598
0.02084920069
0.01860862111
0.02011936324
0.02827791264
0.01817243065
0.03427870077
0.0216904368
0.0317549554
0.01561814623
0.01949911188
0.03298333398
0.1520099035
0.1473392144
0.08668858911
0.2497480207
0.1977278036
0.2021988826
0.1897291793
0.1944940593
0.2458423861
0.0957103406
0.08064148972
0.08516359046
0.05686059386
0.06288982931
0.06561255221
0.1220954334
0.1280787364
0.1040893956
0.0340080112
0.03033404411
0.03509760414
0.01819096873
0.024664742
0.02990697908
0.02112167306
0.02270812202
0.01688434703
0.04755308023
0.04806171714
0.05206750704
0.02904448732
0.03164424213
0.02905515391
0.04732217327
0.04246260496
0.03755496579
0.1116669839
0.120330812
0.1943173308
0.1928959728
0.1039247292
0.1089527614
0.1421092733
0.1476646203
0.2240685061
0.2117874249
0.1352122592
0.1403355806
0.1152708474
0.1166464791
0.1436613242
0.1388953534
0.1125667785
0.1139163082
0.1435192862
0.145176532
0.1729362761
0.1675129364
0.1402288136
0.141867143
0.07257315227
0.07354811009
0.09590141148
0.09056517503
0.06844033375
0.07068173936
0.08927118439
0.0915625702
0.117735124
0.1130750843
0.08620741782
0.08753378099
0.1857464942
0.05104703934
0.05175332757
0.07194416852
0.06876745139
0.04964377345
0.05066631626
0.01351104407
0.0133891529
0.2078755438
0.2044633707
0.1377402695
0.3125112005
0.2586044357
0.2624372945
0.2510854999
0.254824789
0.3086452455
0.3279437597
0.2739498807
0.2779337305
0.2663291097
0.270245083
0.3241149724
0.1630516672
0.2160692545
0.2115764948
0.2657997808
0.2133354951
0.2172628214
0.205619071
0.2097334705
0.2619267186
0.09660248977
0.1588195859
0.1548874543
0.2382053275
0.2343338494
0.1794862231
0.3432909689
0.2893662277
0.2932709603
0.281645089
0.2855794715
0.3394915772
0.06007239243
0.08217621116
0.08111205153
0.08407840867
0.0830572029
0.06058884383
0.1327254111
0.1073108421
0.1086340919
0.1802893054
0.1764920677
0.1101465333
0.2815497462
0.2285949604
0.2324407537
0.220951491
0.2248104446
0.2776565688
0.2970697914
0.2436488802
0.2473608459
0.2362034204
0.2399286638
0.293210195
0.1228427825
0.1874029762
0.183895747
0.07656886632
0.0774049401
0.101074532
0.05694157564
0.05642149018
0.03724472036
0.08133007178
0.05725336459
0.0588294458
0.09895596836
0.1007720977
0.1251972003
0.05753561692
0.07805084198
0.07607945637
0.08029728075
0.07904333439
0.05785163031
0.03795521866
0.05807010886
0.05752825342
0.05919847897
0.05864303567
0.03821137364
0.1076536159
0.08215167603
0.08309993993
0.05332724444
0.05389575873
0.07578626997
0.06065511217
0.04076954208
0.04568802966
0.01322998379
0.01171158914
0.01380839816
0.008624457396
0.009546029758
0.01819524331
0.01667813522
0.01509615137
0.0838722215
0.09219113825
0.06663993446
0.08369820354
0.08567015347
0.07873863434
0.1017367759
0.09318277108
0.08966444713
0.06506261656
0.06172818297
0.05703331545
0.07254063062
0.0669232076
0.06993183809
0.07003281392
0.06944387135
0.07638374521
0.1339917285
0.1035373522
0.1086688109
0.09386340059
0.09794044468
0.130090191
0.1141688741
0.1167989372
0.1123046456
0.1118700022
0.1148543338
0.1262113822
0.04043253262
0.04396778456
0.04308543637
0.04642092637
0.04463895062
0.04170394462
0.05298321738
0.04974444212
0.05116484449
0.09138530845
0.06743862384
0.06978412464
0.05447384127
0.06031677429
0.08711226788
0.09934381335
0.07460568985
0.07524879392
0.07266821572
0.07315662492
0.09779046804
0.07345560986
0.04852979741
0.04889442151
0.04778841773
0.04818248397
0.07273270777
0.07717426335
0.05020059511
0.0514904367
0.04923592514
0.04963276275
0.07592525168
0.115224548
0.08549670017
0.08647986426
0.08357892376
0.08454470374
0.1137542116
0.1217916285
0.08977087537
0.09136628301
0.08749200575
0.08855152082
0.1199744269
0.1042701221
0.07803233697
0.07890537692
0.07627296308
0.07709502037
0.1029688192
0.1095054736
0.08165745462
0.08261083055
0.07980461166
0.08071189686
0.1081468617
0.07067670741
0.04714742976
0.04745930189
0.04647790554
0.04679888668
0.0700111485
0.09729196627
0.07476035578
0.07554177143
0.06145865866
0.06512249258
0.08804928775
0.04295835136
0.0664929241
0.06375300389
0.07378985809
0.07030700848
0.04774054413
0.1191802389
0.09424106053
0.09681035277
0.08408080297
0.08509120049
0.1116843159
0.0388408333
0.06038952716
0.05978110133
0.06211819001
0.06112088459
0.03910553069
0.07281716194
0.05221343337
0.05282346864
0.04731480439
0.04930264433
0.06775438618
0.2690149415
0.2651721468
0.209277937
0.3733375358
0.3202627516
0.3240467942
0.3125926522
0.3164400147
0.3696080204
0.3663886716
0.3351877769
0.338947143
0.3277699947
0.3314692423
0.3726911554
0.220521683
0.2766169752
0.272825387
0.358459051
0.3048567829
0.3087301146
0.297108134
0.3009992107
0.3546833594
0.1902214393
0.2457597226
0.2419177074
0.120938288
0.1224702714
0.1502755959
0.06759273524
0.09461344339
0.09335112438
0.09805213738
0.09611527706
0.06870048611
0.0776536239
0.1035540151
0.1006002538
0.1086891525
0.1063447093
0.08149826214
0.1600685433
0.1328389729
0.1349389144
0.03434123954
0.03280670387
0.03092462111
0.03773031245
0.0356230498
0.03722829898
0.03199607565
0.03435259834
0.03718198913
0.06482140234
0.09006259909
0.08902802327
0.09220463038
0.09111489564
0.06543552251
0.1452815842
0.118045061
0.1194637853
0.1099136562
0.1112496738
0.137363543
0.06243758331
0.08603112583
0.08501958634
0.0880204441
0.08700853686
0.06302501549
0.09167377479
0.117864152
0.1164910056
0.1207087436
0.1192976145
0.09277065224
0.1746999685
0.1468488763
0.1485370801
0.1368314904
0.1385528822
0.165771489
0.08724819858
0.1121789549
0.1106576851
0.1150532486
0.1137029509
0.08862255139
1.155590512
1.15561976
1.156036818
1.155665231
1.155724971
1.15607698
1.15581744
1.155939621
1.156137522
1.156102793
1.156311564
1.156256572
1.156565899
1.156881128
1.156421179
1.157269664
1.142965576
1.156661724
1.07373638
1.031400174
1.069811401
1.154677979
1.154707645
1.15513494
1.154764513
1.154853267
1.155220578
1.154968832
1.155214208
1.155523388
1.155484386
1.155603749
1.155686866
1.156040115
1.156245988
1.156183656
1.156934899
1.157232267
1.156962379
1.151490704
1.071623145
1.130666889
0.989281814
0.9489228571
0.9975164855
1.153845922
1.153921015
1.154301209
1.154055324
1.154257476
1.154526801
1.154564789
1.1551865
1.155162158
1.155347256
1.155600255
1.155541341
1.156627175
1.157061142
1.156749959
1.057515516
0.9932120637
1.072136612
0.8504868627
0.8138749072
0.8815323249
0.7378121862
0.7200862558
0.7818756278
1.153101038
1.15325479
1.153563965
1.153523274
1.153935126
1.154057528
1.154543212
1.15582115
1.155272561
1.155877557
1.156403455
1.15610233
1.035772811
0.9560145698
1.030306753
0.7644515387
0.7143284753
0.7763920608
0.596128198
0.5657586683
0.6227877093
0.4980285458
0.4826208222
0.5388270321
1.152477877
1.152766736
1.152980138
1.153257262
1.154000083
1.153912816
1.155121405
1.120470825
1.156121169
1.141576026
1.046427005
1.103762263
0.7908126151
0.7224896202
0.7721705758
0.5594641688
0.5149663609
0.5578808732
0.4050983211
0.3752845784
0.4172282098
0.3055030469
0.2891696437
0.3325642737
1.151987449
1.152504491
1.152608759
1.153330571
1.154559271
1.15421966
1.156326533
0.9608450585
1.086238659
0.9434981573
0.853001543
0.8921977695
0.6358996009
0.5770656372
0.6078396803
0.429900372
0.386410768
0.4130505907
0.2759272007
0.2447589146
0.2718733044
0.1675515441
0.1489088883
0.1793766828
1.151653304
1.152506941
1.152483468
1.153777
1.155596412
1.155041708
1.114973867
0.8612565583
0.9357229185
0.8193468094
0.7408825221
0.762326433
0.5497748636
0.4962174894
0.5111610926
0.3576639937
0.3167887874
0.3287423311
0.2055040713
0.1711779513
0.1837339328
1.151571106
1.152807391
1.152641301
1.154592435
1.157004541
1.156266277
1.032008303
0.8068661215
0.8451280992
0.7559432373
0.6875279537
0.6961989248
0.5181044687
0.4705741322
0.4727767493
0.3459831184
0.3086408653
0.3048979235
1.151767927
1.153418558
1.153109671
1.155729507
1.158534101
1.157750995
0.9874127786
0.7933711731
0.7987157534
0.7329090265
0.6745602485
0.6714304886
0.5288990274
0.4879543752
0.4819183906
0.3828616597
0.3526715049
0.3389096078
1.15223729
1.154324515
1.153889168
1.157128928
1.123102933
1.140127734
0.9687282793
0.7963758573
0.7943601558
0.7365694092
0.6858733634
0.6813588874
0.5602944451
0.5256100898
0.5152721699
0.4387678628
0.4153279736
0.3995340946
1.152983602
1.155478036
1.154958267
1.158646861
1.10304654
1.110724393
0.968279183
0.8131794645
0.8051239204
0.7553855867
0.7108353664
0.7037807741
0.5992217677
0.5683778465
0.557677127
0.4918248372
0.471734708
0.4590219574
1.156252234
1.099739629
0.830207981
0.7850956846
0.7457947761
0.73520056
0.6405975343
0.6109494462
0.6000235499
0.5347244026
0.5133648654
0.5038306207
0.06449980455
0.06438282312
0.07948868981
0.06074102251
0.0502242265
0.3028870364
0.2963138235
0.3118391127
0.194707364
0.2109569137
0.2078332135
0.4297619415
0.4190474285
0.4311961341
0.3283542087
0.3431717768
0.351247324
0.4852569902
0.4733195375
0.4714558869
0.4436819181
0.4522698121
0.4683117486
0.1323854793
0.1577140795
0.1560416298
0.4711295199
0.4672994875
0.4750737375
0.07957100579
0.1032442368
0.1015325266
0.126604338
0.1250146683
0.1005844318
0.2351708134
0.2915251029
0.287826777
0.3145087006
0.3103169737
0.2537656586
0.1572496458
0.1590862837
0.187564546
0.1820121452
0.1536950925
0.1554601808
0.104786483
0.1298348942
0.1282016809
0.1544219415
0.1527122964
0.1275094576
0.09988333429
0.09835871664
0.07428947523
0.3975822783
0.1541230534
0.1643878653
0.1787859966
0.1132236075
0.1159546918
0.09904246833
0.05832398288
0.06492912053
0.07095954262
0.0431637968
0.04430618863
0.03858117174
0.2655848641
0.279489948
0.2986004199
0.1689884559
0.1841362694
0.1867188752
0.1375432044
0.1400445991
0.1537039495
0.07801556266
0.08575287201
0.08044006266
0.02512448431
0.02520051305
0.03079080191
0.1141177293
0.1124623313
0.08989376635
0.02137415406
0.0239461217
0.026515464
0.01601629593
0.01691860869
0.01489375656
0.1762010854
0.1808359726
0.1977152988
0.1960522015
0.1696675818
0.172582989
0.01055909537
0.01057410904
0.01263064744
0.1657516
0.1649602088
0.1419944472
0.1518381789
0.1659619026
0.1662754412
0.093974771
0.1172330792
0.1155702419
0.1409585172
0.1390715906
0.1144173293
0.1197521492
0.1444344104
0.1426852816
1.155525874
1.155548334
1.155402469
1.15590037
1.155703445
1.155723249
1.155783336
1.155724066
1.155883895
1.156519415
1.156354206
1.156102139
1.156917139
1.156607262
1.156838611
1.156344191
1.156442405
1.156697718
1.147388402
1.157604873
1.157214244
1.103785443
1.157942007
1.097222118
1.157190281
1.157520906
1.15785661
0.948133121
1.011283206
1.073746237
0.9443626655
0.9899926193
0.9194248019
1.110407815
1.057306122
0.9986797389
0.8420615432
0.8981371876
0.9297013216
0.8905564746
0.8306913397
0.9885832622
0.9447457395
1.155875722
1.155709054
1.155404424
1.156478845
1.156067994
1.156305896
1.155785738
1.155898003
1.156239918
1.107982255
1.15747429
1.156946898
1.041225934
1.113597812
1.032959226
1.157144759
1.157559193
1.122095247
0.8437305142
0.9162904785
0.97609168
0.819660336
0.8653408365
0.7953417938
1.017169735
0.9396985772
0.8905117719
0.6834139286
0.7473433054
0.7814169526
0.6945307024
0.7191684037
0.6561573016
0.8513185689
0.7845435135
0.7582185274
0.5975677031
0.6582733314
0.6748258328
0.6466359284
0.5860984926
0.7696726432
0.708138159
1.157153195
1.156763722
1.156152847
1.049054608
1.135111897
1.070260238
1.156608451
1.157016805
1.118818007
0.8269130577
0.8880818035
0.9645985148
0.7594248922
0.8200401357
0.7618633301
0.9555951615
0.8845193133
0.820825825
0.6052808046
0.6573682555
0.7054843097
0.5762438013
0.6144932669
0.5635545263
0.730236086
0.6699974698
0.6306251778
0.4629599776
0.5124640124
0.5423939432
0.4637756518
0.4863520266
0.4368263526
0.5961590085
0.5395017062
0.5168832901
0.3792713706
0.4293676305
0.4448107934
0.4177073515
0.36736638
0.5274019904
0.4711019885
0.9376407294
0.9896397722
1.087005588
0.8190120535
0.9008111107
0.8502265659
1.00833751
0.9541149212
0.8677938293
0.6426989442
0.6815138796
0.7473622628
0.5678718409
0.6218270037
0.5867538612
0.7097790959
0.6626523366
0.6086535805
0.4427342001
0.4768539387
0.5199954241
0.4009731278
0.4374319094
0.4028817321
0.517012477
0.4747089282
0.4381469232
0.3026896815
0.3372908008
0.3676267897
0.2862718186
0.310154613
0.2752809268
0.3909275782
0.348697075
0.3253834099
0.2125675868
0.2492849313
0.2658590146
0.2366979869
0.1996419202
0.320450988
0.2767709857
0.7883210702
0.8181614638
0.9038422029
0.6714094925
0.740608204
0.7130146643
0.807910432
0.7719311124
0.7004387137
0.5298528205
0.5516783111
0.6086036278
0.4499175504
0.4990474257
0.4782480148
0.5533491572
0.5233577751
0.4743499419
0.3445637512
0.3635412717
0.4053736107
0.2878358832
0.3244342828
0.3048090392
0.3728004135
0.3467016487
0.3106108741
0.2007577101
0.2208063553
0.2526990445
0.1651105718
0.1914292915
0.1707773833
0.2437824824
0.2163004317
0.1903232658
0.09942443535
0.1230721325
0.1403837723
0.1100073887
0.08510120402
0.1663973076
0.1352839435
0.7082172171
0.7227076818
0.7978141414
0.5935540652
0.6549585145
0.642493193
0.6901286561
0.6706636317
0.6074008821
0.4776053716
0.4852424673
0.5373808317
0.3919162855
0.4372180861
0.430531396
0.4611722844
0.4471860142
0.4007997865
0.3047167933
0.3086176377
0.3490532099
0.233419267
0.2700190587
0.2666395741
0.2892712066
0.2777173952
0.2411136258
0.1616676703
0.163464962
0.1982436181
0.1012785239
0.131805912
0.129455572
0.1536434092
0.1412994812
0.1099967486
0.06107474906
0.07168196598
0.06603050614
0.6724429349
0.6798267873
0.7465218575
0.5664094558
0.6202607498
0.6163583039
0.6327142412
0.6257178548
0.5695509255
0.4754557793
0.4712160879
0.5170163864
0.3884578761
0.4283065457
0.4348643836
0.4269796009
0.4262992138
0.3849125193
0.3267490829
0.3162604941
0.3513553608
0.251358835
0.2828284564
0.2951729196
0.2679685264
0.2732962447
0.2399684667
0.6781558083
0.6764303694
0.7336204419
0.5781230469
0.6249229229
0.6287507521
0.6177173448
0.6215612872
0.5732392058
0.5052213428
0.4957529858
0.5352536704
0.4260892672
0.4593172432
0.4705732482
0.4433399614
0.4501094262
0.4152232169
0.3835291877
0.3677265602
0.3957536566
0.3191944485
0.3421806822
0.3599876634
0.3089755002
0.3248754117
0.2997229598
0.6972695828
0.691315698
0.7411845412
0.6064717147
0.6467817017
0.6541375269
0.6337710392
0.6399177707
0.5982614813
0.5469988298
0.5362294209
0.569751314
0.4778310365
0.5056327791
0.5173969834
0.4822304827
0.4938832128
0.4649424413
0.4453060566
0.4306501967
0.4528382905
0.3967454986
0.4118144017
0.4275199648
0.3777637941
0.3951467428
0.378423195
0.3716691443
0.362770129
0.3744190914
0.3487615904
0.3600196795
0.3607976916
0.7265251134
0.7184701259
0.7633002417
0.6422813654
0.6785537627
0.687420824
0.6618442838
0.6700245277
0.6329855832
0.589193941
0.5788297403
0.6091497801
0.5258948256
0.5511042555
0.5617595961
0.5289027022
0.5402349508
0.5147028109
0.4939231646
0.4832503592
0.5032316902
0.4536698021
0.4663950712
0.4766344873
0.4419363681
0.4549349307
0.442464436
0.3764751347
0.426459029
0.4227116781
0.433684611
0.4299371201
0.3802165633
0.6968643888
0.7072293307
0.6726493214
0.5726307987
0.5835158544
0.5581370689
0.4856913981
0.4944518567
0.4782622995
0.314190123
0.36527464
0.3608179412
0.3732673639
0.3692347508
0.3181521317
0.3914689035
0.4409164545
0.4371659268
0.4481976439
0.4444156871
0.3951570634
0.3301528705
0.3811780584
0.3770535018
0.3889959667
0.3850168371
0.3340761154
0.0397392469
0.05194005509
0.0519016232
0.06016135145
0.05527342848
0.04300439353
0.08136123752
0.06600054424
0.07017934423
0.06273020781
0.05474932168
0.06425274407
0.03835669918
0.04630228971
0.05341619163
0.04092362818
0.03328613574
0.2628768811
0.2792765947
0.2854626006
0.3083701374
0.2957999595
0.2972648648
0.2274955651
0.2283233757
0.2452389722
0.3895189939
0.4036801963
0.4144801827
0.3959542312
0.3938847628
0.3847504791
0.418726216
0.4118429513
0.401268223
0.3423205413
0.3384003714
0.3268722609
0.3675779887
0.3577119575
0.3529787738
0.3670576586
0.3595341096
0.3736750811
0.4046551417
0.3949750408
0.4103842337
0.3775051971
0.3909272494
0.3894753533
0.4707612568
0.4716843133
0.4865446697
0.4584778715
0.459197438
0.4623478006
0.4612079288
0.4671215887
0.4500866382
0.4366762009
0.4383669661
0.434662109
0.4519159742
0.4516594602
0.4350420669
0.4770822433
0.4609979305
0.4657758872
0.361256505
0.411849298
0.4080089204
0.4192010587
0.4154510434
0.3650698814
0.1608933605
0.159300063
0.1340966261
0.466342349
0.4599605229
0.4678194737