/*--------------------------------*- C++ -*----------------------------------*\
| =========                 |                                                 |
| \\      /  F ield         | OpenFOAM: The Open Source CFD Toolbox           |
|  \\    /   O peration     | Version:  v2012                                 |
|   \\  /    A nd           | Website:  www.openfoam.com                      |
|    \\/     M anipulation  |                                                 |
\*---------------------------------------------------------------------------*/
FoamFile
{
    version     2.0;
    format      ascii;
    class       pointVectorField;
    location    "1.6";
    object      pointDisplacement;
}
// * * * * * * * * * * * * * * * * * * * * * * * * * * * * * * * * * * * * * //

dimensions      [0 1 0 0 0 0 0];


internalField   nonuniform List<vector> 
6962
(
(0 0 0)
(0 0 0)
(0 0 0)
(0 0 0)
(0 0 0)
(0 0 0)
(0 0 0)
(0 0 0)
(0 0 0)
(0 0 0)
(-0.001011056598 -0.0002805485387 5.606626274e-15)
(0 0 0)
(0 0 0)
(0 0 0)
(0 0 0)
(0 0 0)
(0 0 0)
(0 0 0)
(0 0 0)
(0 0 0)
(0 0 0)
(0 0 0)
(0 0 0)
(0 0 0)
(0 0 0)
(-0.00179779917 -0.0008016347822 9.964251646e-15)
(-0.001638977146 -0.0006615516541 9.089951014e-15)
(-0.001402634281 -0.0005072064274 7.771561172e-15)
(-0.00698192109 -0.002747274397 4.24521529e-14)
(-0.007502466909 -0.003295787114 4.560241074e-14)
(-0.01138566525 -0.005226391475 7.265021917e-14)
(-0.01074763622 -0.004418117904 6.862566071e-14)
(-0.02291419712 -0.01088282567 1.718625242e-13)
(-0.02334815663 -0.01240110126 1.749433931e-13)
(-0.02656985442 -0.01492038649 2.113031972e-13)
(-0.0262067136 -0.01315462538 2.086941731e-13)
(-0.03127156055 -0.01915215939 3.0594971e-13)
(-0.03140339541 -0.0215233109 3.066158438e-13)
(-0.03128617562 -0.02322664956 3.308187058e-13)
(-0.03107767631 -0.02062763648 3.294170492e-13)
(-0.02530324123 -0.02269677922 0)
(-0.02538704996 -0.02542993059 0)
(-0.02248486145 -0.02552076388 0)
(-0.0224432262 -0.02415465634 0)
(-0.0224019679 -0.02278840971 0)
(-0.01372810276 -0.02305987036 0)
(-0.01374769378 -0.0237423275 0)
(-0.01302908432 -0.02376433865 0)
(-0.01300956284 -0.02308206997 0)
(0 0 0)
(0 0 0)
(0 0 0)
(0 0 0)
(0 0 0)
(0 0 0)
(0 0 0)
(0 0 0)
(0 0 0)
(0 0 0)
(0 0 0)
(0 0 0)
(0 0 0)
(0 0 0)
(-0.001704986163 -0.00105298501 9.492406861e-15)
(-0.001926821926 -0.001108061951 1.072752998e-14)
(-0.002058935437 -0.001096660608 1.146305273e-14)
(-0.008312076508 -0.004823991405 5.072331444e-14)
(-0.008045180776 -0.005043394704 4.909961326e-14)
(-0.01201014759 -0.007875421234 7.692457782e-14)
(-0.01232956973 -0.00748311671 7.897849041e-14)
(-0.024429464 -0.01719823677 1.835753771e-13)
(-0.02404190098 -0.01829447386 1.805500194e-13)
(-0.02723490727 -0.02192462806 2.169653346e-13)
(-0.02761046712 -0.0205637132 2.201294702e-13)
(-0.03209746522 -0.02920240323 3.138878046e-13)
(-0.03186126584 -0.03131146443 3.110567359e-13)
(-0.03151243562 -0.03353933177 3.330669074e-13)
(-0.03167276988 -0.03122215918 3.354538869e-13)
(-0.02531822886 -0.03366638449 0)
(-0.02540509952 -0.03639988346 0)
(-0.02249482792 -0.03649237195 0)
(-0.02245140268 -0.03512593994 0)
(-0.02240795727 -0.03375887298 0)
(-0.01367726948 -0.03403633441 0)
(-0.01372071489 -0.03540340138 0)
(-0.01226564259 -0.03544964361 0)
(-0.01224390979 -0.03476579265 0)
(-0.01222219717 -0.03408257664 0)
(-0.01294973332 -0.03405945553 0)
(0 0 0)
(0 0 0)
(0 0 0)
(0 0 0)
(0 0 0)
(0 0 0)
(0 0 0)
(0 0 0)
(0 0 0)
(0 0 0)
(0 0 0)
(0 0 0)
(0 0 0)
(0 0 0)
(-0.0003981719677 -0.0003138158648 2.220446049e-15)
(-0.0007225178313 -0.0005386218666 4.024558464e-15)
(-0.0010734788 -0.000754448571 5.981326545e-15)
(-0.006164022129 -0.004731113542 3.763656053e-14)
(-0.005265875292 -0.004290518214 3.215483435e-14)
(-0.008583483508 -0.007324690834 5.502542866e-14)
(-0.009710877926 -0.007803331044 6.222800053e-14)
(-0.02107069716 -0.01968206287 1.581929032e-13)
(-0.01953176176 -0.01939061202 1.467159727e-13)
(-0.02270346761 -0.02384887522 1.808275751e-13)
(-0.02426948975 -0.02398471615 1.932065619e-13)
(-0.02962687035 -0.03567297063 2.884081862e-13)
(-0.02832475844 -0.03623514364 2.75737766e-13)
(-0.02862069594 -0.03957669349 3.012035066e-13)
(-0.02973295806 -0.03871486935 3.129996262e-13)
(-0.0253681405 -0.04412878854 3.556321904e-13)
(-0.02500125668 -0.04607351888 3.497618861e-13)
(-0.02263210155 -0.04703278229 3.564648576e-13)
(-0.02274080703 -0.04466799158 3.592959263e-13)
(-0.01402479245 -0.04497160024 0)
(-0.01411168328 -0.04770573418 0)
(-0.01120147518 -0.04779822065 0)
(-0.01111458435 -0.04506408672 0)
(-0.01256972015 -0.04501784247 0)
(0 0 0)
(0 0 0)
(0 0 0)
(0 0 0)
(0 0 0)
(0 0 0)
(0 0 0)
(0 0 0)
(0 0 0)
(0 0 0)
(0 0 0)
(0 0 0)
(0 0 0)
(0 0 0)
(0 0 0)
(0 0 0)
(-9.779620198e-06 -8.540515853e-06 5.551115123e-17)
(-0.002341723295 -0.00224154365 1.432187702e-14)
(-0.001469747311 -0.001476770748 8.992806499e-15)
(-0.003420203578 -0.003606461125 2.198241589e-14)
(-0.004699101802 -0.004717751456 3.019806627e-14)
(-0.01372294405 -0.01608514864 1.034450303e-13)
(-0.0115562031 -0.01424912862 8.726352974e-14)
(-0.0143168835 -0.0187001235 1.146721607e-13)
(-0.01664100664 -0.02065377099 1.330324739e-13)
(-0.02273239548 -0.03436650151 2.221001161e-13)
(-0.02038577335 -0.03245694308 1.996874888e-13)
(-0.02133181579 -0.03668667401 2.258193632e-13)
(-0.02355002882 -0.03845608367 2.486483242e-13)
(-0.02213434195 -0.04793199091 3.096412016e-13)
(-0.02056108591 -0.0468694537 2.883526751e-13)
(-0.01922740011 -0.04927438351 3.029104745e-13)
(-0.02054964402 -0.05004643093 3.229916334e-13)
(-0.01369350585 -0.05363247062 3.447658825e-13)
(-0.01302714503 -0.05362386214 3.285288708e-13)
(-0.01049419126 -0.05424821489 3.318872954e-13)
(-0.0110002225 -0.05411828447 3.473610288e-13)
(0 0 0)
(0 0 0)
(0 0 0)
(0 0 0)
(0 0 0)
(0 0 0)
(0 0 0)
(0 0 0)
(0 0 0)
(0 0 0)
(0 0 0)
(0 0 0)
(0 0 0)
(0 0 0)
(0 0 0)
(0 0 0)
(0 0 0)
(-8.585754118e-06 -9.842908367e-06 4.163336342e-17)
(0 0 0)
(-8.841559816e-05 -0.000110978168 5.689893001e-16)
(-0.0005225860372 -0.0006299581067 3.372302437e-15)
(-0.005285592701 -0.007494518755 4.014844013e-14)
(-0.003521410752 -0.005210746243 2.679800826e-14)
(-0.005249932355 -0.008250321136 4.246603069e-14)
(-0.007330409875 -0.01103016627 5.914713164e-14)
(-0.01263267312 -0.02327309267 1.250943793e-13)
(-0.01005787579 -0.01939435063 1.000310945e-13)
(-0.01116535888 -0.02329817959 1.202371536e-13)
(-0.01375616253 -0.02740543718 1.473821065e-13)
(-0.01445722313 -0.03827179472 2.058769821e-13)
(-0.0121794709 -0.03384294857 1.747213485e-13)
(-0.01171842898 -0.03666939151 1.892652701e-13)
(-0.01380323867 -0.04111383798 2.210870376e-13)
(-0.009712839712 -0.04671732337 2.507299923e-13)
(-0.008338439998 -0.0423311606 2.181449466e-13)
(-0.00672119487 -0.04319616397 2.22433183e-13)
(-0.007837781463 -0.04756735453 2.550598621e-13)
(0 0 0)
(0 0 0)
(0 0 0)
(0 0 0)
(0 0 0)
(0 0 0)
(0 0 0)
(0 0 0)
(0 0 0)
(0 0 0)
(0 0 0)
(0 0 0)
(0 0 0)
(0 0 0)
(0 0 0)
(0 0 0)
(0 0 0)
(0 0 0)
(0 0 0)
(0 0 0)
(0 0 0)
(-0.0002268831131 -0.0003771475976 1.734723476e-15)
(0 0 0)
(-0.0001649237704 -0.0003024863538 1.33226763e-15)
(-0.0008178982222 -0.001447600831 6.661338148e-15)
(-0.003496225086 -0.007653652754 3.522182546e-14)
(-0.001947521766 -0.004430715931 1.96925809e-14)
(-0.002626289989 -0.00649066046 2.885192085e-14)
(-0.004334255696 -0.01029617706 4.740652315e-14)
(-0.005708241391 -0.01822980724 8.397449403e-14)
(-0.003920568889 -0.01307537603 5.814793091e-14)
(-0.003987427713 -0.01506077907 6.698808175e-14)
(-0.005685752816 -0.02053109643 9.456324612e-14)
(-0.004238444429 -0.02534303969 1.166844399e-13)
(-0.003059348456 -0.01928957469 8.576472865e-14)
(-0.002451909248 -0.01995525505 8.870681967e-14)
(-0.003399175472 -0.02609289704 1.200844979e-13)
(0 0 0)
(0 0 0)
(0 0 0)
(0 0 0)
(0 0 0)
(0 0 0)
(0 0 0)
(0 0 0)
(0 0 0)
(0 0 0)
(0 0 0)
(0 0 0)
(0 0 0)
(0 0 0)
(0 0 0)
(0 0 0)
(0 0 0)
(0 0 0)
(0 0 0)
(0 0 0)
(0 0 0)
(0 0 0)
(0 0 0)
(0 0 0)
(0 0 0)
(0 0 0)
(0 0 0)
(0 0 0)
(-2.550371719e-05 -7.001196676e-05 2.775557562e-16)
(-0.0004572919799 -0.001712537325 6.911138328e-15)
(-5.145128863e-05 -0.0001990967531 7.771561172e-16)
(-0.000112373236 -0.0004953421324 1.942890293e-15)
(-0.000579218663 -0.002468044001 9.950373858e-15)
(-0.0005955209243 -0.004332003665 1.747213485e-14)
(-0.0001922725074 -0.001454560878 5.689893001e-15)
(-0.0001648180735 -0.0016388336 6.411537967e-15)
(-0.0004880144853 -0.004650711296 1.876276912e-14)
(0 0 0)
(0 0 0)
(0 0 0)
(0 0 0)
(0 0 0)
(0 0 0)
(0 0 0)
(0 0 0)
(0 0 0)
(0 0 0)
(0 0 0)
(0 0 0)
(0 0 0)
(0 0 0)
(0 0 0)
(0 0 0)
(0 0 0)
(0 0 0)
(0 0 0)
(0 0 0)
(0 0 0)
(0 0 0)
(0 0 0)
(0 0 0)
(0 0 0)
(0 0 0)
(0 0 0)
(0 0 0)
(0 0 0)
(0 0 0)
(0 0 0)
(0 0 0)
(0 0 0)
(0 0 0)
(0 0 0)
(0 0 0)
(0 0 0)
(0 0 0)
(0 0 0)
(0 0 0)
(0 0 0)
(0 0 0)
(0 0 0)
(0 0 0)
(0 0 0)
(0 0 0)
(0 0 0)
(0 0 0)
(0 0 0)
(0 0 0)
(0 0 0)
(0 0 0)
(0 0 0)
(0 0 0)
(0 0 0)
(0 0 0)
(0 0 0)
(0 0 0)
(0 0 0)
(0 0 0)
(0 0 0)
(0 0 0)
(0 0 0)
(0 0 0)
(0 0 0)
(0 0 0)
(0 0 0)
(0 0 0)
(0 0 0)
(0 0 0)
(0 0 0)
(0 0 0)
(0 0 0)
(0 0 0)
(0 0 0)
(0 0 0)
(0 0 0)
(0 0 0)
(0 0 0)
(0 0 0)
(0 0 0)
(0 0 0)
(0 0 0)
(0 0 0)
(0 0 0)
(0 0 0)
(0 0 0)
(0 0 0)
(0 0 0)
(0 0 0)
(0 0 0)
(0 0 0)
(0 0 0)
(0 0 0)
(0 0 0)
(0 0 0)
(0 0 0)
(0 0 0)
(0 0 0)
(0 0 0)
(0 0 0)
(0 0 0)
(0 0 0)
(0 0 0)
(0 0 0)
(0 0 0)
(0 0 0)
(0 0 0)
(0 0 0)
(0 0 0)
(0 0 0)
(0 0 0)
(0 0 0)
(0 0 0)
(0 0 0)
(0 0 0)
(0 0 0)
(0 0 0)
(0 0 0)
(0 0 0)
(0 0 0)
(0 0 0)
(0 0 0)
(0 0 0)
(0 0 0)
(0 0 0)
(0 0 0)
(0 0 0)
(0 0 0)
(0 0 0)
(0 0 0)
(0 0 0)
(0 0 0)
(0 0 0)
(0 0 0)
(0 0 0)
(0 0 0)
(0 0 0)
(0 0 0)
(0 0 0)
(0 0 0)
(0 0 0)
(0 0 0)
(0 0 0)
(0 0 0)
(0 0 0)
(0 0 0)
(0 0 0)
(0 0 0)
(0 0 0)
(0 0 0)
(0 0 0)
(0 0 0)
(0 0 0)
(0 0 0)
(0 0 0)
(0 0 0)
(0 0 0)
(0 0 0)
(0 0 0)
(0 0 0)
(0 0 0)
(0 0 0)
(0 0 0)
(0 0 0)
(0 0 0)
(0 0 0)
(0 0 0)
(0 0 0)
(0 0 0)
(0 0 0)
(0 0 0)
(0 0 0)
(0 0 0)
(0 0 0)
(0 0 0)
(0 0 0)
(0 0 0)
(0 0 0)
(0 0 0)
(0 0 0)
(0 0 0)
(0 0 0)
(0 0 0)
(0 0 0)
(0 0 0)
(0 0 0)
(0 0 0)
(0 0 0)
(0 0 0)
(0 0 0)
(0 0 0)
(0 0 0)
(0 0 0)
(0 0 0)
(0 0 0)
(0 0 0)
(0 0 0)
(0 0 0)
(0 0 0)
(0 0 0)
(0 0 0)
(0 0 0)
(0 0 0)
(0 0 0)
(0 0 0)
(0 0 0)
(0 0 0)
(0 0 0)
(0 0 0)
(0 0 0)
(0 0 0)
(0 0 0)
(0 0 0)
(0 0 0)
(0 0 0)
(0 0 0)
(0 0 0)
(0 0 0)
(0 0 0)
(0 0 0)
(0 0 0)
(0 0 0)
(0 0 0)
(0 0 0)
(0 0 0)
(0 0 0)
(0 0 0)
(0 0 0)
(0 0 0)
(0 0 0)
(0 0 0)
(0 0 0)
(0 0 0)
(0 0 0)
(0 0 0)
(0 0 0)
(0 0 0)
(0 0 0)
(0 0 0)
(0 0 0)
(0 0 0)
(0 0 0)
(0 0 0)
(0 0 0)
(0 0 0)
(0 0 0)
(0 0 0)
(0 0 0)
(0 0 0)
(0 0 0)
(0 0 0)
(0 0 0)
(0 0 0)
(0 0 0)
(0 0 0)
(0 0 0)
(0 0 0)
(0 0 0)
(0 0 0)
(0 0 0)
(0 0 0)
(0 0 0)
(0 0 0)
(0 0 0)
(0 0 0)
(0 0 0)
(0 0 0)
(0 0 0)
(0 0 0)
(0 0 0)
(0 0 0)
(0 0 0)
(0 0 0)
(0 0 0)
(0 0 0)
(0 0 0)
(0 0 0)
(0 0 0)
(0 0 0)
(0 0 0)
(0 0 0)
(0 0 0)
(0 0 0)
(0 0 0)
(0 0 0)
(0 0 0)
(0 0 0)
(0 0 0)
(0 0 0)
(0 0 0)
(0 0 0)
(0 0 0)
(0 0 0)
(0 0 0)
(0 0 0)
(0 0 0)
(0 0 0)
(0 0 0)
(0 0 0)
(0 0 0)
(0 0 0)
(0 0 0)
(0 0 0)
(0 0 0)
(0 0 0)
(0 0 0)
(0 0 0)
(0 0 0)
(0 0 0)
(0 0 0)
(0 0 0)
(0 0 0)
(0 0 0)
(0 0 0)
(0 0 0)
(0 0 0)
(0 0 0)
(0 0 0)
(0 0 0)
(0 0 0)
(0 0 0)
(0 0 0)
(0 0 0)
(0 0 0)
(0 0 0)
(0 0 0)
(0 0 0)
(0 0 0)
(0 0 0)
(0 0 0)
(0 0 0)
(0 0 0)
(0 0 0)
(0 0 0)
(0 0 0)
(0 0 0)
(0 0 0)
(0 0 0)
(0 0 0)
(0 0 0)
(0 0 0)
(0 0 0)
(0 0 0)
(0 0 0)
(0 0 0)
(0 0 0)
(0 0 0)
(0 0 0)
(0 0 0)
(0 0 0)
(0 0 0)
(0 0 0)
(0 0 0)
(0 0 0)
(0 0 0)
(0 0 0)
(0 0 0)
(0 0 0)
(0 0 0)
(0 0 0)
(0 0 0)
(0 0 0)
(0 0 0)
(0 0 0)
(0 0 0)
(0 0 0)
(0 0 0)
(0 0 0)
(0 0 0)
(0 0 0)
(0 0 0)
(0 0 0)
(0 0 0)
(0 0 0)
(0 0 0)
(0 0 0)
(0 0 0)
(0 0 0)
(0 0 0)
(0 0 0)
(0 0 0)
(0 0 0)
(0 0 0)
(0 0 0)
(0 0 0)
(0 0 0)
(0 0 0)
(0 0 0)
(0 0 0)
(0 0 0)
(0 0 0)
(0 0 0)
(0 0 0)
(0 0 0)
(0 0 0)
(0 0 0)
(0 0 0)
(0 0 0)
(0 0 0)
(0 0 0)
(0 0 0)
(0 0 0)
(0 0 0)
(0 0 0)
(0 0 0)
(0 0 0)
(0 0 0)
(0 0 0)
(0 0 0)
(0 0 0)
(0 0 0)
(0 0 0)
(0 0 0)
(0 0 0)
(0 0 0)
(0 0 0)
(0 0 0)
(0 0 0)
(0 0 0)
(0 0 0)
(0 0 0)
(0 0 0)
(0 0 0)
(0 0 0)
(0 0 0)
(0 0 0)
(0 0 0)
(0 0 0)
(0 0 0)
(0 0 0)
(0 0 0)
(0 0 0)
(0 0 0)
(0 0 0)
(0 0 0)
(0 0 0)
(0 0 0)
(0 0 0)
(0 0 0)
(0 0 0)
(0 0 0)
(0 0 0)
(0 0 0)
(0 0 0)
(0 0 0)
(0 0 0)
(0 0 0)
(0 0 0)
(0 0 0)
(0 0 0)
(0 0 0)
(0 0 0)
(0 0 0)
(0 0 0)
(0 0 0)
(0 0 0)
(0 0 0)
(0 0 0)
(0 0 0)
(0 0 0)
(0 0 0)
(0 0 0)
(0 0 0)
(0 0 0)
(0 0 0)
(0 0 0)
(0 0 0)
(0 0 0)
(0 0 0)
(0 0 0)
(0 0 0)
(0 0 0)
(0 0 0)
(0 0 0)
(0 0 0)
(0 0 0)
(0 0 0)
(0 0 0)
(0 0 0)
(0 0 0)
(0 0 0)
(0 0 0)
(0 0 0)
(0 0 0)
(0 0 0)
(0 0 0)
(0 0 0)
(0 0 0)
(0 0 0)
(0 0 0)
(0 0 0)
(0 0 0)
(0 0 0)
(0 0 0)
(0 0 0)
(0 0 0)
(0 0 0)
(0 0 0)
(0 0 0)
(0 0 0)
(0 0 0)
(0 0 0)
(0 0 0)
(0 0 0)
(0 0 0)
(0 0 0)
(0 0 0)
(0 0 0)
(0 0 0)
(0 0 0)
(0 0 0)
(0 0 0)
(0 0 0)
(0 0 0)
(0 0 0)
(0 0 0)
(0 0 0)
(0 0 0)
(0 0 0)
(0 0 0)
(0 0 0)
(0 0 0)
(0 0 0)
(0 0 0)
(0 0 0)
(0 0 0)
(0 0 0)
(0 0 0)
(0 0 0)
(0 0 0)
(0 0 0)
(0 0 0)
(0 0 0)
(0 0 0)
(0 0 0)
(0 0 0)
(0 0 0)
(0 0 0)
(0 0 0)
(0 0 0)
(0 0 0)
(0 0 0)
(0 0 0)
(0 0 0)
(0 0 0)
(0 0 0)
(0 0 0)
(0 0 0)
(0 0 0)
(0 0 0)
(0 0 0)
(0 0 0)
(0 0 0)
(0 0 0)
(0 0 0)
(0 0 0)
(0 0 0)
(0 0 0)
(0 0 0)
(0 0 0)
(0 0 0)
(0 0 0)
(0 0 0)
(0 0 0)
(0 0 0)
(0 0 0)
(0 0 0)
(0 0 0)
(0 0 0)
(0 0 0)
(0 0 0)
(0 0 0)
(0 0 0)
(0 0 0)
(0 0 0)
(0 0 0)
(0 0 0)
(0 0 0)
(0 0 0)
(0 0 0)
(0 0 0)
(0 0 0)
(0 0 0)
(0 0 0)
(0 0 0)
(0 0 0)
(0 0 0)
(0 0 0)
(0 0 0)
(0 0 0)
(0 0 0)
(0 0 0)
(0 0 0)
(0 0 0)
(0 0 0)
(0 0 0)
(0 0 0)
(0 0 0)
(0 0 0)
(0 0 0)
(0 0 0)
(0 0 0)
(0 0 0)
(0 0 0)
(0 0 0)
(0 0 0)
(0 0 0)
(0 0 0)
(0 0 0)
(0 0 0)
(0 0 0)
(0 0 0)
(0 0 0)
(0 0 0)
(0 0 0)
(0 0 0)
(0 0 0)
(0 0 0)
(0 0 0)
(0 0 0)
(0 0 0)
(0 0 0)
(0 0 0)
(0 0 0)
(0 0 0)
(0 0 0)
(0 0 0)
(0 0 0)
(-0.01299007864 -0.02239897382 0)
(-0.01370855505 -0.02237677623 0)
(-0.01292800053 -0.03337560456 0)
(-0.01365553668 -0.03335248345 0)
(-0.02236119738 -0.02142151197 0)
(-0.02232017288 -0.0200546223 0)
(-0.02522044037 -0.01996334158 0)
(-0.01368911618 -0.02169310661 0)
(-0.0151284758 -0.02164844425 0)
(-0.01516823038 -0.02301537427 0)
(-0.0135717261 -0.01759327395 0)
(-0.02236451185 -0.03239180601 0)
(-0.0225372633 -0.03105765688 0)
(-0.02544310215 -0.03096168634 0)
(-0.01363382406 -0.03266926745 0)
(-0.01508895986 -0.0326230232 0)
(-0.01513240527 -0.03399009017 0)
(-0.01520796276 -0.02438160584 0)
(-0.01376758116 -0.02442611 0)
(-0.01388935043 -0.02852573992 0)
(-0.01317036605 -0.02854795366 0)
(-0.01314961193 -0.02786489787 0)
(-0.01386859429 -0.02784262064 0)
(-0.008129061876 -0.02870390788 0)
(-0.008096522494 -0.02836521357 0)
(-0.008468660514 -0.0283526243 0)
(-0.00849344153 -0.02869239145 0)
(-0.007937045694 -0.02324206703 0)
(-0.008323920281 -0.02322818314 0)
(-0.008341071698 -0.02356787497 0)
(-0.007959785343 -0.0235811999 0)
(-0.01252627473 -0.0436507755 0)
(-0.01398134703 -0.04360453328 0)
(-0.007921824014 -0.02290129692 0)
(-0.008312062162 -0.0228870519 0)
(-0.01359128793 -0.01827681255 0)
(-0.01287281353 -0.01829907364 0)
(-0.007555111681 -0.02325541254 0)
(-0.0075328327 -0.02291537519 0)
(-0.007857970374 -0.03421745826 0)
(-0.007837395729 -0.03352785008 0)
(-0.008197897156 -0.03351830014 0)
(-0.008560800988 -0.03350994505 0)
(-0.008584074908 -0.03419628944 0)
(-0.008521004259 -0.02903168884 0)
(-0.008162921973 -0.02904256022 0)
(-0.01391035249 -0.02920859714 0)
(-0.01319130058 -0.02923068591 0)
(-0.007849885166 -0.02905104666 0)
(-0.007813499654 -0.02871272882 0)
(-0.00713219306 -0.03424052347 0)
(-0.007116132974 -0.03355077183 0)
(-0.007478754733 -0.0335373409 0)
(-0.007584718144 -0.0235938187 0)
(-0.007775397143 -0.02837478334 0)
(-0.004272213518 -0.02626551747 0)
(-0.00390067984 -0.02627872313 0)
(-0.003877512697 -0.02594093861 0)
(-0.004246110846 -0.02592776268 0)
(-0.008148256189 -0.02596068216 0)
(-0.008484470134 -0.02595209475 0)
(-0.008497215178 -0.02629313425 0)
(-0.008167019219 -0.02630108548 0)
(-0.01094197378 -0.02588066904 0)
(-0.01096189439 -0.02656349707 0)
(-0.01025076332 -0.02658482563 0)
(-0.01023116221 -0.025902051 0)
(-0.01102341701 -0.0286133871 0)
(-0.01031215895 -0.02863471969 0)
(-0.01030118372 -0.02829336971 0)
(-0.01029097246 -0.02795205901 0)
(-0.01100253791 -0.02793039885 0)
(-0.01086192544 -0.02314784309 0)
(-0.01088169686 -0.0238299767 0)
(-0.01016898041 -0.02385141921 0)
(-0.01014864358 -0.02316949424 0)
(-0.01021073767 -0.0252193661 0)
(-0.01092199169 -0.02519790652 0)
(-0.0081237453 -0.0256214149 0)
(-0.008466481163 -0.02561204819 0)
(-0.007951511337 -0.02049784749 0)
(-0.008300898127 -0.02048776094 0)
(-0.008314423283 -0.02082934768 0)
(-0.007968965167 -0.02083905515 0)
(-0.01078335257 -0.02041344481 0)
(-0.01080317847 -0.02109729281 0)
(-0.01009052956 -0.02111886029 0)
(-0.01007057868 -0.02043507981 0)
(-0.01012909789 -0.02248646361 0)
(-0.01084237975 -0.02246481246 0)
(-0.0107238528 -0.01836520661 0)
(-0.01000994204 -0.01838706843 0)
(-0.01005038794 -0.01975175188 0)
(-0.01076348133 -0.01973017028 0)
(-0.007931640034 -0.02015697091 0)
(-0.008285664636 -0.02014641916 0)
(-0.007605007557 -0.02050765175 0)
(-0.007578900365 -0.0201673547 0)
(-0.007628682561 -0.02084821677 0)
(-0.01104466498 -0.02929598227 0)
(-0.0103340973 -0.02931703868 0)
(-0.01032287414 -0.02897588726 0)
(-0.01095851188 -0.03142906208 0)
(-0.01024400355 -0.03142412056 0)
(-0.0103228878 -0.03104031693 0)
(-0.01035786814 -0.03068701907 0)
(-0.01106938556 -0.03067584784 0)
(-0.008094313797 -0.03148951398 0)
(-0.008215989475 -0.03110199872 0)
(-0.008554989304 -0.03109707282 0)
(-0.008441971835 -0.03149282997 0)
(-0.00791607528 -0.03140460534 0)
(-0.00799682152 -0.03109339167 0)
(-0.00453141289 -0.03171276547 0)
(-0.004515074517 -0.03137285713 0)
(-0.004858389405 -0.03136951022 0)
(-0.00487494396 -0.03170922101 0)
(-0.004368792294 -0.02900169524 0)
(-0.004722903665 -0.02899387382 0)
(-0.004738332864 -0.02933457377 0)
(-0.004385471232 -0.02934171988 0)
(-0.007815954185 -0.02596876388 0)
(-0.00778404282 -0.02563043097 0)
(-0.004605979404 -0.02589369867 0)
(-0.004707034243 -0.02617212168 0)
(-0.004352907055 -0.02866164538 0)
(-0.004709580809 -0.02865285268 0)
(-0.004624111456 -0.02660664744 0)
(-0.004278742448 -0.02661075879 0)
(-0.007844858695 -0.02630808219 0)
(-0.003913481384 -0.02662154052 0)
(-0.004018325642 -0.02900800252 0)
(-0.004000176451 -0.02866891444 0)
(-0.02266860959 -0.04196063983 0)
(-0.02550903459 -0.04176351431 3.58602037e-13)
(-0.01393792179 -0.04223810127 0)
(-0.01539305759 -0.04219185702 0)
(-0.01684819339 -0.04214561277 0)
(-0.01693506404 -0.04487911175 0)
(-0.01517585069 -0.03535715714 0)
(-0.01385103096 -0.03950396733 0)
(-0.01239595866 -0.03955020956 0)
(-0.01235251324 -0.03818314259 0)
(-0.01380758555 -0.03813690036 0)
(-0.008030595716 -0.03968894088 0)
(-0.007987150299 -0.03832187391 0)
(-0.009442241649 -0.03827563108 0)
(-0.009485687066 -0.03964269805 0)
(-0.008606081868 -0.03488076729 0)
(-0.007878982709 -0.03490323892 0)
(-0.008097176213 -0.02733558371 0)
(-0.008462845426 -0.02732364493 0)
(-0.008448455654 -0.0276688519 0)
(-0.008067857369 -0.02768202784 0)
(-0.009557254898 -0.02728867389 0)
(-0.009565103761 -0.02763164867 0)
(-0.009200446743 -0.02764323748 0)
(-0.009196590051 -0.02729988159 0)
(-0.009597416688 -0.02865641726 0)
(-0.009234091066 -0.02866790019 0)
(-0.009219570155 -0.02832698069 0)
(-0.009585175576 -0.02831523462 0)
(-0.00715189103 -0.03492634591 0)
(-0.006575478967 -0.03973518452 0)
(-0.006532033551 -0.03836811755 0)
(-0.007869653883 -0.01913689538 0)
(-0.007498826488 -0.01914912521 0)
(-0.00747339289 -0.01880982371 0)
(-0.007849827566 -0.01879703433 0)
(-0.007963700219 -0.02186838664 0)
(-0.007938342686 -0.0222138786 0)
(-0.007564583502 -0.02222645583 0)
(-0.007616764667 -0.02187820462 0)
(-0.008159839108 -0.03187775379 0)
(-0.007689884155 -0.03196260501 0)
(-0.01070126838 -0.03207855809 0)
(-0.009972462314 -0.03210171956 0)
(-0.01002543851 -0.03178668498 0)
(-0.01076699788 -0.0341288229 0)
(-0.01003925106 -0.03415131511 0)
(-0.01001715747 -0.03346811122 0)
(-0.0107450746 -0.03344497799 0)
(-0.009610411679 -0.02899732169 0)
(-0.009249998798 -0.02900845782 0)
(-0.009649127603 -0.03002156899 0)
(-0.009297461014 -0.03003191868 0)
(-0.009283046916 -0.02969036018 0)
(-0.009637124332 -0.02967987032 0)
(-0.008265495061 -0.03005975689 0)
(-0.008233754893 -0.0297202109 0)
(-0.008578247278 -0.02971091549 0)
(-0.008603111969 -0.03005131558 0)
(-0.00403732366 -0.02934700005 0)
(-0.004481112317 -0.031039992 0)
(-0.007963789126 -0.03006718407 0)
(-0.007927938459 -0.02972789583 0)
(-0.005858051047 -0.03033317452 0)
(-0.005833273073 -0.02999690307 0)
(-0.006171448391 -0.02997503284 0)
(-0.006279619424 -0.03024477622 0)
(-0.004947050423 -0.03431314535 0)
(-0.004925965283 -0.03362927381 0)
(-0.005655346905 -0.03360482284 0)
(-0.005675296597 -0.03428936608 0)
(-0.004922247349 -0.03203848416 0)
(-0.00457790407 -0.03204307139 0)
(-0.008042292782 -0.02460100461 0)
(-0.007685916518 -0.02461175822 0)
(-0.007652173081 -0.02427157673 0)
(-0.008014237152 -0.02426019745 0)
(-0.007704996728 -0.02771574201 0)
(-0.007672766746 -0.02742998338 0)
(-0.004220116333 -0.02484241126 0)
(-0.004120981574 -0.02456640606 0)
(-0.00414434157 -0.02527365897 0)
(-0.009524465764 -0.02592292083 0)
(-0.009534423041 -0.0262642396 0)
(-0.009183768351 -0.02627443002 0)
(-0.009173872552 -0.02593304573 0)
(-0.009193851128 -0.02695769782 0)
(-0.009549323436 -0.02694710006 0)
(-0.008144060931 -0.02698807285 0)
(-0.008484749912 -0.02697889831 0)
(-0.00840392508 -0.02458963905 0)
(-0.008425325747 -0.02493103907 0)
(-0.008070016215 -0.02494175878 0)
(-0.009479836122 -0.02455659066 0)
(-0.009491161118 -0.02489894649 0)
(-0.009136833754 -0.02490957142 0)
(-0.009123732891 -0.02456733558 0)
(-0.009162217028 -0.02559228941 0)
(-0.009513883617 -0.02558193972 0)
(-0.007890111419 -0.01947641858 0)
(-0.007525151638 -0.01948808057 0)
(-0.007647274329 -0.02153223112 0)
(-0.007980459519 -0.02152373997 0)
(-0.008618412992 -0.03039278233 0)
(-0.008286988414 -0.03040007345 0)
(-0.009656817189 -0.03036353187 0)
(-0.009306295544 -0.03037390873 0)
(-0.009525984654 -0.03144471461 0)
(-0.00916453983 -0.03145937934 0)
(-0.009256578765 -0.03107350509 0)
(-0.009611746642 -0.03106132801 0)
(-0.005986569216 -0.03166556717 0)
(-0.005931993906 -0.03134168349 0)
(-0.006339272871 -0.03131285015 0)
(-0.006497913904 -0.03159649824 0)
(-0.006213981378 -0.03067118903 0)
(-0.005871247208 -0.030674009 0)
(-0.007997482411 -0.03040558747 0)
(-0.005768006408 -0.02895640191 0)
(-0.005873400788 -0.02923017425 0)
(-0.005452495083 -0.02931842437 0)
(-0.00543074858 -0.02897894214 0)
(-0.005499494909 -0.03034253552 0)
(-0.005480424732 -0.0300036674 0)
(-0.004442802542 -0.0303623247 0)
(-0.004422227269 -0.03002229676 0)
(-0.004771736802 -0.03001767247 0)
(-0.004789746248 -0.0303581633 0)
(-0.007719069443 -0.02495195847 0)
(-0.004394879504 -0.02531616354 0)
(-0.004312428555 -0.0276371363 0)
(-0.004671782428 -0.02762787707 0)
(-0.00468328088 -0.02797029094 0)
(-0.004324536568 -0.0279795308 0)
(-0.005403491951 -0.02864287658 0)
(-0.005662087084 -0.02868131149 0)
(-0.004303087537 -0.02729420894 0)
(-0.004665910654 -0.02728331401 0)
(-0.00783489315 -0.02699370325 0)
(-0.009435244821 -0.02319146691 0)
(-0.009445112369 -0.02353196225 0)
(-0.009085082481 -0.02354314977 0)
(-0.009073695066 -0.02320282984 0)
(-0.009110564496 -0.02422497478 0)
(-0.009467872132 -0.02421412802 0)
(-0.008382329891 -0.02424811809 0)
(-0.008322241989 -0.02185737353 0)
(-0.008313653484 -0.02220112493 0)
(-0.009398402979 -0.02182419008 0)
(-0.009406668064 -0.02216626179 0)
(-0.009048096563 -0.0221773394 0)
(-0.009041668825 -0.02183508217 0)
(-0.009063356814 -0.02286152318 0)
(-0.009424400619 -0.02285023988 0)
(-0.007226185534 -0.02326612006 0)
(-0.007192331142 -0.02292924722 0)
(-0.007159793138 -0.02260739627 0)
(-0.007531336871 -0.02257270699 0)
(-0.00792106907 -0.02255854161 0)
(-0.008198409879 -0.02938103371 0)
(-0.007888709513 -0.02938890564 0)
(-0.007986281932 -0.02392014981 0)
(-0.007617903462 -0.02393223824 0)
(-0.007296994588 -0.02394141977 0)
(-0.007260092149 -0.02360343616 0)
(-0.008071469038 -0.02802507372 0)
(-0.007738382376 -0.02803826518 0)
(-0.004020702568 -0.02428719567 0)
(-0.003852735182 -0.02381348166 0)
(-0.009360019075 -0.02045639021 0)
(-0.009370438984 -0.02079826632 0)
(-0.009016490578 -0.02080881565 0)
(-0.009005816685 -0.02046694761 0)
(-0.009034669623 -0.02149284311 0)
(-0.00938956845 -0.02148220002 0)
(-0.00832709029 -0.02151393168 0)
(-0.008238135964 -0.01912486722 0)
(-0.008253835047 -0.01946485943 0)
(-0.009317846671 -0.01909138027 0)
(-0.009328224205 -0.01943192297 0)
(-0.008972059496 -0.01944273341 0)
(-0.008960922029 -0.01910227842 0)
(-0.008994700338 -0.02012515719 0)
(-0.009349472173 -0.02011451814 0)
(-0.007260955016 -0.02051718743 0)
(-0.007228912381 -0.02017752393 0)
(-0.007196484144 -0.01983812692 0)
(-0.007552015912 -0.01982740016 0)
(-0.007910913259 -0.01981637575 0)
(-0.007980525986 -0.02118083144 0)
(-0.00764585066 -0.02118943351 0)
(-0.007318738585 -0.02119722318 0)
(-0.007291807963 -0.02085701586 0)
(-0.008277751901 -0.03074543445 0)
(-0.008609452659 -0.03073883371 0)
(-0.008951049631 -0.03072963031 0)
(-0.008903200881 -0.03108600665 0)
(-0.008801828184 -0.0314761818 0)
(-0.006871856391 -0.03158308889 0)
(-0.006750358534 -0.03123539952 0)
(-0.007075951422 -0.03161880662 0)
(-0.008017188518 -0.03074926595 0)
(-0.004807823575 -0.0306971901 0)
(-0.004462172872 -0.03070143752 0)
(-0.005514522953 -0.03068261262 0)
(-0.005616894488 -0.03167966717 0)
(-0.005566158716 -0.03135419958 0)
(-0.007511814338 -0.02597620485 0)
(-0.007475926947 -0.02563876102 0)
(-0.007441247456 -0.0253003254 0)
(-0.007751778785 -0.02529160078 0)
(-0.008097277015 -0.0252819556 0)
(-0.004190657624 -0.02560225433 0)
(-0.004499586571 -0.02560050869 0)
(-0.004885517197 -0.02664372183 0)
(-0.004989674483 -0.02691956741 0)
(-0.00464817911 -0.02694376775 0)
(-0.004289671455 -0.02695325433 0)
(-0.008170837572 -0.02664323495 0)
(-0.007860323381 -0.02664909882 0)
(-0.007584863964 -0.02665060708 0)
(-0.007548802766 -0.02631469421 0)
(-0.00395221025 -0.02764699504 0)
(-0.00393947013 -0.02730551047 0)
(-0.00707268374 -0.01848238492 0)
(-0.00710234326 -0.0188220606 0)
(-0.006777733409 -0.01883218603 0)
(-0.006745466225 -0.01849265678 0)
(-0.007132675002 -0.01916088863 0)
(-0.006809896443 -0.01917063806 0)
(-0.007302446184 -0.02188476142 0)
(-0.007130925238 -0.02232222995 0)
(-0.007083423105 -0.02185371308 0)
(-0.009294109823 -0.03181246902 0)
(-0.008922505654 -0.03182745661 0)
(-0.009264145221 -0.03280559353 0)
(-0.008897693097 -0.03281469698 0)
(-0.008881482952 -0.03247262352 0)
(-0.009249923628 -0.03246409247 0)
(-0.007813594895 -0.03282372563 0)
(-0.007788089481 -0.03246796437 0)
(-0.008143168256 -0.03247638357 0)
(-0.008167680009 -0.032823278 0)
(-0.008549834888 -0.02937088238 0)
(-0.008907775465 -0.02935995194 0)
(-0.008929348458 -0.02970077445 0)
(-0.00894800871 -0.03004194376 0)
(-0.005801175689 -0.02966251679 0)
(-0.006059853905 -0.02970196603 0)
(-0.007476330977 -0.03282427428 0)
(-0.007489759796 -0.03244502967 0)
(-0.006378230492 -0.03288650275 0)
(-0.00638057525 -0.03253748361 0)
(-0.006761529941 -0.03251012245 0)
(-0.006751137725 -0.03286511774 0)
(-0.006518239021 -0.03195725469 0)
(-0.00612624728 -0.03196272059 0)
(-0.007370749988 -0.02462063014 0)
(-0.00733453656 -0.02428052714 0)
(-0.006913453771 -0.02018640513 0)
(-0.00687855121 -0.01984715032 0)
(-0.006948178246 -0.02052585628 0)
(-0.007164190378 -0.01949936124 0)
(-0.006843732029 -0.01950871914 0)
(-0.007331751441 -0.02153888976 0)
(-0.00705165623 -0.02154092671 0)
(-0.007017506555 -0.02120476241 0)
(-0.006982845576 -0.02086530925 0)
(-0.008959192589 -0.03038385915 0)
(-0.005909879316 -0.03100481892 0)
(-0.006263158002 -0.030997596 0)
(-0.00659732864 -0.03097871324 0)
(-0.006472943307 -0.03071056568 0)
(-0.005464401578 -0.02966247784 0)
(-0.005108831872 -0.02966901084 0)
(-0.005095389315 -0.02932602315 0)
(-0.005078658154 -0.02898555525 0)
(-0.007406195116 -0.02496075754 0)
(-0.00505785732 -0.02830122975 0)
(-0.005037690386 -0.02796265072 0)
(-0.005376745445 -0.0279398627 0)
(-0.005481403917 -0.02821187874 0)
(-0.005011539473 -0.02762597799 0)
(-0.005270774193 -0.02766413833 0)
(-0.005065917738 -0.02864426137 0)
(-0.005091850804 -0.0271926793 0)
(-0.007617939795 -0.02696138148 0)
(-0.01075454683 -0.003899642977 6.868117186e-14)
(-0.006939364666 -0.002410147054 4.220235272e-14)
(-0.02273674388 -0.009512419516 1.7069679e-13)
(-0.01893469145 -0.007529549439 1.343092304e-13)
(-0.01878100125 -0.008479191409 1.331434962e-13)
(-0.02601942394 -0.01150096371 2.074451722e-13)
(-0.03108848831 -0.01676466468 3.047839758e-13)
(-0.03030731813 -0.01519510482 2.759181772e-13)
(-0.03049812094 -0.01736861776 2.771810559e-13)
(-0.03090948492 -0.01807018644 3.284039707e-13)
(-0.02786285073 -0.01970246163 3.56312202e-13)
(-0.0279787079 -0.0224367067 3.567285356e-13)
(-0.0251388006 -0.01723043909 0)
(-0.02223935855 -0.01732169358 0)
(-0.01934353578 -0.01741283304 0)
(-0.0207908757 -0.01736728147 0)
(-0.01212743921 -0.006757463608 7.746581154e-14)
(-0.008123475422 -0.004329735059 4.943268017e-14)
(-0.0242692071 -0.01566951316 1.818267759e-13)
(-0.02047840561 -0.01255084711 1.450783937e-13)
(-0.02066425634 -0.01380446053 1.46826995e-13)
(-0.01958471095 -0.009878415014 1.387084891e-13)
(-0.02748439212 -0.01876761434 2.184780135e-13)
(-0.03209818231 -0.02675498078 3.128608483e-13)
(-0.03150161372 -0.02441986567 2.854105841e-13)
(-0.03154449974 -0.02668485007 2.867012183e-13)
(-0.03070112885 -0.01956733177 2.785272013e-13)
(-0.03171500106 -0.02863702482 3.347322419e-13)
(-0.02824163045 -0.03075950671 3.582134589e-13)
(-0.02813199278 -0.03346810962 3.583522368e-13)
(-0.02809731585 -0.02517805735 3.57158747e-13)
(-0.02547302589 -0.02817127588 0)
(-0.02256964481 -0.02825458343 0)
(-0.02252700466 -0.02688685527 0)
(-0.01966987317 -0.02834546703 0)
(-0.0196275606 -0.02697804626 0)
(-0.0210768054 -0.02693243415 0)
(-0.02111930847 -0.02829984887 0)
(-0.01950398828 -0.02287968128 0)
(-0.02095240763 -0.0228340954 0)
(-0.02099347343 -0.02420028459 0)
(-0.0195447366 -0.02424588056 0)
(-0.01380746071 -0.02579297249 0)
(-0.01308866682 -0.02581518017 0)
(-0.01306880769 -0.02513228662 0)
(-0.01378747257 -0.02511001948 0)
(-0.01163571802 -0.02517624124 0)
(-0.01165557513 -0.02585907129 0)
(-0.0115763482 -0.02312609212 0)