/*--------------------------------*- C++ -*----------------------------------*\
| =========                 |                                                 |
| \\      /  F ield         | OpenFOAM: The Open Source CFD Toolbox           |
|  \\    /   O peration     | Version:  v2012                                 |
|   \\  /    A nd           | Website:  www.openfoam.com                      |
|    \\/     M anipulation  |                                                 |
\*---------------------------------------------------------------------------*/
FoamFile
{
    version     2.0;
    format      ascii;
    class       surfaceVectorField;
    location    "0.21";
    object      Uf;
}
// * * * * * * * * * * * * * * * * * * * * * * * * * * * * * * * * * * * * * //

dimensions      [0 1 -1 0 0 0 0];


internalField   nonuniform List<vector> 
6430
(
(101.7435132 -0.4915045999 6.411612053e-20)
(102.0219988 -0.2533284191 3.825672641e-21)
(101.6404615 -0.997265239 -5.822569614e-20)
(101.9588302 -0.7662419251 6.034113441e-20)
(101.4602395 -1.530818408 -1.129692825e-19)
(101.8362917 -1.296835395 -1.215544456e-19)
(101.0813739 -2.076801999 -1.645681066e-21)
(101.6325516 -1.882594643 -1.819165636e-22)
(101.2839316 -2.138101334 3.448499415e-19)
(100.8102875 -2.162719115 -9.579668527e-22)
(101.0913083 -2.274005829 2.436133759e-19)
(100.8415724 -2.37252027 -9.613375264e-22)
(100.3260814 -2.816660035 0)
(100.6181836 -2.714548708 0)
(100.6804994 -2.963189398 0)
(100.3700666 -3.086712218 0)
(99.72826841 -3.620753047 -5.41475956e-22)
(100.0895329 -3.494404253 0)
(100.1574544 -3.807390217 -1.303141979e-19)
(99.66159074 -3.910353698 0)
(99.81889668 -3.970467677 -7.420445251e-19)
(98.91697009 -4.438746515 5.721758027e-19)
(99.17068749 -4.372512616 0)
(99.17179315 -4.543314711 0)
(98.90081889 -4.622997547 0)
(97.58930799 -5.541092176 -9.160887811e-19)
(97.93476233 -5.456552384 1.57351396e-20)
(97.92304675 -5.665272583 3.031293321e-19)
(97.56468003 -5.771991603 -6.022866732e-19)
(95.88710379 -7.007392227 1.945413507e-20)
(96.33034123 -6.877619525 1.937849819e-20)
(96.33437324 -7.146710104 -5.423873609e-19)
(95.88053995 -7.310958223 3.302651622e-19)
(93.87535393 -9.087409025 -6.361005318e-20)
(94.42624257 -8.86557102 1.280380474e-18)
(94.47399165 -9.241271093 -1.508950428e-19)
(93.80458569 -9.446958775 -1.208301402e-18)
(94.01865441 -9.500370161 1.223079081e-18)
(91.8791607 -11.64380636 -2.26464591e-20)
(92.06629262 -11.58662293 9.367555436e-20)
(92.06578107 -11.71516514 -1.605061227e-18)
(91.91087465 -11.77710096 5.387088943e-19)
(102.2321953 -0.5271416632 0)
(102.5171951 -0.2672506357 0)
(102.1496215 -1.069602682 0)
(102.4683897 -0.8095008763 0)
(102.005283 -1.643540286 0)
(102.375448 -1.368469892 0)
(101.6834438 -2.243318773 0)
(102.2191048 -1.978286641 0)
(101.8996397 -2.292545773 0)
(101.4160109 -2.366644874 2.438119886e-19)
(101.7268463 -2.434917792 0)
(101.4831567 -2.574224407 0)
(101.0330726 -3.082761731 0)
(101.307927 -2.942780842 0)
(101.4066796 -3.169720455 0)
(101.1197678 -3.34046773 0)
(100.5730832 -3.953995035 -2.452167041e-19)
(100.9082243 -3.77481675 -1.240163276e-19)
(101.0209961 -4.04605908 -1.198962519e-19)
(100.5715734 -4.225690501 -7.316138469e-19)
(100.7347969 -4.259028446 5.581042738e-19)
(99.94347315 -4.802621974 8.100596085e-19)
(100.1784886 -4.707685362 1.018458842e-18)
(100.2141169 -4.8588627 6.681731214e-20)
(99.9660285 -4.968421283 1.053190686e-18)
(98.91163517 -5.949222924 -2.63016117e-19)
(99.21906481 -5.825935942 1.32866444e-19)
(99.25429866 -6.000619211 -2.679069454e-19)
(98.93871432 -6.145613491 -8.157825784e-19)
(97.64515989 -7.4322006 -2.653821583e-19)
(98.02731974 -7.249137897 -1.323604117e-19)
(98.09047675 -7.463226592 -2.993260964e-19)
(97.70531952 -7.679051611 5.151275852e-19)
(96.25053976 -9.492430412 1.360604054e-19)
(96.71299745 -9.21109372 -4.032348121e-19)
(96.84596676 -9.476642972 1.284764577e-19)
(96.27944453 -9.827586059 -5.480755972e-19)
(96.49829136 -9.807797125 8.563811998e-20)
(95.25215027 -12.10776793 3.103540618e-19)
(95.48138479 -11.9720516 4.570076137e-19)
(95.62318514 -12.12159241 5.771631258e-19)
(95.22817308 -12.25767146 3.103570708e-19)
(95.31591408 -12.38640673 1.961035281e-18)
(95.43874055 -12.3459671 2.993258728e-19)
(102.7480877 -0.5485082419 0)
(103.0324631 -0.2741182807 0)
(102.6874469 -1.111801811 0)
(102.9975182 -0.8308228833 0)
(102.5805173 -1.704946336 0)
(102.9326473 -1.40307525 0)
(102.3171265 -2.329325455 0)
(102.8198628 -2.016553004 0)
(102.5368431 -2.359593582 0)
(102.0571185 -2.48320151 0)
(102.3845636 -2.512221313 0)
(102.1580231 -2.67791328 0)
(101.7829383 -3.226987326 0)
(102.0339701 -3.054555644 0)
(102.1589104 -3.257066066 0)
(101.9054701 -3.454760024 0)
(101.464717 -4.095110404 2.963142698e-20)
(101.7622919 -3.884676037 2.608721904e-20)
(101.901516 -4.107873372 7.137930262e-21)
(101.5103372 -4.336341148 2.626334806e-20)
(101.6700462 -4.353290343 -4.299637975e-20)
(101.0189352 -4.945814688 4.091751229e-19)
(101.2240733 -4.826909562 -5.516589146e-20)
(101.283142 -4.951188372 2.525164862e-19)
(101.0706269 -5.082182278 4.819208688e-19)
(100.2644388 -6.046911164 6.188883855e-21)
(100.5285377 -5.906694369 -9.007260964e-19)
(100.5889816 -6.031709801 -4.88460262e-19)
(100.3271115 -6.205911541 -9.005244364e-19)
(99.36449939 -7.409696467 -4.28126952e-20)
(99.6787925 -7.2008209 -3.040855504e-19)
(99.76451346 -7.350304585 -4.596897337e-19)
(99.46009666 -7.57704501 -2.509531542e-19)
(98.49293487 -9.17950764 8.191182101e-19)
(98.8411919 -8.8662399 -1.141000244e-20)
(98.98834127 -9.019873856 -1.977066415e-20)
(98.67635083 -9.35875632 -7.811549761e-19)
(98.35007683 -11.58955542 -4.742960602e-19)
(98.4903236 -10.98900936 -3.417324289e-19)
(98.52938114 -11.49243827 -3.127737995e-19)
(93.60857503 -10.76998112 0)
(98.34919596 -11.84102117 1.171877855e-20)
(103.2768632 -0.5558426384 0)
(103.5546514 -0.274619119 0)
(103.2366701 -1.124877643 0)
(103.532071 -0.8320981059 0)
(103.164577 -1.719989933 0)
(103.4917276 -1.403801203 0)
(102.9557527 -2.35291172 0)
(103.4172871 -2.005531749 0)
(103.1713486 -2.358922928 0)
(102.7109589 -2.523983685 0)
(103.037831 -2.520113204 0)
(102.8341161 -2.700889499 0)
(102.5295587 -3.262338948 0)
(102.7535759 -3.070461676 0)
(102.8933317 -3.245599944 0)
(102.6725138 -3.457680768 0)
(102.3268401 -4.088687458 -1.959968268e-20)
(102.5832307 -3.867386618 -7.636901206e-22)
(102.7352658 -4.042778955 -7.637130939e-22)
(102.4057703 -4.313756539 1.8451488e-19)
(102.5501483 -4.290527276 -6.039475575e-20)
(102.0430988 -4.907714714 -1.738506803e-19)
(102.2131978 -4.777031955 -2.012336083e-19)
(102.2822148 -4.874706989 -5.593285792e-19)
(102.1077321 -5.014811303 -8.328670701e-19)
(101.5017855 -5.920792803 -1.853048155e-19)
(101.7179873 -5.763851724 -1.779406479e-19)
(101.7859994 -5.861411207 -5.285443574e-19)
(101.5722455 -6.028398466 -1.854190124e-19)
(100.8643457 -7.083008138 8.469012789e-20)
(101.1125694 -6.879505959 8.466281318e-20)
(101.194769 -6.972100096 8.111981719e-22)
(100.9588577 -7.185322445 8.526118113e-20)
(100.2825625 -8.447171689 -2.691221026e-19)
(100.5372044 -8.171571239 0)
(100.6421689 -8.230932841 0)
(100.4155403 -8.511818433 1.386184658e-19)
(98.58949879 -10.06015817 8.550493979e-21)
(99.3904601 -9.531178211 5.28051926e-19)
(98.21696914 -9.501967724 2.178936658e-19)
(94.16205947 -9.030447953 4.491469961e-19)
(103.805565 -0.5509042368 0)
(104.0721703 -0.2697771182 0)
(103.78261 -1.112963708 0)
(104.0600402 -0.8166005208 0)
(103.7397872 -1.69652158 0)
(104.0399212 -1.376151095 0)
(103.5789359 -2.322954999 0)
(103.9971014 -1.953936219 0)
(103.7846264 -2.304524999 0)
(103.3541063 -2.501289992 0)
(103.6685696 -2.470089882 0)
(103.4891138 -2.657722719 0)
(103.2464049 -3.209439895 0)
(103.442857 -3.009131719 0)
(103.5880137 -3.15640991 0)
(103.3976903 -3.372758043 0)
(103.1267885 -3.974047846 0)
(103.3464685 -3.752313058 0)
(103.4994669 -3.885532578 0)
(103.2168844 -4.172521064 0)
(103.3453141 -4.12559389 0)
(102.9500502 -4.729573407 9.520244349e-21)
(103.0856511 -4.593369415 4.92784768e-20)
(103.1556413 -4.667366151 3.026126462e-20)
(103.0164396 -4.809931591 -2.851734022e-20)
(102.5636462 -5.630975188 -2.969985219e-19)
(102.7366603 -5.474549936 -1.140805344e-21)
(102.7958974 -5.538469248 -1.169247189e-20)
(102.6249438 -5.701670709 -2.955283425e-19)
(102.0634274 -6.586419197 2.501272378e-19)
(102.2558532 -6.398268631 5.396993327e-19)
(102.3089323 -6.442910006 6.14491181e-19)
(102.1247848 -6.634100913 2.2120448e-19)
(101.5503387 -7.571527288 -6.789085387e-20)
(101.7384131 -7.344740096 2.437967386e-19)
(101.812544 -7.358464627 2.221683063e-19)
(101.668131 -7.592918224 2.894313047e-20)
(95.84509887 -7.83979306 1.464482199e-20)
(97.77792643 -7.859668077 -3.607782916e-19)
(94.85818976 -7.346373015 1.456434183e-19)
(92.79121135 -7.349408191 2.182762508e-19)
(104.3233296 -0.5360016352 0)
(104.5756896 -0.2606928952 0)
(104.3140134 -1.080885484 0)
(104.5718756 -0.7878889913 0)
(104.2940867 -1.642129835 0)
(104.5671536 -1.32624448 0)
(104.172308 -2.247730645 0)
(104.5483837 -1.871411872 0)
(104.3645155 -2.210220654 0)
(103.9687387 -2.426780566 0)
(104.2641774 -2.374738657 0)
(104.1074064 -2.562245375 0)
(103.915367 -3.089157324 0)
(104.085963 -2.888758842 0)
(104.2287175 -3.010264527 0)
(104.0654502 -3.222305615 0)
(103.8516932 -3.780926155 0)
(104.0389078 -3.565391897 0)
(104.1829004 -3.663879166 0)
(103.9401839 -3.948647927 0)
(104.0524993 -3.88732849 0)
(103.7250645 -4.44851952 0)
(103.8384577 -4.316495105 0)
(103.9003531 -4.368347206 0)
(103.784743 -4.503119481 0)
(103.412179 -5.223883617 1.106168007e-19)
(103.5526565 -5.07293427 -1.494426022e-20)
(103.5935365 -5.109745957 1.434526692e-20)
(103.4517831 -5.263571572 1.023024687e-19)
(102.9297656 -5.992745463 -4.913281634e-19)
(103.0877116 -5.82479703 5.898156991e-20)
(103.1041544 -5.838922322 -3.68669647e-19)
(102.9496366 -6.00700713 -2.145704773e-19)
(102.4881959 -6.746491069 -3.687213189e-19)
(102.6130048 -6.553904796 -3.738535821e-21)
(102.6540304 -6.546700272 3.578473943e-19)
(102.4338025 -6.736793038 3.752705427e-19)
(93.00233697 -6.35364895 -3.069687662e-19)
(94.88082114 -6.39976103 2.445807186e-21)
(92.99057809 -6.183420846 3.073200594e-20)
(93.482456 -6.595408826 5.478667144e-20)
(104.8217995 -0.5134610405 0)
(105.0580343 -0.2484449982 0)
(104.8225769 -1.033465993 0)
(105.060341 -0.7494259574 0)
(104.819239 -1.564726694 0)
(105.0662193 -1.260073081 0)
(104.7268579 -2.138869139 0)
(105.0640467 -1.767564556 0)
(104.9037118 -2.088441557 0)
(104.5436503 -2.313811832 0)
(104.8167289 -2.247650514 0)
(104.6797435 -2.429580012 0)
(104.5262367 -2.922177197 0)
(104.6740787 -2.728000155 0)
(104.8089344 -2.827056231 0)
(104.6678504 -3.028918434 0)
(104.4932438 -3.537862347 0)
(104.6538912 -3.334150385 0)
(104.7836638 -3.406177746 0)
(104.5715738 -3.677300796 0)
(104.6678986 -3.609336138 0)
(104.3837896 -4.115049598 0)
(104.481354 -3.993057227 0)
(104.531826 -4.027902911 0)
(104.4312621 -4.150630354 0)
(104.0798018 -4.75734597 0)
(104.2026712 -4.620743048 0)
(104.2249891 -4.639796034 0)
(104.0991511 -4.775280238 0)
(103.5619192 -5.375280904 1.420289172e-20)
(103.7066464 -5.22547894 2.622937256e-21)
(103.6983843 -5.223167099 2.6215471e-21)
(103.5577113 -5.370743416 -5.285648193e-21)
(102.9042292 -5.938500181 7.063905874e-20)
(103.0763258 -5.779946049 3.28987765e-21)
(102.9374953 -5.736998689 6.604828157e-20)
(102.2869425 -5.853779885 7.076141822e-20)
(94.16603489 -5.832296895 -2.785502332e-19)
(94.60191676 -5.660385122 -8.524396236e-20)
(94.64427928 -5.699902532 -8.447685806e-20)
(96.01583977 -6.04894979 1.00717327e-20)
(105.2949353 -0.4855251379 0)
(105.5141361 -0.2340566483 0)
(105.3024397 -0.9754241114 0)
(105.5205265 -0.7044686035 0)
(105.3098119 -1.471972289 0)
(105.5326761 -1.183188304 0)
(105.2377866 -2.008102367 0)
(105.5404677 -1.650893824 0)
(105.3986657 -1.950152599 0)
(105.0731124 -2.175552194 0)
(105.3225311 -2.101107446 0)
(105.2021201 -2.273625742 0)
(105.075657 -2.726906626 0)
(105.2045865 -2.543204418 0)
(105.3278697 -2.623499947 0)
(105.2041236 -2.811672892 0)
(105.0541073 -3.271420356 0)
(105.1936541 -3.080146147 0)
(105.3056099 -3.135343843 0)
(105.1166223 -3.378767874 0)
(105.1993329 -3.317000669 0)
(104.9390167 -3.763664279 0)
(105.0257952 -3.653037954 0)
(105.0636736 -3.675713365 0)
(104.9729554 -3.785725437 0)
(104.6164598 -4.29318381 0)
(104.7286982 -4.173354331 0)
(104.7337169 -4.180476801 0)
(104.6168557 -4.298162547 0)
(104.0619394 -4.784501616 0)
(104.1956539 -4.656099107 0)
(104.1690443 -4.644911514 0)
(104.0381214 -4.770101376 0)
(103.0392439 -5.174978867 0)
(103.3246766 -5.058062145 0)
(103.0567171 -5.001896481 0)
(102.1948839 -5.076660998 0)
(95.659551 -5.22931724 0)
(95.37333862 -5.02591775 0)
(95.93367506 -5.076789525 0)
(97.28439304 -5.317694998 0)
(105.7388126 -0.4542485953 0)
(105.9408815 -0.2184351555 0)
(105.7500437 -0.9109970805 0)
(105.949597 -0.6558938444 0)
(105.7629752 -1.370505765 0)
(105.9643631 -1.100436599 0)
(105.7036135 -1.864827022 0)
(105.976391 -1.52826569 0)
(105.8489773 -1.804216865 0)
(105.5551224 -2.023157422 0)
(105.7814843 -1.945065331 0)
(105.6742071 -2.105776762 0)
(105.5649039 -2.518388774 0)
(105.6787787 -2.347510407 0)
(105.7884791 -2.412818033 0)
(105.677544 -2.585467961 0)
(105.5392798 -2.999343043 0)
(105.6634175 -2.820516757 0)
(105.7562716 -2.864538694 0)
(105.5850974 -3.077985698 0)
(105.6558694 -3.02499937 0)
(105.4063436 -3.415535354 0)
(105.4861707 -3.31645514 0)
(105.5113492 -3.330627663 0)
(105.4267437 -3.428225466 0)
(105.0510502 -3.853604765 0)
(105.157051 -3.74909835 0)
(105.1465364 -3.748787485 0)
(105.0348708 -3.850733746 0)
(104.4541434 -4.247802009 0)
(104.5816059 -4.138495502 0)
(104.5385783 -4.122667286 0)
(104.4101021 -4.228367957 0)
(103.0742613 -4.52394468 0)
(103.4492448 -4.433247587 0)
(103.0710872 -4.376293109 0)
(102.0849263 -4.429869076 0)
(96.6638941 -4.636314313 0)
(96.06979585 -4.441520296 0)
(96.87921545 -4.49744733 0)
(98.0420722 -4.670708028 0)
(106.151316 -0.4213740089 0)
(106.3367198 -0.2023292473 0)
(106.1638023 -0.843702811 0)
(106.3463106 -0.6060622217 0)
(106.1780675 -1.265741548 0)
(106.3608258 -1.015802124 0)
(106.1252929 -1.717755908 0)
(106.3725917 -1.404964224 0)
(106.2558958 -1.657246909 0)
(105.9908596 -1.865377826 0)
(106.1949982 -1.787137452 0)
(106.0981489 -1.935075476 0)
(105.9981104 -2.307874533 0)
(106.1003487 -2.15079136 0)
(106.1955561 -2.204377642 0)
(106.0938797 -2.360963003 0)
(105.9576781 -2.73185426 0)
(106.0712279 -2.566328519 0)
(106.1444882 -2.601894592 0)
(105.9869714 -2.787622966 0)
(106.0477037 -2.742783528 0)
(105.800281 -3.083237705 0)
(105.8758712 -2.995186752 0)
(105.888989 -3.003575957 0)
(105.8078995 -3.089631355 0)
(105.4063222 -3.44792763 0)
(105.5088644 -3.356980358 0)
(105.4849098 -3.352316048 0)
(105.3761128 -3.440648292 0)
(104.7649947 -3.768614852 0)
(104.8901101 -3.675300342 0)
(104.8324839 -3.657534723 0)
(104.7013768 -3.747152467 0)
(103.0428657 -3.965047487 0)
(103.4993937 -3.893547026 0)
(103.028764 -3.83784516 0)
(101.9530247 -3.878533421 0)
(97.44807506 -4.105409432 0)
(96.6863137 -3.932283676 0)
(97.61374362 -3.98266958 0)
(98.57937523 -4.108662002 0)
(106.5318244 -0.3882815356 0)
(106.7014711 -0.1863187345 0)
(106.5436608 -0.7762926185 0)
(106.7107879 -0.5567707484 0)
(106.5560342 -1.161732646 0)
(106.7229078 -0.9323123711 0)
(106.50507 -1.57252682 0)
(106.7310432 -1.284889575 0)
(106.6220632 -1.514089176 0)
(106.3826323 -1.708713758 0)
(106.5660516 -1.63280652 0)
(106.4772493 -1.767789287 0)
(106.3805424 -2.103019468 0)
(106.4740467 -1.959821829 0)
(106.5547257 -2.0042803 0)
(106.4595038 -2.145231629 0)
(106.3181646 -2.475244258 0)
(106.4252839 -2.324858687 0)
(106.4798096 -2.35257087 0)
(106.3319239 -2.517642473 0)
(106.3838468 -2.476243994 0)
(106.1334319 -2.77384566 0)
(106.2065863 -2.696048959 0)
(106.2086187 -2.700478009 0)
(106.1293911 -2.776098047 0)
(105.699957 -3.079622404 0)
(105.8007232 -3.000462306 0)
(105.7653826 -2.993448855 0)
(105.6580627 -3.070117487 0)
(105.0144704 -3.344012093 0)
(105.1399817 -3.264015154 0)
(105.0689635 -3.245854182 0)
(104.931782 -3.322030971 0)
(102.9776171 -3.483179451 0)
(103.5044019 -3.426210951 0)
(102.9586387 -3.373421437 0)
(101.8231508 -3.406005249 0)
(98.04665964 -3.636975587 0)
(97.21372999 -3.488970061 0)
(98.17141505 -3.528987461 0)
(98.96056795 -3.621790374 0)
(106.8808652 -0.3560022883 0)
(107.0358992 -0.1708380089 0)
(106.8906474 -0.7107969884 0)
(107.0440634 -0.5093321456 0)
(106.8988074 -1.061394872 0)
(107.052259 -0.8521501289 0)
(106.846108 -1.433117834 0)
(107.0543714 -1.170789502 0)
(106.9507334 -1.378044459 0)
(106.7337705 -1.557725356 0)
(106.8981951 -1.485831173 0)
(106.8155492 -1.608159082 0)
(106.717877 -1.908575911 0)
(106.8049896 -1.778933956 0)
(106.8715225 -1.81620586 0)
(106.7806937 -1.94248232 0)
(106.6303253 -2.234415411 0)
(106.7336064 -2.099632428 0)
(106.770561 -2.12112306 0)
(106.6286823 -2.26796337 0)
(106.6733472 -2.229878241 0)
(106.4163167 -2.490269313 0)
(106.4882608 -2.421701994 0)
(106.4804212 -2.42353543 0)
(106.4019525 -2.489936163 0)
(105.9454131 -2.748769409 0)
(106.0453823 -2.679786507 0)
(106.0005131 -2.67174228 0)
(105.8938373 -2.738434839 0)
(105.2164153 -2.969249661 0)
(105.3443754 -2.900476657 0)
(105.260718 -2.88275923 0)
(105.1152275 -2.947632399 0)
(102.8993046 -3.067299862 0)
(103.4841066 -3.021333687 0)
(102.8793687 -2.972517061 0)
(101.7094257 -3.00011347 0)
(98.49477083 -3.225424336 0)
(97.65481836 -3.101885062 0)
(98.58729285 -3.130757253 0)
(99.22927255 -3.200365358 0)
(107.1997597 -0.3252742324 0)
(107.3414792 -0.1561982799 0)
(107.20649 -0.6486510512 0)
(107.3478443 -0.4646625789 0)
(107.2088458 -0.9667357148 0)
(107.3510848 -0.7768076638 0)
(107.1518598 -1.302142597 0)
(107.3455726 -1.064473399 0)
(107.2453846 -1.251269239 0)
(107.0479385 -1.415451731 0)
(107.1951842 -1.348638494 0)
(107.1171597 -1.458895696 0)
(107.0154742 -1.727442714 0)
(107.0980605 -1.610762323 0)
(107.1511298 -1.642444209 0)
(107.0630022 -1.755161272 0)
(106.9013333 -2.012896214 0)
(107.0025305 -1.892876013 0)
(107.0233615 -1.909841052 0)
(106.8851846 -2.040051681 0)
(106.9237973 -2.005511002 0)
(106.6579675 -2.233437502 0)
(106.7295548 -2.173113698 0)
(106.7129539 -2.173389698 0)
(106.6345605 -2.231642406 0)
(106.152909 -2.453858944 0)
(106.2526368 -2.393679167 0)
(106.1998064 -2.385487595 0)
(106.0932398 -2.443596654 0)
(105.3808881 -2.639454433 0)
(105.5127827 -2.580261579 0)
(105.4170947 -2.563484425 0)
(105.2620012 -2.618799865 0)
(102.8211938 -2.7082172 0)
(103.4518683 -2.670628739 0)
(102.8027084 -2.626382888 0)
(101.6186273 -2.65095243 0)
(98.82567385 -2.865196519 0)
(98.0184742 -2.763547545 0)
(98.89353411 -2.782520622 0)
(99.4169784 -2.835777905 0)
(107.4903572 -0.296602283 0)
(107.6201071 -0.1426131804 0)
(107.4933601 -0.5908195478 0)
(107.6242166 -0.4233749 0)
(107.488885 -0.879059031 0)
(107.6218566 -0.7072601933 0)
(107.4258629 -1.181208226 0)
(107.6077265 -0.967052793 0)
(107.5095071 -1.135041079 0)
(107.3288891 -1.283774604 0)
(107.4607727 -1.222650904 0)
(107.3861147 -1.321607352 0)
(107.2783327 -1.561339731 0)
(107.3578574 -1.456790971 0)
(107.3983198 -1.484197256 0)
(107.3116051 -1.584511481 0)
(107.1373585 -1.811984602 0)
(107.2377419 -1.70551823 0)
(107.243917 -1.719337451 0)
(107.1078628 -1.834427338 0)
(107.1414077 -1.803490433 0)
(106.8657281 -2.003108154 0)
(106.9375087 -1.950107942 0)
(106.9131908 -1.949576155 0)
(106.8344642 -2.000640103 0)
(106.3301554 -2.192656051 0)
(106.4299762 -2.140119069 0)
(106.3704431 -2.132345796 0)
(106.2635785 -2.183011216 0)
(105.5155596 -2.350098333 0)
(105.6523941 -2.29913943 0)
(105.5452931 -2.283606567 0)
(105.3799755 -2.330795013 0)
(102.7511189 -2.398239082 0)
(103.4163427 -2.367093374 0)
(102.7354011 -2.327659223 0)
(101.5528608 -2.350359126 0)
(99.06765089 -2.550984266 0)
(98.31573476 -2.468017138 0)
(99.11699739 -2.479055409 0)
(99.54632762 -2.52055367 0)
(107.7548596 -0.2703077359 0)
(107.8740339 -0.1302148211 0)
(107.7537099 -0.537900734 0)
(107.8755795 -0.3858345427 0)
(107.7418008 -0.7991339951 0)
(107.8672589 -0.6440721016 0)
(107.6715641 -1.071201168 0)
(107.8439596 -0.8791012557 0)
(107.7465022 -1.030011959 0)
(107.5802451 -1.16375595 0)
(107.6985284 -1.108614831 0)
(107.6262071 -1.19712176 0)
(107.5109452 -1.4110576 0)
(107.5885602 -1.317691273 0)
(107.6173528 -1.341902497 0)
(107.5310827 -1.430957032 0)
(107.3436528 -1.631838842 0)
(107.4441613 -1.537649819 0)
(107.4370952 -1.549412533 0)
(107.3020517 -1.650823824 0)
(107.3313466 -1.623430645 0)
(107.0455181 -1.798378707 0)
(107.1178351 -1.751860588 0)
(107.0867746 -1.751050108 0)
(107.00748 -1.795785157 0)
(106.4829115 -1.962709934 0)
(106.5830682 -1.916832569 0)
(106.5178114 -1.909818839 0)
(106.4103035 -1.953988603 0)
(105.626365 -2.097158688 0)
(105.7687665 -2.053304424 0)
(105.650905 -2.039188415 0)
(105.4752251 -2.079430886 0)
(102.6931944 -2.131011732 0)
(103.3829027 -2.104860769 0)
(102.6808501 -2.07024288 0)
(101.5115103 -2.091718212 0)
(99.24316269 -2.277955966 0)
(98.55753186 -2.2105098 0)
(99.27877738 -2.215615197 0)
(99.63348751 -2.248426826 0)
(107.995696 -0.2465725755 0)
(108.1056639 -0.1190776036 0)
(107.9901525 -0.4902182458 0)
(108.1044475 -0.3522338202 0)
(107.9705103 -0.7273360282 0)
(108.090007 -0.5875254558 0)
(107.8923012 -0.9724831725 0)
(108.057299 -0.8008427223 0)
(107.9596267 -0.9363930614 0)
(107.8055033 -1.05584984 0)
(107.9118565 -1.006766446 0)
(107.8410197 -1.085703536 0)
(107.717388 -1.276725385 0)
(107.7940052 -1.193558485 0)
(107.8120835 -1.215468621 0)
(107.7255226 -1.294357407 0)
(107.5247608 -1.471963062 0)
(107.6260782 -1.388821353 0)
(107.6071024 -1.399380339 0)
(107.4722721 -1.48846723 0)
(107.4980058 -1.464489212 0)
(107.2021928 -1.617948037 0)
(107.2752413 -1.577164057 0)
(107.2383207 -1.576462877 0)
(107.1583349 -1.615619359 0)
(106.6155928 -1.761539125 0)
(106.7162842 -1.721503257 0)
(106.6460515 -1.715463738 0)
(106.5376099 -1.753923472 0)
(105.7179714 -1.87704847 0)
(105.8662793 -1.839367035 0)
(105.7383256 -1.82677422 0)
(105.5524897 -1.861032035 0)
(102.6490912 -1.901189985 0)
(103.3546339 -1.878978964 0)
(102.6402556 -1.84904262 0)
(101.4924877 -1.869574247 0)
(99.36950063 -2.041729772 0)
(98.75383844 -1.986976251 0)
(99.39502033 -1.987958371 0)
(99.69008413 -2.014139388 0)
(108.2153704 -0.2254822916 0)
(108.3174817 -0.109234341 0)
(108.2053217 -0.4479087125 0)
(108.3133832 -0.322642475 0)
(108.1778559 -0.6637834193 0)
(108.2927995 -0.5377062339 0)
(108.0912064 -0.8850893929 0)
(108.250648 -0.7322654816 0)
(108.1519384 -0.854121429 0)
(108.0079273 -0.9601287377 0)
(108.1039199 -0.9170473691 0)
(108.0338482 -0.9872801028 0)
(107.9012907 -1.158094082 0)
(107.9776455 -1.084159025 0)
(107.9859465 -1.10452768 0)
(107.8985163 -1.174271079 0)
(107.6845607 -1.331539522 0)
(107.7871774 -1.258318995 0)
(107.7575002 -1.268287451 0)
(107.6223502 -1.346344132 0)
(107.6451273 -1.325589745 0)
(107.3397426 -1.460389416 0)
(107.4136259 -1.424685864 0)
(107.3716243 -1.424401091 0)
(107.2908807 -1.4586214 0)
(106.7316594 -1.586853484 0)
(106.8330581 -1.551983245 0)
(106.7584235 -1.547070507 0)
(106.6488078 -1.580470882 0)
(105.7940769 -1.686699279 0)
(105.9484201 -1.654429481 0)
(105.811048 -1.643442939 0)
(105.6154911 -1.672493503 0)
(102.6188602 -1.704427011 0)
(103.3330247 -1.685424584 0)
(102.6133778 -1.659974092 0)
(101.4929452 -1.679588981 0)
(99.45978614 -1.83850478 0)
(98.91337781 -1.794074054 0)
(99.47793768 -1.792462323 0)
(99.72458716 -1.813394529 0)
(108.4164756 -0.207054348 0)
(108.5119996 -0.1006925623 0)
(108.4018905 -0.4109809496 0)
(108.5049523 -0.2970536758 0)
(108.366645 -0.6084175356 0)
(108.478282 -0.4945698617 0)
(108.2712393 -0.8088874883 0)
(108.4268118 -0.6732402542 0)
(108.3263134 -0.7829808696 0)
(108.1905657 -0.8764325869 0)
(108.2776481 -0.8392102775 0)
(108.2077348 -0.9015818905 0)
(108.0659127 -1.054718377 0)
(108.1426176 -0.9890754505 0)
(108.142059 -1.008571765 0)
(108.0532687 -1.07012011 0)
(107.8262304 -1.209426534 0)
(107.9306034 -1.145424542 0)
(107.8912331 -1.154794834 0)
(107.7556159 -1.223940581 0)
(107.775957 -1.205291949 0)
(107.4615041 -1.324337288 0)
(107.5362934 -1.293162391 0)
(107.4898618 -1.293528827 0)
(107.4083162 -1.323346995 0)
(106.8339148 -1.436605869 0)
(106.9361828 -1.406326156 0)
(106.857603 -1.402641323 0)
(106.7466089 -1.43153985 0)
(105.8576903 -1.52350101 0)
(106.0180536 -1.495995397 0)
(105.8719448 -1.486668759 0)
(105.6672362 -1.51116793 0)
(102.6016212 -1.537242158 0)
(103.3185792 -1.520920626 0)
(102.5991954 -1.499714329 0)
(101.5098187 -1.518338641 0)
(99.52381228 -1.665073133 0)
(99.04351607 -1.629057683 0)
(99.53660156 -1.626036697 0)
(99.74316296 -1.642670574 0)
(108.6013546 -0.1912757995 0)
(108.6916839 -0.09343864317 0)
(108.5822628 -0.3793777932 0)
(108.6816455 -0.2754093294 0)
(108.5393675 -0.5610892069 0)
(108.6489815 -0.4579990721 0)
(108.4350901 -0.7434587913 0)
(108.588333 -0.6235054362 0)
(108.4854061 -0.7226016362 0)
(108.3562185 -0.8044504775 0)
(108.4357995 -0.7729274046 0)
(108.3654851 -0.828178233 0)
(108.2142383 -0.9660183185 0)
(108.2917963 -0.9077824305 0)
(108.2832434 -0.9269536497 0)
(108.1927453 -0.98123507 0)
(107.9528508 -1.10433246 0)
(108.0593971 -1.049300857 0)
(108.0114254 -1.057993042 0)
(107.8747551 -1.120627824 0)
(107.8930191 -1.102689316 0)
(107.5701339 -1.208493164 0)
(107.6458255 -1.181372995 0)
(107.5955499 -1.182532578 0)
(107.5131873 -1.208432632 0)
(106.9246756 -1.308970519 0)
(107.0279526 -1.282790513 0)
(106.9458016 -1.2804061 0)
(106.8332641 -1.305282154 0)
(105.9113025 -1.385193698 0)
(106.0775621 -1.361905638 0)
(105.9233906 -1.354278423 0)
(105.7101837 -1.374775166 0)
(102.5960915 -1.396735583 0)
(103.3112561 -1.382713907 0)
(102.5963718 -1.365488786 0)
(101.5402204 -1.383012385 0)
(99.56871849 -1.518687001 0)
(99.15024255 -1.489586906 0)
(99.57759719 -1.486038186 0)
(99.7502404 -1.499039571 0)
(108.7731426 -0.1780809285 0)
(108.8589729 -0.08747561757 0)
(108.7495418 -0.3529765931 0)
(108.8459333 -0.2576779585 0)
(108.6991216 -0.5215533291 0)
(108.8073423 -0.4278672399 0)
(108.5855356 -0.6887303478 0)
(108.737906 -0.583037315 0)
(108.6318065 -0.6728204127 0)
(108.5075898 -0.7438339782 0)
(108.5808055 -0.7177643973 0)
(108.5097073 -0.7666734827 0)
(108.3489392 -0.8912987735 0)
(108.4277891 -0.8396923477 0)
(108.4120407 -0.8589566244 0)
(108.319561 -0.9068608973 0)
(108.0673378 -1.015797908 0)
(108.1763579 -0.9689812364 0)
(108.1211039 -0.9778739869 0)
(107.9822998 -1.034843096 0)
(107.9986539 -1.017596816 0)
(107.667864 -1.111542651 0)
(107.7444566 -1.088044517 0)
(107.6908603 -1.090088776 0)
(107.6076621 -1.112527954 0)
(107.0059006 -1.202335917 0)
(107.1103226 -1.179816187 0)
(107.0249248 -1.178790056 0)
(106.9106947 -1.200070223 0)
(105.9569768 -1.269848601 0)
(106.1289408 -1.250304817 0)
(105.9673642 -1.244403469 0)
(105.7463422 -1.2613637 0)
(102.6008379 -1.280483949 0)
(103.3106831 -1.268485525 0)
(102.6034588 -1.254968026 0)
(101.5815566 -1.271275997 0)
(99.5996878 -1.39699988 0)
(99.23839229 -1.37363032 0)
(99.60572378 -1.370198591 0)
(99.74903767 -1.380056504 0)
(108.9317494 -0.1675174397 0)
(109.0163386 -0.08272327117 0)
(108.9037831 -0.3317708142 0)
(109.0002243 -0.2436867646 0)
(108.84606 -0.4897679542 0)
(108.9557646 -0.4039662837 0)
(108.7242368 -0.6428138361 0)
(108.8768863 -0.5506071046 0)
(108.7677345 -0.6326140499 0)
(108.6467529 -0.6940921797 0)
(108.7157505 -0.6734335267 0)
(108.6428407 -0.7162664655 0)
(108.4724211 -0.829885763 0)
(108.553011 -0.7841998572 0)
(108.530761 -0.8041141177 0)
(108.435921 -0.8462999317 0)
(108.1724076 -0.9441514365 0)
(108.2836266 -0.9034398715 0)
(108.2216763 -0.9143753554 0)
(108.0806817 -0.9622974552 0)
(108.0959197 -0.9494806442 0)
(107.7568586 -1.032157141 0)
(107.8344953 -1.011809927 0)
(107.7780317 -1.014986897 0)
(107.6938541 -1.034347037 0)
(107.0793523 -1.115300292 0)
(107.1850663 -1.096059815 0)
(107.0966911 -1.096469046 0)
(106.9806222 -1.114515258 0)
(105.9964528 -1.175826284 0)
(106.1738918 -1.159630956 0)
(106.0055315 -1.15549056 0)
(105.7773704 -1.169294287 0)
(102.6144053 -1.186472161 0)
(103.3162936 -1.176315808 0)
(102.6190077 -1.166247709 0)
(101.6315464 -1.181214694 0)
(99.62055221 -1.29802553 0)
(99.31191674 -1.279457941 0)
(99.62454721 -1.276634963 0)
(99.74196107 -1.283710214 0)
(109.0889774 -0.1592358861 0)
(109.1659333 -0.07939729555 0)
(109.0562661 -0.3153115421 0)
(109.1468422 -0.2338236012 0)
(108.990642 -0.465230098 0)
(109.0966061 -0.386863566 0)
(108.8565312 -0.6095392296 0)
(109.0093656 -0.5283271467 0)
(108.8974725 -0.6029560481 0)
(108.7776326 -0.6551133785 0)
(108.8419291 -0.6391827765 0)
(108.7674369 -0.6779872917 0)
(108.5868783 -0.7816314386 0)
(108.6695214 -0.741282269 0)
(108.6413674 -0.7622755348 0)
(108.5438941 -0.7992833313 0)
(108.2691667 -0.8883988931 0)
(108.3828626 -0.8526312199 0)
(108.315089 -0.8661170409 0)
(108.1718547 -0.9061020163 0)
(108.1860698 -0.8969342344 0)
(107.8390991 -0.9697113884 0)
(107.9178537 -0.9522173653 0)
(107.8588131 -0.9566546439 0)
(107.7735804 -0.973201373 0)
(107.1465926 -1.046780052 0)
(107.253739 -1.030511766 0)
(107.1625967 -1.032435993 0)
(107.0445606 -1.04754646 0)
(106.0312007 -1.101826796 0)
(106.2138716 -1.088657908 0)
(106.0393034 -1.086331761 0)
(105.8046422 -1.097282507 0)
(102.6353661 -1.113131341 0)
(103.327401 -1.10472337 0)
(102.6416022 -1.097885482 0)
(101.6881601 -1.111361233 0)
(99.6342324 -1.220196932 0)
(99.374103 -1.205709153 0)
(99.63680872 -1.203901124 0)
(99.73089022 -1.208451383 0)
(109.2102419 -0.1543735622 0)
(109.3109517 -0.07672047096 0)
(109.1740994 -0.3049176133 0)
(109.2882554 -0.2263575533 0)
(109.1029861 -0.4495589591 0)
(109.232482 -0.3739828265 0)
(108.9725254 -0.5876124886 0)
(109.135867 -0.510222326 0)
(109.0115753 -0.580829639 0)
(108.9002615 -0.6258365377 0)
(108.9586741 -0.6167946898 0)
(108.8838132 -0.6497966661 0)
(108.6942387 -0.7459811869 0)
(108.7790066 -0.7101621464 0)
(108.7460169 -0.7327549622 0)
(108.6452938 -0.765277588 0)
(108.3597366 -0.8475000864 0)
(108.4759708 -0.8158614579 0)
(108.4031713 -0.8323109184 0)
(108.2573293 -0.8648540304 0)