/*--------------------------------*- C++ -*----------------------------------*\
| =========                 |                                                 |
| \\      /  F ield         | OpenFOAM: The Open Source CFD Toolbox           |
|  \\    /   O peration     | Version:  v2012                                 |
|   \\  /    A nd           | Website:  www.openfoam.com                      |
|    \\/     M anipulation  |                                                 |
\*---------------------------------------------------------------------------*/
FoamFile
{
    version     2.0;
    format      ascii;
    class       surfaceScalarField;
    location    "0.43";
    object      meshPhi;
}
// * * * * * * * * * * * * * * * * * * * * * * * * * * * * * * * * * * * * * //

dimensions      [0 3 -1 0 0 0 0];
oriented        oriented;


internalField   nonuniform List<scalar> 
5999
(
0
0
0
0
0
0
0
0
0
0
0
0
0
0
0
0
0
0
0
0
0
0
0
0
0
0
0
0
0
0
0
0
0
0
0
0
0
0
0
0
0
0
0
0
0
0
0
0
0
0
0
0
0
0
0
0
0
0
0
0
0
0
0
0
0
0
0
0
0
0
0
1.716801708e-09
-6.064920657e-08
0
0
0
0
0
0
0
0
0
0
0
0
0
0
0
0
0
0
0
0
0
0
0
0
0
0
0
0
0
-8.207112686e-09
9.499384159e-07
7.35179293e-07
-6.035414414e-06
-2.821976119e-06
5.407241466e-05
6.47023263e-06
-7.655843487e-05
-3.750743663e-06
0.0001415132192
6.580075721e-06
-0.0001580866776
0
0
0
0
0
0
0
0
0
0
0
0
0
0
0
0
0
0
0
0
0
0
0
0
0
-3.938981337e-07
1.931360984e-06
1.962068658e-06
-1.393044825e-05
-1.328756747e-05
0.0001236678451
2.037442082e-05
-0.0001772568266
-2.470772109e-05
0.0003545964113
3.252438958e-05
-0.0004116026439
-1.882231847e-05
0.0005512313004
2.37644328e-05
-0.0005832315364
0
0
0
0
0
0
0
0
0
0
0
0
0
0
0
0
0
0
0
0
0
0
0
1.297478341e-07
-6.886690907e-07
-1.496909211e-05
8.556543431e-05
2.052523853e-05
-0.0001476201813
-4.657605004e-05
0.0003954363792
5.599999107e-05
-0.0004873672081
-5.771183276e-05
0.0007484971627
6.577600968e-05
-0.0008226749734
-3.874455832e-05
0.0009874774168
4.316452386e-05
-0.001021844241
0
0
0
0
0
0
0
0
0
0
0
0
0
0
0
0
0
0
0
0
0
-3.898948414e-06
9.401242264e-06
6.254511703e-06
-4.081626396e-05
-4.469957265e-05
0.000249804637
5.223142354e-05
-0.0003476471918
-7.616384145e-05
0.0006829343956
8.886493513e-05
-0.0007948481895
-8.426495378e-05
0.001056186484
8.27677269e-05
-0.001113136169
-5.193021222e-05
0.001221843302
5.181929079e-05
-0.001235992607
0
0
0
0
0
0
0
0
0
0
0
0
0
0
0
0
0
0
1.138739458e-07
-6.520017205e-09
-2.439267476e-07
-1.394276423e-05
4.47035418e-05
1.672160709e-05
-0.0001009052712
-6.975511717e-05
0.000374285887
7.529768787e-05
-0.0004929407694
-0.0001134696131
0.0008449558725
0.0001173473913
-0.0009476546843
-9.087719687e-05
0.001171951479
0.0001011423625
-0.001216088466
-3.624959998e-05
0.001254708097
-1.006210163e-05
2.017656226e-05
-0.0006087403683
-0.0006198325896
0
0
0
0
0
0
0
0
0
0
0
0
0
0
0
0
-4.798127615e-07
0
1.038264145e-06
-2.157181279e-06
-3.243076406e-06
-2.242974415e-05
7.037699467e-05
2.311748163e-05
-0.000137756213
-8.661613523e-05
0.0004371792835
8.809089803e-05
-0.0005556338832
-0.0001267507208
0.0008984885705
0.0001287862846
-0.0009935525918
-0.0001080142867
0.001167969505
0.0001095859331
-0.001180584537
-2.852932916e-05
0.0005999488321
2.762099782e-05
-0.0005990405007
0
0
0
0
0
0
0
0
0
0
0
0
0
0
0
0
-1.358984655e-06
0
1.718130901e-06
-5.560218872e-06
-6.171233899e-06
-2.664647338e-05
8.308328558e-05
2.738201205e-05
-0.0001531285349
-9.310413494e-05
0.0004510854722
9.411865999e-05
-0.0005657383659
-0.0001322987026
0.0008896188403
0.0001329511982
-0.0009757942313
-0.0001110336938
0.00111957781
0.0001111213707
-0.001124262354
-3.091750532e-05
0.0005639548639
3.09126836e-05
-0.0005639500422
0
0
0
0
0
0
0
0
0
0
0
0
0
0
0
0
-2.06160163e-06
0
2.532336416e-06
-7.937173525e-06
-8.705862672e-06
-2.920855615e-05
8.872853686e-05
2.994264019e-05
-0.0001585067983
-9.652408997e-05
0.0004484256827
9.74827753e-05
-0.0005583471554
-0.0001344090982
0.0008645724471
0.0001349831696
-0.0009445160917
-0.0001111935324
0.001072075011
0.0001111600579
-0.0010744799
-3.091301576e-05
0.0005383582715
3.073000148e-05
-0.000269340148
-0.0002688351093
0
0
0
0
0
0
0
0
0
0
0
0
0
0
0
0
-3.046411066e-06
0
3.63405803e-06
-1.114487594e-05
-1.202415562e-05
-3.222802967e-05
9.558779608e-05
3.302897917e-05
-0.0001653238666
-0.0001004192014
0.0004478610826
0.0001014250169
-0.000553243573
-0.0001367116959
0.0008422806501
0.0001372998966
-0.0009160576127
-0.0001112233699
0.001027406681
0.0001112331744
-0.0010282722
-3.07394653e-05
0.0005154459628
3.067955927e-05
-0.0002580344562
-0.0002573516006
0
0
0
0
0
0
0
0
0
-4.335288088e-06
0
-1.512842994e-05
-1.537473971e-05
-3.563213113e-05
0.0001030548999
3.66448365e-05
-0.0001726091956
-0.0001046411731
0.0004471616317
0.0001058623324
-0.0005477811884
-0.000139150824
0.0008189152441
0.0001398430629
-0.0008863614606
-0.0001112864374
0.0009811865845
0.0001112296494
-0.0009811984891
-3.047772859e-05
0.0004920008348
3.046512824e-05
-0.0002462680664
-0.000245720168
0.0005677626006
-0.0005677848267
-3.089527917e-05
0.0005413067726
-3.104745958e-05
-0.0002711024523
-0.0002700698765
0.0005183234965
-3.082248497e-05
-0.0002595463588
-0.000258694118
0.0004947877763
-3.058228907e-05
-0.0002477296352
-0.0002469535806
0.0006029098899
-0.0006027067156
-2.873250348e-05
0.001083371201
-0.001086280608
-0.0001112059446
3.417475068e-05
-3.420767683e-05
0.0005413396988
-3.420188548e-05
0.0005639068554
3.424989396e-05
0.001038871523
-0.001040053298
-0.0001112145562
3.405232655e-05
-3.408545945e-05
0.0005183566294
0.0005383925087
3.414051351e-05
3.075390633e-05
0.0005302513601
-3.078919291e-05
-0.0002654257263
-0.0002647903473
1.008845903e-05
-0.0001323270996
-1.005691886e-05
0.0002647965324
-0.0001325009729
-1.01149349e-05
-0.0001345539523
0.000269228896
1.00079914e-05
-0.0001345680002
0.0009926021768
-0.0009927759362
-0.0001113273162
3.387246042e-05
-3.39066703e-05
0.0004948219862
0.0005154568143
3.404147504e-05
3.078561831e-05
0.0005066920048
-3.070359595e-05
-0.00025378793
-0.0002529860972
4.978771127e-06
-0.0001263546642
-5.016338921e-06
0.000126392232
-9.901808775e-06
-0.0001290666221
0.0002580204419
9.918274176e-06
-0.0001289702852
0.0004920334772
3.383981808e-05
1.56282586e-05
0.0002413830318
-0.0002414022973
-1.560899311e-05
5.67949705e-06
-0.0001208703376
-5.52571678e-06
0.0001207165573
-5.35081385e-06
-0.0001229584013
0.0001230366123
5.272602868e-06
-9.277154061e-06
0.0002895707694
9.051360442e-06
-0.0001445943024
-0.0001447506734
9.513919719e-06
0.0002832930783
-9.466113316e-06
-0.000141971271
-0.0001413696137
0.0003024295682
-3.568496723e-06
2.9837986e-06
-0.00030184487
0.0002911320842
-0.0002913587409
-9.05049744e-06
-0.0001346812373
-1.024585762e-05
0.0002699580804
-0.0001351459204
-0.0002755314307
-1.012721641e-05
0.0002755595523
1.009909485e-05
-3.096896038e-05
0.0005507433461
3.093707081e-05
-0.0005507114565
-9.34960351e-06
9.160750585e-06
-0.0001377947963
-0.0001375477814
4.814065455e-06
-0.0001346788768
-4.816425932e-06
0.0002821810652
9.381735342e-06
-0.0001410912258
-0.000140957655
0.0002765415783
-9.309215874e-06
-0.0001384691569
-0.000138112809
-0.000129179989
-1.001385251e-05
0.0002586022303
-0.0001293101976
-0.000132276511
0.000264275638
1.019815389e-05
-0.0001321088218
0.000527517558
3.086787025e-05
-0.000264231508
-0.000263400014
-4.944519456e-06
4.976096418e-06
-0.000132308088
4.61091476e-06
-0.0001291427611
-4.648142657e-06
4.782220836e-06
-0.0001345221077
-0.0001324111493
-4.86046976e-06
-0.0001231506469
-5.400757463e-06
0.0001232005905
-0.0001261482682
0.0001261640539
4.962985467e-06
0.0005033940125
3.060946711e-05
-0.0002520899799
-0.0002511278814
-4.888460954e-06
4.79083965e-06
-0.0001260506469
5.44085308e-06
-0.0001230375884
-5.553911612e-06
4.604488781e-06
-0.0001290601961
-0.0001263040322
-4.93909299e-06
-0.0001203758427
0.0001204335949
5.621744831e-06
-0.0002405814131
-5.745232628e-06
5.640889825e-06
-0.0001202714999
5.299783896e-06
-0.0001228173321
-0.0001209752585
-5.640311725e-06
0.001131674774
-0.001137482548
-0.0001107109757
-3.415419554e-05
0.0005677149107
-3.202749208e-05
0.0005990871904
3.288913375e-05
3.023670614e-05
0.0005833858985
-0.0005833485986
-3.027400595e-05
9.978387948e-06
-9.936003086e-06
0.0002910896994
-8.298993711e-06
0.0003032760622
7.452499675e-06
0.0005539818934
-0.0005540259228
-3.092493098e-05
-1.01331563e-05
0.0002765475182
-1.013980255e-05
0.0002821807961
1.014007162e-05
-1.013274278e-05
0.0002832860185
0.0002895836045
9.965552917e-06
0.0005768470856
3.061132347e-05
-0.000577221703
-2.394141248e-06
0.0001429411013
2.696786803e-06
-0.0001432437468
0.0001563995787
3.023731268e-06
-8.717218904e-07
-0.0001585515881
0.0001493293898
1.170549586e-06
-0.0001495484996
-9.51439721e-07
0.0006374036192
-2.040991246e-06
-8.643459778e-06
6.475755786e-07
-0.0003116525298
-0.000315714214
0.0003005778114
-0.0003067831657
2.636857518e-06
-0.0001217086167
-4.648742588e-06
0.0001217830549
4.574304391e-06
-1.227045811e-05
0.0002433150893
1.224245391e-05
-0.0002432870851
1.223488948e-05
0.0002413480554
-0.0002413671703
-1.221577463e-05
0.0001487653102
-1.057043693e-06
3.923329472e-05
-0.0001869415613
0.000142525419
-2.485379186e-06
-0.0001424341811
9.144997537e-06
0.0002870242836
-9.258179765e-06
-0.0001433372018
-0.0001435738995
3.092321588e-06
-3.353619724e-06
0.0001427867172
-3.119323079e-06
0.0001473150964
4.569536949e-06
4.737532759e-06
-1.323585213e-05
0.0001417615496
-0.0001332632302
0.0001431229967
2.910426218e-06
0.0002865235841
9.456796724e-06
-0.0001436799807
-0.0001431554025
8.3368795e-06
0.0002999039074
-0.0003001221601
-8.11862676e-06
2.521285932e-06
-2.689215207e-06
0.0001494973191
6.087372975e-06
0.0001515952688
-1.283063086e-06
-0.0001473547539
-2.580278532e-06
0.0001468157093
-0.000148900806
0.0001489291301
2.492961798e-06
0.0002967022733
8.543887106e-06
-0.0002969092809
2.106500753e-06
-0.0001498367572
-0.0001471186449
-1.293152663e-06
4.851545608e-06
0.0001365562848
-0.0001365960581
-4.811772227e-06
-2.888989769e-06
0.0001375134592
2.88358253e-06
-0.000137508052
0.0001364293234
4.855643057e-06
-0.0001364334209
9.447915015e-06
0.0002800439362
-9.330761871e-06
-0.0001401512247
-0.0001400098646
3.076648513e-06
-3.052230511e-06
0.0001396632515
-0.0001396876695
0.0001408265029
3.381590304e-06
-0.0001394705604
-2.944175912e-06
0.0001377986283
-0.0001377434421
0.0001393541321
3.046934942e-06
-0.0001393244185
0.000278946777
9.410483129e-06
-0.0001396525135
-0.0001392568316
4.830869124e-06
0.0001307294135
-0.0001306989495
-4.861333101e-06
0.0001306314906
4.81358288e-06
-0.0001306142044
4.695228094e-06
0.0001336725908
-0.0001336422362
-4.725582662e-06
0.0001335135439
4.691185268e-06
-0.0001335095011
4.438559834e-06
0.0001250536823
-0.0001250626793
-4.42956276e-06
0.0001249632225
4.585346781e-06
-0.0001251100095
5.259937615e-06
0.000127970182
-0.0001280539271
-5.17619252e-06
0.0001277173051
5.2668747e-06
-0.0001277242422
0.000240569557
-0.0002405641389
4.349730573e-06
0.0001219286015
-0.0001217876833
-4.490648741e-06
4.212422805e-06
-0.000121571309
1.264464199e-05
0.0003175717456
-1.028902466e-05
0.000159116278
-0.0001592084559
3.115909099e-06
-5.180912906e-06
0.0001277131161
5.185101941e-06
-1.245376948e-05
0.0002552443421
1.242734024e-05
-0.0002552179129
1.24156795e-05
0.0002530016142
-0.000252997704
-1.24195897e-05
-1.246472796e-05
0.0002580294497
1.246204134e-05
-0.0002580267631
0.0002559544059
-0.0002559515775
-1.245659782e-05
-5.113338066e-06
0.0001279026072
-1.234318938e-05
0.0002462598196
1.23140488e-05
-0.000246230679
0.0002442929274
-0.000244285563
-1.227782252e-05
-4.72620665e-06
0.0001220060656
-1.003703844e-05
-0.0001305350436
0.00026115845
1.00451226e-05
-1.250041381e-05
0.000261172649
1.249787289e-05
-0.0002611701081
0.0002586638774
-0.0002586371808
-1.249142453e-05
3.739814916e-06
-0.0001288719209
-3.831005244e-06
0.0001289631112
-0.0001295401983
-4.194190592e-06
0.0001296769701
4.057418815e-06
-4.731731963e-06
0.0001298462134
4.694783664e-06
-0.0001298092651
-4.776910958e-06
0.0001248818288
4.858304635e-06
-1.239947197e-05
0.0002493050418
1.241704337e-05
-0.0002493226132
0.0002468993468
-0.0002468941407
-1.23483954e-05
0.0002520831124
1.241169811e-05
-0.0002520791311
0.0002500547291
-0.0002500738721
-1.238032901e-05
-4.721242028e-06
0.0001249980133
4.613370708e-06
0.0001252028638
-0.0001251510534
-4.665181075e-06
3.885816429e-06
-0.0001247633557
-4.018080359e-06
0.0001248956196
-4.304224749e-06
-0.000125768333
0.0001258483661
4.224191647e-06
3.859188222e-06
-3.89922543e-06
0.0001227911844
-0.0001227511472
-1.277254628e-05
0.0001242944251
5.168994569e-06
-0.0001166908734
-5.519412878e-06
0.000124044469
5.636497513e-06
-0.0001241615536
4.664401179e-06
0.0001286612457
-0.0001287163735
-4.609273376e-06
3.39016615e-06
-0.0001290142787
-3.36651664e-06
0.0001289906291
-0.0001287939435
0.0001289349112
3.598847233e-06
-0.0001259744732
-4.408056043e-06
0.0001260783045
-0.0001265222303
-4.698285227e-06
0.0001266276135
4.592902071e-06
-5.137627751e-06
0.0001269282252
5.06375338e-06
-0.0001268543509
4.917152312e-06
0.0001226097189
-0.0001224897657
-5.037105534e-06
3.602280792e-06
-3.636630433e-06
0.0001221587181
-0.0001221243685
0.0001225042125
3.706149369e-06
-0.0001223511737
-9.331444842e-07
0.0001223940957
-1.071390015e-05
-0.000110747051
-4.177800031e-06
0.0001215110366
4.601511633e-06
-0.0001219347482
-4.067857681e-08
0.0001421756195
-2.151736506e-06
-0.0001399832044
0.0001438997787
-1.337427192e-05
-0.0001305661853
1.601185102e-06
0.0001544096631
-0.0001548265443
-1.184303935e-06
0.0001546800929
8.28201467e-07
-0.0001539071093
3.176865226e-06
0.0001433118069
-4.793375731e-06
-0.0001416952964
0.0001428107688
3.012240445e-06
-0.000142646144
-4.401390486e-06
0.0001432502008
3.961958474e-06
-4.537400714e-06
0.0001440583052
4.375386795e-06
-0.0001438962913
3.896615724e-06
0.0001434953686
-0.0001433277014
-4.064282896e-06
-3.449135498e-06
0.0001449077546
4.14819392e-06
-0.000145606813
0.0001445230846
-0.0001444551372
-4.605348179e-06
-4.984901439e-06
0.0001438953178
-1.923102404e-06
0.0001439531752
1.869705894e-06
-3.831343789e-06
0.0001426662686
4.12719176e-06
-0.0001429621166
4.91979457e-06
0.0001414995192
-0.0001416453616
-4.773952167e-06
0.0001436585952
3.813289714e-06
-0.0001435752692
0.0001423633176
-0.0001424806028
-3.714058544e-06
-2.297899597e-06
0.0001425504167
-0.0001458734365
-4.189640081e-06
0.0001466527027
3.410373948e-06
-3.851482033e-06
0.0001470795428
3.884239555e-06
-0.0001471123004
0.0001456034644
-0.0001455553661
-3.497233801e-06
4.668855358e-06
0.0001465627154
-0.0001457800085
-5.451562342e-06
3.308853759e-06
-0.0001445134349
-2.431259499e-06
0.0001378978742
8.003720434e-07
-0.0001362669867
-3.479659525e-06
0.000137859738
3.612171657e-06
-0.0001379922502
4.87525987e-06
0.0001370500549
-0.0001374270189
-4.498295918e-06
-3.646864014e-06
0.0001377487283
3.543754662e-06
-0.0001376456189
0.0001376560639
-0.0001376849855
-3.450737906e-06
-2.571658309e-06
0.0001373978757
-0.0001372574769
-4.83309612e-06
0.0001355754012
4.775237428e-06
-0.0001355175426
4.5507227e-06
0.000134540518
-0.0001344817251
-4.609515603e-06
0.0001366957141
5.004151327e-06
-0.0001368246056
0.0001357950216
-0.0001357119353
-4.916182423e-06
-3.173777982e-06
0.0001398906507
3.145000619e-06
-0.0001398618734
-4.596498802e-06
0.0001401949535
4.51139206e-06
-0.0001401098468
4.234604057e-06
0.0001399576482
-0.0001398754529
-4.316799338e-06
0.0001410617548
4.918547301e-06
-0.0001410605075
0.0001406141652
-0.0001405030383
-4.707625679e-06
-3.231705745e-06
0.0001401743574
-0.0001401164297
-2.82898193e-06
0.0001385423139
2.847123707e-06
-0.0001385604556
-3.911923113e-06
0.0001387842412
3.83155835e-06
-0.0001387038764
0.0001380315551
-0.00013797914
-3.699279126e-06
0.0001395938277
4.127562634e-06
-0.0001394867863
0.0001386322417
-0.0001385774579
-3.966706856e-06
-2.964228775e-06
0.0001383905702
-0.0001382553234
-4.626231773e-06
0.0001309827584
4.545369268e-06
-0.0001309018959
4.281476871e-06
0.0001304254879
-0.0001303453681
-4.361596669e-06
-5.065734705e-06
0.000132634057
5.091976216e-06
-0.0001326602985
0.0001312993978
-0.0001311879739
-4.737655707e-06
-3.917365509e-06
3.83968886e-06
-0.0001294625216
3.52796748e-06
-0.0001287652877
-3.634600727e-06
0.0001303395794
4.177182333e-06
-0.0001302352848
0.0001298191775
-0.0001297415139
-3.99502914e-06
-4.148371874e-06
0.0001340200282
4.009532746e-06
-0.0001338811891
3.691824236e-06
0.0001334719246
-0.0001333573942
-3.806354691e-06
0.0001343550935
4.463634608e-06
-0.0001342680054
0.00013417839
-0.0001340646998
-4.262062063e-06
-3.202654256e-06
0.0001332267806
3.226830784e-06
-0.0001332509572
0.0001332420573
-0.0001337614495
-4.546342475e-06
0.0001333170555
3.576753854e-06
-0.0001332019851
0.0001330495775
-0.0001329354972
-3.316734639e-06
-0.0001246520909
3.170781974e-06
-3.45389736e-06
0.0001249352062
-0.000124764558
0.0001248994415
3.750932866e-06
0.0001252545485
4.515820993e-06
-0.0001251569988
-3.270657808e-06
3.281737225e-06
-0.0001247756374
2.95414372e-06
-3.121726774e-06
-0.0001244845078
-3.512064491e-06
3.504308036e-06
-0.0001257605765
-3.446303372e-06
-0.0001245877101
0.0001249128874
1.072737286e-06
-0.000123031481
0.0001243261182
-0.0001246201539
-5.225377156e-06
-3.510036087e-05
0.0001256132105
-0.0001032853959
0.0001252252651
2.8584043e-06
-0.0001283480138
5.2281756e-06
-5.201489399e-06
0.0001283213276
-0.0001298036795
0.0001293445981
3.849247566e-06
0.0001285267503
4.81167245e-06
-0.0001286740216
-2.723237034e-06
2.728735508e-06
-0.000129809178
5.050755892e-06
-1.278715378e-05
-0.0001206116159
3.415581071e-06
-0.0001286815571
-0.000128705617
-3.03189865e-06
-3.638201498e-06
3.606014594e-06
-0.0001264900434
-3.543254595e-06
-0.0001259432831
0.0001275269615
3.84344032e-06
-0.000126319646
0.000126706433
-3.671877774e-06
-0.0001266727567
0.000127089259
-0.000127016854
-5.210032733e-06
-4.806130962e-06
0.0001268142787
0.0001276840497
5.071087477e-06
3.396243598e-06
-3.431587475e-06
0.0001215011289
-0.000121465785
0.0001219999864
3.545886582e-06
-0.0001219435922
0.000122427124
4.774546755e-06
-0.0001222845184
0.0001211428025
-0.0001212527861
-4.067816422e-06
-2.939899991e-06
0.0001207841908
-0.0001187774353
0.0001212558206
3.402796124e-06
-0.0001212623731
-1.003825644e-05
-0.0001333100725
0.0002668285554
1.003331748e-05
-1.251837347e-05
0.0002668360475
1.251590204e-05
-0.0002668335761
1.251173332e-05
0.0002647871378
-0.0002647857485
-1.251312265e-05
0.0002692855102
-1.255098546e-05
1.254959799e-05
-0.0002692841227
0.0002675669336
-0.0002675407176
-1.254458948e-05
-0.0001338555665
-1.004485733e-05
0.0002675347581
0.0002642501962
1.251034442e-05
-0.0002642488073
0.0002616877515
-0.0002616840572
-1.250410803e-05
-0.0001308301338
-1.01255359e-05
0.0002616480447
4.977300703e-06
0.0001315338274
-0.0001315350446
-4.976083543e-06
5.059462847e-06
-5.173546503e-06
0.0001314134814
-5.205043763e-06
0.0001325133785
5.325722243e-06
-4.81088816e-06
0.0001328479017
-3.691883397e-06
0.0001330765429
3.842121164e-06
-4.690369989e-06
0.0001328242972
4.731675503e-06
-0.0001328656027
0.0001424469132
2.710530866e-06
-0.0001424606573
1.371940894e-05
0.0001469931812
-0.0001214792954
1.517750118e-05
-0.0002021190624
0.00014211746
-2.816799512e-06
-0.0001417860397
0.0001424340081
-3.670167767e-06
3.720501994e-06
-4.051421505e-06
0.0001427649276
3.418934531e-06
0.0001430882846
0.0001434347855
-3.8666999e-05
-0.0001180036386
4.768729724e-06
-4.247997062e-06
0.0001429140528
4.74211606e-06
0.0001417881633
3.173913655e-06
0.0001433680175
-0.0001426588261
2.959529924e-06
0.0001428732098
2.698513367e-06
-3.634693777e-06
0.0001488545861
3.880513865e-06
-0.0001491004062
0.0001478368895
-0.000147791646
-3.896725495e-06
-4.694810866e-06
0.0001470678862
-0.0001518983633
4.514018796e-06
0.0001494908452
-2.742618787e-07
3.978861184e-05
-0.0001914127132
-0.0001488992502
-1.211768848e-06
8.246400493e-07
-0.0001327657838
0.0001448170045
-1.917067988e-06
-0.0001420752965
-2.283110957e-06
0.0001458069628
0.0001735682063
1.185750271e-05
-0.000185425709
3.746323277e-05
-2.517004555e-06
0.0001386219781
1.287794567e-05
0.0001378798603
-0.0001132945732
3.114946859e-06
-3.190404673e-06
0.000137588917
-0.0001372308192
3.034149235e-06
0.0001373116168
2.799327563e-06
-0.0001371465642
3.357303153e-06
-3.360771516e-06
0.0001348708962
-0.0001348674278
3.381415428e-06
0.0001344588066
-0.0001344829189
4.706795543e-06
0.0001368847382
-0.0001287135881
3.516593829e-06
0.0001362128557
-0.000135022654
0.0001397587464
-2.983175679e-06
-0.0001398278013
3.834752878e-06
-3.914538662e-06
0.0001398385322
3.733863033e-06
0.0001397641413
4.580795005e-06
0.0001409878239
-0.0001404994182
4.373508435e-06
0.0001407067048
3.166528435e-06
-0.0001402843563
0.0001382120944
-2.972294866e-06
-0.0001381839755
3.263606007e-06
-3.336026257e-06
0.0001382845147
0.0001378718296
3.685364085e-06
0.000139402631
-0.0001389409211
3.611713427e-06
0.0001390145717
3.044096533e-06
-0.0001389380827
4.625617548e-06
-4.740667301e-06
0.0001305405377
0.0001310968394
4.945381779e-06
0.0001312970553
4.908429676e-06
-0.0001312281842
0.000130098688
-0.0001300642131
-4.766206875e-06
-4.306998364e-06
0.0001299319853
0.0001304302751
4.534921821e-06
3.93434647e-06
-4.043833789e-06
0.0001335814119
-4.322904585e-06
0.0001341046593
4.23827347e-06
-4.742735453e-06
0.0001342223506
4.736262536e-06
-0.0001342158777
3.085660365e-06
-3.116475454e-06
0.0001334361569
-0.0001334053418
3.029301907e-06
0.0001332777737
-0.0001332214152
3.171115564e-06
0.0001341639828
-0.000133953683
3.214614437e-06
0.000134204294
-0.0001342477929
1.171758658e-05
0.0001685939275
-0.0001803115141
3.021882663e-06
0.000133071005
-0.0001330635858
0.0001329164978
2.961702529e-06
-0.0001328563176
0.0001329766155
-0.0001330056107
-4.661374784e-06
-3.694550342e-06
0.0001330522445
0.0001334010599
3.850342054e-06
0.0001251060607
-0.0001250030543
-4.121086702e-06
4.261001779e-06
0.0001252458209
-4.400762043e-06
4.118381778e-06
0.0001250382396
0.0001230898814
-4.009147312e-06
-0.0001229799595
5.093188577e-06
-5.273171864e-06
0.0001232698647
4.972774475e-06
0.0001229115985
5.460114117e-06
-5.463899126e-06
0.0001242982101
-0.0001235176369
0.0001237045792
-0.0001223577897
4.032392328e-06
-5.23848598e-06
0.0001200561619
-0.0001188500683
0.000119586644
-0.0001194739384
0.000122318108
-3.670995751e-06
-0.0001222837427
4.536864155e-06
-4.695798159e-06
0.000122477042
4.401295743e-06
0.0001222942865
4.833030287e-06
0.0001226439567
-0.0001224328931
0.0001225701252
-0.0001223977395
1.26101169e-05
-3.43193627e-05
0.0001223677664
-0.0001006585206
0.0001209447516
-0.0001135731207
2.683677375e-06
-2.731413732e-06
0.000122441832
-0.0001548035776
0.0001231678923
-0.0001655174778
0.0001417236665
-0.0001411648722
0.0001815943922
-0.0001949686641
-1.655428852e-06
0.0001560878773
2.593985157e-06
-2.756796061e-06
0.0001538461117
1.323731873e-05
-3.919603842e-05
0.0001522421769
7.73975447e-07
0.0001483258798
-0.0001358625366
-3.17612038e-06
0.0001527167091
-0.0001976783823
0.0001553062235
0.0001446119849
-0.0001356859517
0.000142303589
-0.000142108148
3.234085002e-06
-2.708539588e-06
0.0001434276298
-0.0001447970991
0.000143783187
0.0001421242803
2.750363808e-06
0.0001423334464
0.0001425922409
-1.415735563e-05
4.587012493e-06
-0.0001362096653
0.0001492307861
-0.0001235995299
0.0001482932426
-1.675493871e-05
-0.0001313703361
-0.0002081676519
-0.0001445643478
0.0001455900906
-2.404864838e-06
-0.0001440765509
-0.0001423312873
2.502907569e-06
-2.680828787e-06
0.0001380757954
-0.0001385839381
0.0001385698411
-0.0001259260634
0.0001371065515
-0.0001368788822
2.859792584e-06
0.0001372809081
0.0001375768395
3.365730137e-06
-3.37220388e-06
0.0001354158389
-0.0001354093651
0.000135205839
-0.0001352008804
3.409446523e-06
0.0001358316213
-0.000135724474
0.0001356294371
-0.0001355921944
3.993775689e-06
-4.07189231e-06
0.0001399687674
-0.0001397068175
0.0001397860545
-0.0001395449925
0.0001404860097
-0.000140551187
4.257723753e-06
0.0001406017944
0.0001403601889
3.358497943e-06
-3.409807973e-06
0.0001385936239
-0.0001385710935
0.0001385935652
-0.0001386962646
0.0001385515693
-0.0001384717015
3.512082102e-06
0.0001386512006
0.0001384928443
-0.0001306429181
4.49055173e-06
0.0001306977357
-3.516405411e-06
3.486066748e-06
-0.0001306125795
-3.572941338e-06
-0.0001308453599
-3.429239935e-06
3.373373651e-06
-0.0001302895019
0.0001304073884
-0.0001303505616
0.0001305363435
-0.0001318884369
4.886069798e-06
0.0001320943433
-4.930562772e-06
3.668041473e-06
-0.0001306259156
-1.289479388e-05
-0.0001246960674
-3.635338628e-06
-0.0001311255766
0.0001315612206
-0.0001315285177
0.0001317096347
-0.0001291831115
3.737743033e-06
0.0001292850573
-3.292058109e-06
3.286293548e-06
-0.0001291773469
-3.298307938e-06
-0.0001294562718
-3.207504213e-06
3.125620513e-06
-0.000128683404
0.0001289023778
-0.0001288235885
0.0001290055202
-0.0001301502065
4.09719124e-06
0.0001302301976
-3.342028871e-06
3.358031977e-06
-0.0001301662096
-0.0001302039401
-3.352583204e-06
-0.0001296872386
0.0001299954676
-0.0001299900189
0.0001300976297
3.122097134e-06
0.0001338275354
-3.178037709e-06
-0.0001337715949
0.000133619626
-0.0001336140043
-0.0001337229842
3.895635044e-06
0.0001338368819
-3.779346557e-06
3.675988322e-06
-3.833000209e-06
-3.572265324e-06
3.492644843e-06
0.0001335398799
0.0001336291603
3.184340716e-06
0.0001341456769
-0.0001341154032
0.0001339610634
-0.0001339547604
7.82868547e-07
0.0001329413536
-2.674138329e-06
-0.0001310500839
0.0001339993839
-0.0001214989288
-0.0001340182079
3.711205191e-06
0.0001335338335
-2.556095346e-06
2.537271318e-06
-2.865698883e-06
-3.6651577e-05
-0.0001100046664
0.0001344796218
0.0001336444846
-0.0001330033277
3.460105849e-06
0.0001331199757
-3.36166474e-06
3.274834849e-06
-3.098267862e-06
-0.0001327029282
0.0001328967984
-0.0001327202314
0.0001330401696
2.863572449e-06
-0.0001326221013
-0.0001325134941
0.000124851597
-3.610442402e-06
-0.0001246950519
3.679145866e-06
-3.827212442e-06
0.0001249996635
3.559864617e-06
0.0001250544875
3.973714439e-06
0.0001250441089
-0.0001249117527
0.0001250582547
-0.0001247712623
3.243355281e-06
-0.0001247328803
-0.0001245734234
3.544072391e-06
0.0001254446404
-0.0001254844048
-0.0001249052853
-1.079610219e-05
0.00012601467
-0.0001141458305
0.0001587151969
-0.0001695112991
0.0001264513641
-2.836528037e-06
4.928377743e-06
-4.029878307e-06
0.0001255528646
0.0001250776891
3.55413565e-06
0.0001252309941
-0.0001260365463
0.0001255608036
-0.0001634007048
3.584312464e-05
0.0001302863157
1.118141948e-05
-0.0001745821243
-9.532104233e-07
-0.0001176745481
0.0001295216196
-0.0001064656488
-0.0001285835045
3.287902061e-06
0.0001287111835
-3.113028925e-06
3.015718072e-06
-0.0001284861937
-0.0001286689655
-2.850600076e-06
-0.0001268082274
0.0001284688053
-0.0001283036873
0.0001287248087
3.574511984e-06
0.0001263629164
-0.0001263314138
0.0001261807152
-0.0001261494578
3.758856572e-06
0.0001271464395
-0.0001270618557
0.0001269187764
-0.0001268317976
0.0001216359091
-3.48906603e-06
-0.0001215784305
3.995309092e-06
-4.131063857e-06
0.0001217716638
3.880949647e-06
0.0001216154884
4.266203596e-06
0.0001221350786
-0.0001218178319
0.0001219529717
-0.0001217610114
0.0001204297313
-3.373521012e-06
-0.0001199961103
3.140188788e-06
-3.535352328e-06
0.0001208248949
0.0001211929659
3.715988241e-06
0.000121420782
-0.0001209060525
0.0001210866884
-0.0001208767774
0
0
0
0
0
0
0
0
0
0
0
0
0
0
0
0
0
0
0
-7.853330719e-08
0
-1.825660115e-05
1.892672124e-06
-2.283563798e-07
8.334580694e-06
0
0
0
-3.120853715e-05
-6.479307443e-07
-7.436822486e-05
4.156909957e-06
-1.745693093e-06
6.053129783e-05
0
0
0
-8.619655954e-05
-1.682878316e-06
0
0
0
0
0
0
0
0
0
-2.686356506e-06
0
-7.298145841e-05
9.112572103e-06
-4.380537167e-06
3.901178064e-05
0
1.09594393e-07
-0.0001145567718
-7.492819155e-06
-0.0002620386802
2.335177754e-05
-1.613172787e-05
0.0002113344541
3.366810818e-05
5.202027304e-06
-0.0003114913802
-1.760110003e-05
-0.0004356448851
2.21516812e-05
-1.664401216e-05
0.0003997111347
0.0001216362958
7.510095117e-06
-0.0004646225457
-1.42321548e-05
0
0
0
-5.451660221e-05
7.855464032e-06
-4.165584702e-06
1.946034647e-05
0
3.051950863e-07
-0.0001050739604
-9.518293556e-06
-0.0003224328098
3.961582926e-05
-3.082111798e-05
0.0002420438685
7.694703313e-05
1.528044508e-05
-0.0004066058287
-3.73106115e-05
-0.0006531786721
5.801690119e-05
-4.903890586e-05
0.000574581798
0.000295099298
3.141840466e-05
-0.0007253954911
-4.928291736e-05
-0.0008903647191
4.605327852e-05
-4.021764558e-05
0.000844856418
0.0005112992535
2.80365765e-05
-0.0009258523999
-3.39021482e-05
3.444879745e-06
-2.601385266e-05
-2.001258689e-06
-0.0002098074371
3.239218221e-05
-2.55329478e-05
0.0001315135003
4.195063073e-05
1.176302226e-05
-0.0003013972616
-3.621598744e-05
-0.0006252525237
6.973400343e-05
-5.715249699e-05
0.0005159437942
0.0003059396549
4.869970568e-05
-0.0007301277485
-7.101985445e-05
-0.0009905393088
8.672277671e-05
-8.25624144e-05
0.0009108992731
0.0006665079783
6.678257749e-05
-0.001056534273
-7.999750448e-05
-0.001188776343
6.235651405e-05
-5.997574532e-05
0.001156552807
0.000942787215
5.142834815e-05
-0.001211126636
-4.994428485e-05
3.445196475e-05
-8.501516464e-05
-1.094937654e-05
-0.0003501060386
5.475077504e-05
-5.068050426e-05
0.0002477336801
0.0001637702789
3.891865102e-05
-0.0004657905336
-6.534200268e-05
-0.0008135666517
0.0001067009884
-0.0001012612573
0.0007007009615
0.0005658500028
8.476318193e-05
-0.0009183260558
-0.0001078503238
-0.001166102909
0.0001036657853
-9.27409077e-05
0.001095659282
0.0009900566839
8.099412628e-05
-0.001214939442
-8.371041685e-05
-0.001238621069
4.145409585e-05
-5.343598858e-05
0.001249945882
0.001198683301
6.18127883e-05
-0.001228909364
-4.596130489e-05
6.733264377e-05
-0.0001337750242
-2.108485852e-05
-0.0004318656108
7.039447151e-05
-6.805858645e-05
0.0003199378954
0.000269178955
6.016505185e-05
-0.0005502880704
-8.409389998e-05
-0.0008963885678
0.000122367287
-0.0001192611191
0.0007872084867
0.0007293549917
0.0001098173085
-0.0009948510579
-0.0001221455112
-0.00118323007
0.000119230792
-0.0001174716623
0.001143794827
0.001111141899
0.0001126365123