/*--------------------------------*- C++ -*----------------------------------*\
| =========                 |                                                 |
| \\      /  F ield         | OpenFOAM: The Open Source CFD Toolbox           |
|  \\    /   O peration     | Version:  v2012                                 |
|   \\  /    A nd           | Website:  www.openfoam.com                      |
|    \\/     M anipulation  |                                                 |
\*---------------------------------------------------------------------------*/
FoamFile
{
    version     2.0;
    format      ascii;
    class       volVectorField;
    location    "0.43";
    object      U;
}
// * * * * * * * * * * * * * * * * * * * * * * * * * * * * * * * * * * * * * //

dimensions      [0 1 -1 0 0 0 0];


internalField   nonuniform List<vector> 
3019
(
(99.99911929 0.002154931151 -3.645099024e-21)
(99.99877961 0.007367582385 6.085117249e-26)
(99.997879 0.01587644031 -3.640840198e-21)
(99.99637501 0.02982880683 -3.621188506e-21)
(99.99974484 0.02373740402 3.496144532e-21)
(99.99812961 0.03963525335 0)
(99.99709838 0.06459332209 0)
(99.99674614 0.09943680811 -6.207464471e-21)
(99.99573413 0.1463592592 7.277139773e-22)
(99.994945 0.204978141 -4.814813336e-21)
(99.99482788 0.2697084945 5.841607341e-22)
(99.99593438 0.3287285338 0)
(99.99209489 0.005589512467 1.459549017e-20)
(99.98833144 0.01946526709 3.647730429e-21)
(99.97994581 0.04264181392 2.549327467e-20)
(99.96562973 0.08098475315 -1.091901724e-20)
(99.96705401 0.1118054651 3.521670454e-21)
(99.94495171 0.1888690008 -3.724930029e-23)
(99.91521558 0.3080138958 0)
(99.89826672 0.4180994219 -6.209574757e-21)
(99.8626429 0.6227001526 -5.787961327e-21)
(99.83155227 0.8848818599 -1.017992423e-20)
(99.81939074 1.184156887 -4.255949547e-21)
(99.84331947 1.46874678 -5.60317434e-21)
(99.97921598 0.006616213683 -1.456301483e-20)
(99.9686266 0.0240319315 -2.923360355e-20)
(99.94574311 0.05534861355 -6.561428416e-20)
(99.9075663 0.1089157732 8.731748391e-20)
(99.88702149 0.1732425971 -7.206987972e-21)
(99.82054815 0.3029164957 -7.034256698e-21)
(99.72916183 0.5049398189 -1.221888257e-20)
(99.67397297 0.7302717348 0)
(99.55981095 1.115030068 2.395309594e-20)
(99.45682814 1.624292471 0)
(99.41635699 2.235751288 1.467892874e-19)
(99.51221234 2.83665407 4.057348527e-19)
(99.96578298 0.003759125564 -7.33477329e-21)
(99.94553828 0.01644629662 5.136474944e-20)
(99.90245817 0.04652660233 -1.469371501e-20)
(99.83159735 0.1020912765 0)
(99.77442021 0.1909261639 0)
(99.64400237 0.3550486179 -5.676245582e-20)
(99.46022439 0.6194763865 -1.136433699e-19)
(99.30617349 0.9477436605 2.677445122e-20)
(99.0440861 1.499447376 0)
(98.78196644 2.279346407 1.401201177e-19)
(98.65270714 3.274555763 -9.611540668e-21)
(98.83079635 4.364180063 2.555208671e-19)
(99.96101987 -0.003899622738 0)
(99.92957165 -0.00629393104 0)
(99.8633874 0.01053154183 7.401482706e-21)
(99.75380179 0.05422368235 1.119093955e-20)
(99.65129191 0.1534994723 1.849816716e-20)
(99.43852905 0.3248031103 0)
(99.13752096 0.6050205847 0)
(98.83664524 1.006625031 -5.632565471e-20)
(98.34426383 1.691582152 1.101149486e-19)
(97.80787803 2.71870048 -5.336239359e-20)
(97.37934505 4.23459501 4.234067436e-19)
(97.55135169 6.165523299 2.989547469e-19)
(99.97526851 -0.01666084844 0)
(99.93240651 -0.04509044795 0)
(99.84335597 -0.05504067978 -1.483439471e-20)
(99.69389659 -0.03874167848 3.016588977e-20)
(99.53761383 0.05257627418 0)
(99.23830456 0.1975477355 0)
(98.80367237 0.4509317733 2.355851755e-20)
(98.32682215 0.8645650014 -2.669236657e-20)
(97.55265555 1.555987479 1.212030348e-19)
(96.52882932 2.716583991 1.173305906e-19)
(95.37759141 4.762548407 0)
(94.95464321 8.170292497 2.940078279e-20)
(100.0184857 -0.03420404368 3.624998686e-21)
(99.96534654 -0.0987150389 -3.65109268e-21)
(99.8564119 -0.1481740064 7.443401887e-21)
(99.67182074 -0.1753014818 -2.72334584e-20)
(99.45984665 -0.1120190918 6.464525975e-23)
(99.08202647 -0.02632506916 2.319948785e-20)
(98.52605356 0.1527138869 -3.16218971e-20)
(97.86886865 0.4978602536 -9.446482522e-20)
(96.80901237 1.047636912 0)
(95.18197964 2.036613863 7.582124338e-20)
(92.74487612 3.946058093 -8.502155387e-20)
(89.31587885 8.702542296 -2.299819228e-19)
(100.0992498 -0.05559894477 -3.625388322e-21)
(100.0381851 -0.1641998802 3.652413433e-21)
(99.91456324 -0.263026837 -4.631660172e-21)
(99.70426728 -0.3460563877 -3.109486042e-21)
(99.44433201 -0.3293270447 1.323745739e-20)
(99.00694025 -0.3290141905 7.866115136e-21)
(98.36261817 -0.2697682138 6.17791589e-20)
(97.57720923 -0.0688455249 1.300075113e-19)
(96.31695066 0.1945348613 0)
(94.29600074 0.6382340339 -3.619352025e-23)
(91.02290469 1.228590904 1.09196176e-19)
(84.78243796 1.846653083 -2.714687429e-19)
(100.2239009 -0.07943412938 -1.749326232e-21)
(100.1581408 -0.2371503778 -1.314529498e-21)
(100.0266137 -0.391290622 -4.500834174e-22)
(99.80268708 -0.5376706785 1.362266344e-21)
(99.50723943 -0.5804173165 -2.446794143e-23)
(99.03808496 -0.6803880609 0)
(98.3518655 -0.7628880737 2.037595825e-21)
(97.51567219 -0.744059918 0)
(96.2051729 -0.8069391243 -1.480532133e-19)
(94.19968187 -0.9382564775 -4.08185336e-20)
(91.42334684 -1.453652551 1.01888405e-19)
(88.40894267 -3.156532994 -2.16209911e-19)
(100.3957256 -0.1040135713 3.448742831e-21)
(100.328879 -0.3123429999 5.057539135e-23)
(100.1968621 -0.5232681634 0)
(99.97237422 -0.7352460405 1.799932483e-22)
(99.65653718 -0.8439215391 -1.820129812e-21)
(99.18446587 -1.046317662 1.932519496e-21)
(98.50310778 -1.269540268 1.99425398e-21)
(97.68066152 -1.42749676 -1.624218432e-20)
(96.43516413 -1.761274327 0)
(94.62757867 -2.249127583 0)
(92.41119059 -3.047675259 9.102643318e-20)
(90.45119197 -4.167306226 8.946430878e-20)
(100.614656 -0.127690038 -1.699269426e-21)
(100.550153 -0.3846019245 1.713750849e-21)
(100.424462 -0.6494345288 1.673681874e-21)
(100.2128375 -0.9244199304 -1.561074585e-21)
(99.8899043 -1.099112329 -1.797118014e-21)
(99.44052777 -1.394936531 0)
(98.80138435 -1.743873901 -1.919393395e-21)
(98.03391914 -2.05405336 -1.615937503e-21)
(96.90258784 -2.588320361 1.455366021e-19)
(95.28284488 -3.283063448 -3.702187001e-20)
(93.32790276 -4.149181517 0)
(91.57941619 -4.982040993 1.040212908e-19)
(100.8773856 -0.1489841862 6.25417593e-21)
(100.8183152 -0.4492060155 0)
(100.7042944 -0.7600159877 -1.670422111e-21)
(100.5152768 -1.096856931 0)
(100.1940266 -1.32892381 0)
(99.79179578 -1.700994279 -5.353340697e-21)
(99.22184973 -2.153388539 -8.644905456e-22)
(98.53328527 -2.586977349 -1.219151261e-19)
(97.5376592 -3.272003823 3.856035521e-21)
(96.07702722 -4.128572429 0)
(94.22197694 -5.119074856 1.52829269e-19)
(92.42186856 -5.977355039 0)
(87.97311944 -2.936601604 1.096749447e-19)
(90.28128752 -4.059534506 0)
(91.46301317 -4.880841694 4.193819591e-20)
(92.31203462 -5.833211593 1.985413179e-20)
(84.84681906 3.061845159 2.536579376e-19)
(92.16559117 -2.716526927 -9.513608477e-20)
(90.48866485 -3.868442973 9.966581279e-22)
(88.73539667 -2.764137503 -5.019563477e-22)
(93.10722847 -3.895509279 0)
(91.65776475 -4.753558802 -8.244859647e-20)
(90.66031015 -3.989264467 -9.01677959e-20)
(90.92463071 -4.484878218 -2.168471083e-20)
(90.20313359 -5.043125307 8.953111245e-20)
(89.58055343 -4.698325467 2.06027824e-20)
(93.9896377 -4.879347175 -8.015658838e-20)
(92.53655348 -5.716461774 7.746355792e-20)
(91.77572266 -4.860087704 8.180265556e-20)
(91.89883972 -5.310710495 6.035213682e-20)
(90.92707111 -5.632068499 -1.753667817e-19)
(90.75800491 -5.317369075 3.9683481e-20)
(92.64936334 -5.85725608 -7.591899909e-20)
(92.86798142 -6.44660801 -6.032327373e-20)
(91.29496658 -6.879256917 -1.731033971e-19)
(91.13417847 -6.263462566 1.180596699e-19)
(83.6367097 -5.67336755 0)
(87.60516147 -5.277415561 3.752452477e-19)
(76.23529496 1.491369243 -3.345848708e-19)
(82.72393479 -5.483906101 0)
(89.50557744 -4.638850856 0)
(89.02196491 -4.450495717 8.394342174e-20)
(89.67889425 -3.727294956 1.933969978e-19)
(88.90054451 -4.530305646 1.087273764e-19)
(89.37112811 -4.707785354 0)
(87.86912634 -5.143749835 -2.945904832e-19)
(88.82420982 -4.55230378 -8.660448561e-20)
(90.71128467 -5.280859055 -1.964462848e-19)
(90.28429733 -5.074048493 -1.183630966e-22)
(91.07062853 -4.585498452 8.516717889e-20)
(90.12821242 -5.131211944 2.35948128e-19)
(90.56244448 -5.322290557 1.237318812e-19)
(89.40698548 -4.743627815 6.11649433e-20)
(90.08783132 -5.114317419 -1.501363918e-19)
(91.1152686 -6.223339161 3.50858487e-19)
(90.93489865 -5.663365312 -1.176652948e-19)
(92.00014661 -5.43208972 -5.993284759e-20)
(90.77885446 -5.667755412 1.222466745e-19)
(90.88204636 -6.23998166 -2.389674413e-19)
(90.58371861 -5.342814491 -1.23885278e-19)
(90.77569715 -5.637086869 0)
(91.3039993 -6.92952207 -1.157834318e-19)
(92.93173982 -6.529641642 6.095202167e-20)
(90.90135979 -6.932935126 1.183980969e-19)
(90.89887134 -6.279641994 -4.820196361e-19)
(90.90641647 -6.885530254 0)
(91.20859487 -0.9031457946 2.693198082e-21)
(88.36718177 -2.50150023 1.07862357e-19)
(86.03202832 1.914733723 -3.653473095e-19)
(85.85169654 -1.127264326 1.231741755e-19)
(83.09975759 -4.594912772 1.259984474e-19)
(77.98750235 1.760402057 -3.932552313e-20)
(89.42349097 -3.608628166 1.991033231e-19)
(88.93378756 -4.464142972 -8.466269881e-20)
(87.84611704 -4.87336753 0)
(87.54361063 -4.944010267 -7.188499707e-22)
(83.87734018 -4.850468252 -1.253914032e-19)
(86.40220947 -1.780796522 1.284571244e-19)
(86.5347958 -7.54876733 -9.708668051e-20)
(64.26788152 0.8368552212 0)
(74.03106218 -10.48324926 6.034588264e-19)
(81.48162949 12.54692881 -4.016809814e-19)
(76.12610712 3.345732602 3.314387288e-19)
(91.25295229 -6.561109359 -1.051195373e-22)
(92.11401319 -6.448822858 -4.179857595e-22)
(92.27877823 -6.702110209 -6.828253264e-20)
(83.79188507 -10.11899697 -2.556410586e-18)
(86.26236536 -7.837895764 -1.56886971e-18)
(85.81074419 -5.701412327 0)
(86.35286912 -7.681984684 0)
(83.71224063 -9.47779192 2.577961358e-18)
(87.44743552 -5.989676572 -9.910717443e-19)
(86.59964615 -7.422272142 0)
(86.36534739 -5.611550718 -1.042851795e-19)
(78.50068011 -2.971992983 1.522460996e-19)
(74.60835885 -8.980073189 0)
(66.64043462 1.032558455 0)
(83.05624824 -9.644106669 5.169272475e-20)
(75.93033719 -9.488977292 0)
(79.58318064 -3.956692114 2.971679044e-19)
(75.56554289 -10.94349801 0)
(83.21468832 -10.31714002 0)
(89.13882271 -4.524625678 1.801752401e-19)
(87.87210738 -4.651119714 0)
(89.16622945 -4.538962744 -6.018914001e-20)
(88.40773029 -4.791167326 2.626071918e-19)
(87.83439254 -5.044282595 2.494707439e-22)
(87.48232275 -5.849382761 3.463900866e-19)
(87.88668608 -4.655726695 0)
(87.8479208 -4.946072303 8.069661036e-19)
(88.53458247 -4.706870223 -1.31716365e-19)
(90.36924036 -5.208451364 6.041246824e-20)
(90.39818833 -5.223485547 -1.213622692e-19)
(89.71676957 -4.957892137 -6.125808773e-20)
(89.76464776 -4.987286895 -6.113578062e-20)
(90.8421191 -5.926502437 -3.174199706e-20)
(90.85061228 -5.960673426 0)
(90.70556153 -5.462005952 -1.63872194e-21)
(90.71812143 -5.48258118 8.780993975e-20)
(92.33754498 -6.790805368 -6.818213203e-20)
(90.98589188 -6.521945378 -3.224251864e-19)
(90.98798152 -6.561867293 -3.255519959e-19)
(70.74105128 16.63464575 0)
(63.99677016 3.420492373 0)
(90.84906361 -5.469876986 0)
(91.37779288 -5.348206599 1.408049105e-19)
(91.50691134 -5.511543647 -7.048873128e-20)
(91.18129647 -5.160680099 0)
(91.33177048 -5.298476823 -7.047290826e-20)
(90.83423384 -5.450539223 -1.118794444e-19)
(91.91083971 -6.134540274 -1.391694744e-19)
(92.06243854 -6.367476189 2.075118476e-19)
(91.24383206 -6.519522474 6.125632283e-20)
(90.55556456 -5.185125118 1.967697358e-19)
(90.94987843 -4.992749317 0)
(91.12696796 -5.116976871 -7.124600261e-20)
(89.99558166 -5.367418612 -7.132248078e-20)
(89.9673184 -5.316078606 -2.764822721e-19)
(90.49856906 -5.274972325 0)
(91.03199136 -5.949459931 0)
(91.72148992 -5.839572848 7.026051603e-20)
(91.86170515 -6.058657314 6.923636309e-20)
(91.5484539 -5.572289834 7.015941936e-20)
(91.67675379 -5.769478495 0)
(91.01883422 -5.913441918 -3.006335124e-20)
(90.79434102 -5.776218865 1.879898262e-19)
(89.66482365 -5.749204101 7.200797388e-20)
(89.71879301 -5.607257636 1.393523388e-19)
(88.69684675 -6.170193184 6.186599086e-19)
(88.73043932 -6.046100657 -2.874408954e-19)
(90.8450911 -6.109960277 1.767330641e-19)
(90.64478551 -5.39325244 0)
(90.0393819 -5.44375178 0)
(90.00987198 -5.387996153 -2.873289904e-19)
(89.7419752 -5.578500181 4.132852006e-19)
(89.79068655 -5.528539772 6.711762843e-19)
(90.76079649 -5.561933566 -2.387668757e-19)
(90.9509782 -6.387369688 0)
(88.79626352 -6.32178245 0)
(88.70527494 -6.224061787 -6.250140413e-19)
(88.60495692 -6.675292285 -1.989417325e-19)
(90.98119685 -6.759430074 1.016448198e-18)
(86.97495464 -6.800011528 0)
(87.1214749 -6.618355756 0)
(67.45419005 -6.056386025 0)
(69.02003745 -7.663808709 0)
(85.099928 -9.036550075 1.575485006e-18)
(85.42485252 -8.689710889 0)
(85.49619581 -8.442921413 0)
(85.17581792 -7.181524749 3.437796696e-19)
(86.224211 -6.817821339 0)
(83.29581769 -7.493038911 0)
(84.76082584 -7.286790308 0)
(85.14626381 -8.72517225 0)
(87.26151791 -6.551250768 -2.162902141e-20)
(87.2966601 -6.091162084 0)
(87.68945388 -5.707513728 0)
(86.5057988 -6.675769894 0)
(87.1333459 -6.230919991 -7.25317878e-20)
(87.10870739 -6.727520447 0)
(80.53182255 -10.08519266 2.249813151e-19)
(80.73184179 -7.416201067 0)
(82.72540737 -7.512299409 1.579221182e-19)
(79.59006818 -11.35632536 9.307826557e-19)
(80.70801989 -11.18438746 -1.821694671e-18)
(87.93640338 -4.620988292 3.90354961e-19)
(88.66419228 -4.607119541 -2.203798383e-19)
(88.66131821 -4.597435602 1.206424015e-18)
(88.57420557 -4.642393759 7.368767563e-20)
(88.64523421 -4.615270133 -1.486306143e-19)
(87.92037819 -4.65221819 0)
(88.6744666 -4.702245878 2.742022876e-19)
(88.7119337 -4.83092014 2.807972038e-19)
(88.65237279 -4.611532524 -2.654214807e-19)
(88.66723534 -4.672669246 2.711494184e-19)
(87.72644795 -5.331656165 -8.87146208e-20)
(88.11989218 -5.203738043 0)
(88.28845325 -4.978316692 -1.394627886e-19)
(87.79124103 -5.594183933 -1.333614275e-19)
(88.04985983 -5.292860536 2.704896861e-19)
(87.68689743 -5.449812562 7.113348745e-19)
(87.85864274 -4.789127842 9.10056326e-20)
(88.46854496 -4.74097014 7.156534378e-20)
(88.55174369 -4.658625503 -7.299069383e-20)
(88.33228195 -4.914928713 -4.174281691e-19)
(88.43607144 -4.775239433 -3.550215246e-19)
(87.82938352 -4.818383084 -9.074998861e-20)
(89.433662 -5.271098629 5.474096682e-19)
(89.48972048 -5.302690326 -1.400135348e-19)
(89.3519698 -5.311228501 3.910911747e-19)
(89.42376038 -5.272370285 1.355967603e-19)
(89.56238302 -5.305600203 0)
(89.568419 -5.362727062 0)
(89.51650737 -5.30740163 7.028034727e-19)
(89.56289769 -5.300614122 -6.459871047e-19)
(88.92773403 -5.068326369 -2.908564256e-19)
(89.08812359 -5.160759462 1.487688114e-19)
(88.73808694 -4.88583988 -5.686039663e-19)
(88.87525124 -5.031175647 -5.79459774e-19)
(89.34020205 -5.268276151 5.67979758e-19)
(89.34651229 -5.302417506 1.308682737e-19)
(89.14184814 -5.185949348 5.249601622e-19)
(89.29800841 -5.250209814 9.350444865e-21)
(89.70697899 -5.919099635 -1.875462927e-20)
(89.66992687 -5.807405913 -5.82486219e-19)
(90.80429866 -5.815649439 2.51828465e-19)
(88.63110426 -5.768445714 1.317444958e-18)
(88.69625228 -5.864580955 4.190509892e-20)
(88.71466327 -5.52875437 6.450969097e-19)
(88.61973324 -5.695879834 0)
(88.65584617 -5.88731015 0)
(90.84806478 -6.065616726 1.183230899e-19)
(88.88011616 -6.006051139 2.620592569e-18)
(89.66796433 -5.952122031 2.146770997e-20)
(89.82932963 -5.497777126 -1.006285632e-18)
(90.04181578 -5.471076047 -1.114423915e-18)
(90.66197935 -5.412688883 0)
(89.58188558 -5.467421846 -2.456458548e-18)
(88.89202717 -5.458472485 5.796861452e-19)
(89.58066967 -5.386160427 -6.001562254e-19)
(89.58317887 -5.44616117 7.793973182e-20)
(88.82061144 -5.469030358 -5.524408053e-19)
(88.7508545 -5.503261715 6.411265533e-19)
(88.86192449 -5.456192347 0)
(88.83356809 -5.462889912 -7.857662756e-20)
(90.75264852 -5.540818086 1.186463252e-19)
(89.8000137 -5.518475967 -1.329207748e-19)
(89.81427967 -5.506682973 1.277251277e-19)
(88.79164673 -6.386831913 5.164486768e-19)
(88.81073553 -6.336784103 0)
(90.96464137 -6.419617553 2.496055516e-19)
(90.98661393 -6.705107912 2.616906564e-19)
(88.62319536 -6.610100176 -1.124228706e-18)
(88.7638273 -6.412370418 4.003708188e-20)
(89.93382294 -4.923282949 0)
(90.35541134 -4.650533211 -7.32913873e-20)
(90.59787816 -4.78828016 0)
(90.02284619 -4.444835054 0)
(90.27211405 -4.600484735 -7.36172469e-20)
(89.84096222 -4.87283281 2.039912519e-20)
(90.67428686 -4.830915309 0)
(90.88548076 -4.952385406 -7.152174399e-20)
(90.49515904 -5.157033193 -2.560735359e-19)
(90.24164123 -5.161884243 0)
(89.78157995 -5.262157616 0)
(89.68305383 -5.260995806 -2.515553731e-19)
(89.65598544 -5.250332271 1.27330336e-19)
(89.56007894 -5.217724383 2.813504111e-19)
(89.95577486 -5.072250156 0)
(86.73839434 -7.243031734 1.643392653e-18)
(84.31621432 -9.789432244 0)
(83.61345086 -10.27337794 -6.114153036e-18)
(85.97744851 -8.100512092 0)
(86.08492117 -7.927013729 -1.740343586e-19)
(86.07853685 -7.61096292 -1.655206031e-19)
(86.34883717 -7.38647975 0)
(87.41367663 -6.158407276 -5.989700363e-19)
(87.5310161 -6.076663963 -2.860047917e-19)
(87.60941582 -5.926117168 8.561956472e-19)
(86.59406471 -7.162779519 0)
(86.8083197 -6.943994322 0)
(86.80592654 -7.157672368 0)
(77.49372032 -6.28465767 0)
(79.94916581 -7.179295216 1.228280555e-19)
(79.50104672 -10.13626979 -4.560908738e-19)
(77.01161032 -11.29978395 1.027170728e-18)
(77.06848381 -13.11206436 0)
(75.28383609 -12.41944946 0)
(83.16937393 -10.66161147 0)
(82.55311383 -11.10284589 -2.034323715e-18)
(82.52011881 -10.61258593 1.766828408e-18)
(87.72328894 -4.547059499 1.333956269e-18)
(88.08512396 -4.569034185 0)
(87.98025241 -4.571947802 0)
(88.22469463 -4.67180865 8.197656123e-20)
(88.2371117 -4.666687972 5.793485011e-19)
(87.87267534 -4.654108347 -8.329990624e-19)
(87.79639151 -4.749298522 -7.051647612e-19)
(87.7806442 -4.820650801 3.737049199e-21)
(87.90775747 -4.584418707 0)
(87.8823875 -4.595907871 -1.686739856e-19)
(87.79419457 -5.150046447 -7.998749117e-19)
(88.03578999 -5.151316555 6.113343407e-19)
(88.07550413 -5.06313062 0)
(87.68090005 -5.797119021 -1.448936804e-19)
(87.75625783 -5.679552761 -4.394685924e-19)
(87.54541501 -5.720503453 7.070862686e-19)
(87.90161725 -4.683763826 0)
(88.21513213 -4.715060951 0)
(88.22054991 -4.685405681 0)
(88.1017045 -4.978912826 -6.156467578e-19)
(88.11351965 -4.912337713 1.555470659e-19)
(87.83528219 -4.879628992 0)
(89.87650371 -5.291463716 -3.974325672e-19)
(89.80484407 -5.26545662 -2.587016855e-19)
(90.27558207 -5.176218826 0)
(90.47592524 -5.258115506 0)
(89.95791324 -5.30761362 2.741561976e-19)
(89.90231083 -5.297467011 -5.34088025e-19)
(89.30747795 -5.111647978 0)
(89.15298144 -5.019896364 4.154741312e-19)
(89.57512191 -4.875430047 -1.219600131e-19)
(88.12463411 -5.207181237 -7.099906386e-19)
(88.17629715 -5.2327627 -8.896147009e-20)
(87.78736283 -4.916362103 8.00371709e-19)
(87.831738 -5.00362279 -8.042237753e-19)
(88.15859478 -5.333928704 -2.022235601e-17)
(88.22671176 -5.255069516 0)
(88.27540607 -5.27413497 6.225032004e-19)
(89.90920241 -5.049631753 -6.122269151e-20)
(89.51397326 -5.201155562 -8.916763448e-21)
(89.35982129 -5.137185697 0)
(89.67538525 -5.692226984 -7.123288927e-20)
(90.23420461 -5.72669982 6.801922852e-20)
(90.23070332 -5.773811437 0)
(88.69579849 -6.126881511 -1.228620885e-18)
(89.88579083 -6.198253007 6.442451734e-19)
(89.89068878 -6.233859539 -3.922303411e-19)
(89.90937673 -6.117359065 -1.251904733e-19)
(89.88463514 -6.16300724 -1.26635794e-19)
(88.69315765 -6.087438995 0)
(88.85900341 -6.834296298 0)
(88.84481521 -6.858540144 1.199629246e-18)
(88.76741072 -6.302529612 -1.173262568e-18)
(89.9376777 -6.347246958 0)
(89.95686351 -6.371661927 6.07607875e-19)
(89.89888298 -6.274814305 2.627997249e-19)
(89.91532242 -6.315200235 -3.997470565e-19)
(88.73119919 -6.272039386 -7.057690949e-19)
(89.04907633 -6.800733709 0)
(88.90187021 -6.81585075 -2.787769722e-19)
(89.8260966 -6.763491692 3.672907265e-20)
(89.26649445 -6.777780838 -2.803639798e-20)
(88.1636669 -6.714509691 0)
(86.86428249 -6.99143302 -1.566622458e-18)
(87.17419601 -6.355681268 0)
(60.63607179 -6.949816274 0)
(62.92324648 -9.421846393 0)
(71.08992073 -14.33082803 0)
(73.19375355 -14.27048525 0)
(65.61609441 -11.35439116 0)
(68.51014181 -13.72459057 0)
(67.02515357 -14.75775866 0)
(84.73344538 -9.411449082 0)
(85.70787745 -8.377351317 0)
(87.30831525 -6.408161474 1.270152654e-18)
(87.43139834 -6.24323764 0)
(87.33101335 -6.34601416 1.678036054e-20)
(86.96790137 -6.92217875 0)
(86.99129716 -6.743003066 0)
(87.1527005 -6.565345917 0)
(79.7345502 -12.69014011 0)
(78.54592616 -13.03657611 9.40140678e-19)
(78.35190969 -11.40932183 -9.489739114e-19)
(75.07396001 -14.02932339 0)
(76.65631074 -13.80472623 0)
(81.68903803 -10.92371548 0)
(81.78509622 -11.6389908 0)
(80.82758524 -12.20641902 2.045052569e-18)
(88.29422924 -4.639033212 -4.063700492e-19)
(88.29748526 -4.614377925 2.342515056e-20)
(87.92759648 -4.57545172 2.713333531e-18)
(87.8898051 -4.659943819 -6.517279828e-19)
(88.25780891 -4.66367754 0)
(88.28330783 -4.655948526 4.220001119e-20)
(87.83677231 -4.659480018 -8.746348266e-20)
(87.81661147 -4.696769731 8.784066752e-20)
(87.87030852 -4.610690501 1.723442611e-19)
(87.85496185 -4.631749186 0)
(87.95082636 -5.334064279 1.50871877e-19)
(87.99358865 -5.238162562 0)
(87.75550678 -5.237730912 8.920265384e-20)
(87.62298006 -5.585193914 0)
(87.83257647 -5.56168538 -1.48188771e-19)
(87.89907088 -5.443774126 -5.954096245e-19)
(88.16818854 -4.797099372 -6.370249514e-19)
(88.19712693 -4.75683435 1.553422996e-21)
(87.89194058 -4.737057486 7.276807432e-19)
(87.82285137 -4.840973644 0)
(88.12306178 -4.86507699 -2.3547591e-19)
(88.14072508 -4.830261853 7.914092019e-20)
(89.44587799 -5.279264189 -1.381589222e-19)
(88.69159107 -5.262803867 -8.160836743e-20)
(88.69292972 -5.252241473 -5.691323095e-19)
(88.73177926 -5.293044647 0)
(88.70490829 -5.280595958 -6.540257304e-19)
(89.46483032 -5.291819212 6.951256336e-19)
(89.37859881 -5.303338084 0)
(88.67791601 -5.310869417 0)
(88.66230619 -5.339833747 0)
(88.70091978 -5.254671619 0)
(88.69928514 -5.276308998 1.281001034e-18)
(89.40658094 -5.285589935 -5.360624446e-19)
(89.56060116 -5.318905535 7.300585869e-20)
(88.76977921 -5.276616211 0)
(88.78596596 -5.262740769 -5.790608893e-19)
(88.75901482 -5.330073407 -1.674181949e-19)
(88.759091 -5.300070521 8.338617181e-20)
(89.5617803 -5.338706262 5.153533114e-19)
(89.53983029 -5.306648934 -1.416843749e-19)
(88.79003147 -5.286135905 -8.183255045e-20)
(88.76354115 -5.293682694 -6.549273405e-19)
(88.80080782 -5.260714312 5.761726381e-19)
(88.80379947 -5.2714739 8.216394906e-20)
(89.55604033 -5.302768754 6.408303403e-19)
(88.01839834 -5.144788487 -7.116359644e-19)
(88.07166009 -5.178577072 8.860439289e-20)
(88.98062757 -5.102306826 -2.929242799e-19)
(88.64692189 -5.14669311 0)
(88.59219771 -5.113278463 0)
(88.75739352 -5.202797625 -1.561363031e-19)
(88.70230627 -5.176234686 6.994717625e-19)
(89.03425706 -5.133050281 -3.687928696e-19)
(87.89973491 -5.061328615 7.991185348e-19)
(87.96344986 -5.105034446 -8.008851542e-19)
(88.38813917 -5.32414476 -9.324885076e-20)
(88.41004379 -5.325465676 1.080370981e-19)
(89.38253901 -5.293398126 -7.246207514e-20)
(89.043762 -5.332673255 -9.975081863e-21)
(88.99730673 -5.311108901 -6.520015028e-19)
(88.7018438 -5.353123067 0)
(88.77973768 -5.345038736 7.830234436e-18)
(89.35918016 -5.292499338 6.853347273e-20)
(89.19503895 -5.208791031 -9.059377047e-19)
(88.86520677 -5.248575696 6.318380745e-19)
(88.81183305 -5.226912244 -6.271903947e-19)
(88.9663073 -5.28948045 0)
(88.91632271 -5.269390158 1.036426399e-18)
(89.24726334 -5.229974504 -2.663029774e-19)
(88.32054551 -5.293282166 -6.23047543e-19)
(88.36539304 -5.309152036 0)
(89.70215413 -5.888850643 0)
(90.25853092 -5.902366791 0)
(90.26476266 -5.937098707 -1.779327399e-20)
(90.23544647 -5.822083534 6.943547614e-20)
(90.24692979 -5.865346132 -9.128296599e-19)
(89.68741533 -5.853950002 5.848488785e-19)
(88.66435878 -5.815333061 0)
(88.69043484 -5.844097407 -4.131157186e-20)
(88.67634942 -5.56706736 -8.11131943e-20)
(88.63911534 -5.620387138 7.363703709e-19)
(88.60607856 -5.894330903 8.100552577e-19)
(88.15314632 -5.92014773 0)
(89.10941784 -5.974586353 -1.795667028e-21)
(90.10411312 -6.020821654 9.648783667e-19)
(89.98869371 -6.060154149 -1.866964543e-18)
(90.25084715 -5.970069368 -3.546921533e-20)
(90.23350706 -6.015416381 -3.405558941e-20)
(89.64007997 -5.986065209 -8.410304542e-24)
(89.16609913 -5.452087175 -1.866075346e-18)
(88.36744554 -5.412612619 -1.215243281e-18)
(88.736053 -5.406592744 3.081934868e-18)
(89.00221207 -5.45846441 2.126571125e-18)
(89.59350362 -5.406427321 0)
(88.78245608 -5.372889358 6.747940618e-19)
(88.7699012 -5.355328735 7.548726905e-19)
(88.76185618 -5.403514406 8.887597302e-20)
(88.78811452 -5.385997516 0)
(89.60412418 -5.424829947 0)
(88.80413484 -5.476460901 0)
(88.78113405 -5.486748323 -6.375147338e-19)
(88.85511819 -5.455605806 0)
(88.84560725 -5.458125707 0)
(88.80714089 -6.368248971 -5.545578465e-19)
(89.96726575 -6.439008721 0)
(89.95767414 -6.467069126 -5.639103274e-19)
(89.96770869 -6.392998874 -6.133334873e-19)
(89.97066281 -6.41481689 1.074354114e-21)
(88.81323305 -6.351806003 8.12021031e-22)
(88.6794537 -6.517447985 6.579031196e-19)
(89.8931949 -6.608023817 -2.977950187e-19)
(89.84153746 -6.685201693 -7.538243605e-20)
(89.94140292 -6.501632998 -3.564676366e-20)
(89.91762471 -6.548111163 -1.122691409e-18)
(88.72368447 -6.455867207 1.294790133e-18)
(99.745705 0.6585853661 -1.251234615e-20)
(99.6828862 0.9040072924 5.952228724e-21)
(99.89196508 0.5589969239 5.970321492e-21)
(99.65752032 0.9988644604 -1.783297722e-20)
(99.60099413 1.323754556 -5.539926127e-21)
(99.86720834 0.805899947 -3.299969715e-22)
(99.57994026 1.444309746 0)
(99.55697361 1.834763264 0)
(99.85808914 1.098151662 4.255153644e-21)
(99.55159128 1.970514846 -8.585549675e-21)
(99.60163156 2.365773374 2.174798346e-22)
(99.88066819 1.39356323 -1.625390981e-21)
(99.62485171 2.485137356 -8.940873812e-20)
(99.40957061 0.905316433 -1.329039064e-20)
(99.24835384 1.272589315 -1.29884612e-20)
(99.59049516 1.007459611 0)
(99.19158672 1.417690397 -1.57303743e-20)
(99.02693868 1.931820564 2.338872244e-20)
(99.48173481 1.48574232 -5.62935507e-21)
(98.97798599 2.129780665 2.510384649e-19)
(98.88930102 2.783042451 -3.379895136e-19)
(99.41979063 2.077501568 -1.468440149e-19)
(98.88308 3.017489628 3.450524176e-19)
(98.97193913 3.733781873 2.380249804e-19)
(99.47715286 2.695826917 -3.328191826e-19)
(99.0425426 3.960105988 -4.587299232e-19)
(98.96103276 1.010084277 4.348083207e-19)
(98.64778228 1.477689848 1.105808947e-19)
(99.11281042 1.34215115 -2.62442045e-22)
(98.53318279 1.669446905 0)
(98.19178735 2.360033319 -2.644224935e-19)
(98.84113658 2.062815154 0)
(98.08239589 2.636567327 2.129065878e-19)
(97.80997504 3.629817717 3.378651068e-19)
(98.66519947 3.007776214 0)
(97.7579027 4.012804354 -2.829727518e-20)
(97.82829888 5.26471382 3.070995757e-19)
(98.74673533 4.100219404 2.531597611e-20)
(97.95413775 5.686416059 -3.084650325e-19)
(98.45351354 0.9211130099 -1.501219291e-20)
(97.94035685 1.416410814 -1.186027598e-19)
(98.47791041 1.489585406 -2.1625635e-19)
(97.75297833 1.622100938 -1.207588599e-19)
(97.1104479 2.425593678 4.578362457e-19)
(97.94262843 2.421193774 5.383157528e-20)
(96.87386811 2.774708307 -3.54780613e-19)
(96.15866526 4.138342755 2.404060858e-20)
(97.45546188 3.806462316 -3.838684034e-19)
(95.95416342 4.712114644 3.788665112e-20)
(95.68143126 6.852536909 0)
(97.41456309 5.669600013 0)
(95.80059032 7.67999644 -1.504016865e-19)
(97.97218554 0.6103515128 1.630509932e-20)
(97.26365767 1.029866864 1.298328045e-19)
(97.76323294 1.352830416 0)
(96.9794663 1.211489345 0)
(95.92393267 1.949805242 0)
(96.80996586 2.362462607 -1.271772358e-19)
(95.49870314 2.281113883 7.530453681e-20)
(93.98801306 3.671749195 0)
(95.65151452 4.138220415 1.27808634e-19)
(93.40999763 4.333244069 0)
(91.61119433 7.414255653 0)
(94.88494807 7.177481964 -6.012835674e-20)
(91.14517161 9.060852757 -1.518231544e-19)
(97.62924321 0.08745419528 8.128668119e-21)
(96.76836489 0.3254441758 0)
(97.11632093 0.8804838209 -6.505885636e-20)
(96.40534482 0.4308304934 0)
(95.02259193 0.8506665171 -4.747683054e-21)
(95.65442472 1.729357967 -1.461167885e-19)
(94.44471219 1.031378825 -4.045822162e-20)
(92.21359057 1.72905434 -3.938884399e-20)
(93.44638991 3.327815459 6.361889562e-20)
(91.2367657 2.018315273 -9.313730161e-20)
(86.10954757 2.90487309 -1.310102287e-19)
(90.23960756 7.000878301 7.474028927e-19)
(87.24706222 7.03785314 0)
(84.7314214 11.29228109 -2.253077173e-18)
(89.38454332 11.84688432 6.075938627e-19)
(97.50889662 -0.570657773 1.616770366e-20)
(96.58741879 -0.5613624634 8.840249459e-21)
(96.69208124 0.1136051729 0)
(96.19708164 -0.5552280683 -1.113060704e-20)
(94.74541202 -0.5482286035 -3.985483973e-20)
(94.89064313 0.5093371901 1.993829579e-20)
(94.1584084 -0.5611612851 -2.079330062e-20)
(92.03924544 -0.7420516154 9.97696215e-20)
(92.01345961 1.077156695 9.468005556e-20)
(90.97075643 0.449053555 2.349996749e-21)
(89.86445789 0.4328993479 0)
(89.87029152 1.363611999 -2.112116429e-19)
(84.97205528 0.7128407511 0)
(83.64789155 0.3878038245 -1.402522667e-19)
(83.32370354 1.725539873 4.126131573e-19)
(97.62005707 -1.259726966 -1.297653726e-19)
(96.72622404 -1.456306473 -1.429482605e-19)
(96.59442611 -0.7898985974 8.621310064e-21)
(96.35165926 -1.533261845 -1.425170145e-19)
(95.00916679 -1.82422952 -3.294829306e-22)
(94.77167214 -0.8885519324 8.027299395e-20)
(94.49180292 -1.950950614 -4.111227326e-20)
(92.76972559 -2.475337459 0)
(92.18529419 -1.249121505 -1.190413951e-21)
(91.66445249 -1.930979996 -9.717754393e-20)
(90.95958236 -2.217386743 -1.004612838e-19)
(90.63366737 -1.720687934 -1.021528553e-19)
(88.79283887 -3.332086818 0)
(88.58794084 -3.749312556 -1.836355818e-19)
(88.16333212 -3.641196065 1.070750372e-19)
(97.93031698 -1.904836406 1.398897672e-20)
(97.11076862 -2.259390728 -2.714803565e-19)