/*--------------------------------*- C++ -*----------------------------------*\
| =========                 |                                                 |
| \\      /  F ield         | OpenFOAM: The Open Source CFD Toolbox           |
|  \\    /   O peration     | Version:  v2012                                 |
|   \\  /    A nd           | Website:  www.openfoam.com                      |
|    \\/     M anipulation  |                                                 |
\*---------------------------------------------------------------------------*/
FoamFile
{
    version     2.0;
    format      ascii;
    class       volScalarField;
    location    "1.74";
    object      p;
}
// * * * * * * * * * * * * * * * * * * * * * * * * * * * * * * * * * * * * * //

dimensions      [0 2 -2 0 0 0 0];


internalField   nonuniform List<scalar> 
3259
(
613.4761953
616.6812967
623.3223675
632.7971468
654.4140861
673.2087261
697.0428222
735.4088563
785.473882
845.355181
911.9235377
1015.505298
579.1529643
581.4135165
586.2547328
592.8891121
611.0828147
623.9404919
638.7455755
666.1921733
694.6617566
722.31089
744.8833368
804.3092279
542.5099105
543.7451538
546.4814644
549.9993497
564.8562996
571.027344
577.03877
591.8035554
598.3219526
593.2699821
563.3751984
474.8226884
504.4119558
504.6758555
505.3423248
505.8754634
517.3468354
517.6231411
515.8399627
519.310766
509.126233
482.4604508
424.1843552
308.6132001
465.7255784
465.1532038
464.0232272
461.9745522
470.2302132
465.545939
457.538086
452.7282164
431.5966454
394.0775101
330.6588098
238.6187515
427.2446899
425.9906388
423.3976188
419.2727513
424.6402506
416.1438203
403.4974643
392.9626511
366.1057025
325.6969329
266.6832884
190.4756656
389.6168436
387.8355641
384.110182
378.4237125
381.4357281
370.251062
354.5575076
340.3938341
310.7116969
270.4203699
217.5410177
152.5748555
353.3428482
351.1875833
346.6563643
339.8994616
341.1018381
328.2393065
310.8294934
294.7885822
264.5043323
225.5756611
177.6775936
121.7739762
318.7878261
316.4019507
311.3689886
303.974702
303.8802176
290.1660604
271.9898594
255.4387021
225.958597
189.5925921
146.7340595
97.79034525
286.1929925
283.6988549
278.4272857
270.7539393
269.807003
255.8780484
237.745727
221.477651
193.6341915
160.3437906
122.3505567
79.93902417
255.6863377
253.181506
247.8853037
240.227562
238.747539
225.0991963
207.5846051
192.0914772
166.3296197
136.2684408
102.777597
66.02578327
227.3013414
224.8605029
219.7019385
212.2845515
210.5344847
197.5075317
181.0016585
166.553008
143.0756134
116.2062077
86.79467009
54.95028174
201.000061
198.6785015
193.7747108
186.7576792
184.9412676
172.7623854
157.5340344
144.2503613
123.1081082
99.28993623
73.54715474
45.98609244
176.6933922
174.53033
169.9625662
163.4537481
161.7234572
150.5312904
136.6853024
124.6730895
105.8207354
84.86138323
62.41661893
38.62275853
154.2540976
152.2757566
148.0975881
142.1650827
140.6376565
130.5082016
118.0847444
107.3815016
90.72919261
72.42027415
52.94993609
32.47739705
133.5280095
131.7504957
127.9944564
122.6771143
121.4394121
112.40421
101.4029229
92.00095228
77.43933903
61.577809
44.80191767
27.27893768
114.3448284
112.776839
109.4600114
104.7755088
103.8942873
95.95560122
86.37113526
78.21422613
65.63087845
52.02901159
37.70574572
22.82282881
96.52578289
95.17069503
92.29926385
88.25053393
87.77750666
80.91810928
72.7284835
65.75964224
55.04015168
43.52886673
31.45124056
18.94644493
79.88253947
78.74112759
76.31489354
72.89257565
72.88374145
67.06833531
60.22905789
54.41438715
45.44719486
35.87632873
25.86845377
15.52380345
64.24801133
63.3172479
61.33236994
58.52382461
59.00395975
54.19952515
48.61346028
43.99084267
36.66320233
28.90191695
20.81603763
12.4565615
49.36829143
48.65262693
47.11048626
44.89446016
45.98386999
42.12161074
37.7097923
34.28823701
28.51665433
22.45737138
16.17240349
9.659743879
35.3215425
34.79962201
33.68941205
32.10391929
33.43514976
30.65463879
27.39685766
25.13949392
20.85689159
16.41262416
11.83155384
7.058021629
20.99767967
20.74451507
20.08341779
19.12685653
21.44517082
19.64401374
17.49566369
16.39721585
13.55141803
10.64959336
7.692190425
4.580308482
10.2601284
10.02163304
9.678433604
9.135708306
9.705579955
8.809534829
7.774266907
7.92608485
6.487554634
5.059147703
3.643360671
2.15707133
1026.110022
832.3841949
948.7164586
1018.176824
788.2179452
827.3514311
998.7369985
940.9401474
1012.775058
1085.430646
541.8307154
1090.180906
1095.278136
1018.702995
1008.228399
927.9160307
1014.601225
911.932551
1090.54763
1018.136766
-341.0284851
1048.078442
1011.879101
979.124845
1051.312279
1022.075153
1052.34195
1117.485018
1087.691214
1060.534992
1096.628541
1123.052385
1127.275241
1121.211189
966.8920378
928.6643575
928.4385079
946.4994987
455.4475417
153.0634357
1058.487413
-330.1584805
108.3921164
-245.6953485
1054.884996
-277.7476563
75.70118565
606.2969433
568.1114761
792.7357347
681.8551472
697.039457
952.3721051
1027.541428
1011.376063
994.4819421
855.4643013
612.0319148
1148.464102
1098.87256
812.1398888
916.5713746
878.1874313
988.4181245
967.1594818
987.0471172
119.6171802
996.0863244
421.635586
673.5595183
491.4140732
592.2599925
1072.11294
1033.985209
1031.78071
1016.881181
1029.239042
1063.339269
1050.686881
1037.09481
1144.436672
1105.341618
975.9290227
958.9645777
937.517869
618.2411699
521.7450201
987.1840371
237.0654132
396.1591536
288.7740113
1065.79166
-484.1628429
-46.92884616
180.0459862
-92.88929834
1028.52468
1069.719508
1055.951561
1068.923949
1097.990179
1086.795114
1074.623382
1100.217123
1106.128153
1099.0687
1010.022891
1085.925225
1092.59319
1095.902129
1019.556518
1104.991164
1091.58208
1102.375419
1138.674198
1123.349111
1110.128672
1131.254835
1138.73376
1133.602734
1115.654891
1119.236674
1124.674809
931.9229463
937.6388231
929.3643957
686.1419803
941.6044155
331.2232783
464.905309
590.2641325
1064.556606
1064.716495
1060.686983
-394.0004643
-238.4517518
-214.7229571
-229.531349
1049.276817
1055.974232
1061.787635
-126.4542854
1161.244186
1160.283468
1101.014416
1099.373071
1106.506244
1096.84601
927.9039162
974.6610115
1111.104076
995.6332554
987.4661796
978.8193578
1004.401272
363.1863395
346.1606114
1086.993959
961.687839
723.4383911
1073.194801
1084.857181
1079.794954
1026.659
1143.402189
1133.960126
1158.273164
1152.736928
1110.107331
1113.88695
1110.142191
1116.575648
1112.956909
1126.740587
1121.46472
968.1395302
956.5634928
963.6700298
573.5943627
592.8936515
658.2572712
530.0464963
537.9478337
518.9408299
977.4103431
334.4540358
280.9754459
212.7322585
1062.459581
1063.870189
1065.374039
-461.3891196
45.76329961
-14.48851345
161.3684978
147.8012183
161.429301
-34.39560851
-168.3799114
-149.6691606
-47.29733551
1039.640448
1051.118157
1044.240049
751.9764475
792.0926445
807.3072042
856.8146498
874.3149703
929.0509425
683.4918403
708.2680044
771.6873798
717.2015384
744.2037452
829.7978855
753.03974
779.7416666
894.3068862
872.9386353
886.2010459
947.7863775
985.9932171
1012.570202
1042.211363
610.2545883
619.3408828
687.2574255
621.8757795
625.0137712
715.8383932
623.9506311
613.7020444
740.0899839
698.3031291
698.9255549
767.1717502
763.2457931
762.7109181
839.9764973
537.0524887
532.8633692
597.3430769
530.2036781
515.9402592
595.8457263
507.952079
471.4429313
574.4169907
454.0612981
385.2125044
505.7823632
335.3549165
468.7577676
455.6829664
512.6414128
449.767974
425.1975694
491.5011068
414.0947158
369.4794551
442.5350603
350.5386104
282.8340248
353.7059068
252.8818531
407.224559
389.0003027
438.047137
381.4761309
353.0786244
405.541137
341.3202446
298.0701807
349.3106639
280.8525869
221.1272513
264.5743114
201.4402038
352.8551714
331.8841894
373.8475907
323.6485593
294.5877048
337.3964381
283.2792113
243.8805109
283.3256959
228.9280092
178.7463638
209.3744449
160.9854092
305.5607588
283.6511474
319.0348726
275.2775685
246.6333849
281.6174572
235.8565523
199.8404147
231.9718566
186.7041353
143.7510184
169.3847318
129.0372398
264.7274315
243.0652886
272.8403728
234.9592441
207.85544
236.1694418
197.8852377
165.3591596
190.4124963
153.7724113
116.4533919
136.3213117
103.0441833
229.4973155
208.8169823
233.9575426
201.2017198
176.1711119
199.3391784
167.1176921
138.1142695
157.9534389
127.9373962
95.4577546
110.6933507
83.97638814
199.039565
179.7552862
201.1061955
172.7418877
149.9914092
169.1630601
141.8714397
116.2205698
132.2001338
107.2940899
79.04082754
90.98220884
69.20340183
172.6017893
154.9217467
173.1838353
148.5540752
128.1129172
144.1584571
120.8969164
98.32436633
111.414838
90.50523687
65.94515191
75.49442364
57.49740095
149.5419264
133.5449815
149.2800832
127.8273363
109.6293267
123.2040038
103.2631224
83.47217223
94.35650597
76.63971028
55.31547209
63.08334308
48.05929885
129.3284426
115.0058954
128.6656467
109.9194164
93.8474236
105.4538413
88.26476845
70.97865557
80.14993784
65.02767617
46.55461184
52.96933099
40.33678461
111.5038851
98.80440822
110.7538827
94.31911809
80.2335394
90.25881763
75.36708824
60.3416666
68.16201103
55.1809852
39.22965981
44.60283184
33.91582324
95.67866862
84.53023402
95.06951101
80.61177811
68.36914146
77.11765753
64.15664973
51.17976202
57.92571878
46.73119023
33.02333073
37.58359049
28.50187106
81.52072452
71.84589392
81.2215744
68.45940276
57.9230615
65.63571692
54.3092125
43.19697567
49.08331768
39.39346825
27.69737273
31.61718264
23.87683541
68.75646597
60.47480322
68.88975159
57.58630451
48.63075978
55.50102061
45.56719249
36.16143073
41.35727572
32.94581192
23.06658239
26.48072601
19.86864722
57.15375027
50.18529753
57.80927911
47.7625328
40.27481301
46.46164679
37.71964079
29.88532371
34.52776548
27.20925839
18.98288493
21.99928533
16.34257041
46.51814173
40.78025778
47.75834646
38.79300596
32.67307829
38.31024644
30.59037507
24.2133365
28.41624253
22.03637584
15.33151758
18.03361388
13.19492513
36.65306951
32.07915689
38.54582946
30.50207694
25.66625478
30.87140692
24.02616446
19.01207633
22.87369069
17.30098988
12.01462627
14.47451484
10.33785419
27.38042776
23.92054243
29.99445258
22.73373379
19.11466035
23.99078898
17.89295317
14.16569791
17.77144548
12.89390813
8.945988951
11.2275522
7.694046755
18.5501751
16.16362553
21.9487876
15.35105136
12.89345747
17.53298505
12.06998869
9.567286414
12.9969822
8.713679465
6.046251802
8.208130919
5.191762302
10.02636107
8.68729985
14.2724575
8.23720695
6.892512139
11.37648312
6.447360434
5.107866349
8.443956671
4.655138279
3.232224771
5.338357953
2.763396958
2.06366338
1.708643677
6.848117507
1.597900667
1.25684165
5.413550143
1.136557106
0.7370762945
3.998279378
0.5896444657
0.3003220586
2.533733664
0.4448820973
1051.598792
1078.946611
1052.905253
862.6546147
904.0874298
873.4889261
582.1818547
966.7256569
1019.398755
983.4820303
1071.873222
1031.448941
978.4118561
793.3017684
863.9181509
830.8471572
909.4765269
873.3061953
799.8648119
959.1529846
896.2887395
933.9177602
968.6307158
1002.167786
974.3703281
1017.123551
1012.243139
1006.686016
1079.906065
1075.037385
1080.387449
416.905083
609.7184342
641.9737214
561.9992345
389.1182988
562.3441743
533.2469388
1093.640191
1088.248891
1084.468921
1128.092133
1142.881626
1062.778655
1087.821857
952.8039179
957.9637457
912.769381
1001.07028
994.7684634
1002.478216
889.4968554
917.3886342
956.4853085
889.7511188
889.3793556
1021.121072
1042.361229
1037.123564
1042.524871
1001.295759
1011.625318
1021.900616
988.8703563
1007.285307
990.3296389
1041.804586
1051.157452
1060.567294
1031.799187
1041.494097
1032.029326
1055.766076
1051.016949
1046.928663
1113.543175
1108.503642
1112.160625
1078.650913
1087.3105
1096.432278
1069.578744
1078.37985
1069.607879
1113.770859
1122.963211
1105.552156
1114.417045
1105.337873
1128.660946
1123.863188
1118.715131
954.1513893
962.3495863
982.7936428
936.7883899
954.946295
941.1649379
410.2335485
457.2137628
496.1773497
184.9274775
238.4414245
200.1149027
58.27936501
96.5786771
140.4055432
-237.7508407
-74.27890972
596.6493029
647.1142099
651.5660641
644.6114798
641.7442454
584.4094356
772.0257459
687.1021768
680.9151485
673.2904811
716.3348578
721.9986919
774.1459648
717.9520786
656.0205164
855.4188678
779.4358644
693.5715949
1022.079462
1017.710839
1023.25101
1005.649036
1011.595749
1016.53798
1000.437951
1006.196837
1000.13825
652.8368962
613.6106382
648.9426436
545.2880574
578.218
651.2263135
1154.488668
1157.199773
1152.10757
915.2041073
950.2707949
735.8889404
914.2229796
939.148758
930.0672803
889.8969884
920.4361854
899.9507586
981.8897324
987.9473992
994.4381708
972.4697491
980.6781447
974.8213262
245.9680857
699.8227249
823.7960365
767.6679923
636.5675993
868.1082083
634.892236
765.8319932
699.5309015
1027.220786
1032.032706
1037.089699
1021.587874
1026.826879
1021.577305
1036.736428
1031.759473
1026.384622
1059.618599
1055.078067
1059.082236
1046.398876
1050.741221
1055.39334
1041.832398
1046.274924
1041.280343
1139.504893
1145.805231
1151.032144
950.7236531
953.4423884
963.1670494
935.5584259
942.0364705
942.2048796
364.9858964
322.1370129
345.3648422
246.053812
285.6118875
328.588187
-30.70411882
24.30306163
0.7917372158
1065.527908
1070.096967
1074.777855
1060.311041
1065.247561
1060.345015
1074.925612
1069.994377
1064.738206
1094.927455
1091.377582
1095.471069
1083.009292
1087.100846
1091.083028
1079.245545
1083.271998
1078.410533
1100.703021
1104.594616
1109.414669
1095.383964
1099.870324
1095.66828
1107.00754
1103.640531
1099.136864
1133.383927
1128.794975
1133.950417
1119.384901
1123.883515
1128.34585
1114.324211
1119.164145
1114.381134
374.4969564
419.304472
378.155044
493.5211159
457.9364723
417.6606124
538.910693
504.0653578
545.4619579
-186.7825094
939.1510198
942.2830066
923.5460757
1005.893316
994.5523128
962.8803609
1376.36165
1108.300494
1050.441603
1044.006175
1070.229498
1175.205192
940.6056477
1068.194297
1035.631398
754.8548805
789.599049
712.4340142
676.3070077
684.8437778
696.3642337
709.5118983
724.6168101
741.0120756
634.0949879
640.2819652
663.1137435
648.7178096
657.836693
684.3835949
667.7024731
676.5074274
725.5481687
718.577053
728.5189495
746.4164658
763.2084685
775.74741
799.775992
815.3998011
829.2069302
861.2820574
1006.573207
1014.713906
1024.495816
588.5701202
592.6714028
617.1350099
597.7621142
603.0472359
631.2283302
608.1630204
607.1175166
660.0882956
647.6094534
652.9872141
672.7732615
670.3470004
675.813502
701.9520294
689.4275841
692.6751425
728.3714732
541.1634584
542.6257096
567.9149618
544.2195715
545.4919878
574.217194
546.1798454
537.4213971
589.7075646
573.4853677
574.3874888
593.7476432
574.962952
573.4963525
598.505222
563.6332379
557.0161152
589.005579
523.4276365
506.4653938
549.4358591
418.9615612
397.0789305
449.1909692
493.5065134
492.6696443
517.7586273
491.3081372
489.1669089
517.0895741
486.2427279
471.9075853
520.7194043
502.0669753
499.6213873
517.598661
488.5518913
483.0983748
504.6474361
458.3843119
446.5430471
471.4737668
397.0636966
375.4289709
402.5875756
287.2189382
251.6443328
278.8126734
447.0443051
444.1826358
468.3882227
440.4265113
435.5738406
461.9308425
429.915635
412.0974772
456.5274768
437.1082991
432.4244544
448.4816825
414.1805239
406.3079497
424.1349788
375.3873681
362.1884955
380.9600951
312.6057578
293.1950731
310.6340303
225.4344224
191.2474005
201.6424836
402.5764549
398.2027938
421.0392347
392.7083342
385.9347993
410.2125233
378.3670649
358.7172922
398.2673737
379.1337185
373.1231624
387.1991338
351.3376151
342.6225555
357.5124294
310.8745544
298.1903977
312.8062349
253.3986949
236.4102575
249.0924443
180.1028972
158.4649323
165.9800779
360.7759386
355.3707683
376.5696492
348.7328692
340.7630526
362.7780323
332.061752
311.8695934
346.523708
328.3517411
321.6952701
333.8349198
298.3562097
289.3502229
301.7257107
258.2426839
246.4322376
258.4218927
206.6373727
191.9638888
202.3143553
144.7616115
128.3570195
135.9464634
321.9941875
315.9739248
335.4242402
308.6996178
300.1151567
319.8780964
290.8097378
271.0963109
301.2510176
284.3894062
277.5609291
287.9575138
254.2094071
245.4173839
255.624356
215.844444
204.9157037
214.404894
169.2097815
156.450655
164.500588
114.9405591
101.3627477
107.5934642
286.3525389
280.0543673
297.7602817
272.5482901
263.8320297
281.4459902
254.3246011
235.6565108
261.8980603
246.464626
239.7799963
248.6840884
217.3446095
209.0540765
217.525023
181.7174349
171.811515
179.4260079
140.1020615
128.91406
135.1674164
92.87809358
81.31521224
85.75758349
253.792382
247.4903551
263.5318948
240.0546029
231.544068
247.2146426
222.187354
204.8362931
227.6954428
213.7213014
207.374778
215.0214757
186.3791149
178.7308551
185.8175966
153.8911957
145.0271722
151.2211423
117.0618311
107.2701048
112.2261189
76.14389712
66.24248237
69.64949321
224.1771868
218.0680885
232.5582014
210.9124714
202.8251058
216.7633717
193.8760954
177.9540278
197.9285969
185.361418
179.463412
186.0624927
160.1695131
153.2190321
159.2025861
130.9148769
123.0555505
128.1634619
98.48377158
89.92422256
93.92397061
63.0240061
54.51788332
57.19334781
197.3016664
191.5217474
204.5983407
184.7878412
177.2599614
189.6729332
168.9125043
154.4129427
171.9321014
160.6846197
155.2914107
161.0190107
137.8017141
131.5562188
136.6549226
111.7110818
104.7876453
109.0563047
83.25390324
75.78560162
79.06580917
52.53417494
45.19593996
47.33942532
172.9278294
167.5645817
179.3723701
161.3405893
154.4357781
165.5281828
146.8071283
133.7170109
149.1336611
139.1100692
134.2392443
139.238525
118.555837
112.9955172
117.379283
95.47151621
89.40165426
93.01447867
70.58611787
64.08515089
66.81513856
44.01265838
37.64880972
39.39539511
150.8094915
145.9136274
156.5922522
140.2518882
134.0021106
143.9390434
127.1259604
115.4157105
129.0610307
120.1434263
115.7908363
120.1829452
101.8587815
96.9499417
100.7525949
81.58163088
76.28498782
79.37854333
59.90899573
54.26916355
56.57055083
36.98434699
31.44496898
32.88817514
130.7005174
126.2981321
135.9830145
121.2235628
115.6420199
124.581042
109.5226912
99.12818994
111.2831974
103.3633114
99.51305325
103.3993359
87.25152135
82.95464643
86.2831443
69.57298873
64.97769799
67.65586735
50.80095266
45.93134524
47.89556377
31.09772446
26.27893863
27.48670966
112.3603372
108.4610344
117.2793721
103.9796819
99.06509289
107.1466546
93.69595299
84.52480207
95.43304465
88.40956483
85.04068481
88.50641214
74.35954806
70.63401744
73.57472297
59.0798192
55.12312211
57.46688638
42.93830942
38.76072176
40.45798322
26.10244644
21.92251135
22.94588697
95.55891928
92.1611429
100.2327363
88.26669707
84.00485259
91.36105922
79.39291367
71.34019539
81.19225537
74.97969683
72.06966669
75.185514
62.87825304
59.68490469
62.3080251
49.8141481
46.4415517
48.51506771
36.07042147
32.51862904
34.00315356
21.80503132
18.20253281
19.08084721
80.0791933
77.17155756
84.60885769
73.85012122
70.21367141
76.96374347
66.35020296
59.34060035
68.30592565
62.82274641
60.34760939
63.17290064
52.55593146
49.85815312
52.22173575
41.54315208
38.70775548
40.56317383
29.99835262
27.01653634
28.33164504
18.05245702
14.98337878
15.74742495
65.71338048
63.27978745
70.18946896
60.51608631
57.47431645
63.72525238
54.33261867
48.33683153
56.55112161
51.72608049
49.66144724
52.24570573
43.18231508
40.94652858
43.09887514
34.07527612
31.73692864
33.41712741
24.56068707
22.10198042
23.28293398
14.72722861
12.15658158
12.83162926
52.27450349
50.28971686
56.76776229
48.06652438
45.59627778
51.43504808
43.07518069
38.1076175
45.75331432
41.50191037
39.82224046
42.21297371
34.57312459
32.76971648
34.75415106
27.24649768
25.37144088
26.91385814
19.62120153
17.6472986
18.72404317
11.7350797
9.633062987
10.23973909
39.50025915
37.98573108
44.15092977
36.31383408
34.42246084
39.93363386
32.49171652
28.48210054
35.68701288
31.95242105
30.64150037
32.88339839
26.56155205
25.16673842
27.02165177
20.91349293
19.47408945
20.91133665
15.06272881
13.5437358
14.54208919
8.993781131
7.337664848
7.89386448
27.30510578
26.28209813
32.13669308
25.10566583
23.77024776
29.03847372
22.41004511
19.31203615
26.18689917
22.91888559
21.9625593
24.09269149
19.00211609
17.99666151
19.75568654
14.94987929
13.92369098
15.28501908
10.78180545
9.694849605
10.63840523
6.429673526
5.20318692
5.725214531
15.70431486
14.97401928
20.64799461
14.2950846
13.51755794
18.58051096
12.70710143
10.45569974
17.10526741
14.25576705
13.64504725
15.6973157
11.76681333
11.1351324
12.82757646
9.240048594
8.607231636
9.92034106
6.676739843
6.004575825
6.917575544
3.972448567
3.168390638
3.670740928
5.351755819
4.909195742
9.274283941
4.561971602
4.26290297
8.307576535
3.922399362
2.192531249
8.301881901
5.838481832
5.573765028
7.567616405
4.759824835
4.4895804
6.127884407
3.687242905
3.422243817
4.705946817
2.62846511
2.356426313
3.276123942
1.560447938
1.18635651
1.666853828
1034.115928
1043.463084
1034.586547
838.0316239
858.2070153
848.5117895
1036.790534
1022.356772
1003.719315
855.6750235
842.6563643
816.1484936
984.2508787
963.8535651
978.3315158
949.4297737
961.2351545
951.9264674
1080.042324
1087.657236
915.9015256
924.4748147
937.2213475
24.8815019
784.2543527
750.3418681
755.9901088
870.8754561
832.2094443
859.9488987
796.4116703
802.3224829
851.5277432
165.4320512
543.6702445
529.8487864
541.8676022
764.2072096
780.9768743
767.6050609
811.4257601
795.6836854
777.6782974
823.2164145
845.6210068
828.1007661
882.7620113
863.8854394
839.7552852
892.2071296
921.8458367
902.1194721
962.1302103
941.8345628
910.4462343
691.1721138
709.8924381
701.0759572
729.7568038
719.5406377
699.5000976
758.5327359
739.4418618
751.0903459
726.2240181
751.0634118
740.2762478
773.1432428
762.0419666
735.249082
814.5748938
788.6438885
801.8395555
761.7495704
795.6407249
784.3416178
819.1976039
807.2372713
770.6021677
877.5895309
843.34342
857.8923477
994.2676692
1004.597712
995.4818269
1022.694782
1013.527185
1003.274826
1033.257994
1023.534782
1032.589924
613.2859291
633.0052628
628.8469979
641.7341493
637.3937802
616.4081246
679.8694926
658.7218391
664.5872896
623.8790068
649.5219543
645.8507883
654.8652007
652.5624179
624.9951686
709.0351893
680.866878
685.4204298
622.211396
656.8168567
656.4595214
654.860194
656.3017134
618.8285263
734.2406015
695.3464233
697.565275
828.8912716
808.6090347
816.239164
536.1602804
555.113772
555.194299
553.754637
554.6713037
534.7912037
595.6702216
575.0587104
575.380317
526.8206821
549.5906271
552.1022622
541.6086969
546.3118757
522.2014468
597.6685366
571.268238
568.250247
498.078067
526.6079941
535.0594894
503.015307
516.0224056
486.0015549
582.7423616
548.3396838
537.3884369
433.2266452
467.8323647
487.0066026
418.3673549
446.8090945
410.1137229
532.1261408
486.7973672
457.1934717
311.4518788
348.8267065
372.8062204
303.558899
272.1328315
383.1239807
341.8246248
465.0474485
482.1042106
485.2316529
474.0004985
478.4092309
460.7304698
515.4247257
496.6449094
493.0009547
442.8327378
462.4688318
468.7397127
446.126915
455.0064764
434.7048326
498.8436231
476.4183833
468.2618036
401.2098919
423.1005148
435.5655634
391.6561875
408.521898
386.3829777
458.2370014
432.4840367
416.0037417
329.9016404
351.3551197
372.573819
303.3972394
326.2257979
305.4499445
377.9953084
350.1375246
326.658597
214.0930708
230.1090153
268.8337841
212.5036889
198.3828566
248.7081214
228.6402882
401.7763211
416.8492827
421.9552762
404.730747
411.1504713
395.7288304
443.6319527
427.1109099
421.0708337
373.0532494
389.2990105
397.4867279
369.6008175
380.0447174
363.6229565
415.5032182
397.3124418
387.0531374
328.261755
344.6781422
357.847048
313.8534742
330.0219955
313.8457895
366.0696513
347.3651235
330.8598176
262.6590058
277.2886904
296.0878775
234.0379402
256.2694285
242.8276822
287.1772839
270.9290947
248.407662
173.7784255
182.1064595
213.0739541
164.8319036
155.9309214
185.873643
174.7796155
346.4496052
359.5392778
365.7793446
345.2931298
352.7285651
339.4710672
380.8493338
366.5196288
359.2767544
314.720238
328.3492358
337.1850916
308.2163159
318.7221389
305.0498845
347.9746632
333.0272086
322.4684361
271.0715187
284.3089768
296.7617448
256.3483342
270.8303726
257.9327323
298.6785637
284.3800922
269.462281
213.1286569
224.4631559
240.8516614
188.3752282
207.4749999
196.8545881
230.3339003
218.5972478
198.5272031
143.5398713
151.0281375
170.266754
133.4528416
126.4638239
147.9700214
140.5549636
298.7705621
310.0091689
316.7567793
294.9399217
302.749283
291.474017
326.730636
314.4964396
306.7276901
266.3301643
277.5623582
286.5533432
257.6692504
267.9413643
256.7877364
292.0406007
279.6799405
269.3188585
224.4558076
235.1175609
246.7305293
209.8935339
222.8317728
212.4409495
245.6035712
233.8804514
220.6051622
173.0692841
182.2016325
196.3454487
151.6088216
167.6133563
159.0886687
186.6562749
176.8128928
160.2851425
114.0756043
120.7275427
136.6023629
103.3260857
97.38641614
118.9917721
110.5563401
257.9398949
267.5586772
274.3870945
252.5683034
260.2934429
250.7213175
280.6513521
270.2643865
262.4864696
226.392986
235.6822039
244.3687565
216.812706
226.498621
217.3592346
246.1835668
236.0972223
226.2403565
187.4603178
195.9459927
206.6254239
173.2148557
184.7954973
176.6040649
202.6722848
193.4726756
181.5538117
141.8149197
148.8968092
161.2529377
122.6171063
136.2432611
129.5492745
151.036794
143.4079472
129.2433411
90.51660769
95.67370198
108.7161212
81.81292255
77.27887199
91.92838139
86.7095586
222.9634569
231.2102016
237.8366273
216.8509786
224.2193123
216.0692137
241.5294353
232.7005149
225.2248482
193.2211504
200.9601088
209.0991313
183.5212678
192.4329551
184.8759074
208.6519485
200.3504756
191.2356593
157.734676
164.5901298
174.2345162
144.3602645
154.6179354
148.0535414
168.8650792
161.5457404
150.9636594
117.4696029
123.0239814
133.8460944
100.2183136
111.8881544
106.6957743
123.2862392
117.409351
105.2893703
73.28181549
77.16288416
88.28076282
65.49064441
62.07106096
73.07243134
69.15127984
192.9075252
200.0063582
206.2605577
186.5902656
193.4520705
186.4770565
208.2342623
200.700062
193.7023083
165.4392541
171.9435621
179.4202143
156.0918222
164.1645575
157.8525719
177.6584098
170.7607394
162.476366
133.5168112
139.1321411
147.7399598
121.2742398
130.3011991
124.9592564
141.8277474
135.9174154
126.5940669
98.13730698
102.5802659
112.0495818
82.79320068
92.84177749
88.72528827
101.8063843
97.19563937
86.76759891
60.03010034
63.04148454
72.57092213
53.07208521
50.4357255
58.87365107
55.87968145
166.9515479
173.0949063
178.8821584
160.7787112
167.0618658
161.0550841
179.7618266
173.2943117
166.8625889
141.9572444
147.47438
154.2479612
133.2329077
140.4653704
135.1392988
151.8087254
146.0178922
138.5773277
113.5154215
118.1772235
125.7952634
102.4811361
110.4033328
105.9898721
119.8734046
115.026773
106.8402917
82.50780443
86.12296618
94.39721876
68.95945596
77.63413108
74.30827667
84.82907987
81.13701325
72.13857208
49.60123393
51.99072678
60.18504457
43.42826796
41.35649055
47.95735457
45.62531483
144.4094331
149.7564231
155.03022
138.6012415
144.2808973
139.0738615
155.2624424
149.6742371
143.8431315
121.9280315
126.650549
132.7221676
113.9729205
120.3960465
115.8571736
130.0266215
125.1158243
118.4943727
96.77691033
100.6980208
107.4002169
86.94094945
93.87890648
90.18086329
101.7725984
97.73936775
90.56569533
69.66968916
72.65681543
79.87221237
57.77766824
65.2729134
62.54128475
71.14660374
68.13807244
60.36398974
41.23110028
43.16227443
50.23972496
35.80194907
34.14501615
39.40040567
37.55144354
124.7181794
129.4006162
134.1505723
119.4041531
124.4855967
119.9407446
134.0442805
129.1842055
123.9546541
104.6895583
108.7683799
114.1623556
97.57139528
103.2331997
99.32745148
111.4896255
107.2844611
101.43739
82.59109255
85.92994108
91.7992601
73.91109333
79.96846079
76.83029371
86.63559244
83.23421942
76.96559391
58.96947708
61.47234448
67.7488027
48.59576917
55.06317847
52.78607459
59.93400681
57.44356204
50.7317871
34.40011152
35.98551645
42.13172948
29.66934863
28.3244627
32.57435656
31.08424122
107.4049103
111.5325281
115.76641
102.6595028
107.1636072
103.1684875
115.5434526
111.2866064
106.6405314
89.72135411
93.27497092
98.02701762
83.45835588
88.41443487
85.0220383
95.56064038
91.92518898
86.79801219
70.42951116
73.30399813
78.41893854
62.84941094
68.11528061
65.42210796
73.81329999
70.9103796
65.45428376
49.93679055
52.05969285
57.49896031
40.94524159
46.51611802
44.59482714
50.60646956
48.51826693
42.7347115
28.74801219
30.06621427
35.41678481
24.66708684
23.56026451
27.04532946
25.8275435
92.07177333
95.73801194
99.47365981
87.93767056
91.89243867
88.35244602
99.29522329
95.53837887
91.44900173
76.60559017
79.73050427
83.88077498
71.19059404
75.49695466
72.52142766
81.74205214
78.56880075
74.10509598
59.88795665
62.38998066
66.82007928
53.34936341
57.90067378
55.56322286
62.82536768
60.31984872
55.59652555
42.21653953
44.03967989
48.72946546
34.48406737
39.2704843
37.62811262
42.74973729
40.97642188
36.00295288
24.01145086
25.1215099
29.77366288
20.528824
19.60491085
22.50368521
21.49418239
78.38430642
81.6671786
84.92596067
74.88390663
78.31940222
75.15636
84.91294212
81.57027581
78.00770232
65.00471669
67.7787268
71.36763426
60.41695245
64.12579841
61.490072
69.63710275
66.84011689
62.98650831
50.65088033
52.85237083
56.65824618
45.09564423
48.9989991
46.94761922
53.3029217
51.1162261
47.05659992
35.53640065
37.1212129
41.13659128
28.95719689
33.04753612
31.62580009
36.0456577
34.51988998
30.26283514
19.9921857
20.93871028
24.96934478
17.05740323
16.27559826
18.71983824
17.87145647
66.06683864
69.03042651
71.83520102
63.20779684
66.15418564
63.30370563
72.07690398
69.07751108
66.01158678
54.64512487
57.13174569
60.19789212
50.85823632
54.01645685
51.65800542
58.92903864
56.43901532
53.14723148
42.46861011
44.42708637
47.66126667
37.84240892
41.15496009
39.33419006
44.95863708
43.02879272
39.57341556
29.6854012
31.0802406
34.4846735
24.16775667
27.63520559
26.38832187
30.25151035
28.92206467
25.30495477
16.53740671
17.3552167
20.82092192
14.10451528
13.43321375
15.52405854
14.80094614
54.88710573
57.58594429
59.96058537
52.66743594
55.15441821
52.56207066
60.5223302
57.80685657
55.20764355
45.2997433
47.55189469
50.1311568
42.28639066
44.93539765
42.80236814
49.36042416
47.12037027
44.34765408
35.13737868
36.90009402
39.60772069
31.39203889
34.16241599
32.52684246
37.56365237
35.840455
32.93866353