/*--------------------------------*- C++ -*----------------------------------*\
| =========                 |                                                 |
| \\      /  F ield         | OpenFOAM: The Open Source CFD Toolbox           |
|  \\    /   O peration     | Version:  v2012                                 |
|   \\  /    A nd           | Website:  www.openfoam.com                      |
|    \\/     M anipulation  |                                                 |
\*---------------------------------------------------------------------------*/
FoamFile
{
    version     2.0;
    format      ascii;
    class       pointVectorField;
    location    "1.74";
    object      pointDisplacement;
}
// * * * * * * * * * * * * * * * * * * * * * * * * * * * * * * * * * * * * * //

dimensions      [0 1 0 0 0 0 0];


internalField   nonuniform List<vector> 
6962
(
(0 0 0)
(0 0 0)
(0 0 0)
(0 0 0)
(0 0 0)
(0 0 0)
(0 0 0)
(0 0 0)
(0 0 0)
(0 0 0)
(-0.0003604549531 0.001420097445 5.606626274e-15)
(0 0 0)
(0 0 0)
(0 0 0)
(0 0 0)
(0 0 0)
(0 0 0)
(0 0 0)
(0 0 0)
(0 0 0)
(0 0 0)
(0 0 0)
(0 0 0)
(0 0 0)
(0 0 0)
(-0.000640795337 0.002416092982 9.964251646e-15)
(-0.0005842187457 0.002227616052 9.076073226e-15)
(-0.0005000068865 0.001927665802 7.771561172e-15)
(-0.002485600006 0.01052343486 4.241051954e-14)
(-0.002670284288 0.01118052477 4.556077737e-14)
(-0.004047438963 0.0178173761 7.259470802e-14)
(-0.003821992509 0.01701378521 6.857014956e-14)
(-0.00810642304 0.04263960161 1.717515019e-13)
(-0.008254153754 0.04292643029 1.748046152e-13)
(-0.009370485099 0.05185981582 2.111644193e-13)
(-0.009250240187 0.05178319676 2.085415174e-13)
(-0.01094853283 0.0759329696 3.057415432e-13)
(-0.01098017829 0.0752665279 3.06407677e-13)
(-0.01090268083 0.08120581459 3.305827834e-13)
(-0.01084718069 0.08175495043 3.291811268e-13)
(-0.00874219568 0.08920123269 0)
(-0.008752154785 0.08822611662 0)
(-0.007716717317 0.08821488508 0)
(-0.007711830306 0.08870227423 0)
(-0.007707078707 0.08918971023 0)
(-0.004612433206 0.08915614777 0)
(-0.004614443716 0.08891267486 0)
(-0.004358063056 0.08891006498 0)
(-0.004356075971 0.08915347019 0)
(0 0 0)
(0 0 0)
(0 0 0)
(0 0 0)
(0 0 0)
(0 0 0)
(0 0 0)
(0 0 0)
(0 0 0)
(0 0 0)
(0 0 0)
(0 0 0)
(0 0 0)
(0 0 0)
(-0.0006076682085 0.002198558731 9.492406861e-15)
(-0.0006867082439 0.002513621775 1.071365219e-14)
(-0.0007337879345 0.002717062984 1.146305273e-14)
(-0.002956616626 0.01202470264 5.068168107e-14)
(-0.002861534702 0.01150434008 4.90579799e-14)
(-0.004264961765 0.01802903288 7.686906667e-14)
(-0.004378873475 0.01872623816 7.892297926e-14)
(-0.008616938633 0.04354909651 1.834365992e-13)
(-0.008476768375 0.04234030612 1.804112415e-13)
(-0.009572950797 0.05088824322 2.168126789e-13)
(-0.009710287039 0.05223240298 2.199906923e-13)
(-0.01117159572 0.07449108244 3.1366576e-13)
(-0.01107733922 0.07297179119 3.108208135e-13)
(-0.01091133372 0.07813397526 3.32830985e-13)
(-0.01098121901 0.07960471373 3.352040867e-13)
(-0.008667578227 0.08528991054 0)
(-0.008678626528 0.08431464821 0)
(-0.007640294972 0.08430288542 0)
(-0.007634772104 0.08479040332 0)
(-0.00762924667 0.08527814775 0)
(-0.00451429731 0.08524285991 0)
(-0.004519822744 0.08475511548 0)
(-0.004000679621 0.08474923434 0)
(-0.00399791562 0.08499321983 0)
(-0.003995154186 0.08523697878 0)
(-0.004254725748 0.08523991934 0)
(0 0 0)
(0 0 0)
(0 0 0)
(0 0 0)
(0 0 0)
(0 0 0)
(0 0 0)
(0 0 0)
(0 0 0)
(0 0 0)
(0 0 0)
(0 0 0)
(0 0 0)
(0 0 0)
(-0.0001419585732 0.000489595221 2.220446049e-15)
(-0.0002575714696 0.0008992148554 4.024558464e-15)
(-0.0003826495935 0.001352056673 5.981326545e-15)
(-0.002193056445 0.008511127475 3.760880496e-14)
(-0.001873952319 0.007186072656 3.214095656e-14)
(-0.003049780817 0.01229689428 5.498379529e-14)
(-0.003449357661 0.01407537338 6.217248938e-14)
(-0.00742789571 0.03580536831 1.580818809e-13)
(-0.006887710672 0.03280739513 1.466188282e-13)
(-0.007978970559 0.0404407924 1.806887973e-13)
(-0.008526733197 0.04373681202 1.93067784e-13)
(-0.01028159118 0.06530486028 2.882000194e-13)
(-0.009829689849 0.06168319606 2.755434769e-13)
(-0.009883026545 0.067381919 3.009953398e-13)
(-0.01026916711 0.07087498954 3.127775816e-13)
(-0.008615052055 0.08050818742 3.553823902e-13)
(-0.008479380873 0.07822839225 3.495120859e-13)
(-0.007617247415 0.07971934587 3.562289352e-13)
(-0.00766873408 0.08132818111 3.590461262e-13)
(-0.00455849565 0.08134135752 0)
(-0.004569546518 0.08036586865 0)
(-0.003531237616 0.08035410612 0)
(-0.003520186748 0.08132959499 0)
(-0.004039352526 0.08133547638 0)
(0 0 0)
(0 0 0)
(0 0 0)
(0 0 0)
(0 0 0)
(0 0 0)
(0 0 0)
(0 0 0)
(0 0 0)
(0 0 0)
(0 0 0)
(0 0 0)
(0 0 0)
(0 0 0)
(0 0 0)
(0 0 0)
(-3.487128209e-06 1.173148033e-05 5.551115123e-17)
(-0.0008341610624 0.003083471028 1.430799923e-14)
(-0.0005237301694 0.001911843491 8.992806499e-15)
(-0.0012175141 0.004674344449 2.198241589e-14)
(-0.001671875828 0.006499177209 3.017031069e-14)
(-0.004850005945 0.02228215267 1.033617636e-13)
(-0.004088669694 0.01855708901 8.720801858e-14)
(-0.005049868195 0.02439320865 1.146027717e-13)
(-0.005862320409 0.02866197063 1.329492072e-13)
(-0.007907188896 0.04786664787 2.219613382e-13)
(-0.007102218184 0.04248691405 1.995348331e-13)
(-0.007393115832 0.04804869279 2.256528298e-13)
(-0.008148528264 0.05358734566 2.484817907e-13)
(-0.007506488795 0.06672364028 3.09419157e-13)
(-0.006983734091 0.06134893707 2.881306305e-13)
(-0.006471943344 0.06444330646 3.027023077e-13)
(-0.006907127736 0.0695959362 3.227695888e-13)
(-0.00440248569 0.07426128353 3.445299601e-13)
(-0.004192308129 0.06986881799 3.282929484e-13)
(-0.003279341618 0.07057541016 3.31651373e-13)
(-0.003434365786 0.07480839517 3.471112286e-13)
(0 0 0)
(0 0 0)
(0 0 0)
(0 0 0)
(0 0 0)
(0 0 0)
(0 0 0)
(0 0 0)
(0 0 0)
(0 0 0)
(0 0 0)
(0 0 0)
(0 0 0)
(0 0 0)
(0 0 0)
(0 0 0)
(0 0 0)
(-3.061427927e-06 1.075056741e-05 5.551115123e-17)
(0 0 0)
(-3.152497144e-05 0.0001149354022 5.828670879e-16)
(-0.0001862866102 0.0006882358319 3.358424649e-15)
(-0.001877169543 0.008208395645 4.012068455e-14)
(-0.001252170976 0.005405987051 2.678413047e-14)
(-0.001863281973 0.008566967207 4.243827512e-14)
(-0.00259749891 0.01209379571 5.910549827e-14)
(-0.004431570431 0.0255877548 1.250111126e-13)
(-0.003538163355 0.02018756543 9.997558337e-14)
(-0.00391166286 0.02426436207 1.201538868e-13)
(-0.004803926846 0.03014829321 1.47284962e-13)
(-0.004957732021 0.04211432132 2.057382043e-13)
(-0.004195936856 0.0352624128 1.745964484e-13)
(-0.004006025002 0.0381975634 1.8914037e-13)
(-0.004694241345 0.04522482795 2.209343819e-13)
(-0.003170184159 0.05127446265 2.505495811e-13)
(-0.002743909254 0.04401700371 2.179922909e-13)
(-0.002157999064 0.04487900755 2.222805273e-13)
(-0.002491170247 0.05215518003 2.548794509e-13)
(0 0 0)
(0 0 0)
(0 0 0)
(0 0 0)
(0 0 0)
(0 0 0)
(0 0 0)
(0 0 0)
(0 0 0)
(0 0 0)
(0 0 0)
(0 0 0)
(0 0 0)
(0 0 0)
(0 0 0)
(0 0 0)
(0 0 0)
(0 0 0)
(0 0 0)
(0 0 0)
(0 0 0)
(-8.088429066e-05 0.0003355251533 1.734723476e-15)
(0 0 0)
(-5.879739191e-05 0.000256359259 1.346145417e-15)
(-0.000291405264 0.001288195124 6.64746036e-15)
(-0.001240093344 0.006819299306 3.520794767e-14)
(-0.0006923205612 0.003758079114 1.967870311e-14)
(-0.0009319291615 0.005506976565 2.883804306e-14)
(-0.001533592293 0.00917728792 4.737876758e-14)
(-0.001998124707 0.01625882836 8.391898287e-14)
(-0.001379559635 0.0111001244 5.810629755e-14)
(-0.001397384876 0.01278592683 6.69325706e-14)
(-0.001980101621 0.01831097052 9.450773497e-14)
(-0.001439326424 0.02258693258 1.165872954e-13)
(-0.00105083699 0.01636892377 8.569533971e-14)
(-0.000831442512 0.01692913108 8.863743073e-14)
(-0.001135776304 0.02324609381 1.200012312e-13)
(0 0 0)
(0 0 0)
(0 0 0)
(0 0 0)
(0 0 0)
(0 0 0)
(0 0 0)
(0 0 0)
(0 0 0)
(0 0 0)
(0 0 0)
(0 0 0)
(0 0 0)
(0 0 0)
(0 0 0)
(0 0 0)
(0 0 0)
(0 0 0)
(0 0 0)
(0 0 0)
(0 0 0)
(0 0 0)
(0 0 0)
(0 0 0)
(0 0 0)
(0 0 0)
(0 0 0)
(0 0 0)
(-9.093444366e-06 5.157293606e-05 2.775557562e-16)
(-0.000162775667 0.001261734232 6.89726054e-15)
(-1.83424171e-05 0.0001401826054 7.771561172e-16)
(-4.004638853e-05 0.0003487755332 1.929012505e-15)
(-0.000205947682 0.001818455882 9.950373858e-15)
(-0.0002105421217 0.003191841098 1.745825706e-14)
(-6.836259773e-05 0.001024204672 5.689893001e-15)
(-5.852019274e-05 0.001153944249 6.411537967e-15)
(-0.0001719332015 0.003426511802 1.873501354e-14)
(0 0 0)
(0 0 0)
(0 0 0)
(0 0 0)
(0 0 0)
(0 0 0)
(0 0 0)
(0 0 0)
(0 0 0)
(0 0 0)
(0 0 0)
(0 0 0)
(0 0 0)
(0 0 0)
(0 0 0)
(0 0 0)
(0 0 0)
(0 0 0)
(0 0 0)
(0 0 0)
(0 0 0)
(0 0 0)
(0 0 0)
(0 0 0)
(0 0 0)
(0 0 0)
(0 0 0)
(0 0 0)
(0 0 0)
(0 0 0)
(0 0 0)
(0 0 0)
(0 0 0)
(0 0 0)
(0 0 0)
(0 0 0)
(0 0 0)
(0 0 0)
(0 0 0)
(0 0 0)
(0 0 0)
(0 0 0)
(0 0 0)
(0 0 0)
(0 0 0)
(0 0 0)
(0 0 0)
(0 0 0)
(0 0 0)
(0 0 0)
(0 0 0)
(0 0 0)
(0 0 0)
(0 0 0)
(0 0 0)
(0 0 0)
(0 0 0)
(0 0 0)
(0 0 0)
(0 0 0)
(0 0 0)
(0 0 0)
(0 0 0)
(0 0 0)
(0 0 0)
(0 0 0)
(0 0 0)
(0 0 0)
(0 0 0)
(0 0 0)
(0 0 0)
(0 0 0)
(0 0 0)
(0 0 0)
(0 0 0)
(0 0 0)
(0 0 0)
(0 0 0)
(0 0 0)
(0 0 0)
(0 0 0)
(0 0 0)
(0 0 0)
(0 0 0)
(0 0 0)
(0 0 0)
(0 0 0)
(0 0 0)
(0 0 0)
(0 0 0)
(0 0 0)
(0 0 0)
(0 0 0)
(0 0 0)
(0 0 0)
(0 0 0)
(0 0 0)
(0 0 0)
(0 0 0)
(0 0 0)
(0 0 0)
(0 0 0)
(0 0 0)
(0 0 0)
(0 0 0)
(0 0 0)
(0 0 0)
(0 0 0)
(0 0 0)
(0 0 0)
(0 0 0)
(0 0 0)
(0 0 0)
(0 0 0)
(0 0 0)
(0 0 0)
(0 0 0)
(0 0 0)
(0 0 0)
(0 0 0)
(0 0 0)
(0 0 0)
(0 0 0)
(0 0 0)
(0 0 0)
(0 0 0)
(0 0 0)
(0 0 0)
(0 0 0)
(0 0 0)
(0 0 0)
(0 0 0)
(0 0 0)
(0 0 0)
(0 0 0)
(0 0 0)
(0 0 0)
(0 0 0)
(0 0 0)
(0 0 0)
(0 0 0)
(0 0 0)
(0 0 0)
(0 0 0)
(0 0 0)
(0 0 0)
(0 0 0)
(0 0 0)
(0 0 0)
(0 0 0)
(0 0 0)
(0 0 0)
(0 0 0)
(0 0 0)
(0 0 0)
(0 0 0)
(0 0 0)
(0 0 0)
(0 0 0)
(0 0 0)
(0 0 0)
(0 0 0)
(0 0 0)
(0 0 0)
(0 0 0)
(0 0 0)
(0 0 0)
(0 0 0)
(0 0 0)
(0 0 0)
(0 0 0)
(0 0 0)
(0 0 0)
(0 0 0)
(0 0 0)
(0 0 0)
(0 0 0)
(0 0 0)
(0 0 0)
(0 0 0)
(0 0 0)
(0 0 0)
(0 0 0)
(0 0 0)
(0 0 0)
(0 0 0)
(0 0 0)
(0 0 0)
(0 0 0)
(0 0 0)
(0 0 0)
(0 0 0)
(0 0 0)
(0 0 0)
(0 0 0)
(0 0 0)
(0 0 0)
(0 0 0)
(0 0 0)
(0 0 0)
(0 0 0)
(0 0 0)
(0 0 0)
(0 0 0)
(0 0 0)
(0 0 0)
(0 0 0)
(0 0 0)
(0 0 0)
(0 0 0)
(0 0 0)
(0 0 0)
(0 0 0)
(0 0 0)
(0 0 0)
(0 0 0)
(0 0 0)
(0 0 0)
(0 0 0)
(0 0 0)
(0 0 0)
(0 0 0)
(0 0 0)
(0 0 0)
(0 0 0)
(0 0 0)
(0 0 0)
(0 0 0)
(0 0 0)
(0 0 0)
(0 0 0)
(0 0 0)
(0 0 0)
(0 0 0)
(0 0 0)
(0 0 0)
(0 0 0)
(0 0 0)
(0 0 0)
(0 0 0)
(0 0 0)
(0 0 0)
(0 0 0)
(0 0 0)
(0 0 0)
(0 0 0)
(0 0 0)
(0 0 0)
(0 0 0)
(0 0 0)
(0 0 0)
(0 0 0)
(0 0 0)
(0 0 0)
(0 0 0)
(0 0 0)
(0 0 0)
(0 0 0)
(0 0 0)
(0 0 0)
(0 0 0)
(0 0 0)
(0 0 0)
(0 0 0)
(0 0 0)
(0 0 0)
(0 0 0)
(0 0 0)
(0 0 0)
(0 0 0)
(0 0 0)
(0 0 0)
(0 0 0)
(0 0 0)
(0 0 0)
(0 0 0)
(0 0 0)
(0 0 0)
(0 0 0)
(0 0 0)
(0 0 0)
(0 0 0)
(0 0 0)
(0 0 0)
(0 0 0)
(0 0 0)
(0 0 0)
(0 0 0)
(0 0 0)
(0 0 0)
(0 0 0)
(0 0 0)
(0 0 0)
(0 0 0)
(0 0 0)
(0 0 0)
(0 0 0)
(0 0 0)
(0 0 0)
(0 0 0)
(0 0 0)
(0 0 0)
(0 0 0)
(0 0 0)
(0 0 0)
(0 0 0)
(0 0 0)
(0 0 0)
(0 0 0)
(0 0 0)
(0 0 0)
(0 0 0)
(0 0 0)
(0 0 0)
(0 0 0)
(0 0 0)
(0 0 0)
(0 0 0)
(0 0 0)
(0 0 0)
(0 0 0)
(0 0 0)
(0 0 0)
(0 0 0)
(0 0 0)
(0 0 0)
(0 0 0)
(0 0 0)
(0 0 0)
(0 0 0)
(0 0 0)
(0 0 0)
(0 0 0)
(0 0 0)
(0 0 0)
(0 0 0)
(0 0 0)
(0 0 0)
(0 0 0)
(0 0 0)
(0 0 0)
(0 0 0)
(0 0 0)
(0 0 0)
(0 0 0)
(0 0 0)
(0 0 0)
(0 0 0)
(0 0 0)
(0 0 0)
(0 0 0)
(0 0 0)
(0 0 0)
(0 0 0)
(0 0 0)
(0 0 0)
(0 0 0)
(0 0 0)
(0 0 0)
(0 0 0)
(0 0 0)
(0 0 0)
(0 0 0)
(0 0 0)
(0 0 0)
(0 0 0)
(0 0 0)
(0 0 0)
(0 0 0)
(0 0 0)
(0 0 0)
(0 0 0)
(0 0 0)
(0 0 0)
(0 0 0)
(0 0 0)
(0 0 0)
(0 0 0)
(0 0 0)
(0 0 0)
(0 0 0)
(0 0 0)
(0 0 0)
(0 0 0)
(0 0 0)
(0 0 0)
(0 0 0)
(0 0 0)
(0 0 0)
(0 0 0)
(0 0 0)
(0 0 0)
(0 0 0)
(0 0 0)
(0 0 0)
(0 0 0)
(0 0 0)
(0 0 0)
(0 0 0)
(0 0 0)
(0 0 0)
(0 0 0)
(0 0 0)
(0 0 0)
(0 0 0)
(0 0 0)
(0 0 0)
(0 0 0)
(0 0 0)
(0 0 0)
(0 0 0)
(0 0 0)
(0 0 0)
(0 0 0)
(0 0 0)
(0 0 0)
(0 0 0)
(0 0 0)
(0 0 0)
(0 0 0)
(0 0 0)
(0 0 0)
(0 0 0)
(0 0 0)
(0 0 0)
(0 0 0)
(0 0 0)
(0 0 0)
(0 0 0)
(0 0 0)
(0 0 0)
(0 0 0)
(0 0 0)
(0 0 0)
(0 0 0)
(0 0 0)
(0 0 0)
(0 0 0)
(0 0 0)
(0 0 0)
(0 0 0)
(0 0 0)
(0 0 0)
(0 0 0)
(0 0 0)
(0 0 0)
(0 0 0)
(0 0 0)
(0 0 0)
(0 0 0)
(0 0 0)
(0 0 0)
(0 0 0)
(0 0 0)
(0 0 0)
(0 0 0)
(0 0 0)
(0 0 0)
(0 0 0)
(0 0 0)
(0 0 0)
(0 0 0)
(0 0 0)
(0 0 0)
(0 0 0)
(0 0 0)
(0 0 0)
(0 0 0)
(0 0 0)
(0 0 0)
(0 0 0)
(0 0 0)
(0 0 0)
(0 0 0)
(0 0 0)
(0 0 0)
(0 0 0)
(0 0 0)
(0 0 0)
(0 0 0)
(0 0 0)
(0 0 0)
(0 0 0)
(0 0 0)
(0 0 0)
(0 0 0)
(0 0 0)
(0 0 0)
(0 0 0)
(0 0 0)
(0 0 0)
(0 0 0)
(0 0 0)
(0 0 0)
(0 0 0)
(0 0 0)
(0 0 0)
(0 0 0)
(0 0 0)
(0 0 0)
(0 0 0)
(0 0 0)
(0 0 0)
(0 0 0)
(0 0 0)
(0 0 0)
(0 0 0)
(0 0 0)
(0 0 0)
(0 0 0)
(0 0 0)
(0 0 0)
(0 0 0)
(0 0 0)
(0 0 0)
(0 0 0)
(0 0 0)
(0 0 0)
(0 0 0)
(0 0 0)
(0 0 0)
(0 0 0)
(0 0 0)
(0 0 0)
(0 0 0)
(0 0 0)
(0 0 0)
(0 0 0)
(0 0 0)
(0 0 0)
(0 0 0)
(0 0 0)
(0 0 0)
(0 0 0)
(0 0 0)
(0 0 0)
(0 0 0)
(0 0 0)
(0 0 0)
(0 0 0)
(0 0 0)
(0 0 0)
(0 0 0)
(0 0 0)
(0 0 0)
(0 0 0)
(0 0 0)
(0 0 0)
(0 0 0)
(0 0 0)
(0 0 0)
(0 0 0)
(0 0 0)
(0 0 0)
(0 0 0)
(0 0 0)
(0 0 0)
(0 0 0)
(0 0 0)
(0 0 0)
(0 0 0)
(0 0 0)
(0 0 0)
(0 0 0)
(0 0 0)
(0 0 0)
(0 0 0)
(0 0 0)
(0 0 0)
(0 0 0)
(0 0 0)
(0 0 0)
(0 0 0)
(0 0 0)
(0 0 0)
(0 0 0)
(0 0 0)
(0 0 0)
(0 0 0)
(0 0 0)
(0 0 0)
(0 0 0)
(0 0 0)
(0 0 0)
(0 0 0)
(0 0 0)
(0 0 0)
(0 0 0)
(0 0 0)
(0 0 0)
(0 0 0)
(0 0 0)
(0 0 0)
(0 0 0)
(0 0 0)
(0 0 0)
(0 0 0)
(0 0 0)
(0 0 0)
(0 0 0)
(0 0 0)
(0 0 0)
(0 0 0)
(0 0 0)
(0 0 0)
(0 0 0)
(0 0 0)
(0 0 0)
(0 0 0)
(0 0 0)
(0 0 0)
(0 0 0)
(0 0 0)
(0 0 0)
(0 0 0)
(0 0 0)
(0 0 0)
(0 0 0)
(0 0 0)
(0 0 0)
(0 0 0)
(0 0 0)
(0 0 0)
(0 0 0)
(0 0 0)
(0 0 0)
(0 0 0)
(0 0 0)
(0 0 0)
(-0.004354108203 0.08939717016 0)
(-0.004610442784 0.08939984748 0)
(-0.004251961748 0.08548390483 0)
(-0.00451153331 0.0854868454 0)
(-0.007702505775 0.08967737483 0)
(-0.007697842226 0.0901650384 0)
(-0.008732598015 0.09017644348 0)
(-0.004608495361 0.08964375159 0)
(-0.005122024612 0.08964918396 0)
(-0.005126235077 0.08916151526 0)
(-0.004596525042 0.09110640268 0)
(-0.007623721236 0.08576589219 0)
(-0.007695040848 0.08624032383 0)
(-0.008731817292 0.08625336045 0)
(-0.004508771876 0.08573060435 0)
(-0.005027937654 0.08573648574 0)
(-0.005033463088 0.0852487413 0)
(-0.005130442719 0.08867409575 0)
(-0.004616550231 0.08866872724 0)
(-0.004630083431 0.08720611652 0)
(-0.004373567617 0.08720343714 0)
(-0.004371146766 0.08744713197 0)
(-0.004627662323 0.08744983401 0)
(-0.002574953742 0.08718457949 0)
(-0.002565820686 0.08730557814 0)
(-0.00269859827 0.0873073542 0)
(-0.00270495726 0.08718602958 0)
(-0.00254630364 0.08913339859 0)
(-0.002684344983 0.08913552882 0)
(-0.002687984188 0.08901428668 0)
(-0.002551939404 0.089012315 0)
(-0.004033827092 0.08182322082 0)
(-0.004552970216 0.08182910195 0)
(-0.002543360342 0.08925501113 0)
(-0.002682603596 0.08925724561 0)
(-0.004598517261 0.09086254439 0)
(-0.004342182936 0.09085984441 0)
(-0.002410027782 0.0891314243 0)
(-0.002404562863 0.08925282702 0)
(-0.002438105865 0.08522069911 0)
(-0.00243579677 0.08546672889 0)
(-0.002564403171 0.0854675061 0)
(-0.002693857441 0.08546783978 0)
(-0.002697152752 0.08522295402 0)
(-0.002712311493 0.08706485218 0)
(-0.002584558004 0.08706358617 0)
(-0.004632594129 0.08696249067 0)
(-0.004376055147 0.08695985635 0)
(-0.002472882866 0.08706284217 0)
(-0.002462375729 0.08718373463 0)
(-0.002179161823 0.08521776565 0)
(-0.002178463441 0.08546381368 0)
(-0.002307854136 0.0854659592 0)
(-0.002418117206 0.08901054977 0)
(-0.002451253681 0.08730450683 0)
(-0.001217568691 0.08808210154 0)
(-0.001085002092 0.0880801013 0)
(-0.001079204077 0.08820070725 0)
(-0.001210723796 0.08820271829 0)
(-0.002601793807 0.08816253674 0)
(-0.00272173349 0.0881631478 0)
(-0.002723791779 0.08804145726 0)
(-0.002606002447 0.08804102916 0)
(-0.003598477094 0.08817070104 0)
(-0.003600602414 0.08792709348 0)
(-0.003346893151 0.08792467247 0)
(-0.003344881358 0.08816825865 0)
(-0.003607595941 0.08719575671 0)
(-0.003353841369 0.08719333518 0)
(-0.003352416371 0.08731512352 0)
(-0.003351263479 0.08743689229 0)
(-0.003605130038 0.08743942837 0)
(-0.003589856382 0.08914567366 0)
(-0.003591933571 0.08890231479 0)
(-0.00333765821 0.08889986471 0)
(-0.003335377903 0.08914315331 0)
(-0.003342575318 0.08841181884 0)
(-0.003596329376 0.08841428568 0)
(-0.002595527487 0.08828368116 0)
(-0.002717798241 0.08828452254 0)
(-0.002571464942 0.09011174465 0)
(-0.002696112331 0.09011279421 0)
(-0.00269844478 0.08999090287 0)
(-0.002575200923 0.08998995983 0)
(-0.003581773211 0.09012119615 0)
(-0.003583857329 0.08987722562 0)
(-0.003329605136 0.08987473048 0)
(-0.003327475966 0.09011867785 0)
(-0.003333387738 0.08938683036 0)
(-0.003587866216 0.08938935072 0)
(-0.003575488893 0.09085192922 0)
(-0.003320784643 0.09084933834 0)
(-0.003325257976 0.09036246561 0)
(-0.003579668748 0.09036496254 0)
(-0.002566864597 0.09023342905 0)
(-0.002693168989 0.09023461067 0)
(-0.002447847548 0.09011077473 0)
(-0.002441019572 0.09023229796 0)
(-0.002453806373 0.0899891737 0)
(-0.003610196229 0.08695222251 0)
(-0.003356689827 0.08694989442 0)
(-0.003355174982 0.08707161377 0)
(-0.003563929575 0.08619230087 0)
(-0.00330920764 0.08619927107 0)
(-0.0033401315 0.08633554125 0)
(-0.003355179051 0.08646125462 0)
(-0.00360895203 0.08646005122 0)
(-0.002542259056 0.08619162489 0)
(-0.002588467255 0.08632890652 0)
(-0.002709373555 0.08632819176 0)
(-0.002666192362 0.08618790837 0)
(-0.002479327039 0.08622319831 0)
(-0.002510385658 0.08633357296 0)
(-0.001270279333 0.0861379958 0)
(-0.001266931596 0.08625930922 0)
(-0.001389364921 0.08625800002 0)
(-0.001392791177 0.08613675546 0)
(-0.001232058897 0.08710581332 0)
(-0.001358374324 0.08710602081 0)
(-0.001361392124 0.08698443177 0)
(-0.001235527214 0.08698445596 0)
(-0.002483252613 0.08816207747 0)
(-0.002474340842 0.08828294269 0)
(-0.001339283239 0.0882122406 0)
(-0.001373284821 0.08811223225 0)
(-0.001228873757 0.0872271739 0)
(-0.001356109882 0.08722770902 0)
(-0.001340551289 0.08795790654 0)
(-0.001217379996 0.08795895815 0)
(-0.002491085106 0.08804088283 0)
(-0.001087067567 0.08795777644 0)
(-0.001107054032 0.08710611914 0)
(-0.001103054669 0.08722715329 0)
(-0.007662396708 0.08235190769 0)
(-0.008677948215 0.08215341198 3.583522368e-13)
(-0.004547447348 0.08231661985 0)
(-0.005066613126 0.08232250124 0)
(-0.005585778904 0.08232838263 0)
(-0.005596827206 0.0813531203 0)
(-0.005038988522 0.08476099687 0)
(-0.00453639648 0.08329210872 0)
(-0.004017253356 0.08328622758 0)
(-0.004011727922 0.08377397201 0)
(-0.004530871046 0.08377985315 0)
(-0.00245977188 0.08326858358 0)
(-0.002454246446 0.08375632802 0)
(-0.002973396366 0.08376220923 0)
(-0.0029789218 0.0832744648 0)
(-0.002700009936 0.08497874302 0)
(-0.002440598918 0.08497603084 0)
(-0.002573559102 0.08767268792 0)
(-0.002704025491 0.0876742792 0)
(-0.002696378483 0.08755130054 0)
(-0.002560580116 0.08754937697 0)
(-0.003094492118 0.08767877059 0)
(-0.003094790568 0.08755642571 0)
(-0.002964687628 0.08755495183 0)
(-0.002965815366 0.08767740349 0)
(-0.003098841845 0.08719080892 0)
(-0.002969214387 0.08718936309 0)
(-0.002966522037 0.08731102379 0)
(-0.003096964276 0.08731254682 0)
(-0.002181185935 0.08497309207 0)
(-0.001940612898 0.08326270227 0)
(-0.001935087464 0.0837504467 0)
(-0.002552199122 0.09059758884 0)
(-0.002419891462 0.09059593138 0)
(-0.0024132964 0.09071709473 0)
(-0.002547607414 0.09071891082 0)
(-0.002565820548 0.08962299006 0)
(-0.002554260908 0.08949998973 0)
(-0.002420905386 0.08949822978 0)
(-0.002442049106 0.08962201839 0)
(-0.00256279209 0.08605272034 0)
(-0.002394611135 0.0860258923 0)
(-0.003467474999 0.0859625982 0)
(-0.003207450353 0.0859596525 0)
(-0.003228635413 0.08607159192 0)
(-0.003475965754 0.08523109713 0)
(-0.003216323663 0.08522838233 0)
(-0.003213426304 0.08547213974 0)
(-0.003473133791 0.08547508185 0)
(-0.003100990238 0.08706916471 0)
(-0.002972403845 0.0870678213 0)
(-0.003107328304 0.08670368711 0)
(-0.002981866134 0.08670256035 0)
(-0.002979216527 0.08682444811 0)
(-0.003105539298 0.08682560727 0)
(-0.002613715738 0.086700157 0)
(-0.00260487385 0.08682145349 0)
(-0.002727770372 0.08682225664 0)
(-0.002734154582 0.08670070574 0)
(-0.001111356704 0.08698511108 0)
(-0.001257248744 0.08637823985 0)
(-0.002506088343 0.08669970808 0)
(-0.002495778978 0.08682094263 0)
(-0.001753348506 0.08662021864 0)
(-0.00174696512 0.08674029685 0)
(-0.001867700953 0.0867456296 0)
(-0.001904303083 0.0866486641 0)
(-0.001399519821 0.08520780059 0)
(-0.001396986893 0.0854517887 0)
(-0.001657226152 0.08545518997 0)
(-0.00165934934 0.08521097065 0)
(-0.001407257087 0.08601901187 0)
(-0.001284448048 0.08601988633 0)
(-0.002573923718 0.08864810219 0)
(-0.00244677937 0.08864686575 0)
(-0.002437227849 0.08876840343 0)
(-0.002566404746 0.0887698215 0)
(-0.002430956395 0.0875400012 0)
(-0.002421547789 0.08764212338 0)
(-0.001209366958 0.08858988983 0)
(-0.001176032357 0.08868902212 0)
(-0.00117920595 0.0884366808 0)
(-0.003092756605 0.08816596887 0)
(-0.00309381888 0.08804419908 0)
(-0.002968718664 0.08804312173 0)
(-0.002967678786 0.08816491443 0)
(-0.0029673331 0.08779942909 0)
(-0.003094154007 0.08780061656 0)
(-0.002592808978 0.08779625116 0)
(-0.002714348514 0.08779703894 0)
(-0.002702946567 0.08864951852 0)
(-0.00270808839 0.08852763634 0)
(-0.002581324632 0.08852640421 0)
(-0.003086803564 0.08865345923 0)
(-0.00308834594 0.08853130971 0)
(-0.002961933065 0.0885301042 0)
(-0.002959756629 0.08865222389 0)
(-0.002966006901 0.08828649607 0)
(-0.003091469071 0.08828762283 0)
(-0.002557018353 0.09047638271 0)
(-0.00242680693 0.09047488495 0)
(-0.002455449248 0.08974515285 0)
(-0.002574308327 0.08974575167 0)
(-0.002737121092 0.08657884423 0)
(-0.002618898507 0.08657866045 0)
(-0.003107577338 0.08658170419 0)
(-0.002982523201 0.08658055939 0)
(-0.003053047877 0.08619716215 0)
(-0.002924067824 0.08619456814 0)
(-0.00295969708 0.08633148071 0)
(-0.003086420954 0.0863332335 0)
(-0.001789459385 0.08614421721 0)
(-0.001772361459 0.08626009576 0)
(-0.001917786955 0.08626740749 0)
(-0.001972282807 0.08616511637 0)
(-0.001877791564 0.08649710506 0)
(-0.001755569136 0.08649859791 0)
(-0.002515634944 0.08657880474 0)
(-0.001731278867 0.0871117633 0)
(-0.001766861612 0.08701338151 0)
(-0.001616144391 0.08698498406 0)
(-0.00161086528 0.08710618497 0)
(-0.001625437075 0.08661949462 0)
(-0.001621107732 0.08674045706 0)
(-0.001248529147 0.08662014139 0)
(-0.001243671616 0.08674152833 0)
(-0.001368322953 0.08674062943 0)
(-0.001372262264 0.08661909614 0)
(-0.002456120207 0.08852532568 0)
(-0.001268225423 0.08841969954 0)
(-0.001221909153 0.08759275769 0)
(-0.001350104275 0.08759343961 0)
(-0.001351708073 0.08747126812 0)
(-0.001223730432 0.08747058866 0)
(-0.001603596628 0.08722620783 0)
(-0.001695518561 0.08721061888 0)
(-0.001221078331 0.08771509653 0)
(-0.001350522334 0.08771633637 0)
(-0.002482534159 0.08779649727 0)
(-0.0030808554 0.08914051917 0)
(-0.003081891685 0.08901904362 0)
(-0.002953441474 0.08901767909 0)
(-0.002951862002 0.08913910317 0)
(-0.002957557025 0.08877438863 0)
(-0.003085034133 0.0887756515 0)
(-0.002697736267 0.08877144524 0)
(-0.0026937389 0.08962430324 0)
(-0.002688170943 0.08950180128 0)
(-0.003077686 0.08962829029 0)
(-0.003078139436 0.08950626437 0)
(-0.002950210014 0.0895049284 0)
(-0.002950413037 0.08962700707 0)
(-0.002950663802 0.08926087143 0)
(-0.003079476223 0.08926226271 0)
(-0.002292671109 0.08913000419 0)
(-0.002283055909 0.08925036298 0)
(-0.002273800568 0.08936535612 0)
(-0.002406527353 0.08937501627 0)
(-0.00254558963 0.08937722604 0)
(-0.002594743966 0.08694264476 0)
(-0.002484262915 0.08694209554 0)
(-0.002558916038 0.08889126927 0)
(-0.002427482573 0.08888964437 0)
(-0.002312995583 0.08888870992 0)
(-0.002302301698 0.08900948697 0)
(-0.002559367274 0.08742703763 0)
(-0.002440509064 0.0874247622 0)
(-0.001142313138 0.08878930555 0)
(-0.001085877432 0.08895943266 0)
(-0.003073970591 0.09011625914 0)
(-0.003075193755 0.08999428726 0)
(-0.002948916548 0.08999310595 0)
(-0.002947602767 0.09011507681 0)
(-0.002950412171 0.08974908343 0)
(-0.003077028934 0.08975029125 0)
(-0.002697971029 0.0897467221 0)
(-0.00268366909 0.09059919148 0)
(-0.002686788276 0.09047785282 0)
(-0.003068884055 0.09060326087 0)
(-0.00307010183 0.09048176472 0)
(-0.002943032497 0.09048050646 0)
(-0.002941543129 0.09060197688 0)
(-0.002946130664 0.09023702322 0)
(-0.003072702118 0.09023823052 0)
(-0.002325106101 0.09010988271 0)
(-0.002316157225 0.0902312233 0)
(-0.00230706892 0.09035247169 0)
(-0.002433911968 0.09035370472 0)
(-0.002561957183 0.09035501935 0)
(-0.002576831606 0.08986801522 0)
(-0.002457440411 0.08986738772 0)
(-0.002340751814 0.08986699475 0)
(-0.002333629591 0.08998849198 0)
(-0.00261308777 0.08645558931 0)
(-0.002731403795 0.08645552492 0)
(-0.002853267287 0.08645631637 0)
(-0.002833609062 0.08632959917 0)
(-0.002794620503 0.08619122116 0)
(-0.002105709752 0.08616717167 0)
(-0.002064924119 0.08629202596 0)
(-0.002178219478 0.0861529488 0)
(-0.002520155964 0.08645612253 0)
(-0.00137623645 0.08649808436 0)
(-0.001252963727 0.08649908951 0)
(-0.001628316383 0.08649813058 0)
(-0.001657549076 0.08614188454 0)
(-0.001641831683 0.08625829985 0)
(-0.002374757307 0.08816164137 0)
(-0.002364421403 0.08828221857 0)
(-0.002354523406 0.08840314059 0)
(-0.002465306952 0.08840398778 0)
(-0.002588564657 0.08840490831 0)
(-0.001193324693 0.08831918251 0)
(-0.001303486038 0.08831755303 0)
(-0.001433485261 0.08794278218 0)
(-0.001468611808 0.0878436702 0)
(-0.001346675224 0.08783753085 0)
(-0.001218780164 0.0878367617 0)
(-0.002604869833 0.08791900793 0)
(-0.002494113251 0.08791918062 0)
(-0.002395887198 0.08792065077 0)
(-0.002385478163 0.08804068337 0)
(-0.001093401448 0.08759186831 0)
(-0.001091348158 0.08771371751 0)
(-0.002272810363 0.09083676394 0)
(-0.00228090945 0.09071543638 0)
(-0.002165095996 0.09071419235 0)
(-0.002156066078 0.09083548671 0)
(-0.002289254397 0.09059440614 0)
(-0.002174096631 0.09059328283 0)
(-0.002329931052 0.08962197174 0)
(-0.002265586395 0.0894672426 0)
(-0.002252064693 0.08963463856 0)
(-0.002967692212 0.08606772953 0)
(-0.002835087491 0.08606509446 0)
(-0.002949769101 0.0857138494 0)
(-0.002819044233 0.08571327476 0)
(-0.002815757999 0.08583535922 0)
(-0.002947187713 0.08583571527 0)
(-0.002432443192 0.08571795797 0)
(-0.002425942505 0.08584499057 0)
(-0.002552484476 0.08583940041 0)
(-0.002558695507 0.08571553652 0)
(-0.002720118554 0.08694370256 0)
(-0.002847821947 0.08694499065 0)
(-0.002853029424 0.08682331313 0)
(-0.002857195834 0.08670153319 0)
(-0.001737958255 0.08685975625 0)
(-0.001829902417 0.08684380503 0)
(-0.002312187738 0.08572022078 0)
(-0.002319740231 0.08585534256 0)
(-0.001920206391 0.08570603766 0)
(-0.001923586537 0.08583046334 0)
(-0.002059615382 0.08583744205 0)
(-0.002053322352 0.08571094423 0)
(-0.001976900048 0.08603634049 0)
(-0.001837095545 0.08603724899 0)
(-0.002334342069 0.08864599982 0)
(-0.002323909301 0.08876752752 0)
(-0.002203615715 0.0902303562 0)
(-0.002193644154 0.09035157192 0)
(-0.002213522349 0.09010907177 0)
(-0.002298023959 0.090473494 0)
(-0.002183696318 0.09047249338 0)
(-0.002342901021 0.08974507867 0)
(-0.002243018222 0.08974639411 0)
(-0.002233292574 0.08986650242 0)
(-0.002223408595 0.08998778711 0)
(-0.002858691105 0.08657954173 0)
(-0.001766932025 0.08638036603 0)
(-0.001892946196 0.08638036619 0)
(-0.002012232384 0.08638466295 0)
(-0.001969837413 0.08648117765 0)
(-0.001617881726 0.086862225 0)
(-0.001491055721 0.08686248753 0)
(-0.001488762934 0.08698487778 0)
(-0.001485279229 0.08710639358 0)
(-0.002344500722 0.08852446902 0)
(-0.001482850979 0.08735054147 0)
(-0.00147812848 0.08747140883 0)
(-0.001599184675 0.08747706241 0)
(-0.001634517835 0.08737931219 0)
(-0.001471258497 0.08759164012 0)
(-0.001563410475 0.0875761444 0)
(-0.001483224444 0.08722817478 0)
(-0.001503051969 0.08774554735 0)
(-0.002405415042 0.08780960305 0)
(-0.003825165288 0.01721565785 6.862566071e-14)
(-0.002470746835 0.01057552246 4.216071936e-14)
(-0.008048508229 0.04281077044 1.705718899e-13)
(-0.006715081036 0.03367962284 1.342120859e-13)
(-0.006658169243 0.03302692202 1.330602295e-13)
(-0.009191209333 0.05203552796 2.073063943e-13)
(-0.01089909831 0.0764695899 3.045619312e-13)
(-0.01065406036 0.069225753 2.757238882e-13)
(-0.01070887498 0.06878903045 2.769867669e-13)
(-0.01080525184 0.08239519704 3.281819261e-13)
(-0.009679969911 0.08938310954 3.560624018e-13)
(-0.00970107216 0.08852008875 3.564787354e-13)
(-0.008723410436 0.091151455 0)
(-0.007688949151 0.09114005326 0)
(-0.006655779154 0.09112866614 0)
(-0.007172160265 0.09113435739 0)
(-0.004308382024 0.01857193918 7.73964226e-14)
(-0.002890103989 0.01184958937 4.939104681e-14)
(-0.008566610578 0.04362076046 1.81687998e-13)
(-0.007246440674 0.0347995234 1.449673714e-13)
(-0.00730807583 0.03482730513 1.467298505e-13)
(-0.006938517378 0.03403017884 1.386113446e-13)
(-0.009674633771 0.05242226397 2.183253578e-13)
(-0.01118855168 0.07508719462 3.126526815e-13)
(-0.0110188615 0.06849528473 2.85216295e-13)
(-0.01101969204 0.06803638056 2.864930515e-13)
(-0.01076770273 0.06836842963 2.783329123e-13)
(-0.01101471234 0.08032997538 3.344824417e-13)
(-0.009732750696 0.08595238947 3.579636587e-13)
(-0.009673804129 0.08502504704 3.581024366e-13)
(-0.00972303924 0.08765876385 3.569089468e-13)
(-0.008762826878 0.08724806321 0)
(-0.007727019058 0.08723952366 0)
(-0.007721785561 0.08772749798 0)
(-0.006692442962 0.08722825657 0)
(-0.00668732402 0.08771611889 0)
(-0.007204384756 0.08772181784 0)
(-0.007209571661 0.08723395628 0)
(-0.006673138725 0.08917829174 0)
(-0.007189904957 0.08918398735 0)
(-0.007194588337 0.08869657323 0)
(-0.006677708834 0.08869087634 0)
(-0.004620805748 0.0881810817 0)
(-0.004364357896 0.08817840309 0)
(-0.004362254974 0.08842203356 0)
(-0.00461865726 0.08842473431 0)
(-0.003850966433 0.08841680783 0)
(-0.003853069099 0.08817320002 0)
(-0.003844742379 0.0891482213 0)
(-0.003846751605 0.08890486165 0)
(-0.003792468278 0.01566011871 6.834810495e-14)
(-0.002471661629 0.009706895001 4.238276397e-14)
(-0.007877661244 0.03842780637 1.676436767e-13)
(-0.006591608394 0.0303248877 1.32310829e-13)
(-0.006161181825 0.02801013319 1.236788449e-13)
(-0.007171054708 0.03377739863 1.439542929e-13)
(-0.008978382271 0.04660616566 2.032818358e-13)
(-0.01063733674 0.06838973065 2.9823366e-13)