/*--------------------------------*- C++ -*----------------------------------*\
| =========                 |                                                 |
| \\      /  F ield         | OpenFOAM: The Open Source CFD Toolbox           |
|  \\    /   O peration     | Version:  v2012                                 |
|   \\  /    A nd           | Website:  www.openfoam.com                      |
|    \\/     M anipulation  |                                                 |
\*---------------------------------------------------------------------------*/
FoamFile
{
    version     2.0;
    format      ascii;
    class       volVectorField;
    location    "1.74";
    object      U;
}
// * * * * * * * * * * * * * * * * * * * * * * * * * * * * * * * * * * * * * //

dimensions      [0 1 -1 0 0 0 0];


internalField   nonuniform List<vector> 
3259
(
(101.2904524 -0.1714402448 6.289665582e-21)
(101.2432016 -0.5174277895 9.935982348e-20)
(101.1525578 -0.8743157323 -2.001231406e-19)
(101.0039973 -1.268289694 -4.923508628e-22)
(100.7290906 -1.54939302 -1.581074955e-21)
(100.405037 -1.984656436 0)
(99.95157496 -2.52048165 5.413814643e-20)
(99.33442156 -3.085548848 1.871526673e-19)
(98.37326213 -4.022784616 0)
(96.88036338 -5.257199706 1.399116717e-20)
(95.04782208 -6.722148765 -2.095540243e-19)
(93.16579674 -8.114131696 2.334679426e-19)
(101.6286636 -0.1849227233 0)
(101.58996 -0.5592354318 0)
(101.5162192 -0.9439647935 0)
(101.3946022 -1.367584422 0)
(101.151389 -1.692160014 0)
(100.8792656 -2.172248731 0)
(100.5098949 -2.76180347 9.934639319e-20)
(100.0068803 -3.386142503 3.432449894e-19)
(99.2503696 -4.390412608 1.861736286e-21)
(98.06945507 -5.717585088 -3.911302117e-19)
(96.67144776 -7.412422392 0)
(95.25744383 -9.728495537 0)
(101.9884444 -0.1937547027 0)
(101.9591408 -0.5868521307 0)
(101.9045081 -0.9897624921 0)
(101.8118833 -1.427222098 0)
(101.6010691 -1.777913756 0)
(101.3913966 -2.279861689 0)
(101.1120449 -2.876191737 0)
(100.7357096 -3.51101719 1.569060754e-19)
(100.2170155 -4.474917443 0)
(99.37681648 -5.745969416 0)
(98.51761796 -7.356851329 3.278719452e-19)
(97.90518134 -9.505903172 -1.378008305e-19)
(102.3610828 -0.1980544337 0)
(102.3408832 -0.6002121213 0)
(102.3048198 -1.011609088 0)
(102.2402229 -1.450766852 0)
(102.061256 -1.815111527 0)
(101.9084398 -2.318269659 0)
(101.7096686 -2.897316695 -6.353743566e-22)
(101.4475023 -3.501436522 -2.904420766e-19)
(101.1152344 -4.356397329 6.64531189e-19)
(100.555713 -5.430013394 -1.050779916e-20)
(100.0020403 -6.702191411 0)
(98.07024065 -7.900656531 0)
(102.7381745 -0.1983023114 0)
(102.726079 -0.6007614788 0)
(102.7061625 -1.011803135 0)
(102.6661178 -1.442957486 0)
(102.516127 -1.81000992 0)
(102.4118365 -2.298229565 0)
(102.2771831 -2.84318047 0)
(102.0941906 -3.402021583 3.239845894e-20)
(101.8907786 -4.117665562 5.770697436e-20)
(101.5048646 -4.957490112 -3.737393475e-19)
(101.042484 -5.870508351 0)
(99.68521361 -6.519220591 -4.531157411e-19)
(103.1122052 -0.1951363674 0)
(103.1069409 -0.5905776516 0)
(103.1001277 -0.9938126696 0)
(103.0800398 -1.40902476 0)
(102.955318 -1.769347217 0)
(102.8885356 -2.231708368 0)
(102.8012421 -2.732922951 0)
(102.6671443 -3.244790559 0)
(102.5284865 -3.834114539 1.328938649e-19)
(102.2260319 -4.470902775 -7.11368074e-19)
(101.7841646 -5.121086586 -3.139421466e-19)
(100.9446928 -5.568100436 4.952712391e-19)
(103.477081 -0.1892256628 0)
(103.47728 -0.5718354934 0)
(103.4804356 -0.9614055224 0)
(103.4753796 -1.355088791 0)
(103.3708809 -1.701480939 0)
(103.3305412 -2.13168442 0)
(103.2739576 -2.585236625 0)
(103.1680497 -3.044361314 0)
(103.0450002 -3.542702968 0)
(102.7588951 -4.036203155 0)
(102.307031 -4.504181676 -1.967057305e-21)
(101.423249 -4.855186291 -1.87244785e-19)
(103.8281426 -0.1812511882 0)
(103.8324049 -0.5467242059 0)
(103.8424545 -0.9183761234 0)
(103.8476318 -1.287206135 0)
(103.7582224 -1.614860846 0)
(103.7343035 -2.010003931 0)
(103.694469 -2.416503285 0)
(103.6000429 -2.822419093 0)
(103.4702217 -3.242013803 0)
(103.1619539 -3.63848501 0)
(102.664306 -3.99401151 0)
(101.1887523 -4.226023102 0)
(104.1620834 -0.1718735715 0)
(104.1690723 -0.5173409225 0)
(104.1831773 -0.8682847471 0)
(104.1942718 -1.210809491 0)
(104.1152626 -1.516908041 0)
(104.0993888 -1.876539594 0)
(104.0654102 -2.240143316 0)
(103.9704987 -2.594791089 0)
(103.8207217 -2.948028451 0)
(103.4793714 -3.26891649 0)
(102.9350451 -3.546720771 0)
(100.8916455 -3.684605488 0)
(104.4768055 -0.1616818853 0)
(104.4853411 -0.4855495041 0)
(104.5010519 -0.8142388973 0)
(104.5143866 -1.130393513 0)
(104.4419123 -1.413673883 0)
(104.4274489 -1.739217123 0)
(104.3906851 -2.064158104 0)
(104.2879918 -2.372318001 0)
(104.1108944 -2.670592822 0)
(103.7329443 -2.932833077 0)
(103.1459151 -3.154307283 0)
(100.6326377 -3.229674602 0)
(104.7712811 -0.1511640991 0)
(104.7803793 -0.4528978134 0)
(104.7957153 -0.7588395763 0)
(104.8082868 -1.049424575 0)
(104.7394118 -1.309861939 0)
(104.7213438 -1.603745449 0)
(104.6758004 -1.893923195 0)
(104.5605784 -2.161517309 0)
(104.3527423 -2.414674775 0)
(103.9386305 -2.631404073 0)
(103.3114459 -2.811092088 0)
(100.4114311 -2.845504321 0)
(105.0453669 -0.1407057582 0)
(105.0542357 -0.4205930845 0)
(105.0676899 -0.7041271882 0)
(105.0771916 -0.9705305589 0)
(105.0095558 -1.208902647 0)
(104.9843939 -1.473993216 0)
(104.9260734 -1.733007462 0)
(104.7955062 -1.966055342 0)
(104.5559799 -2.182289215 0)
(104.1082724 -2.363623293 0)
(103.4418978 -2.511507036 0)
(100.2262537 -2.518936348 0)
(105.2995781 -0.1306012547 0)
(105.307597 -0.3895335811 0)
(105.3180763 -0.6516093205 0)
(105.3228415 -0.8956101856 0)
(105.2546357 -1.113208866 0)
(105.2200481 -1.352496414 0)
(105.1464831 -1.583485609 0)
(104.998918 -1.787808942 0)
(104.7283241 -1.97378979 0)
(104.2504981 -2.127496234 0)
(103.5449974 -2.250664698 0)
(100.0744813 -2.240404904 0)
(105.5348971 -0.1210678541 0)
(105.5415936 -0.360363142 0)
(105.5483367 -0.6023487574 0)
(105.5472238 -0.8259625065 0)
(105.4771091 -1.024362799 0)
(105.4316304 -1.24071165 0)
(105.3416926 -1.447110229 0)
(105.1760514 -1.62725965 0)
(104.8759557 -1.788551102 0)
(104.3715203 -1.920565229 0)
(103.626656 -2.024200871 0)
(99.95250693 -2.002465216 0)
(105.7526423 -0.1122581771 0)
(105.7576673 -0.3335215787 0)
(105.7601703 -0.5570582491 0)
(105.7524433 -0.7624235885 0)
(105.6794081 -0.9433527761 0)
(105.6221792 -1.139502444 0)
(105.51535 -1.324697055 0)
(105.3313906 -1.484337795 0)
(105.0038178 -1.625501789 0)
(104.4758343 -1.740355378 0)
(103.6913831 -1.828385289 0)
(99.85634742 -1.799180394 0)
(105.9543727 -0.104272553 0)
(105.9574759 -0.3092886954 0)
(105.9554285 -0.5161809835 0)
(105.9406529 -0.705474415 0)
(105.8639482 -0.8707076129 0)
(105.7945368 -1.049259537 0)
(105.6706944 -1.216286996 0)
(105.46871 -1.358559921 0)
(105.1158752 -1.483351116 0)
(104.5668297 -1.58453511 0)
(103.7427232 -1.660019169 0)
(99.78248026 -1.626069798 0)
(106.1417602 -0.09717255297 0)
(106.1427687 -0.2878270599 0)
(106.1360035 -0.4799658568 0)
(106.1139631 -0.6553574296 0)
(106.0330299 -0.8066577785 0)
(105.9512935 -0.970058447 0)
(105.8104867 -1.12139428 0)
(105.5911636 -1.24929279 0)
(105.2152754 -1.360774697 0)
(104.6471221 -1.45101639 0)
(103.7834468 -1.516365752 0)
(99.7277602 -1.479571697 0)
(106.3166162 -0.09098969728 0)
(106.3154074 -0.2692115291 0)
(106.3038511 -0.448519794 0)
(106.2744845 -0.612133479 0)
(106.1888351 -0.7512304083 0)
(106.0948324 -0.9017267209 0)
(105.9373689 -1.039474922 0)
(105.7013644 -1.155747007 0)
(105.3045423 -1.256462719 0)
(104.7187861 -1.337938564 0)
(103.8157086 -1.395076238 0)
(99.6894518 -1.35678334 0)
(106.480542 -0.08574226616 0)
(106.4770461 -0.2534711674 0)
(106.4606926 -0.4218565845 0)
(106.4240489 -0.5758284081 0)
(106.3333911 -0.7043118711 0)
(106.2273128 -0.8439396368 0)
(106.0536924 -0.9702189874 0)
(105.8015654 -1.077091807 0)
(105.3857338 -1.169185094 0)
(104.7835043 -1.243686143 0)
(103.841191 -1.29418216 0)
(99.66529934 -1.255347472 0)
(106.6360067 -0.08141887335 0)
(106.6301218 -0.2405745412 0)
(106.6089477 -0.3999215795 0)
(106.5650898 -0.546205694 0)
(106.4686504 -0.6657373935 0)
(106.3506981 -0.7963308396 0)
(106.1617483 -0.9137085103 0)
(105.8937037 -1.01243766 0)
(105.4605731 -1.097832653 0)
(104.8426802 -1.166885819 0)
(103.8612262 -1.21205527 0)
(99.65337529 -1.173456045 0)
(106.7822122 -0.07806660842 0)
(106.7740189 -0.2305916736 0)
(106.7481134 -0.3827040985 0)
(106.6972296 -0.5236988533 0)
(106.59643 -0.6352130937 0)
(106.4667836 -0.7586203337 0)
(106.2629028 -0.8697527108 0)
(105.9797179 -0.9611077605 0)
(105.5305637 -1.041452224 0)
(104.8975256 -1.106373452 0)
(103.8768945 -1.147344946 0)
(99.65198825 -1.109611491 0)
(106.9305009 -0.07552532341 0)
(106.919528 -0.2232484624 0)
(106.888598 -0.3700202334 0)
(106.8297072 -0.5057776986 0)
(106.7191593 -0.6127480578 0)
(106.5771779 -0.7308810721 0)
(106.3586079 -0.8373922665 0)
(106.0610768 -0.9226300386 0)
(105.5969665 -0.9992654287 0)
(104.9490884 -1.061187303 0)
(103.8891164 -1.09896483 0)
(99.65965928 -1.062602747 0)
(107.0455519 -0.07430402291 0)
(107.0328949 -0.2193637728 0)
(106.9981378 -0.362851649 0)
(106.934689 -0.4987119458 0)
(106.8355851 -0.5976540955 0)
(106.683134 -0.7124552956 0)
(106.4502599 -0.8162014472 0)
(106.1390715 -0.8964773684 0)
(105.6608626 -0.9705902075 0)
(104.9983136 -1.030505455 0)
(103.8987483 -1.066051635 0)
(99.6752334 -1.031510443 0)
(107.2681251 -0.0729299463 0)
(107.2515838 -0.2163321777 0)
(107.2091798 -0.3576026212 0)
(107.1310377 -0.4879884872 0)
(106.9448068 -0.5910585924 0)
(106.7809228 -0.7036926745 0)
(106.5353173 -0.8063454597 0)
(106.2147835 -0.8823070974 0)
(105.7230954 -0.9548332129 0)
(105.0460153 -1.013536886 0)
(103.9067365 -1.047935132 0)
(99.69781609 -1.015738584 0)
(93.06752012 -8.022508244 0)
(95.02632873 -9.493747457 0)
(94.68820183 -6.502959456 6.178616903e-20)
(93.19324845 -7.831527901 0)
(96.23559445 -7.301921248 0)
(95.10665307 -9.203596919 5.911196623e-20)
(93.39143949 -7.99256177 -1.408565034e-19)
(93.93376936 -8.710118938 2.187800275e-19)
(90.96011343 -9.418113871 -9.336548987e-19)
(91.12338007 -8.709854355 0)
(98.20831537 -9.618577522 0)
(91.10503685 -8.660036306 4.571365016e-19)
(90.35093078 -8.646444642 0)
(80.2337083 -8.973255883 2.697417731e-19)
(90.96900012 -9.482894245 0)
(94.05767032 -8.808305745 -2.193912118e-19)
(89.48679236 -9.368925722 1.401437551e-19)
(47.34503063 -7.641604552 0)
(90.35324217 -8.692158698 0)
(89.4873624 -9.304797471 6.905453521e-19)
(88.11180947 -28.05372308 2.459823097e-19)
(91.29771085 -9.076134373 0)
(92.91178927 -8.894403684 2.581604762e-19)
(93.22156969 -9.204484041 2.25619323e-22)
(92.53687777 -8.511731225 2.681537393e-19)
(92.81554381 -8.795166185 2.628374706e-19)
(91.28802205 -9.012740073 0)
(91.09772556 -8.393881738 2.530323035e-19)
(92.18297307 -8.155867881 0)
(92.44764431 -8.420322021 0)
(92.09465272 -8.067956955 0)
(91.05791627 -8.35363684 -2.502303094e-19)
(90.64270177 -8.375463997 0)
(90.68222989 -8.412661483 -2.651318874e-19)
(93.33487147 -9.312725382 1.877549891e-19)
(93.68980289 -9.646211944 5.56149142e-20)
(91.71612239 -10.36660732 -3.045599052e-18)
(91.47153917 -10.47887677 -1.639048858e-18)
(89.70951674 -23.32335608 -2.059911381e-19)
(88.92285733 -26.18504887 -3.583709874e-20)
(90.50086354 -8.961353949 2.665331113e-19)
(80.8431675 -26.52891626 1.072913797e-18)
(88.52074478 -26.43984399 -7.162399009e-20)
(82.2681294 -26.66404948 -9.004736931e-19)
(90.50410972 -9.033050281 1.086843291e-18)
(88.8873328 -28.01487232 5.742151529e-20)
(91.72781947 -26.78464377 5.369244291e-20)
(98.07394468 -7.439893389 1.884218993e-19)
(97.80435219 -9.135342805 -1.638776293e-19)
(95.45259041 -9.329596404 0)
(96.54361974 -9.871416903 0)
(80.79840366 -8.395100754 0)
(77.90743052 -8.672140854 0)
(91.04120327 -9.29035557 6.506918304e-22)
(92.49159955 -9.230599524 -2.064738799e-19)
(92.6111198 -9.408681097 0)
(51.36111631 -7.894501296 0)
(76.23194115 -11.56292572 0)
(90.5000445 -8.160790957 0)
(90.58577197 -8.520813038 1.208992431e-18)
(90.17681481 -9.283788908 -1.131116817e-17)
(93.66903429 -9.817137233 0)
(94.04559729 -10.32080299 -2.330909814e-19)
(92.65597568 -9.470065542 0)
(92.81720873 -9.655778803 0)
(91.08242418 -9.739387282 9.798886657e-19)
(91.79747544 -26.4478372 -7.44262241e-20)
(89.59767343 -9.647059277 -1.126781813e-18)
(65.31412437 -20.64487083 2.111663577e-18)
(88.01344396 -18.80619327 1.783553029e-19)
(89.64430891 -22.81515852 7.328499503e-21)
(85.97050821 -9.829853941 1.458397265e-17)
(90.46759083 -8.836296552 0)
(89.66662452 -9.265949099 -2.813159387e-18)
(92.34226624 -9.02448007 -2.19756939e-19)
(92.45091973 -9.177568078 -2.004663346e-19)
(91.15356739 -9.236202843 -1.156946963e-18)
(91.25486832 -8.882120339 9.694637458e-19)
(92.19591447 -8.826478161 4.365934041e-19)
(92.3061008 -8.966433642 -1.066783836e-21)
(90.52339227 -8.219188644 0)
(90.71916942 -8.526606826 -2.563737865e-19)
(91.10496261 -9.838195046 6.069515035e-19)
(92.87721634 -9.711504227 0)
(92.97226326 -9.8299043 0)
(68.64751018 -20.12294317 1.011893805e-18)
(66.97196267 -20.61124623 -7.882679527e-19)
(89.59095078 -9.781773863 1.155559144e-18)
(69.96006777 -22.51097121 0)
(74.39700754 -22.61438661 4.584132024e-20)
(89.60176563 -25.12405888 2.487386833e-20)
(90.50716448 -8.847017461 -7.625524582e-19)
(81.26990791 -26.83059018 9.304185371e-19)
(86.7312116 -26.94149068 -2.144295201e-20)
(70.43476502 -22.83828731 -2.241041247e-19)
(85.80703313 -26.96731694 2.087490535e-20)
(89.86259747 -9.223514555 3.287454023e-18)
(92.03851599 -8.638688002 0)
(92.15694455 -8.774712223 -2.175190232e-19)
(91.22266857 -8.851645344 -2.391541504e-19)
(91.15628749 -8.527178516 1.168558653e-18)
(91.8983142 -8.455763223 2.196792306e-19)
(92.00177417 -8.586229428 0)
(88.96603965 -8.521036331 -2.852640163e-19)
(89.01526498 -8.487008066 2.699831108e-19)
(90.37765809 -8.601308943 0)
(89.50744802 -9.449428131 -1.403533508e-19)
(90.37229684 -8.749568027 9.952598838e-19)
(88.97138846 -8.667426519 -1.172684528e-18)
(88.95333205 -8.577772909 0)
(89.51114495 -9.242536511 -8.110008404e-19)
(91.74218983 -8.287860414 0)
(91.86238963 -8.409118153 1.950612425e-22)
(91.16692771 -8.504490481 4.85197643e-19)
(90.94044565 -8.204976652 -2.454649734e-19)
(91.57564357 -8.104868023 -2.237394628e-19)
(91.70009065 -8.239239044 0)
(89.94618253 -8.368997161 -8.260682632e-19)
(89.89038574 -8.328689623 -2.720905217e-19)
(90.59802188 -8.331723123 -7.806558783e-19)
(90.71307818 -8.448478603 2.6835785e-19)
(90.02121733 -8.429174628 1.555349452e-18)
(89.99015911 -8.399850294 -2.776224423e-19)
(90.79380425 -10.00331141 0)
(92.00153453 -9.871437043 0)
(92.01075173 -10.08285698 2.573663384e-18)
(41.47844365 -13.94168828 1.211408506e-18)
(89.05585678 -10.19577394 0)
(89.67496698 -24.76666797 -9.21028797e-21)
(75.58052348 -22.38251489 -9.487181467e-20)
(77.76078981 -21.79706321 6.490968603e-20)
(89.14604214 -8.852479523 -3.016947708e-19)
(89.16891246 -8.788823034 1.491231959e-19)
(90.50887717 -8.902229006 -2.614945103e-19)
(81.41510887 -26.68578864 8.613887705e-19)
(77.13381285 -25.69141274 -3.751015684e-18)
(77.86092003 -25.71412587 1.398503489e-19)
(83.90681086 -26.89536631 -1.551628841e-19)
(90.47783126 -9.107169599 0)
(89.14411557 -8.996228575 -1.1972944e-19)
(89.15229119 -8.927438862 -9.138337242e-19)
(90.76891289 -27.84140067 5.642006084e-20)
(88.50843426 -7.985344026 9.279706646e-19)
(88.49622865 -8.043122169 1.241643962e-18)
(88.31789901 -8.374942792 0)
(90.46203312 -8.551030878 0)
(89.17467746 -8.469919284 0)
(89.41386685 -8.458414747 -1.823697815e-18)
(92.79391584 -9.857418662 0)
(92.33647793 -10.25976888 0)
(79.44588805 -9.050076357 6.172224791e-19)
(91.02836876 -9.646726438 -9.638663175e-19)
(91.90342273 -9.667675815 1.371594202e-18)
(91.95835672 -9.746894328 -6.880430813e-19)
(89.54477964 -9.554261874 1.41662175e-19)
(66.02885781 -21.06474429 -7.37009187e-19)
(65.36717613 -21.16858975 3.473120677e-18)
(45.86719506 -2.776708507 0)
(64.57627062 -16.07615046 0)
(68.71867921 -19.56311667 2.996024575e-19)
(89.1416932 -8.772692867 1.460862674e-19)
(89.0441358 -8.749528043 1.17491043e-18)
(90.413296 -8.805778056 -1.004153559e-18)
(89.55565882 -9.241608807 -1.04458892e-18)
(88.63024524 -8.290002525 0)
(88.71224048 -8.325767159 2.344137734e-18)
(88.50240613 -8.128882378 0)
(88.5494796 -8.222185573 0)
(89.99475605 -8.491975234 1.406498988e-19)
(90.0034558 -8.460861892 1.434622739e-19)
(90.71987204 -8.481340785 0)
(88.80288711 -8.381955698 -3.297556349e-19)
(88.78536091 -8.377400243 -1.525899813e-18)
(88.77060174 -8.347934177 1.572503523e-19)
(88.81011007 -8.365088635 -1.267279203e-18)
(92.00780234 -9.818512592 -4.599806637e-19)
(92.09942916 -9.910213519 0)
(91.24351874 -9.973319947 -1.189885833e-19)
(69.54090793 -20.5531197 -2.738859574e-19)
(59.01956736 -18.22243024 1.383016734e-18)
(55.96300791 -17.08823485 -1.225018808e-18)
(60.07612715 -19.12444766 -1.094486951e-17)
(60.38612496 -18.86093003 -3.116749309e-18)
(68.49433403 -20.58425966 4.328688718e-21)
(89.73045405 -9.939634378 0)
(71.46821159 -22.48732868 -1.027960428e-18)
(79.27922898 -24.1414419 -3.710958956e-20)
(78.22268416 -24.31287605 0)
(90.51661475 -8.864294033 -2.581694284e-19)
(89.19842691 -8.757702978 0)
(89.20057322 -8.758234431 -1.31871416e-18)
(81.67430679 -26.8678931 5.869091741e-19)
(73.84483146 -24.1235574 9.966046819e-20)
(74.31206182 -24.39046651 3.675285261e-21)
(77.08354588 -24.23670045 0)
(75.28411457 -24.11641676 5.077518136e-19)
(69.65318103 -22.90363738 -9.084922038e-19)
(73.56449198 -24.40104559 5.845345314e-19)
(84.88886896 -27.04721985 -3.049712661e-20)
(77.4559917 -25.4871938 0)
(78.85882013 -25.51537757 0)
(88.64744022 -9.138670152 4.292257463e-18)
(89.12267072 -9.030343371 -1.51019313e-18)
(90.46483337 -9.169852194 1.088922149e-18)
(99.17313733 -2.992968319 3.97512113e-19)
(98.47383989 -3.647807246 0)
(98.16022862 -3.904488956 4.635321924e-19)
(97.02717454 -4.780797522 -1.137355622e-19)
(96.59494421 -5.105146459 2.65849389e-19)
(95.18627888 -6.14349912 -2.760188613e-19)
(99.83530278 -3.326701906 0)
(99.2780222 -4.044703586 1.441892048e-18)
(98.67121232 -3.759686371 0)
(99.0250319 -4.324083402 -7.27533577e-19)
(98.10943076 -5.282052223 -3.496188458e-19)
(97.29378626 -4.922392242 0)
(97.76192665 -5.640462178 4.113720182e-19)
(96.6335566 -6.828186803 -2.410075017e-19)
(95.52787313 -6.337094687 2.583045191e-19)
(95.43294578 -6.92338892 2.038587522e-19)
(94.92901068 -7.508927532 0)
(94.31337199 -7.160383721 0)
(93.47682069 -8.361463692 2.27746533e-19)
(93.02198315 -8.694166031 0)
(92.72941562 -8.416311633 0)
(100.5538764 -3.493964389 -3.2282428e-19)
(100.1604428 -4.202249049 -3.194481313e-19)
(99.48755196 -4.109014215 3.467737623e-19)
(99.97680578 -4.477685295 0)
(99.30873517 -5.419346067 -8.002844583e-20)
(98.39337259 -5.355510193 4.271937281e-19)
(99.05846073 -5.775483931 6.787282709e-19)
(98.29867131 -6.97814656 3.592416412e-19)
(97.02985881 -6.929931115 -2.289321617e-19)
(97.1390006 -7.467470329 -2.119737432e-19)
(96.86226283 -7.97757532 -2.04149579e-19)
(96.1040216 -8.021717602 0)
(95.6614772 -9.84116167 -5.424069453e-20)
(95.43977921 -10.58921458 -3.945889826e-19)
(94.63744422 -10.25029365 4.335632274e-19)
(101.2745506 -3.514446841 4.382079121e-19)
(101.0194376 -4.157265688 -4.179300189e-19)
(100.3819479 -4.206824654 2.979234081e-19)
(100.9026909 -4.398829168 4.099481693e-19)
(100.4489543 -5.225681546 -4.733344804e-19)
(99.60615975 -5.397444441 -5.435459739e-19)
(100.2796084 -5.531399679 5.281967399e-19)
(99.7997167 -6.538398477 -6.314763421e-20)
(98.70356682 -6.912271951 6.648131798e-19)
(99.67999297 -6.901516865 0)
(99.63949 -7.964214533 4.501220348e-20)
(98.47170386 -8.936740679 1.643400538e-19)
(97.7881548 -8.27562442 5.486095394e-19)
(101.9394033 -3.432784657 -3.573436001e-20)
(101.7835679 -3.982900569 -3.703064933e-19)
(101.2199111 -4.123887486 -1.919585797e-21)
(101.7097871 -4.184582189 9.665416588e-19)
(101.410084 -4.844642668 -2.684095341e-21)
(100.7099431 -5.140345924 3.779930564e-19)
(101.2903078 -5.081443012 2.750230956e-21)
(100.9225691 -5.823778931 -7.839015007e-19)
(100.1163403 -6.372621723 1.213483383e-19)
(100.815073 -6.074966519 7.95585059e-19)
(100.6271319 -6.723263321 0)
(99.91700375 -7.612218757 0)
(99.2660011 -6.827147649 -6.329015767e-19)
(102.5306798 -3.28914213 0)
(102.4317425 -3.745485677 0)
(101.9569832 -3.926679377 2.441732863e-19)
(102.3817859 -3.905607734 0)
(102.1607378 -4.412989967 -4.810983974e-20)
(101.6166741 -4.737284319 3.720422603e-19)
(102.0648649 -4.588880431 -3.71749063e-19)
(101.7350602 -5.12093312 6.468386189e-19)
(101.1508731 -5.640718566 0)
(101.6212564 -5.296415094 -4.500149266e-20)
(101.3206556 -5.780924034 5.470245758e-19)
(100.8271286 -6.470679364 0)
(100.7084914 -5.773990491 -3.109322294e-20)
(103.0494845 -3.097334052 0)
(102.9685171 -3.486460001 0)
(102.5752255 -3.683080509 -2.735468546e-20)
(102.9251492 -3.617074205 0)
(102.7290526 -4.009274205 -1.387488903e-21)
(102.318677 -4.307847909 4.481028897e-19)
(102.6410202 -4.139576174 -7.107688654e-20)
(102.3168993 -4.523361112 -1.385251488e-19)
(101.9000555 -4.960741819 6.393771366e-19)
(102.1944754 -4.646292117 9.036066743e-21)
(101.790311 -4.988313813 8.197650088e-22)
(101.4559186 -5.568453121 -9.944919123e-19)
(101.3644856 -5.020743042 0)
(103.4981505 -2.879047124 0)
(103.4167348 -3.208810338 0)
(103.0883329 -3.418025036 0)
(103.3715273 -3.31708734 0)
(103.1643176 -3.633732268 0)
(102.8477449 -3.914153694 0)
(103.070246 -3.735621087 0)
(102.7200496 -4.025319891 0)
(102.4316737 -4.391459353 1.047484165e-21)
(102.5848562 -4.114986822 0)
(102.086219 -4.365755193 0)
(101.8771924 -4.816682061 -1.116886369e-20)
(101.2695678 -4.37549138 0)
(103.883175 -2.651682121 0)
(103.7901023 -2.930479729 0)
(103.516565 -3.138717186 0)
(103.7392768 -3.02025473 0)
(103.5100679 -3.277331056 0)
(103.2581948 -3.542397176 0)
(103.4067356 -3.358285298 0)
(103.0223742 -3.584236429 0)
(102.8031628 -3.910234738 0)
(102.8736839 -3.653197751 0)
(102.2067495 -3.829746659 0)
(102.1300756 -4.225745477 0)
(100.9626251 -3.811347602 0)
(104.213132 -2.427213466 0)
(104.1017121 -2.663305297 0)
(103.8733122 -2.862312726 0)
(104.0433108 -2.738064554 0)
(103.7877622 -2.948455489 0)
(103.5851639 -3.192338423 0)
(103.6745857 -3.013599966 0)
(103.258522 -3.193230118 0)
(103.0867653 -3.481885815 0)
(103.0979221 -3.247568348 0)
(102.2224569 -3.367235176 0)
(102.2178543 -3.707210357 0)
(100.6937917 -3.33615695 0)
(104.4962281 -2.213087588 0)
(104.3630311 -2.413829824 0)
(104.1713497 -2.599109106 0)
(104.2962427 -2.476490715 0)
(104.0135169 -2.650369449 0)
(103.848533 -2.870998594 0)
(103.89099 -2.703544116 0)
(103.4467414 -2.849126557 0)
(103.3095203 -3.102966948 0)
(103.2737013 -2.892599334 0)
(102.1839656 -2.971847333 0)
(102.216632 -3.262536967 0)
(100.4632723 -2.935706207 0)
(104.7399496 -2.013567098 0)
(104.5836332 -2.185208572 0)
(104.4216658 -2.35464871 0)
(104.5083398 -2.23813778 0)
(104.1995823 -2.383429796 0)
(104.0633466 -2.580740587 0)
(104.0687231 -2.427510162 0)
(103.5989043 -2.54755449 0)
(103.487797 -2.769925858 0)
(103.4121174 -2.582588087 0)
(102.1170147 -2.632992606 0)
(102.169197 -2.882202114 0)
(100.2692981 -2.595745539 0)
(104.9507248 -1.830915581 0)
(104.7712695 -1.978604449 0)
(104.6333647 -2.131480258 0)
(104.6877736 -2.023698618 0)
(104.3552088 -2.146565756 0)
(104.2410354 -2.321457116 0)
(104.2171377 -2.183691608 0)
(103.7231391 -2.284087563 0)
(103.6323173 -2.478282481 0)
(103.5214359 -2.312491216 0)
(102.0361655 -2.342251306 0)
(102.0976863 -2.556085973 0)
(100.1094678 -2.30596614 0)
(105.1339748 -1.665909792 0)
(104.9322197 -1.793944398 0)
(104.8137905 -1.93040312 0)
(104.8410768 -1.832732591 0)
(104.4873383 -1.937961287 0)
(104.3902163 -2.091845465 0)
(104.3429848 -1.96969673 0)
(103.8254248 -2.054650639 0)
(103.750571 -2.223687746 0)
(103.6079865 -2.077806755 0)
(101.9501502 -2.092776159 0)
(102.0148942 -2.276250031 0)
(99.98043045 -2.058497193 0)
(105.2943828 -1.518596683 0)
(105.0715847 -1.630533245 0)
(104.9689069 -1.751135862 0)
(104.9734738 -1.664252787 0)
(104.6010915 -1.755545242 0)
(104.5173309 -1.889985611 0)
(104.4511217 -1.783033959 0)
(103.9102464 -1.855677491 0)
(103.8481169 -2.002180369 0)
(103.6765806 -1.87464926 0)
(101.8640089 -1.879129655 0)
(101.9284959 -2.036196953 0)
(99.87816967 -1.847017364 0)
(105.4358848 -1.388575602 0)
(105.1935261 -1.487355906 0)
(105.1035594 -1.592885187 0)
(105.0891559 -1.51700505 0)
(104.7003001 -1.597222288 0)
(104.6271299 -1.713785138 0)
(104.5451738 -1.62132511 0)
(103.9810834 -1.68407764 0)
(103.9291484 -1.81032193 0)
(103.7309789 -1.699697412 0)
(101.7803624 -1.696771091 0)
(101.8427947 -1.830766018 0)
(99.79903667 -1.666728425 0)
(105.5617957 -1.275220787 0)
(105.3014241 -1.363274797 0)
(105.2217031 -1.454587415 0)
(105.1914647 -1.389656436 0)
(104.7878925 -1.461027282 0)
(104.7231907 -1.561168398 0)
(104.6279311 -1.482411395 0)
(104.0406798 -1.537175869 0)
(103.9969446 -1.64512922 0)
(103.7741342 -1.550097518 0)
(101.7005855 -1.541926195 0)
(101.7600201 -1.655609614 0)
(99.73980183 -1.513872266 0)
(105.6748356 -1.177794272 0)
(105.3980081 -1.257135014 0)
(105.3265355 -1.335103733 0)
(105.2830566 -1.280897333 0)
(104.8661538 -1.34518875 0)
(104.808254 -1.430224766 0)
(104.7015817 -1.364383987 0)
(104.091197 -1.41267672 0)
(104.0540862 -1.504033417 0)
(103.8083377 -1.423415602 0)
(101.6253127 -1.411503743 0)
(101.6813327 -1.507139695 0)
(99.69761928 -1.385396789 0)
(105.777346 -1.09545903 0)
(105.4855299 -1.167792238 0)
(105.4206589 -1.233268099 0)
(105.366095 -1.189469743 0)
(104.93693 -1.24812348 0)
(104.884485 -1.319219879 0)
(104.7678958 -1.265562688 0)
(104.1343634 -1.308619485 0)
(104.1026179 -1.384815419 0)
(103.8353782 -1.31758717 0)
(101.5547878 -1.302975917 0)
(101.6072331 -1.382407215 0)
(99.67012245 -1.27880922 0)
(105.8713141 -1.027377938 0)
(105.5658706 -1.09418558 0)
(105.5062204 -1.147955586 0)
(105.4423728 -1.114233586 0)
(105.001746 -1.16846819 0)
(104.9536382 -1.22662666 0)
(104.8283366 -1.18451708 0)
(104.1715827 -1.223375109 0)
(104.1441765 -1.285602455 0)
(103.8566657 -1.230906231 0)
(101.4890866 -1.214281887 0)
(101.5379154 -1.279014841 0)
(99.65530859 -1.192183085 0)
(105.9587039 -0.972746998 0)
(105.6406874 -1.03537202 0)
(105.5850323 -1.078127101 0)
(105.5134484 -1.054187737 0)
(105.0619134 -1.105055537 0)
(105.0171764 -1.151133466 0)
(104.884161 -1.12002968 0)
(104.2040247 -1.155577 0)
(104.1800996 -1.204837875 0)
(103.873335 -1.161953093 0)
(101.4281429 -1.143798722 0)
(101.4734163 -1.195008892 0)
(99.651436 -1.123951427 0)
(106.0411008 -0.931107754 0)
(105.7113763 -0.9906073702 0)
(105.6586976 -1.022891192 0)
(105.5806403 -1.008520398 0)
(105.1185594 -1.056919355 0)
(105.0763641 -1.091623724 0)
(104.9364525 -1.071093792 0)
(104.2326849 -1.104108469 0)
(104.2115078 -1.141217802 0)
(103.8863379 -1.109579497 0)
(101.3717858 -1.090282092 0)
(101.4136426 -1.128872086 0)
(99.65696679 -1.072831115 0)
(106.1198194 -0.9019158179 0)
(105.7791161 -0.9592327273 0)
(105.7285452 -0.9815323158 0)
(105.6450717 -0.976525802 0)
(105.1726795 -1.02323635 0)
(105.1322896 -1.047173368 0)
(104.9861787 -1.036858096 0)
(104.2584696 -1.068064329 0)
(104.2393653 -1.093682659 0)
(103.8965378 -1.072871958 0)
(101.3197975 -1.052790342 0)
(101.3584045 -1.079434474 0)
(99.67064726 -1.037830831 0)
(106.1960365 -0.8847774103 0)
(105.8449058 -0.9406920344 0)
(105.7957108 -0.9534138035 0)
(105.7076924 -0.9575933351 0)
(105.2251611 -1.003257827 0)
(105.1859197 -1.016986237 0)
(105.0342341 -1.016546907 0)
(104.2823094 -1.04668608 0)
(104.2645691 -1.061371422 0)
(103.904841 -1.051103449 0)
(101.2719679 -1.030713073 0)
(101.307478 -1.045841597 0)
(99.69164142 -1.018316007 0)
(106.2796046 -0.8789843277 0)
(105.9170659 -0.934283607 0)
(105.8610865 -0.9380045233 0)
(105.7763837 -0.9509229986 0)
(105.2827168 -0.9957700438 0)
(105.2380489 -1.000303783 0)
(105.086915 -1.008809475 0)
(104.308219 -1.038481717 0)
(104.2880451 -1.043545371 0)
(103.9136629 -1.042954888 0)
(101.2242431 -1.02505149 0)
(101.2608054 -1.027515541 0)
(99.72316497 -1.016107983 0)
(92.63594823 -8.326486028 0)
(92.36179268 -8.064024813 -5.269099434e-19)
(92.78174068 -7.78127225 0)
(94.41884564 -10.12092446 4.859866145e-21)
(93.99821642 -9.690765952 -3.640081718e-18)
(94.57479388 -9.230904905 0)
(91.31786346 -19.37578263 -1.417162967e-19)
(94.12529575 -7.032173184 2.674084124e-19)
(93.60331129 -6.653434857 -5.620672145e-19)
(94.3484694 -6.272003555 3.028086504e-19)
(92.64426197 -7.354440923 -3.715766378e-19)
(93.35070608 -6.817048778 0)
(93.87605642 -7.228286787 2.696628994e-19)
(95.84051395 -7.949390506 0)
(95.15459263 -7.618263969 0)
(95.84030212 -7.114194742 0)
(94.29660484 -8.642315341 2.532122708e-19)
(94.92961553 -7.861567385 1.746931366e-21)
(95.64919585 -8.236000124 0)
(94.06748201 -7.362080204 -5.344033432e-19)
(94.69597547 -7.745352618 -4.987581495e-19)
(94.04805836 -8.481593294 2.653521054e-19)
(93.45229115 -9.090877945 -2.439968896e-19)
(93.12405269 -8.790379614 2.483593411e-19)
(93.58523882 -8.456630302 -2.713949609e-21)
(90.96301894 -9.368039008 -6.822862896e-19)
(91.78396486 -9.396661956 1.120352597e-21)
(91.80351568 -9.454172417 2.192996838e-19)
(91.55782038 -8.699985537 -2.252410595e-19)
(91.58986185 -8.749231665 -4.524454464e-19)
(91.15007515 -8.76176497 0)
(81.25257094 -7.607563364 0)
(80.97782436 -8.377427533 0)
(96.99376522 -9.846478694 0)
(78.75717987 -11.20339423 0)
(84.38336287 -11.06784577 0)
(91.81319948 -18.51420669 1.379946679e-19)
(92.97992551 -16.32401847 4.152162162e-19)
(91.10382008 -8.609440583 -4.375596426e-19)
(91.51072118 -8.598863044 2.086938333e-19)
(91.53012793 -8.649666733 4.447417164e-19)
(91.53692857 -8.053112699 -2.236511487e-19)
(90.91009624 -8.151786052 -8.670308116e-22)
(92.69043516 -7.692086345 0)
(92.2720671 -7.977010654 2.640767584e-19)
(79.18377956 -9.120747385 0)
(92.45424807 -10.49018381 -2.167911821e-19)
(92.51385497 -11.23809618 -2.013024127e-20)
(91.82859446 -9.51988579 -4.459959251e-19)
(91.86159217 -9.591213012 4.517038768e-19)
(90.99310195 -9.558071174 0)
(94.46212553 -9.085228547 -1.934652174e-19)
(93.95211808 -9.527035417 1.670943115e-18)