/*--------------------------------*- C++ -*----------------------------------*\
| =========                 |                                                 |
| \\      /  F ield         | OpenFOAM: The Open Source CFD Toolbox           |
|  \\    /   O peration     | Version:  v2012                                 |
|   \\  /    A nd           | Website:  www.openfoam.com                      |
|    \\/     M anipulation  |                                                 |
\*---------------------------------------------------------------------------*/
FoamFile
{
    version     2.0;
    format      ascii;
    class       surfaceScalarField;
    location    "0.15";
    object      meshPhi;
}
// * * * * * * * * * * * * * * * * * * * * * * * * * * * * * * * * * * * * * //

dimensions      [0 3 -1 0 0 0 0];
oriented        oriented;


internalField   nonuniform List<scalar> 
6464
(
0
0
0
0
0
0
0
0
0
0
0
0
0
0
0
0
0
0
0
0
0
0
0
0
0
0
0
0
0
0
0
0
-8.321094827e-07
0
1.435955831e-08
7.074029416e-07
0
0
0
0
0
0
0
0
0
0
0
0
0
0
0
0
0
0
0
0
0
0
0
0
0
0
0
0
0
0
0
0
0
0
0
0
0
-1.395240488e-06
-0.000207886613
1.96031236e-06
0.000205088006
-1.45894331e-05
-0.0001634294526
2.60610535e-05
0.0001406579878
-7.070048098e-06
-6.279964376e-05
1.937057487e-05
3.91943891e-05
0
-1.166434932e-06
4.382176095e-07
0
0
0
0
0
0
0
0
0
0
0
0
0
0
0
0
0
0
0
0
0
0
0
0
0
0
-1.527337362e-06
-0.0006631993393
2.560486336e-07
0.0006591098272
-7.274268702e-05
-0.0005881742486
9.007941429e-05
0.000546419283
-8.603521382e-05
-0.0003804674812
0.0001150746983
0.0003169780666
-3.488815754e-05
-0.0001332599356
5.85159513e-05
8.307775553e-05
0
-2.029390235e-06
1.159366419e-06
0
0
0
0
0
0
0
0
0
0
0
0
0
0
0
0
0
0
0
0
0
0
6.630800855e-06
-0.001026365335
-9.362573984e-06
0.001023073279
-0.0001381271828
-0.0009570524935
0.0001512815356
0.0009150747623
-0.0002077904934
-0.0007282399984
0.0002373718169
0.000648976567
-0.0001519502864
-0.0003906763242
0.0001863824416
0.0003115255282
-3.636743349e-05
-9.538104707e-05
5.749908981e-05
4.755437019e-05
0
0
0
0
0
0
0
0
0
0
0
0
0
0
0
0
0
0
0
0
0
1.542155306e-05
-0.001072028605
-1.595958868e-05
0.001071432055
-0.0001783662219
-0.001051821203
0.000182065378
0.001032114495
-0.0003024669079
-0.0009181910516
0.0003204097606
0.0008536186849
-0.0002993446239
-0.0005962892527
0.0003310081823
0.0005026399818
-0.0001341143171
-0.0002298889311
0.0001603669824
0.0001535306779
-1.052103243e-05
-3.585620479e-06
6.325132616e-06
1.580485782e-07
0
0
0
0
0
0
0
0
0
0
0
0
0
0
0
0
0
-0.0004567281877
1.394079184e-05
-1.394925261e-05
0.0004567366484
-0.000465478178
-0.000172037884
0.000922209971
-0.0004603070846
9.783660679e-05
7.777656886e-05
-0.0008723103069
-0.0003726246656
0.0003781944214
0.0008364184327
-0.000403039569
-0.0006507491019
0.0004189240855
0.0005689254403
-0.0002313149159
-0.0003040200983
0.0002549805164
0.0002236868044
-4.495403884e-05
-2.925327601e-05
3.811748704e-05
1.426856536e-05
0
0
0
0
0
0
0
0
0
0
0
0
0
0
0
0
0
-0.0003734579057
-8.831115347e-05
8.888945808e-05
0.0003728796011
-0.0007259635143
-0.0003882974924
0.0003891525179
0.000710716182
-0.0004646919308
-0.000584483812
0.000470884312
0.0005212736183
-0.0003032384631
-0.0003035736454
0.0003104288738
0.0002319518048
-6.280214661e-05
-5.893851813e-05
6.816816199e-05
2.751541062e-05
0
0
0
0
0
0
0
0
0
0
0
0
0
0
0
0
0
-0.0002813204072
-9.008633977e-05
9.022420492e-05
0.000281182542
-0.0005503465088
-0.0003915586941
0.0003918236766
0.0005436951957
-0.0004875868455
-0.0004604770493
0.0004906386253
0.0004152457923
-0.0003382432063
-0.0002525393223
0.0003437140085
0.0001970705168
-5.86752416e-05
-7.980189032e-05
8.361786082e-05
2.852212147e-05
0
0
0
0
0
0
0
0
0
0
0
0
0
0
0
0
0
-0.0001906098205
-9.031954951e-05
9.032514575e-05
0.0001906042243
-0.0003700209749
-0.0003915850698
0.0003913346201
0.0003651921294
-0.0004879906406
-0.0003083548793
0.0004860636179
0.0002777872162
-0.0003398263048
-0.0001684611225
0.0003374797876
0.0001313205592
-3.89570871e-05
-8.101712248e-05
7.98189384e-05
1.885306207e-05
0
0
0
0
0
0
0
0
0
0
0
0
0
0
0
0
0
-0.0001011614077
-8.992947823e-05
8.984723446e-05
0.0001012436514
-0.0001912863798
-0.0003896476299
0.0003883594847
0.0001868842372
-0.0004698589186
-0.0001521038123
0.0004609880095
0.0001365197653
-0.0003109786139
-7.960027517e-05
0.0003026981503
6.095032448e-05
-1.604450749e-05
-6.301257333e-05
5.912490883e-05
6.909244312e-06
0
0
0
0
0
0
0
0
0
0
0
0
0
0
0
0
0
-1.216184293e-05
-8.913304185e-05
8.896960568e-05
1.23252791e-05
-1.411903456e-05
-0.000383310723
0.0003807600371
1.317144228e-05
-0.0004338296137
-1.044843872e-05
0.0004254241067
8.150153628e-06
-0.0002644530763
-4.107345935e-06
0.0002458925089
3.232312158e-06
-8.929663563e-07
-3.929914594e-05
3.347058671e-05
3.32183385e-07
0
0
0
0
0
0
0
0
0
0
7.730752762e-05
0.0002921327226
-7.712657435e-05
-0.0001449877837
-0.0001473258921
-7.377412148e-05
-0.0003750066955
7.532291123e-05
7.800244938e-05
0.0002020531486
-7.79637683e-05
-9.963086836e-05
-0.0001024609614
7.776594962e-05
-0.0001394955554
-0.0001422832738
7.756436435e-05
0.000112138831
-7.772976997e-05
-5.458110659e-05
-5.739231884e-05
7.800929512e-05
-9.378151671e-05
-9.683514952e-05
7.681045083e-05
2.325549427e-05
-7.689604011e-05
-2.316990498e-05
-0.000101103578
7.750653466e-05
-1.191830078e-05
7.656690868e-05
2.647526008e-05
-2.638652186e-05
0.00038647104
-7.41390264e-05
-0.0003861061351
-6.959376173e-05
-0.0004629781892
6.70937729e-05
8.350847214e-06
8.428105217e-05
-8.268173658e-06
-8.436372572e-05
0.0001911517421
-1.279332044e-05
-0.0001917454609
1.338703931e-05
0.0002920394608
-8.9993078e-05
0.0003421983089
0.0005941738962
-0.0003414858818
-0.0005950024253
-0.0003387988184
-0.0007305571784
0.0003410877652
9.195119478e-06
6.077406741e-05
-9.24710028e-06
-6.072208661e-05
-8.901962125e-06
7.131669094e-05
-7.111256608e-05
8.697837266e-06
0.0002020530517
-9.031945259e-05
0.0003423121161
0.0004154679546
-0.0003423611116
-0.0004154558519
-0.0005505687788
0.000342392578
8.337369836e-06
3.810635209e-05
-8.380110116e-06
-3.806361181e-05
-8.384402213e-06
4.886215505e-05
-4.890518186e-05
8.427429029e-06
0.0001122629187
-9.005356591e-05
0.0003415322223
0.000235908469
-0.0003418370606
-0.0002362754282
-0.000370047393
0.0003422414773
1.552980443e-05
3.218722699e-05
-1.55666367e-05
-3.215039472e-05
-1.571483043e-05
5.177507813e-05
1.580143151e-05
-2.559536202e-05
-2.626631719e-05
6.567571366e-06
-3.533224725e-06
-6.592553233e-06
3.558206592e-06
1.49135925e-05
-1.218093589e-05
-1.497002771e-05
1.22373711e-05
-1.526175385e-05
7.178430276e-06
-7.147847261e-06
1.523117084e-05
7.215939801e-05
-9.044236864e-06
-7.201712327e-05
8.334616456e-05
-8.340743128e-05
8.412113941e-06
-7.650301385e-05
0.0003272329485
7.687509129e-05
-0.0001626677352
-0.0001649372907
-1.806483366e-05
-8.235693685e-05
1.835993791e-05
0.0001654079972
9.421570838e-06
7.22321741e-05
-9.494346928e-06
4.948845931e-05
-8.350481596e-06
-4.952237993e-05
6.011195637e-05
-6.001771271e-05
9.100875811e-06
-4.049350668e-05
0.0001195544816
-0.0001195655545
4.050457967e-05
-9.914068128e-06
9.862240503e-06
6.0163784e-05
9.138386585e-06
4.945878457e-05
-9.108711844e-06
9.307181244e-06
7.143108053e-05
6.079754681e-05
-9.937547525e-06
0.0001221957069
-4.049994193e-05
-0.0001221892716
5.449099877e-05
-1.575963427e-05
-2.687528169e-05
-2.757091324e-05
3.745582187e-05
-3.742606144e-05
8.307609403e-06
-7.800626134e-05
0.0001456062515
7.788845896e-05
-7.129499204e-05
-7.41934571e-05
-1.890296553e-05
-3.66691666e-05
1.893371318e-05
7.409424083e-05
1.87685663e-05
5.451063109e-05
-1.878819863e-05
9.166318225e-06
4.883422341e-05
-3.877501139e-05
7.694376985e-05
-9.146240916e-06
-9.819130981e-06
0.0001567989879
-7.79044819e-05
-7.70474516e-05
-7.985331576e-05
9.978051316e-06
-1.53113919e-05
-9.928413266e-06
2.939454249e-05
-2.937264931e-05
1.550791126e-05
4.246232944e-06
-7.302995221e-06
7.339297914e-06
4.300402133e-06
6.513402177e-06
1.497060419e-05
-7.299119621e-06
-9.703884893e-06
8.85661424e-05
-7.093055061e-06
-7.176920244e-05
9.898457506e-05
2.727551123e-07
-0.0001004303265
1.172996318e-06
-2.944362223e-06
2.13575061e-05
-2.747613651e-07
-1.813838251e-05
2.33438908e-05
-8.922143838e-05
0.0003395618437
5.802368172e-05
-0.0003402716068
-5.883276828e-05
-0.0001918724676
0.0003410956238
-4.290751691e-06
-1.000887042e-06
3.686605445e-06
1.60503329e-06
2.950604617e-06
-1.304707661e-06
-2.99686933e-06
1.023418364e-06
3.275540097e-07
-1.938403677e-06
3.858633177e-06
-3.848570108e-06
1.928340608e-06
-1.486052445e-05
1.640135075e-05
0.0001896109158
-8.474665554e-05
0.0001686275684
-1.766469432e-05
0.0003383752799
-7.702050786e-05
-0.0001676149272
-0.0001702428587
4.557007108e-06
-1.94417812e-06
-4.551232668e-06
-1.946944242e-06
9.422469807e-06
-9.433300724e-06
1.957775157e-06
-7.724710877e-05
5.644658666e-05
-5.633834319e-05
7.71388653e-05
-1.858924339e-05
1.855564276e-05
2.942814312e-05
1.832079394e-05
1.002256375e-05
-1.836530637e-05
1.878152802e-05
5.176211641e-05
3.220658934e-05
-1.860860574e-05
6.764425977e-05
-7.736335922e-05
-6.752800932e-05
0.000208036151
1.081068297e-05
-0.0002080023465
-1.084448753e-05
0.0001936781923
-1.245403611e-05
-0.0001940174766
0.0004297674725
-1.345374318e-05
-0.0002140459209
-0.0002099645516
8.715893636e-06
-1.019150514e-06
1.097365961e-05
-1.120543898e-05
0.0002082679304
0.0001143825145
-0.0001240863994
-1.450375429e-05
0.0001783797735
1.497511411e-05
-8.898645772e-05
-8.98646756e-05
-6.668573715e-07
2.415671717e-05
9.089265472e-05
-1.52181807e-06
2.299178793e-06
9.820721434e-05
9.10897032e-05
-3.190418179e-06
0.0001806793747
-1.496818163e-05
-8.987279235e-05
-9.034215503e-05
-7.731143466e-06
6.587357303e-05
-6.58867555e-05
7.744325942e-06
6.650523237e-05
-7.788087727e-06
-6.644828811e-05
-8.32326951e-06
4.321317701e-05
-4.324976309e-05
8.359855595e-06
4.394992503e-05
-8.307903749e-06
-4.396529079e-05
1.568825536e-05
1.941468037e-06
-1.994342188e-06
-1.563538121e-05
2.07758547e-05
-2.585668562e-05
2.136468699e-06
-1.563678436e-05
4.049799137e-05
-4.04817083e-05
1.562050129e-05
-2.596947172e-06
2.754493653e-06
2.061830821e-05
2.750937133e-06
1.569255795e-05
-2.755239719e-06
-2.297214255e-06
8.722514945e-07
2.618586564e-05
-2.476090287e-05
2.128682941e-05
-2.526270482e-06
4.331621428e-05
-1.565602789e-05
-2.128844725e-05
-2.200852349e-05
2.733136713e-06
-1.237919684e-05
-2.792458111e-06
1.243851824e-05
-4.075548776e-06
2.901057706e-06
2.410380239e-06
1.714715446e-06
7.211494659e-07
-3.435213557e-06
-1.5766876e-06
-8.290234612e-06
7.741449018e-05
-7.71563128e-05
8.032057229e-06
7.797817922e-05
-8.308560031e-06
-7.79598538e-05
-8.011849343e-06
5.450468495e-05
-5.453933219e-05
8.046496578e-06
5.508021597e-05
-8.013004001e-06
-5.507906131e-05
8.871113668e-06
5.510697162e-05
-8.897869325e-06
2.813551582e-05
0.0001108814222
-2.813188296e-05
-0.000110885055
-2.814050214e-05
0.0001195991363
-0.0001196028807
2.81442465e-05
2.814157657e-05
9.963606965e-05
-2.813958514e-05
-9.963806108e-05
0.0001081571677
-0.0001081558648
2.813421299e-05
8.894601333e-06
5.448119729e-05
8.70443394e-06
6.651231204e-05
-8.711513619e-06
2.806892971e-05
0.0001336567367
-2.805960691e-05
-0.0001336660595
-2.801840274e-05
0.0001423606428
-0.0001423724433
2.803020323e-05
0.0001222069037
-2.813362392e-05
-0.0001222137819
0.0001307796446
-0.0001307970037
2.80862888e-05
8.745761869e-06
6.58322451e-05
-8.284252813e-06
3.182985932e-05
-3.18176726e-05
8.272066092e-06
2.676061305e-05
-2.622024548e-06
-2.643580276e-05
3.249422744e-05
-8.287321809e-06
-3.249115845e-05
-1.501382323e-05
2.738149247e-06
1.502661111e-05
-1.013877692e-05
2.751397309e-06
1.01355878e-05
-2.748208183e-06
1.541438724e-05
2.108159628e-05
-1.543959744e-05
-2.105638608e-05
-1.932431467e-06
-1.01532897e-05
-1.496306018e-05
1.890704989e-06
-3.196174148e-06
3.917323613e-06
-1.512676313e-05
1.517579521e-05
0.0001163023183
1.775486002e-06
-0.0001180778043
-1.307567962e-06
1.747646498e-06
1.308734137e-06
-1.748812672e-06
1.086124971e-06
3.821609794e-06
-3.788436001e-06
-1.119298762e-06
-0.0001078467465
-5.245714387e-06
-2.532253283e-05
0.0001384149937
4.560820701e-06
1.175079379e-06
-4.649775109e-06
9.369039558e-07
6.668637163e-06
-6.56259249e-06
-1.042948629e-06
0.0001969175656
7.616677059e-06
-0.000198400999
-4.648383797e-06
-1.484859949e-06
0.000100258304
1.201091719e-06
-0.0001011866406
0.0002076241317
7.069849528e-06
-0.0002036530098
-1.104097137e-05
1.289710365e-05
0.0001993687711
-7.815750973e-06
-7.53255812e-06
-8.756055107e-06
6.354218188e-05
-6.390053224e-05
9.114405469e-06
-5.442311123e-06
5.342549785e-06
7.054477994e-05
-7.04450186e-05
5.315955767e-06
6.876816619e-05
-5.258028269e-06
-6.882609369e-05
8.121418588e-06
6.922825168e-05
-8.292514084e-06
-6.905715619e-05
-8.443874509e-06
4.027170956e-05
-4.02292797e-05
8.401444654e-06
-5.851287555e-06
-4.020857675e-05
5.846814978e-06
4.021304933e-05
6.018141105e-06
-3.816195389e-05
3.81019476e-05
-5.958134816e-06
-5.368776517e-06
5.408856563e-06
4.893814057e-05
-4.897822061e-05
2.812080246e-06
4.648498608e-05
-5.030613231e-06
-4.426645309e-05
8.441790846e-06
4.647635316e-05
-8.456138043e-06
-4.646200597e-05
-8.318834942e-06
7.441684101e-05
-7.486000859e-05
8.762002526e-06
-4.358230459e-06
-9.693582322e-05
2.486882368e-05
7.642523e-05
7.136808435e-05
-6.394715736e-06
-7.041567974e-05
9.063052444e-06
7.794266765e-05
-9.027540879e-06
2.792712228e-05
0.0001561851308
-2.78524745e-05
-0.0001562597786
-2.780712029e-05
0.0001654259634
-0.0001654045231
2.778567998e-05
0.0001450719774
-2.798998903e-05
-0.0001451003912
0.0001538408172
-0.000153862647
2.794895207e-05
8.973505096e-06
7.750403753e-05
-8.20306257e-06
5.161064615e-05
-5.166275076e-05
8.25516718e-06
-5.589769299e-06
5.455534367e-06
5.169746123e-05
-5.15632263e-05
4.955046326e-05
-5.497777128e-06
-4.942146265e-05
8.656636372e-06
5.746190817e-05
-8.935667789e-06
-5.718287675e-05
-3.734471652e-05
5.990794193e-06
3.737206344e-05
-3.528692021e-05
5.901254218e-06
3.532489995e-05
-5.939233958e-06
8.314441366e-06
3.528416963e-05
-8.296541965e-06
-3.530206903e-05
1.889039085e-05
-3.314211865e-05
6.565466038e-05
-1.890870513e-05
6.565572677e-05
2.808074099e-05
-2.80638931e-05
-6.567257466e-05
-2.80980286e-05
7.414587713e-05
-7.413065382e-05
2.808280528e-05
9.202996767e-06
4.388238486e-05
-9.135456594e-06
2.807773167e-05
8.834372372e-05
-2.811880748e-05
-8.830264791e-05
9.684389677e-05
-9.68562334e-05
2.81539132e-05
7.70514641e-05
-2.812859083e-05
-7.702090186e-05
8.555159248e-05
-8.563035485e-05
2.815649403e-05
9.25530491e-06
4.316086886e-05
1.828514049e-05
-1.826120019e-05
1.539044694e-05
2.752675283e-06
9.421191833e-06
6.151236525e-06
-5.258904151e-06
9.844088025e-06
-6.179413287e-06
4.615914829e-06
-4.335709488e-06
3.973189219e-06
-4.253394559e-06
-1.373946525e-06
9.589647429e-05
-9.482562597e-05
3.030982057e-07
9.035438294e-06
5.491875981e-06
0.000101775004
9.620631002e-05
-2.219006954e-06
-9.536124959e-05
-2.379302064e-06
2.31364983e-05
1.920240021e-06
-2.267743625e-05
2.402646945e-05
-4.597606153e-06
-2.180816536e-05
-1.243753387e-06
-1.030554884e-06
1.251053416e-06
1.023254854e-06
1.066434311e-06
-1.10537792e-06
-1.268624352e-06
-2.281690286e-06
2.607731638e-06
-3.260413519e-07
-1.264588083e-05
3.226393385e-05
7.520976345e-05
-6.047325052e-07
-4.074664996e-06
7.658777841e-05
-9.398604299e-06
2.78675789e-07
-3.728422765e-07
9.492770786e-06
-7.503612301e-06
-3.663127723e-07
7.385605572e-06
4.843195003e-07
1.962998041e-06
7.336856614e-06
-1.962706256e-06
-7.337148402e-06
3.477302576e-06
-1.004401092e-05
-5.435001429e-07
-8.766444264e-07
-7.978459731e-06
0.000112930126
8.485247359e-06
-0.0001214153733
6.203104904e-06
8.780687553e-05
-5.920005506e-06
-8.808997493e-05
-5.684592108e-06
8.991194286e-05
-9.011140412e-05
5.884053369e-06
6.44010154e-06
8.468339069e-05
-5.250859173e-06
-8.587263305e-05
8.653915535e-05
-8.662626295e-05
6.290212505e-06
9.027273746e-05
-5.01338318e-06
-9.094394638e-05
-4.868392227e-06
9.243510705e-05
-9.272842941e-05
5.161714582e-06
-1.338233609e-06
2.552705344e-06
9.468200255e-05
-5.203122687e-06
5.182543736e-06
6.573108697e-05
-6.571050802e-05
8.314925088e-05
2.549553689e-06
-8.569880457e-05
6.444388034e-05
-8.271758611e-06
-6.492817683e-05
6.840989495e-05
-6.827177069e-05
7.983294329e-06
5.262748504e-06
6.801654626e-05
-6.7963339e-05
6.622507686e-05
-5.280135758e-06
-6.614806379e-05
-4.328212928e-05
-6.029597944e-06
6.016839789e-06
4.329488744e-05
-4.092448082e-05
4.098586056e-05
-5.912667292e-06
4.091929724e-05
-8.39461918e-06
-4.096855257e-05
4.336121425e-06
-4.679474712e-06
-4.058112753e-05
-4.949111752e-06
4.912249407e-06
-4.324526694e-05
5.313570289e-06
-5.256298531e-06
-3.821922564e-05
2.372605053e-06
-3.824506037e-05
4.410781831e-05
-5.166549442e-06
-4.389038062e-05
4.576234683e-05
-4.571950134e-05
8.398945356e-06
-3.931643168e-06
4.562774627e-05
-3.888402286e-05
4.401625172e-05
-5.938031354e-06
-1.789265758e-06
1.782564797e-05
-1.786731817e-05
1.830935959e-06
1.851204862e-05
-1.922384526e-06
-1.837892985e-05
2.717308249e-06
1.858053102e-05
-2.785790656e-06
5.135804292e-06
1.858440583e-05
-5.123195574e-06
-1.859701455e-05
-5.133950582e-06
2.056066343e-05
-2.055306865e-05
5.126355806e-06
2.958371516e-06
2.407137262e-05
-3.003274679e-06
5.148598325e-06
2.405665761e-05
-5.172012717e-06
-2.403324322e-05
-5.23547604e-06
2.627447951e-05
-2.629084114e-05
5.251837675e-06
2.127729174e-05
-5.138869143e-06
-2.127237318e-05
2.334684578e-05
-2.334589359e-05
5.147646133e-06
2.80324453e-06
2.329162528e-05
3.799142366e-06
-3.760325022e-06
-3.803778688e-06
3.764961345e-06
-1.229958133e-06
-3.819672515e-06
1.228500046e-06
3.821130602e-06
-1.728015049e-06
1.715036732e-06
-1.230775068e-06
-7.54996787e-05
-6.67830651e-06
5.909681638e-06
7.626830357e-05
-7.576746753e-05
7.600480197e-05
-4.595564901e-06
7.492379418e-05
-7.991304329e-06
-7.525132479e-05
-5.421283598e-06
-2.783238344e-06
-6.756294558e-05
-5.731307862e-06
4.421210729e-06
-7.418958157e-05
-0.0001023571068
3.538878775e-06
7.963892789e-05
-4.758223525e-06
-7.841958314e-05
8.34233985e-05
-8.379550135e-05
6.812204389e-06
7.715264593e-05
-1.10472045e-05
-7.183674929e-05
8.070114433e-05
-8.031001355e-05
3.147748002e-06
-8.220809124e-06
8.06172958e-05
-8.059336795e-05
8.196881279e-06
-4.879281595e-06
5.124018453e-06
8.045640747e-05
7.750614878e-05
-7.03180936e-06
-5.440461139e-06
5.623295473e-06
5.476900955e-05
-5.495184389e-05
5.257509292e-05
-5.499200619e-06
-5.26656616e-05
5.241964539e-05
-8.158695327e-06
-5.246401264e-05
5.667841103e-05
-5.635621745e-05
8.334442793e-06
9.333559077e-06
6.797647402e-05
-7.731003309e-05
5.524454356e-05
-5.371353544e-06
-5.531365116e-05
5.148293952e-06
2.969413971e-05
-5.108241945e-06
-2.973419172e-05
-5.174971004e-06
3.176520401e-05
-3.173726882e-05
5.147035811e-06
2.688883786e-05
-5.197866143e-06
-2.692644776e-05
2.897036326e-05
-2.903452367e-05
5.212454365e-06
5.59083088e-06
3.58736803e-05
-4.146451118e-05
4.973308009e-06
-5.070413697e-06
-3.518981452e-05
-3.72760742e-05
5.244927961e-06
3.249280478e-05
-5.122093897e-06
-3.254568189e-05
3.455874348e-05
-3.452803851e-05
4.94260304e-06
1.340251668e-05
-1.394601682e-05
-1.947371887e-06
1.220026362e-05
-1.219147072e-05
1.938578986e-06
-5.397095933e-08
-5.000193422e-07
1.192661312e-05
-1.137262282e-05
1.033053157e-05
3.350660905e-06
1.283027592e-05
-1.584016587e-06
-1.130023029e-05
1.28915972e-05
-1.931212689e-06
-1.290775639e-05
4.297793747e-06
4.117263447e-06
0.0003866790288
-8.851914224e-05
0.0007713428734
-0.0003358022778
-0.000779385557
-0.0003337803079
-0.0008947346195
0.0003376871427
2.066021894e-06
-2.546478749e-06
2.720908925e-06
-2.24045207e-06
1.127749913e-06
3.654465061e-06
-2.716193079e-06
-1.458961171e-05
0.0003386249038
6.668042286e-06
-5.540292375e-06
1.829368783e-05
7.205536385e-06
-2.139885134e-05
-3.925891927e-05
9.397833465e-06
-2.091560628e-05
-7.625826443e-05
2.108571748e-05
9.581048147e-05
4.418841857e-06
-9.790041234e-05
-2.328910988e-06
-3.715304579e-06
-0.0001002975663
4.736206009e-06
9.927666485e-05
-0.0001054236359
0.0001022552669
-2.077345369e-06
0.0001021981095
1.259380024e-05
-0.0001130164237
0.0001007092949
8.161233687e-06
-9.915002179e-05
-9.720506788e-06
8.563872604e-06
-9.733685862e-06
9.698029473e-05
-6.918239952e-05
0.0004169635444
-0.0004202745471
7.249340221e-05
-2.515428884e-05
2.858085046e-05
0.0004263409109
0.0001939200605
-1.510239261e-05
8.58223941e-05
-8.011532231e-06
-8.572151618e-05
7.910654316e-06
-6.93112149e-06
7.081990285e-06
8.638828655e-05
6.796972373e-06
8.457507055e-05
-6.688652237e-06
-1.25894452e-06
-6.588538395e-06
1.24935772e-06
6.598125192e-06
-4.517232273e-06
4.519004925e-06
-1.231730784e-06
-3.643641834e-06
-4.452392679e-06
-3.164744761e-06
6.101618573e-06
7.072995885e-06
5.970284059e-06
-1.255341497e-06
-6.019650222e-06
1.510672066e-05
-1.121325494e-06
-1.515691382e-05
1.171518653e-06
6.810491542e-06
8.340987933e-05
8.034053914e-05
-5.580892849e-06
8.109225379e-05
-8.279997124e-06
-8.103306579e-05
4.799581602e-06
7.505253495e-06
5.852017936e-06
4.308631745e-06
-5.860247548e-06
-4.739728921e-06
4.614817029e-06
5.976929828e-06
6.573254859e-06
-7.274026214e-06
7.284299473e-06
-2.505803483e-05
8.968380341e-05
-7.171882364e-05
-1.543180081e-06
2.1837424e-05
-2.056900528e-05
2.962853773e-06
-2.953120028e-06
-1.010620786e-06
5.51184629e-07
2.788336159e-06
-3.766670159e-07
3.084689534e-06
1.153100539e-06
3.635666708e-07
-3.751623996e-07
3.833205525e-06
-4.466029196e-07
1.75201226e-06
4.42237155e-07
1.902553868e-06
1.778074041e-06
-1.913211274e-06
-1.767416635e-06
0.0001681992015
-2.7716828e-05
-0.0001682894938
-2.723133052e-05
0.0001769705067
-0.0001767676444
2.702846829e-05
-1.741813528e-05
1.800960339e-05
0.0001777883054
6.635714938e-06
-6.63169991e-06
1.958983014e-06
-3.524742426e-07
6.654798631e-06
4.546712204e-06
3.77675167e-07
-8.195693016e-06
0.0002007129013
-0.0002039484288
1.14312205e-05
4.779318449e-06
-3.07352232e-06
0.0002059183356
9.877542722e-05
-3.894125479e-08
8.855958853e-05
7.051580195e-06
-7.145445156e-05
-3.792805673e-06
3.212893063e-06
8.913950114e-05
-3.536585578e-06
9.063643462e-05
8.488981633e-06
0.0001088355032
-0.0001173244849
8.366119498e-05
-2.116055852e-06
-7.30561575e-05
-1.641801921e-05
-1.968272165e-06
1.639194919e-05
1.313702413e-06
-1.38790794e-06
-1.634381369e-05
-1.543254075e-05
1.110861949e-06
3.478670599e-06
-2.933535622e-05
1.995382789e-05
1.556265883e-06
-1.803142318e-05
2.09897229e-06
1.99913243e-05
1.570409602e-05
5.098698871e-06
-5.102211533e-06
-1.570058336e-05
1.78571086e-05
-1.784283254e-05
5.121528234e-06
2.706913244e-06
1.783604297e-05
2.563925234e-05
-2.853512041e-06
-2.191348881e-05
-3.402401603e-06
3.468982868e-06
2.557267107e-05
-3.488849747e-06
2.627231378e-05
-2.415758583e-06
2.563183566e-06
-3.58263854e-06
2.853020034e-06
-2.858859441e-06
-2.409919176e-06
-1.676787593e-06
-3.345313907e-06
2.949465681e-06
3.088075757e-05
-3.048490935e-05
-3.833669956e-06
3.163546593e-05
-3.114710988e-05
-3.616503882e-06
2.688826719e-05
-2.73825656e-05
-3.745623469e-06
2.751168519e-05
-3.129869319e-06
-2.687472083e-05
-6.474346628e-06
3.255443208e-05
-2.991375541e-05
4.085812952e-05
-4.733247615e-05
3.46271377e-05
-3.462330974e-05
8.310613412e-06
5.883365074e-06
3.457663262e-05
6.008039299e-06
3.244920682e-05
-5.964441336e-06
-3.814301091e-06
3.181310511e-06
3.151617081e-06
-4.040527707e-06
1.772500263e-06
-8.835896374e-07
2.151098686e-06
-1.545960354e-06
-1.763333338e-06
1.629362397e-06
2.986488092e-06
-2.028912505e-06
-1.228628082e-06
3.095817411e-06
1.201818134e-06
-0.0001001355238
7.361117287e-05
9.37506725e-06
0.0001290399265
-0.0001269837008
0.0001281855189
-5.271832913e-06
1.193921962e-06
5.25299033e-06
-3.647629574e-06
2.358280529e-06
-3.982483868e-06
-1.50626847e-06
2.876195481e-07
-5.343943568e-06
5.756084413e-06
-4.904072353e-06
5.907057746e-06
3.963061137e-06
0.0001001829262
-0.0001015805059
-2.565481428e-06
1.109140576e-05
-1.21964058e-05
0.0001018142949
0.0001015146274
9.718920369e-06
-1.097882325e-05
6.841025668e-06
6.259775858e-05
-5.8459961e-05
-2.326675953e-05
6.427546014e-05
-5.198752386e-05
-6.064753105e-06
6.124039464e-06
6.067444459e-05
-6.073373095e-05
6.13475448e-05
-6.057127224e-05
6.989896922e-05
5.242254691e-06
-6.979867412e-05
-6.993295793e-06
6.754506498e-06
7.013775851e-05
-7.278024757e-06
7.08295089e-05
-6.608039332e-06
6.492211256e-06
6.888399427e-05
-6.940004423e-05
6.95465114e-05
-6.941581781e-05
4.8159755e-05
5.370410436e-06
-4.812130887e-05
-6.764515964e-06
6.732498928e-06
4.819177203e-05
-6.749037895e-06
4.89226625e-05
-6.74956601e-06
6.770121441e-06
4.646443064e-05
-4.731972133e-05
4.730265425e-05
-4.697992412e-05
7.514931594e-05
1.132838187e-05
-6.160887412e-05
-7.345477263e-06
7.899341266e-06
7.459545193e-05
-6.374901229e-06
7.545465397e-05
-7.666750498e-06
7.175681009e-05
-7.288123276e-05
7.311382353e-05
-6.794756663e-05
5.110611267e-05
5.468521831e-06
-5.111910014e-05
-6.738481973e-06
6.753404416e-06
5.109119023e-05
-6.738897009e-06
5.169787626e-05
-6.759861683e-06
4.956128704e-05
-5.037661425e-05
5.037015698e-05
-5.040586954e-05
-5.953063674e-06
5.802481016e-06
5.931204488e-05
-5.916146223e-05
5.988386794e-05
-5.971289215e-05
-3.078459882e-06
-5.88205533e-06
5.687326688e-05
-4.791275167e-05
5.823808338e-05
-5.551406225e-05
4.854403689e-06
7.754595989e-06
-4.201365117e-06
8.174554336e-06
-5.16829813e-06
5.581750041e-06
-5.113060943e-06
1.142765855e-05
-4.751665454e-06
-2.124385186e-05
-6.883010866e-05
0.0001189337097
-0.0001236853752
9.417877307e-05
0.0001282536475
-0.0001227617715
4.611412731e-06
2.163938487e-05
0.0001020028498
0.0001021807738
4.205642896e-06
5.536540518e-06
0.000117197218
-0.0001227337585
9.394325523e-05
-6.676732984e-05
2.242321496e-05
-2.204615502e-05
3.078298293e-05
-3.538058909e-05
2.551447971e-07
5.478544503e-07
2.657127126e-06
3.863538287e-07
1.22433106e-06
3.734166006e-06
1.857531965e-06
8.101808035e-06
-6.482037422e-06
-9.756391375e-06
8.583898124e-06
-7.603010588e-06
-2.217653559e-06
2.585569893e-05
8.92920806e-05
-8.749444397e-05
8.848968347e-05
-7.195761641e-05
-8.470779597e-05
-5.672527732e-06
8.512946453e-05
2.88144414e-06
-3.928045129e-06
2.584431433e-05
-1.01248225e-05
8.328521023e-05
-7.527644359e-05
8.656571486e-05
-7.083483843e-05
6.523000135e-05
4.002166807e-06
-6.404962442e-05
-6.007092654e-06
5.765055879e-06
6.547203813e-05
-6.108694778e-06
6.58326891e-05
-5.712350323e-06
6.559484167e-05
-6.56075213e-05
6.566022686e-05
-5.905580081e-05
6.740493136e-05
5.203363888e-06
-6.734554675e-05
-6.390009779e-06
6.28637605e-06
6.750856509e-05
6.811874774e-05
-6.241936164e-06
6.635831824e-05
-6.690476507e-05
6.694920496e-05
-6.698153694e-05
4.240221451e-05
-4.234731321e-05
5.961938496e-06
-6.753853477e-06
4.240028291e-05
6.755785073e-06
-6.736936704e-06
4.327797067e-05
-4.748765252e-06
4.16267774e-05
-4.155748686e-05
-4.218382906e-05
-4.755631798e-05
3.3973106e-06
3.890270885e-05
7.576713564e-06
-5.513303154e-05
4.676637315e-06
-3.531914939e-05
3.949660462e-05
-3.372668897e-05
-8.542747065e-06
4.443385716e-05
-4.105765954e-05
5.472693884e-05
-6.326968591e-05
4.491618917e-05
5.879106503e-06
-6.729605319e-06
6.700310875e-06
4.494548362e-05
4.566826239e-05
-6.68987027e-06
4.396918529e-05
-4.437493231e-05
4.438537292e-05
-3.009441188e-06
2.259981808e-07
-1.508387515e-05
1.725657643e-05
-2.165392556e-05
1.711924022e-05
2.566851248e-06
-2.42207768e-05
-8.21871962e-07
2.336721355e-07
-1.484434092e-05
-1.45988344e-05
-1.904676911e-05
1.922335688e-05
9.514948667e-07
-1.84419981e-05
-1.720143681e-05
-3.594268294e-06
2.403972549e-05
3.625915419e-06
-2.492619621e-05
2.480091079e-05
7.583197032e-05
5.184893411e-06
-7.510718209e-05
-6.663344114e-06
6.247749861e-06
7.624756457e-05
7.680708443e-05
-7.202124973e-06
-6.02341242e-06
7.565331316e-05
-7.574196448e-05
7.596630192e-05
-7.515263597e-05
-4.048277874e-06
-7.388759644e-05
-7.473424923e-05
-7.873641731e-05
-5.976827416e-06
7.99550212e-05
3.558925271e-06
-5.134597659e-06
-7.716074492e-05
1.424336342e-06
-7.628499421e-05
1.095576347e-05
-6.890695049e-05
8.059386935e-05
-7.477270354e-05
8.142924632e-05
-2.537207866e-05
7.993689565e-05
-6.561202149e-05
-7.254729442e-06
-7.163094777e-05
0.0001040627126
-0.000111317442
8.183838194e-05
5.387110323e-05
5.508265578e-06
-5.375607334e-05
-6.655384845e-06
6.668846992e-06
5.385764109e-05
-6.514168625e-06
5.462779333e-05
-6.687339605e-06
5.252353551e-05
-5.32497664e-05
5.323127378e-05
-5.324070144e-05
5.573598624e-05
5.723705293e-06
-5.212613246e-05
-6.112834558e-06
6.245314609e-06
5.560350619e-05
5.598158413e-05
-6.414637249e-06
5.514501219e-05
-5.562388285e-05
5.545456021e-05
-5.527153111e-05
-1.355382331e-06
-2.935556273e-06
2.981341813e-05
-2.552247952e-05
3.030166935e-05
-2.8707586e-05
2.824846844e-05
-2.578750688e-05
-3.777485986e-06
2.828033095e-05
2.916063805e-05
-3.588495851e-05
-5.158165123e-06
3.597270994e-05
3.934063686e-06
-4.011373102e-06
-3.580764909e-05
3.580197442e-06
-3.483594828e-05
4.166331212e-06
-3.676576809e-05
3.652301282e-05
-3.636805471e-05
3.660977566e-05
-3.330876251e-05
-5.011369973e-06
3.319803858e-05
4.446782945e-06
3.102584068e-06
4.455533137e-06
1.833749064e-06
-3.278159013e-05
3.391710566e-05
-2.898077253e-05
3.384833873e-05
1.133197235e-05
-1.421345737e-06
-1.041064595e-05
-2.798868542e-07
1.310909561e-07
1.148076824e-05
-4.893841925e-07
1.213611046e-05
-1.737422911e-07
1.01909151e-05
3.133587575e-07
-1.091009433e-05
1.0867443e-05
-8.980779171e-06
8.053039428e-07
-3.154607941e-06
1.436935043e-05
-1.202004644e-05
1.482863793e-05
-1.378966185e-05
-5.80885853e-07
1.292177758e-05
-1.750697065e-05
1.377147686e-05
-1.909098724e-05
-3.358446398e-06
3.841939053e-06
0.0001203512571
-3.551116611e-06
1.683078317e-06
-2.801179232e-08
0.0001181906478
-7.715752438e-07
8.742497173e-05
1.290363153e-05
-5.88122175e-06
-0.0001011878239
0
-7.908680671e-08
6.368361676e-09
7.126080569e-05
-6.178075089e-06
2.162642406e-05
1.05023181e-05
-2.430389589e-06
-3.686753617e-05
0
0
0
9.919120914e-06
-8.667307007e-07
0
3.788994859e-08
0
-1.13435914e-07
0
0
0
0
0
0
0
0
0
0
0
0
0
0
0
0
0
0
0
0
0
0.0005451023707
-1.940048747e-05
1.412902358e-05
-6.207879735e-06
0.0005411259182