/*--------------------------------*- C++ -*----------------------------------*\
| =========                 |                                                 |
| \\      /  F ield         | OpenFOAM: The Open Source CFD Toolbox           |
|  \\    /   O peration     | Version:  v2012                                 |
|   \\  /    A nd           | Website:  www.openfoam.com                      |
|    \\/     M anipulation  |                                                 |
\*---------------------------------------------------------------------------*/
FoamFile
{
    version     2.0;
    format      ascii;
    class       surfaceVectorField;
    location    "0.15";
    object      Uf;
}
// * * * * * * * * * * * * * * * * * * * * * * * * * * * * * * * * * * * * * //

dimensions      [0 1 -1 0 0 0 0];


internalField   nonuniform List<vector> 
6464
(
(99.99077157 0.9437534396 2.009403394e-22)
(99.99932327 0.4765505305 0)
(100.0017632 0.4753864606 4.610797049e-22)
(100.0116274 0.9390134532 -8.953185129e-24)
(100.0040927 0.4629714271 1.042603143e-21)
(100.0055386 0.4404097503 -2.039607441e-22)
(100.0284311 0.8505420934 -6.549479188e-22)
(100.0058845 0.4099826573 -1.146635296e-21)
(100.0060805 0.3746891796 9.18313887e-23)
(100.035449 0.7120228824 1.83423066e-21)
(100.0063423 0.3367883345 4.750401563e-22)
(100.0062993 0.2980090564 0)
(100.0353498 0.5576577978 0)
(100.0060105 0.2602098952 0)
(100.005716 0.2245440805 7.900025182e-22)
(100.030261 0.4161634995 1.648139875e-21)
(100.0057861 0.1921932067 -4.003346969e-21)
(100.0055875 0.1611199328 -1.484740681e-21)
(100.0251395 0.2938293984 3.246801223e-21)
(100.004791 0.1342512445 3.246558943e-21)
(100.0035794 0.1117109411 -9.123791835e-22)
(100.015094 0.2016378588 -5.435756433e-23)
(100.0009734 0.09558597871 1.777021767e-21)
(100.0093773 0.09254558315 -7.927468735e-21)
(100.0535454 0.2268850903 5.026372305e-22)
(100.0191188 0.2042979701 -2.821449179e-21)
(100.0031433 0.09509575334 -1.639597453e-21)
(100.0066058 0.05373856353 -9.959570564e-22)
(100.0362921 0.1390800491 1.578853411e-20)
(100.0054872 0.0252066645 -8.000981427e-21)
(100.0268074 0.07434603804 -1.683478645e-20)
(100.0237545 0.02344554316 1.474395621e-21)
(99.92613421 2.101583478 -2.940522163e-21)
(99.96126106 1.891439366 -3.108309744e-22)
(99.91867326 2.374103924 2.474937169e-21)
(99.95390576 2.146960224 1.518666488e-22)
(100.0333019 2.139499643 2.289601366e-22)
(100.0471803 1.89568904 -2.980202359e-22)
(100.0494078 2.386781855 1.595068137e-22)
(100.0589032 2.136824187 -7.316994288e-22)
(100.1284506 1.984683562 -2.597457414e-22)
(100.1054611 1.727390462 -2.409289791e-22)
(100.1581711 2.178176621 -1.013291663e-22)
(100.1442641 1.928031561 2.115263655e-21)
(100.1802236 1.691456599 2.449553933e-21)
(100.1319671 1.451606574 4.255727403e-21)
(100.2128502 1.83004023 4.264393338e-21)
(100.1845543 1.604751381 5.517253329e-22)
(100.1887722 1.340748347 -6.887132631e-21)
(100.1318083 1.13782131 -6.426878085e-21)
(100.2178587 1.433187343 -2.320081444e-21)
(100.1840937 1.248571636 -2.28223438e-21)
(100.1657111 1.009678132 -5.469453861e-21)
(100.1092538 0.850551787 4.995441349e-22)
(100.1842603 1.06637757 -1.465872903e-21)
(100.1562522 0.9293787254 5.968790459e-21)
(100.1012539 0.5809943632 -1.378259054e-20)
(100.1619802 0.7924179611 -1.378151966e-20)
(100.2266293 0.8546413374 1.395630529e-20)
(100.1394788 0.6582325807 -2.818462981e-20)
(100.1176708 0.5431625014 1.226957677e-20)
(100.1627893 0.5781365379 -1.726832043e-20)
(100.0956783 0.4462527795 2.472217012e-20)
(100.0721411 0.3952983538 2.747006361e-20)
(100.0886477 0.2683702883 2.347356147e-20)
(100.2017747 0.4219366005 -2.026572782e-22)
(100.154682 0.4752953621 4.934124621e-20)
(100.0911414 0.3770503586 2.671931453e-21)
(100.0635435 0.1563469365 -6.993120399e-22)
(100.1414021 0.2570220071 3.369058736e-20)
(100.050919 0.07170339793 -7.840317428e-21)
(100.1066053 0.1375785152 -1.786057588e-20)
(100.0913882 0.04322360344 7.99808809e-21)
(99.81905304 3.907973697 -9.412541177e-20)
(99.72245249 4.138708424 -1.721389532e-19)
(99.76895634 4.465667233 1.169958103e-19)
(99.8236671 4.208088334 1.213169607e-19)
(100.1605341 3.938466057 -2.066392129e-20)
(100.1422194 4.231713114 -1.706067908e-20)
(100.2252766 4.494137812 2.473841369e-20)
(100.2412044 4.175679912 -1.169143831e-20)
(100.4474238 3.559312811 -6.603594416e-20)
(100.4839002 3.865900109 1.106922046e-19)
(100.5901357 4.03937178 0)
(100.5422054 3.71979861 -1.177468885e-20)
(100.5801688 2.944376314 2.993178767e-21)
(100.6515263 3.220336104 -1.625728073e-21)
(100.7496552 3.317423415 1.975562099e-21)
(100.6678899 3.039206572 6.396589384e-21)
(100.5875357 2.279205087 -6.415423514e-21)
(100.6713943 2.504499689 -1.494153834e-20)
(100.7510835 2.55016971 -5.201168207e-21)
(100.6582718 2.329627462 5.786070794e-21)
(100.5889788 1.83970993 -1.822172448e-20)
(100.5077021 1.666148295 -1.228270051e-20)
(100.6482035 1.854169288 -1.229926423e-20)
(100.5632287 1.689278569 6.592098072e-21)
(100.3995717 1.108559962 -5.453682826e-20)
(100.5343742 1.354571058 -2.857924497e-20)
(100.6212135 1.33697511 -8.267983377e-20)
(100.4630997 1.118557615 -3.894987368e-20)
(100.2913404 0.7449184393 -6.2532277e-20)
(100.3956652 0.9164294062 2.479452672e-20)
(100.4522292 0.8892376822 -2.968067881e-20)
(100.3326482 0.7451100965 -2.595385553e-20)
(100.2459827 0.4064859571 1.05902664e-20)
(100.4227873 0.5558082629 -2.675550393e-20)
(100.3990696 0.6730301703 -1.595027758e-22)
(100.2974715 0.6110348453 -1.533310613e-20)
(100.1785521 0.2352897325 1.57901279e-20)
(100.302457 0.3355455557 2.808715987e-20)
(100.1421282 0.1074845476 -2.009424371e-21)
(100.2271806 0.1784509464 -4.057509547e-21)
(100.1927549 0.05564630377 0)
(99.62003369 6.35231725 -3.033972393e-19)
(99.4241711 6.627087727 -1.581158894e-20)
(99.56728606 7.07386314 5.946207123e-20)
(99.69500637 6.739371216 -6.769992652e-20)
(100.5478146 6.331741417 -1.888703041e-20)
(100.4994248 6.713485514 -1.973759498e-20)
(100.7159045 7.017304917 -9.797638744e-20)
(100.7381786 6.586204589 1.188643288e-19)
(101.2130748 5.553226199 -3.403411504e-22)
(101.2815998 5.946192339 -2.8897647e-20)
(101.5053209 6.084103203 1.825791861e-19)
(101.3982535 5.672844527 -5.599341319e-20)
(101.4409002 4.437402581 -1.193952124e-19)
(101.5733593 4.776158283 -3.613241873e-19)
(101.7455615 4.804270961 4.221647723e-19)
(101.5837804 4.46947344 -8.712081551e-20)
(101.3755911 3.313584136 4.699270558e-20)
(101.5198303 3.577645472 3.595406709e-20)
(101.636874 3.544883854 0)
(101.4751407 3.296771921 2.204661943e-19)
(101.3066108 2.550583928 0)
(101.175492 2.362969781 4.908024078e-20)
(101.3826364 2.506395205 0)
(101.2412596 2.330270412 0)
(100.8889064 1.530892084 3.021272088e-20)
(101.1135153 1.794140593 1.952594383e-20)
(101.1980842 1.680826183 -1.734161632e-20)
(100.9580534 1.464422834 3.785618325e-20)
(100.6460049 1.006123499 -3.460949223e-20)
(100.8161765 1.1854711 -1.545210089e-20)
(100.8661533 1.091674012 -1.561980571e-20)
(100.6899238 0.9508022407 -7.55047261e-21)
(100.4654881 0.4818219259 -9.628805764e-21)
(100.6998871 0.6018526776 -2.014480589e-20)
(100.732375 0.7929972024 -2.648267741e-21)
(100.6018469 0.7599640067 5.405676794e-21)
(100.3384062 0.2759561076 8.085529944e-21)
(100.4965396 0.3587023487 1.229342968e-20)
(100.2673257 0.1248940113 -2.047722812e-21)
(100.369648 0.1871261544 -3.616922129e-21)
(100.3105392 0.05767220658 -5.202921734e-22)
(99.38696562 9.647164658 1.854782308e-19)
(98.9729972 10.00403007 5.306040546e-20)
(99.27443124 10.68871499 -9.974917387e-20)
(99.58655497 10.21118632 5.918051809e-20)
(101.4963847 9.385555135 -8.235276097e-20)
(101.4062017 9.963891705 -5.351530243e-20)
(101.8819253 10.30878246 8.04375433e-20)
(101.903477 9.643541134 -3.116117158e-19)
(102.7352649 7.749401148 -9.486586143e-19)
(102.8937266 8.286294997 -3.524080627e-19)
(103.2932079 8.314386253 -3.521660325e-19)
(103.0609124 7.772666228 -3.756996276e-19)
(102.9416666 5.815341457 3.27748565e-20)
(103.1947917 6.22061217 -7.586819466e-19)
(103.455192 6.112878837 -4.192413685e-19)
(103.1506735 5.732132282 1.785177792e-19)
(102.6029031 4.146394059 -2.325804511e-20)
(102.8506971 4.428677234 -2.450089019e-19)
(102.9848513 4.298640096 -4.997681344e-19)
(102.7183333 4.04248505 -3.637824509e-19)
(102.3017023 3.024666217 -7.755580577e-21)
(102.1005732 2.830395072 -3.995824416e-21)
(102.3735196 2.902261775 1.131775638e-20)
(102.1647802 2.733560781 2.359040352e-20)
(101.5416763 1.777304136 -9.773371458e-20)
(101.860002 2.026862191 -6.193803106e-20)
(101.9128963 1.810484152 -3.473161546e-20)
(101.5917471 1.631333468 -1.786943182e-20)
(101.1067298 1.138768225 1.201542449e-20)
(101.3467536 1.300511482 3.625872696e-20)
(101.363592 1.14253821 -4.055969191e-21)
(101.1320662 1.026840335 -3.966626243e-21)
(100.7161796 0.4796331851 2.089383551e-21)
(100.9964803 0.539856175 0)
(101.1115599 0.7881329728 -1.002839299e-22)
(100.9685621 0.8008666047 -1.081958082e-20)
(100.5152837 0.2672648939 4.606865559e-22)
(100.6967948 0.3137906153 2.089195185e-21)
(100.4021342 0.1186349766 -2.094862737e-21)
(100.5098327 0.1570020067 -2.09680225e-21)
(100.4224331 0.04738297345 -2.104464565e-21)
(98.64792357 14.78831964 -7.009188657e-20)
(97.77035529 15.34230598 -3.169200983e-19)
(98.28837186 16.65089051 1.046044043e-19)
(99.29175444 15.77617251 -1.568302881e-19)
(103.6941095 13.63329621 3.629894328e-20)
(103.5662348 14.68572345 0)
(104.6254831 14.97480743 1.637476413e-19)
(104.5384867 13.7812095 0)
(105.6031806 9.946458759 -2.357440772e-19)
(105.9897581 10.70271078 -3.520691564e-19)
(106.6383817 10.43563525 -2.400568906e-19)
(106.1071285 9.724125032 -3.802509489e-19)
(105.3185646 6.789108888 -8.656500921e-19)
(105.7806971 7.224995145 -1.659748773e-19)
(106.0540428 6.908548849 1.264085388e-19)
(105.5429726 6.531414211 -2.361188087e-20)
(104.3065434 4.547147336 -5.879876141e-23)
(104.6952011 4.805856895 -7.336203496e-19)
(104.797095 4.542868114 3.044915366e-20)
(104.399667 4.331224017 2.915251642e-19)
(103.5579259 3.134017588 -2.135729523e-19)
(103.2660953 2.969229397 1.335680021e-19)
(103.5887207 2.931957602 -3.593416954e-20)
(103.3019471 2.796536764 5.399790632e-20)
(102.2984693 1.771238013 2.836426906e-20)
(102.7076031 1.959125998 -2.677262667e-22)
(102.6848331 1.651594174 1.727632484e-20)
(102.2955771 1.547254916 1.28811175e-20)
(101.622716 1.097313311 -1.689361749e-20)
(101.9268474 1.210679761 -8.620026232e-21)
(101.8813956 0.9988797415 -8.621696241e-21)
(101.6038986 0.9355935462 1.314808191e-20)
(100.9612925 0.3805480794 0)
(101.2726819 0.3620769 1.389522901e-21)
(101.480687 0.631696922 -1.15988768e-20)
(101.3490571 0.7152117752 2.875776077e-20)
(100.677986 0.2014655105 -5.279275624e-22)
(100.8656271 0.1931274065 -1.64257998e-21)
(100.5195602 0.08567024786 -2.11657677e-21)
(100.619016 0.08544852065 -2.395650591e-21)
(100.5032273 0.02415568765 2.691975368e-21)
(93.63658005 25.70246711 3.88868864e-19)
(95.08218804 25.22153473 1.902095318e-20)
(94.23434658 27.58743082 1.975650278e-20)
(95.97604179 26.64978986 6.518832221e-19)
(109.50397 21.52752595 5.681212178e-19)
(109.5743147 19.64555953 3.937013527e-19)
(111.2646776 19.03409531 -4.024214498e-20)
(110.4747276 22.22071501 -6.363383123e-19)
(112.563675 20.79290622 -1.264305802e-18)
(112.2014638 21.68092105 -2.667874491e-20)
(111.5323366 12.28064756 -4.401709429e-19)
(110.579999 11.37009768 -4.2793616e-19)
(112.1879608 11.3577155 -3.704491258e-19)
(111.0891352 10.66538247 -1.068601534e-18)
(108.5635225 6.77872449 -4.770699727e-20)
(109.3245952 7.137143841 2.08478398e-19)
(109.4738048 6.520297242 -2.227602894e-19)
(108.6978783 6.283535134 0)
(106.368778 4.193440879 9.051660793e-20)
(106.9120125 4.350451081 8.586591512e-19)
(106.8963941 3.950344206 8.987869521e-20)
(106.3690997 3.859009546 1.144820767e-21)
(104.9320341 2.682373161 -3.25008409e-19)
(104.5534947 2.602977505 -7.186804669e-19)
(104.8734218 2.41639852 -4.340851943e-20)
(104.5142289 2.360273872 -5.718346027e-19)
(103.0575119 1.44581189 4.551046583e-21)
(103.5540051 1.519982892 0)
(103.3976246 1.152330978 -2.640918651e-21)
(102.9652794 1.158638851 -4.742776536e-21)
(102.1215373 0.8420063414 4.713147992e-21)
(102.4668656 0.8756107861 -2.611508732e-23)
(102.3407393 0.6311939294 -7.64352343e-21)
(102.0368378 0.6430026622 9.531836891e-21)
(101.1557808 0.1812457552 -1.925520352e-22)
(101.4583401 0.07283372477 -3.054184395e-22)
(101.7907109 0.3187121552 8.716438112e-22)
(101.6848837 0.4378104646 6.961834205e-21)
(100.7930938 0.07696683243 -3.518481609e-21)
(100.9638607 6.872515605e-05 -2.56906466e-22)
(100.5922303 0.02485602212 2.625774181e-21)
(100.6681084 -0.02449782475 -2.361989813e-21)
(100.5266561 -0.01120240204 4.49218251e-22)
(127.6975597 23.9667788 -4.375524245e-18)
(125.6554515 22.94056183 -1.589924896e-18)
(128.2730334 21.80614257 1.167643893e-19)
(126.318322 21.23179205 -9.906507874e-19)
(119.2804012 9.948016058 6.696941752e-20)
(117.4992526 9.561499957 1.357322861e-18)
(119.1399247 8.285092202 1.384009232e-18)
(117.4960225 8.276382519 1.739106248e-19)
(112.1275965 4.969306381 -2.665794298e-19)
(113.1518883 5.00612275 2.655506606e-19)
(112.908375 4.189319348 -5.205235052e-19)
(111.9680159 4.293595837 -2.657814036e-19)
(108.366172 2.828997105 8.211145914e-19)
(109.0147211 2.789814566 1.447903038e-19)
(108.786591 2.327234114 -7.477922551e-19)
(108.1977744 2.429098914 -8.410089579e-19)
(106.1502573 1.587498877 2.153744746e-20)
(105.7226156 1.628853442 1.121882104e-20)
(105.9685001 1.294274226 7.757001933e-19)
(105.5796195 1.357585693 3.602857553e-19)
(103.6849237 0.7778516783 -5.150786277e-21)
(104.2245741 0.7058146419 -5.248652852e-21)
(103.902593 0.3342004711 8.204061092e-21)
(103.4742752 0.4744031509 1.220331917e-21)
(102.5105572 0.3709980712 -2.090061142e-21)
(102.8618323 0.3029715395 1.439554919e-20)
(102.6348126 0.06870078893 5.316007575e-21)
(102.3483418 0.170999655 1.052668781e-20)
(101.2524237 -0.1033907628 -3.69784826e-22)
(101.5164961 -0.3059073413 -1.113315789e-21)
(101.9594412 -0.1278752793 -1.129665806e-21)
(101.9136835 0.04490309985 -1.249992826e-21)
(100.8278447 -0.09902962452 1.132630689e-21)
(100.9596244 -0.2488044502 1.38605393e-21)
(100.5937105 -0.05907997769 -4.48906058e-21)
(100.6303638 -0.1639840027 1.740660821e-21)
(100.4709069 -0.05619158164 -2.222162064e-21)
(140.795964 5.32922528 2.469411123e-18)
(139.068467 6.423819564 3.745965646e-18)
(139.3652402 3.948285805 -1.196755809e-18)
(137.9271329 5.03288084 3.749546952e-18)
(124.28024 2.065110431 7.451468219e-19)
(122.5250788 2.843949975 2.431696687e-18)
(122.9867021 0.7488267806 1.576459077e-18)
(121.6126297 1.625755155 1.914900547e-19)
(114.5722449 1.190558997 -3.134977271e-19)
(115.5648563 0.7403060107 -6.989577988e-20)
(114.8421233 0.05452059796 -5.969432929e-19)
(114.0155499 0.557490523 -5.959786906e-19)
(109.6835914 0.4981482005 9.089331145e-19)
(110.302174 0.2066874171 4.967472476e-19)
(109.8367868 -0.1830100449 -2.256370627e-19)
(109.307486 0.1308346872 8.738811998e-19)
(106.8637388 -0.0474307725 7.600921156e-19)
(106.4582938 0.134517093 7.57106989e-19)
(106.5471005 -0.2933120275 -3.864996961e-20)
(106.1947189 -0.1067671088 -1.072100094e-20)
(104.0356895 -0.1637423513 8.169903614e-21)
(104.5486203 -0.3968240565 -2.564829992e-21)
(104.069966 -0.6988141067 -2.566985169e-21)
(103.6978182 -0.4321340454 -1.312432295e-21)
(102.6924258 -0.2680499519 5.94886667e-22)
(103.013515 -0.4437033755 7.299371717e-21)
(102.6903795 -0.6284757353 5.989583563e-21)
(102.4502321 -0.4417636294 1.325922004e-21)
(101.215446 -0.4455585467 5.824675156e-22)
(101.4097338 -0.7339424812 1.224759893e-23)
(101.9341518 -0.6611637032 3.884580233e-22)
(101.9631675 -0.4559207337 -5.97077392e-21)
(100.756034 -0.3089887472 2.132363277e-21)
(100.8306494 -0.5283935621 -2.357756669e-21)
(100.5025673 -0.1588939538 4.238978424e-21)
(100.4886839 -0.3198062723 2.395006338e-21)
(100.3209862 -0.1066244326 2.106642163e-21)
(136.398177 -12.01030464 -5.987421658e-18)
(135.9065657 -10.62476684 -2.241607224e-18)
(134.8874012 -12.21219563 -6.639338482e-18)
(134.478022 -10.91728162 -7.653300536e-18)
(123.3880188 -6.739936982 0)
(122.4304591 -5.359507334 -7.866537525e-19)
(121.7058832 -7.153580859 -2.979776064e-18)
(121.0216535 -5.924469663 0)
(114.7357925 -3.400278933 -4.747517439e-20)
(115.3926671 -4.179601443 5.532521383e-19)
(114.4164343 -4.481175568 5.508760619e-19)
(113.8990893 -3.748012311 -5.126225293e-19)
(109.8212148 -2.259790936 4.579919939e-19)
(110.2450157 -2.736956336 -7.298333134e-19)
(109.6555742 -2.935034819 4.417194132e-19)
(109.2573692 -2.479556498 1.076900085e-18)
(106.8264181 -1.896514668 7.518799882e-19)
(106.5118036 -1.607978943 8.512301986e-19)
(106.4194031 -2.039841629 1.954383913e-19)
(106.1527625 -1.764516248 8.755017991e-19)
(104.0014585 -1.248042338 2.172927911e-20)
(104.4187846 -1.614730048 1.039988141e-19)
(103.8304119 -1.789012087 6.161083318e-20)
(103.5591821 -1.430682401 1.583252575e-21)
(102.6121656 -0.9992621952 0)
(102.8673604 -1.264531936 -2.098079654e-20)
(102.4712695 -1.366703513 0)
(102.3024188 -1.114494182 0)
(101.024751 -0.8095420408 -2.926512221e-21)
(101.1275376 -1.162640359 -7.681077511e-21)
(101.6951082 -1.215397189 2.320590347e-21)
(101.8021078 -1.002226614 -3.797263535e-22)
(100.56299 -0.532195391 -2.117125765e-21)
(100.5690163 -0.8084139802 -1.663678547e-21)
(100.3066521 -0.2648852147 2.631526707e-22)
(100.2365195 -0.4763857667 -1.436728898e-21)
(100.0711059 -0.1575001182 2.490739349e-22)
(126.276612 -20.90929738 3.291620471e-18)
(126.4415916 -19.84559826 3.291819533e-18)
(125.1718544 -20.51403019 1.816233978e-18)
(125.3166263 -19.55196231 4.984214287e-18)
(118.6826043 -12.80778253 -5.025841243e-20)
(118.4855672 -11.46411926 -6.860446824e-19)
(117.1886149 -12.51675383 4.433367372e-21)
(117.1054525 -11.38041825 1.233602165e-18)
(112.8032433 -7.263744168 5.160946804e-19)
(113.0651825 -8.105811606 3.277941306e-19)
(112.0985643 -8.011704016 4.948005046e-19)
(111.9193028 -7.270861681 -6.88336982e-19)
(108.7601143 -4.7598621 -2.064732161e-19)
(108.9966696 -5.304228138 -1.696197747e-18)
(108.3511039 -5.283637742 -8.407274905e-19)
(108.1714286 -4.795969986 -1.629806428e-18)
(106.0660431 -3.611817842 -6.85825146e-21)
(105.8732557 -3.2634573 3.521596717e-19)
(105.6187359 -3.628314965 -5.768347197e-20)
(105.4643186 -3.312614596 3.635875007e-19)
(103.562284 -2.302812292 3.993502545e-20)
(103.8383453 -2.750129075 -5.477636199e-21)
(103.2072579 -2.772264768 -1.97893457e-20)
(103.0584759 -2.370227003 1.989746928e-20)
(102.2605549 -1.719456066 -1.416152808e-20)
(102.4258327 -2.043258959 6.162552878e-21)
(101.99281 -2.047664159 -6.16716047e-22)
(101.9062726 -1.757016003 -1.469682289e-20)
(100.6798857 -1.153717304 -6.470366011e-21)
(100.683278 -1.550009354 -1.030112479e-21)
(101.2550643 -1.723594759 -1.934021583e-21)
(101.4300777 -1.525992081 -5.605197949e-21)
(100.2481566 -0.7453426622 -1.204112788e-21)
(100.1838942 -1.059938622 5.381177042e-22)
(100.0049281 -0.3664946775 -1.457632383e-21)
(99.87921497 -0.6189592417 4.495876244e-22)
(99.72540738 -0.2040496523 2.490777563e-22)
(116.1158132 -23.70050902 -5.528160386e-19)
(116.5492483 -22.99189444 1.133222489e-18)
(115.3687199 -23.05936476 -5.527706493e-19)
(115.7943344 -22.43741883 -5.530844663e-19)
(112.7813582 -15.57114074 -1.482440066e-18)
(113.0604788 -14.55623145 6.166538116e-19)
(111.6843325 -14.89132338 -1.036025519e-18)
(111.9724304 -14.04781614 -1.444472517e-18)
(109.7073747 -9.658005641 -5.102263742e-21)
(109.6589661 -10.37679248 -1.945584154e-19)
(108.8641448 -10.01250885 4.166775871e-19)
(108.9343197 -9.3999437 6.148282246e-19)
(106.9035377 -6.536049455 -9.372708602e-20)
(106.9493836 -7.034261654 1.026141017e-18)
(106.3741572 -6.842309499 7.55627855e-19)
(106.35398 -6.405638298 -5.336920427e-22)
(104.7566175 -4.898146679 1.314477514e-18)
(104.6842397 -4.556503032 2.771317336e-19)
(104.3297133 -4.806301785 1.745760639e-20)
(104.2778217 -4.499924115 6.456275223e-19)
(102.780352 -3.183361724 -1.865100516e-20)
(102.9053271 -3.646408846 2.085879248e-20)
(102.2651639 -3.130594202 1.863557058e-20)
(101.6718489 -2.341863206 -3.622911497e-21)
(101.7388423 -2.686402195 4.711761267e-22)
(101.3046232 -2.297055756 -1.933784414e-20)
(100.202921 -1.44439594 4.210929052e-21)
(100.8836804 -1.975879955 -5.534438769e-24)
(99.82479756 -0.9285867714 1.958039472e-21)
(99.6070214 -0.4545631716 1.957817416e-21)
(142.1016131 6.894026073 -1.277785431e-18)
(140.3888595 7.987845367 0)
(141.5604422 9.733421754 2.556531678e-21)
(143.620931 8.003337414 -1.705124241e-18)
(143.470492 9.105212083 1.699871357e-18)
(126.852861 25.90677876 -3.345053519e-18)
(129.193126 27.23768908 -2.670186604e-18)
(129.9790901 24.63557567 -1.827225098e-18)
(137.9381525 -11.67594294 -1.166297909e-18)
(137.4435496 -10.29537547 2.579810911e-18)
(139.0466462 -9.830753353 -7.470273545e-21)
(139.329766 -11.8337147 -4.247681698e-18)
(139.7390194 -11.11408286 1.711981714e-18)
(142.3277338 4.127524503 -2.299804335e-18)
(143.8821315 5.021356449 2.489586724e-18)
(143.8419341 6.100480285 -5.897863146e-18)
(127.4267799 -21.2699671 -1.678424112e-18)
(127.5955246 -20.19044199 -1.688621946e-18)
(128.7984433 -20.49570006 -2.40311852e-18)
(128.392747 -21.80418781 -3.215907212e-18)
(128.8423356 -21.50056915 -1.082652057e-18)
(136.758673 -13.36517865 2.811353706e-18)
(138.1037718 -13.59950773 1.862190185e-18)
(138.5405933 -12.93117164 -2.428602322e-18)
(116.8994793 -24.30141121 0)
(117.33106 -23.6093333 1.685318652e-18)
(118.1630983 -24.17955092 2.481562878e-18)
(117.6974342 -24.95973407 0)
(127.1760196 -22.35647852 -1.455314682e-18)
(126.0665495 -21.93821261 -1.677721339e-18)
(116.4118226 -25.03187089 -1.121831017e-18)
(115.6520592 -24.35801044 0)
(93.1257387 24.07288218 -1.460310456e-19)
(91.79887494 26.17703369 -1.462554953e-19)
(124.7286101 24.88978537 -5.955287506e-19)
(123.6252426 26.58440743 -1.98351604e-18)
(125.604999 28.25775743 5.122319823e-19)
(108.0417579 21.97196835 1.007238586e-18)
(108.2393848 22.92354637 -4.022895643e-21)
(109.3873234 22.85829666 -1.708789096e-19)
(153.0164286 27.08994051 3.635880374e-18)
(151.9178774 27.63687706 2.321147779e-18)
(152.4638982 28.48852496 -4.869156978e-20)
(153.5895687 28.20938716 -2.508360372e-18)
(132.5727063 43.39009368 -3.114160659e-18)
(130.9773841 45.58022878 6.918959239e-19)
(133.4090236 47.61266111 -4.200752507e-18)
(135.0515943 44.74451768 2.7322578e-18)
(137.4809549 7.388491391 1.090927798e-18)
(138.4842854 8.924660014 2.352816268e-18)
(125.3436799 3.50131777 -1.618468406e-18)
(123.5853998 4.343894761 -2.710052147e-20)
(124.3813445 5.908118128 4.384461514e-20)
(126.6202157 5.327047514 1.033930032e-18)
(119.1863208 11.48271049 -6.069703202e-19)
(121.2955053 12.06140882 -6.566132399e-20)
(121.2189756 10.00779372 -1.970855315e-18)
(152.4245547 -7.211861541 1.087610191e-18)
(152.069628 -6.615836631 -4.382555567e-18)
(152.7391404 -6.44503277 2.587069291e-20)
(153.2170415 -7.011245556 1.385885836e-19)
(156.0609074 7.170893873 3.003051491e-18)
(155.4809226 6.699282429 -6.32998915e-19)
(156.6032108 6.561868997 -2.885505554e-18)
(155.9121925 6.124072323 -6.485572305e-19)
(135.3846736 -9.307708468 4.406355882e-18)
(136.8267471 -8.905137203 1.034295051e-18)
(125.0252652 -6.135147119 -2.634822043e-18)
(124.0865444 -4.719729226 -3.423218639e-18)
(125.6567754 -3.889906831 -1.774363813e-18)
(126.9574482 -5.426049019 -1.718143815e-18)
(127.4173378 2.576168432 -5.631542534e-19)
(125.8615417 1.000918177 -8.20205211e-19)
(137.4464922 -23.8520867 1.719221488e-18)
(137.6800125 -23.42962813 -1.963557109e-18)
(137.9678589 -23.57681537 -1.300039059e-20)
(137.8408183 -23.97013666 -2.360189519e-20)
(145.4946524 -17.43213607 -1.010218673e-19)
(144.9778992 -17.45573329 -2.121000386e-20)
(145.5941517 -17.99261509 4.213050799e-18)
(145.0167232 -17.9577276 5.27889831e-20)
(126.5376567 -18.83678405 -3.31850932e-18)
(127.7070733 -19.08444875 -1.688387686e-18)
(120.2383315 -12.95809658 -9.194648772e-21)
(120.0553941 -11.6110556 -6.432939611e-19)
(121.6693731 -11.60203512 -3.947095343e-18)
(121.9818977 -13.16795821 7.032952983e-19)
(126.0511484 -7.745663168 1.805190299e-18)
(124.1121125 -8.182068823 1.427682493e-18)
(123.7366366 -29.20307836 -1.464877162e-18)
(124.0864515 -28.72421912 -7.562786524e-19)
(124.5340741 -29.04982883 -1.469421078e-18)
(124.1576127 -29.55524369 1.452261889e-20)
(130.314723 -27.36967862 -8.885419448e-19)
(129.7882273 -27.10153079 -1.072492924e-18)
(129.464387 -27.6808647 1.038829064e-18)
(129.8384614 -28.05609134 1.748420986e-18)
(130.1278889 -27.9154512 -2.041668105e-18)
(104.5873943 -33.8348319 1.7993269e-19)
(106.5988608 -34.18657087 3.206811744e-20)
(107.562217 -34.21755129 7.037725797e-19)
(106.3642236 -34.14713825 -6.608692739e-19)
(111.7391926 -29.22811144 1.092499255e-18)
(112.2568599 -28.95238481 -3.124764966e-19)
(112.4408516 -29.3782414 0)
(112.0075791 -29.67921511 -1.171673828e-18)
(117.5816677 -29.80102909 1.632651114e-18)
(117.2162184 -29.41368969 -1.048731676e-18)
(117.1686318 -30.1933871 1.026131971e-18)
(116.8345077 -29.79467602 4.804049488e-19)
(155.5966995 7.74805284 3.615879593e-18)
(156.1743844 8.243375192 2.402091533e-18)
(156.7489372 7.636114897 3.683242224e-18)
(152.7826931 25.86458301 -8.952230976e-19)
(154.2286978 26.6729835 -4.198251788e-20)
(153.7786329 25.67701034 3.706242684e-18)
(137.627739 18.17990291 -2.174035935e-18)
(137.1452711 15.97876848 -2.485338955e-18)
(139.3574732 15.4479973 3.100178453e-20)
(140.5654564 17.27037552 -1.656377318e-18)
(139.9457262 18.31043867 -1.657081461e-18)
(150.8648617 26.08602527 -5.098753309e-18)
(153.1592023 24.89132116 8.107223009e-19)
(152.0025066 23.50674766 -1.871514787e-18)
(150.1692166 24.17359003 -5.107551657e-18)
(155.012381 7.278934925 1.378852296e-21)
(154.5212299 7.846265487 3.656869849e-18)
(155.1113212 8.32651978 -3.623843098e-18)
(145.4420529 -16.92795944 -4.225281375e-18)
(145.9628628 -16.88885332 1.638160415e-20)
(146.0781426 -17.45049888 2.237514538e-18)
(151.7427229 -7.370433041 -7.69947462e-21)
(152.8715245 -7.783315949 -2.253006802e-19)
(152.082134 -7.966784758 2.213252828e-18)
(140.7744035 -3.407030012 -5.670005657e-18)
(140.0299394 -3.94855528 -3.356177924e-18)
(141.4104365 -4.138216208 -2.337140597e-18)
(140.6070362 -4.528017366 2.204546614e-18)
(151.3992313 -6.796759705 -5.400918904e-18)
(151.067848 -7.537992211 1.100360372e-18)
(150.8641457 -6.990149208 -4.242810498e-18)
(144.9294399 -16.94403106 -4.130610624e-18)
(144.9309976 -16.44132144 -2.07096102e-18)
(145.3835488 -16.41183872 -2.105541287e-18)
(154.9111563 6.253093275 0)
(154.4412545 6.793448581 -3.629402815e-18)
(151.178286 -6.248415043 -2.133935123e-18)
(151.7113029 -6.042211917 2.375472254e-20)
(140.358634 -2.559357831 -4.243497313e-18)
(141.1298684 -2.275595622 -1.101165158e-18)
(141.701337 -2.942797815 -3.419875706e-18)
(130.630466 -26.77938557 2.229806392e-19)
(131.172256 -27.03448792 -9.021466292e-19)
(130.7044394 -27.74874186 5.444768876e-19)
(130.9967658 -27.59776104 -2.431060488e-18)
(137.0341786 -23.75148383 3.019533156e-18)
(137.3374641 -24.23933992 -5.117522544e-20)
(136.9841207 -24.12334006 1.698079779e-18)
(132.8818048 -17.53067792 1.424126625e-18)
(131.52436 -17.43329143 3.16457838e-18)
(131.5278031 -18.63752187 2.629074956e-19)
(132.6098421 -19.1036694 -1.685995186e-18)
(133.0978987 -18.64708869 -4.938325698e-19)
(137.1464432 -23.0583564 -1.84147597e-18)
(136.7069164 -23.98137942 7.018668109e-19)
(136.2072399 -23.61249062 1.616347054e-18)
(136.4531338 -22.88828079 2.134691789e-18)
(130.106495 -26.50810884 3.820315389e-20)
(130.3783587 -25.9072148 8.890295136e-19)
(130.942129 -26.17515559 8.894635836e-19)
(144.4726155 -17.46093407 -2.034155136e-18)
(144.4819279 -16.96412265 -2.068926372e-18)
(138.0052288 -23.18517438 -1.982458362e-18)
(137.3800977 -22.31548997 -2.934352847e-18)
(138.1911949 -22.64994386 -3.131932551e-18)
(138.0054849 -22.27851566 1.45817781e-18)
(132.8061285 -16.28034794 1.770000351e-19)
(134.2157853 -16.28835846 -2.797274165e-18)
(134.0282263 -17.95362229 1.44425041e-18)
(134.5135026 -17.44476777 -2.528879475e-18)
(117.9587796 -29.40952257 2.190335948e-18)
(118.3336397 -29.78925441 1.664608728e-18)
(117.9256772 -30.19375596 2.202263332e-18)
(123.298953 -28.8736289 -2.075286077e-18)
(123.3557011 -29.69841822 2.089276649e-18)
(122.9445836 -29.33802887 -6.817699488e-19)
(103.0768491 -33.59914096 -5.176229385e-19)
(104.9949765 -33.93734967 -6.623792327e-19)
(100.7704792 -33.12443462 5.906693546e-19)
(102.1949186 -33.39249874 5.538804919e-19)
(99.94257458 -32.77233317 -1.753469401e-19)
(111.2969092 -29.49090594 -7.684935175e-19)
(107.5382134 -34.19397792 9.094592903e-21)
(160.879994 52.34714617 2.562301454e-17)
(159.4886233 53.68155226 4.28877228e-18)
(159.4155729 55.49883461 9.36943251e-20)
(161.5211296 56.08996982 1.398328744e-17)
(133.2816824 67.66829161 2.198502278e-19)
(130.7477599 69.90269988 -4.624115528e-19)
(133.4856814 73.34972399 2.132252891e-18)
(136.2141471 70.04034112 -2.081850034e-18)
(120.9438906 -30.49923063 -2.415206172e-18)
(122.9973998 -30.75960529 -4.033833358e-18)
(120.9172427 -30.34624852 -1.124723101e-18)
(112.7873424 -28.57227489 1.177259194e-17)
(116.9515943 -22.33610942 1.65752345e-18)
(117.738635 -22.86437373 4.594582563e-19)
(113.976284 -16.16739026 -1.642849743e-18)
(114.2666292 -15.16589579 4.602624753e-19)
(115.5650547 -15.67629035 1.531578008e-19)
(115.268985 -16.89572932 -1.603742042e-18)
(120.3631781 -14.45659629 -2.481536204e-18)
(118.7197339 -14.08411754 5.286424147e-19)
(101.0341966 -32.24431954 -3.332597552e-19)
(103.8193413 -32.90178175 1.639321611e-18)
(100.803524 -32.08111209 -2.503164491e-18)
(92.82958363 -29.80384251 9.32702188e-18)
(113.8826103 -32.83929807 3.857343126e-22)
(114.4024024 -32.45609804 -1.448922306e-18)
(114.6692241 -32.91512563 -3.492936858e-19)
(113.9592558 -33.22746056 2.134963323e-19)
(114.2105982 -33.29646274 -8.565656111e-19)
(117.117264 -32.8525184 1.385901575e-18)
(116.9138497 -32.64015945 6.061892116e-19)
(116.8490667 -33.01785461 -9.309716665e-19)
(116.7524389 -32.84676206 1.352827124e-18)
(130.4153623 41.66967522 0)
(133.8911849 40.91977419 2.281814102e-18)
(131.7526151 39.76848855 0)
(151.3939538 28.60443936 -4.144174582e-18)