/*--------------------------------*- C++ -*----------------------------------*\
| =========                 |                                                 |
| \\      /  F ield         | OpenFOAM: The Open Source CFD Toolbox           |
|  \\    /   O peration     | Version:  v2012                                 |
|   \\  /    A nd           | Website:  www.openfoam.com                      |
|    \\/     M anipulation  |                                                 |
\*---------------------------------------------------------------------------*/
FoamFile
{
    version     2.0;
    format      ascii;
    class       surfaceScalarField;
    location    "2.19";
    object      meshPhi;
}
// * * * * * * * * * * * * * * * * * * * * * * * * * * * * * * * * * * * * * //

dimensions      [0 3 -1 0 0 0 0];
oriented        oriented;


internalField   nonuniform List<scalar> 
5999
(
0
0
0
0
0
0
0
0
0
0
0
0
0
0
0
0
0
0
0
0
0
0
0
0
0
0
0
0
0
0
0
0
0
0
0
0
0
0
0
0
0
0
0
0
0
0
0
0
0
0
0
0
0
0
0
0
0
0
0
0
0
0
0
0
0
0
0
0
0
0
0
2.294143216e-09
-3.414251468e-08
0
0
0
0
0
0
0
0
0
0
0
0
0
0
0
0
0
0
0
0
0
0
0
0
0
0
0
0
0
-1.084703318e-08
5.113772609e-07
9.862300054e-07
-3.261020687e-06
-3.8327346e-06
2.954071101e-05
8.910693156e-06
-4.187107463e-05
-5.076323258e-06
7.724708239e-05
8.949523577e-06
-8.612776873e-05
0
0
0
0
0
0
0
0
0
0
0
0
0
0
0
0
0
0
0
0
0
0
0
0
0
-5.24734019e-07
9.895093947e-07
2.667948395e-06
-7.206770829e-06
-1.887287699e-05
6.512966058e-05
2.945055465e-05
-9.362713778e-05
-3.53226689e-05
0.0001875731117
4.696708149e-05
-0.0002173803626
-2.585767318e-05
0.0002884760037
3.268825763e-05
-0.0003039993551
0
0
0
0
0
0
0
0
0
0
0
0
0
0
0
0
0
0
0
0
0
0
0
1.729392643e-07
-3.305303274e-07
-2.163846021e-05
4.213168752e-05
3.08894019e-05
-7.335765354e-05
-7.033478616e-05
0.0001993269259
8.550642407e-05
-0.0002457875414
-8.494786143e-05
0.0003754417771
9.708160746e-05
-0.0004112438916
-5.327461965e-05
0.000487662051
5.922916093e-05
-0.0005025497658
0
0
0
0
0
0
0
0
0
0
0
0
0
0
0
0
0
0
0
0
0
-5.358199977e-06
4.288775579e-06
8.727014644e-06
-1.878978698e-05
-6.802352382e-05
0.0001170650063
8.023262208e-05
-0.0001634679641
-0.0001271059251
0.0003210876082
0.0001421539654
-0.0003725513137
-0.0001256526925
0.0004894813457
0.000131154001
-0.0005155249747
-7.076223524e-05
0.0005598483917
7.180410117e-05
-0.0005653686374
0
0
0
0
0
0
0
0
0
0
0
0
0
0
0
0
0
0
1.518617599e-07
-2.721005334e-09
-9.970909916e-08
-2.002201944e-05
1.903978413e-05
2.42221262e-05
-4.321616271e-05
-0.000111513549
0.0001620716446
0.0001187972971
-0.0002122210566
-0.0001746616821
0.0003639969002
0.0001810645517
-0.0004073942677
-0.0001403197741
0.0004986293843
0.0001442157688
-0.0005149480401
-6.619675734e-05
0.0005283080331
2.098235629e-05
3.545449902e-05
-0.0002586873168
-0.0002598608143
0
0
0
0
0
0
0
0
0
0
0
0
0
0
0
0
-6.385368736e-07
0
1.375632477e-06
-8.326724931e-07
-1.2206374e-06
-3.297328088e-05
2.723982523e-05
3.403787264e-05
-5.338716057e-05
-0.00013735054
0.0001699247702
0.000139700703
-0.0002161435738
-0.0001934259284
0.0003493173202
0.0001953338019
-0.000385905992
-0.0001453074929
0.0004518174562
0.0001454384694
-0.0004560331365
-3.887484548e-05
0.0002330910617
3.855577888e-05
-0.0002327719951
0
0
0
0
0
0
0
0
0
0
0
0
0
0
0
0
-1.794053014e-06
0
2.267845788e-06
-1.932645395e-06
-2.082238758e-06
-3.947441603e-05
2.900709589e-05
4.062274926e-05
-5.352133046e-05
-0.0001476973726
0.0001578471918
0.0001493091924
-0.000197911807
-0.0001991971159
0.0003105332377
0.0001999266392
-0.0003402829513
-0.0001452030226
0.0003893401515
0.0001450999436
-0.000390787057
-3.978719486e-05
0.0001974097158
3.978100108e-05
-0.000197403522
0
0
0
0
0
0
0
0
0
0
0
0
0
0
0
0
-2.725504057e-06
0
3.354060387e-06
-2.426042605e-06
-2.566559468e-06
-4.347999001e-05
2.725532062e-05
4.463289053e-05
-4.874808104e-05
-0.0001532203526
0.0001380771934
0.0001547672928
-0.0001718660216
-0.0002016302854
0.0002654435913
0.0002022858637
-0.0002896647971
-0.00014480949
0.0003277469112
0.0001446925374
-0.0003283400769
-3.973236923e-05
0.0001659392203
3.96683378e-05
-8.338195286e-05
-8.249323604e-05
0
0
0
0
0
0
0
0
0
0
0
0
0
0
0
0
-4.040503803e-06
0
4.827910664e-06
-2.900050212e-06
-2.983490555e-06
-4.823366824e-05
2.499427131e-05
4.949960991e-05
-4.329339477e-05
-0.0001594790727
0.0001174432783
0.0001610939808
-0.0001450068787
-0.0002042240179
0.0002200366994
0.0002048711628
-0.0002389697109
-0.0001444446021
0.0002669580968
0.0001443771761
-0.000267090336
-3.96068223e-05
0.0001353770265
3.957874932e-05
-6.814755149e-05
-6.720140198e-05
0
0
0
0
0
0
0
0
0
-5.775602751e-06
0
-3.180203372e-06
-3.011577233e-06
-5.362743917e-05
2.181895292e-05
5.52383971e-05
-3.662582497e-05
-0.0001662242879
9.504454031e-05
0.0001681693316
-0.0001163355863
-0.0002068622899
0.0001729978495
0.0002075852095
-0.0001868369217
-0.0001442537116
0.000205605239
0.0001442262743
-0.0002055843624
-3.944127253e-05
0.0001046683582
3.942496178e-05
-5.278595461e-05
-5.186609287e-05
0.0002015761672
-0.0002015803305
-3.978303154e-05
0.0001697822848
-3.978293517e-05
-8.539242196e-05
-8.433929689e-05
0.0001392024579
-3.964013496e-05
-7.008078897e-05
-6.908835628e-05
0.00010847545
-3.947771747e-05
-5.470345704e-05
-5.373554804e-05
0.0002370107235
-0.0002369597818
-3.892578712e-05
0.0003429292485
-0.0003437212619
-0.0001449103399
4.403592217e-05
-4.405385916e-05
0.0001698002218
-4.409563684e-05
0.0001973968996
4.410845301e-05
0.0002822545631
-0.0002824710096
-0.0001445216799
4.392684203e-05
-4.394505026e-05
0.0001392206661
0.0001659588333
4.40163092e-05
3.96500597e-05
0.0001546250425
-3.967096145e-05
-7.776908593e-05
-7.683505481e-05
1.291090762e-05
-3.831501844e-05
-1.287118299e-05
7.684277332e-05
-3.85674795e-05
-1.289660934e-05
-4.173991811e-05
8.333690515e-05
1.285716999e-05
-4.155754768e-05
0.0002209321162
-0.0002209237457
-0.0001442929114
4.379256968e-05
-4.381219083e-05
0.0001084950712
0.0001353910868
4.391278162e-05
3.956782879e-05
0.0001238671153
-3.956051224e-05
-6.242551617e-05
-6.144891564e-05
6.331912922e-06
-3.055708652e-05
-6.355336904e-06
3.058051051e-05
-1.27713323e-05
-3.416451772e-05
6.812964966e-05
1.276820185e-05
-3.396200149e-05
0.0001046859669
4.377496105e-05
2.023155566e-05
4.612560648e-05
-4.612579772e-05
-2.023136444e-05
6.73488493e-06
-2.307932904e-05
-6.661066397e-06
2.300551051e-05
-6.561084612e-06
-2.637961599e-05
2.643027874e-05
6.510421861e-06
-1.182906265e-05
0.0001074136027
1.175116762e-05
-5.372846436e-05
-5.360724328e-05
1.195404155e-05
0.0001002297043
-1.191769107e-05
-5.033857413e-05
-4.992748069e-05
0.0001178877129
-9.611064416e-06
9.406350349e-06
-0.0001176829988
0.0001086883846
-0.0001087746862
-1.174276104e-05
-4.195738044e-05
-1.294246794e-05
8.429353535e-05
-4.229029632e-05
-9.115315158e-05
-1.288829781e-05
9.116478536e-05
1.287666403e-05
-3.977997686e-05
0.0001815092015
3.976339976e-05
-0.0001814926244
-1.181883267e-05
1.174751522e-05
-4.566560268e-05
-4.541623144e-05
6.090010261e-06
-4.195442001e-05
-6.092970689e-06
9.912305874e-05
1.190634307e-05
-4.966220561e-05
-4.941315465e-05
9.220220008e-05
-1.181546473e-05
-4.624877434e-05
-4.595679368e-05
-3.438849637e-05
-1.281697901e-05
6.904393724e-05
-3.460979417e-05
-3.812250275e-05
7.593365091e-05
1.295369268e-05
-3.785393321e-05
0.0001508374541
3.967410949e-05
-7.592592303e-05
-7.49355809e-05
-6.182628486e-06
6.198487627e-06
-3.81383619e-05
5.953624966e-06
-3.436550511e-05
-5.976616223e-06
6.07372082e-06
-4.172362867e-05
-3.837313882e-05
-6.124508106e-06
-2.663132069e-05
-6.60007622e-06
2.667031229e-05
-3.031143495e-05
3.033132649e-05
6.312021379e-06
0.0001199423273
3.951284513e-05
-6.044917562e-05
-5.943816806e-05
-6.135733377e-06
6.084539867e-06
-3.026024144e-05
6.471596819e-06
-2.656081588e-05
-6.542101622e-06
5.945564005e-06
-3.415645676e-05
-3.051727531e-05
-6.17554459e-06
-2.266233777e-05
2.268722451e-05
6.709998184e-06
-4.514933098e-05
-6.613992073e-06
6.554451049e-06
-2.260279674e-05
6.389775252e-06
-2.629779442e-05
-2.313928547e-05
-6.55403564e-06
0.0004049016205
-0.0004067243006
-0.0001452736126
-4.408319461e-05
0.000201563725
-4.327083038e-05
0.0002327436937
4.361819835e-05
3.95516347e-05
0.0002184758933
-0.0002184672509
-3.956027707e-05
1.285474862e-05
-1.283683879e-05
0.0001086704747
-1.218102101e-05
0.0001181975004
1.187123347e-05
0.0001854564245
-0.0001854641084
-3.977229297e-05
-1.289578262e-05
9.220968489e-05
-1.292787042e-05
9.912270576e-05
1.292822341e-05
-1.291896038e-05
0.0001002207943
0.0001074178335
1.285051783e-05
0.0002132785669
3.968655547e-05
-0.0002134134877
-3.369519943e-06
5.152858173e-05
3.467217466e-06
-5.162627925e-05
6.105432338e-05
-1.518426241e-06
2.35456505e-06
-6.189046219e-05
5.712241369e-05
3.163791237e-06
-5.716977685e-05
-3.116428076e-06
0.0002586510469
-1.618785256e-05
4.04307721e-06
8.3755043e-06
-0.0001269872631
-0.0001278945127
0.000117886444
-0.0001202727037
-7.224804724e-06
-2.451348418e-05
-6.131589536e-06
2.455934687e-05
6.085726851e-06
-1.590441745e-05
4.893701789e-05
1.589298162e-05
-4.892558207e-05
1.588323363e-05
4.610506773e-05
-4.610510531e-05
-1.588319604e-05
5.567730114e-05
-2.890336014e-06
1.790470281e-05
-7.069166793e-05
5.153747901e-05
-3.411771711e-06
-5.149522724e-05
1.177449572e-05
0.0001043719268
-1.182199224e-05
-5.220791606e-05
-5.211651425e-05
4.061337343e-06
-4.198514917e-06
5.167465658e-05
-4.076735582e-06
5.496959073e-05
4.784445986e-06
4.538469081e-06
-7.800861e-06
5.018059576e-05
-4.691820384e-05
5.163705539e-05
3.952863676e-06
0.0001034887268
1.188236826e-05
-5.197921573e-05
-5.161738362e-05
1.14645939e-05
0.0001147943789
-0.0001148871962
-1.137177663e-05
3.907641621e-06
-3.967504548e-06
5.718227662e-05
-5.422869051e-07
5.920652238e-05
2.39008791e-06
-5.513599793e-05
-3.817672257e-06
5.487693461e-05
-5.684341814e-05
5.681858778e-05
3.93247198e-06
0.0001128816591
1.155017035e-05
-0.0001129672355
3.533278416e-06
-5.721290531e-05
-5.500517785e-05
-3.021156098e-06
6.113411615e-06
4.401472156e-05
-4.404099952e-05
-6.087133662e-06
-3.719970088e-06
4.547989295e-05
3.713729365e-06
-4.547365223e-05
4.379763985e-05
6.118545264e-06
-4.380277349e-05
1.189486302e-05
9.624433395e-05
-1.186606633e-05
-4.825416858e-05
-4.801896205e-05
3.809069933e-06
-3.80152975e-06
4.779871918e-05
-4.780625936e-05
4.94962694e-05
3.973631923e-06
-4.893143224e-05
-3.741376018e-06
4.575350587e-05
-4.573209994e-05
4.751851387e-05
3.796002818e-06
-4.750544676e-05
9.515669173e-05
1.187155137e-05
-4.772559047e-05
-4.740778961e-05
6.111087829e-06
3.632125848e-05
-3.630678473e-05
-6.125561584e-06
3.611678477e-05
6.089337584e-06
-3.609503453e-05
6.011893321e-06
4.018173602e-05
-4.016734423e-05
-6.026285108e-06
3.99479961e-05
6.006818139e-06
-3.994292091e-05
5.856335111e-06
2.872234978e-05
-2.873364748e-05
-5.845037409e-06
2.855105311e-05
5.945402855e-06
-2.864012086e-05
6.388304869e-06
3.257316277e-05
-3.2630756e-05
-6.330711634e-06
3.22927897e-05
6.396992383e-06
-3.230147722e-05
4.513404056e-05
-4.51271083e-05
5.816654052e-06
2.475225335e-05
-2.467069147e-05
-5.898215928e-06
5.739630831e-06
-2.443646096e-05
-2.241741149e-07
0.0001265857674
1.122933931e-06
6.227564732e-05
-6.231976869e-05
-1.474304874e-06
-6.467132917e-06
3.22875271e-05
6.472395512e-06
-1.601702675e-05
6.433647342e-05
1.600756918e-05
-6.432701586e-05
1.599266704e-05
6.144436514e-05
-6.143936722e-05
-1.599766496e-05
-1.603105157e-05
6.814111537e-05
1.602761489e-05
-6.813767869e-05
6.52931024e-05
-6.52894798e-05
-1.602064935e-05
-6.429786262e-06
3.253581611e-05
-1.594861247e-05
5.277535529e-05
1.59357298e-05
-5.276247262e-05
4.994359095e-05
-4.99341933e-05
-1.59138151e-05
-6.181263595e-06
2.480192741e-05
-1.287001351e-05
-3.589025876e-05
7.202070773e-05
1.285634932e-05
-1.60523452e-05
7.203871998e-05
1.604909968e-05
-7.203547446e-05
6.907398643e-05
-6.906417815e-05
-1.604085983e-05
4.993587957e-06
-3.419249782e-05
-5.060113189e-06
3.425902305e-05
-3.494355475e-05
-5.277159007e-06
3.501979124e-05
5.200922516e-06
-6.034066642e-06
3.513702267e-05
6.011424602e-06
-3.511438063e-05
-6.197159121e-06
2.849636445e-05
6.251847792e-06
-1.59719318e-05
5.664466799e-05
1.597003245e-05
-5.664276864e-05
5.371487249e-05
-5.370821852e-05
-1.595526643e-05
6.044034195e-05
1.59875757e-05
-6.043525062e-05
5.76032888e-05
-5.760340724e-05
-1.597181335e-05
-6.174864756e-06
2.870005541e-05
5.956838173e-06
2.949833543e-05
-2.945705751e-05
-5.998116098e-06
5.105363123e-06
-2.923321403e-05
-5.17559334e-06
2.930344424e-05
-5.342759395e-06
-3.007336017e-05
3.01256878e-05
5.290431771e-06
4.78367953e-06
-4.809494447e-06
2.639512652e-05
-2.63693116e-05
-7.321616697e-06
2.769285404e-05
5.258328493e-06
-2.562956583e-05
-6.522818335e-06
2.754676567e-05
6.598284033e-06
-2.762223137e-05
5.997035771e-06
3.352975082e-05
-3.357521824e-05
-5.951568349e-06
4.769010825e-06
-3.375814329e-05
-4.763516671e-06
3.375264914e-05
-3.398917772e-05
3.407066823e-05
4.912097443e-06
-3.031867168e-05
-5.401163218e-06
3.037707551e-05
-3.10373106e-05
-5.573485899e-06
3.109766679e-05
5.513129711e-06
-6.305957713e-06
3.128438454e-05
6.260751167e-06
-3.1239178e-05
6.147652925e-06
2.569635128e-05
-2.561723657e-05
-6.226767642e-06
4.678207643e-06
-4.69686437e-06
2.544077851e-05
-2.542212178e-05
2.611993123e-05
4.735195981e-06
-2.607144768e-05
-3.717843765e-06
2.442620762e-05
6.679615993e-07
-2.137632545e-05
-5.719841802e-06
2.393937669e-05
5.965615958e-06
-2.418515085e-05
2.260149169e-06
5.09105012e-05
-3.21150024e-06
-4.995915013e-05
5.170937174e-05
-3.001058267e-06
-4.64481643e-05
3.316878836e-06
5.975256819e-05
-5.991313888e-05
-3.156308147e-06
5.968375247e-05
3.03533172e-06
-5.940220536e-05
3.708052939e-06
5.256536033e-05
-4.387535621e-06
-5.188587765e-05
5.21632325e-05
3.62141892e-06
-5.207659849e-05
-4.728263804e-06
5.238201413e-05
4.509482177e-06
-5.317084517e-06
5.280347038e-05
5.232107904e-06
-5.271849376e-05
4.963000748e-06
5.206537015e-05
-5.197341669e-05
-5.054954207e-06
-4.853769252e-06
5.386681154e-05
5.150005136e-06
-5.416304742e-05
5.316117401e-05
-5.312325055e-05
-5.355007978e-06
-5.009917642e-06
5.284701417e-05
-3.380441981e-06
5.175381676e-05
3.335996958e-06
-4.928433447e-06
5.099519617e-05
5.109794202e-06
-5.117655692e-05
5.605438377e-06
5.001933972e-05
-5.010727823e-05
-5.517499859e-06
5.195252737e-05
4.905992498e-06
-5.189551912e-05
5.102737918e-05
-5.110328397e-05
-4.852528662e-06
-3.612827131e-06
5.114288635e-05
-5.473599913e-05
-4.637452928e-06
5.510757968e-05
4.265872377e-06
-4.978768656e-06
5.534660518e-05
4.979919822e-06
-5.534775635e-05
5.4290283e-05
-5.430518884e-05
-4.838863406e-06
4.619101169e-06
5.526045654e-05
-5.49033073e-05
-4.976250412e-06
4.004213264e-06
-5.412111123e-05
-3.480256558e-06
4.506574553e-05
2.762642594e-06
-4.434813157e-05
-4.654981113e-06
4.508944301e-05
4.749529858e-06
-4.518399175e-05
5.618274424e-06
4.437288607e-05
-4.463087982e-05
-5.360280678e-06
-4.769542107e-06
4.563161633e-05
4.711443364e-06
-4.557351758e-05
4.512872951e-05
-4.514123699e-05
-4.642473636e-06
-3.584056982e-06
4.494789681e-05
-4.484409639e-05
-5.588671404e-06
4.273182738e-05
5.540179774e-06
-4.268333575e-05
5.37825125e-06
4.185215683e-05
-4.180253634e-05
-5.427871742e-06
4.398918083e-05
5.708055549e-06
-4.407896196e-05
4.299412022e-05
-4.293761554e-05
-5.645176083e-06
-3.857436994e-06
4.839939621e-05
3.845589311e-06
-4.838754853e-05
-5.413270609e-06
4.85902483e-05
5.354115279e-06
-4.853109297e-05
5.17334896e-06
4.797726133e-05
-4.79217497e-05
-5.228860593e-06
4.964875743e-05
5.603793267e-06
-4.964711232e-05
4.891401072e-05
-4.88458334e-05
-5.481447927e-06
-3.882149461e-06
4.867136327e-05
-4.86466508e-05
-3.713430137e-06
4.652898047e-05
3.713189378e-06
-4.652873972e-05
-4.95894036e-06
4.668895078e-05
4.905733468e-06
-4.663574389e-05
4.590231029e-05
-4.586050284e-05
-4.811349555e-06
4.767575433e-05
5.110302747e-06
-4.761270812e-05
4.681619287e-05
-4.677142749e-05
-5.003705741e-06
-3.764244818e-06
4.665652739e-05
-4.660571271e-05
-5.399164422e-06
3.686088631e-05
5.345788268e-06
-3.680751016e-05
5.182722699e-06
3.613038682e-05
-3.607797185e-05
-5.235137673e-06
-5.664925517e-06
3.835657852e-05
5.673441972e-06
-3.836509498e-05
3.714992825e-05
-3.70819417e-05
-5.467150975e-06
-4.965750518e-06
4.916373647e-06
-3.489417788e-05
4.740819745e-06
-3.413058077e-05
-4.802736789e-06
3.591718947e-05
5.123715537e-06
-3.585818231e-05
3.520906913e-05
-3.515970934e-05
-5.015110312e-06
-5.112404916e-06
4.076788837e-05
5.033526591e-06
-4.068901004e-05
4.826107563e-06
4.004882132e-05
-3.997676366e-05
-4.898165217e-06
4.160912821e-05
5.316857153e-06
-4.154773411e-05
4.10007339e-05
-4.092969944e-05
-5.183439369e-06
-4.522236604e-06
3.928493071e-05
4.528408969e-06
-3.929110308e-05
3.891567208e-05
-3.923254311e-05
-5.348054495e-06
3.982033353e-05
4.753372349e-06
-3.974759832e-05
3.928699714e-05
-3.921520452e-05
-4.594029223e-06
-2.848063072e-05
4.686205275e-06
-4.85062445e-06
2.864504989e-05
-2.903400012e-05
2.910749997e-05
5.031863274e-06
2.931484027e-05
5.905764967e-06
-2.926376707e-05
-4.396003629e-06
4.386730705e-06
-2.90247272e-05
4.191954596e-06
-4.306233863e-06
-2.836635145e-05
-4.48257342e-06
4.473382647e-06
-3.00641694e-05
-4.449237723e-06
-2.917997993e-05
2.851128847e-05
3.522535404e-06
-2.784186927e-05
2.786334204e-05
-2.804193829e-05
-6.344222089e-06
-1.310017558e-05
2.861944459e-05
-2.284088571e-05
2.871280448e-05
4.48468926e-06
-3.280834169e-05
5.903742637e-06
-5.894664774e-06
3.279926383e-05
-3.414266513e-05
3.385339987e-05
5.058276086e-06
3.332691431e-05
6.086853244e-06
-3.341673178e-05
-4.232193899e-06
4.213989715e-06
-3.412446095e-05
5.076876604e-06
-7.390059246e-06
-3.049515905e-05
4.671698031e-06
-3.392005601e-05
-3.35612254e-05
-4.429111794e-06
-4.5435123e-06
4.527464231e-06
-3.102126254e-05
-4.497379733e-06
-3.030386537e-05
3.217285892e-05
4.656520104e-06
-3.175250242e-05
3.127887707e-05
-4.561421953e-06
-3.126096742e-05
3.152069593e-05
-3.147732915e-05
-6.34932449e-06
-5.636936458e-06
3.134232763e-05
3.2274645e-05
5.801956557e-06
4.588906135e-06
-4.608823242e-06
2.450242021e-05
-2.44825031e-05
2.520734647e-05
4.655709357e-06
-2.518484819e-05
2.545678404e-05
6.063947695e-06
-2.537307881e-05
2.396396984e-05
-2.40304406e-05
-5.653371037e-06
-4.375633557e-06
2.377569907e-05
-2.311790927e-05
2.425567478e-05
4.573883394e-06
-2.424065204e-05
-1.284767569e-05
-3.97059658e-05
7.966017755e-05
1.284146004e-05
-1.607529115e-05
7.966969882e-05
1.607213679e-05
-7.966654445e-05
1.606679969e-05
7.683093219e-05
-7.682915348e-05
-1.60685784e-05
8.336065946e-05
-1.609268407e-05
1.609090779e-05
-8.335888318e-05
8.062860547e-05
-8.061938368e-05
-1.608451294e-05
-4.042178517e-05
-1.285598371e-05
8.061182921e-05
7.592548881e-05
1.606502154e-05
-7.592371066e-05
7.294059558e-05
-7.293588099e-05
-1.605705979e-05
-3.65531356e-05
-1.290991012e-05
7.291429069e-05
6.200014779e-06
3.730122764e-05
-3.730279367e-05
-6.198448749e-06
5.837435911e-06
-5.909052524e-06
3.722154487e-05
-5.925312824e-06
3.827698287e-05
6.004908477e-06
-5.669342831e-06
3.865970209e-05
-4.956365325e-06
3.919176674e-05
5.049529297e-06
-6.005792536e-06
3.901770981e-05
6.033948596e-06
-3.904586587e-05
5.120426628e-05
3.461950461e-06
-5.119899928e-05
7.932979602e-06
5.470809697e-05
-4.473637376e-05
3.990140145e-06
-7.468180808e-05
5.155576538e-05
-3.542817394e-06
-5.14247197e-05
5.171497784e-05
-4.357727373e-06
4.552319195e-06
-4.729959273e-06
5.189261791e-05
4.387856821e-06
5.183911895e-05
5.124596552e-05
-1.737397469e-05
-4.167285183e-05
5.174509896e-06
-4.855735216e-06
5.092719084e-05
5.164054004e-06
5.019105166e-05
4.247020528e-06
5.177789168e-05
-5.13268874e-05
4.120832403e-06
5.145307552e-05
3.830242563e-06
-4.874111048e-06
5.673289948e-05
4.975023226e-06
-5.683381166e-05
5.580295062e-05
-5.57863732e-05
-4.995346075e-06
-4.864559515e-06
5.548756313e-05
-5.796100459e-05
4.561720907e-06
5.693256209e-05
-2.469025202e-06
1.818521651e-05
-7.367719589e-05
-5.677260416e-05
-2.909326357e-06
-1.790676967e-06
-4.922436074e-05
5.399632459e-05
-2.961954354e-06
-5.28250472e-05
-3.509306903e-06
5.448447539e-05
5.793052314e-05
1.913620455e-06
-5.98441436e-05
1.612223807e-05
-3.735420418e-06
4.554370549e-05
7.583106428e-06
4.493517768e-05
-3.639604604e-05
4.17622652e-06
-4.222894752e-06
4.552656119e-05
-4.520944844e-05
4.122904702e-06
4.526277026e-05
3.679574467e-06
-4.517529354e-05
4.098497227e-06
-4.102352617e-06
4.208861627e-05
-4.208476088e-05
4.105530779e-06
4.177439978e-05
-4.178143333e-05
4.674208296e-06
4.410616246e-05
-4.119726433e-05
4.200653057e-06
4.351558247e-05
-4.304202723e-05
4.800013962e-05
-3.785073414e-06
-4.801659596e-05
4.622862305e-06
-4.674834684e-06
4.8052112e-05
4.567961219e-06
4.785362026e-05
5.057031292e-06
4.960329211e-05
-4.914731933e-05
4.939833035e-06
4.926451759e-05
3.87041072e-06
-4.904409813e-05
4.606984493e-05
-3.752505041e-06
-4.605871591e-05
4.266756582e-06
-4.309646466e-06
4.611273482e-05
4.57973677e-05
4.53148495e-06
4.755499014e-05
-4.720234678e-05
4.487077618e-06
4.724675411e-05
3.792978274e-06
-4.719932223e-05
5.555733112e-06
-5.628472044e-06
3.620312576e-05
3.693245555e-05
5.76586667e-06
3.706499052e-05
6.160972031e-06
-3.702594777e-05
3.539302456e-05
-3.537349987e-05
-6.053591333e-06
-5.347079775e-06
3.52789899e-05
3.598310541e-05
5.489817177e-06
5.117759744e-06
-5.183755314e-06
4.011481689e-05
-5.367217436e-06
4.082641971e-05
5.308686089e-06
-6.04784708e-06
4.090293193e-05
6.039706951e-06
-4.08947918e-05
3.975729842e-06
-3.990074948e-06
4.015787311e-05
-4.0143528e-05
3.953054184e-06
3.992500375e-05
-3.990232809e-05
4.031855031e-06
4.148900019e-05
-4.141532444e-05
4.039665264e-06
4.131597526e-05
-4.132378549e-05
1.278725835e-06
5.093041196e-05
-5.220913779e-05
3.944376164e-06
3.967882371e-05
-3.967014569e-05
3.945077551e-05
3.91694624e-06
-3.942334559e-05
3.924297426e-05
-3.925564864e-05
-5.993118162e-06
-4.959767393e-06
3.929039921e-05
3.987806469e-05
5.060028589e-06
2.955407715e-05
-2.949672481e-05
-5.232945677e-06
5.46800669e-06
2.963399682e-05
-5.547926363e-06
5.38451558e-06
2.938693535e-05
2.668503133e-05
-4.875325731e-06
-2.661920005e-05
5.937165016e-06
-6.043543556e-06
2.679140987e-05
5.857990967e-06
2.647430057e-05
6.158919769e-06
-6.164206413e-06
2.769814068e-05
-2.706534106e-05
2.718071727e-05
-2.66823383e-05
5.035231861e-06
-5.403365326e-06
2.247568222e-05
-2.210754875e-05
2.209067587e-05
-2.202138608e-05
2.567503007e-05
-4.715537276e-06
-2.565635716e-05
5.622220087e-06
-5.702021532e-06
2.575483151e-05
5.547918517e-06
2.551508007e-05
5.778422204e-06
2.619949999e-05
-2.590094396e-05
2.597734464e-05
-2.588128526e-05
7.212744166e-06
-1.223042024e-05
2.406263372e-05
-1.904495765e-05
2.312442124e-05
-2.13150424e-05
4.609959997e-06
-4.647115688e-06
2.446336331e-05
-3.229298326e-05
2.467252302e-05
-3.162502167e-05
5.080510389e-05
-5.055465367e-05
6.610402931e-05
-6.910508758e-05
1.696899107e-06
6.059366151e-05
-1.306576465e-06
1.227985253e-06
5.952325961e-05
7.422564182e-06
-1.787969192e-05
5.840738382e-05
2.32833206e-06
5.659261714e-05
-5.149838502e-05
9.867601814e-07
5.894636232e-05
-7.673947074e-05
5.984653901e-05
5.337747389e-05
-4.983202991e-05
5.179974019e-05
-5.172113867e-05
4.274012361e-06
-3.971870029e-06
5.145167443e-05
-5.206605158e-05
5.148432872e-05
5.102251933e-05
4.000886889e-06
5.114246484e-05
5.117190321e-05
-7.988191151e-06
4.123186581e-06
-5.103830273e-05
5.664858101e-05
-4.645155566e-05
5.623405151e-05
-4.782180205e-06
-4.966209189e-05
-7.84593761e-05
-5.396899209e-05
5.446389845e-05
-3.206805012e-06
-5.372414143e-05
-5.320472966e-05
3.743003694e-06
-3.894473697e-06
4.521721553e-05
-4.550763057e-05
4.551521384e-05
-4.083136752e-05
4.499568067e-05
-4.490016319e-05
4.02333176e-06
4.509525361e-05
4.507675488e-05
4.108057559e-06
-4.115644678e-06
4.262740656e-05
-4.261981944e-05
4.237717214e-05
-4.23714672e-05
4.138087995e-06
4.314603214e-05
-4.308346708e-05
4.288211982e-05
-4.28596765e-05
4.726117923e-06
-4.776010435e-06
4.844928873e-05
-4.815827039e-05
4.820955363e-05
-4.809775449e-05
4.8954764e-05
-4.896650274e-05
4.866459756e-06
4.902813728e-05
4.876181259e-05
4.337144165e-06
-4.377110452e-06
4.656894676e-05
-4.63652597e-05
4.63927574e-05
-4.640457537e-05
4.689256025e-05
-4.68638268e-05
4.433726462e-06
4.694591141e-05
4.67131434e-05
-3.654335054e-05
5.301361141e-06
3.658777767e-05
-4.332081196e-06
4.318312747e-06
-3.652958209e-05
-4.354980882e-06
-3.678461047e-05
-4.295084213e-06
4.273058645e-06
-3.605594628e-05
3.628490005e-05
-3.626167152e-05
3.635112352e-05
-3.774377252e-05
5.557838879e-06
3.785937562e-05
-4.893036553e-06
4.425443714e-06
-3.727617968e-05
-7.504959412e-06
-3.575317212e-05
-4.385192005e-06
-3.705173058e-05
3.73944783e-05
-3.735422659e-05
3.748516621e-05
-3.4628151e-05
4.860298282e-06
3.468422637e-05
-4.2213573e-06
4.21466539e-06
-3.462145909e-05
-4.228650659e-06
-3.488688452e-05
-4.187614989e-06
4.156729312e-06
-3.409969509e-05
3.436049774e-05
-3.433344734e-05
3.441805923e-05
-3.564599936e-05
5.071460615e-06
3.569825428e-05
-4.258062604e-06
4.254998491e-06
-3.564293525e-05
-3.584318627e-05
-4.248712074e-06
-3.513964793e-05
3.541759892e-05
-3.54113125e-05
3.547394922e-05
3.996517843e-06
4.064611424e-05
-4.018689248e-06
-4.062394283e-05
4.039850796e-05
-4.039206506e-05
-4.045636593e-05
4.962250682e-06
4.052764183e-05
-4.733093512e-06
4.675235544e-06
-4.775989319e-06
-4.616929822e-06
4.565169909e-06
4.021617883e-05
4.02802643e-05
4.025977615e-06
4.111353803e-05
-4.109985038e-05
4.087148534e-05
-4.086419697e-05
2.990127576e-06
3.909297145e-05
-3.747820761e-06
-3.833527826e-05
3.964658432e-05
-3.537773091e-05
-3.967157454e-05
4.825667505e-06
3.9374316e-05
-3.98668641e-06
3.961696188e-06
-4.18481804e-06
-1.505739458e-05
-3.168010794e-05
3.983471356e-05
3.931232658e-05
-3.951154503e-05
4.678642183e-06
3.958627519e-05
-4.496395297e-06
4.435625783e-06
-4.333460893e-06
-3.906656167e-05
3.931984366e-05
-3.921767877e-05
3.940445662e-05
3.865749292e-06
-3.916648182e-05
-3.894863314e-05
2.874102953e-05
-4.951328651e-06
-2.864032533e-05
5.119685277e-06
-5.210088773e-06
2.883143303e-05
5.041425751e-06
2.872330942e-05
5.29846166e-06
2.919355389e-05
-2.892215638e-05
2.901052927e-05
-2.884162176e-05
4.362990609e-06
-2.881788167e-05
-2.858356858e-05
4.476231931e-06
2.979950652e-05
-2.98023558e-05
-2.94697306e-05
1.070548918e-07
2.90722877e-05
-2.565680719e-05
3.789743304e-05
-3.779037815e-05
2.925323367e-05
-4.455976204e-06
5.850849802e-06
-5.320301551e-06
2.872268542e-05
2.830608798e-05
5.033865834e-06
2.87203644e-05
-2.910100076e-05
2.881456504e-05
-4.411796235e-05
1.4023328e-05
3.430862407e-05
5.494918027e-07
-4.466745416e-05
-3.264697083e-06
-3.031027206e-05
3.369555892e-05
-2.706229017e-05
-3.37152363e-05
4.583401995e-06
3.380353233e-05
-4.141542648e-06
4.091402868e-06
-3.366509652e-05
-3.390486934e-05
-3.980208037e-06
-3.284571445e-05
3.35368491e-05
-3.342565426e-05
3.36911393e-05
4.512269921e-06
3.080318514e-05
-3.078799083e-05
3.056411683e-05
-3.054922664e-05
4.59863578e-06
3.180419027e-05
-3.174630595e-05
3.153195735e-05
-3.149474353e-05
2.472964083e-05
-4.632678133e-06
-2.470578594e-05
5.325921354e-06
-5.40045421e-06
2.480417368e-05
5.254395882e-06
2.457394568e-05
5.474215388e-06
2.52810496e-05
-2.496834828e-05
2.504210946e-05
-2.494531706e-05
2.374656501e-05
-4.53773281e-06
-2.358446576e-05
4.874169441e-06
-5.059918396e-06
2.393231397e-05
2.400275282e-05
5.1670212e-06
2.434304946e-05
-2.399705802e-05
2.410416082e-05
-2.396090743e-05
0
0
0
0
0
0
0
0
0
0
0
0
0
0
0
0
0
0
0
-4.275033865e-08
0
-1.002102418e-05
2.545918321e-06
-3.022456851e-07
4.559135763e-06
0
0
0
-1.716711446e-05
-8.677240337e-07
-4.093164994e-05
5.588499257e-06
-2.324321939e-06
3.333577034e-05
0
0
0
-4.738618496e-05
-2.265538868e-06
0
0
0
0
0
0
0
0
0
-1.395650052e-06
0
-3.871658536e-05
1.277897986e-05
-6.020561854e-06
2.05911743e-05
0
1.447829237e-07
-6.099270591e-05
-1.044620954e-05
-0.0001399900886
3.340557113e-05
-2.276045238e-05
0.0001129039596
1.835261762e-05
7.11433734e-06
-0.0001662428217
-2.488073242e-05
-0.0002307263802
3.067726545e-05
-2.292255409e-05
0.0002123734558
6.648844583e-05
1.019057337e-05
-0.0002451757684
-1.949621264e-05
0
0
0
-2.731086383e-05
1.118689546e-05
-5.756668595e-06
9.638432003e-06
0
4.051140776e-07
-5.30380961e-05
-1.347697873e-05
-0.0001647048982
5.951470805e-05
-4.561447542e-05
0.0001233454206
4.035025813e-05
2.184389262e-05
-0.000207914645
-5.562167836e-05
-0.000332707153
8.625929727e-05
-7.241101449e-05
0.0002933454841
0.0001562000046
4.550734517e-05
-0.0003683664592
-7.222965837e-05
-0.0004468170243
6.44008696e-05
-5.621916101e-05
0.0004257717213
0.0002685497869
3.901134146e-05
-0.0004626275759
-4.667213989e-05
1.590916682e-06
-1.215117608e-05
-2.708728544e-06
-9.996290204e-05
4.8402757e-05
-3.79387077e-05
6.233908565e-05
2.049117676e-05
1.810669632e-05
-0.0001441150414
-5.532136113e-05
-0.0002983644276
0.0001168228115
-0.0001000775628
0.0002466657104
0.0001538642155
7.421885364e-05
-0.000346877771
-0.0001146451082
-0.0004696525408
0.000134006071
-0.0001239468442
0.0004328375506
0.0003352381172
9.974282313e-05
-0.000498658524
-0.0001181826811
-0.0005560435115
8.703868506e-05
-8.336593356e-05
0.0005425844218
0.0004675462511
7.184583743e-05
-0.0005649185424
-6.813931105e-05
1.496485654e-05
-3.716788812e-05
-1.558520532e-05
-0.0001535615834
8.489165165e-05
-7.830023326e-05
0.0001085385384
7.63875764e-05
5.883876749e-05
-0.000205805613
-0.0001023374904
-0.0003591551847
0.000167146783
-0.0001579617107
0.000309734041
0.0002666239946
0.0001334564131
-0.0004044677159
-0.0001662325629
-0.0005068255997
0.000156788383
-0.0001508928945
0.0004790514193
0.0004603733004
0.0001374932965
-0.0005259566236
-0.0001364735427
-0.0005330314738
8.064164474e-05
-8.515701455e-05
0.000537322061
0.0005503683933
8.861851933e-05
-0.0005296470583
-6.958117286e-05
2.674885692e-05
-5.327329982e-05
-3.089367457e-05
-0.0001727942555
0.0001107326065
-0.0001068196547
0.0001278710273
0.0001162496875
9.370888695e-05
-0.0002203033213
-0.0001331336209
-0.0003585130951
0.0001898025403
-0.0001857127816
0.0003150965923
0.0003131013277
0.0001750004582
-0.0003973256908
-0.0001893007405
-0.000469210642
0.0001650576979
-0.0001643144316