/*--------------------------------*- C++ -*----------------------------------*\
| =========                 |                                                 |
| \\      /  F ield         | OpenFOAM: The Open Source CFD Toolbox           |
|  \\    /   O peration     | Version:  v2012                                 |
|   \\  /    A nd           | Website:  www.openfoam.com                      |
|    \\/     M anipulation  |                                                 |
\*---------------------------------------------------------------------------*/
FoamFile
{
    version     2.0;
    format      ascii;
    class       volScalarField;
    location    "2.19";
    object      nut;
}
// * * * * * * * * * * * * * * * * * * * * * * * * * * * * * * * * * * * * * //

dimensions      [0 2 -1 0 0 0 0];


internalField   nonuniform List<scalar> 
3259
(
1.147610251
1.147119215
1.146959815
1.147565421
1.148727067
1.151690309
1.15737134
1.163676793
0.8958780273
0.6828397277
0.5498471195
0.4394579585
1.147262395
1.146765175
1.146663321
1.147393723
1.148796309
1.152274737
1.15845848
1.164846713
0.9559054682
0.7306085994
0.5596520678
0.2821673241
1.146938037
1.146430128
1.146379974
1.14724587
1.148851853
1.15270486
1.159244941
1.165562012
1.066955993
0.8453540424
0.6616280714
0.07689371166
1.146697653
1.146181206
1.146168767
1.147141797
1.148917578
1.153075602
1.159881356
1.165952502
1.160563583
1.054896826
0.8821254576
0.05328664448
1.146435735
1.145903424
1.145913353
1.146995501
1.148955701
1.153350677
1.160321605
1.165966928
1.160781085
1.118707899
0.8959596831
0.08476483219
1.146233036
1.14568775
1.145703391
1.146851034
1.14893762
1.153506371
1.160523826
1.165656269
1.159541969
1.118452937
0.9097200112
0.1379625038
1.145970137
1.145407005
1.145414798
1.146624451
1.148848222
1.153532313
1.16048665
1.164977485
1.156935574
1.110959144
0.8901670385
0.1611574881
1.145756737
1.145183351
1.145174048
1.146398069
1.148682473
1.153430994
1.160227212
1.163969677
1.153745056
1.099049193
0.8301102414
0.1262262934
1.14545708
1.144873262
1.144843585
1.146087746
1.148450726
1.153215477
1.159771216
1.162684049
1.150055471
1.085121601
0.7592116271
0.1011041102
1.145211918
1.14462894
1.144580933
1.145808148
1.148167585
1.152908082
1.159151131
1.161165848
1.145892491
1.068904827
0.6904292165
0.08674766878
1.144863444
1.144283022
1.144222128
1.145455456
1.147853845
1.152535208
1.158403115
1.159453622
1.141230184
1.049183639
0.6332050854
0.07820821171
1.144584421
1.14401779
1.143951467
1.145163454
1.147521121
1.152119392
1.157557884
1.157570243
1.135945519
1.02442884
0.5866221267
0.07270833534
1.144190313
1.143637816
1.143572538
1.144794911
1.147181431
1.151674499
1.15663274
1.155508986
1.129763314
0.9953275499
0.5478857803
0.06906266392
1.143884737
1.143355876
1.143299671
1.14450728
1.146834811
1.151206341
1.155632933
1.153239398
1.122336825
0.9645180911
0.5150797535
0.0670398514
1.143457034
1.142949624
1.142905526
1.144129174
1.146487058
1.150716031
1.154557988
1.150726741
1.113437124
0.9340818298
0.4869120365
0.0661214687
1.143133177
1.142655518
1.142632013
1.143849446
1.146133087
1.15020297
1.153403259
1.147919796
1.103045218
0.9049553602
0.4624531489
0.06601782078
1.142689845
1.142237091
1.14223205
1.143465314
1.14577848
1.1496654
1.152159527
1.144755513
1.091337807
0.8774244032
0.4409181942
0.06662292101
1.142349247
1.141929832
1.141953879
1.143191067
1.145416222
1.149101302
1.150813119
1.141170079
1.078595814
0.851528807
0.4218421456
0.06775757084
1.141916206
1.14152226
1.141567383
1.142812006
1.145052824
1.148507762
1.149347071
1.137117795
1.065112513
0.8271901033
0.404933469
0.06911992398
1.141545793
1.141187609
1.141267775
1.142528676
1.144680148
1.147881928
1.147742967
1.132575141
1.051134205
0.8042850023
0.3899093193
0.07080535523
1.141164096
1.140829613
1.140931326
1.142184964
1.144304481
1.147219575
1.145981263
1.12753587
1.036828989
0.7826054321
0.376336597
0.07283951705
1.14072761
1.140431311
1.140571709
1.141848484
1.143920267
1.146519009
1.144045068
1.12201053
1.022322507
0.7619959652
0.3639180254
0.07522261274
1.140455496
1.140179486
1.140340421
1.141609113
1.143535911
1.145783241
1.141936606
1.116026968
1.007736065
0.7424557015
0.3525910761
0.07796811008
1.139898444
1.139669856
1.139878971
1.141159288
1.143181631
1.145038875
1.139723596
1.109645161
0.9932647299
0.7241376343
0.3422701279
0.08102631185
0.4448450319
0.3326832336
0.5554683786
0.5297246922
0.5499154532
0.3907456704
0.5191297828
0.4003783504
0.02831010403
0.04732298094
0.2628695045
0.04829369636
0.03008188524
0.004669791589
0.02797961882
0.3944778243
0.01761954823
0.009743036607
0.02974003538
0.01795462326
0.01140604749
0.04233342732
0.1906028479
0.1763194377
0.2104361519
0.1964042185
0.0427127381
0.0644932071
0.2302457402
0.2155661002
0.2351410809
0.0658469107
0.04636959801
0.04536389399
0.1707445957
0.1599594453
0.02218965433
0.01136821542
0.02742470075
0.01770840632
0.02827556427
0.01073177601
0.01638567804
0.01105826154
0.02830146389
0.01201602176
0.02367428173
0.6202897735
0.3716764104
0.3706782056
0.2466651076
0.008014353656
0.005313481069
0.03117707091
0.09312947343
0.08756228116
0.01044656341
0.01606819673
0.04856865383
0.03673883817
0.004390419116
0.1205585462
0.1011117225
0.08564028172
0.08111183678
0.0275745889
0.02572489766
0.0173977099
0.01084809833
0.02442327618
0.03216111818
0.002884231876
0.02924255241
0.01894705022
0.1020671303
0.09514835981
0.03473537181
0.04488044034
0.1098000068
0.1039789039
0.04790504225
0.04144883835
0.02648363183
0.07834879787
0.0696389996
0.0117391966
0.01139425638
0.01659788844
0.0110467471
0.01157478758
0.02223474067
0.02912773752
0.007457599512
0.01287335666
0.01076607812
0.01177810617
0.01974354558
0.1175879233
0.1116551881
0.04537362437
0.05594202478
0.1264863579
0.1196483152
0.01877880918
0.01905744221
0.03089157237
0.01758373903
0.02952164016
0.01836381064
0.01852248951
0.01796256238
0.1353943044
0.1287683889
0.0591758903
0.0689098722
0.143402399
0.1373786333
0.03024975284
0.0303182354
0.04673552258
0.04502272024
0.02986106828
0.02982568327
0.021095693
0.03325473875
0.0330893735
0.008156809625
0.01350854744
0.02457607621
0.01190782641
0.01166719426
0.01749661058
0.0177384173
0.02871499956
0.01089795189
0.007764530629
0.01077191281
0.01078640197
0.02681994552
0.01702261751
0.01759699324
0.01601822165
0.01906381846
0.01888080719
0.01486599972
0.03285333743
0.01963400635
0.02052419235
0.03960022903
0.02726694647
0.003052873803
0.02757022735
0.04221898826
0.04183007113
0.01735449077
0.01077973833
0.007909657779
0.004177417032
0.01147339438
0.01149297299
0.01815416579
0.01829977678
0.02944181839
0.0183778604
0.01845952843
0.01842037854
0.01869021083
0.01863447152
0.02831530348
0.02824180199
0.04307847963
0.01768813426
0.01868251653
0.01819977115
0.01826281778
0.04023927994
0.03961001243
0.02634275296
0.01177644346
0.01014172511
0.01027442067
0.007533215356
0.01047993886
0.01141741208
0.01717325169
0.0112338641
0.01172931714
0.011502749
0.02883952927
0.01784348427
0.01804413236
0.01060234969
0.01089974476
0.01080736195
0.01101899332
0.01120756606
0.007843299817
0.007791948271
0.01137255219
0.01084317624
0.0111003266
0.01448052514
0.01782873874
0.02690188405
1.163384872
0.9574288114
0.885401667
0.7194501403
0.6764837316
0.5804379621
1.164646298
1.005330461
0.9670439716
0.9346695314
0.7612062989
0.7277156954
0.7120400863
0.5803113152
0.5793045593
0.5438415327
0.515948549
0.541852302
0.4226248725
0.2519137826
0.2672950034
1.165418393
1.105673166
1.026602107
1.031345053
0.8568653773
0.7810889708
0.8060011886
0.6671923235
0.590609218
0.5681383268
0.5181636946
0.4999883576
0.2757288739
0.1281573884
0.1482197606
1.165894524
1.164080691
1.143253478
1.160340977
1.03632509
0.8940219984
0.9934991664
0.8804345175
0.7091638396
0.8514772213
0.2325142099
0.332737216
0.05191161001
1.165988404
1.164258896
1.164214255
1.16083788
1.135243983
1.097024075
1.118121898
0.9917152626
0.9627856799
0.890610448
0.2536533199
0.2302147523
0.07345035899
1.165769481
1.163449441
1.16418962
1.160053398
1.135411546
1.135546628
1.118987102
0.9997470834
0.9945000786
0.9082074996
0.3145284375
0.2682086239
0.1255344334
1.165180377
1.161631915
1.163051628
1.157649763
1.130943461
1.134863267
1.113576075
0.9901520135
0.9999887923
0.8986682083
0.3397772532
0.3268360329
0.1610555785
1.16424981
1.159320901
1.161095558
1.154591026
1.123091125
1.129108246
1.1022137
0.9544582435
0.9837497148
0.8465538557
0.2947552697
0.3336053029
0.1353230768
1.163028957
1.156596294
1.158675898
1.151022499
1.113868767
1.120913424
1.088797686
0.9084606892
0.9437588655
0.7773389509
0.2457234239
0.2808916941
0.1061566207
1.161564818
1.153503764
1.155855885
1.146977666
1.103224654
1.111344552
1.073217549
0.8527930725
0.8954131962
0.7066731313
0.2110555642
0.2358813419
0.08961797387
1.159898033
1.15005864
1.152675312
1.142446901
1.090815395
1.100313563
1.054546014
0.7940935343
0.8379248333
0.6463965245
0.1868212347
0.2041555098
0.07997719894
1.158056558
1.146226659
1.149139141
1.137337221
1.075637621
1.087330203
1.031102666
0.741402683
0.7801791442
0.5974312022
0.1694408704
0.1819487758
0.07388533053
1.156042308
1.141890246
1.145196249
1.131412665
1.056652133
1.071264814
1.002871065
0.6963407317
0.7294636826
0.5569544617
0.1565670709
0.1658802201
0.06981205664
1.153827894
1.136846768
1.140703125
1.124325862
1.034194873
1.051310813
0.9722427415
0.6575805204
0.6861078109
0.5228014381
0.1459490211
0.153761965
0.0674295616
1.151379632
1.130896444
1.135450477
1.115804876
1.009786029
1.028209698
0.9415899682
0.6238961311
0.6487217807
0.4935725584
0.1370645388
0.143546861
0.06627322547
1.148653263
1.12388228
1.129246022
1.105776107
0.9848397195
1.003554456
0.9120916338
0.5943287377
0.6161471698
0.4682660743
0.1298922962
0.1351128329
0.06598309293
1.145582981
1.115750162
1.121952355
1.094373229
0.9601815577
0.978624543
0.8841516905
0.5680564754
0.587476225
0.4460571344
0.1240201666
0.1283237988
0.06643285339
1.142109007
1.106567429
1.113547338
1.081861622
0.9361981418
0.9541095924
0.8578528327
0.5445048925
0.5619251342
0.4263975554
0.1192246891
0.1226981918
0.06748318359
1.138169646
1.096479516
1.104122552
1.068537796
0.9130953928
0.9303318607
0.8331332377
0.5233266858
0.5389953766
0.4089695449
0.1156616079
0.1182094462
0.06879097214
1.133757346
1.08566089
1.093835605
1.054664635
0.8909585749
0.9074675416
0.8098871068
0.5042329936
0.5183671439
0.3935097763
0.1130370806
0.1148972767
0.07040628486
1.128840724
1.074264777
1.08285961
1.040428463
0.8697391851
0.8855706597
0.7879205092
0.4868240574
0.4997377001
0.3796110024
0.111045198
0.1124501902
0.07237566568
1.123434796
1.062417476
1.071339354
1.025960859
0.8493272434
0.8645603784
0.7670463167
0.4707319262
0.4826876335
0.366885112
0.1095168529
0.1105835805
0.07470284255
1.11756264
1.050235461
1.059397921
1.011377663
0.8297076403
0.8443476635
0.7472087358
0.4558567586
0.4669259211
0.3552236725
0.1085858116
0.109161161
0.07741016153
1.111243256
1.037797223
1.047154954
0.9967485039
0.8108292412
0.8249568613
0.7283159084
0.4420215903
0.4524283418
0.3444135806
0.1082843557
0.1084145089
0.08045263238
1.104062427
1.02433996
1.03478507
0.9811660641
0.7914449722
0.8065659108
0.7090905879
0.4282164471
0.4391853881
0.3336672238
0.1084817884
0.1082545342
0.08411703587
0.2726638481
0.2883204239
0.4613648557
0.1550697692
0.1715298862
0.3422468911
0.04215621359
0.5408733622
0.575101521
0.560304262
0.5597982451
0.5674177625
0.5432270187
0.4963894149
0.5192219451
0.5426035336
0.4556274181
0.497802769
0.4739465988
0.5361702669
0.5068182006
0.4782090232
0.2312665497
0.2462615559
0.4171312996
0.02852856307
0.04523626689
0.04441904632
0.06906408717
0.06772540553
0.04656988799
0.009561153474
0.008850079826
0.2262566651
0.01793165174
0.02076995825
0.04761925672
0.05853211565
0.04986695005
0.07248312142
0.07054392832
0.1452104757
0.07008970702
0.4665049203
0.2935114425
0.003408392699
0.02512646297
0.01362794979
0.04354052915
0.04308224096
0.02789893717
0.3777890586
0.2100999737
0.2247730678
0.01358362846
0.01278500165
0.006051992056
0.05960451425
0.05778729415
0.04052743387
0.1868278818
0.1356409121
0.1385232112
0.1142045535
0.1249339869
0.1805457642
0.205927418
0.1526898481
0.1567027914
0.1442180006
0.1477733821
0.2005951087
0.04371494186
0.06213059605
0.06077752065
0.08652923019
0.08485616303
0.06339476692
0.225362818
0.1706296894
0.1750708174
0.1614184978
0.1658824648
0.2203452975
0.2449756517
0.1880356496
0.1794559109
0.1837466465
0.2400340458
0.06675460024
0.08968514672
0.08818764108
0.1679544561
0.1047943927
0.1113302456
0.09199005237
0.1015199772
0.1597488616
0.02768279033
0.01907048102
0.01975552867
0.01341196845
0.01390117718
0.01899392788
0.01511128107
0.01177725042
0.01260325642
0.0131974364
0.01778908494
0.5733424642
0.5419382243
0.5890368845
0.3516303811
0.4821006761
0.5082855553
0.4670054138
0.4770549277
0.3629330265
0.1134349429
0.1407828989
0.2628886337
0.007776786651
0.03185604446
0.02557320411
0.09343062844
0.106777208
0.006506633269
0.04919154939
0.04685105343
0.02939276148
0.09119737413
0.06791772856
0.07015752006
0.0646334759
0.06591567487
0.08915342292
0.01154588281
0.04000546215
0.02809183314
0.03756855394
0.03058240071
0.01547180886
0.03086572584
0.0310266463
0.04917034512
0.009636139247
0.006857469199
0.002894693914
0.1131180816
0.05811827658
0.0647806198
0.04916296807
0.05561529743
0.1065655226
0.08429083147
0.0622211604
0.06312817117
0.05991720506
0.06072201417
0.08224013074
0.03090040665
0.02035742199
0.01348254006
0.01456537723
0.01233730317
0.01099676849
0.01941425768
0.00558523156
0.007526235402
0.09983983947
0.07784772721
0.0797564739
0.07294588943
0.07542720728
0.09767505682
0.03893806423
0.05550567254
0.05258499341
0.06436918394
0.06313040693
0.04413498425
0.1077779811
0.08468928613
0.08631612073
0.08147659317
0.08312646467
0.1059673041
0.04744235757
0.0305661171
0.03064180161
0.07741552698
0.05682545024
0.05777257956
0.04869987877
0.04995785281
0.06948631245
0.01265628969
0.01237674968
0.01130920736
0.0203537054
0.01477998191
0.01572549211
0.01093310985
0.01139229732
0.0137369499
0.115532137
0.0911376507
0.09288746407
0.08788009863
0.08952370949
0.1136413327
0.04602204308
0.06661180089
0.06540607316
0.07776691094
0.07491942324
0.05241482422
0.1241031026
0.09916425062
0.1016699376
0.09474194704
0.09682702623
0.121832752
0.1332033042
0.1086298031
0.1106726895
0.1041235812
0.1064881733
0.1311037681
0.0614414378
0.08285126126
0.0804469007
0.09278597358
0.0912851483
0.06794900817
0.1414074693
0.1167361419
0.1188494083
0.1126730651
0.1146782407
0.1394859725
0.01678551585
0.01771484005
0.02557112895
0.01201368228
0.01349362715
0.0130309222
0.0147393218
0.01405491206
0.01241196684
0.01441237183
0.02988923498
0.01479539422
0.02097353823
0.01354296069
0.01442738762
0.0281872802
0.002110446781
0.006552004303
0.006282979969
0.008319511502
0.006781853804
0.004164277949
0.01054950768
0.007889446407
0.00897357307
0.009799724502
0.008614548555
0.01076619992
1.148793563
1.149930483
1.151563708
1.153825897
1.156805459
1.161714672
1.148791879
1.150139146
1.149952271
1.152047735
1.154642255
1.154092626
1.157984247
1.163043553
1.162006817
1.163978635
1.15075003
1.139775963
0.9075619081
0.8444185084
0.8332253036
0.6908692832
0.6493986155
0.6431773883
0.4337283371
0.3781302459
0.3837557277
1.148833591
1.150365357
1.150246357
1.152496396
1.155336389
1.155002157
1.158870726
1.163928418
1.163276568
1.165032307
1.165757883
1.165585811
0.9717366741
0.9095278331
0.8929674458
0.7457346242
0.6983841768
0.6833898371
1.148899781
1.150589309
1.150472237
1.152902934
1.155928211
1.155647241
1.159581038
1.16447776
1.16407731
1.165699878
1.166355846
1.166232486
1.10945583
1.043296797
1.003456464
0.8894642109
0.8447507857
0.7991605149
0.7124575904
0.6807850423
0.6195462584
0.06251019161
0.01393038944
0.01326405961
1.148956326
1.150772555
1.150679143
1.153229487
1.156384932
1.156174829
1.160130239
1.164758876
1.16456596
1.165979973
1.16658758
1.166579291
1.160715294
1.155001486
1.154700346
1.116580397
1.090911798
1.017375847
0.8830642554
0.7211963829
0.72036359
0.05747441481
0.01585714226
0.01532182884
1.148967854
1.150883594
1.150829106
1.153446927
1.156682427
1.156554225
1.160453109
1.164766262
1.164789537
1.165923586
1.16634087
1.166445006
1.160647391
1.155280547
1.155339762
1.119077044
1.09452673
1.0939116
0.9007317643
0.7489830459
0.7405209083
0.09782630654
0.0216621172
0.01953693422
1.148914106
1.150903174
1.150896333
1.15353797
1.156809664
1.15676714
1.160534428
1.164435787
1.164713414
1.165520361
1.165632656
1.165849761
1.158968765
1.153425826
1.154128307
1.117277301
1.092917655
1.094301129
0.9089863181
0.7686773795
0.7673331871
0.148913604
0.03320362838
0.03016816131
1.148783552
1.150824355
1.150867362
1.153499036
1.156768126
1.15680918
1.160383262
1.163793515
1.164302032
1.164754403
1.164518533
1.164831874
1.156186713
1.149712529
1.150714355
1.108168165
1.080255359
1.084417306
0.8773482932
0.7297426564
0.7465947739
0.1583071128
0.03934102972
0.03892829942
1.148581138
1.150651783
1.150740921
1.153338141
1.156569628
1.156687116
1.160021932
1.162882133
1.163588716
1.163672367
1.163059734
1.163453549
1.152867437
1.145283912
1.146453693
1.095758092
1.061787855
1.06667359
0.8130056812
0.6434891121
0.6646473776
0.1184668787
0.03879216775
0.03881611318
1.148318489
1.150400884
1.150527146
1.153073191
1.156234548
1.156417398
1.159479415
1.161745652
1.162617494
1.16232441
1.161311184
1.161772968
1.149058423
1.140194678
1.141528611
1.081305756
1.04026569
1.04597393
0.7412242982
0.5683498155
0.5854711041
0.09672158533
0.03934782436
0.03911221207
1.148016315
1.150093415
1.15024558
1.152729633
1.155789728
1.156023857
1.158790941
1.160426498
1.161431947
1.160754396
1.159316417
1.159836368
1.14477594
1.134433967
1.135940815
1.064375689
1.014343443
1.021378891
0.6749673088
0.5102262614
0.5233639575
0.08420259873
0.04036237394
0.04011132502
1.147689381
1.149750632
1.14991858
1.152332768
1.155263535
1.155535063
1.157991212
1.158958349
1.160073343
1.158998038
1.157103594
1.157676609
1.139974823
1.127884866
1.129609541
1.043491209
0.9818921151
0.9906219769
0.6206762364
0.4648477927
0.4752421833
0.07660667131
0.04145043183
0.04115503338
1.147351653
1.149387311
1.149564807
1.151901094
1.154677888
1.15497708
1.157104776
1.157354719
1.158571385
1.157072107
1.154674016
1.155303414
1.134497475
1.120215068
1.12226593
1.017469422
0.944433525
0.954031217
0.5762931548
0.4283940534
0.4368126388
0.07163985238
0.04286800514
0.04247468238
1.147006557
1.149011589
1.149195331
1.151444091
1.154044416
1.154366641
1.156142119
1.155606201
1.156933093
1.154962031
1.151986676
1.152685623
1.128035056
1.110884924
1.113401283
0.9876799024
0.9062131353
0.9156464747
0.5391819247
0.3985337309
0.4054764034
0.0684287779
0.04473606764
0.04422045206
1.14665914
1.148625765
1.148815208
1.150964818
1.153367357
1.15371111
1.155105085
1.153696496
1.155146083
1.152635002
1.148975004
1.149760836
1.120254007
1.099505558
1.102547162
0.9568216557
0.8700091265
0.8788044242
0.5076414987
0.3736093563
0.3794548613
0.06672604206
0.04712340545
0.04647287729
1.146307258
1.148230694
1.148425278
1.150463289
1.152647109
1.153012511
1.153991124
1.15160205
1.153193133
1.150054486
1.145571326
1.146464095
1.110974363
1.086132642
1.089644386
0.9266564836
0.8366745618
0.8447367606
0.4804807317
0.3524126827
0.3574031201
0.06603385726
0.05007664034
0.04928517393
1.145952935
1.147825064
1.148025635
1.149938453
1.151881726
1.152269944
1.152793415
1.149284571
1.151047107
1.147162716
1.141675566
1.142699812
1.100230999
1.071166065
1.075029329
0.8979179613
0.8061041355
0.8135063908
0.4568169286
0.3341893846
0.3385059252
0.06612827828
0.05362618736
0.05267779643
1.145595081
1.147408879
1.147614625
1.149388414
1.151067126
1.151480305
1.151500428
1.146700055
1.148667534
1.143900253
1.137226808
1.138398621
1.088236742
1.055109121
1.059199405
0.8707978575
0.7779592299
0.7847844492
0.4359298572
0.3183317296
0.3220933434
0.06690137585
0.05776767143
0.05667191336
1.145231639
1.14697998
1.147192104
1.148811123
1.15019768
1.150638518
1.150096725
1.143799261
1.14600853
1.140204307
1.132146042
1.133475554
1.075282546
1.038412279
1.042625733
0.8452991022
0.7519775181
0.7582820254
0.417419402
0.3045121236
0.3077850713
0.06810496896
0.06253251797
0.06126094061
1.144869003
1.146539055
1.146755056
1.148203811
1.149266409
1.149738245
1.148564166
1.140549986
1.143023985
1.136030004
1.126426686
1.127914661
1.061655644
1.021423507
1.025683636
0.8213349789
0.7279550653
0.7337889952
0.401013962
0.2925242187
0.2953581414
0.06955347484
0.06794174817
0.06650489787
1.144492832
1.146082787
1.146304421
1.147563204
1.148264312
1.148771839
1.146882469
1.136919666
1.139681799
1.131360708
1.120092106
1.121731843
1.047582445
1.004362816
1.008626916
0.7987566673
0.7056400068
0.7110768375
0.3863931726
0.2820779837
0.2845692069
0.07134743908
0.0738868872
0.07231013652
1.144129554
1.145612097
1.145834554
1.14688358
1.147179108
1.14773073
1.14502755
1.132896475
1.135956124
1.126197762
1.113177973
1.114958308
1.033215532
0.987347358
0.9915926337
0.7773519889
0.6847186909
0.6898337467
0.3731061349
0.2727220791
0.2749940523
0.07349369228
0.08020971972
0.07851690419
1.143730947
1.145117336
1.145351274
1.146154955
1.145991392
1.146607423
1.142969823
1.128473964
1.131832532
1.120555446
1.105735399
1.107642423
1.018676423
0.9704603212
0.9746663504
0.7569970457
0.665015419
0.669839026
0.3609308739
0.2642590232
0.2663577498
0.07601269028
0.08677656406
0.08496992274
1.143352005
1.144583284
1.144852128
1.145351904
1.144664148
1.145403499
1.14065061
1.123655037
1.127311946
1.11445908
1.097822812
1.099845256
1.00407189
0.9537766067
0.9579413629
0.737662823
0.6464802381
0.6510799351
0.3497279915
0.2564412829
0.2584839261
0.07888909032
0.09353265133
0.09156953138
1.142889603
1.143982323
1.144374601
1.144409643
1.143057786
1.144146342
1.137817063
1.118105143
1.122421861
1.107873687
1.089406653
1.091668386
0.9892981161
0.9371306649
0.9416146671
0.7190156763
0.6287663222
0.6336751929
0.3392305505
0.2491404533
0.2512901303
0.08210383323
0.1004370596
0.09824850043
0.3894211449
0.3951200876
0.4505230938
0.2590300167
0.2721044414
0.3272847661
0.5398979575
0.5594395499
0.54832663
0.412957225
0.4378884746
0.4219018373
0.5361366467
0.5227376419
0.5088039098
0.3448027899
0.3499959137
0.4059002816
0.476289379
0.4250686907
0.3890497263
0.3341858375
0.338591295
0.02172694028
0.4070833721
0.4019045623
0.3651185594
0.01093151844
0.009955583386
0.005583677938
0.01049845643
0.01527175965
0.01420383904
0.02754010646
0.02113170729
0.01668695428
0.02590033058
1.133270873
1.123376896
1.163068882
0.9476462426
1.031759247
1.041936943
0.8232336417
0.8133059837
0.8756363088
0.71116325
0.7588781311
0.7681621826
0.6387925461
0.634069543
0.6696111997
0.5811422791
0.6045769099
0.6067668117
1.165322667
1.161102353
1.164216684
0.9916361062
1.074124977
1.088043075
1.0499291
1.062927113
0.9792870995
0.8715981444
0.8574748817
0.9206772173
0.7481993659
0.8003379256
0.8140908304
0.777662773
0.7877542187
0.7367193995
0.6666615232
0.6563717172
0.7001107285
0.5775499844
0.6174080653
0.6247352013
0.6090631259
0.6127920354
0.5784297536
0.3669163336
0.3724910279
0.4283332758
0.256804305
0.3147129516
0.3093708257
0.3257107252
0.3202964974
0.2622627579
1.16607595
1.165920503
1.165239627
1.071388231
1.154302088
1.165474271
1.108694353
1.12497151
1.0428837
0.9683309238
0.9363467224
0.9986265285
0.823825786
0.8782544401
0.9113725042
0.834934078
0.8515433154
0.7972273833
0.7583071153
0.7240529474
0.7721048582
0.6318794107
0.6791811862
0.7143876881
0.6389540367
0.6534408879
0.605794205
0.2030371753
0.1982838115
0.1430022737
1.166528522
1.166459846
1.165803772
1.163934289
1.165948627
1.166037858
1.165650631
1.165810167
1.163721395
1.145167195
1.090858756
1.160098257
0.9842778672
1.033214063
1.085187779
0.9472567258
0.9877719319
0.9371560957
0.9532837686
0.8962115343
0.9387802862
0.8129090885
0.8557051602
0.9150577182
0.7554015097
0.8023684002
0.7574056208
0.7227541143
0.7297540995
0.7743372206
0.2460078576
0.5147531767
0.5014795597
0.5434855208
0.5390769
0.2821640198
0.0151486359
0.01468385237
0.05395227856
0.04473327632
0.04701021963
0.03705212138
0.04066304289
1.166519449
1.166576299
1.165992956
1.164313487
1.166117157
1.166059625
1.166109016
1.166126242
1.164273274
1.155342237
1.155194833
1.160817708
1.134715494
1.146810694
1.147138016
1.145924421
1.146482592
1.134179942
1.092963182
1.091960419
1.117371192
0.9895535235
1.052856254
1.0542163
0.9851925264
1.051525435
0.9876176863
0.7322517102
0.7256866875
0.886402909
0.2415823853
0.4993314523
0.5076270708
0.4960078687
0.4950260521
0.2333865498
0.01785096636
0.01659902111
0.06419706176
0.04293907609
0.03925945103
0.04766690799
0.04588173345
1.166040941
1.166206164
1.165857749
1.163778091
1.165598401
1.165348028
1.16595373
1.16579114
1.164000163
1.154724045
1.155041889
1.160394236
1.135690471
1.14710703
1.146821221
1.14723708
1.147305353
1.135745054
1.094793726
1.094974677
1.119230251
0.9988773228
1.057784205
1.057817015
1.055745487
1.056824105
0.9966928653
0.7634158079
0.7569370625
0.9052808655
0.3000082656
0.5424933562
0.5531108509
0.5185352094
0.5307553139
0.284130468
0.02716357535
0.02423457797
0.1115955435
0.031128485
0.03050179158
0.03591313634
0.03302757674
1.165122898
1.16539003
1.165361151
1.162137384
1.164397576
1.164024171
1.165059182
1.16474289
1.162611067
1.151672901
1.152585865
1.158328133
1.132564806
1.144334274
1.14309412
1.146229557
1.145350008
1.133821589
1.088069865
1.090689723
1.115606702
0.9952409508
1.053144956
1.049475884
1.057533889
1.055939744
0.9985256991
0.7577275213
0.7656370829
0.9054344619
0.3403114665
0.5638637038
0.5574736658
0.5602628819
0.564872139
0.3351033119
0.03789869699
0.03577825361
0.1560677412
0.03079412973
0.03112838065
0.03026505131
0.03054988006
1.163828551
1.164183697
1.164511368
1.159939415
1.162751311
1.162279938
1.163624287
1.163199778
1.160531439
1.147581919
1.148668187
1.155405221
1.125181768
1.138991425
1.137506802
1.141784692
1.140417454
1.12718777
1.071378991
1.075905829
1.105253481
0.9647454672
1.031796938
1.024982388
1.044599952
1.038358837
0.9746475824
0.6862871383
0.708122975
0.8622905669
0.3097544197
0.5079825082
0.4870130152
0.5459683552
0.5299858016
0.3251808255
0.03892564915
0.03912312505
0.1462516661
0.03219023419
0.03297765428
0.03130868412
0.03151505839
1.16221873
1.162647809
1.163358533
1.15731317
1.16073742
1.160182804
1.161786635
1.16127235
1.158006806
1.142821283
1.144072951
1.151960029
1.11630353
1.132702241
1.130982652
1.135963866
1.134362752
1.11865204
1.051449313
1.056715572
1.0923423
0.9208300772
1.002930103
0.9949595359
1.017912616
1.010572553
0.932573226
0.6037292897
0.6231075858
0.7953545287
0.2564070518
0.4329671907
0.4176805543
0.4675358233
0.4495416371
0.2681054334
0.03892420668
0.03883387248
0.1118546617
0.03562149192
0.03661659191
0.03380119655
0.03468509748
1.160342393
1.160834128
1.161951298
1.15430967
1.158408401
1.157781448
1.159609425
1.159017906
1.155093955
1.137402008
1.138819382
1.148032897
1.106027505
1.125466344
1.123503198
1.129204155
1.127366089
1.108732812
1.028013197
1.034292456
1.077343969
0.8674553912
0.9685286773
0.9586873621
0.9866124847
0.977823804
0.8817164126
0.5373751134
0.5523342595
0.7236458894
0.2185772219
0.3780118451
0.3665632226
0.403510887
0.3903237786
0.2268678019
0.03985877821
0.03960088981
0.09290910913
0.03990665105
0.04112374565
0.03765338603
0.03874026318
1.158236368
1.158783004
1.16033197
1.150953603
1.155799769
1.155105385
1.157137632
1.156477224
1.151825858
1.131272367
1.132878872
1.143628229
1.094126623
1.117197176
1.114934505
1.121473993
1.119374529
1.097287227
0.9989618815
1.00687216
1.059600748
0.8084237763
0.9259464778
0.9142062821
0.9482826586
0.9373423567
0.823081259
0.4862368939
0.4978815656
0.6603045743
0.1921361891
0.3366267625
0.3279116392
0.3558712605
0.3459105556
0.1978627435
0.04088039356
0.04061812998
0.08199636545
0.0453681252
0.0469445874
0.0424616282
0.04387671931
1.155917418
1.156517351
1.158532785
1.147225346
1.15291879
1.15215264
1.15439414
1.153665687
1.148195753
1.124221529
1.126091303
1.138678762
1.0797619
1.107527761
1.104807178
1.112577061
1.110113284
1.083654253
0.9635202523
0.9728322501
1.037463038
0.7538238992
0.8782694847
0.8664353249
0.9022600076
0.8902438553
0.7667523551
0.4456667983
0.4549960964
0.6087679162
0.1732721571
0.3049318864
0.2981947284
0.3197599534
0.3121298556
0.177478333
0.04210754116
0.04176589831
0.07514654553
0.05225529374
0.05420369814
0.04862109497
0.05039272261
1.153366652
1.154028724
1.156563456
1.143031625
1.149726295
1.148868991
1.151366511
1.150558429
1.144132776
1.115790929
1.118059532
1.132988777
1.061767482
1.095697761
1.092308723
1.101937299
1.098905068
1.066642504
0.9251885315
0.9348002218
1.010267474
0.7069602541
0.8323705671
0.821587215
0.8548098023
0.8434491644
0.7179948659
0.412750263
0.4203810875
0.5664166407
0.1594286761
0.2802287206
0.2749091512
0.2918586967
0.2858716236
0.1625094589
0.0437404818
0.04328988261
0.07067727451
0.06048316066
0.06270857767
0.05622427405
0.05831821398
1.15052415
1.151266754
1.15440252
1.138186376
1.146120764
1.145134542
1.147982085
1.147070534
1.139470773
1.105458601
1.108237951
1.126224392
1.040057382
1.08104589
1.076941517
1.088735709
1.084980284
1.045772155
0.887775768
0.8969162616
0.9799741476
0.6667503546
0.7910393192
0.7814381686
0.8111058444
0.8009263914
0.6762545321
0.3855459998
0.3918962331
0.530829952
0.1484364099
0.260504286
0.2561394587
0.2698697821
0.2650796454
0.1510542321
0.04586142496
0.04527862438
0.06788291271
0.06966447242
0.07204973417
0.06498497039
0.06730714778
1.147327767
1.148164545
1.152016017
1.132478892
1.141985879
1.140852636
1.144124313
1.143077635
1.133996312
1.093048424
1.096337387
1.118077212
1.015984957
1.063740376
1.059089151
1.072680514
1.06827601
1.022133682
0.8529773852
0.8614000227
0.9491736669
0.6318970794
0.754273604
0.7457259112
0.7721182469
0.7630687853
0.6401693533
0.3625942361
0.36799278
0.500479544
0.1391141545
0.2441004861
0.2404120677
0.2519512869
0.2479454472
0.1412798122
0.04852677969
0.04780699598
0.06647014117
0.07933845974
0.08179872335