/*--------------------------------*- C++ -*----------------------------------*\
| =========                 |                                                 |
| \\      /  F ield         | OpenFOAM: The Open Source CFD Toolbox           |
|  \\    /   O peration     | Version:  v2012                                 |
|   \\  /    A nd           | Website:  www.openfoam.com                      |
|    \\/     M anipulation  |                                                 |
\*---------------------------------------------------------------------------*/
FoamFile
{
    version     2.0;
    format      ascii;
    class       surfaceScalarField;
    location    "0.27";
    object      meshPhi;
}
// * * * * * * * * * * * * * * * * * * * * * * * * * * * * * * * * * * * * * //

dimensions      [0 3 -1 0 0 0 0];
oriented        oriented;


internalField   nonuniform List<scalar> 
5999
(
0
0
0
0
0
0
0
0
0
0
0
0
0
0
0
0
0
0
0
0
0
0
0
0
0
0
0
0
0
0
0
0
0
0
0
0
0
0
0
0
0
0
0
0
0
0
0
0
0
0
0
0
0
0
0
0
0
0
0
0
0
0
0
0
0
0
0
0
0
0
0
4.480055698e-09
-1.749030528e-08
0
0
0
0
0
0
0
0
0
0
0
0
0
0
0
0
0
0
0
0
0
0
0
0
0
0
0
0
0
-2.105649841e-08
2.033916481e-07
1.915980223e-06
-1.317986258e-06
-7.421862981e-06
1.256461412e-05
1.715446077e-05
-1.789393892e-05
-9.575983667e-06
3.277512443e-05
1.648180451e-05
-3.626709323e-05
0
0
0
0
0
0
0
0
0
0
0
0
0
0
0
0
0
0
0
0
0
0
0
0
0
-1.019154033e-06
2.61529695e-07
5.188316526e-06
-2.048350091e-06
-3.648892603e-05
2.06893438e-05
5.670459494e-05
-3.021702128e-05
-6.589778823e-05
6.086979224e-05
8.643646475e-05
-6.986320759e-05
-4.304338259e-05
8.783331265e-05
5.229126097e-05
-9.034369481e-05
0
0
0
0
0
0
0
0
0
0
0
0
0
0
0
0
0
0
0
0
0
0
0
3.369580637e-07
-2.671642958e-08
-4.211729314e-05
5.710245047e-06
6.070451404e-05
-1.14477074e-05
-0.0001331848928
3.711253496e-05
0.0001609240795
-4.591646934e-05
-0.0001496393928
6.593631428e-05
0.0001686688611
-6.948341092e-05
-7.574169755e-05
7.101931621e-05
8.135316656e-05
-6.92254445e-05
0
0
0
0
0
0
0
0
0
0
0
0
0
0
0
0
0
0
0
0
0
-1.040859398e-05
-3.288825041e-07
1.697615515e-05
1.048122078e-06
-0.0001309699964
-2.089332833e-06
0.0001540546541
1.790983653e-06
-0.0002421471283
-4.164102784e-06
0.0002643647445
7.481179274e-06
-0.0002129060297
-2.033074997e-05
0.0002264820166
2.148718348e-05
-9.066375219e-05
-3.423244843e-05
9.213912905e-05
3.623003782e-05
0
0
0
0
0
0
0
0
0
0
0
0
0
0
0
0
0
0
2.962160872e-07
9.698546988e-10
4.260531416e-08
-3.894336177e-05
-5.697307417e-06
4.711200482e-05
1.235312398e-05
-0.0002139069149
-4.215033025e-05
0.0002267778631
5.797979808e-05
-0.0003152395179
-9.866453105e-05
0.0003264002191
0.0001122282099
-0.0002387565864
-0.0001487732881
0.0002368189775
0.0001590884497
-9.673862693e-05
-0.000169106535
5.051736616e-05
5.296725522e-05
7.56666451e-05
8.669389549e-05
0
0
0
0
0
0
0
0
0
0
0
0
0
0
0
0
-1.243351068e-06
0
2.66981943e-06
5.242171779e-07
8.839815632e-07
-6.409710667e-05
-1.694686374e-05
6.616248e-05
3.302545436e-05
-0.0002609598916
-0.0001036405322
0.0002652725496
0.0001312217188
-0.0003461737088
-0.0002121346869
0.0003485814723
0.0002352013972
-0.0002328347887
-0.0002798464965
0.0002315753026
0.0002841437224
-5.18791184e-05
-0.000140253366
5.219102468e-05
0.0001399414597
0
0
0
0
0
0
0
0
0
0
0
0
0
0
0
0
-3.473308502e-06
0
4.387827778e-06
1.993406543e-06
2.400648045e-06
-7.668244099e-05
-2.948308828e-05
7.891310989e-05
5.421321922e-05
-0.0002800585058
-0.0001592415826
0.0002830611018
0.0001997708385
-0.0003545669829
-0.0003151549882
0.0003557817489
0.0003462187631
-0.0002296904256
-0.0003991587847
0.000229392302
0.0004012000164
-5.133039968e-05
-0.000197088951
5.132183224e-05
0.0001970975184
0
0
0
0
0
0
0
0
0
0
0
0
0
0
0
0
-5.275122633e-06
0
6.493692646e-06
3.845281466e-06
4.501753099e-06
-8.446315455e-05
-4.266786559e-05
8.670254522e-05
7.609740479e-05
-0.0002904634183
-0.0002148461724
0.0002933724794
0.0002675593432
-0.0003588044662
-0.0004153018489
0.0003599309581
0.0004542256861
-0.0002287028912
-0.0005174482073
0.0002284890445
0.0005189153749
-5.120485684e-05
-0.000255702063
5.12732635e-05
0.0001268369846
0.0001287966717
0
0
0
0
0
0
0
0
0
0
0
0
0
0
0
0
-7.822695981e-06
0
9.347736036e-06
6.921500433e-06
7.904293756e-06
-9.369574096e-05
-5.909928946e-05
9.615392352e-05
0.000102074657
-0.0003022185348
-0.000276062868
0.0003052526786
0.0003410863735
-0.0003632370296
-0.0005203385351
0.0003643297329
0.000566473277
-0.0002278634262
-0.0006372898738
0.0002276956631
0.0006380378532
-5.111138385e-05
-0.0003153471653
5.111754039e-05
0.0001567284032
0.0001586126056
0
0
0
0
0
0
0
0
0
-1.118838794e-05
0
1.167126412e-05
1.250157618e-05
-0.0001041669204
-7.916712051e-05
0.000107292529
0.0001324217859
-0.0003148635345
-0.0003425658533
0.0003184992164
0.0004197472256
-0.0003676387298
-0.00062891919
0.0003688060611
0.0006814121565
-0.0002273292861
-0.0007566364337
0.0002273298328
0.0007567060579
-5.102894652e-05
-0.0003746924803
5.100308966e-05
0.0001863620516
0.0001883562856
-0.0001899118807
0.0001899272322
-5.134575109e-05
-0.0002482980405
-5.116403402e-05
0.0001232713244
0.0001249858933
-0.0003078945347
-5.108968466e-05
0.0001530439743
0.0001548288612
-0.0003671680701
-5.09864937e-05
0.0001826532909
0.0001844723263
-0.0001325793543
0.0001324412733
-5.174103738e-05
-0.0004876923307
0.0004892786154
-0.0002289045388
5.953470656e-05
-5.953917017e-05
-0.0002482935769
-5.96508461e-05
-0.0001970623841
5.962427921e-05
-0.0006074463331
0.0006083729997
-0.0002280494939
5.941036317e-05
-5.941535126e-05
-0.0003078895466
-0.000255695495
5.952813853e-05
5.120020831e-05
-0.0002783060957
-5.120699583e-05
0.0001382003823
0.0001401125008
1.222752711e-05
7.02843389e-05
-1.219343867e-05
-0.0001401078026
6.978937521e-05
-1.217784704e-05
6.31025617e-05
-0.000126806621
1.221791864e-05
6.366398765e-05
-0.0007266521043
0.0007268865681
-0.0002273695197
5.928865677e-05
-5.929637682e-05
-0.00036716035
-0.0003153245235
5.938772131e-05
5.095374347e-05
-0.0003376371433
-5.104115585e-05
0.0001679577624
0.0001697667933
5.835355168e-06
8.515191633e-05
-5.834862042e-06
-8.515240945e-05
-1.218850988e-05
7.814091545e-05
-0.0001567505192
1.216587278e-05
7.863224084e-05
-0.0003746875154
5.928369184e-05
2.650407581e-05
-0.0001995163531
0.0001995416573
-2.652937998e-05
5.722462462e-06
0.0001000701171
-5.772976992e-06
-0.0001000196026
-5.81289802e-06
9.28893268e-05
-9.2888618e-05
5.812189224e-06
-1.011977802e-05
-8.302345361e-05
1.019513897e-05
4.118633524e-05
4.176175741e-05
1.010868111e-05
-9.581453667e-05
-1.00972465e-05
4.77222315e-05
4.808087055e-05
-6.946123374e-05
-1.136946114e-05
1.157387046e-05
6.925682443e-05
-8.137421412e-05
8.143209464e-05
-1.017765855e-05
6.262278178e-05
-1.212564979e-05
-0.0001249569099
6.228193085e-05
0.0001121725384
-1.215314551e-05
-0.0001121802625
1.216086959e-05
-5.125305605e-05
-0.0002263146136
5.125122189e-05
0.0002263164477
-1.005629594e-05
1.012027243e-05
5.584448852e-05
5.626407341e-05
5.32285711e-06
6.262498369e-05
-5.32505902e-06
-9.756760876e-05
1.015254868e-05
4.850110142e-05
4.902263976e-05
-0.0001104333606
-1.008692887e-05
5.503872086e-05
5.542527267e-05
7.763081538e-05
-1.214794221e-05
-0.0001548150024
7.71436193e-05
7.080381225e-05
-0.0001420967193
1.218710734e-05
7.133332681e-05
-0.0002858452787
5.111720444e-05
0.0001420603138
0.0001438679687
-5.340270697e-06
5.332763103e-06
7.081131984e-05
5.309319105e-06
7.762982642e-05
-5.30833014e-06
5.327487494e-06
6.309793132e-05
7.027443688e-05
-5.330368668e-06
9.241570479e-05
-5.825235433e-06
-9.240336738e-05
8.560020422e-05
-8.558287625e-05
5.818027186e-06
-0.0003448004403
5.104078082e-05
0.0001715121892
0.0001732012137
-5.315719114e-06
5.335794823e-06
8.558012852e-05
5.255066544e-06
9.24086537e-05
-5.248015448e-06
5.303276929e-06
7.814695763e-05
8.516367968e-05
-5.327482465e-06
0.0001004904666
-0.0001005121009
5.744096822e-06
0.0002013236193
-5.116291916e-06
5.132384688e-06
0.0001004743738
5.274885967e-06
9.286950738e-05
0.0001000942692
-5.140443989e-06
-0.0003694637592
0.0003718708438
-0.0002301594287
-5.967699979e-05
-0.0001898857271
-6.017061868e-05
-0.0001401004481
6.001770084e-05
5.155803767e-05
-0.0001610356651
0.000161007207
-5.152957963e-05
1.222050157e-05
-1.222620049e-05
-8.13685152e-05
-1.2518353e-05
-6.970865086e-05
1.276577012e-05
-0.0002190029688
0.0002190371868
-5.128727412e-05
-1.215966437e-05
-0.0001104268417
-1.220306967e-05
-9.756829128e-05
1.220375219e-05
-1.219493125e-05
-9.58226751e-05
-8.302981437e-05
1.222686233e-05
-0.0001675048178
5.144502968e-05
0.0001676178257
-1.218170441e-06
-4.505879597e-05
1.141710248e-06
4.513525617e-05
-3.553126611e-05
-2.476888386e-06
2.016024499e-06
3.599213e-05
-3.766306062e-05
1.627035847e-06
3.773734634e-05
-1.701321561e-06
-0.0001142576071
-1.992709185e-05
1.114808392e-05
1.153353274e-05
5.428345296e-05
5.721962933e-05
-6.689130753e-05
6.829183633e-05
-1.276998995e-05
9.674845803e-05
-5.857240636e-06
-9.675316735e-05
5.861949948e-06
-1.828585661e-05
-0.0001937774284
1.829509967e-05
0.0001937681853
1.828079612e-05
-0.000199523575
0.00019954804
-1.830526115e-05
-4.205630136e-05
-1.552647843e-06
-8.933399614e-06
5.254234882e-05
-4.441472856e-05
-1.166148004e-06
4.436270612e-05
1.01586835e-05
-8.85834324e-05
-1.013089596e-05
4.39763957e-05
4.457924916e-05
1.744055219e-06
-1.675854177e-06
-4.44829296e-05
-1.692115066e-06
-4.174429812e-05
1.380111819e-06
9.295402655e-07
1.717310343e-06
-4.81127063e-05
4.546585569e-05
-4.509990878e-05
1.785168024e-06
-9.053699728e-05
1.005451702e-05
4.51413413e-05
4.549982246e-05
1.033450244e-05
-7.525710662e-05
7.52848714e-05
-1.036226721e-05
1.893864694e-06
-1.84757318e-06
-3.770935214e-05
-3.778283619e-06
-3.444516869e-05
2.6921862e-06
4.126814683e-05
-1.81485566e-06
-4.114540624e-05
3.804134188e-05
-3.807270671e-05
1.925229522e-06
-7.65531882e-05
1.030009831e-05
7.658759233e-05
1.38701699e-06
3.828136074e-05
4.125479911e-05
-1.539300122e-06
5.324706296e-06
-5.908736645e-05
5.908336382e-05
-5.32070367e-06
-1.645877633e-06
-5.582240185e-05
1.655853439e-06
5.581242605e-05
-5.956754667e-05
5.328383351e-06
5.956386961e-05
1.008014891e-05
-0.0001032040279
-1.013943072e-05
5.138392709e-05
5.187938264e-05
1.493795388e-06
-1.489664485e-06
-5.184851887e-05
5.184438796e-05
-4.849304743e-05
1.329135673e-06
4.809345202e-05
-1.614558697e-06
-5.540047919e-05
5.536916025e-05
-5.226410453e-05
1.515677702e-06
5.224222222e-05
-0.0001049328541
1.007915491e-05
5.227055547e-05
5.266329262e-05
5.338615203e-06
-7.398660952e-05
7.397835476e-05
-5.330360442e-06
-7.447853843e-05
5.320533845e-06
7.449661978e-05
5.314394263e-06
-6.654096881e-05
6.653414627e-05
-5.307571721e-06
-6.701859514e-05
5.310489395e-06
6.702250001e-05
5.3376291e-06
-8.889343704e-05
8.888465868e-05
-5.328850743e-06
-8.933940001e-05
5.325230593e-06
8.935179851e-05
5.339865915e-06
-8.143433303e-05
8.142874531e-05
-5.334278192e-06
-8.189374633e-05
5.345983356e-06
8.188762889e-05
-0.0002013463671
0.0002013552262
5.379396825e-06
-9.63294938e-05
9.630758155e-05
-5.357484571e-06
5.404971893e-06
9.672288297e-05
-4.868402171e-06
-6.366378611e-05
4.69114073e-06
-3.558541157e-05
3.556135498e-05
-2.452831796e-06
-5.850730376e-06
-8.189789996e-05
5.854884005e-06
-1.831159656e-05
-0.0001642559762
1.832239228e-05
0.0001642451805
1.830380394e-05
-0.000169796721
0.0001698029762
-1.831005912e-05
-1.832962476e-05
-0.0001567374392
1.832525215e-05
0.0001567418118
-0.0001623805936
0.0001623853257
-1.831632867e-05
-5.859293976e-06
-8.142576943e-05
-1.829269362e-05
-0.000186376865
1.830027532e-05
0.0001863692833
-0.0001921226522
0.0001921340059
-1.82972103e-05
-5.855810489e-06
-9.633092395e-05
-1.221242006e-05
7.501048902e-05
-0.0001494579529
1.218134554e-05
-1.833376136e-05
-0.0001494390321
1.832975837e-05
0.0001494430351
-0.0001548252913
0.0001548151737
-1.831950715e-05
3.818510253e-06
7.761078886e-05
-3.819780418e-06
-7.760951869e-05
7.629341407e-05
-3.760810519e-06
-7.632266916e-05
3.790065604e-06
-5.315232425e-06
-7.631412974e-05
5.316442136e-06
7.631292003e-05
-5.823381065e-06
-8.934403005e-05
5.828011105e-06
-1.827734555e-05
-0.000179032739
1.825140777e-05
0.0001790586768
-0.0001844530025
0.0001844613235
-1.830101464e-05
-0.0001715247248
1.829736815e-05
0.0001715311606
-0.000177200308
0.0001772234804
-1.830051802e-05
-5.846392063e-06
-8.887042604e-05
5.315304817e-06
-8.671593458e-05
8.672848873e-05
-5.327858968e-06
3.840923698e-06
8.664983048e-05
-3.797668996e-06
-8.669308518e-05
-3.720074888e-06
8.555746654e-05
-8.557228623e-05
3.73489458e-06
3.279088134e-06
-3.261288995e-06
-9.239227781e-05
9.237447867e-05
2.434012313e-06
-9.11249128e-05
2.561153091e-06
8.612974739e-05
-5.259469065e-06
-9.106621043e-05
5.253715786e-06
9.107196371e-05
5.324292993e-06
-7.953846862e-05
7.952201781e-05
-5.307842181e-06
3.831903679e-06
7.956061914e-05
-3.858543719e-06
-7.95339791e-05
7.812434315e-05
-7.814991568e-05
3.844082779e-06
8.51099498e-05
-3.68973932e-06
-8.514028537e-05
8.37197297e-05
-3.616889292e-06
-8.374844906e-05
3.645608646e-06
-5.33163168e-06
-8.377346774e-05
5.335450864e-06
8.376964855e-05
5.296617268e-06
-9.44433499e-05
9.444169808e-05
-5.294965451e-06
3.456538177e-06
-3.432738099e-06
-9.434492563e-05
9.432112555e-05
-9.279703538e-05
3.385629522e-06
9.269049399e-05
-5.018938075e-06
-9.875566828e-05
1.32422838e-05
9.053232255e-05
-5.406585105e-06
-9.852566759e-05
5.338635448e-06
9.859361724e-05
1.903522343e-06
-4.623499743e-05
-1.311981904e-06
4.564345699e-05
-4.701476713e-05
5.884408039e-06
4.303388143e-05
1.489036158e-06
-3.673992693e-05
3.68263078e-05
-1.575417023e-06
-3.736100618e-05
1.69705063e-06
3.715299171e-05
8.932240946e-07
-4.252530432e-05
-4.468568398e-07
4.207893707e-05
-4.293350779e-05
9.554316718e-07
4.287130022e-05
-1.411499425e-06
-4.303909643e-05
1.517088062e-06
-3.194642182e-06
-4.316633258e-05
3.2143784e-06
4.314659636e-05
3.255836769e-06
-4.45824794e-05
4.456487119e-05
-3.238228561e-06
-3.439967996e-06
-4.124712599e-05
3.282558295e-06
4.140453569e-05
-4.27627866e-05
4.275761074e-05
-3.189466319e-06
-1.280247714e-06
-4.265655603e-05
-1.927608403e-06
-4.696802453e-05
1.880865804e-06
-3.26352523e-06
-4.68210368e-05
3.251213705e-06
4.683334832e-05
3.220026023e-06
-4.806594752e-05
4.807768891e-05
-3.231767416e-06
-4.515760864e-05
3.252289135e-06
4.516115627e-05
-4.623940794e-05
4.623976733e-05
-3.263884618e-06
-1.901025099e-06
-4.626158074e-05
3.957232266e-05
-1.523544556e-06
-3.97336838e-05
1.684905689e-06
-3.294105128e-06
-3.978388855e-05
3.273819026e-06
3.980417465e-05
-4.093191008e-05
4.087933379e-05
-3.3873917e-06
7.663163668e-07
-3.916001206e-05
3.897918148e-05
-5.854857818e-07
1.096140636e-06
3.924249839e-05
-1.7904148e-06
-5.794694103e-05
2.287587011e-06
5.744976882e-05
-3.233440683e-06
-5.786341178e-05
3.234703203e-06
5.786214926e-05
3.218811963e-06
-5.903128992e-05
5.904256213e-05
-3.23008417e-06
-3.236930261e-06
-5.584919313e-05
3.251266902e-06
5.583485649e-05
-5.733756121e-05
5.734814081e-05
-3.244020291e-06
-1.78127419e-06
-5.734228523e-05
5.733314462e-05
-3.203494342e-06
-6.146601264e-05
3.195626011e-06
6.147388097e-05
3.196894862e-06
-6.264229882e-05
6.264985019e-05
-3.204446239e-06
-5.95434809e-05
3.210401473e-06
5.955189139e-05
-6.100384085e-05
6.100152905e-05
-3.201182536e-06
-1.411897998e-06
-5.034421262e-05
1.435910926e-06
5.032019969e-05
-3.24018315e-06
-5.037953042e-05
3.237369738e-06
5.038234383e-05
3.242540899e-06
-5.188991374e-05
5.18902267e-05
-3.242853855e-06
-4.849802185e-05
3.216617844e-06
4.850143003e-05
-4.999639523e-05
4.999018401e-05
-3.233971931e-06
-1.37947343e-06
-4.991842777e-05
4.98860032e-05
-1.631059366e-06
-5.409382439e-05
1.63184835e-06
5.40930354e-05
-3.246626925e-06
-5.41172817e-05
3.248270665e-06
5.411563796e-05
-5.542893769e-05
5.543569838e-05
-3.243690953e-06
-5.22877272e-05
3.252765121e-06
5.227750298e-05
-5.352283203e-05
5.353144895e-05
-3.255243837e-06
-1.569924663e-06
-5.349958069e-05
5.343844599e-05
-3.085433235e-06
-7.256749072e-05
3.09924812e-06
7.255367584e-05
3.158869641e-06
-7.396462334e-05
7.394929081e-05
-3.143537114e-06
-3.037268449e-06
-7.082110932e-05
3.006700738e-06
7.085167703e-05
-7.216140636e-05
7.213982817e-05
-3.063855043e-06
-3.251273188e-06
3.268162457e-06
7.627652481e-05
3.357370819e-06
7.758304234e-05
-3.329624296e-06
-7.448364134e-05
3.18815223e-06
7.445435875e-05
-7.588658237e-05
7.586966008e-05
-3.234350896e-06
-3.228201716e-06
-6.515197615e-05
3.254166585e-06
6.512601128e-05
3.283811373e-06
-6.654234233e-05
6.652852227e-05
-3.269991318e-06
-6.310618961e-05
3.199069647e-06
6.310401482e-05
-6.467596557e-05
6.466221228e-05
-3.214448429e-06
-3.334751064e-06
-6.88656694e-05
3.309081524e-06
6.889133893e-05
-7.030188212e-05
7.039380866e-05
-3.129194988e-06
-6.701572163e-05
3.297116673e-06
6.700241633e-05
-6.840347803e-05
6.839755354e-05
-3.328826578e-06
8.884025269e-05
3.989329722e-06
-3.938124885e-06
-8.889145753e-05
8.72435972e-05
-8.728484747e-05
3.882173968e-06
-8.733951839e-05
5.336294879e-06
8.731852833e-05
-3.125822027e-06
3.115168659e-06
8.725425057e-05
3.20856798e-06
-3.191401716e-06
8.882308643e-05
-2.94886426e-06
2.9565446e-06
8.554978619e-05
-3.007337112e-06
8.653134556e-05
-8.935993585e-05
4.199603169e-06
8.836890066e-05
-9.057667686e-05
9.06043325e-05
-5.287124698e-06
1.745458888e-05
-9.079988805e-05
7.577931148e-05
-8.937281625e-05
4.002210127e-06
8.148619233e-05
3.54084622e-06
-3.570896517e-06
-8.145614203e-05
8.007957112e-05
-8.002049673e-05
3.772829287e-06
-7.99900868e-05
5.316298311e-06
7.999808148e-05
-3.439129835e-06
3.369621578e-06
8.014907938e-05
2.152360648e-06
2.273277694e-06
7.706055399e-05
3.380049142e-06
7.810166483e-05
7.954600614e-05
-3.424516834e-06
-2.855261832e-06
2.878197589e-06
8.369679394e-05
-2.925231815e-06
8.508631736e-05
-8.188444453e-05
2.771222724e-06
8.126558245e-05
-8.325503019e-05
-2.833539513e-06
8.323330788e-05
-8.329177828e-05
8.328667422e-05
-5.326527621e-06
-3.590630833e-06
-8.328128865e-05
-8.189281684e-05
3.549218537e-06
3.603567322e-06
-3.581068053e-06
-9.624678169e-05
9.622428242e-05
-9.482468356e-05
3.498470635e-06
9.47827511e-05
-9.490702432e-05
5.316203153e-06
9.488743844e-05
-9.780920163e-05
9.782405283e-05
-5.421436303e-06
-3.812973515e-06
-9.772857084e-05
9.652260628e-05
-9.665129064e-05
3.586682033e-06
9.666817592e-05
-1.217320976e-05
6.746544852e-05
-0.0001344788426
1.216800869e-05
-1.836222187e-05
-0.0001344683861
1.835839513e-05
0.0001344722128
1.835148415e-05
-0.0001401181998
0.0001401205028
-1.835378718e-05
-0.0001268211279
-1.836222482e-05
1.835992649e-05
0.0001268234263
-0.0001326131371
0.0001326030218
-1.835210647e-05
6.607681707e-05
-1.218018413e-05
-0.0001326108115
-0.0001420834187
1.834918218e-05
0.0001420857206
-0.0001474550378
0.0001474607451
-1.833946868e-05
7.345090227e-05
-1.218788518e-05
-0.0001474620467
5.334352491e-06
-7.217151964e-05
7.216928697e-05
-5.332119819e-06
3.683711803e-06
-3.672788491e-06
-7.217232967e-05
-3.679123103e-06
-7.080822986e-05
3.666243645e-06
-3.706915763e-06
-7.027408946e-05
-3.787096115e-06
-6.885005627e-05
3.771482988e-06
-5.309642538e-06
-6.886803918e-05
5.313867954e-06
6.886381377e-05
-4.540552385e-05
1.151982763e-06
4.539525133e-05
-1.990780848e-06
-4.22023831e-05
3.525976434e-05
-5.306865658e-06
5.784921448e-05
-4.377170881e-05
-1.040433115e-06
4.364599392e-05
-4.385592353e-05
-1.591639458e-06
2.177392043e-06
-2.117787073e-06
-4.39155285e-05
2.230440264e-06
-4.453597783e-05
-4.78568528e-05
9.705079687e-06
3.986908345e-05
1.975071452e-06
-2.059567611e-06
-4.777235664e-05
1.964393845e-06
-4.810202869e-05
2.267710954e-06
-4.513717947e-05
4.544881865e-05
2.295700655e-06
-4.547680835e-05
1.828462825e-06
-3.316862713e-06
-3.811229464e-05
3.264123873e-06
3.816503348e-05
-3.946241061e-05
3.944729625e-05
-3.278990773e-06
-1.412570441e-06
-3.927098618e-05
3.927428192e-05
8.112073212e-07
-3.869847225e-05
-1.199024011e-06
-8.887543129e-06
4.936084906e-05
3.80879221e-05
-1.005585373e-06
-1.497233897e-06
3.744516735e-05
-4.030056133e-05
-7.802575513e-07
3.958358498e-05
-1.33246689e-06
-4.050739456e-05
-7.262756192e-05
-7.077440825e-06
7.970500275e-05
-1.175493866e-05
-2.235588134e-06
-5.863703512e-05
-1.856958769e-06
-5.909507176e-05
4.919709187e-05
2.300463547e-06
-2.283563549e-06
-5.583930185e-05
5.624206135e-05
2.313588139e-06
-5.625518594e-05
1.696035199e-06
5.620187959e-05
1.88550379e-06
-1.87500617e-06
-6.229492326e-05
6.228442564e-05
1.885928159e-06
-6.265437411e-05
6.265394974e-05
1.384103733e-06
-5.958995839e-05
5.634889589e-05
1.812740972e-06
-6.006304415e-05
5.963440691e-05
-5.135908501e-05
-1.506120393e-06
5.137554092e-05
2.130988155e-06
-2.114686217e-06
-5.137538695e-05
2.158893121e-06
-5.187642383e-05
1.970821554e-06
-4.849947514e-05
4.896394268e-05
2.007899383e-06
-4.900102051e-05
1.395506884e-06
4.889757147e-05
-5.502874339e-05
-1.59290572e-06
5.500709041e-05
2.265213947e-06
-2.246348487e-06
-5.504760885e-05
-5.541882879e-05
2.167440006e-06
-5.227265142e-05
5.263971183e-05
2.185871061e-06
-5.265814289e-05
1.527895443e-06
5.262749409e-05
3.719804498e-06
-3.707301743e-06
-7.39771261e-05
-7.257964185e-05
3.695862931e-06
-7.257354872e-05
5.339750199e-06
7.256815101e-05
-7.589547229e-05
7.589153e-05
-5.311290141e-06
-3.746040067e-06
-7.590135283e-05
-7.448252669e-05
3.718689853e-06
3.78502645e-06
-3.773801313e-06
-6.655356746e-05
-3.766116371e-06
-6.515036925e-05
3.764509473e-06
-5.324948174e-06
-6.514762256e-05
5.318298434e-06
6.51542723e-05
2.082118795e-06
-2.05838993e-06
-6.603598011e-05
6.601225125e-05
2.117913568e-06
-6.651192314e-05
6.647612837e-05
1.988970926e-06
-6.307636273e-05
6.297331996e-05
1.976244479e-06
-6.364607415e-05
6.365880059e-05
-8.762866687e-06
-8.659057608e-05
9.535344276e-05
2.128403307e-06
-6.696225547e-05
6.695176573e-05
-6.743569376e-05
2.161709076e-06
6.740238799e-05
-6.839771101e-05
6.840614996e-05
-5.318081485e-06
-3.791174566e-06
-6.839939958e-05
-6.701509385e-05
3.784398667e-06
-8.624357356e-05
8.621200023e-05
-3.766095668e-06
4.306491441e-06
-8.627184255e-05
-4.278222449e-06
4.33251331e-06
-8.671910705e-05
-9.197646252e-05
-3.230771313e-06
9.194594485e-05
4.065261878e-06
-4.030778478e-06
-9.201094592e-05
4.080888108e-06
-9.240790404e-05
4.010284042e-06
-4.028800543e-06
-9.11063963e-05
9.155739836e-05
-9.15778928e-05
9.088778014e-05
3.771499374e-06
-2.988609518e-06
-0.0001004397673
9.965687747e-05
-0.0001008184965
0.0001007896667
-9.38647193e-05
-3.408855673e-06
9.384083688e-05
4.217714357e-06
-4.158657096e-06
-9.392377656e-05
4.259914133e-06
-9.43871254e-05
4.118357261e-06
-9.283450453e-05
9.334894572e-05
-9.338924556e-05
9.332571957e-05
-2.441387342e-06
1.886990561e-05
-9.986855145e-05
8.344003318e-05
-0.0001000954047
9.466540784e-05
4.689876603e-06
-4.726047057e-06
-9.871949782e-05
0.0001230315061
-9.947172388e-05
0.0001362737899
-4.566829428e-05
4.550829514e-05
-5.919403197e-05
6.507844001e-05
1.098945174e-06
-3.653252389e-05
-1.284341374e-06
1.383937504e-06
-3.657845869e-05
-2.562959136e-06
8.863051324e-06
-3.784733335e-05
5.196410225e-07
-3.746875576e-05
3.43861556e-05
1.491747874e-06
-3.684815964e-05
4.836032789e-05
-3.80055287e-05
-4.225901698e-05
3.982137929e-05
-4.330542039e-05
4.322041895e-05
2.222536763e-06
-2.309646322e-06
-4.688091497e-05
4.760808648e-05
-4.744511733e-05
-4.574085656e-05
2.320194657e-06
-4.576535056e-05
-4.62510324e-05
2.418316186e-06
3.838800299e-08
3.652247729e-05
-3.920135871e-05
3.273213177e-05
-3.897563717e-05
4.912996273e-06
3.369456685e-05
5.427384534e-05
3.977771948e-05
-4.001404573e-05
-6.30616349e-07
3.962807828e-05
3.865027005e-05
2.301603433e-06
-2.344413063e-06
-5.79041314e-05
5.834944712e-05
-5.828343182e-05
5.35595933e-05
-5.672151491e-05
5.663627592e-05
2.346346151e-06
-5.675427292e-05
-5.734035214e-05
1.865357856e-06
-1.856621935e-06
-6.144694132e-05
6.14382054e-05
-6.190034094e-05
6.189069262e-05
1.839916245e-06
-6.051537903e-05
6.048820375e-05
-6.099113076e-05
6.097442507e-05
2.097847134e-06
-2.080364181e-06
-5.036169557e-05
5.080919634e-05
-5.082603542e-05
5.073898687e-05
-4.949995856e-05
4.951599202e-05
2.027697238e-06
-4.951975642e-05
-4.997109471e-05
2.248273652e-06
-2.241361968e-06
-5.410073607e-05
5.463668771e-05
-5.463476255e-05
5.467563034e-05
-5.302445175e-05
5.298242253e-05
2.214159619e-06
-5.305274031e-05
-5.352678304e-05
7.297844893e-05
3.101170366e-06
-7.298037118e-05
-2.356920223e-06
2.380514255e-06
7.29548549e-05
-2.32133138e-06
7.251808699e-05
-2.416830709e-06
2.4539961e-06
7.391212542e-05
-7.34170616e-05
7.338074515e-05
-7.345942835e-05
7.127923735e-05
3.041295447e-06
-7.131383206e-05
-1.743495413e-06
2.29942359e-06
7.072330918e-05
2.108598327e-06
6.699958329e-05
-2.290108214e-06
7.2108605e-05
-7.175522932e-05
7.176454469e-05
-7.177778891e-05
7.668298399e-05
3.29925073e-06
-7.671407227e-05
-2.529678328e-06
2.53923622e-06
7.66734261e-05
-2.5203744e-06
7.626722088e-05
-2.591450691e-06
2.642044108e-06
7.753244892e-05
-7.708974735e-05
7.703753288e-05
-7.712012091e-05
7.497334689e-05
3.203566986e-06
-7.498876165e-05
-2.477602559e-06
2.472477905e-06
7.497847155e-05
7.443075229e-05
-2.482592603e-06
7.583187828e-05
-7.544871613e-05
7.543860143e-05
-7.547950003e-05
2.046759838e-06
-6.512101449e-05
-2.011126277e-06
6.508538093e-05
-6.557228659e-05
6.55606565e-05
6.560174603e-05
3.268248356e-06
-6.56158278e-05
-2.713366909e-06
2.742826349e-06
-2.708370125e-06
-2.77221538e-06
2.788814514e-06
-6.606536914e-05
-6.606711211e-05
1.999881123e-06
-6.416893802e-05
6.414530138e-05
-6.463321421e-05
6.462196906e-05
2.974185519e-06
-6.887850467e-05
-2.233014822e-06
6.813733397e-05
-6.945031327e-05
6.366163211e-05
6.939438026e-05
3.237061842e-06
-6.932236058e-05
-2.909094739e-06
2.853161728e-06
-2.896260471e-06
1.381434214e-05
5.868806485e-05
-6.992307221e-05
-6.981520536e-05
6.744646165e-05
3.308496168e-06
-6.745784115e-05
-2.828975376e-06
2.839743267e-06
-2.875443111e-06
6.837673618e-05
-6.791438075e-05
6.78786809e-05
-6.793471116e-05
2.198935073e-06
6.784145491e-05
6.834265643e-05
-8.837129457e-05
-3.918116429e-06
8.835128612e-05
4.397475957e-06
-4.3787977e-06
-8.838997283e-05
4.400099616e-06
-8.889408119e-05
4.356761225e-06
-8.730909539e-05
8.786997452e-05
-8.789201099e-05
8.783403206e-05
3.13447993e-06
8.781472078e-05
8.829436433e-05
2.93263511e-06
-8.592509818e-05
8.594900767e-05
8.613729823e-05
1.165526525e-05
-8.996483347e-05
8.250917139e-05
-0.0001118068681
0.0001234621334
-9.040592867e-05
-3.946350568e-06
4.142629511e-06
-4.304352327e-06
-9.024420585e-05
-9.068605908e-05
4.384345771e-06
-8.935706241e-05
8.990897391e-05
-8.982898047e-05
9.974655989e-05
-1.575004452e-05
-8.062689379e-05
-1.021776749e-05
0.0001099643274
-3.580406866e-06
7.351171876e-05
-8.106802976e-05
6.759126294e-05
7.859880763e-05
3.388604223e-06
-7.860736271e-05
-2.647107124e-06
2.68592274e-06
7.855999201e-05
7.809660181e-05
-2.705189823e-06
7.867078909e-05
-7.90424646e-05
7.902319752e-05
-7.907837721e-05
2.901647924e-06
-8.419901047e-05
8.417556014e-05
-8.466217468e-05
8.463859079e-05
2.785978622e-06
-8.233643809e-05
8.232168219e-05
-8.280203625e-05
8.275447536e-05
-9.575006499e-05
-3.540054357e-06
9.57090513e-05
4.387359287e-06
-4.345265854e-06
-9.579215843e-05
4.410161896e-06
-9.62695843e-05
4.302589302e-06
-9.486735872e-05
9.528748492e-05
-9.533016147e-05
9.52459012e-05
-9.710381861e-05
-3.575070477e-06
9.686591557e-05
4.644510985e-06
-4.499702698e-06
-9.724862689e-05
-9.781010691e-05
4.463211052e-06
-9.670433979e-05
9.695674688e-05
-9.699323853e-05
9.696835843e-05
0
0
0
0
0
0
0
0
0
0
0
0
0
0
0
0
0
0
0
-1.826324937e-08
0
-4.434265067e-06
4.926059227e-06
-5.851684097e-07
1.986550397e-06
0
0
0
-7.668508527e-06
-1.6852397e-06
-1.835236976e-05
1.059859728e-05
-4.457594538e-06
1.497481413e-05
0
0
0
-2.115930217e-05
-4.35052034e-06
0
0
0
0
0
0
0
0
0
-4.209881705e-07
0
-1.324510868e-05
2.477034399e-05
-1.168369398e-05
6.854199742e-06
0
2.80632761e-07
-2.12556402e-05
-2.025717057e-05
-4.954419656e-05
6.303967339e-05
-4.334848912e-05
3.998700298e-05
7.73050406e-06
1.372458823e-05
-5.850654177e-05
-4.699838675e-05
-7.797013438e-05
5.328348067e-05
-4.090573309e-05
7.299211048e-05
2.836230109e-05
1.901929975e-05
-8.125390811e-05
-3.36867547e-05
0
0
0
-5.110981937e-06
2.18988258e-05
-1.120370764e-05
1.560304472e-06
0
7.861498764e-07
-1.073591603e-05
-2.622321748e-05
-3.698752898e-05
0.0001137743859
-8.758399932e-05
2.718741485e-05
1.250844393e-05
4.224274218e-05
-4.700997293e-05
-0.0001059598636
-7.246956024e-05
0.0001555685182
-0.0001321336764
6.52463287e-05
5.091233161e-05
8.498528116e-05
-7.80437815e-05
-0.0001291110781
-8.456917792e-05
9.967921234e-05
-8.947714498e-05
8.399021309e-05
8.354796835e-05
6.584983956e-05
-8.37956162e-05
-6.891535665e-05
-5.854331683e-08
1.198221115e-07
-5.256625105e-06
-3.148758461e-06
9.365696882e-05
-7.377991582e-05
1.323131411e-06
2.361859999e-06
3.65499714e-05
-5.522696885e-06
-0.0001075262754
-8.256406247e-06
0.0002256826809
-0.0001989394122
8.654235235e-06
2.797847356e-05
0.0001413036892
-6.484277587e-06
-0.0002168671825
-9.662147304e-06
0.0002354111048
-0.0002166791308
1.017561954e-05
6.071431123e-05
0.0001778258777
-6.313488335e-06
-0.0002005698832
1.904926745e-06
0.0001248471837
-0.000120731309
1.12823061e-06
7.182836065e-05
0.0001083865274
4.921615021e-06
-8.870546366e-05
-3.520505991e-06
8.178154914e-06
-3.033454295e-05
3.257086413e-05
0.0001635982461
-0.0001510594555
-2.331081747e-05
-2.108531421e-06
0.0001136782703
4.024584299e-05
-0.0001959878127
7.077422605e-05
0.0003075554185
-0.0002911763814
-6.019211101e-05
-1.966464505e-06
0.0002495944585
8.170581763e-05
-0.0003011911966
0.0001170470307
0.0002695816894
-0.0002676425122
-0.0001044416722
-1.694760315e-05
0.0002502044333
0.0001259052592
-0.0002376432829
0.0001331061621
0.0001328797837
-0.0001297020195
-0.0001361148791
-3.181943225e-05
0.000128085571
0.0001300635666
-9.369603144e-05
-1.422534533e-05
2.798750012e-05
-6.006081372e-05
8.859130341e-05
0.000212301911
-0.0002049162686
-6.594478057e-05
-3.095050308e-05
0.0001801904816
0.0001125628609
-0.0002531327731
0.0001835469942
0.0003456352949
-0.0003390845425
-0.0001608546952
-8.745900902e-05
0.0003226400915
0.000204672242
-0.000341370173
0.0002497382939
0.0002725210891
-0.0002724751596
-0.000239309317