/*--------------------------------*- C++ -*----------------------------------*\
| =========                 |                                                 |
| \\      /  F ield         | OpenFOAM: The Open Source CFD Toolbox           |
|  \\    /   O peration     | Version:  v2012                                 |
|   \\  /    A nd           | Website:  www.openfoam.com                      |
|    \\/     M anipulation  |                                                 |
\*---------------------------------------------------------------------------*/
FoamFile
{
    version     2.0;
    format      ascii;
    class       volVectorField;
    location    "0.27";
    object      U;
}
// * * * * * * * * * * * * * * * * * * * * * * * * * * * * * * * * * * * * * //

dimensions      [0 1 -1 0 0 0 0];


internalField   nonuniform List<vector> 
3019
(
(99.99899219 0.002460321931 -4.353034072e-21)
(99.99850294 0.008642584808 -1.210370034e-25)
(99.9973139 0.01919887411 -4.349306749e-21)
(99.99512247 0.03751373027 -4.329116803e-21)
(99.999678 0.03052094567 4.19390175e-21)
(99.99750032 0.05158593053 0)
(99.99610884 0.08502302597 0)
(99.99559426 0.1317179342 -7.484218859e-21)
(99.99422231 0.1945153137 8.794420297e-22)
(99.99315527 0.2728418365 -5.86093482e-21)
(99.99317162 0.3588868608 6.816392829e-22)
(99.99379846 0.4364489457 0)
(99.99096166 0.006225886404 1.742156427e-20)
(99.98576378 0.02249263652 4.355364716e-21)
(99.9745464 0.05087286639 3.045411127e-20)
(99.9553143 0.1021672624 -1.304488201e-20)
(99.95722991 0.143305815 4.222265779e-21)
(99.92638564 0.245615659 -4.222326632e-23)
(99.88627696 0.4055990833 0)
(99.86447739 0.5537776033 -7.516378996e-21)
(99.81751028 0.8272230067 -7.022764762e-21)
(99.77658058 1.176979104 -1.240936812e-20)
(99.76121963 1.575386307 -5.224307121e-21)
(99.79373255 1.944531021 -7.045636814e-21)
(99.97665871 0.006757135213 -1.738270571e-20)
(99.96209772 0.02629697643 -3.488147637e-20)
(99.93101738 0.06432701075 -7.836175344e-20)
(99.87979524 0.1336414486 1.04311187e-19)
(99.84856061 0.2198790962 -8.63625417e-21)
(99.75964029 0.3930947768 -8.441934408e-21)
(99.63644734 0.6644696545 -1.467049704e-20)
(99.56345635 0.9672104429 0)
(99.41215416 1.481893152 2.905388909e-20)
(99.27866601 2.158417391 -2.654814205e-20)
(99.23863685 2.963307237 7.066781744e-19)
(99.37123059 3.786226239 0)
(99.96328593 0.002024097288 -8.749817934e-21)
(99.93547352 0.0134559347 6.128400645e-20)
(99.87648035 0.04850827629 -1.753144135e-20)
(99.77995457 0.1189120302 0)
(99.70081552 0.2375547129 0)
(99.52296536 0.4573301413 -6.806004115e-20)
(99.27479281 0.8131494605 -1.363513307e-19)
(99.06969234 1.256038609 3.236985979e-20)
(98.72574521 1.996142682 9.840006399e-22)
(98.41368635 3.053273198 0)
(98.2674199 4.472367839 2.975717031e-18)
(98.53360976 5.99330665 -1.136201641e-18)
(99.96328952 -0.009249434997 0)
(99.92006179 -0.02012421113 0)
(99.8293776 -0.004986857122 8.815368585e-21)
(99.67901349 0.04869143553 1.335371215e-20)
(99.53793917 0.1804236751 2.215032865e-20)
(99.24661129 0.4092585038 0)
(98.83804009 0.7886488198 0)
(98.43637292 1.333729391 0)
(97.81531898 2.272879437 2.55816089e-19)
(97.11281302 3.824896662 1.456551657e-18)
(96.66134493 6.118587104 2.250791308e-19)
(97.23130898 8.802238859 5.88609512e-19)
(99.99078879 -0.02750512788 0)
(99.93184989 -0.07553899522 0)
(99.80984221 -0.09880058916 -1.76824451e-20)
(99.60455869 -0.08435808127 3.594687364e-20)
(99.38716557 0.03607463623 0)
(98.97669579 0.2288364787 0)
(98.38337323 0.5736557031 2.823802374e-20)
(97.75574542 1.139103494 8.510395698e-19)
(96.71124326 2.191844323 -5.5449717e-19)
(95.30709156 4.128655468 0)
(93.96472467 7.447950927 -8.251458069e-19)
(94.19260585 12.38541727 0)
(100.0594024 -0.05228628111 4.309647005e-21)
(99.98637868 -0.1512119959 -4.340888925e-21)
(99.83701748 -0.2303058303 8.857319552e-21)
(99.5832818 -0.2774300049 -3.245107752e-20)
(99.2884824 -0.1969037336 8.759085896e-23)
(98.76696377 -0.08635324664 2.775455781e-20)
(98.00528183 0.1555769054 -5.747598141e-20)
(97.146804 0.6342753077 -1.187611141e-18)
(95.59230007 1.597379719 1.185837087e-18)
(93.21495885 3.483430677 -5.815349426e-19)
(89.91318953 7.027120748 0)
(86.378714 14.8893334 1.278878145e-18)
(100.1808264 -0.08227312515 -4.310094568e-21)
(100.0970923 -0.2430117552 4.34244212e-21)
(99.9277194 -0.3914426454 -5.508265322e-21)
(99.63873945 -0.5178409897 -3.701799729e-21)
(99.27627877 -0.5033482476 1.579528494e-20)
(98.67081926 -0.5136353724 9.399024928e-21)
(97.79722982 -0.4476102149 -4.87506031e-21)
(96.73900774 -0.1562351957 0)
(94.77821855 0.4387166726 -1.271500455e-18)
(91.60946575 1.569220622 5.863634357e-19)
(86.47360635 3.309833025 -1.96196911e-18)
(77.00840973 6.518099324 -2.594718555e-18)
(100.3635695 -0.1154367907 -2.073434572e-21)
(100.2737948 -0.3446177373 -1.557433687e-21)
(100.0942327 -0.5703083137 -5.339894182e-22)
(99.78739699 -0.7861186989 1.614288424e-21)
(99.37598157 -0.8563660787 -3.108178005e-23)
(98.72728852 -1.010478705 0)
(97.81488138 -1.154976282 8.116536866e-20)
(96.64085879 -1.122377261 -7.802646865e-20)
(94.51512804 -1.037101606 -1.006586188e-18)
(91.22001613 -0.9226312477 -6.818071926e-19)
(86.42383856 -1.3771248 -4.199060229e-18)
(80.23425035 -3.677270079 2.44649372e-18)
(100.6117505 -0.149326088 4.083974531e-21)
(100.5211539 -0.4484294346 6.39058109e-23)
(100.3421737 -0.7527415504 0)
(100.0368132 -1.060322039 2.081025039e-22)
(99.59869841 -1.224606223 -2.161987728e-21)
(98.95249403 -1.526462696 2.300053112e-21)
(98.07140018 -1.880815415 3.084845549e-22)
(96.88691644 -2.10984422 -1.259454664e-18)
(94.84673776 -2.494108683 1.671279392e-18)
(91.87691341 -3.128778285 7.955071527e-19)
(88.11506039 -4.499569267 3.855193688e-18)
(84.35353853 -6.84960859 5.026622411e-19)
(100.9246282 -0.1815673959 -2.010363664e-21)
(100.8381185 -0.5469625569 2.027146663e-21)
(100.6694239 -0.9246518453 1.974790554e-21)
(100.3846401 -1.320033646 -1.846816079e-21)
(99.94003531 -1.576828939 -2.128572003e-21)
(99.33856118 -2.012170964 0)
(98.54215582 -2.548763156 -1.519559728e-19)
(97.4260531 -3.004652344 1.17813673e-18)
(95.59458976 -3.738626983 -6.551593214e-19)
(93.06997566 -4.808761297 -7.470590396e-19)
(90.07527008 -6.469111638 0)
(87.19911344 -8.501940748 -5.10329359e-18)
(101.2967969 -0.2100679489 7.367925513e-21)
(101.2187006 -0.6335823883 0)
(101.0677656 -1.072639391 -1.970917707e-21)
(100.8165391 -1.550696648 0)
(100.3826668 -1.886743964 0)
(99.86040086 -2.428064655 -6.312913965e-21)
(99.1837791 -3.104635127 -1.403433672e-19)
(98.18789615 -3.733899122 -1.112551288e-18)
(96.62284406 -4.697706389 1.230863714e-18)
(94.53209086 -6.014137672 -6.416312681e-19)
(92.06268478 -7.831651628 5.546357375e-20)
(89.49171251 -9.851819839 -3.714565597e-19)
(79.57161831 -2.986868681 -2.511597782e-18)
(83.93424983 -6.571819047 -2.584891358e-18)
(86.88888668 -8.332688186 1.72012433e-18)
(89.20475011 -9.677183521 -1.901708064e-18)
(77.66852602 8.308909708 2.589233923e-18)
(87.64067135 -3.856255658 -1.925171697e-18)
(84.38846957 -6.134228901 2.020303955e-18)
(81.0887383 -3.073211217 2.389039765e-18)
(89.58362782 -6.048734535 0)
(87.22196947 -7.995978653 0)
(84.78575667 -6.425335548 1.979619367e-18)
(85.52161564 -7.56836494 1.389511675e-18)
(84.53844313 -8.925644784 1.725430649e-18)
(82.97749767 -8.250331669 -1.378490344e-20)
(91.55744576 -7.532410272 -1.500284806e-18)
(89.50266412 -9.386641566 -1.509881113e-18)
(87.52561294 -8.177976967 1.704436565e-18)
(88.07882684 -8.996501923 0)
(87.04090211 -9.967768175 -8.559069913e-22)
(86.12442641 -9.480700393 1.621575246e-18)
(89.78607445 -9.556504703 -8.076003304e-21)
(90.52927097 -10.3408222 1.152868636e-18)
(89.00435762 -11.4756296 -5.274188903e-19)
(88.07638578 -10.74287774 1.129367729e-18)
(70.79930685 -4.332920926 0)
(77.02927673 -6.995610239 -5.886913316e-19)
(64.59549775 10.08292029 0)
(69.63551136 -3.461013077 0)
(82.75168608 -8.135068429 2.320195978e-18)
(81.02578631 -7.412407928 1.986797287e-18)
(82.53555365 -5.584723003 0)
(80.81417152 -7.719248982 -4.862275578e-19)
(82.62560096 -8.329475738 2.600455637e-21)
(77.6388175 -7.127405254 2.86864854e-18)
(80.51996793 -7.644637895 -2.554246176e-18)
(85.97029915 -9.418774554 4.278275143e-21)
(84.74220117 -8.995247147 -1.264195976e-18)
(85.8840312 -7.776137307 -4.945316412e-19)
(84.54375696 -9.134718288 0)
(85.84859158 -9.5387418 0)
(82.73715548 -8.397359968 -5.280308312e-21)
(84.44181641 -9.093458462 -1.347173022e-18)
(88.00902393 -10.69472124 -2.256784862e-18)
(87.09818271 -10.00804826 -1.192525483e-18)
(88.3607027 -9.163061154 -1.575548127e-18)
(86.95091688 -10.0582549 -4.185351246e-21)
(87.79791767 -10.75555887 1.143035898e-18)
(85.92331325 -9.576566455 0)
(86.89769232 -10.01975444 5.542540524e-23)
(89.06795551 -11.53261368 -1.051539283e-18)
(90.68604758 -10.4358394 -1.134928089e-18)
(88.72863177 -11.58080226 -2.154291932e-18)
(87.86423886 -10.80262902 0)
(88.67502255 -11.52565525 5.313417378e-19)
(86.17317149 -0.3345189087 2.07538785e-18)
(80.54953028 -2.37209378 2.43420319e-18)
(78.93036735 6.068545038 -2.381462521e-18)
(77.11676574 1.361659765 -2.698155216e-18)
(70.81405348 -2.381261045 0)
(67.15010336 9.550637364 0)
(82.01654595 -5.198661082 0)
(80.73018397 -7.322217377 0)
(77.84118921 -6.505436151 -2.335796066e-18)
(77.2645955 -6.317566144 0)
(71.76867905 -3.282426289 -2.856301878e-18)
(77.61814695 -0.01244387538 2.633937843e-18)
(73.70579158 -9.990843355 1.278409123e-18)
(48.41900116 15.06515306 0)
(54.99262822 -4.971307355 0)
(76.85281534 23.03293206 0)
(65.36721414 12.67348302 0)
(88.59335182 -11.09813794 1.159223405e-18)
(89.45247447 -10.69185979 0)
(89.9077003 -10.9810918 -2.525149023e-18)
(68.15795915 -10.8257669 0)
(73.13373331 -10.13042582 -5.215853333e-18)
(73.92416005 -6.060479677 -1.965559451e-18)
(73.34186626 -9.656232249 4.567127156e-18)
(68.3120112 -9.582018846 2.46064589e-18)
(76.44163302 -9.150534407 0)
(73.87930111 -9.568531391 -2.283216954e-18)
(74.8062042 -6.38976007 5.176200264e-18)
(65.25521162 2.690688006 0)
(56.65341429 -3.220642852 0)
(51.48226344 14.15861518 -3.465330112e-18)
(67.31358066 -9.305050824 0)
(58.09755641 -4.665159126 0)
(66.19409921 0.676266541 0)
(56.74300918 -6.420010496 0)
(67.14705349 -10.37846465 0)
(81.71229064 -7.912640132 -1.466866326e-18)
(79.61831271 -8.508100435 3.237494351e-18)
(81.83161446 -7.966229532 1.465531278e-18)
(79.11108555 -7.378704376 0)
(78.31804542 -8.641571507 -4.374425732e-18)
(76.68785812 -9.076387416 -6.567511276e-21)
(79.50926464 -8.493082223 2.188300981e-22)
(78.49121573 -8.580827541 4.375895616e-18)
(79.50520638 -7.443053014 0)
(85.20509512 -9.319643375 -1.320505473e-18)
(85.29115773 -9.354616165 1.315010167e-18)
(83.55022988 -8.771591148 -1.405503611e-18)
(83.66499996 -8.829051233 -2.797247711e-18)
(87.35873145 -10.37279721 6.197723734e-19)
(87.41682539 -10.41598837 -1.234796149e-18)
(86.42050445 -9.773122029 1.210875602e-18)
(86.48352091 -9.803853687 -1.210670608e-18)
(90.06615318 -11.08013956 1.246605074e-18)
(88.30751924 -11.09333604 -3.609864099e-18)
(88.36116612 -11.13937182 4.368912343e-21)
(63.95178364 32.9524682 0)
(49.39614063 18.43895393 0)
(86.6058599 -9.742323582 0)
(87.20614434 -9.301205313 0)
(87.62637219 -9.53373324 4.977164913e-21)
(86.60670385 -9.00475393 1.503391525e-18)
(87.0611367 -9.226112157 0)
(86.53848826 -9.713238217 0)
(88.87314559 -10.32073409 0)
(89.30609877 -10.59730832 0)
(88.53401052 -11.04948187 1.155829753e-18)
(85.48252927 -9.240025251 -2.07193909e-18)
(85.95039789 -8.705637991 1.543274719e-18)
(86.44837789 -8.930369819 -1.501954066e-18)
(85.32223776 -9.726918487 -1.480841852e-18)
(85.12146572 -9.6478426 -2.150451563e-21)
(85.61896341 -9.45989661 0)
(87.58452482 -10.36211621 0)
(88.31172851 -9.959296287 1.386137884e-18)
(88.73100631 -10.22920908 0)
(87.76321045 -9.615509885 1.415642254e-18)
(88.17365661 -9.87103077 -1.383977792e-18)
(87.52274655 -10.31687402 0)
(87.11458855 -10.19008697 1.248101076e-18)
(86.14756436 -10.27475671 -5.036191448e-22)
(86.04472355 -10.11855172 0)
(86.02756377 -10.77366396 0)
(85.89186825 -10.63490821 -4.10583158e-18)
(87.61377359 -10.60343552 1.709062229e-18)
(86.14607552 -9.657395492 -6.48591315e-19)
(85.59334598 -9.841891928 1.11989397e-18)
(85.39305414 -9.756672594 0)
(86.01403503 -10.08507875 -1.36561844e-18)
(85.8978551 -10.01842407 -1.338807216e-18)
(86.73082467 -9.91994425 0)
(88.06728305 -10.93241176 -4.363726144e-21)
(86.34113107 -10.95038876 2.196796668e-18)
(86.08887954 -10.83249958 -1.471368482e-18)
(86.6629233 -11.34917171 -3.721079395e-21)
(88.56521319 -11.36744841 -1.170914234e-18)
(75.00105227 -9.59798262 0)
(75.39232328 -9.529027318 0)
(48.84427714 4.627913123 0)
(50.01306506 1.665844098 0)
(70.57319857 -10.62346293 5.312391398e-18)
(71.28503286 -10.47500804 0)
(71.52758341 -9.84152309 0)
(71.83817492 -7.619963264 2.28758353e-18)
(73.60885218 -7.957482904 0)
(69.02405141 -6.637805959 0)
(71.18495573 -7.445339589 0)
(70.8277013 -9.871736976 -6.840896009e-18)
(75.58548072 -9.283104565 0)
(75.88539677 -8.163753085 0)
(76.87498203 -8.17855416 -8.791467432e-19)
(74.1378417 -8.026099949 -2.120288824e-18)
(75.5021583 -8.14328279 9.914195562e-19)
(75.19209426 -9.31334964 0)
(63.74586074 -8.249656699 0)
(65.59472969 -4.773241129 0)
(68.20178451 -6.265735212 0)
(61.66746483 -9.246178634 0)
(63.2464781 -9.68773493 0)
(80.14962917 -8.565704331 1.126614289e-18)
(80.85552846 -8.284118872 -8.86568541e-21)
(81.15824834 -8.378599152 -1.950259935e-18)
(80.32259831 -8.186404888 1.772803896e-18)
(80.72979423 -8.258549998 1.764388761e-18)
(80.01858057 -8.572821651 0)
(81.63741472 -8.59602115 -1.551138309e-18)
(81.92789016 -8.774030377 3.148623352e-18)
(81.24735434 -8.421733846 -7.633374362e-19)
(81.54123869 -8.548567759 1.739451909e-21)
(77.70237229 -8.793359112 -4.429715761e-18)
(78.19799578 -8.133762144 -1.732963666e-18)
(78.8407465 -8.109573522 -1.742325601e-18)
(77.16475679 -8.173460051 0)
(77.95964214 -8.144908645 1.736671965e-18)
(77.4817401 -8.862570945 1.353117785e-20)
(79.08535838 -8.54635021 -1.089160343e-18)
(79.72258458 -8.128997831 0)
(80.18172688 -8.166722969 0)
(79.03360045 -8.104807809 1.74624256e-18)
(79.55807804 -8.117879796 1.764145978e-18)
(78.91808133 -8.54380352 -6.501325485e-21)
(84.1479764 -9.568178412 2.900456431e-18)
(84.39281334 -9.632009652 1.471943722e-18)
(83.79744628 -9.552115251 1.044805268e-18)
(84.07241067 -9.558168521 -1.441949685e-18)
(84.77340915 -9.68163417 -1.935721566e-21)
(84.95658514 -9.762620817 -1.529273402e-18)
(84.48159029 -9.647343234 0)
(84.71288056 -9.66851785 1.499431425e-18)
(82.52736018 -9.094356674 0)
(82.90496402 -9.236224678 3.098918944e-21)
(82.03367988 -8.844875129 -1.58414445e-18)
(82.40045987 -9.040294541 0)
(83.50228737 -9.425923893 -1.649664142e-18)
(83.72300289 -9.525873969 0)
(83.02921628 -9.277493029 1.644472743e-18)
(83.3918502 -9.390000689 1.653546842e-18)
(86.39987846 -10.46891425 2.814333217e-21)
(86.20397635 -10.33896455 -1.417529605e-18)
(87.17351977 -10.23732332 -1.250501835e-18)
(85.37255188 -10.30832053 -2.402422369e-18)
(85.60291625 -10.42607354 -1.61428089e-18)
(85.24654373 -10.05223994 7.910417224e-19)
(85.31040994 -10.22964809 -8.050739712e-19)
(85.6252916 -10.45256881 0)
(87.56600454 -10.55125147 -1.150146114e-18)
(85.96142618 -10.59336608 2.514956278e-18)
(86.42399131 -10.50698062 1.103784734e-18)
(85.64899472 -9.944707766 9.571225372e-19)
(85.64812466 -9.881037691 -3.575120997e-19)
(86.21630286 -9.694254368 -6.411613768e-19)
(85.26693645 -9.910743512 0)
(84.89996408 -9.94178403 1.46049451e-18)
(85.02664016 -9.794250072 1.984330476e-21)
(85.21066447 -9.877544692 4.002384015e-19)
(85.12635556 -9.977148619 -8.855591418e-22)
(85.22722902 -10.02359449 1.58158879e-18)
(84.93303071 -9.944340076 -1.53291747e-18)
(85.08167048 -9.966281456 0)
(86.67155451 -9.890159838 1.214812251e-18)
(85.85136859 -10.00172576 0)
(85.69385001 -9.963640952 2.047189735e-21)
(86.5605383 -11.03483495 0)
(86.41132481 -10.9713169 7.301167096e-19)
(88.1320253 -10.97156659 -1.180950923e-18)
(88.51634184 -11.30410886 1.203160011e-18)
(86.62029507 -11.27258792 0)
(86.58901855 -11.06359706 0)
(83.88748051 -8.677107259 3.531447383e-18)
(84.42096528 -8.00769042 1.644549744e-18)
(85.02886228 -8.295742164 -1.608725202e-18)
(83.56108103 -7.55975989 -1.746093648e-18)
(84.20941953 -7.901508903 3.346167532e-18)
(83.66163809 -8.579456402 -1.783692703e-18)
(85.22329865 -8.383424213 1.592827446e-18)
(85.77610371 -8.627516841 -1.550010305e-18)
(85.3078521 -9.181141559 1.655757036e-18)
(84.8413336 -9.211437946 2.645482806e-18)
(84.38893015 -9.493447881 1.370115921e-18)
(84.09849621 -9.447578941 3.320413441e-19)
(84.00536317 -9.418445102 1.718610261e-18)
(83.71107234 -9.3207495 1.546659309e-18)
(84.11889182 -8.99775435 2.754607049e-18)
(74.20679753 -9.815213433 -3.868518819e-18)
(69.03931572 -10.88145558 0)
(67.66886516 -11.1790934 0)
(72.541296 -10.23624763 5.274569321e-18)
(72.76981151 -9.724315141 -6.867252137e-18)
(72.91296223 -9.127279978 4.387457148e-18)
(73.47000056 -9.104387164 -2.21426696e-18)
(76.20415962 -9.241352426 -1.952304714e-18)
(76.35023626 -8.870905731 0)
(76.6401881 -8.838581283 -9.214339542e-19)
(73.99203991 -9.060040067 2.190671452e-18)
(74.47320242 -9.001367579 2.193010734e-18)
(74.36432512 -9.463880645 -5.416287117e-21)
(61.97239316 -1.252535801 0)
(64.68624669 -3.965527365 0)
(62.37770138 -7.666548737 0)
(58.44508333 -7.636190193 0)
(57.62398347 -10.22949749 0)
(55.50555229 -8.171302459 0)
(66.76931839 -11.13864051 0)
(65.66291846 -11.19836479 0)
(66.0081411 -10.17072131 0)
(80.17591367 -8.543279182 3.290221498e-17)
(80.51872225 -8.535641986 -1.276298242e-17)
(80.52528442 -8.565303748 -3.387361188e-18)
(79.95321371 -8.432606159 -3.879318544e-18)
(80.08368852 -8.452833118 -3.886414105e-18)
(79.73973492 -8.531449618 1.076456534e-18)
(81.01275116 -8.82016318 1.952841619e-18)
(81.08162746 -8.899718145 -1.947917343e-18)
(80.5558591 -8.592405817 1.82806604e-18)
(80.63112113 -8.616749227 0)
(78.11381677 -8.702081565 4.407458932e-18)
(78.36376518 -8.549365348 1.832854455e-21)
(78.56406486 -8.510440727 0)
(76.91942248 -8.806210227 -3.707294292e-18)
(77.19376018 -8.769815437 1.874756104e-18)
(76.95639522 -9.01229048 -2.234425102e-18)
(79.39595266 -8.499943497 1.742996582e-21)
(79.69496754 -8.420870325 -3.838275632e-18)
(79.82673372 -8.419663056 5.788193781e-18)
(78.74641015 -8.47194325 0)
(78.90998879 -8.44712285 -1.902469368e-18)
(78.63288244 -8.545563246 -6.55721591e-18)
(84.73077211 -9.569956361 4.012804064e-21)
(84.4749594 -9.508990503 2.393939799e-21)
(84.93441215 -9.247396258 -1.325503246e-18)
(85.54078399 -9.424781749 1.973666351e-21)
(85.05318678 -9.629842912 2.868141362e-18)
(84.81719949 -9.587497068 0)
(83.11778066 -9.124327791 1.553694402e-18)
(82.74816491 -8.977499115 0)
(83.19884391 -8.626663276 0)
(81.96997273 -9.372021792 9.650259024e-19)
(82.09639292 -9.410100829 1.918798476e-18)
(81.16903546 -9.004048777 1.948143632e-18)
(81.29209288 -9.102798357 -1.779319026e-21)
(82.64327653 -9.604146105 0)
(82.22089817 -9.444939324 9.557779667e-19)
(82.34297907 -9.476523154 1.907987267e-18)
(84.00856511 -8.948799454 -2.767972093e-18)
(83.59822742 -9.285082055 -3.130917201e-18)
(83.23992493 -9.167752488 -3.132949305e-18)
(86.10671999 -10.21268489 0)
(86.56962376 -10.21443261 0)
(86.61694498 -10.26761416 1.352539373e-18)
(85.97165061 -10.72537104 1.453084437e-18)
(86.91385142 -10.77854626 -1.222822086e-18)
(86.97228166 -10.82250559 -1.23274186e-18)
(86.82558837 -10.68024068 0)
(86.85849182 -10.73389527 -2.407013129e-18)
(85.91434281 -10.6805182 2.861752795e-18)
(87.11695676 -11.53833076 1.32460792e-18)
(87.16404483 -11.56668889 0)
(86.25729332 -10.92436717 -1.467261984e-18)
(87.17765275 -10.95823328 1.256219944e-18)
(87.2502681 -10.98953269 -1.270702079e-18)
(87.03340725 -10.87085795 0)
(87.10254847 -10.9187164 0)
(86.16742013 -10.88674942 0)
(87.15003037 -11.49902821 0)
(87.09306736 -11.51629989 -1.257853937e-18)
(87.62777549 -11.43121288 9.181652745e-21)
(87.25911687 -11.46705155 1.536032237e-18)
(86.37524911 -11.38372393 -1.340981346e-18)
(74.62018997 -9.677557094 0)
(75.67982532 -9.41195683 0)
(39.63615736 7.178280255 0)
(41.22570598 2.539472491 0)
(49.09312855 -8.125822277 0)
(51.66415735 -9.297297786 0)
(43.78474423 -1.525138289 0)
(46.45344924 -6.044429808 0)
(43.40442491 -6.957578076 0)
(69.81507384 -10.77378891 0)
(71.93557852 -10.34165235 0)
(75.69402284 -8.912266712 0)
(76.03873363 -8.899070872 1.950442979e-18)
(75.91107081 -9.308012157 -1.743029185e-18)
(74.79360211 -9.372955123 0)
(74.90992443 -8.952229214 2.199666552e-18)
(75.31289721 -8.921495881 0)
(61.17374284 -11.29808641 0)
(59.49606961 -11.02881348 0)
(60.06204452 -8.576547408 0)
(54.243601 -10.14076743 0)
(56.43309452 -11.04630841 -5.290071677e-17)
(64.71328277 -9.966930046 0)
(64.36110318 -11.28211292 0)
(62.83700397 -11.34748425 0)
(80.47952793 -8.502963579 -9.954187369e-19)
(80.59081995 -8.513880601 9.77459126e-19)
(80.2532739 -8.543795336 -1.303027442e-18)
(79.87388752 -8.558028603 -2.163913312e-18)
(80.2189262 -8.474608135 1.961900154e-18)
(80.35586982 -8.492274787 0)
(80.87397988 -8.712655156 0)
(80.94495967 -8.759133278 1.021147435e-21)
(80.71760418 -8.643317011 -1.931260991e-18)
(80.79846758 -8.674995379 1.948176401e-18)
(77.94041557 -8.623383518 1.886352257e-18)
(78.15551276 -8.583832428 -1.889112888e-18)
(77.90619846 -8.744165603 8.938194306e-21)
(77.22986895 -8.940471578 -2.211664555e-18)
(77.46020314 -8.723999365 -1.885702696e-18)
(77.71040341 -8.672076125 0)
(79.38651937 -8.439124181 0)
(79.54730218 -8.431739732 1.916320798e-18)
(79.25381762 -8.526222449 0)
(78.7688064 -8.536328018 1.095505863e-18)
(79.0658399 -8.438083955 -5.661918057e-21)
(79.22391712 -8.438646484 -1.917808881e-18)
(84.22425932 -9.587079066 -3.870751447e-21)
(83.60052843 -9.600753779 -1.721892883e-18)
(83.53586551 -9.582506769 -2.708649953e-21)
(83.76943307 -9.649708927 -5.145528255e-18)
(83.6784285 -9.627206518 0)
(84.30584981 -9.610344439 0)
(83.89297585 -9.560698363 -1.41731956e-18)
(83.31417512 -9.614780569 1.675435324e-18)
(83.22401862 -9.63226168 0)
(83.47625483 -9.577818902 -3.428655718e-18)
(83.4056284 -9.591178599 1.698613418e-18)
(83.98876134 -9.558318627 0)
(84.83155481 -9.702852037 -3.030239545e-18)
(84.18878843 -9.68324653 0)
(84.1433475 -9.663294391 0)
(84.29839012 -9.74975517 -8.617511079e-19)
(84.23872053 -9.71296108 8.58048645e-19)
(84.89172475 -9.730591513 0)
(84.56666409 -9.656628756 0)
(83.95655999 -9.663401701 -1.711079787e-18)
(83.86550216 -9.66089229 3.432639308e-18)
(84.09534286 -9.654875852 -8.575305271e-19)
(84.03452059 -9.657908364 2.564432308e-18)
(84.64444371 -9.661973333 -2.974114534e-18)
(81.71168812 -9.284457537 0)
(81.8413678 -9.330841194 -9.610906984e-19)
(82.65365997 -9.145010162 1.610405908e-18)
(82.3440915 -9.251189326 -3.373790385e-18)
(82.21496988 -9.202970983 1.676790791e-18)
(82.60041723 -9.336699694 -1.699447732e-18)
(82.47289585 -9.295491572 1.697406644e-18)
(82.77967738 -9.192233959 -1.627880849e-18)
(81.43835328 -9.174573818 0)
(81.57973847 -9.231948183 -4.191130135e-21)
(82.67744227 -9.56386375 -2.006721601e-18)
(82.77355358 -9.580522325 2.31843599e-18)
(83.61006272 -9.470591381 3.942255172e-19)
(83.30703631 -9.558444748 -2.602405383e-18)
(83.19397941 -9.517143511 1.760900948e-18)
(83.18201957 -9.634453108 0)
(83.1705499 -9.608827453 0)
(83.66415433 -9.49471871 0)
(83.15203812 -9.316267705 0)
(82.85051053 -9.411246124 -3.420625216e-18)
(82.72642482 -9.375284673 0)
(83.09089865 -9.480603256 8.780172554e-19)
(82.97184221 -9.446201279 -1.715035945e-18)
(83.27314316 -9.353397391 -1.655033881e-18)
(82.46124949 -9.507931165 3.829798352e-18)
(82.57825235 -9.536399195 -9.690721614e-19)
(86.3414102 -10.43311941 1.438960378e-18)
(86.7980771 -10.41621473 1.383416679e-18)
(86.85612671 -10.45775728 3.043731162e-21)
(86.67239154 -10.32232601 -1.022192085e-21)
(86.73483632 -10.3723139 -4.108642466e-18)
(86.27336133 -10.39215233 -1.419539127e-18)
(85.45863592 -10.36306883 0)
(85.5391873 -10.39899307 0)
(85.26247374 -10.09351453 -7.949287693e-19)
(85.27884516 -10.15016849 -1.597375197e-18)
(85.63807486 -10.46724826 0)
(85.32673925 -10.48607092 0)
(86.09401568 -10.55616022 0)
(86.88163865 -10.57148206 0)
(86.83907509 -10.61833541 -2.974278763e-19)
(86.8976764 -10.49846789 -6.881751879e-19)
(86.93305649 -10.55160768 1.326616781e-18)
(86.45381313 -10.54981622 -1.453581364e-18)
(85.00279772 -9.920803445 0)
(84.35349388 -9.872530227 4.664698505e-18)
(84.58885593 -9.866343226 1.045829233e-18)
(84.92991482 -9.937390158 0)
(85.09774658 -9.822460236 0)
(84.44216951 -9.808676022 -1.724811589e-18)
(84.36908722 -9.782961338 2.577314945e-18)
(84.54992341 -9.853530374 9.07755899e-19)
(84.50963142 -9.829911476 3.739634202e-21)
(85.16590524 -9.848622586 -7.843463425e-19)
(85.16714737 -9.989092333 -3.144847872e-18)
(85.20113765 -10.00350173 -1.571599738e-18)
(84.98566889 -9.949011561 0)
(85.03530602 -9.956646502 0)
(86.51970859 -11.01235402 7.322404902e-19)
(87.42411727 -11.07369413 -1.295536325e-18)
(87.46942788 -11.10654089 0)
(87.31523323 -11.01701771 1.270517631e-18)
(87.37276148 -11.04437493 -2.013327672e-21)
(86.46975853 -10.99143319 -7.341440715e-19)
(86.6161775 -11.17586494 0)
(87.5702628 -11.26077769 -6.765921761e-19)
(87.58187121 -11.34242613 3.202828389e-21)
(87.508105 -11.1455843 0)
(87.53976787 -11.19625045 0)
(86.60454151 -11.10993605 1.489713347e-18)
(99.6595221 0.8721358625 -1.515078728e-20)
(99.57610634 1.20049369 7.220540935e-21)
(99.85631539 0.7421520546 7.24395831e-21)
(99.54254243 1.327188563 -2.163459113e-20)
(99.46796074 1.760192624 -6.737208819e-21)
(99.82386984 1.071779881 -4.017515466e-22)
(99.44065388 1.920242007 3.158243962e-21)
(99.41691804 2.431807996 0)
(99.81216267 1.461173114 5.223357906e-21)
(99.41215456 2.609570984 -6.978394973e-19)
(99.48342383 3.137287119 -4.224286402e-21)
(99.84678947 1.845971806 -2.023327409e-21)
(99.51444469 3.297871835 4.527308412e-19)
(99.20869392 1.199570322 -1.607045204e-20)
(98.99525706 1.692132477 -1.571860822e-20)
(99.45270467 1.338195766 0)
(98.92103376 1.886246057 5.795199823e-20)
(98.72183657 2.56968524 -5.44788394e-21)
(99.31000681 1.975404761 -6.987991932e-22)
(98.66617211 2.836038115 2.144047483e-19)
(98.56204342 3.747816375 -1.393275877e-18)
(99.24089556 2.752712125 0)
(98.55692801 4.078922211 1.494676426e-18)
(98.67752574 5.090621452 1.093313087e-18)
(99.3215862 3.59368374 4.204000032e-21)
(98.78204368 5.388583383 -1.373495055e-19)
(98.60447703 1.338754086 5.250654658e-19)
(98.20304529 1.969998422 -1.260232114e-19)
(98.81415191 1.785645314 -1.110081983e-19)
(98.06271036 2.232441396 0)
(97.62448186 3.238852454 2.414383152e-18)
(98.48462459 2.752468097 -6.955193384e-19)
(97.4846524 3.654723531 -1.433100974e-18)
(97.17759559 5.142598823 -1.770641881e-18)
(98.27525337 4.092508438 -1.165175681e-19)
(97.14426858 5.705758847 0)
(97.41814741 7.45922293 -1.945023615e-18)
(98.40606301 5.63418988 0)
(97.65527386 8.022788367 1.282984589e-18)
(97.92259311 1.216566502 -5.669076233e-19)
(97.26058051 1.928641899 0)
(97.9815733 1.989817033 -2.561197984e-19)
(96.99884291 2.251522878 0)
(96.11730304 3.552976398 -5.039408816e-19)
(97.28526289 3.368598366 -9.6213171e-19)
(95.80734764 4.122401882 -5.11249066e-19)
(94.96251411 6.313317071 2.749862663e-19)
(96.71530104 5.481297554 0)
(94.77163373 7.204470748 8.034828379e-19)
(94.85263289 10.33264344 0)
(96.94233217 8.148971027 7.202620125e-19)
(95.22560751 11.44916122 0)
(97.28622487 0.7883585688 0)
(96.27621129 1.478731665 -1.442148615e-19)
(97.01031165 1.861393664 5.592951883e-19)
(95.85660286 1.802631907 -1.18330204e-18)
(94.32978907 3.154088477 -7.955589623e-19)
(95.68035853 3.535413164 0)
(93.73080972 3.763525898 4.891102299e-19)
(91.71225943 6.261795663 0)
(94.24304854 6.462053385 -4.180505818e-19)
(91.00638913 7.40794584 0)
(89.23157955 12.34483698 0)
(93.83179253 11.03014511 0)
(89.05170733 14.7929647 7.807547954e-19)
(96.81345121 0.06437225296 1.895814256e-20)
(95.49235294 0.5442585088 0)
(96.05093401 1.288959348 2.959543767e-19)
(94.93214358 0.7736801357 3.378285878e-19)
(92.80083013 1.723714164 -6.99026339e-19)
(93.89601258 2.892400117 2.193121066e-19)
(91.91108175 2.144306121 9.127791472e-19)
(88.51422223 3.799619339 8.703588189e-19)
(90.8186677 5.905036401 0)
(87.05666861 4.512369321 1.884355105e-18)
(79.49451586 7.54043234 7.545455469e-20)
(87.13364925 12.16579111 -1.678380152e-18)
(82.82278448 13.18771175 -1.936408491e-18)
(80.74475456 19.99348724 0)
(87.57099949 19.16089673 -1.345727026e-18)
(96.631359 -0.8705874777 -3.416599689e-20)
(95.14838353 -0.7303845126 -1.289486976e-18)
(95.3631821 0.2451893037 0)
(94.52370726 -0.6573128627 9.913936199e-19)
(92.16786843 -0.392794219 2.251824807e-18)
(92.54529733 1.229254225 -2.138263037e-18)
(91.1987207 -0.3071084617 -6.778901636e-19)
(87.61589485 -0.2206719156 -1.93292578e-18)
(88.02028067 2.818310237 1.911796337e-18)
(86.15089978 2.04940134 -2.134742464e-18)
(84.34188899 2.306540103 2.15527548e-18)
(84.67400568 3.833799505 2.707429233e-18)
(76.73017858 4.699436325 0)
(74.51340579 4.819425009 0)
(74.76167314 6.999448769 0)
(96.79586095 -1.867510574 -1.119201953e-18)
(95.32806021 -2.069932211 -3.31022093e-19)
(95.14348932 -1.07086658 -4.901081663e-19)
(94.72137626 -2.144869549 2.018603277e-18)
(92.51410971 -2.462880237 0)
(92.17150574 -0.9333640002 7.708348489e-19)
(91.64746285 -2.625879481 -9.92187853e-20)
(88.70468615 -3.432642221 0)
(87.77257285 -1.138558792 4.07799762e-20)
(86.77399486 -2.307154235 -2.014648111e-18)
(85.47138037 -2.735390613 2.109096673e-18)
(84.97889493 -1.713282947 4.862509657e-19)
(80.86574126 -4.260850184 -4.728999659e-18)
(80.18771784 -4.960981021 0)
(79.44588016 -4.41737056 -2.454446273e-18)
(97.26721918 -2.794107859 1.244404714e-18)
(95.92034752 -3.268764628 3.226575423e-19)
(95.44078788 -2.387847829 -1.294751131e-18)
(95.37615695 -3.452684988 -3.227091396e-19)
(93.46274421 -4.142685023 7.237178408e-19)
(92.70703286 -2.924052992 -3.710166997e-19)
(92.73973189 -4.436253236 -7.373732862e-19)
(90.39296871 -5.572866098 1.705437526e-18)
(89.10093667 -4.052042012 0)
(88.60071378 -5.07223968 3.696744204e-18)
(87.69701946 -5.602988679 2.41485555e-18)