/*--------------------------------*- C++ -*----------------------------------*\
| =========                 |                                                 |
| \\      /  F ield         | OpenFOAM: The Open Source CFD Toolbox           |
|  \\    /   O peration     | Version:  v2012                                 |
|   \\  /    A nd           | Website:  www.openfoam.com                      |
|    \\/     M anipulation  |                                                 |
\*---------------------------------------------------------------------------*/
FoamFile
{
    version     2.0;
    format      ascii;
    class       volScalarField;
    location    "2";
    object      k;
}
// * * * * * * * * * * * * * * * * * * * * * * * * * * * * * * * * * * * * * //

dimensions      [0 2 -2 0 0 0 0];


internalField   nonuniform List<scalar> 
3259
(
34.98599707
35.01669105
35.09751345
35.27482974
35.52899554
36.03568805
36.73226111
37.50322683
38.54871998
40.06177755
42.91080416
46.30259216
34.88510685
34.92165304
35.01732789
35.21999099
35.5174692
36.08623171
36.85305278
37.66830089
38.77759719
40.40383564
43.5331721
44.79657834
34.79332306
34.8354837
34.94484456
35.17121954
35.49730542
36.11278599
36.94109385
37.84280624
39.05755911
40.78969141
43.94005692
41.08927996
34.70604564
34.75347543
34.8750351
35.12336741
35.47572848
36.1291858
37.01736198
38.04037956
39.4490288
41.39208403
44.42277804
35.54857118
34.62135077
34.6735161
34.80533865
35.07267255
35.44794375
36.12904687
37.06440407
38.20101205
39.908333
42.19066369
44.08296985
27.60240705
34.53450939
34.59087641
34.73140316
35.01529766
35.41045664
36.11276796
37.07863678
38.26082326
40.20223614
42.71407297
40.51687408
33.01185817
34.44589882
34.50585267
34.65335627
34.95047394
35.36118448
36.07713721
37.06630687
38.27174103
40.22335188
42.43541279
33.23132741
43.2408062
34.35121162
34.41423555
34.5676847
34.87606587
35.29957874
36.02404355
37.02656069
38.24774701
40.17054898
41.87636393
29.88249742
43.40657349
34.25380652
34.31935365
34.4774678
34.79401527
35.22616516
35.95568618
36.96633077
38.19560569
40.06303982
41.24231081
27.351938
42.52488776
34.14872362
34.21644234
34.37882227
34.70269117
35.1422502
35.87458259
36.89008639
38.1218747
39.91036515
40.56382706
25.38167888
41.53497177
34.04263051
34.11213126
34.27784149
34.60631137
35.04935853
35.78320052
36.80159622
38.03103382
39.71992916
39.87665346
23.86592222
40.52342199
33.9280512
33.99919172
34.16835862
34.50193966
34.94927431
35.68377392
36.70388265
37.92631791
39.49611077
39.2012509
22.67312917
39.52388801
33.81587032
33.88837745
34.06017262
34.39611649
34.84343858
35.57828643
36.59934844
37.8096681
39.24533304
38.54958545
21.72442712
38.55031212
33.69366945
33.76756308
33.94249061
34.28267177
34.73338802
35.46838472
36.48969961
37.68200156
38.97356358
37.92866
20.96822774
37.59858738
33.57878742
33.65383291
33.83096715
34.17197836
34.62002674
35.35536235
36.37601562
37.54388695
38.68728127
37.34159915
20.36753853
36.67395181
33.45038533
33.52672047
33.70685598
34.05206029
34.50457952
35.24018031
36.25889181
37.39610859
38.39387057
36.78906079
19.89476326
35.78189673
33.33634577
33.41371277
33.59573764
33.94050122
34.38736134
35.12354452
36.13866692
37.23982011
38.09858745
36.27022457
19.52679027
34.92468151
33.20196299
33.2806045
33.46555234
33.81496629
34.26953084
35.00598664
36.01555021
37.07635838
37.80426528
35.78302595
19.24491533
34.10332199
33.09261
33.17219253
33.35878615
33.70666552
34.15081361
34.88789672
35.88976795
36.90712151
37.51198599
35.32494489
19.03491541
33.31813563
32.95084699
33.03174342
33.22117245
33.57426113
34.03265602
34.76961398
35.76165284
36.73340785
37.22312472
34.8934077
18.8851042
32.56881145
32.85089356
32.93262699
33.12355373
33.47462187
33.91406276
34.65143086
35.63162956
36.55633837
36.93864362
34.48589334
18.78523219
31.85475332
32.69834907
32.78148262
32.97514722
33.33094622
33.79750605
34.53390437
35.50024357
36.37703533
36.65946008
34.10017307
18.72653196
31.17580304
32.61351098
32.69737965
32.89243032
33.24819869
33.68147495
34.41804872
35.36894571
36.19639154
36.3860971
33.73458938
18.70176766
30.53254452
32.4188335
32.50448109
32.70288117
33.06337184
33.57199042
34.3064678
35.24225823
36.01573115
36.12043635
33.39047215
18.70274166
29.9271791
46.33802801
45.33102439
42.78647998
46.35326131
43.42115154
45.88475552
46.32380683
45.99431632
33.22265106
36.48340188
43.70364668
36.65271083
34.02652314
40.46683715
33.15807581
45.94640977
32.21230942
85.66465407
33.92427227
32.24465841
60.98182241
35.42832426
43.77754169
43.24961057
44.45359504
43.96934901
35.56368086
38.64527903
45.06698774
44.61340907
45.20923777
38.81312362
36.73661462
36.57249718
43.04605044
42.54282621
32.550073
32.88047278
42.03404403
46.90651494
33.43828724
85.26464424
48.65778353
76.14091102
33.36109956
56.76487965
42.63537828
43.84197732
45.2944634
45.7677441
44.2195219
36.9695879
42.24862128
33.7707645
39.90632366
39.44687197
78.56307432
59.07038226
37.24534809
35.21373864
38.13489763
41.08340852
40.19362898
39.29804903
38.86419517
32.9944586
42.04470563
32.11560082
99.22667579
44.81694628
41.80298541
44.99240561
33.73564394
32.38925567
40.55518992
40.04291515
34.3187746
35.96360571
41.1253438
40.69951856
37.10815759
35.90662449
32.91968153
38.65962863
37.9198233
85.71934766
90.80792048
32.06550096
94.58268386
78.25941532
43.76871999
33.66509471
85.02713443
56.85208945
93.57763622
60.8835994
32.53102259
41.66784991
41.2592639
36.08873667
37.59659115
42.23265562
41.80242208
32.71863464
32.76819285
34.2029516
32.18017987
33.85668112
32.63679752
32.6815498
32.27826564
42.76998196
42.37043217
37.9667851
39.2587472
43.25025026
42.88942912
34.39622287
34.45882014
36.85104405
36.4435758
34.20554886
34.28521702
32.52564364
34.17699612
33.19296394
109.7763623
32.35316788
43.02135856
73.53380981
66.83156089
32.3104617
32.34880558
33.5172304
83.49055255
89.3384551
86.71942881
70.35760408
33.23246646
32.22516522
32.26553235
47.59161801
33.15138753
33.0914224
32.65459851
34.55845848
32.83561005
32.9831267
35.80689091
34.59015656
38.85606233
33.05966811
35.17969905
35.0451659
32.14216363
98.51365727
99.52403318
64.55720227
92.4782225
83.92755809
32.52592379
32.59194318
33.80296844
32.32734967
32.90875782
32.85440043
33.02365191
32.97968986
33.69799087
34.00491891
36.16968987
32.6398483
32.61372202
32.77764049
32.72239361
34.91077031
34.66319299
32.74333942
83.73299839
104.8177622
107.4783224
105.0532726
104.9003265
87.51908864
32.15986464
87.25985728
69.68341451
73.19456633
33.58592634
32.39415104
32.45989683
84.59489767
91.1925467
89.96201545
77.62653002
83.13055096
94.90326159
91.98010952
65.4340774
88.11096381
79.51704545
32.34527901
32.19925142
32.95075872
37.47179995
38.21698287
38.49785504
39.53725941
39.98355538
41.8626464
37.62937049
38.41983643
38.26019068
38.72092189
39.83979644
39.61202718
40.32419217
42.41324988
41.97255645
43.05745904
44.50013522
44.27884759
46.17757734
44.94953687
45.30753612
37.79682044
38.65444182
38.47213424
38.97781318
40.16759028
39.91230211
40.67811626
42.83956575
42.5257966
43.64397693
44.77850025
44.93411432
44.66149476
41.21038322
42.05756486
37.99172093
38.97374633
38.7259392
39.34077958
40.6626129
40.27169428
41.21528454
43.40707393
42.95864618
44.27843933
43.83878358
44.97389653
37.9463656
38.17145443
39.35252649
39.06585922
39.79799383
41.37311876
40.82198239
41.99611397
44.00718145
43.59713921
44.28073911
36.23125482
42.63173121
28.387492
38.25134043
39.6213374
39.43947425
40.15917543
41.98237795
41.55376284
42.62018909
43.30385067
43.97572811
42.08617047
27.55644975
32.08397979
29.98903666
38.27268981
39.66656572
39.64524555
40.2264014
42.09153902
42.07429635
42.56225275
40.1222897
42.6664491
34.95752933
30.0107766
27.63933642
41.94260285
38.25677398
39.64611971
39.66568145
40.18937933
41.80017767
42.03362925
42.02396632
37.54717528
39.20586775
30.61101862
32.74833818
31.2470586
43.59036457
38.21087526
39.57983542
39.63346565
40.0944493
41.38812117
41.70621585
41.40636679
35.53923435
37.02747288
27.93183077
33.31438411
32.91496308
42.76065902
38.14205621
39.47588479
39.55713785
39.95231079
40.91515651
41.27335452
40.73539007
33.74100211
35.07292376
25.82498635
33.56719614
33.41043663
41.78673329
38.05513529
39.34007964
39.44472502
39.77080857
40.40886802
40.79120134
40.04792281
32.13109995
33.31872099
24.21091839
33.49936651
33.56893652
40.77591063
37.95365523
39.17643619
39.30168602
39.55479347
39.88408035
40.27885965
39.36825522
30.7388141
31.76254384
22.94630492
33.19543119
33.44279034
39.77213308
37.83987263
38.98771894
39.13149381
39.31022638
39.35694407
39.7519676
38.70981558
29.55579111
30.4241709
21.94227574
32.72447921
33.09094291
38.7913008
37.71490485
38.77727928
38.93699331
39.04315546
38.83842955
39.22621569
38.0807875
28.55939738
29.29017781
21.1419291
32.15520135
32.58885305
37.83428151
37.57934395
38.54967746
38.72170565
38.75975112
38.33458815
38.71092568
37.48512898
27.72358016
28.3363429
20.50533748
31.53202255
32.00335736
36.90216011
37.43388909
38.31002218
38.49073958
38.46761279
37.84911463
38.21139876
36.92399275
27.0243267
27.53679177
20.00298985
30.88058756
31.37101324
36.00166374
37.2796045
38.06200314
38.24869305
38.17232479
37.38395062
37.73086805
36.39687641
26.43917607
26.86811311
19.61089655
30.21952972
30.71574302
35.13553961
37.11780351
37.80852423
37.99903049
37.87771339
36.93966648
37.27093054
35.90199314
25.94737002
26.30810415
19.30911559
29.56224559
30.05471365
34.3050301
36.94988462
37.55276696
37.74469631
37.58478054
36.51589363
36.83183395
35.4368698
25.5322425
25.83687108
19.0824854
28.91810756
29.4003039
33.51053252
36.77717943
37.29691893
37.48875229
37.29497368
36.11180338
36.41307372
34.99893032
25.18031131
25.43875148
18.91880661
28.29300727
28.76110844
32.75169668
36.60084046
37.04295308
37.23320642
37.00929069
35.72624873
36.01373577
34.58558969
24.87999822
25.1008709
18.80747554
27.69019037
28.14252508
32.02749962
36.42200678
36.79149137
36.97983915
36.72872398
35.35799468
35.6326457
34.19442862
24.62138021
24.81220369
18.739111
27.11148645
27.54784286
31.33671034
36.24161449
36.54304544
36.72908082
36.45377197
35.00555218
35.26862529
33.82289023
24.3962355
24.5636486
18.70583314
26.55768243
26.9795381
30.67756873
36.06026087
36.29767826
36.48155586
36.18401297
34.66587369
34.92073699
33.46687596
24.19712223
24.3481597
18.70093256
26.02864542
26.43979095
30.04726865
35.8671463
36.03974667
36.23899828
35.90186876
34.31576456
34.59085911
33.10189957
24.007289
24.16016979
18.72016465
25.49232285
25.93099471
29.40665335
45.42313007
45.75151636
46.44673814
42.26640072
42.91692237
45.52907389
41.9266206
44.19965869
43.93252764
42.64424263
46.41459567
44.62506449
44.84153185
44.88795632
44.56103506
43.15477025
46.16410407
45.15624772
45.44532359
44.90972177
45.10677805
46.2151889
44.43163029
44.81964464
46.13683593
33.30316993
35.69658091
35.53853245
38.65942983
38.50173498
36.34174834
31.67455923
36.1733376
43.95015328
54.69122084
44.96229003
42.15134923
42.41410741
36.87863391
39.02969205
38.8312635
43.3611973
39.40940144
46.47741865
45.85483738
40.42360754
34.2354335
33.35491858
35.40881159
35.28510649
33.10516616
45.78142968
43.8544858
44.28229866
90.54129165
89.4915347
72.13662649
37.41190698
37.19812574
35.20841427
43.6285454
42.06915371
42.19582027
40.87877326
41.46686539
43.42130861
44.29669344
42.92629904
43.13513796
42.49307864
42.68897079
44.12562754
35.70677902
37.74380152
37.58158723
40.35023153
40.18244815
38.47489155
44.91964393
43.7792214
43.98087185
43.35394764
43.56713992
44.76777051
45.48351857
44.54202491
44.17385229
44.36062046
45.34797506
38.96122842
40.66358639
40.51065879
42.90967842
40.29860254
40.72263443
39.49036291
40.11312443
42.61022595
42.31277265
46.16077344
45.83872728
58.28787623
55.44331679
45.55994921
50.95394934
65.1208631
61.40609132
52.82121838
45.85713121
44.92737624
44.8606978
43.74803117
45.29216763
45.69117922
45.64851875
45.47442053
45.52175689
45.40757374
41.45300706
41.9118696
44.43400594
38.68079337
37.18779596
37.16037652
39.85759701
39.39028227
47.05301201
36.21030941
35.91229756
33.46209298
39.75124432
38.01644668
38.23827559
37.66761281
37.82913732
39.5962963
67.5642948
42.86344392
44.5143373
48.02686375
47.95087459
67.54673491
34.67135181
34.74803663
37.38276815
34.22484071
34.36148226
38.22299539
40.74197189
37.61757295
38.02848823
36.85015898
37.37087258
40.4603434
39.15386099
37.37560229
37.52173193
37.07875869
37.24440221
38.99985988
41.09908388
45.40962178
62.50557776
58.90030573
68.38147615
75.93676504
46.00765651
82.07528146
98.7435405
40.38423137
38.93946406
39.12708005
38.48349017
38.72492483
40.23168628
34.93188569
36.92980525
36.57926951
38.0513001
37.89711122
35.8290456
40.97902562
39.60445199
39.75772323
39.29153406
39.45036617
40.84576401
36.98864947
34.53822982
34.59644151
38.55059624
36.64930498
36.94509011
35.32947577
36.40848389
37.97817322
63.75539553
65.93766536
80.73924865
44.46878663
52.8546643
50.89269063
73.77254648
69.16124004
53.76368813
41.52888257
40.20527572
40.35631404
39.90818165
40.05728658
41.39848953
36.21703466
38.35233669
38.20231062
39.52227767
39.26366512
37.19580569
42.08496825
40.85855124
41.04425478
40.51335393
40.67952437
41.94459613
42.63874805
41.55459083
41.70407876
41.22500279
41.39658123
42.51165787
38.2441094
39.99113427
39.77023965
40.96446863
40.8154253
39.11353256
43.12990451
42.12985133
42.27016156
41.84812254
41.98998073
43.01484215
48.83203948
47.32031821
42.54499766
72.22928437
59.02083233
60.39043578
55.16484403
56.13719727
69.63386226
49.96609851
34.95889247
34.11157335
34.47215726
33.51282342
33.91632808
34.7449325
38.18059536
33.95493196
33.50101696
94.94004072
89.32041751
57.00353631
95.03793414
106.6110318
106.6329939
105.0958943
105.7804612
92.98372744
35.54942792
35.75797148
36.03306866
36.35091608
36.70873151
37.24591634
35.52657673
35.76894057
35.75258665
36.07092685
36.41684415
36.36105706
36.80742007
37.38859778
37.27491414
37.53604916
37.77767189
37.74178436
38.59329971
38.91319873
38.86526174
40.13363532
40.67353202
40.58583994
46.26046334
46.09659113
46.15507551
35.50598544
35.77294503
35.76956468
36.10037126
36.47562316
36.44719778
36.89784605
37.53318732
37.42316572
37.70952707
37.96847481
37.92281568
38.83816508
39.17851545
39.11280411
40.48708582
41.07245667
40.98217143
35.48619151
35.77276666
35.77255634
36.12238333
36.52520514
36.5026183
36.98350221
37.69133137
37.57181119
37.89216906
38.18160044
38.12365845
39.14477973
39.51625387
39.41915556
40.91487591
41.52680996
41.39415358
44.0409708
44.98967831
44.95778905
40.39490251
30.41301984
32.24830334
35.46250363
35.76596515
35.76987697
36.13089631
36.55479649
36.54280556
37.045148
37.82129135
37.72878795
38.08846335
38.42788762
38.36592931
39.56204412
39.99540388
39.86318069
41.59189995
42.25856372
42.04358
44.43577302
44.6966107
44.86251602
32.70264661
26.59183183
26.60723351
35.43039425
35.74677291
35.75575313
36.12380873
36.56072286
36.56151294
37.07717734
37.88049675
37.83975342
38.22253815
38.62474559
38.58964631
40.00773592
40.5371169
40.41366539
42.35741654
43.01630373
42.86139099
43.68026142
42.17514696
43.41862429
27.76291987
35.66619458
31.74508428
35.38705713
35.71188409
35.72816581
36.09768092
36.54635522
36.5563461
37.07526138
37.8945647
37.88722258
38.26767018
38.6842821
38.67579555
40.22141525
40.83602156
40.79745169
42.71284454
43.02452582
43.14376169
38.99987402
31.75091132
34.99958769
36.58932951
47.16654711
45.87182645
35.3314633
35.66146781
35.68577504
36.05300439
36.50921186
36.53028404
37.04929683
37.8751131
37.89273041
38.26912849
38.68961425
38.69171232
40.21626304
40.80525766
40.82190282
42.30325594
42.23874494
42.44553682
32.1694029
26.65774754
27.29785966
43.79256999
48.03706364
48.14943954
35.26363802
35.59694604
35.62866864
35.99189481
36.45345108
36.48346666
36.99871021
37.82741677
37.86515659
38.23706141
38.65819912
38.6691134
40.14835425
40.69102098
40.72618006
41.72385008
41.34124998
41.57276905
29.19569496
24.62770354
25.09254961
43.20439057
46.80352004
47.1114648
35.18469959
35.51992438
35.55812461
35.91678487
36.38200219
36.41950441
36.92995251
37.75885183
37.81182472
38.17899265
38.59756425
38.61510687
40.02880394
40.51210521
40.56232614
41.07524233
40.40137468
40.63673007
26.80638532
22.99703078
23.37192307
42.28285129
45.61059459
45.90349507
35.0959277
35.43232282
35.47595351
35.83019895
36.29768297
36.34127339
36.8471668
37.67436533
37.73896758
38.10061017
38.51367166
38.53659703
39.86609087
40.28076383
40.34285032
40.39181848
39.47299905
39.70230246
24.96680818
21.68866357
21.98832834
41.28205843
44.47066542
44.75109944
34.99924229
35.33610527
35.38411045
35.73449022
36.20326524
36.25156776
36.75372556
37.57750002
37.65116045
38.00604725
38.41055522
38.43797219
39.66691887
40.00553309
40.07842101
39.70615185
38.5822923
38.80053577
23.54150131
20.64805822
20.88561616
40.27191009
43.37826542
43.64703649
34.89594622
35.23313215
35.28455374
35.63177407
36.1013014
36.15308141
36.65234342
37.47064615
37.55165187
37.898213
38.29093333
38.32229946
39.43572851
39.69257656
39.77353862
39.03576458
37.74320278
37.94766503
22.41582172
19.82291111
20.01119132
39.27784605
42.33104608
42.58886291
34.78796959
35.12505148
35.17902505
35.52387156
35.99390142
36.04817136
36.54508162
37.35516809
37.44257584
37.77874962
38.15623121
38.1912791
39.17921942
39.35712315
39.44240881
38.39130542
36.96257288
37.15210073
21.51942903
19.16756131
19.3170021
38.31033602
41.32292608
41.57137983
34.67593649
35.01322091
35.06908364
35.41225349
35.88264089
35.9386749
36.43331568
37.23171381
37.32508049
37.64841559
38.00734065
38.04584245
38.90301905
39.01301287
39.09939594
37.77866688
36.24168707
36.41637408
20.8052257
18.64605687
18.76485759
37.36456667
40.35423644
40.59257147
34.56170446
34.8987331
34.95590013
35.2980301
35.76860885
35.82592184
36.31785652
37.10066945
37.19970729
37.5077958
37.84553559
37.88710633
38.61438575
38.66586044
38.75278076
37.2002419
35.57845666
35.7390476
20.23895356
18.22973176
18.3243874
36.44772199
39.42543673
39.65403203
34.4449433
34.78241935
34.84052861
35.18203243
35.6525205
35.71079301
36.19914711
36.96253039
37.06684325
37.35777065
37.67269164
37.71682514
38.31994563
38.31880079
38.40536215
36.65626551
34.96902577
35.11658815
19.79453422
17.89674451
17.97213916
35.56419536
38.53451032
38.75377871
34.32786017
34.66495791
34.72359908
35.06485263
35.53483773
35.59387003
36.0774481
36.81801218
36.92704692
37.19955712
37.49089383
37.53707507
38.02489788
37.97472821
38.06030506
36.1455569
34.40835152
34.54425708
19.44976464
17.63023616
17.69019381
34.71578742
37.68031437
37.89051489
34.20885256
34.54682284
34.60588034
34.94693724
35.41585121
35.475529
35.9529372
36.66797543
36.78107053
37.03452122
37.30221964
37.34993197
37.73093906
37.63624468
37.72025031
35.66586753
33.89086578
34.01648783
19.18722284
17.41729208
17.46468206
33.90326847
36.86185381
37.06329209
34.09121907
34.42844169
34.48760797
34.82857589
35.29575742
35.35603867
35.82586761
36.5133362
36.62980113
36.86405425
37.10852758
37.15733607
37.4394094
37.30488439
37.38700305
35.2146695
33.4115255
33.52806111
18.99347349
17.24841113
17.28533298
33.12671036
36.07808656
36.2710944
33.9712959
34.30998268
34.36951302
34.70994487
35.17464292
35.23562592
35.69652932
36.35495009
36.47415527
36.68939776
36.91132091
36.96088931
37.15155003
36.98148758
37.06156218
34.78934694
32.96576652
33.07434928
18.85722681
17.11658514
17.14462991
32.38534665
35.32774091
35.51289924
33.8545526
34.19157104
34.25152207
34.59097793
35.05246169
35.11457477
35.5649992
36.19374173
36.31497896
36.51167162
36.71189522
36.76187981
36.8683277
36.66650535
36.74444347
34.38739107
32.54951418
32.65122534
18.7684506
17.0164755
17.03690617
31.67802066
34.60943385
34.78772471
33.73345145
34.07273947
34.13484339
34.47128681
34.92876787
34.99342871
35.4309636
36.03047834
36.15319353
36.33195733
36.51147266
36.56162868
36.5905343
36.3602062
36.43599037
34.00639416
32.1590494
32.25523408
18.71856599
16.94414458
16.95793767
31.00332844
33.92156989
34.09515686
33.61630073
33.95215672
34.01976233
34.34940783
34.80205214
34.87336501
35.29263501
35.86569389
35.98954391
36.15107316
36.31085319
36.36102979
36.31839992
36.0623528
36.13640507
33.64339365
31.79026293
31.88387166
18.69994994
16.8968348
16.90475256
30.35906419
33.26148747
33.43581224
33.47993074
33.82035158
33.90978778
34.21588275
34.66247894
34.75715462
35.13978144
35.68977269
35.82512309
35.96820405
36.10886652
36.16157062
36.04857248
35.7683492
35.84774317
33.29118385
31.43586368
31.53743124
18.70710696
16.87231683
16.87513385
29.7414364
32.62369891
32.81297124
46.21301558
46.26845052
46.37727277
44.54880684
44.74764087
45.32524512
46.3798158
46.00834232
46.0346522
45.96184252
46.06163421
46.03868295
46.05548125
46.07090221
46.29180608
45.70699387
45.77548795
46.04535267
46.54082711
46.52480481
45.89076653
45.56123373
45.63269268
43.45050556
46.00353031
45.96410043
45.65952386
33.39753107
33.53765891
43.46018006
73.25681508
83.78872258
86.79622006
41.61446203
43.89319909
49.07807585
42.06953619
37.70790991
37.65993895
37.42999286
38.16178443
37.90196686
37.95650791
38.80658986
38.74823415
38.44216946
39.47008332
39.08777461
39.14965746
40.50363867
40.41376455
39.90656359
41.73964331
41.01423469
41.11795535
37.87905303
37.81340619
37.56829808
38.34304509
38.07020049
38.14100703
37.9928218
38.03127236
38.30144229
39.05144241
38.9593711
38.63716445
39.72461535
39.31832417
39.42060496
39.21640712
39.26900639
39.67134365
40.89369926
40.73979818
40.19233479
42.1918527
41.39212005
41.57619973
41.21074943
41.31553677
42.0993451
45.97362868
46.03529389
46.22246807
45.06935519
45.67345412
45.58593335
45.84427975
45.76058486
45.19139637
38.06885758
38.01695436
37.75127588
38.58834357
38.29433729
38.35327539
38.18909027
38.23964361
38.52768461
39.33098973
39.25119122
38.90484478
40.07397424
39.63690448
39.72367066
39.4871094
39.55828132
39.98926359
41.27568189
41.16990536
40.57811304
42.7334756
41.87714184
41.98644454
41.67608489
41.77407542
42.62944803
43.500889
43.34319445
41.83918989
38.30353685
38.24160504
37.94096631
38.88596798
38.55527475
38.62977223
38.41654166
38.48393462
38.80315025
39.7381688
39.62255868
39.23928754
40.51775426
40.04487139
40.17498356
39.8200394
39.92680906
40.38790744
41.84916916
41.678879
41.05637411
43.24310353
42.40396281
42.57953179
42.10919508
42.24503251
43.08718819
44.93807245
44.97432221
44.16956569
44.22023596
45.2535117
45.07172864
45.54721186
45.45474212
44.78513241
27.39056293
28.53579353
39.49306675
41.6144289
40.78541016
45.50487741
43.38273667
38.54311907
38.48768633
38.13295387
39.25713429
38.86137109
38.93584824
38.70659535
38.78440988
39.16074009
40.2786731
40.13713995
39.68000178
41.18889688
40.63725829
40.80167555
40.31710826
40.47009708
40.99802199
42.6674835
42.46702067
41.7981148
43.92155822
43.18585946
43.36992883
42.78553116
42.98932102
43.75857495
43.98736822
44.4952191
44.39939686
39.35273487
43.59108714
42.1006761
44.7421878
44.20767554
41.74558797
28.80193715
27.14148413
29.58841174
43.57216849
45.52751557
40.719054
41.73807173
38.66401927
38.64824167
38.23847003
39.57719661
39.09623175
39.12119941
39.00140624
39.05598066
39.51540726
40.73469521
40.64570279
40.09237892
41.86758386
41.23833073
41.34602985
40.96099602
41.10649049
41.71534763
43.19023545
43.16835521
42.52269677
43.63130451
43.5633749
43.45231141
43.53601355
43.6089219
43.87047135
38.08600601
40.65401528
42.97840584
28.42376135
33.61964675
30.33810112
40.66843317
37.51107217
29.31743812
43.53833075
39.62538091
28.42673973
49.28092309
49.78675446
47.20952761
48.47974358
38.69224227
38.6898435
38.27175244
39.66403445
39.15249654
39.15575195
39.13574967
39.1458059
39.65699745
40.83270838
40.8375001
40.22687569
42.12874125
41.48514627
41.46787762
41.4249376
41.48021139
42.12528163
42.65453053
42.85471477
42.66678601
41.02257589
42.53436008
42.10495318
43.22791177
42.93878075
41.96503408
28.2419826
29.58176003
36.88626848
28.89744361
27.14272813
26.78252853
28.53540517
27.76757307
28.07132279
48.12855441
47.81878486
39.49409161
49.98266055
49.82248673
50.02974485
50.05784414
38.67809697
38.68506788
38.26388203
39.65595895
39.14860146
39.14102373
39.15535494
39.15329479
39.66256576
40.75712576
40.7835945
40.2046728
41.88647147
41.36477188
41.31743544
41.44052524
41.40613253
41.96453741
41.80061711
42.02327227
42.16626113
38.07695711
40.98825859
40.64380953
41.67392577
41.33014443
38.61132549
25.58172775
26.09451407
31.37452067
32.57825328
25.91997253
25.5779996
26.47820322
26.29522901
32.35265059
47.42394618
47.74101487
43.74407854
49.04120553
48.73316931
49.60139076
49.34741552
38.63109741
38.64551102
38.2247159
39.60019983
39.10474388
39.08851672
39.13110862
39.11897016
39.6181135
40.60890691
40.65183856
40.12293409
41.49959676
41.14508243
41.07829705
41.26498
41.20747021
41.60567119
40.87231288
41.10742072
41.56692166
36.02224364
39.61600206
39.2792565
40.29951278
39.95626361
36.51749997
23.76828872
24.18626961
28.54370159
33.20279502
24.80421948
24.61323707
25.28204003
25.02467895
33.06415349
46.19981902
46.49975393
42.98837931
47.84123545
47.55276568
48.43093523
48.13382233
38.55824626
38.57860785
38.16113007
39.50506944
39.02877401
39.00543366
39.07039414
39.05044604
39.53218273
40.40210685
40.45850226
39.99183134
41.0369193
40.84855446
40.76318097
41.00645568
40.92965896
41.15631355
39.93371664
40.16687761
40.90604607
34.17518072
38.2992111
37.98378422
38.94710076
38.62039573
34.61994824
22.30612869
22.64168815
26.29844461
33.53107404
24.19018686
24.08858119
24.44988237
24.31026146
33.48261068
45.03451752
45.32097362
42.03610986
46.70989308
46.43608596
47.26814896
46.98720732
38.46431223
38.48957549
38.07836139
39.37675404
38.92609846
38.89674631
38.98050113
38.95403087
39.41165537
40.14848769
40.21592141
39.8195449
40.53774863
40.48724105
40.39000439
40.67418632
40.58205607
40.66530073
39.02185798
39.2460973
40.21974094
32.51335147
37.073843
36.78326843
37.67428839
37.37090886
32.90935879
21.13817127
21.40510091
24.57687018
33.54107154
23.8609271
23.80507039
24.00089515
23.92565057
33.56131097
43.91865587
44.19319044
41.02888773
45.63484071
45.37425746
46.16568875
45.89863045
38.35269352
38.38213098
37.98025969
39.21982299
38.80060484
38.76596399
38.86602476
38.83396689
39.26160122
39.8529026
39.93036159
39.61172584
40.01610481
40.0901816
39.98837569
40.29097256
40.19104967
40.14780908
38.15571122
38.36730107
39.53660578
31.06654402
35.95134215
35.68759706
36.49924907
36.22191703
31.40778218
20.21162999
20.42308563
23.23491038
33.28989519
23.67348267
23.63773556
23.75600537
23.71272599
33.37255596
42.84912573
43.11232664
40.02122454
44.61102529
44.36257806
45.11681054
44.86243012
38.22541172
38.25864383
37.86941177
39.03708255
38.65460207
38.61507674
38.73006976
38.69293822
39.08502472
39.52680869
39.61026813
39.37372917
39.48823677
39.67814499
39.57356877
39.88568652
39.78223033
39.61996085
37.34540152
37.54243721
38.8719055
29.83301704
34.93725422
34.70061664
35.4307008
35.18059399
30.12239956
19.47645667
19.64418661
22.17194829
32.85462
23.54054695
23.5094972
23.60402259
23.57206801
32.97661399
41.82222988
42.07545133
39.03323108
43.63423868
43.39688247
44.11700908
43.87425865
38.08349666
38.12030901
37.74717961
38.8317223
38.48964487
38.44565541
38.57438832
38.53256437
38.88497714
39.18553392
39.27144475
39.11179726
38.96687987
39.25812023
39.15266805
39.4686271
39.36347135
39.09616111
36.59472609
36.77678786
38.23502121
28.7924022
34.02961343
33.81848081
34.47052897
34.24691833
29.03590721
18.8920214
19.02523188
21.3248474
32.30372661
23.41180329
23.37715776
23.47767667
23.44547724
32.4484359
40.83342111
41.07687693
38.07162838
42.70016204
42.47250463
43.1621238
42.92992691
37.92794485
37.96804005
37.61421189
38.60786038
38.30771825
38.25993691
38.40063195
38.35463197
38.66522043
38.83965223
38.92641588
38.83170114
38.45893989
38.83718646
38.73263046
39.04729302
38.94210011
38.58440381
35.90308302
36.07061125
37.63082136
27.91878018
33.22052549
33.0325127
33.61336001
33.41410426
28.12299622
18.42625548
18.5322962
20.65033647
31.69137688
23.26223709
23.2203605
23.34052746
23.30251462
31.84859175
39.88499632
40.11839829
37.13242951
41.80238469
41.58325553
42.24700331
42.0236287
37.76036545
37.80328437
37.47114359
38.37084408
38.11189098
38.06114418
38.21133886
38.16197137
38.43110428
38.49210348
38.57895033
38.54114041
37.9686279
38.42171989
38.31918012
38.62849545
38.52484024
38.08939739
35.26731075
35.42123328
37.06103998
27.18749241
32.50011054
32.33269331
32.84985869
32.6724586
27.35830349
18.05397378
18.13846153
20.11668652
31.04504571
23.08190353
23.03188214
23.17611987
23.13017261
31.20851342
38.97534487
39.19923467
36.22367693
40.93860299
40.72785963
41.36626251
41.15135861
37.58278832
37.62800832
37.31894897
38.12467017
37.90536482
37.85239154
38.00977077
37.95783678
38.18693577
38.14620653
38.23239098
38.24610996
37.49828612
38.01538985
37.91551053
38.21724453
38.11597581
37.61392464
34.68294772
34.82450757
36.52554552
26.57586298
31.85798311
31.70839126
32.16995126
32.01179448
26.71886106
17.75607572
17.82334023
19.69897609
30.3850864
22.86973494
22.812002
22.97966423
22.92567491
30.55031666
38.1028814
38.3175824
35.34885635
40.10876648
39.90665551
40.51930529
40.3129593
37.3972933
37.44429502
37.158897
37.87222299
37.69100151
37.63653802
37.79895141
37.74514704
37.93574379
37.80467553
37.88950987
37.9512658
37.04879183
37.62032264
37.52347622
37.81635787
37.7179543
37.15920868
34.14454492
34.2751439
36.02282433
26.06244304
31.28307471
31.14865734
31.56279659
31.4210824
26.18274717
17.51773349
17.57110187
19.37605822
29.72606046
22.62909879
22.56479921
22.75265137
22.69146491
29.88974043
37.2666904
37.47245709
34.5094791
39.31258209
39.11848893
39.70662408
39.50859142
37.20590017
37.25420671
36.99237609
37.61678075
37.47153241
37.41609643
37.58178653
37.52676911
37.68076437
37.46961097
37.55269649
37.6577723
36.6199518
37.23774152
37.14413196
37.42742656
37.33216963
36.72525321
33.64672505
33.76765354
35.55050152
25.62951147
30.76551776
30.64409685
31.01767451
30.88998146
25.73111375
17.32782925
17.36975903