/*--------------------------------*- C++ -*----------------------------------*\
| =========                 |                                                 |
| \\      /  F ield         | OpenFOAM: The Open Source CFD Toolbox           |
|  \\    /   O peration     | Version:  v2012                                 |
|   \\  /    A nd           | Website:  www.openfoam.com                      |
|    \\/     M anipulation  |                                                 |
\*---------------------------------------------------------------------------*/
FoamFile
{
    version     2.0;
    format      ascii;
    class       surfaceScalarField;
    location    "2";
    object      meshPhi;
}
// * * * * * * * * * * * * * * * * * * * * * * * * * * * * * * * * * * * * * //

dimensions      [0 3 -1 0 0 0 0];
oriented        oriented;


internalField   nonuniform List<scalar> 
6430
(
0
0
0
0
0
0
0
0
0
0
0
0
0
0
0
0
1.109300961e-06
0
-8.391134916e-07
3.787482731e-05
4.299478192e-05
-1.254838242e-05
-0.0001963032578
1.414958426e-05
0.0003140302485
-4.135356696e-05
-0.0007749681322
4.044028253e-05
0.0009402321534
4.188865777e-05
-0.001379413845
-3.924706352e-05
0.001483884175
0.0001421597957
-0.001621124958
-0.0001417106413
0.0008107913084
0.0008098844954
3.163255445e-05
-0.0004051254145
-3.152187061e-05
0.0004050147307
0
0
0
0
0
0
0
0
0
0
0
0
0
0
0
0
1.276058417e-06
0
-1.246508242e-06
4.991396232e-05
4.550564166e-05
-1.656984719e-05
-0.0002252394515
1.572079244e-05
0.0003522544116
-4.1555588e-05
-0.0008241149658
4.116851416e-05
0.0009890212883
5.102359465e-05
-0.001409153215
-4.787108492e-05
0.001504533502
0.0001425136531
-0.001608186458
-0.0001425136531
0.0008046868991
0.0008034995593
3.22832301e-05
-0.0008046868991
-6.433587205e-05
3.205264196e-05
0.0004022583432
0.0004024285559
0
0
0
0
0
0
0
0
0
0
0
0
0
0
0
0
9.978890097e-07
0
-4.54648553e-07
2.245058696e-05
1.397145669e-05
-1.008086677e-05
-0.0001587524676
7.666128829e-06
0.0002682116707
-3.638460293e-05
-0.0007046162781
3.335288236e-05
0.0008649274042
2.941070705e-05
-0.001296169488
-2.212575264e-05
0.001404627804
0.0001302627967
-0.001583403781
-0.0001183951879
0.00159623602
6.433587207e-05
-0.001595534667
-0.0001277521387
0.001595534667
6.341626662e-05
0
0
0
0
0
0
0
0
0
0
0
0
0
0
0
0
1.236084078e-08
0
0
1.203622942e-07
0
-1.492639977e-06
-5.259221838e-05
3.279121542e-07
0.0001188703423
-2.052420083e-05
-0.0004440248551
1.567740616e-05
0.000579001911
4.551585592e-06
-0.0009864318509
-1.175336484e-06
0.001106162852
7.831850936e-05
-0.001372317254
-6.49900769e-05
0.001427517884
0.0001146093671
-0.001510624796
-0.0001035296378
0.00151782835
0
0
0
0
0
0
0
0
0
0
0
0
0
0
0
0
0
0
0
0
0
2.372511377e-07
-1.151720254e-07
-5.316620727e-08
8.713082122e-06
-3.619965259e-06
-0.0001531212434
1.275925561e-06
0.0002342127192
-1.654644042e-06
-0.0005252342973
1.049737484e-06
0.0006245885838
3.10681495e-05
-0.0008815487157
-2.269444467e-05
0.0009460154283
6.108053993e-05
-0.001062081367
-4.700852841e-05
0.001074660973
0
0
0
0
0
0
0
0
0
0
0
0
0
0
0
0
0
0
0
0
0
0
0
0
0
3.811870112e-07
-3.786066293e-06
-9.197719437e-08
1.765618754e-05
9.455488837e-07
-0.0001239562542
-1.000664256e-06
0.0001728058566
6.962365906e-06
-0.000322704307
-4.297236857e-06
0.0003660042197
1.522331539e-05
-0.0004526491182
-9.01541694e-06
0.0004641086628
0
0
0
0
0
0
0
0
0
0
0
0
0
0
0
0
0
0
0
0
0
0
0
0
0
0
0
0
0
1.575030386e-08
0
0
6.083352094e-07
5.361561706e-07
-1.672302487e-05
-9.434908725e-08
2.591351455e-05
8.856554392e-07
-5.038125648e-05
-2.426395593e-07
5.462859965e-05
0
0
0
0
0
0
0
0
0
0
0
0
0
0
0
0
0
0
0
0
0
0
0
0
0
0
0
0
0
0
0
0
0
0
0
0
0
0
0
0
0
0
0
0
0
0
0
0
0
0
0
0
0
0
0
0
0
0
0
0
0
0
0
0
0
0
0
0
0
0
0
0
0
0
0
0
0
0
0
0
0
0
0
0
0
0
0
0
0
0
0
0
0
0
0
0
0
0
0
0
0
0
0
0
0
0
0
0
0
0
0
0
0
0
0
0
0
0
0
0
0
0
0
0
0
0
0
0
0
0
0
0
0
0
0
0
0
0
0
0
0
0
0
0
0
0
0
0
0
0
0
0
0
0
0
0
0
0
0
0
0
0
0
0
0
0
0
0
0
0
0
0
0
0
0
0
0
0
0
0
0
0
0
0
0
0
0
0
0
0
0
0
0
0
0
0
0
0
0
0
0
0
0
0
0
0
0
0
0
0
0
0
0
0
0
0
0
0
0
0
0
0
0
0
0
0
0
0
0
0
0
0
0
0
0
0
0
0
0
0
0
0
0
0
0
0
0
0
0
0
0
0
0
0
0
0
0
0
0
0
0
0
0
0
0
0
0
0
0
0
0
0
0
0
0
0
0
0
0
0
0
0
0
0
0
0
0
0
0
0
0
0
0
0
0
0
0
0
0
0
0
0
0
0
0
0
0
0
0
0
0
0
0
0
0
0
0
0
0
0
0
0
0
0
0
0
0
0
0
0
0
0
0
0
0
0
0
0
0
0
0
0
0
0
0
0
0
0
0
0
0
0
0
0
0
0
0
0
0
0
0
0
0
0
0
0
0
0
0
0
0
0
0
0
0
0
0
0
0
0
0
0
0
0
0
0
0
0
0
0
0
0
0
0
0
0
0
0
0
0
0
0
0
0
0
0
0
0
0
0
0
0
0
0
0
0
0
0
0
0
0
0
0
0
0
0
0
0
0
0
0
0
0
0
0
0
0
0
0
0
0
0
0
0
0
0
0
0
0
0
0
0
0
0
0
0
0
0
0
0
0
0
0
0
0
0
0
0
0
0
0
0
0
0
0
0
0
0
0
0
0
0
0
0
0
0
0
0
0
0
0
0
0
0
0
0
0
0
0
0
0
0
0
0
0
0
0
0
0
0
0
0
0
0
0
0
0
0
0
0
0
0
0
0
0
0
0
0
0
0
0
0
0
0
0
0
0
0
0
0
0
0
0
0
0
0
0
0
0
0
0
0
0
0
0
0
0
0
0
0
0
0
0
0
0
0
0
0
0
0
0
0
0
0
0
0
0
0
0
0
0
0
0
0
0
0
0
0
0
0
0
0
0
0
0
0
0
0
0
0
0
0
0
0
0
0
0
0
0
0
0
0
0
0
0
0
0
0
0
0
0
0
0
0
0
0
0
0
0
0
0
0
0
0
0
0
0
0
0
0
0
0
0
0
0
0
0
0
0
0
0
0
0
0
0
0
0
0
0
0
0
0
0
0
0
0
0
0
0
0
0
0
0
0
0
0
0
0
0
0
0
0
0
0
0
0
0
0
0
0
0
0
0
-0.000405708276
0.000405710608
3.163022245e-05
-0.0004028358227
0.0004028358227
3.228323009e-05
-0.001624580647
0.0001419261282
0.0008128079279
0.0008120063866
-6.407799833e-05
0.0004062568081
6.415869304e-05
-0.0008120457788
-0.001600953167
0.0001447072921
0.0007932584731
0.0008055010546
-6.526109241e-05
0.0004026652319
6.526109241e-05
-0.0008055010546
0.0004057020504
-0.0008108176654
-6.40877978e-05
-3.164989958e-05
-0.0004040656314
0.0004040279569
3.1687574e-05
-1.536483416e-05
0.0001997922454
1.617921066e-05
-0.0002006066219
1.729669786e-05
0.0002010386555
-0.0002015002095
-1.683514386e-05
-0.0007989885668
0.0007989885668
6.433587205e-05
0.0002022374589
1.758981135e-05
-0.0002025305724
-1.679720324e-05
0.0002016391781
1.739548399e-05
0.0004062604077
-2.948450328e-05
-0.0004042711187
1.345174687e-05
1.404346741e-05
0.0001996861259
-0.0002002125569
-1.483840321e-05
-0.0004037008946
-3.157763353e-05
0.0004036286286
1.257720628e-05
-1.232383963e-05
0.0001994327593
-3.036556854e-05
0.0004064481607
1.390902672e-05
1.626878883e-05
-1.620826515e-05
0.0002004497174
1.314669242e-05
0.0001992227593
-0.0001997884658
-1.586359073e-05
1.298104308e-05
0.0002014818638
-0.000201999355
-1.246355187e-05
3.006125125e-05
-0.0004045231979
-3.003715387e-05
0.0004044991005
-3.004264538e-05
-0.0004039848143
3.024404592e-05
0.0002019147413
0.0002018686724
3.028185784e-05
-0.0004049270526
-3.014387588e-05
0.0004047890706
-0.0004046858847
0.0004046288951
3.011824086e-05
0.0002007239482
1.359457055e-05
-0.0002013374756
1.417448828e-05
0.0002028022306
-0.0002031189744
-1.385774451e-05
3.026131343e-05
-0.0004067588376
-3.02177908e-05
0.000406715315
-0.00040566879
0.0004056684214
3.028222638e-05
-0.0004066196422
0.0004066434652
3.023749041e-05
0.0002025994841
1.455883797e-05
-0.0002029838338
-1.38864396e-05
0.0002021114707
1.437445301e-05
-1.33608845e-05
0.0002022766755
-0.0004035398972
-2.986264295e-05
0.0002017162574
0.0002016436374
-1.455075687e-05
-0.0004479097838
2.403668686e-05
0.0002096931251
0.0002287307287
0.0002318411258
-6.18840876e-06
1.087335047e-05
-0.0002365260675
4.601294858e-05
3.402571705e-08
0.0001857941515
-9.611853312e-06
9.48845665e-06
-0.0002003468241
1.235501221e-05
0.0002008834394
-0.0002013090393
-1.192941235e-05
-1.254091332e-05
0.0001999999698
1.326489164e-05
-6.487236155e-05
2.804146208e-05
-0.0001629575663
0.0002009660599
1.298487769e-05
-0.0002015959254
0.0002046026677
-0.0002595167724
-9.958256817e-06
-1.166311891e-05
0.0002006040694
-1.429023574e-05
-1.132547231e-05
1.194228898e-05
-0.001596964356
0.001598541836
0.0001394951222
-0.0001314446178
-0.001598419617
0.0007994310504
6.618352543e-05
6.526109242e-05
-0.0008046868991
-6.526109241e-05
-6.433587204e-05
-0.0008022448107
0.0008022448107
6.433587205e-05
0.0008022448107
-6.156953398e-05
6.156953398e-05
-0.0008022448107
0.0004037872855
-0.0004029956672
-3.027612163e-05
0.000205980968
1.564727267e-05
-0.0002049034006
-1.672484008e-05
1.526902997e-05
-0.0002030592523
-1.558958927e-05
0.0002033798116
-1.5495103e-05
-0.0002017393605
0.0002015293835
1.570508002e-05
-3.042010432e-05
0.0004038418213
-6.064820784e-05
0.0008022448107
6.064820783e-05
-1.588810191e-05
-0.0002021975
0.0002017357091
1.634989278e-05
1.390059127e-05
-0.0002061448717
-1.615729202e-05
0.0002084015724
0.0002888884471
-0.0002340149558
-6.106190007e-05
-0.0003899946342
-3.14151948e-05
0.0002195022123
0.0001873568598
-0.0004028275814
-3.099507758e-05
0.0004024455204
3.137713867e-05
-0.0002015058525
-1.522066393e-05
0.0002012314135
-1.45477303e-05
-0.0002018474063
0.0002017072058
1.468793081e-05
0.0002001130488
-1.292955117e-05
1.359349172e-05
-0.0002007769894
-1.066918581e-05
-1.144352185e-05
1.168866979e-05
0.0001998679009
-6.175250485e-05
0.0001983247882
2.05282581e-05
-0.0001571005415
0.0004028623902
-3.015074763e-05
3.05727067e-05
-0.0004032843492
-0.0001934503803
-1.025201786e-05
0.0003349013957
-1.467527425e-05
-0.0002017578465
0.000201257175
1.517594575e-05
6.582024849e-05
-2.841925106e-05
0.0001685799706
1.438817249e-05
-0.0002022304327
-1.44285105e-05
0.0002022707707
-0.0002022779738
0.0002027629149
1.478408892e-05
0.0002070765936
1.342994487e-05
-0.0002048592658
0.0002016832446
1.521749252e-05
-0.0002022126352
-1.468810193e-05
1.488678477e-05
-0.0002030165195
-1.477340556e-05
0.0002029031403
-0.0002020658196
0.0002019069634
1.454702876e-05
-0.000201930981
-1.541551957e-05
0.0002014583986
-0.0002054935466
0.0002065977416
1.279639625e-05
0.0002007583372
-0.0002015826433
-1.210524507e-05
-0.0002020564734
-1.45360859e-05
0.000202044829
-1.730506336e-05
-0.0002286213589
0.0002302254882
1.570093412e-05
0.0001901400633
-5.233798167e-05
2.620511494e-05
-0.0001640071965
0.0002012323723
-0.0002536173931
-9.367484016e-06
-1.002951117e-05
0.0001993443266
2.085481045e-05
-6.161460001e-05
0.0002004455574
-0.0001596857679
-1.353463105e-05
0.0001999900396
1.186937966e-05
-1.004031639e-05
0.0002006491483
1.036785375e-05
-0.0002009766856
-1.422318585e-05
0.0002012311562
1.97927686e-05
-0.0002774430503
1.331756457e-05
0.0002025889106
-0.0002026132069
-1.329326828e-05
0.0001983506754
-1.700395606e-05
-0.0001604919088
0.0002030158749
1.436278982e-05
-0.0002040611002
0.0002623509985
1.05458436e-05
1.538319718e-05
-0.0002021493307
-1.524265265e-05
0.0002020087862
-0.0002031157234
0.0002030268163
1.497569179e-05
1.579047364e-05
-0.0002023308276
1.493640945e-05
-0.0002047217741
-1.635950701e-05
1.498951454e-05
-0.0002033282378
-1.514322104e-05
0.0002034819443
-0.000202611513
0.000202670918
1.532379221e-05
1.609373463e-05
-1.39479134e-05
0.0001994933569
-0.0002037346685
2.918872645e-05
0.0001906396767
1.746638609e-05
-0.0002038055706
-1.188613975e-05
-0.0001994917782
0.0001990540784
0.0002003245913
-1.574076381e-05
-0.0002007920926
1.320388641e-05
-1.286261769e-05
0.0001999833226
0.0001997056904
1.556751915e-05
-0.0002008736922
0.0001984528655
1.473053132e-05
-0.0002033639868
-1.471972512e-05
0.0002033531806
-0.0002033169657
0.0002035085488
1.479793147e-05
1.394410326e-05
-0.0002045012404
1.577284557e-05
-0.0002023205479
-1.538327865e-05
1.499809343e-05
-0.0002027734407
-1.492776432e-05
0.0002027031115
-0.0002034094595
0.0002033473382
1.479265263e-05
1.412918029e-05
-1.36178015e-05
0.0002016000919
-0.0002019400859
0.000201483082
1.458618427e-05
-0.0002024625985
1.489696557e-05
0.0002027646801
-1.289822466e-05
-0.0002032273399
1.30161484e-05
-1.219168853e-05
0.0002019402202
0.0002016750224
-0.000213038039
0.0002122101967
1.170119275e-05
-1.47708292e-05
1.352257995e-05
-0.0002117897897
-1.832551571e-05
-0.000232971381
0.0002026735801
1.643385649e-05
-0.0002191074366
8.35791303e-06
0.0002038863094
-0.000200059072
-1.006513063e-05
-1.304680455e-05
0.0002007445458
-1.659666838e-05
0.0001911682594
1.556847221e-05
1.207840179e-05
-1.146214095e-05
0.000199383709
-0.0002003371981
1.236523402e-05
0.0002000503659
1.377024907e-05
-0.0002008425556
7.748455449e-06
-0.0001716422369
1.625726687e-05
-0.0002757740393
0.0001993527277
-2.183734839e-05
-0.0001612581125
-1.343304015e-05
0.0002028275111
0.000201873253
-1.07200437e-05
-0.0002028163282
1.078631047e-05
-7.284550174e-06
0.0001983714927
0.0001999282389
-1.363518622e-05
1.456354791e-05
-1.345827215e-05
-0.0002019147522
0.000201770712
-1.319513505e-05
-0.0002013433574
0.0002010802203
-0.0002642059059
-1.344436496e-05
0.0002776502709
0.0002067205161
-0.000205411422
6.696154302e-05
0.0001689476995
1.115720952e-05
-0.0002228143465
-1.769796692e-05
0.00022320725
-1.409126243e-05
-0.0002012657964
0.0002015575357
1.379952312e-05
0.000209429472
-8.519734048e-06
3.30394439e-06
-0.0002042136823
-0.0002005269335
0.0001998610414
1.425938376e-05
-1.430224782e-05
1.49287331e-05
-0.0002011534188
-1.370231868e-05
-0.0002013769185
0.0001996635715
-1.75403768e-05
0.0001970952264
-0.0001590265915
0.0002574496859
-0.0002749900627
-8.136439828e-06
0.0002241972846
-6.631372814e-06
-2.108533616e-05
0.000206084819
2.480061224e-05
-0.0002098000951
0.0001723916867
-0.0002126465766
-1.208309168e-05
1.265341006e-05
-1.255321509e-05
0.00020115698
-0.0002007949911
0.0002005857834
-0.0002013598091
-0.0002031466856
0.0001902949537
-1.251985608e-05
1.26579443e-05
0.0002013449937
-1.233515394e-05
0.0002014153898
-1.291180914e-05
-0.0002010539719
0.000200770646
-0.0002011604443
0.0002009065795
1.125071663e-05
0.0002065042345
-0.0002040195768
0.0002030786049
-0.0002041214052
-7.645395712e-06
1.140372007e-05
0.0001993202805
0.0001854144739
-1.20272384e-05
0.0002013671069
0.0002013167019
-1.334019592e-05
-0.0002019447661
0.0002048144381
-0.0002046320541
0.0002044103858
-0.0001845946883
1.221314871e-05
0.0001985866545
-5.509468199e-05
1.872524793e-05
-0.0001482252542
-1.64282984e-05
1.742725351e-05
-0.0002710446466
0.0001918411182
-0.0001556886168
0.0001946867829
0.0002027387876
0.0002033183679
-7.483282023e-06
1.240063284e-05
0.0002026546373
-1.173690218e-05
1.170434959e-05
0.0002011418407
0.0002008594406
-0.0002013123774
1.246034208e-05
0.0002007643325
0.0002011382832
-0.0001664715014
2.09937389e-05
-6.229209328e-05
0.0002000993307
-0.0001588009763
-1.688823722e-05
0.0001988880948
-0.0001610061187
8.285597722e-06
0.0002017694272
-0.0002569589694
0.0002029524738
-0.0002739629254
0.00025855309
-0.0002754413272
-0.0002008794019
0.0002018091515
-6.307309115e-05
-0.0001596436591
-8.581101332e-06
-1.412740402e-05
0.0002764784025
-0.0002049004689
0.0001834885147
-0.000205074669
-0.0001914146292
0.0003108645755
-1.283830646e-05
0.0007720765719
4.590972457e-05
-4.019338508e-05
-0.0006078091797
0.0009376791035
-4.087265376e-05
0.001376388689
-9.794725684e-06
9.482544176e-06
-0.001246208995
0.001483064122
4.122393347e-05
-0.0001361788557
0.0001347619215
-0.001609704202
-0.000221927279
0.000346459835
-1.606390405e-05
0.0008096137464
4.30436612e-05
-4.291327786e-05
-0.000646501857
-0.0006017858154
4.066630937e-05
0.000972492617
-4.177575895e-05
0.001393160786
-1.728457037e-05
1.610293545e-05
-0.00127060306
-0.001249102602
-1.217497822e-05
0.001490832187
4.975238035e-05
-0.000142048501
0.0001423450655
-0.001595781569
-0.001608117265
-0.0001376730891
-0.0001372890774
-0.001622657107
0.0008090469208
0.0008091886225
-6.863432083e-05
0.0008090154081
6.862566281e-05
-0.0008090067501
6.858957831e-05
0.0008107754014
-0.0008107616276
-6.860335208e-05
-3.164223931e-05
-0.0004047999457
0.0004047675944
3.167459068e-05
-3.047885031e-05
3.052226079e-05
-0.0004047292952
3.059120043e-05
-0.0004049356996
-3.058255342e-05
-0.0001818654909
0.0002981641015
-1.234509928e-05
0.0007497459067
3.471420499e-05
-3.798406104e-05
-0.000588419997
-0.0006582755324
4.21640336e-05
0.000912526965
-3.866603731e-05
0.001341149402
-2.981887478e-06
7.446731966e-06
-0.001214490835
-0.001287922148
-1.503644697e-05
0.001444994816
3.653615148e-05
-0.0001121630138
0.0001234409037
-0.001573366855
-0.001603883252
-0.0001392566663
0.001605303777
-0.0001424642759
-0.001605316608
-0.0001388209324
0.0008022448107
6.987014817e-05
6.895078425e-05
0.0008030589662
6.895078423e-05
0.0008046868991
-0.0008046868991
-6.895078424e-05
-6.433587205e-05
-0.0008034995593
0.0004018514546
0.0004016481047
-3.159144558e-05
0.0004016481047
3.159144558e-05
-0.0004016481047
3.159419266e-05
0.0004022555961
-0.0004022583432
-3.159144557e-05
-7.81592751e-05
0.0001573412301
-3.188482701e-06
0.0005178809058
1.642289665e-05
-2.136367472e-05
-0.0003819959721
-0.0005471933609
3.074709272e-05
0.0006618479992
-2.525925703e-05
0.001082573505
8.966519305e-06
-7.503456926e-06
-0.0009498249953
-0.001166845054
1.274797213e-06
0.001201663196
9.297281084e-06
0.001452671136
-6.050889611e-05
7.32832143e-05
-0.001387698533
-0.001548584117
-9.965250762e-05
0.001500010293
9.197422842e-05
0.001562250211
-0.0001111066211
0.000121337399
-0.001551678332
-0.001595534667
-0.0001314446179
0.001566467316
0.0001227717122
-3.382117948e-06
2.574097628e-05
3.971424681e-07
0.0002193883122
1.606879124e-06
-4.081106816e-06
-0.0001363007844
-0.0003188525099
1.170271799e-05
0.0003162252912
-6.932500179e-06
0.0006453794109
5.043197171e-06
-6.991522037e-06
-0.0005337265855
-0.0008556141404
9.254794776e-06
0.0007533455645
-1.701750621e-06
0.001023418043
-2.117380407e-05
2.878924662e-05
-0.0009447610693
-0.001300482559
-4.86220974e-05
0.001088866891
4.103783908e-05
0.001203495693
-5.629946571e-05
7.053159772e-05
-0.001178713188
-0.001494504098
-9.8750419e-05
0.001215416706
7.581642607e-05
0
0
0
1.949639765e-05
-1.215363154e-07
3.933272161e-07
-3.709318805e-06
-8.649473804e-05
1.305940248e-07
4.985083682e-05
5.197615118e-07
0.0002043614696
-6.846112238e-07
1.784997885e-08
-0.0001450752016
-0.0004243899368
3.023980315e-06
0.0002673935312
5.045321769e-07
0.000450123456
-4.702157886e-06
7.099689311e-06
-0.0003929028119
-0.0008053366857
-1.511382477e-05
0.0005007752578
1.076701945e-05
0.0005992362145
-1.38627426e-05
2.151854431e-05
-0.0005763150355
-0.001036515057
-4.302036202e-05
0.0006115758416
2.367450254e-05
0
0
0
0
0
0
0
0
0
0
0
3.632692267e-06
0
9.661245459e-08
-2.400876971e-07
-8.006098981e-05
-7.724405767e-07
1.09942368e-05
2.803455676e-07
5.675419482e-05
-3.815256286e-07
1.005245912e-06
-3.916621159e-05
-0.0002746573259
-3.035932643e-06
7.449468782e-05
1.30904292e-06
0.000115477718
-8.774143636e-07
2.170754617e-06
-0.000104926165
-0.0004320634872
-8.271237365e-06
0.000121955913
2.268018445e-06
0
0
0
0
0
0
0
0
0
0
0
0
0
0
0
0
0
0
0
0
0
0
0
-8.970476063e-06
-3.42989936e-08
0
0
0
0
0
0
-4.372173057e-05
-2.424697835e-07
0
0
0
0
0
0
0
0
0
0
0
0
0
0
0
0
0
0
0
0
0
0
0
0
0
0
0
0
0
0
0
0
0
0
0
0
0
0
0
0
0
0
0
0
0
0
0
0
0
0
0
0
0
0
0
0
0
0
0
0
0
0
0
0
0
0
0
0
0
0
0
0
0
0
0
0
0
0
0
0
0
0
0
0
0
0
0
0
0
0
0
0
0
0
0
0
0
0
0
0
0
0
0
0
0
0
0
0
0
0
0
0
0
0
0
0
0
0
0
0
0
0
0
0
0
0
0
0
0
0
0
0
0
0
0
0
0
0
0
0
0
0
0
0
0
0
0
0
0
0
0
0
0
0
0
0
0
0
0
0
0
0
0
0
0
0
0
0
0
0
0
0
0
0
0
0
0
0
0
0
0
0
0
0
0
0
0
0
0
0
0
0
0
0
0
0
0
0
0
0
0
0
0
0
0
0
0
0
0
0
0
0
0
0
0
0
0
0
0
0
0
0
0
0
0
0
0
0
0
0
0
0
0
0
0
0
0
0
0
0
0
0
0
0
0
0
0
0
0
0
0
0
0
0
0
0
0
0
0
0
0
0
0
0
0
0
0
0
0
0
0
0
0
0
0
0
0
0
0
0
0
0
0
0
0
0
0
0
0
0
0
0
0
0
0
0
0
0
0
0
0
0
0
0
0
0
0
0
0
0
0
0
0
0
0
0
0
0
0
0
0
0
0
0
0
0
0
0
0
0
0
0
0
0
0
0
0
0
0
0
0
0
0
0
0
0
0
0
0
0
0
0
0
0
0
0
0
0
0
0
0
0
0
0
0
0
0
0
0
0
0
0
0
0
0
0
0
0
0
0
0
0
0
0
0
0
0
0
0
0
0
0
0
0
0
0
0
0
0
0
0
0
0
0
0
0
0
0
0
0
0
0
0
0
0
0
0
0
0
0
0
0
0
0
0
0
0
0
0
0
0
0
0
0
0
0
0
0
0
0
0
0
0
0
0
0
0
0
0
0
0
0
0
0
0
0
0
0
0
0
0
0
0
0
0
0
0
0
0
0
0
0
0
0
0
0
0
0
0
0
0
0
0
0
0
0
0
0
0
0
0
0
0
0
0
0
0
0
0
0
0
0
0
0
0
0
0
0
0
0
0
0
0
0
0
0
0
0
0
0
0
0
0
0
0
0
0
0
0
0
0
0
0
0
0
0
0
0
0
0
0
0
0
0
0
0
0
0
0
0
0
0
0
0
0
0
0
0
0
0
0
0
0
0
0
0
0
0
0
0
0
0
0
0
0
0
0
0
0
0
0
0
0
0
0
0
0
0
0
0
0
0
0
3.063208439e-05
-0.0004057096739
3.059821338e-05
-0.0004067269513
-3.063009967e-05
3.159105048e-05
-0.0004066932788
-3.163117574e-05
0.000406733404
3.159966671e-05
-0.0004028330555
3.032075679e-05
-0.000388702009
-3.161338196e-05
3.055227319e-05
-0.0003875133243
-3.228323009e-05
0.0003892442812
-2.990378727e-05
2.992265685e-05
0.0008120652342
6.854446621e-05
-0.0008120201221
0.0008142627076
-0.0008142525702
-6.855537093e-05
-0.001627551538
0.0008142451928
0.0008133408499
0.0004067825578
-0.0008142888289
-6.420915012e-05
-6.746692921e-05
0.0008142755991
-6.754109715e-05
0.0008120754069
6.75309245e-05
0.0008055010546
6.895078424e-05
-0.0008055010546
0.0008132374848
-0.0008132720489
-6.85997567e-05
-0.001651970674
0.0008145754172
0.0008448134718
6.404992868e-05
0.0004044496712
-0.0008134424315
-5.875806294e-05
6.758486439e-05
-6.774079464e-05
0.0008133934151
-6.802835122e-05
0.0008055010546
6.802835122e-05
-6.755454746e-05
0.0008107888517
0.0008090239019
6.757637054e-05
0.0004047688507
6.429914866e-05
-0.000809083702
-3.047845752e-05
3.05242944e-05
-0.0004040306511
-0.0004045206507
-3.048139757e-05
-0.0004045159011
-3.164474961e-05
0.0004045184114
-0.0002013848845
1.669040293e-05
-1.666700082e-05
1.694881556e-05
-0.0002016666992
-1.610152901e-05
-0.0002011720937
-1.646042732e-05
1.676687576e-05
-0.0002018066579
0.000201293845
-0.0002016429771
-1.611129527e-05
-1.633339147e-05
0.0007989885668
-6.156953398e-05
6.1569534e-05
-0.0007989885668
0.0008014306552
-0.0008014306552
-6.156953398e-05
-0.0008014306552
-6.433587205e-05
0.0008014306552
-6.064820785e-05
0.0008014306552
-6.064820784e-05
0.0007989885668
6.064820784e-05
-0.0004026446971
-2.952153894e-05
-0.0004016483633
2.951712848e-05
-0.0002035747417
1.73589824e-05
-1.689357514e-05
1.665762653e-05
-0.0002033387931
-0.0002026572717
-0.0002029994576
0.0002029427109
1.50548401e-05
1.611104005e-05
-0.0002025356945
-0.0004066758219
0.0004066725153
3.159435714e-05
3.06446332e-05
-0.000406666062
0.0002087583883
-0.0002055963699
-1.168175245e-05
-0.0002016568486
-1.439603708e-05
0.0002019616233
-0.0004031749532
-3.014899195e-05
1.475717983e-05
1.429564661e-05
-1.552039554e-05
-0.0002007936903
0.0002000707977
-0.0002006624601
-0.0004452956638
0.0004458647624
2.998317461e-05
3.029423651e-05
-0.0004478832635
-0.0004035855779
-3.043277679e-05
0.0004044844588
-3.136323805e-05
1.62592074e-05
1.70677326e-05
0.0002043171523
-0.000207929513
-1.747297547e-05
-1.292498898e-05
0.0002135469374
-1.337285701e-05
1.35850999e-05
-0.0002022115979
0.0002029809735
-0.0002027720375
-1.358179304e-05
-1.229890661e-05
0.0004040916942
-2.990045945e-05
-0.0004042283886
2.953046866e-05
-1.502523102e-05
0.0002022005988
-1.489211602e-05
2.94386409e-05
0.0002023604956
-1.51628904e-05
1.524384277e-05
-0.0002018203128
-0.0002028623126
-1.522217071e-05
-0.0004049269416
0.0002027872172
0.0002024833109
0.0004057697066
-3.014852746e-05
-0.000405765055
2.963166012e-05
-2.973315774e-05
0.0002027554808
3.025416355e-05
0.0002020172365
2.979680547e-05
0.0002022049109
-0.0004056063207
0.000202653449
-0.0004056366073
-0.0002014120666
1.416408156e-05
-1.395018627e-05
1.434203268e-05
-0.000201803913
-0.000201702562
-1.427948207e-05
1.440042642e-05
-0.0002032399188
0.0002033805929
-0.0002034237807
-1.423629434e-05
-1.370449153e-05
0.0004065767941
-3.021184438e-05
-0.0004065827406
2.981769001e-05
-2.990671988e-05
0.0002033488583
2.979370872e-05
0.0002033753095
3.013603769e-05
0.0002031750342
-0.0004063004085
0.0002032014884
-0.0004062300265
0.0004065959266
-3.033530267e-05
-0.0004066855752
-3.009417001e-05
0.0002034474076
2.975630182e-05
0.0002032714126
-0.0004061229677
0.0002030116589
-0.00040622078
-0.000202894359
1.499059846e-05
-1.466687765e-05
1.487121717e-05
-0.0002030986985
-0.000203250285
-2.957286922e-05
-0.0004042564409
0.0002020138476
0.0002019528195
-1.465072974e-05
1.473708101e-05
-0.0002019337575
-0.000201683578
-1.498516492e-05
-1.61561775e-05
1.535725679e-05
-0.0002278224382
-0.000202041175
-1.466602807e-05
-0.000411328839
0.0002020471074
0.0002037455492
-0.0001963726738
9.887421392e-06
-1.123170674e-05
1.160045313e-05
-0.0001967414202
-0.0001918927937
-1.968573713e-05
-1.29073112e-05
1.274011258e-05
0.0002018541247
-1.210679859e-05
-1.106294066e-05
0.000200987653
-0.0002022271619
1.366913253e-05
0.0002015429071
-1.291361442e-05
1.36389263e-05
-1.436947007e-05
-1.284241783e-05
0.0001388209324
0.001598419617
-0.0001381830208
-0.001602047155
0.001602047155
-0.001602766121
6.526109241e-05
-0.0008014306552
-6.526109241e-05
-0.0001351313613
6.802835121e-05
0.0008014306552
0.0008006164997
6.71030101e-05
-0.0001351313613
-6.802835121e-05
0.0008046868991
0.0008022448107
6.802835121e-05
6.526109241e-05
-0.0008022448107
6.341626663e-05
0.0008022448107
-6.341626662e-05
-0.0008030589662
0.0008030589662
3.182482105e-05
-0.0008030589662
-0.0008030589662
3.066960625e-05
0.0008030592329
3.089966107e-05
-6.249383361e-05
3.136085745e-05
3.113297617e-05
-6.249383361e-05
-3.136358441e-05
0.000402624103
0.0004016481047
3.136085745e-05
0.000401649438
3.066827296e-05
-0.0004016481047
-1.674314982e-05
-0.0002040191725
1.585892172e-05
0.0002031811227
-0.000202975457
0.000202795704
-1.577245748e-05
-0.0002026128358
1.623942035e-05
-1.641917335e-05
1.560005945e-05
1.630605474e-05
-1.594876503e-05
-0.0002017798178
-0.0002018471953
-3.043901008e-05
0.0004016502219
3.04382262e-05
-2.97477307e-05
2.974851457e-05
-0.0004016491472
-0.0004030380207
-2.975742404e-05
5.972579897e-05
-5.972579897e-05
-0.0008030594915
2.997833494e-05
3.020893917e-05
1.583519987e-05
-1.544284811e-05
-0.0002023291266
-0.0002027479866
-2.715378935e-05
-0.0002251866822
0.0001567103434
-0.0001754269197
-8.437213061e-06
6.519527574e-05
3.045316763e-05
0.0004024806284
-3.103273559e-05
-0.0004028630876
-3.012319944e-05
0.0002006515258
1.570232889e-05
1.498417676e-05
-0.0002221518561
-1.681866794e-05
3.040616966e-05
-3.113560248e-05
-0.0004029986467
0.0002016247683
-0.0004026542436
0.000201151021
-1.497032873e-05
-0.0002014013562
1.55110419e-05
-1.502248099e-05
1.45796023e-05
-1.424931504e-05
-0.0002015962975
-0.0002018786954
9.641194946e-06
-0.0004039292392
3.142134513e-05
0.0004030806007
-3.159792957e-05
1.868763864e-05
-0.0002041874733
1.748567736e-05
-3.039782005e-05
-1.667593115e-05
0.0001724709494
0.0002035306734
2.124178425e-05
9.791090873e-06
7.41852438e-05
0.0003163600164
-0.0002027133097
-0.0001662016963
3.3897417e-05
-0.0001282205727
0.0001433143595
-4.89912038e-05
0.0001615655507
-0.0001112342772
0.0002025059289
-1.457394376e-05
1.398184186e-05
-1.424795046e-05
1.40410147e-05
1.483393588e-05
0.0002035290385
-0.0002024107439
0.0002029967293
-0.0002039436307
-1.452869444e-05
-1.477954777e-05
-0.0002026555802
1.522249276e-05
0.0002018363977
-0.0002022739128
0.0002025563867
-1.467634328e-05
1.479957335e-05
-1.45170995e-05
1.504713345e-05
1.424541606e-05
-0.0002020755964
0.0002016126814
-0.0002021312354
1.503842136e-05
0.0002042138243
-1.487687095e-05
-0.0002038730392
1.414925217e-05
-1.456748198e-05
1.579529974e-05
-1.854119254e-05
-0.000210561972
-0.0002097379088
1.226333145e-05
0.0002008948204
-1.316811221e-05
-0.0002014813241
0.0002020077533
-0.0002015611243
0.0002008660374
-1.166016959e-05
-1.174203484e-05
-1.230621343e-05
0.0002014320436
0.0002018079078
0.0002019095469
-1.513496311e-05
1.581437209e-05
-1.554780224e-05
1.601650037e-05
1.52974298e-05
0.00020277652
-0.0002025962095
0.0002023458371
-0.0002019027269
-1.566818515e-05
-1.598877802e-05
-0.0002039236682
1.519067205e-05
0.0002044119466
-0.0002037430981
0.0002033742608
-1.531599345e-05
1.550534927e-05
-1.587418657e-05
1.506362546e-05
1.603014664e-05
-0.000203182833
0.0002033779673
-1.47223829e-05
1.45221115e-05
-1.456792491e-05
1.463537333e-05
1.473496579e-05
0.0002038372085
-0.0002034244068
0.0002035914477
-0.0002038817935
-1.45266401e-05
-1.515386879e-05
-0.0002025573932
1.539071412e-05
0.0002025239156
-0.0002028065672
0.0002029090267
-1.482513213e-05
1.49751206e-05
-1.487266109e-05
1.512083892e-05
1.473242651e-05
-0.0002032389331
-1.141336038e-05
-0.0002003877464
0.0001998907656
-0.0001997036729
0.000195267698
-1.36277196e-05
1.281131288e-05
-1.724728777e-05
1.346130081e-05
-1.418583503e-05
-0.0002005274071
0.0001826190282
-1.508683132e-05
-0.0001852301638
2.052062468e-05
-1.332851622e-05
1.157718953e-05
0.000202144211
-1.216386481e-05
-0.0001993642176
0.0001976128909
-0.0001971999696
0.0002656991897
-8.024291762e-06
-1.009376312e-05
2.715659849e-05
0.0002160465961
-1.900590992e-05
-0.0003182317473
0.0002171677731
-0.0002093151776
7.63056855e-05
0.0001578101043
-2.797997822e-05
3.583257374e-05
-2.173347725e-05
-6.750932439e-05
0.0001116376089
0.0001758602027
0
0
0
0
0
0
2.932443046e-05
3.437921017e-05
4.908623118e-06
-4.948873189e-06
-9.800797496e-05
0
0
0
0
0
0
0
0
4.749025312e-05
4.932445719e-05
7.420624162e-06
-7.107614657e-06
-0.0001214847107
-0.0001028729142
5.853222588e-06
0.0003309354109
1.522619633e-05
-0.000209010901
-2.453131917e-05
2.595054357e-05
0.0004722259252
-2.238222587e-05
0.0004510671289
0.0009514790576
-0.0007889350228
4.148309327e-05
-3.170838758e-05
3.2023613e-05
0.00110807726
-3.342120163e-05
0.001100538994
0.001490802174
-0.001379151064
-4.698737593e-05
7.853035434e-05
-8.187417696e-05
0.001567238444
7.657658213e-05
0.001561740498
0.0004057798576
-3.15996778e-05
3.127582526e-05
-3.127545705e-05
0.0004057794894
3.131397074e-05
0.0004049765852
0
0
0
0
0
0
0
0
3.904886004e-05
3.110741223e-05
3.548769336e-06
-4.83457689e-06
-9.164547005e-05
-0.0001230388922
6.881675365e-06
0.0003409624517
1.427587901e-05
-0.0002158794484
-2.642475334e-05
2.456629421e-05
0.0004859678665
-2.749081784e-05
0.0004986924613
0.0009749998657
-0.0008100706309
4.023476775e-05
-3.137182549e-05
3.16228237e-05
0.001132235008
-3.101763299e-05
0.001145868202
0.001494126057
-0.001397270734
-4.288503174e-05
8.246042736e-05
-7.62099791e-05
0.001561968331
8.630754211e-05
0.001570252254
0
0
0
0
0
0
0
0
6.743326971e-06
1.907986141e-06
-2.198830255e-07
-2.925793401e-07
-2.571083755e-05
-7.574855103e-05
2.272382631e-06
0.000233720993
5.303089672e-06
-0.0001328084491
-1.547281107e-05
1.189856709e-05
0.0003571970199
-1.892124543e-05
0.0003995735368
0.000806358865
-0.0006498964738
2.960522837e-05
-2.9799641e-05
2.776704758e-05
0.0009606341144
-3.103312605e-05
0.001021185389
0.001350811834
-0.001237891785
-1.526417077e-05
4.874785048e-05
-3.892324168e-05
0.001442121376
5.868681465e-05
0.001489195613
0.001582262447
-0.001556461607
-0.0001054902432
0.0001302902098
-0.0001190097126
0.001591846835
0.001595601156
0.001591908642