/*--------------------------------*- C++ -*----------------------------------*\
| =========                 |                                                 |
| \\      /  F ield         | OpenFOAM: The Open Source CFD Toolbox           |
|  \\    /   O peration     | Version:  v2012                                 |
|   \\  /    A nd           | Website:  www.openfoam.com                      |
|    \\/     M anipulation  |                                                 |
\*---------------------------------------------------------------------------*/
FoamFile
{
    version     2.0;
    format      ascii;
    class       volScalarField;
    location    "2";
    object      nut;
}
// * * * * * * * * * * * * * * * * * * * * * * * * * * * * * * * * * * * * * //

dimensions      [0 2 -1 0 0 0 0];


internalField   nonuniform List<scalar> 
3259
(
1.148007315
1.147994777
1.14891593
1.151487973
1.154862081
1.161797484
0.9768114128
0.8112327339
0.6681764485
0.560251473
0.4722006862
0.4141184875
1.148091583
1.148159724
1.149321401
1.152321828
1.156358201
1.163837797
1.036309706
0.8630758197
0.7334938137
0.6209917856
0.5162732912
0.2849414853
1.148255149
1.148398587
1.149794351
1.153237256
1.157771933
1.165709583
1.107399676
0.9500578202
0.8278050547
0.7244869717
0.6220544873
0.09969528582
1.148558647
1.148776314
1.15038617
1.154231026
1.159189392
1.167489815
1.170071642
1.079547273
0.9740436427
0.8968516721
0.7979296598
0.04729396746
1.148852373
1.149128409
1.150929862
1.155171916
1.160548418
1.169060643
1.171722423
1.158121514
1.111622175
0.9906321813
0.5393411424
0.02810224984
1.149226596
1.149555697
1.151521051
1.156094924
1.161797315
1.170493898
1.172993725
1.158122478
1.095460254
0.8783467082
0.1848229466
0.04792297095
1.149523815
1.149888747
1.151990396
1.156880342
1.162902879
1.171692633
1.174087879
1.158041537
1.086142018
0.751281487
0.08019760668
0.1184509316
1.149876411
1.150278027
1.152492077
1.157620723
1.163849998
1.172686217
1.174851634
1.157744912
1.077367223
0.6773512113
0.06969523982
0.1489216148
1.150114153
1.150543891
1.152851016
1.158203834
1.164648615
1.173497764
1.175410593
1.157202901
1.06743217
0.6224268356
0.06612029586
0.1610327762
1.150409022
1.150878427
1.153271479
1.158778798
1.165317783
1.174158245
1.175813798
1.156424546
1.055486819
0.5836927729
0.06459336475
0.1690813647
1.150566219
1.1510742
1.15354877
1.159217342
1.16588929
1.174701933
1.176096909
1.155378029
1.040237681
0.5561327978
0.06435190401
0.175021833
1.150797048
1.151359215
1.153921461
1.159700147
1.166387045
1.175159871
1.176274972
1.153928945
1.021527902
0.5360523691
0.06500333595
0.1795209474
1.150872873
1.151487773
1.154137777
1.160050718
1.166834284
1.175552925
1.176339228
1.151851312
1.001426378
0.521462466
0.06632044684
0.1828178604
1.151046962
1.151729007
1.154476838
1.160481553
1.167237306
1.175891685
1.17626434
1.14892926
0.9820605183
0.5108810013
0.06821511961
0.1852555501
1.151051624
1.151795221
1.1546365
1.160761097
1.167608179
1.176181603
1.176020026
1.145086564
0.9645116273
0.5034900696
0.07064423906
0.1871378283
1.151181181
1.151999851
1.154947265
1.161155587
1.16794479
1.176426723
1.175578051
1.140432694
0.9491019793
0.4986351909
0.07357503806
0.1885695719
1.151132229
1.152015241
1.155056062
1.161370152
1.168258877
1.176628652
1.174915315
1.135166014
0.9355840627
0.4953775631
0.07690148218
0.1896964449
1.151226596
1.152189203
1.1553421
1.161739886
1.168544247
1.176786525
1.17401816
1.129505618
0.9236908582
0.4933314463
0.08062610613
0.1906741965
1.151148558
1.152173551
1.155414624
1.161899457
1.168814074
1.176897241
1.172886202
1.123648131
0.9132305093
0.4923835081
0.08475874326
0.1915405818
1.151206262
1.152314285
1.155672693
1.162250863
1.169058235
1.176957755
1.1715341
1.117747419
0.904038408
0.492350666
0.08928409587
0.1922896128
1.151134096
1.152298529
1.155736183
1.162377043
1.169291512
1.17696447
1.16998756
1.111916836
0.8959658424
0.4930284478
0.09415610406
0.1929518768
1.151137682
1.152389591
1.155950973
1.162699844
1.169501098
1.176917017
1.168276553
1.106232996
0.8888882337
0.4942930783
0.09937915821
0.1935795448
1.151111356
1.15241034
1.156038618
1.162834379
1.169704849
1.176818796
1.166446595
1.100734527
0.8826348883
0.4960309391
0.1049156415
0.1942085793
1.151106232
1.152514104
1.156297213
1.163225312
1.169907624
1.176692798
1.164607264
1.095447404
0.8771166096
0.498028279
0.1106459259
0.1948620211
0.4183575659
0.3291472256
0.4642190366
0.4280800142
0.5021530598
0.4022560401
0.4211330254
0.3834807475
0.03065633741
0.05049138772
0.2841834912
0.05146798932
0.03229014353
0.004731751941
0.03035356555
0.3789042247
0.01901448677
0.01116378667
0.03193889764
0.019345189
0.01301604436
0.04556987563
0.1909033303
0.1784671313
0.2080337482
0.1959351148
0.04591659062
0.06760663026
0.2249533731
0.2124267106
0.2290924643
0.0689177985
0.04924048525
0.04822916853
0.1736185745
0.1645953248
0.02436670874
0.0121940258
0.01892220893
0.01376364802
0.03050146842
0.01256777846
0.0134698209
0.01299129604
0.03053950839
0.01320061204
0.01602520931
0.5852260617
0.3839637924
0.3923243211
0.2592586062
0.008741106287
0.005334184727
0.03372147859
0.09740374722
0.09218576459
0.01203373904
0.0170398012
0.05139171003
0.03939944494
0.004395701183
0.1266933856
0.1097072711
0.09041210752
0.08619465484
0.03001286945
0.01703172812
0.01877908209
0.01188304955
0.01795430397
0.02190100255
0.002831837543
0.03147375516
0.02040066029
0.1057792593
0.099248002
0.03759146646
0.04808148718
0.1129487252
0.1075549634
0.0507442694
0.04430259624
0.02890985044
0.08360429162
0.07522879639
0.0134575008
0.01279118906
0.01799463348
0.01229141181
0.01380562374
0.01550791862
0.03136357496
0.009031548037
0.01341072203
0.01215876495
0.01344470325
0.02124219779
0.1201127774
0.1146619918
0.04856895075
0.05915407643
0.1282736528
0.1220085842
0.02013420262
0.0204318816
0.03314248823
0.01896208584
0.03173107389
0.01968825464
0.01986642393
0.01937169999
0.1363638965
0.1303620499
0.06238601048
0.07185613763
0.1435277643
0.1381506985
0.03244005783
0.03249787442
0.0495933422
0.04791383135
0.03204475649
0.03199280828
0.02304886043
0.03672902073
0.03614309061
0.008776311358
0.01466332093
0.01684101716
0.01394823169
0.01344178371
0.0187623426
0.01900630015
0.03095662948
0.01272775321
0.009267250599
0.01256994212
0.0129683585
0.02895075149
0.01825680231
0.01884858797
0.01344423047
0.02038901186
0.02019221221
0.01589288935
0.03524444258
0.02103215127
0.02195990573
0.04310708409
0.02993695293
0.002990142971
0.03001418009
0.04593654921
0.04559458562
0.01874708196
0.01182834453
0.0086950323
0.003473183533
0.01340487914
0.01372857291
0.01944705792
0.01961608844
0.0316624907
0.01979774779
0.01973063921
0.01968564087
0.01998558883
0.01992013845
0.03035317931
0.03032422669
0.04590557774
0.01891563057
0.01996057028
0.01945002901
0.01951788282
0.0439787093
0.04342648477
0.02869996787
0.01363317058
0.01113007979
0.0108569959
0.008289639437
0.01136889382
0.01297043336
0.01856515301
0.01295708981
0.01403613514
0.01373302201
0.0310749369
0.0191208983
0.01932521058
0.01243714761
0.01241132698
0.01247202673
0.01323556404
0.01304638032
0.008878167206
0.009131898471
0.01337009378
0.01255011206
0.01301419582
0.0155058324
0.01913279006
0.02897494338
0.7959320939
0.6877548612
0.6556411114
0.5725748069
0.5481097574
0.4826054656
0.8439552912
0.7443888295
0.7006046392
0.7133715456
0.6274499698
0.5848819985
0.6003971346
0.5194503004
0.4885879622
0.479686123
0.4508532188
0.4558403457
0.4008730464
0.2476678871
0.2605313837
0.9231380905
0.827800212
0.7638628632
0.8001008352
0.7173913734
0.6481349567
0.6920600879
0.6136160615
0.5379692691
0.5318295499
0.5004175651
0.4825764843
0.2802775323
0.140321182
0.1576039373
1.040860386
0.9555639725
0.8560863636
0.9314638436
0.8661077256
0.7491675925
0.8465547428
0.7991718225
0.6507588059
0.7916255952
0.2541683476
0.348585065
0.06095454409
1.15820793
1.129836532
0.9965821393
1.115595115
1.048583144
0.9139411326
1.012307082
0.7825072796
0.8764677346
0.6174695683
0.06945621988
0.1820451009
0.02819460404
1.158129281
1.120231735
1.127343801
1.09907871
0.9838774018
1.034734801
0.9119650873
0.4561675462
0.7141160414
0.2565933024
0.03435343456
0.0462078115
0.03830815594
1.158066133
1.11495869
1.118622036
1.088291165
0.9079538205
0.96372061
0.7732136173
0.2037564986
0.3554724086
0.09251867236
0.04789724819
0.03582688513
0.1008935161
1.157839421
1.110346535
1.113796497
1.079636958
0.8577270553
0.8953124886
0.6940354231
0.1610211459
0.1803456084
0.07126999328
0.06558408935
0.05370960531
0.1445764011
1.157361412
1.105152163
1.109126065
1.070065914
0.8074068387
0.8452025478
0.634499305
0.1497610848
0.1572807504
0.06676225631
0.0765294127
0.06844104912
0.158543343
1.156641485
1.098977494
1.103714062
1.058728755
0.7599993856
0.7949806354
0.5921184163
0.1437644212
0.1479289989
0.06483588662
0.08639309607
0.07908837796
0.1672986787
1.155669934
1.091275526
1.09723211
1.04441333
0.7212515691
0.7494123944
0.5622246931
0.1402803023
0.1427125463
0.06431807707
0.09514182039
0.0886683903
0.1736909085
1.15434045
1.081142058
1.089001588
1.026436839
0.6915791678
0.7130503277
0.5404870592
0.1386129474
0.1396978502
0.0647764827
0.1026942355
0.09714227741
0.1785263229
1.152441937
1.068393513
1.078178705
1.006446865
0.6691181095
0.6853743857
0.5246843048
0.1386089743
0.1384676007
0.06593712136
0.109152399
0.1044057202
0.1820848976
1.149746393
1.054047285
1.064905001
0.9867607891
0.6519659626
0.6644029459
0.5132288453
0.1399874143
0.1388408215
0.06769647209
0.114633856
0.1106053449
0.1847063593
1.146128426
1.03944623
1.050373285
0.9686971633
0.6388125586
0.6483327959
0.5050736352
0.1424905438
0.1405122769
0.06999248119
0.1192987786
0.1158669781
0.1867121005
1.141662837
1.025555603
1.035887731
0.9527654449
0.6289057258
0.6360673886
0.4996685909
0.1459419514
0.1432808005
0.07281134867
0.1232610391
0.1203480506
0.1882486775
1.136527428
1.012688513
1.022243489
0.938802112
0.6212697978
0.6268206346
0.4960747887
0.1499827803
0.1469074032
0.07604572887
0.1266298225
0.1241466785
0.1894351761
1.130945448
1.000875741
1.009638356
0.9265234035
0.6152836246
0.6196391621
0.4937350963
0.1545047816
0.1510644865
0.07967447146
0.1295622398
0.1273896821
0.1904438293
1.125121186
0.99013433
0.9980934267
0.9157207688
0.6107206771
0.6140212121
0.4925281752
0.1595167892
0.155708401
0.08371480703
0.1321670069
0.1302293852
0.1913426797
1.119219158
0.9804232141
0.9876153129
0.9062271081
0.6073738382
0.6097816369
0.4922867628
0.1649537636
0.1608288497
0.08816189702
0.1344931915
0.1327551489
0.1921242591
1.113362341
0.9716853456
0.9781532488
0.8978874204
0.6050268238
0.6067049527
0.4928054541
0.1707016436
0.1663441555
0.09297746099
0.1365886358
0.1350106051
0.1928110505
1.107637329
0.9638255381
0.9696449361
0.8905629217
0.6035054518
0.6045754451
0.493936229
0.1767094619
0.1721333081
0.09815783122
0.1385188145
0.1370461554
0.1934526934
1.102094147
0.956745223
0.9619914
0.884125155
0.6026858512
0.6032389148
0.495593638
0.1829698655
0.178164704
0.1037059417
0.140345016
0.1389291579
0.1940918778
1.096733302
0.9503120955
0.9550835987
0.8784066339
0.6023742372
0.6025544476
0.497600663
0.189366421
0.1843774551
0.1095372725
0.1421065164
0.1407109772
0.1947481805
1.091262024
0.9440724983
0.9488419884
0.8729599029
0.6024405545
0.6023208589
0.4999802809
0.1962596969
0.1906043038
0.1160269654
0.1439724792
0.1424241208
0.1955129914
0.2649998659
0.2779595715
0.4297191415
0.162607566
0.1766624835
0.3351306305
0.0296405825
0.4492195257
0.4668340651
0.4566322613
0.4470273989
0.4535914135
0.443601069
0.4672374172
0.4624506189
0.4891694029
0.4034669349
0.4451457789
0.4551765477
0.4434900881
0.4425763675
0.405640255
0.2303301325
0.242921499
0.3965481825
0.03087333366
0.04890060403
0.04806218062
0.07254399403
0.07125741417
0.04975079052
0.009911519602
0.009564886999
0.244116974
0.01828430206
0.01848841004
0.03311031886
0.04089121492
0.05304057197
0.07585546345
0.073980188
0.145131633
0.0729768845
0.4351224708
0.2822187009
0.003279616982
0.02796851666
0.01559611774
0.04722053903
0.04676604799
0.03028745676
0.3661979673
0.2125794673
0.2248538469
0.01587536304
0.01460520857
0.004957156502
0.06339834453
0.06156185719
0.0436886598
0.1876505531
0.1386926748
0.1412561913
0.118399359
0.1284678618
0.1821512568
0.2041488466
0.1539477878
0.1575319576
0.1463810777
0.1495768303
0.1995619904
0.04693481704
0.06585511212
0.06452155034
0.08938534558
0.08780534148
0.06654791336
0.2207983298
0.1698560037
0.173760718
0.1617055499
0.1656706765
0.2165239483
0.2373740195
0.1850367798
0.1775864136
0.1813207385
0.2332221625
0.06979082953
0.09235857954
0.09095219477
0.1712715934
0.1097795113
0.1157696784
0.0978770316
0.1067934062
0.1641395461
0.01889611356
0.01443984229
0.01461994212
0.01350394795
0.01331767126
0.01415023439
0.01321211932
0.0138468424
0.01362423976
0.01341025842
0.0138959867
0.5568808991
0.5244378776
0.5550209612
0.3580602918
0.4886233626
0.5169779361
0.4563123683
0.4813207506
0.3659575918
0.1324730559
0.1558516129
0.2708164705
0.008453490859
0.03916654321
0.0319456768
0.1030739501
0.1189411991
0.006856250002
0.0529120499
0.05051236562
0.03176816778
0.09558544452
0.07217259104
0.07438231307
0.06899927545
0.0702524228
0.09369032695
0.01399942757
0.02693044693
0.02015850741
0.02867422802
0.02556170951
0.01723596182
0.03303479661
0.03319511931
0.05198672306
0.0100668253
0.006973132052
0.00281363849
0.1201015517
0.06382708285
0.07010482598
0.05592864991
0.06166295413
0.1143425829
0.08913837612
0.066708835
0.06758046185
0.06454051245
0.06529611609
0.08724465322
0.02023896688
0.01572131998
0.0138906924
0.01496355997
0.0139066007
0.01322730071
0.01538079388
0.006234165314
0.00812448288
0.1036786489
0.08185461803
0.08371583253
0.07708793078
0.07953605866
0.1016625239
0.04211379662
0.0593272551
0.05632365524
0.06801849897
0.06681726152
0.04734026004
0.1110791692
0.08839138667
0.08993444777
0.08533762233
0.08691968645
0.1094052759
0.05028833386
0.03274611777
0.03281735839
0.08275403296
0.06155089649
0.06248253171
0.05356906845
0.05474842491
0.07498642851
0.01379948999
0.01379630446
0.01326354746
0.0145696082
0.01337820608
0.01353386945
0.01317064559
0.0135393592
0.01334126532
0.1182297687
0.09447292895
0.09611554145
0.09140723785
0.09295497643
0.116488167
0.04920630156
0.0701805883
0.06902113216
0.08098790258
0.0782273299
0.0556051519
0.1260958391
0.1020231618
0.1043782336
0.0978609078
0.09982036977
0.1240082752
0.1343907916
0.1108756856
0.1127599973
0.1066803167
0.1088858327
0.1324846071
0.06461646205
0.0858865179
0.08358111426
0.09526325247
0.09385768054
0.07093227399
0.1417562362
0.1183254069
0.1202572691
0.1146020004
0.116441125
0.1400373207
0.01369604951
0.01385457521
0.01760636426
0.01397897516
0.0137299906
0.01364329448
0.01403571824
0.01363659743
0.01429893979
0.01341775649
0.03242997548
0.0157630094
0.02253971334
0.01471225529
0.01546764004
0.0307654521
0.002042486421
0.006875123902
0.006645057602
0.01028019535
0.008143823981
0.00320034251
0.01241714369
0.009530967336
0.01041880979
0.01088616412
0.01025938658
0.0123535488
1.154299834
1.157210093
1.160925833
1.086625508
0.9666451647
0.8363030925
1.155672677
1.159099777
1.158266717
1.162869212
1.096741381
1.090911583
1.004096288
0.8874532021
0.866452393
0.8176305614
0.7813331052
0.7700551227
0.6821287531
0.6531127125
0.6394541896
0.5723076752
0.547121484
0.5360968188
0.4096164236
0.3609649429
0.3654566152
1.157063031
1.160802004
1.160037602
1.164764159
1.142726672
1.117091122
1.067555516
0.9513053381
0.9167122273
0.8768392469
0.8447823737
0.8289531257
0.7499318119
0.721040998
0.704195933
0.6385176565
0.6116476297
0.594044186
1.158491438
1.162459631
1.161738262
1.166591743
1.16928337
1.168336773
1.157937254
1.058870257
0.9955441566
0.9764301213
0.9449526164
0.9158475719
0.8579062601
0.8319385738
0.7992963496
0.76036713
0.7378469909
0.6999072311
0.6667543286
0.6525290476
0.6011861947
0.08440979818
0.01577469009
0.01518451659
1.159898651
1.164097107
1.163389614
1.168272883
1.171040213
1.1701902
1.170981888
1.163822499
1.118219771
1.118825778
1.089270086
1.047319088
1.020847185
1.001860815
0.9526738856
0.95844965
0.9554308207
0.8823761172
0.7447278426
0.5735097312
0.6466962875
0.03772599876
0.01964240414
0.01787782597
1.161212144
1.165599151
1.16489955
1.169808799
1.172521446
1.171838523
1.172431201
1.164598429
1.164045189
1.15811636
1.149657548
1.150181945
1.107401719
1.085439363
1.092046785
0.9701319467
0.9005914913
0.9288653617
0.4368416263
0.2292148631
0.3268360911
0.02974182756
0.04584502939
0.03368584054
1.16239081
1.166894538
1.166261159
1.171124026
1.173853289
1.173216949
1.1735569
1.165073231
1.164741281
1.158121044
1.148524246
1.148770765
1.092788522
1.058839677
1.064683506
0.8408855417
0.6882178133
0.7493230163
0.1453315798
0.05982787675
0.07986581837
0.06277824007
0.1494812664
0.1199686385
1.163412497
1.167988174
1.167449324
1.172217428
1.174903278
1.174406187
1.174498993
1.165347562
1.165184491
1.15799573
1.147562915
1.147795154
1.084009876
1.042404696
1.046365774
0.7311604963
0.5280135763
0.5497933163
0.07528417946
0.04451192484
0.04488712607
0.1327461801
0.2244760092
0.2127418197
1.164279249
1.168903726
1.168454249
1.173115819
1.175742438
1.175346736
1.175153447
1.165358524
1.165371114
1.157634965
1.14642852
1.146743238
1.075023918
1.02602786
1.030257413
0.6619150691
0.4675585335
0.4792893836
0.06843085656
0.04480839846
0.04465988357
0.152601355
0.2360938454
0.2341119193
1.165004425
1.169661716
1.169289468
1.173847182
1.176404605
1.176093218
1.175629144
1.165178076
1.165330884
1.157030813
1.144944124
1.145344246
1.064678898
1.007398721
1.012382407
0.6113943835
0.4333739519
0.4404900717
0.06558822768
0.04561918405
0.04539217623
0.1632917164
0.2416216142
0.2404618991
1.165617374
1.170291497
1.169980521
1.174444584
1.176924686
1.176679907
1.175968898
1.164826411
1.165108451
1.156191809
1.143102817
1.143603114
1.052034352
0.9845880683
0.9907458573
0.5759554615
0.4110150052
0.4158562587
0.06443352191
0.04666274023
0.04637961124
0.1707296912
0.2452136548
0.2444480218
1.166144802
1.170825697
1.170559564
1.174941708
1.177337357
1.17714243
1.176199166
1.164264923
1.164711592
1.155061722
1.14073841
1.141393893
1.035833589
0.957752915
0.9646691211
0.5505037049
0.3953334391
0.3987558099
0.06444696207
0.0479391407
0.04759574013
0.1762660722
0.2476092849
0.2470976256
1.166613677
1.171290751
1.171057482
1.175365089
1.177666706
1.177511443
1.176322731
1.163387036
1.164083911
1.153478815
1.13751582
1.138428164
1.016534719
0.9305607845
0.9371740874
0.5319482357
0.3845078144
0.3868422807
0.06527755679
0.04943918179
0.04904201962
0.1804391707
0.2492057847
0.2488704417
1.167034891
1.171703744
1.171495948
1.175729924
1.177921652
1.177803281
1.176321173
1.162049464
1.163105691
1.151207188
1.133094362
1.13432738
0.9964630455
0.9061821324
0.9119412834
0.518495491
0.377469209
0.3789372075
0.06674814861
0.05114974081
0.05069772121
0.1834927161
0.2501582946
0.2499736985
1.167421131
1.172073516
1.171887544
1.17604361
1.178101626
1.178021048
1.176165348
1.160126585
1.161631733
1.148053245
1.127330065
1.128888478
0.9774784228
0.8854496731
0.8902962231
0.508791914
0.3732031683
0.3740428678
0.06877747632
0.05306763202
0.05256453398
0.1857705358
0.2506470453
0.25055572
1.167772289
1.172406816
1.172239168
1.176310782
1.178203194
1.178162232
1.175825592
1.157572243
1.159552184
1.143984826
1.1204761
1.122268961
0.9604660258
0.8681504606
0.8721780707
0.5020795436
0.3712515838
0.3715426244
0.07134246011
0.05517915137
0.05462416735
0.1875343664
0.2508323896
0.2508129617
1.168098412
1.172707792
1.17255649
1.176534639
1.178220915
1.178222495
1.175275813
1.154424826
1.156843746
1.139164991
1.112951409
1.114874324
0.9455569974
0.8537058386
0.8570919076
0.4977019552
0.3710009643
0.370955051
0.07438147019
0.05748518064
0.05687962858
0.1888730652
0.2507564083
0.2507939421
1.168396964
1.172980841
1.172843044
1.176715652
1.17814647
1.178194792
1.174497225
1.15077982
1.153561542
1.133779598
1.105114571
1.107086683
0.9324690966
0.8414104722
0.8443082805
0.4947589613
0.3717150589
0.3714579112
0.0778094725
0.0599667885
0.05931286202
0.1899536798
0.2505382789
0.2505977714
1.168676597
1.173227018
1.173101884
1.176852302
1.177970415
1.17806961
1.173482433
1.1467631
1.149811714
1.128053081
1.097245803
1.099204119
0.920949337
0.8308884091
0.83336738
0.4930009668
0.3732587121
0.3727950215
0.08164359402
0.06262047225
0.06191466921
0.1909069745
0.2502806126
0.2503448999
1.168936771
1.173449628
1.173333165
1.176941989
1.177685411
1.177837686
1.172238947
1.142499479
1.14572196
1.122172175
1.089540034
1.091443848
0.9108216245
0.8219113144
0.824024689
0.4923011335
0.3755614132
0.3749199092
0.08588956035
0.06545663645
0.06469172262
0.1917470933
0.2499908299
0.2500629628
1.169180352
1.173648012
1.173538877
1.176982669
1.177288406
1.177493209
1.1707877
1.13809951
1.1414146
1.116279903
1.082117372
1.083942227
0.9019228886
0.8142657086
0.816054655
0.4924652139
0.3784634836
0.3776873295
0.09052659444
0.06848026521
0.06765081859
0.1924763886
0.2496665567
0.2497419886
1.169418009
1.173826333
1.17371597
1.176972052
1.176779668
1.17703531
1.169153365
1.133653122
1.13699556
1.110480395
1.075049096
1.076780347
0.894107254
0.8077392308
0.8092714345
0.4933002699
0.3817989102
0.3809177272
0.09551992758
0.07168741371
0.07078319179
0.1931335397
0.2493377708
0.249405106
1.169633723
1.173979996
1.173869086
1.17690629
1.176157436
1.176469039
1.167354144
1.129221417
1.132547668
1.104839755
1.068367532
1.070001949
0.887250171
0.8022027597
0.803502357
0.4947100217
0.3855180768
0.3845269202
0.1008920251
0.075094211
0.07409706765
0.1937708753
0.2490456552
0.2490932961
1.169850122
1.174101473
1.173996403
1.176771584
1.17540667
1.175809655
1.165376725
1.124834383
1.12812585
1.099389951
1.062063722
1.063607685
0.8811891221
0.7974775501
0.7985913897
0.4965664753
0.3895238896
0.3884323457
0.106588876
0.07871830247
0.07760272535
0.1944159263
0.2488135749
0.2488394052
1.170093198
1.174231289
1.174122549
1.176577387
1.174481132
1.175097541
1.16309288
1.12026731
1.123767864
1.094097051
1.056060073
1.057595013
0.8757242005
0.7933319727
0.7943851017
0.4986931618
0.3936743335
0.3924208732
0.1125475393
0.08257005371
0.08130162996
0.1950908145
0.2486531094
0.2486714372
0.3699780921
0.3745162232
0.4227855384
0.2614163397
0.272808521
0.3238593774
0.4348506566
0.4371232331
0.4322118238
0.4084814459
0.4178654301
0.420228967
0.4275158057
0.423216646
0.4144376881
0.3343340269
0.3384369706
0.3877511208
0.4424475322
0.3984479346
0.374828606
0.3259783305
0.3293081823
0.01514811785
0.4183695308
0.4198811152
0.3833725589
0.01247206137
0.01144398731
0.005728424688
0.01266486966
0.01755339836
0.01652343706
0.01810912097
0.01534560195
0.01351777385
0.01790675375
0.7560453697
0.7467686847
0.7889167831
0.6750539624
0.7084672546
0.719795177
0.6263370878
0.6141402807
0.6433146371
0.5614138311
0.5868881183
0.5986878932
0.5253023023
0.5156831385
0.537657823
0.4768926575
0.495895968
0.5046128155
0.8111748816
0.7953106517
0.8337633129
0.7269858429
0.7605636024
0.7772974804
0.7348333616
0.7466815861
0.7130840664
0.6836846177
0.6665327818
0.6958840219
0.6113924096
0.6382820478
0.6550389769
0.6112502057
0.6251547978
0.5985242613
0.5740844609
0.5596226558
0.5850204974
0.5060713777
0.5358314848
0.5480367268
0.5139193369
0.5244330095
0.4965749126
0.3519962994
0.356454967
0.4053644058
0.2517669328
0.3046480619
0.3002872214
0.3136125429
0.3092040714
0.2563295243
0.8909622754
0.8661751641
0.9010901303
0.80242896
0.8333989989
0.8581177748
0.795813036
0.8113810922
0.7798729299
0.7715048334
0.7442285997
0.772767577
0.6892598207
0.7162827175
0.7433903902
0.6757555667
0.6926387051
0.6655268888
0.666221553
0.6362754757
0.6626333966
0.5814152357
0.6097181677
0.6408906105
0.5664071843
0.5841691881
0.5560296817
0.2100982366
0.2058073508
0.152592442
1.010463677
0.9753260652
1.00918144
0.9188558949
0.945789871
0.9814891005
0.8851591859
0.9142962616
0.8853670923
0.908148142
0.8679672673
0.893069572
0.8224302386
0.8445248142
0.8864883605
0.7731378086
0.8070579451
0.7837012532
0.8274729151
0.7806504352
0.8011106577
0.73909636
0.7602564545
0.8098639806
0.6763650656
0.7162485139
0.6922747923
0.6775230773
0.7056798293
0.7231089416
0.2796852685
0.5206651636
0.4936255703
0.5655115779
0.5582079875
0.3343256148
0.01688538574
0.01613003943
0.07408034374
0.03270326296
0.03579473105
0.02922365208
0.03099137469
1.150809465
1.136582306
1.158329425
1.091649619
1.112108164
1.141437033
1.020793014
1.063789717
1.041418586
1.09807848
1.058696804
1.073884568
1.04027116
1.047048213
1.076278028
0.9326695551
0.9845042499
0.9692950289
0.9626941042
0.9801607037
1.025150288
0.8320680087
0.9182736988
0.8912047149
0.8749853477
0.9461998834
0.8645847604
0.4013349597
0.5153050692
0.7032059445
0.1007633859
0.2879230341
0.19402584
0.4300731467
0.3515544113
0.1515095941
0.02642768928
0.0221374953
0.02964253838
0.06229599534
0.08120271187
0.04102820724
0.04925294533
1.149025901
1.149290982
1.158125724
1.122369861
1.137494427
1.136614886
1.140033972
1.138673215
1.124804467
1.0714563
1.078474467
1.103129846
1.002906352
1.0462613
1.034587213
1.067217
1.057235446
1.020152153
0.807995828
0.8539418621
0.9422750603
0.5383074328
0.721459825
0.6563674548
0.8412398648
0.7986740984
0.6456336852
0.1142182777
0.1653119837
0.3324910961
0.03481013248
0.0621085642
0.04593042079
0.1473772038
0.09251019502
0.03630812768
0.08895888522
0.06339068632
0.03300300357
0.1553966613
0.1822368353
0.1036992169
0.1289419863
1.148046355
1.148286996
1.158102316
1.116152936
1.134723793
1.134135923
1.135956402
1.135327166
1.11736174
1.050318229
1.054297435
1.090522148
0.9232527014
1.001542698
0.9941667895
1.022715215
1.011462124
0.9430801695
0.5809686767
0.6304894755
0.805372711
0.2368684862
0.4202898859
0.3727593563
0.564894541
0.4880655003
0.2905263604
0.04646967111
0.05019407791
0.1122702721
0.04251513048
0.03923738669
0.04005450208
0.04036443019
0.03937680626
0.03861635941
0.1969482743
0.1752407383
0.0806149327
0.2537630429
0.2714838937
0.2085371688
0.2327541908
1.147026946
1.147309158
1.15792021
1.111528421
1.132405821
1.131798527
1.133541036
1.132979605
1.112672943
1.03437901
1.038419755
1.081844457
0.870232641
0.9726460459
0.9654167642
0.9870041674
0.9798368827
0.8827556533
0.4930158638
0.5091541637
0.711995438
0.1656403126
0.3148673692
0.3053198153
0.3414648522
0.3265989372
0.1714469174
0.04454819782
0.04447846866
0.07304111092
0.06268853484
0.04277853223
0.04341211162
0.04098909807
0.04215736193
0.05958222194
0.2317078686
0.2288052294
0.1394328603
0.2972833939
0.2994991228
0.2844796311
0.2938776407
1.145722147
1.146082638
1.157505554
1.106532286
1.129809046
1.12908057
1.13116674
1.130504293
1.10785506
1.017123301
1.021660292
1.07259259
0.8200043089
0.9429582462
0.934973498
0.9581112986
0.9506500761
0.8326195406
0.4484462518
0.4573853717
0.6476430978
0.1517820678
0.2854679366
0.2806818117
0.2974935982
0.2910030395
0.1542733282
0.04518085329
0.04498350552
0.06751247656
0.07391644901
0.04555576503
0.04634472002
0.0440886328
0.0448020874
0.07121360346
0.2391886195
0.2377527158
0.155768701
0.3039080026
0.3048835812
0.3012958492
0.3027390682
1.144075075
1.144521682
1.1568435
1.100633088
1.126678063
1.125798372
1.128316964
1.127516206
1.102208252
0.9965982147
1.002143109
1.061783851
0.7711695008
0.9089902123
0.8997967887
0.9266406279
0.9179596472
0.7828576367
0.4211491042
0.4269537526
0.6013157239
0.1449659813
0.2693428345
0.2663740293
0.2764420867
0.2726901311
0.146332047
0.04611323768
0.04585764466
0.06516106057
0.08400864543
0.04891306506
0.04982824916
0.04716922289
0.04802771035
0.08158304099
0.243601112
0.2426631404
0.1653741198
0.3071447593
0.3077517622
0.3057249846
0.3064726358
1.142002726
1.142570991
1.155940756
1.093396461
1.122848072
1.121735818
1.124871326
1.123889952
1.095375822
0.9714910807
0.9781525922
1.048345644
0.7300369689
0.8719066277
0.8628608221
0.8904793828
0.8811441995
0.7394185458
0.4024946546
0.4065730338
0.5688164295
0.1409791871
0.2591579673
0.2572124433
0.2637032535
0.2612842886
0.14178672
0.04727090311
0.04695758517
0.06433990066
0.09306346068
0.05270215776
0.05369791763
0.050764931
0.05172479208
0.09089782908
0.246532034
0.2459061897
0.1722645436
0.3092335726
0.3096238465
0.3082998119
0.3087932356
1.139262078
1.140030027
1.154717035
1.083937642
1.117871344
1.116375675
1.12054238
1.119257088
1.086556848
0.9439439997
0.950824101
1.031217588
0.6982420572
0.8376432169
0.8300065779
0.8540936379
0.8456759305
0.7053857027
0.3893830364
0.3922251238
0.5452996723
0.1388657113
0.2525700826
0.2514131984
0.2554432836
0.2539098414
0.1392240511
0.0486632323
0.04829222346
0.06458587141
0.1009158694
0.05674906072
0.05778207763
0.05470464008
0.05572451338
0.0990696105
0.2484927812
0.2480736986
0.1774404668
0.3105249511
0.3107427702
0.3099673213
0.3102672491
1.135476579
1.136532463
1.152984062
1.07178456
1.111165386
1.109185254
1.114761374
1.113024884
1.075052334
0.917927173
0.9241384183
1.01149385
0.6741677582
0.8094242669
0.8033016023
0.8227635487
0.8159052404
0.6795754553
0.3806140202
0.3824898725
0.5281679838
0.1384677668
0.2489545595
0.248442128
0.2504344387
0.2496143092
0.138417541
0.05026727843
0.04984321632
0.06558410872
0.1076350453
0.06088262999
0.06191591257
0.05881440993
0.05985149048
0.1060541897
0.2497554485
0.249500051
0.1812920216
0.3111772486
0.3112523417
0.310923145
0.311068045
1.130371727
1.131775521
1.150506416
1.05770911
1.102572861
1.100175774
1.10708809
1.10488032
1.061334569
0.8953632853
0.9006575082
0.9915680418
0.6558428554
0.7868585055
0.7819551266
0.7975134303
0.7920383657
0.65998281
0.3750324487
0.3761706479
0.5157457253
0.1395338581
0.2476597837
0.2476205422
0.2480626509
0.2478042029
0.139148852
0.0520846221
0.05160614703
0.06720104697
0.1133439545
0.06497482792
0.06598557714
0.06293938014
0.06396385861
0.1120053382
0.250445405
0.2503136274
0.1841214175
0.3112946865
0.3112531207
0.3112953443
0.3113092191
1.124013356
1.125703163
1.147119564
1.043056099
1.092574169
1.089951286
1.097700738
1.095161421
1.04670241
0.876397648
0.8808194892
0.9730205875
0.6417689774
0.7687695571
0.7648551181
0.7773113041
0.7729169679
0.6449332574
0.3719590681
0.3725114384
0.5068625614