/*--------------------------------*- C++ -*----------------------------------*\
| =========                 |                                                 |
| \\      /  F ield         | OpenFOAM: The Open Source CFD Toolbox           |
|  \\    /   O peration     | Version:  v2012                                 |
|   \\  /    A nd           | Website:  www.openfoam.com                      |
|    \\/     M anipulation  |                                                 |
\*---------------------------------------------------------------------------*/
FoamFile
{
    version     2.0;
    format      ascii;
    class       volScalarField;
    location    "2";
    object      omega;
}
// * * * * * * * * * * * * * * * * * * * * * * * * * * * * * * * * * * * * * //

dimensions      [0 0 -1 0 0 0 0];


internalField   nonuniform List<scalar> 
3259
(
30.47541303
30.50248291
30.54837394
30.6341278
30.76470873
31.01718547
31.53246831
32.37928171
33.90699179
36.945253
46.22299345
111.8100098
30.38529972
30.41532662
30.46782899
30.56437024
30.71493691
31.00623798
31.59447165
32.51265991
34.14650187
37.43180517
48.24151511
157.2132548
30.30103813
30.33396602
30.39225627
30.49781764
30.66001552
30.97923062
31.62239286
32.6532656
34.47618809
38.07166669
50.15183014
412.1486751
30.21704266
30.25260445
30.31593739
30.43010161
30.60391056
30.94603938
31.63683372
32.8328468
35.05695954
39.48219805
55.67254895
751.6512799
30.13559582
30.17375241
30.24105968
30.36143112
30.54413171
30.90433939
31.63240998
32.98532287
35.90098678
42.58963567
81.73485459
982.2134244
30.05021769
30.0906485
30.16132717
30.28756284
30.47903122
30.85258968
31.61026013
33.03694038
36.69894549
48.6300826
219.2199336
688.8524963
29.96536337
30.00799229
30.08128923
30.21096708
30.40768505
30.79061538
31.57030026
33.04867729
37.03323433
56.48403897
414.3680688
365.0524788
29.8738293
29.91818911
29.99385887
30.1273683
30.33000712
30.71925212
31.51594603
33.03641987
37.28584659
61.82370863
428.7595178
291.4726218
29.78296236
29.82880871
29.90626484
30.04135735
30.24617443
30.63975687
31.44971723
33.00683539
37.53216453
66.26049593
413.6693226
264.0759773
29.68398454
29.73071831
29.80982613
29.94764075
30.15679561
30.55344774
31.37408871
32.96529361
37.81228191
69.49516758
392.9456064
245.6507957
29.58771945
29.63504112
29.71512118
29.85316914
30.06233855
30.46151498
31.29129575
32.9165285
38.18351313
71.70347374
370.8658289
231.5335252
29.48221954
29.52961273
29.6106449
29.75074183
29.9637024
30.36503781
31.20348856
32.86711723
38.6637611
73.12951711
348.7994707
220.1630985
29.3828025
29.43008014
29.51135758
29.65052817
29.86151424
30.26515071
31.11292012
32.82512917
39.18943408
73.9259064
327.5675625
210.8673191
29.27219355
29.31901764
29.40075495
29.54176366
29.75692075
30.16296924
31.02168311
32.7974949
39.6855009
74.24167253
307.3838741
202.9552549
29.17226883
29.2185905
29.30010195
29.43928639
29.65038047
30.05944173
30.93145933
32.78694215
40.11074639
74.16551268
288.3113867
195.9729475
29.05744628
29.10305973
29.18475762
29.32600993
29.54298851
29.95527015
30.84345764
32.79115794
40.45284006
73.77951149
270.4009918
189.7543509
28.95961465
29.00457528
29.08580694
29.22453375
29.43471008
29.85100224
30.75852912
32.80561578
40.72171488
73.21733416
253.9195567
184.1082553
28.84051073
28.88466965
28.96592477
29.1071751
29.32668653
29.74710018
30.67716621
32.82529789
40.92740006
72.53343815
238.6933495
178.8565134
28.74747118
28.7909686
28.87170152
29.00996753
29.21834565
29.64396168
30.59953122
32.84579975
41.0761419
71.74274585
224.5776032
173.9481802
28.6228872
28.66556795
28.74617756
28.88727572
29.11117257
29.54193882
30.52549034
32.86378232
41.17427356
70.87104804
211.5170011
169.373743
28.53785121
28.57994362
28.66013387
28.79841965
29.00394163
29.44135677
30.45470804
32.87686381
41.22773645
69.94706593
199.5115705
165.0916998
28.40524604
28.44652788
28.52642369
28.6668536
28.89908021
29.34268421
30.3868493
32.88370122
41.24192299
68.98776165
188.4352041
161.0490565
28.33219462
28.37303565
28.45270894
28.59237677
28.79484938
29.24668508
30.32195891
32.88385224
41.22440387
68.00904283
178.2552858
157.21522
28.16319867
28.20310916
28.28241805
28.42387583
28.69627459
29.15499088
30.26106681
32.87764527
41.18088286
67.04533369
169.032357
153.5813851
110.7617784
137.7226386
45.96439995
93.77589971
47.96897738
114.0685308
95.34046518
119.9390494
1083.712337
722.5668282
153.7867189
712.1457689
1053.774292
8552.189053
1092.394755
121.261276
1694.093025
7673.440617
1062.161651
1666.805034
4685.127118
777.4505365
229.3178523
242.3393611
213.6845364
224.4077028
774.5279076
571.6196604
200.3392397
210.0178878
197.3405712
563.1799689
746.0652435
758.3066076
247.9345921
258.4692261
1335.842003
2696.441136
2029.655055
3081.859159
1096.284506
6784.384729
3339.451413
5860.917245
1092.391506
4300.170286
2505.24215
49.66920421
117.9654548
116.6579323
170.5614427
4229.39462
7920.352114
1001.461558
409.7000865
427.9063275
6528.567229
3466.612172
724.7345549
893.7623028
8675.498185
324.2742969
366.3716049
434.6547173
450.888692
1099.343688
2298.086586
1710.179479
8350.270301
2094.414675
1908.724741
15888.06029
1071.86587
1587.657223
383.394535
403.4631866
912.9405642
747.9719912
364.1063123
378.406698
731.2777981
810.485785
1138.701205
462.4120112
504.0599494
6284.231954
7099.255591
1781.94799
7695.021963
5668.662048
2577.539146
1073.381933
6771.284581
4108.440745
7482.648475
4528.445014
1531.433937
346.9060563
359.833832
743.0413075
635.5705882
329.2387385
342.6186965
1625.027584
1603.777542
1031.997096
1697.08017
1066.988191
1657.678556
1645.064553
1666.258803
313.6459361
325.0212175
608.5785067
546.3520375
301.3371697
310.4539432
1060.300911
1060.340738
743.0643391
760.6065883
1067.43045
1071.653877
1411.160597
930.5174883
918.3764692
12007.52343
2206.401131
2396.497139
5142.798316
4350.791195
1722.09102
1702.004353
1082.715753
6559.724342
7127.955612
6821.140412
5425.328433
1147.896505
1765.104571
1711.82756
3359.122721
1625.943805
1638.821049
2054.667204
980.5363895
1561.210246
1501.970323
830.6498032
1155.433442
12994.71721
1101.468307
765.8324289
768.6256037
1714.515555
8020.158039
8305.882732
9574.508996
6211.736288
5923.883701
1672.536994
1661.490429
1067.602949
1632.880165
1667.901251
1668.952545
1652.373227
1655.595414
1110.196416
1121.377942
787.9149256
1725.549047
1633.907326
1685.223218
1676.533972
793.8107068
798.2039803
1140.884184
6141.858042
8862.763197
9176.220066
8852.278948
8778.885263
6747.584003
1732.270379
6734.525927
4953.786858
5329.822254
1080.80433
1694.175165
1679.66588
6726.125815
7347.52592
7111.793067
5864.995988
6371.924542
7791.799014
7418.249664
4894.06271
7020.731241
6110.023743
2086.007264
1682.93549
1137.215638
32.35892148
33.4036706
33.85791688
35.84133753
36.84730204
42.31237437
32.48544817
33.60119175
33.44082506
34.08984257
36.22574136
35.9319184
37.321891
43.5894439
42.50604783
46.66539122
55.2923169
54.01303253
115.1925223
181.4911791
173.9043315
32.61498188
33.8414355
33.64939154
34.37295466
36.67726337
36.3176547
37.85431687
44.66726986
43.81467334
48.70167171
57.20284058
58.93059557
159.3473954
293.6861181
266.8560544
32.78736155
34.24892925
33.92561255
34.88269414
37.59986021
36.86001732
38.97956494
47.43398538
44.97707628
54.16699276
172.4793193
129.0184263
622.5354676
32.95734163
34.8302833
34.3813036
35.67422741
39.45621193
37.98269483
41.48554793
56.23868634
48.54359992
71.71323314
521.6416166
234.1822494
1006.841308
33.02855825
35.36887605
34.98442465
36.538944
42.67033461
40.15885306
46.73445254
94.92970517
61.58064734
164.0189751
802.1454072
694.3410378
782.8368641
33.04879465
35.57671335
35.44114481
36.96290358
46.35867824
43.65818881
55.04591719
196.9129328
120.0274566
377.8429634
626.5657785
771.4691444
415.7115785
33.04151966
35.70607776
35.61304202
37.2249014
48.73365881
46.94855682
60.55017499
233.1816425
217.3929718
429.5078084
499.3335807
581.7778482
301.5040091
33.01550826
35.81392386
35.73395927
37.46913976
51.26055315
49.34464048
65.25833277
237.3062027
235.4227888
418.3775731
435.3147755
480.9242919
269.7095836
32.97655904
35.92055796
35.84002344
37.7361157
53.83577577
51.91743381
68.79601943
234.6964696
237.0929569
398.3131518
388.5402615
422.4443274
249.7732415
32.92906925
36.04963065
35.94929884
38.07956814
56.02603828
54.43091367
71.23117021
229.0492636
233.4673569
376.424786
352.0992805
378.5896688
234.7613411
32.87908281
36.23615961
36.08964987
38.53602283
57.67102626
56.48810201
72.83847883
221.7600497
227.3660174
354.2382045
323.2453215
344.2660727
222.7802177
32.8345155
36.49190909
36.29407039
39.058422
58.8191285
58.00036947
73.77734616
213.2314394
219.7205032
332.7757611
299.8054053
316.945689
213.0396387
32.80280336
36.7889371
36.56381863
39.5669912
59.57125338
59.03979796
74.19845522
204.014036
210.9622911
312.3047398
280.5035308
294.6408519
204.8347531
32.78807425
37.08674518
36.86470914
40.01224799
60.00913356
59.70841815
74.21715642
194.5643509
201.6645344
292.9648603
264.3113611
276.2077504
197.6420383
32.78891796
37.35538286
37.15725017
40.37469347
60.1824933
60.07445035
73.89696574
185.1717512
192.1875902
274.7235179
250.5299953
260.6690601
191.2452412
32.80132409
37.58510406
37.4164213
40.66067205
60.17345565
60.1940427
73.36973625
176.2814105
182.8914849
257.8829455
238.6446503
247.4149401
185.4752657
32.82015376
37.77544272
37.63627864
40.88155058
60.03681066
60.14941085
72.71509237
167.938945
174.1514817
242.3500932
228.1702264
235.9273777
180.1320118
32.84080423
37.92694165
37.81679681
41.04393153
59.79148078
59.98462793
71.94891904
160.0599073
165.931131
227.9463583
218.7997462
225.7578337
175.133601
32.85967646
38.04165221
37.9588609
41.15411396
59.45564513
59.71493977
71.09459966
152.6507232
158.1728124
214.5916461
210.3675805
216.6477812
170.4714274
32.87414986
38.12237495
38.06479861
41.21818599
59.04903275
59.35955461
70.18102052
145.7513688
150.8972216
202.2799433
202.7268975
208.4467739
166.108216
32.88261043
38.1723558
38.13750556
41.24214369
58.58769722
58.93829461
69.2284279
139.3325516
144.1452788
190.9079567
195.7242165
201.0114241
161.9864256
32.88431808
38.19516896
38.18025901
41.23146114
58.08258499
58.46543455
68.24722442
133.3347184
137.8704539
180.373784
189.2313898
194.1963697
158.0569423
32.87969902
38.19553432
38.19723835
41.19278199
57.54873225
57.95449213
67.2564939
127.7793713
132.0560569
170.7266588
183.1629265
187.9014095
154.2878017
32.86758406
38.17476596
38.19286954
41.12659543
56.9612459
57.42928973
66.2064102
122.3240909
126.7556362
161.3432239
177.0638597
182.0688417
150.4076693
171.4081247
164.5977367
107.7176023
259.9288689
242.9317279
135.8547078
1257.076572
53.5800542
52.20691485
45.57702913
89.57492615
57.82113833
59.25295416
58.50254995
55.71080746
46.85113361
102.284342
62.01706638
66.01039448
59.76652058
61.46163117
100.0822909
192.9041147
184.5025855
116.3461036
1078.703398
729.9824126
739.4282154
532.9101374
540.319003
730.4757967
3195.731886
3781.888652
180.0372688
2991.15715
2431.917614
1169.529677
1037.242535
695.2910299
514.5271056
524.887332
298.7715111
540.0258138
106.8145678
162.4797975
12325.70991
1224.070404
2138.668041
749.8603853
754.5026363
1093.032222
125.0182518
206.2969033
196.9381412
5703.258023
5888.049004
9746.397078
590.1085787
604.2398239
805.8936676
232.4988906
303.3264286
298.7183774
345.2617785
322.7800698
238.3805052
216.9823351
278.8367384
273.8183325
290.2907898
285.3982846
221.1123844
760.7737981
573.133965
582.4656573
451.4188681
457.631022
578.1532374
203.4419553
257.7431497
253.1117064
268.1042652
262.9743588
206.7566699
191.6111909
240.7198447
248.7456749
244.6527674
194.4411053
558.2571332
440.2794693
445.4060608
250.5358744
367.0867364
351.755615
403.4691517
375.6142432
259.5975617
2137.748563
2813.655629
2733.826271
4039.795978
3770.892197
2929.101076
3537.499943
4702.939573
4328.005804
3938.866556
3085.737155
58.99311468
58.17776367
49.12860521
126.4931316
76.12429312
77.49216141
66.6854237
67.17891183
124.078786
312.9165157
268.9216288
164.0742376
4575.718365
939.2106678
1163.236477
386.689333
331.174417
6862.791176
684.3490184
710.9605166
1053.321463
415.871313
526.7435481
514.0775275
545.9131645
538.4744869
422.6295028
4826.218391
1371.833681
1941.191797
1674.913924
1875.886844
3918.942013
1049.540344
1046.781495
719.0829879
3399.76504
4927.697052
13109.16443
339.2293548
589.3669469
542.4517884
658.8780354
606.0506362
353.851928
439.2480847
560.2796434
555.2156778
574.50363
570.3923056
447.0171918
1951.712372
2333.5833
3823.808156
3550.045809
4432.705004
4908.006727
2510.637592
13165.40023
12153.82467
389.5134804
475.7149321
467.3796923
499.2155033
486.8851371
395.7376301
829.4641777
622.4762159
649.4477205
559.4257545
567.1754627
756.8409123
368.9172859
448.0578196
442.0744688
460.4245231
453.8714736
373.3436406
735.5314172
1054.727466
1054.211649
465.8455287
595.4308884
591.2867021
659.5126029
665.0142713
506.4672898
4321.887512
4543.073979
6087.304237
2703.845766
3548.276061
3337.965681
5601.285525
5108.161989
3853.125781
351.2557204
425.5745658
419.8729303
436.5976107
430.9321363
355.3879384
736.0243202
546.4806953
553.4871629
488.0022376
501.9174906
668.9273282
333.7538221
400.4830915
393.2261868
413.9891489
407.5272859
338.2402994
317.2743277
374.785424
369.848171
386.4349495
380.1833554
320.8799784
591.8632527
465.6276124
475.8280624
430.0133323
434.8650538
551.4208182
304.2540184
356.0507625
351.497767
365.1604892
360.6112594
307.166989
3157.195679
2979.715127
2229.367794
4910.703444
3868.13529
3987.303726
3521.903143
3615.560773
4640.636632
3621.149458
1077.980848
2164.026709
1529.396436
2277.884849
2192.728043
1129.348998
13352.5323
4938.810187
5041.493839
9235.237025
10967.87181
8366.786829
6793.610796
8872.455518
8463.80031
8570.662051
9531.094578
6803.635904
30.79739498
30.90015522
31.03821764
31.23359814
31.53199472
32.08896101
30.74103718
30.85924204
30.86731762
31.01890262
31.24801052
31.22806786
31.57809243
32.19231318
32.10537791
32.40468923
32.71710311
32.6886911
33.94718619
34.50303443
34.45714576
37.03485347
38.38127664
38.2544064
112.936056
127.7037896
126.2942675
30.68630186
30.81743906
30.8348321
30.99371746
31.24642236
31.24768694
31.60974488
32.29000348
32.2133546
32.54513233
32.88533541
32.84582184
34.21006818
34.80617124
34.73323808
37.54613548
39.03626911
38.89450385
30.63138004
30.77334103
30.79226837
30.96403137
31.23725702
31.24323324
31.6339498
32.4064928
32.31684725
32.69674103
33.08592151
33.02795208
34.5933328
35.26472747
35.12389107
38.30557554
39.95294177
39.65540566
51.17312337
61.33045085
60.10752884
478.5570323
1927.963064
2123.762264
30.57379504
30.724211
30.74625778
30.92676106
31.21566287
31.22809059
31.63597011
32.49747395
32.43375804
32.87861009
33.35600166
33.28468522
35.2455067
36.09454806
35.85144639
39.99090669
42.19745052
41.4775734
59.66713003
77.93522632
69.37184716
866.8464106
1353.797205
1488.281268
30.5115602
30.66815284
30.69428016
30.8800966
31.18128285
31.20012889
31.6241817
32.52665967
32.50711723
33.00405681
33.59673988
33.550906
36.12757255
37.34627495
37.00726558
43.66150057
47.7645016
46.14381455
99.9910695
183.9983079
132.8452563
933.4638166
777.9729897
942.3865863
30.44333869
30.6042088
30.63479011
30.82310679
31.13366514
31.1590675
31.59221457
32.52547883
32.52844489
33.04289339
33.68172875
33.66711335
36.80622045
38.56676554
38.31885389
50.79507546
62.51585615
57.57698716
268.3509947
530.7042977
438.2298761
582.8345852
315.5348375
382.3651499
30.3688188
30.53238775
30.56730113
30.75624326
31.07422759
31.10532322
31.54476679
32.50113042
32.52079881
33.0477285
33.71459092
33.70959722
37.09953567
39.14531258
39.01303331
57.85768809
79.99556609
77.2027152
427.3062831
598.8900197
608.1445181
329.8970258
213.9964258
226.3280421
30.28795543
30.45327451
30.49213836
30.68059796
31.00462305
31.04059896
31.48415238
32.45989622
32.49192993
33.03032697
33.72054903
33.72081222
37.34647536
39.65878761
39.53010145
63.03505091
88.41941065
86.73834737
426.6451778
549.6224902
561.8588229
283.1193116
198.2411696
201.2347981
30.20134417
30.36768999
30.41002728
30.59749635
30.92643638
30.9665117
31.41292704
32.40607819
32.4472862
32.99738625
33.7113082
33.71484774
37.59706708
40.21456882
40.06621003
67.18289117
93.22520308
92.25345288
408.7072676
504.1087705
514.8887981
258.9405772
188.7686858
190.897166
30.10930386
30.27649344
30.32183261
30.5082074
30.84112637
30.88458735
31.3334535
32.34333027
32.3909483
32.95353753
33.69222006
33.69752721
37.89428624
40.91128577
40.71967602
70.13010759
96.03785395
95.47121543
387.4816623
464.7961834
474.0947099
241.797769
181.3547678
183.0700004
30.01277563
30.18050028
30.22837243
30.41384095
30.7501202
30.79624592
31.24787589
32.27572976
32.32659544
32.90391027
33.67165941
33.67634296
38.29468294
41.77020238
41.54628787
72.12694755
97.59430518
97.30400111
365.2848878
430.7139826
438.8127194
228.4722725
175.1883636
176.6388341
29.91216964
30.08060305
30.13050535
30.31549465
30.65493931
30.70295549
31.15840785
32.20823767
32.25854383
32.85557784
33.66189082
33.66246607
38.79427607
42.65446946
42.43986166
73.38263756
98.15978082
98.09596036
343.3924739
400.9554848
408.0417462
217.6791541
169.8638181
171.1286508
29.80885135
29.97775818
30.02914786
30.2143127
30.55712692
30.60627521
31.06726501
32.14593633
32.19189464
32.81663807
33.67436331
33.66865667
39.31828642
43.43180221
43.25103988
74.04366303
97.92208742
98.04289468
322.397392
374.7342803
381.0230842
208.7839607
165.1871114
166.3030154
29.70302282
29.87288804
29.92529772
30.11134382
30.45801831
30.50766789
30.97635528
32.09280287
32.13159509
32.79326611
33.71447442
33.70203807
39.79936349
44.06011324
43.91728834
74.25170456
97.10980546
97.35882493
302.5005687
351.3640265
356.9870438
201.1329004
161.0002479
162.0101568
29.59627043
29.76674361
29.81976808
30.00740164
30.35860795
30.40830953
30.8871118
32.05041384
32.08109803
32.78696967
33.77629884
33.75938181
40.20380182
44.53820184
44.43218887
74.09232736
95.83381784
96.19097581
283.6873515
330.3735434
335.4630064
194.3522283
157.1784122
158.1020046
29.48804909
29.65992005
29.71330499
29.90309955
30.25962284
30.30904023
30.80055483
32.01813539
32.04135683
32.79399467
33.84935887
33.83056219
40.52632018
44.88525094
44.80891933
73.6510378
94.25588915
94.66534573
266.1218468
311.3279685
315.9679416
188.2968083
153.6730829
154.5243812
29.38030586
29.55287647
29.60634781
29.7989175
30.16164682
30.21051381
30.71735491
31.99396751
32.0113367
32.81021919
33.92489323
33.90617522
40.77872181
45.13222674
45.07868268
73.05690189
92.56647182
92.99642311
249.9665403
294.0000057
298.2522376
182.7592256
150.3974344
151.2005262
29.27144485
29.44598302
29.49946701
29.69526184
30.06514489
30.11327064
30.63781459
31.97519648
31.98877703
32.83047742
33.99622906
33.97906844
40.96961422
45.29638911
45.26245113
72.34441701
90.79725319
91.2471623
235.0119819
278.1405418
282.0766432
177.5905179
147.2820984
148.0489202
29.16429692
29.33951392
29.39285191
29.5924321
29.97044635
30.01775126
30.56191548
31.95917098
31.97093398
32.85062227
34.05889313
34.04420312
41.105095
45.38796794
45.37121709
71.53075038
88.96421285
89.42726245
221.1383248
263.5089742
267.1954353
172.7625164
144.3176399
145.0478472
29.05565069
29.23362228
29.28706812
29.49061681
29.87767715
29.92427103
30.48932725
31.9435601
31.95522055
32.86756097
34.11027479
34.09857868
41.19149264
45.41697776
45.4155392
70.64325756
87.10421994
87.57071444
208.3059341
249.9491654
253.4282699
168.2562048
141.4996921
142.1983521
28.94991555
29.12830465
29.18212151
29.38980402
29.78676693
29.83306827
30.41944732
31.92664584
31.93942021
32.87916813
34.14904058
34.14055606
41.23479318
45.3939885
45.40435002
69.70884302
85.25303061
85.71726388
196.4872783
237.3704758
240.6914091
164.0213332
138.8054194
139.4828088
28.84103868
29.0232709
29.07891843
29.28974644
29.69735753
29.74445357
30.35151224
31.90736361
31.92200607
32.88436822
34.17501148
34.16968421
41.2403801
45.32545639
45.34646358
68.74005512
83.417747
83.88290231
185.5306798
225.6384927
228.861117
159.9999401
136.2062304
136.8770553
28.73556201
28.91756592
28.97773983
29.18952862
29.60852021
29.65902249
30.28431428
31.88531078
31.90206474
32.88284847
34.18895914
34.18650534
41.2152159
45.22052413
45.25018118
67.75204393
81.61312766
82.08346192
175.4399769
214.6493798
217.8370989
156.1552326
133.6803568
134.3670316
28.61304621
28.80212091
28.88096119
29.0808604
29.51301472
29.57810173
30.21236054
31.85826486
31.87946926
32.87478384
34.1920573
34.19226656
41.1642986
45.08623178
45.12640418
66.75684851
79.85245927
80.36634489
166.2151575
204.3394194
207.5620606
152.4491887
131.2016527
131.9531169
124.907438
123.5419126
109.694558
170.4132453
164.0258182
139.9534745
92.33489737
77.11154383
78.14149506
112.518801
90.51839209
92.13499988
79.23112055
80.30626501
96.85590225
136.7105655
135.2555776
118.7497604
105.1894829
116.7650796
122.4313347
139.7676762
138.5713903
2660.60196
93.58037366
95.10528164
119.0996142
2677.787583
2930.592111
7586.759438
5784.253375
4773.361879
5252.915587
2185.512393
2446.512612
3008.376593
1854.186361
32.66458625
32.61950881
32.32324762
33.34663536
32.95675417
33.01242421
34.39751185
34.33379159
33.80004281
35.76357048
34.97558522
35.04586127
38.14945778
38.01726035
36.74871901
42.06507689
39.71086825
39.88252391
32.81170138
32.74165128
32.42390747
33.50801811
33.09951666
33.17993685
33.03925537
33.07089921
33.47633255
34.66693367
34.53887581
33.98106787
36.04134936
35.21162369
35.36379529
35.11892034
35.17209698
35.99547554
38.76164653
38.45661693
37.09083661
42.94235297
40.30187224
40.7309608
40.01805646
40.1915393
42.76715877
130.6082728
129.1475731
114.0269531
179.0122106
149.9220242
151.8077697
146.1812698
147.9947682
176.3019554
32.97542999
32.92786585
32.57745748
33.76858535
33.32100592
33.38062328
33.22082958
33.26825898
33.70490499
34.99815323
34.89655608
34.28623873
36.54061522
35.63214936
35.75016035
35.44145834
35.52536025
36.41454827
39.40370745
39.20667988
37.69412538
44.29859386
41.27730266
41.53898572
40.8970872
41.08625897
44.07942977
207.0502338
210.6008084
274.1891364
33.21526929
33.14832924
32.74020186
34.12920369
33.60742613
33.69874844
33.44821347
33.52363416
34.02081433
35.62496597
35.43662187
34.7306426
37.32218258
36.28288233
36.51207493
35.90228357
36.06875216
37.05560818
40.81154714
40.35439701
38.63598733
46.19102832
42.7076058
43.41060295
41.81696737
42.23909408
45.6364197
66.32699897
63.14611848
52.0457384
158.1071331
86.91480602
91.30752408
80.52903783
81.42975941
133.9566292
1622.146117
1769.108727
533.1112783
1272.48553
1139.424965
1557.124937
1399.832602
33.49218115
33.42554097
32.92064681
34.67416834
34.00534654
34.11125372
33.79673653
33.9001143
34.52347909
36.68105134
36.37898181
35.45394706
38.9186407
37.50408483
37.90997724
36.80584064
37.11337309
38.37155672
44.32091493
43.32658972
40.77267042
52.7860196
47.02939823
48.66438441
44.2903844
45.43365707
50.61224411
109.6026328
86.34733435
63.1385403
390.5459759
151.3984016
216.9848928
104.0339025
125.7491703
275.5309869
1089.839405
1226.041328
998.1740213
699.4377128
560.6649645
992.4648613
847.4228587
33.64938879
33.62789954
33.01754658
35.26216979
34.370482
34.41904545
34.21074037
34.29955158
35.13091247
38.01806496
37.68814566
36.34420652
41.74625456
39.41494416
39.96379361
38.38113151
38.88111266
40.89129991
53.4535377
50.55186673
45.12768995
81.05276252
60.38226023
66.20119736
51.75219978
54.60164789
67.94947718
333.449311
245.9229777
129.2618249
816.5370061
541.3045234
660.5230391
275.9479222
405.480414
807.4621302
489.4208222
625.0978372
861.3379588
317.1298707
273.1980853
455.2544272
375.9810514
33.70268292
33.69353101
33.0469527
35.53637962
34.50398837
34.52474361
34.45180607
34.47975797
35.49163715
38.87651117
38.73432559
36.88772006
45.63078038
41.42124579
41.71118776
40.50486096
41.01014801
44.66776313
73.41967345
67.97054738
52.97769024
173.1871409
101.2024355
112.9547856
76.52386177
87.97749631
144.4448415
607.7508605
589.3476136
328.5488472
679.6978695
691.7567764
668.6521399
706.9443329
705.1758562
726.9282556
244.3715468
272.8748197
489.9103712
196.965878
183.5191254
239.9080468
215.0674236
33.72030371
33.71808515
33.04535296
35.67696355
34.57117647
34.58303116
34.54251207
34.55781077
35.64620315
39.40250658
39.27467124
37.16308066
48.1324987
42.52808311
42.79751188
41.98617049
42.25818936
47.53811233
84.78554177
82.53545836
59.22265632
229.877356
130.1762666
133.1188069
122.0445545
126.5470879
225.2086305
574.2483198
586.6774387
429.5460498
519.6843948
605.9107497
589.1904045
645.9816017
623.7399071
542.9916767
204.6712806
208.6535128
313.7286178
164.964497
162.7155661
174.3583208
167.9182377
33.7176841
33.71965488
33.02335422
35.78765872
34.61181696
34.61977627
34.59358132
34.60311511
35.76109812
39.92525477
39.78997607
37.40743174
50.60899841
43.63404488
43.93525286
43.06908817
43.34662275
49.96960696
91.14205486
89.87480418
64.1818338
237.3287185
138.7756626
139.9422936
135.4634621
137.3053137
236.7065026
526.0699387
537.6697376
422.7915053
449.193589
544.4803631
531.0904254
573.4366984
558.5605583
464.29547
193.1522457
195.5803271
275.9757194
157.420124
155.9702411
160.7421256
158.9944192
33.70254898
33.7071883
32.98728832
35.89304181
34.64057328
34.64690892
34.62714412
34.63404412
35.8663462
40.54001528
40.37198072
37.66475756
53.21387743
44.93838757
45.3026522
44.25281436
44.5876451
52.5719002
94.82085144
94.07781842
68.02756763
235.7462103
142.1950251
142.5956739
140.8870163
141.6274053
236.5848694
483.7250607
493.7385755
403.5914146
399.1383728
494.5547132
483.4322217
518.3439725
506.1715681
410.4114075
184.8699177
186.7649678
254.1879583
152.0777799
150.8881237
154.6100298
153.3161589
33.68145394
33.68681315
32.94144721
36.01324446
34.66728888
34.67549639
34.65329786
34.66000456
35.98003041
41.32666629
41.11415921
37.98322159
55.52835042
46.43529452
46.80940814
45.67672998
46.05608945
54.99632239
96.95000303
96.52902194
70.70776943
230.6251877
143.0549999
143.0073442
142.8662252
143.0277689
232.1046625
447.1708784
455.8390476
381.9848947
360.4107488
452.7504778
443.3145909
472.7849458
462.5567277
369.2201598
178.1458383
179.7156488
238.1737233
147.5740176
146.5463916
149.7428379
148.6387173
33.66450464
33.66764916
32.89139984
36.18272994
34.70936529
34.72483758
34.68501098
34.69619921
36.13395958
42.2195624
41.99552951
38.41257781
57.30978878
47.86068912
48.17838407
47.17395233
47.52535601
56.91610835
97.9901733
97.81959069
72.50436373
223.7164505
142.3420454
141.9479856
142.8859219
142.6566093
225.5916411
415.3367755
422.9063017
359.7522164
329.8777029
417.1607842
409.0842096
434.2594219
425.5349136
336.8596666
172.4360986
173.7883817
225.5473357
143.6632552
142.7630256
145.553442
144.5928639
33.66464128
33.66260541
32.84469666
36.42250878
34.78744259
34.81391101
34.74292406
34.76376744
36.3563926
43.06094193
42.8618347
38.92631594
58.57330952
49.02020685
49.26364974
48.47770247
48.75839542
58.30104743
98.11882783
98.15276144
73.59761799
215.4509871
140.3358681
139.6728362
141.4769509
140.9398127
217.6198143
387.4579503
394.1195624
338.0689122
305.2409177
386.6545672
379.700407
401.3306029
393.8426232
310.9411714
167.4527228
168.639049
215.3058405
140.2231007
139.4266859
141.8903989
141.0439271
33.69112633
33.68186385
32.80918652
36.71304516
34.9089355
34.94501182
34.8431066
34.87487621
36.6378127
43.76495503
43.60308374
39.44439071
59.41496435
49.89222325
50.07022362
49.48960807
49.69894522
59.23815063
97.57749287
97.76623471
74.1354108
206.3470658
137.4046804
136.5738097
138.958964
138.2015233
208.6679609
362.7178357
368.6621261
317.3290946
285.0061721
360.321128
354.2767795
373.0204621
366.5425718
289.7043695
163.0432034
164.1016406
206.7745779
137.1695821
136.456478
138.6532905
137.9012386
33.74332221
33.72828761
32.79014069
37.01417442
35.06189269
35.10242836
34.98278777
35.02189834
36.9400319
44.31738528
44.19340893
39.9084065
59.92645523
50.51863215
50.64048019
50.23379026
50.38329048
59.82697181
96.52428478
96.83088231
74.24265319
196.9392506
133.8968107
132.9435338
135.7121213
134.8203126
199.3089658
340.6065376
345.9453489
297.7186584
268.1214587
337.4095023
332.1162487
348.4760931
342.8277334
272.0736408
159.046309
160.0126625
199.3616844
134.4159061
133.766097
135.7605948
135.0804418
33.81202911
33.79389526
32.78753166
37.29175768
35.2244027
35.26431856
35.14322081
35.18398146
37.22570725
44.72599148
44.63590814
40.29175675
60.1598396
50.93224524
51.00756394
50.74958325
50.84664022
60.12453376
95.06687785
95.45760784
74.0022293
187.4856227
129.9573693
128.9408982
131.9652547
130.9677675
189.8263005
320.6224176
325.4806097
279.1835077
253.7865797
317.2932785
312.6000558
327.0398948
322.0611613
257.1500042
155.3907486
156.2755144
192.7778532
131.8993642
131.3026446
133.13053
132.5082334
33.88727588
33.86829239
32.79740801
37.53134575
35.3798885
35.41656317
35.30363746
35.34222199
37.47513939
45.01982522
44.95541087
40.59558284
60.18728823
51.18154765
51.22440258
51.07373757
51.13152352
60.19315586
93.42101818
93.84090566
73.51458159
178.4491428
125.9123611
124.9145509
127.9259517
126.9158105
180.650125
302.4647145
306.9017621
261.9881198
241.4815933
299.4593696
295.2655742
308.1148731
303.6814865
244.3838964
152.0121776
152.8370589
186.87376
129.5766125
129.0196426
130.7173271
130.1419554
33.96141471
33.94332308
32.81508802
37.73152019
35.52005991
35.5520614
35.4522189
35.486768
37.68515426
45.2240102
45.18056686
40.83200727
60.08146527
51.31357757
51.33075105
51.26050488
51.29030607
60.11913358
91.69180461
92.13178801
72.88985065
169.9843124
121.9584111
120.9798731
123.9244506
122.9387964
172.0498758
285.9028318
289.9874172
246.1614596
230.6975751
283.5594246
279.7811196
291.287504
287.3114618
233.2551438
148.821319
149.6061834
181.4391533
127.3938294
126.8647665
128.4708985
127.9285885
34.02883617
34.01282126
32.8356621
37.89259275
35.64021613
35.66680829
35.58279202
35.61221448
37.85591043
45.3504268
45.32553301
41.0084605
59.8620285
51.34628721
51.34149188
51.34170587
51.34749663
59.92670458
89.88675559
90.34402804
72.14987075
161.9947512
118.0759311
117.1153961
120.0078807
119.038175