/*--------------------------------*- C++ -*----------------------------------*\
| =========                 |                                                 |
| \\      /  F ield         | OpenFOAM: The Open Source CFD Toolbox           |
|  \\    /   O peration     | Version:  v2012                                 |
|   \\  /    A nd           | Website:  www.openfoam.com                      |
|    \\/     M anipulation  |                                                 |
\*---------------------------------------------------------------------------*/
FoamFile
{
    version     2.0;
    format      ascii;
    class       volScalarField;
    location    "2";
    object      p;
}
// * * * * * * * * * * * * * * * * * * * * * * * * * * * * * * * * * * * * * //

dimensions      [0 2 -2 0 0 0 0];


internalField   nonuniform List<scalar> 
3259
(
800.082795
804.4097009
813.358066
826.0193817
856.0268626
880.9877465
912.5307061
962.560216
1011.984172
1062.964862
1113.6907
1199.660854
751.8418171
754.62066
760.5659961
768.5128312
792.5741221
807.490504
823.6847433
857.1036145
883.6029862
903.2920891
905.3553743
912.7563717
700.5736508
701.7413585
704.3500288
707.3958559
725.8762272
730.2276966
732.3006846
747.4592065
751.9078737
743.509116
701.2646155
579.8025677
647.6455034
647.3492264
646.8232245
645.3593788
658.6146901
654.1514918
644.932557
642.4172245
626.0461442
595.8877963
532.4936483
419.6452532
594.3737173
592.8768079
589.7745465
584.6352961
593.0182273
581.6838908
563.8174926
548.2808225
512.9332832
465.2496892
393.9995219
289.2330901
541.9132082
539.4906894
534.4024782
526.4883234
530.8100911
514.5596745
490.9859574
468.5836005
421.3274074
361.9107825
285.4578217
195.2067262
491.1598545
488.0703661
481.5510292
471.7059758
472.9695647
453.6539716
426.8683712
401.4274129
353.4098874
292.3842989
216.2820354
136.3556009
442.7644183
439.2508381
431.8214075
420.797744
419.9424066
399.0748281
370.9371321
344.9110555
298.9228885
243.2837945
177.2361902
109.1775933
397.162655
393.4372418
385.557665
373.9969512
371.7555
350.503446
322.494627
297.1895195
254.4978996
204.8590867
148.2805394
89.46820513
354.6038751
350.8353213
342.8724934
331.2873591
328.208693
307.4142934
280.6187064
256.6344009
217.7856945
173.8377434
124.8798711
74.67584115
315.1766624
311.4907511
303.7136203
292.4782739
288.9952243
269.2094088
244.2129662
221.9627576
187.0481998
148.3084704
105.902788
62.88793009
278.8450285
275.3320519
267.9288441
257.2984636
253.735043
235.3042799
212.3707839
192.0968116
161.0039995
126.9717161
90.23163798
53.26054841
245.4867339
242.2085581
235.3057948
225.4442678
222.0343281
205.1496241
184.3927434
166.1743135
138.6902703
108.8937048
77.07646146
45.25360963
214.9224457
211.9180889
205.5945304
196.5977307
193.5009971
178.2462781
159.6755104
143.5019792
119.3705771
93.38562923
65.87488424
38.49210968
186.932896
184.2238578
178.5221783
170.4367771
167.7656352
154.1546013
137.7173053
123.524243
102.4803494
79.93303975
56.21504051
32.70652686
161.2736027
158.8689196
153.8061887
146.645221
144.4763457
132.4793206
118.08813
105.7845581
87.57390143
68.13624443
47.7924685
27.69623439
137.6887156
135.5892508
131.1656411
124.9202414
123.308253
112.8711165
100.4234585
89.90492733
74.29621758
57.68612411
40.36774465
23.30793117
115.9196676
114.1210646
110.3262163
104.974609
103.9587895
95.01674524
84.43073499
75.56069448
62.35767371
48.33601007
33.74732194
19.41956934
95.70385429
94.19982425
91.01829874
86.52897454
86.15474358
78.62991062
69.84957712
62.49035794
51.51928159
39.88091224
27.77851939
15.93322345
76.80729267
75.58850996
73.0028624
69.3452945
69.62198386
63.44888866
56.36794238
50.48287717
41.57924431
32.14801927
22.3349911
12.76882698
58.90584407
57.97247643
55.97338602
53.10600782
54.17309746
49.23760255
43.6670006
39.32900324
32.35322547
24.9859894
17.30588386
9.857905241
42.04241609
41.36751607
39.93649932
37.89419148
39.33130956
35.77785979
31.67953025
28.81344858
23.67128977
18.25937609
12.59215082
7.141031226
24.96290108
24.626575
23.77950908
22.55322921
25.18491309
22.87766996
20.1862618
18.76465111
15.37771934
11.83937189
8.105283045
4.565934161
11.87943054
11.5978549
11.18022472
10.55621558
11.37183304
10.21718211
8.920157446
9.025772459
7.322969694
5.594253049
3.753222124
2.091178321
1216.177374
942.3382391
1163.290257
1212.689319
957.877901
947.5003569
1182.50134
1085.059131
1125.408112
1266.614263
649.8937634
1274.696942
1280.251026
1044.195425
1114.2328
1065.899007
1119.934442
961.8758183
1272.18051
1130.308752
-233.1628744
1198.207973
1163.029101
1104.641045
1231.154517
1180.878029
1206.814149
1324.389184
1292.23151
1246.871261
1306.890288
1332.898133
1337.355093
1328.35132
1083.31759
1018.243576
956.2766486
978.9594651
519.7549054
235.0689341
1212.967347
-220.2972985
194.2970305
-134.337594
1205.00173
-170.0246131
161.7866057
748.9772724
688.8683411
911.0936831
796.2429375
817.9379079
1000.146996
1158.075103
1143.723241
1111.127514
913.7011897
711.993906
1369.910563
1294.1283
802.4029656
998.3677649
954.4127865
1099.411163
1059.814525
1069.826248
202.7835276
1077.458768
470.403499
747.069865
557.7802052
594.2482854
1242.695215
1163.01547
1182.672161
1154.387089
1165.34325
1229.895945
1217.457422
1192.087902
1363.100413
1303.431945
1049.492062
1045.160295
1000.195676
644.8149215
562.918939
1059.035767
309.4963907
453.1461861
359.6125844
1232.374556
-371.185472
50.64765696
258.3778676
8.354459627
1164.428944
1250.74243
1226.457853
1239.31472
1292.816958
1280.943669
1258.935922
1285.294508
1293.826173
1287.362029
1107.890908
1264.045985
1270.950467
1277.831069
1137.765463
1311.315967
1288.896771
1300.257359
1357.085937
1341.072516
1319.34027
1341.531684
1352.037289
1346.591448
1319.811969
1323.471201
1331.937265
981.6423651
994.4575362
965.9922187
687.6166286
989.0716572
399.9264436
516.9052249
628.1157444
1219.233124
1223.595586
1219.290164
-284.4904275
-126.8557817
-106.7878158
-122.6462671
1194.870361
1201.791054
1212.066331
-27.59313465
1386.070489
1382.360595
1297.68898
1291.069362
1297.208099
1292.232585
984.3005115
1007.736057
1092.916935
1086.777387
1080.702239
1064.338394
1094.411184
419.8602187
408.4603128
1061.239547
950.992112
739.4956396
1244.384519
1259.658367
1254.242062
1150.112934
1357.295829
1344.838046
1377.549269
1369.272245
1308.165576
1315.151359
1311.320537
1318.060814
1311.435884
1334.477027
1326.044611
1045.360946
1024.288749
1026.54677
607.6599404
616.4420333
667.3400874
564.9529128
569.9328293
557.2350052
1038.187002
401.4480534
353.9827635
290.2109246
1225.02018
1226.851934
1232.449947
-350.5885631
136.8130522
81.51235782
243.2885681
234.4091789
244.4967721
65.34934668
-64.98578343
-45.81128219
54.24505118
1177.260048
1192.301779
1184.879536
987.8136873
1028.770363
1043.129739
1087.111309
1101.99679
1148.086264
883.0461922
907.0300906
999.3478304
914.9524347
936.4216189
1050.188831
942.3726927
954.737285
1101.575303
1062.957321
1062.701499
1146.468767
1153.317639
1172.965724
1222.75477
774.5742589
782.436109
877.1961953
784.3958193
784.9032547
899.6014393
782.4153827
761.9150959
907.0947779
851.482942
844.4988358
916.7418773
873.7198417
860.6711248
928.7177102
667.8300205
660.1234266
751.3844956
656.6099277
639.9518511
747.7941171
631.3499656
591.2011458
716.7082453
571.7386426
492.7994059
628.6105693
455.393362
570.5318415
548.1842861
630.8334005
539.7467989
508.8601817
605.6586036
495.9533085
446.4693632
552.5549253
426.0780559
349.0409677
451.9053453
319.5383666
487.2399882
454.1285176
522.5057441
441.6496854
400.1275604
478.9598147
384.5983932
330.9371625
414.7099847
308.9738161
243.1125625
319.3206833
215.1495926
417.1279721
382.3164126
434.5044796
368.9219419
323.4276566
377.8511237
306.9033082
250.9063491
307.2408578
230.0794018
172.8254684
222.0598811
147.8986434
358.1290294
324.1897157
366.6654515
311.498522
269.5481797
308.6718705
254.4160931
203.8437625
237.0671614
185.3354492
134.922817
160.748202
114.5172154
308.3712894
276.4802033
311.3829994
264.8000807
227.0518855
257.9763026
213.6821076
170.1152807
194.6415476
155.0222292
110.4988469
128.4145597
93.74351196
266.1587895
236.8960935
265.9009299
226.3447454
192.7970829
217.8160695
181.0166895
143.1197196
162.7712048
130.2684476
92.2154347
105.5124254
78.04827356
230.1267665
203.670762
228.0518952
194.2487339
164.61503
185.2483204
154.2544029
121.3035706
137.2383859
110.2995773
77.66992817
88.27844912
65.60648864
199.1491817
175.4774798
196.1949268
167.1319431
141.0558352
158.3377389
131.9686656
103.3398088
116.493956
93.88723388
65.80450488
74.48332199
55.49775538
172.3134717
151.3091762
169.0920175
143.9625605
121.0945174
135.7616167
113.1488674
88.29899185
99.33504689
80.16315956
55.94548134
63.17267303
47.12608693
148.8865548
130.3862674
145.8005736
123.9529176
103.9753909
116.5731659
97.05209782
75.52248227
84.91396324
68.51668695
47.62812019
53.73644747
40.08180441
128.282757
112.1040321
125.5888388
106.5012026
89.13309215
100.0703682
83.12696642
64.5291016
72.62285094
58.50354271
40.51975849
45.74858322
34.07336287
110.0231589
95.98309789
107.8876669
91.13556168
76.12965244
85.72476088
70.94872647
54.9608907
62.0152342
49.79617532
34.37342129
38.90118485
28.88523085
93.71137383
81.63830903
92.24336791
77.47974804
64.62093342
73.12365982
60.18674208
46.54302993
52.75787215
42.14178692
28.99917576
32.96380948
24.35384189
79.01176659
68.75657137
78.29176191
65.23056888
54.33629459
61.94448132
50.58222535
39.05414881
44.59135355
35.33590365
24.24658278
27.75792048
20.35048863
65.6455529
57.07895341
65.73333019
54.13715223
45.05130479
51.92927384
41.92060932
32.31691237
37.30551344
29.2168482
19.99486743
23.1408827
16.77171635
53.391774
46.39112486
54.3219853
43.99026808
36.5774603
42.86361404
34.02211551
26.18638678
30.73260971
23.65289221
16.14557145
18.99831494
13.53365035
42.04742867
36.4993728
43.8510366
34.60235294
28.74982725
34.56602959
26.73051532
20.53705785
24.73353976
18.52992351
12.61474927
15.23604122
10.56523392
31.38878841
27.21989411
34.12881165
25.79944496
21.42092765
26.87637075
19.90730061
15.25771403
19.18667433
13.74602612
9.329596338
11.77309079
7.805040398
21.23926892
18.38812312
24.97612789
17.42279505
14.45269571
19.65036619
13.42245829
10.24703889
13.98366991
9.210450172
6.225721374
8.538981378
5.198951984
11.44011034
9.85294047
16.23220935
9.323698846
7.708985223
12.75130126
7.148258876
5.411199791
9.025149832
4.839788846
3.247990303
5.471344465
2.701181488
2.234100965
1.770553044
7.74657603
1.613141835
1.142519455
6.038385328
1.014952275
0.9685391908
4.213301095
0.9993956951
0.3604016032
2.518310109
0.1906351195
1238.428337
1283.574165
1258.972597
948.6969027
997.3251831
991.2750325
663.9970777
1173.427202
1250.048128
1211.947958
1297.108589
1260.986811
1182.549872
946.283392
1034.087798
1009.988328
1051.349857
1038.079748
946.6505977
1154.846388
1068.083015
1085.34087
1098.873561
1155.369421
1135.366128
1135.808231
1131.592284
1120.155178
1260.9768
1252.663755
1258.130267
511.3567561
721.7308731
757.0019376
665.4177131
469.0979506
644.505079
630.5299896
1281.561136
1276.02251
1268.886125
1348.550666
1364.078438
1274.280488
1298.075916
968.3404832
998.2981511
957.7190192
1108.258229
1095.203017
1101.297256
1012.858912
1017.365075
1078.932775
944.3615858
916.680155
1062.420854
1192.586277
1182.917359
1188.166374
1144.406672
1152.438295
1171.274408
1107.392243
1140.501154
1124.882359
1214.917499
1223.550152
1239.9289
1189.266839
1206.601968
1198.140287
1214.394443
1209.645309
1201.422783
1320.207987
1312.193998
1316.086585
1277.318031
1285.911589
1301.012378
1255.617291
1270.822358
1262.216432
1335.049795
1344.522684
1315.958045
1330.473402
1321.173817
1341.404279
1336.349478
1328.308741
1061.503909
1058.778674
1096.032252
1008.029924
1045.603209
1039.755838
474.5452575
516.5981045
551.9292035
265.4076712
314.7395763
278.4806982
148.1873886
186.241966
225.4409457
-133.1565442
21.31027163
732.3484286
787.1975278
799.0351028
764.1624485
773.7177296
713.1929106
915.1143239
822.6193745
800.1330071
788.9050097
825.3186209
834.8617262
899.5164029
803.778429
748.2784336
935.7909935
865.1817177
784.0884176
1153.020306
1142.838384
1147.765159
1132.915311
1137.716725
1148.075618
1115.372786
1126.804902
1122.214954
735.0720909
722.7789487
727.9303392
659.4843557
686.7596206
743.0823246
1376.295676
1381.844485
1376.314727
950.4415556
951.7909432
648.6267514
985.660352
991.1147242
995.3843748
957.0142839
977.0275725
971.3230086
1086.993989
1090.578313
1103.396471
1061.418819
1076.64321
1073.810516
317.5824235
768.8046796
871.5370335
829.7535665
663.445588
881.3033963
692.9133786
749.6789832
700.4782075
1173.845432
1178.090421
1187.570797
1158.249502
1168.350848
1163.714163
1177.592023
1172.921676
1162.720927
1226.16886
1217.713586
1221.716588
1209.363509
1213.429271
1221.99294
1196.47065
1205.040009
1200.319706
1355.35641
1362.003652
1370.036011
1030.186886
1027.280703
1044.787178
991.0361157
1008.913459
1015.201877
428.1958464
390.1409587
407.7016447
320.680914
357.4460456
396.3762534
66.53900091
117.5577195
94.27105553
1243.106648
1247.636314
1255.803736
1230.641861
1239.282168
1234.450392
1249.057075
1244.04793
1235.090384
1289.375168
1282.528027
1286.911935
1273.936588
1278.094148
1285.345435
1263.593308
1271.003443
1266.094547
1304.100502
1308.079432
1315.898524
1292.765522
1300.363732
1296.023521
1307.933037
1304.318217
1296.735128
1351.524443
1344.125418
1349.547787
1334.286145
1338.968622
1346.266465
1323.69203
1331.448582
1326.481508
439.0775514
481.3189924
444.7033267
540.2883056
512.8915698
476.902399
585.3732888
556.6171504
589.2288377
-85.47313559
979.1314423
970.0192138
978.694763
1026.537439
1007.079902
994.0870361
1304.617266
1091.361419
1060.27352
1000.185676
941.8162552
1047.219351
918.5792019
994.3531315
1001.473266
748.4055292
765.8754482
724.7254757
888.1936704
899.9964698
915.9720594
934.4722051
955.5198172
975.0942121
825.9881695
833.7231435
867.5831088
844.3519942
855.8235146
895.9924361
867.4840123
875.4370066
951.1181556
936.5834305
947.1832044
974.5580042
980.2925864
991.3848677
1024.704792
1023.527624
1033.706643
1075.665109
1185.406423
1191.192019
1206.949697
759.7383872
763.9834561
799.6584791
769.0174667
773.9727915
815.8143973
777.9772179
771.7229613
850.4365213
829.526676
834.9166463
863.7998391
850.4847103
854.8598615
889.5848153
862.7342258
862.675659
905.8428576
692.0299851
692.1929146
728.3010136
691.813247
690.5271618
731.8671885
687.8892459
669.9912975
746.1109011
720.4944531
720.7200177
748.9178517
719.5647381
718.0040032
751.4484146
705.2804117
697.283418
737.186906
655.8785705
634.1760103
681.4035117
531.0534944
522.0613079
582.332394
625.2699832
621.9598613
657.063498
617.3245301
611.0813977
650.200496
603.4707499
577.3686111
646.0440151
617.6852039
612.8846129
638.8273723
596.3472614
589.5146716
620.4365725
561.4777646
548.5376463
584.0528104
495.1834916
471.7362326
509.0182065
385.5755009
333.5599951
368.5138088
561.2329973
555.1744235
588.3234809
547.3490083
537.5077678
573.431881
526.2802491
496.4041905
556.2019183
527.0287622
517.8593924
540.0422994
487.5024284
476.1671154
502.6119155
436.3582719
420.6325739
450.0329215
363.581179
339.1443254
369.5891607
261.8228416
226.5025529
248.8052294
501.1428563
493.2005491
523.8133276
483.2866684
471.2314635
503.428507
457.9013427
427.0647852
478.1858013
450.6756571
440.1281548
458.1943757
402.6797594
388.3307732
407.5061566
341.4249314
324.5106522
345.1801728
264.5913892
244.5115895
264.3619891
177.3451941
148.5921129
165.9341404
445.6845484
436.6191401
464.4849463
425.562412
412.4126706
440.8933494
397.9030933
368.064432
411.5959946
386.3593391
375.6085963
390.6443146
338.6999158
324.8222174
339.2983166
278.9369205
262.4151702
275.5357685
205.4309928
187.1921879
198.070308
126.878231
102.5051455
110.4352607
395.071002
385.5075508
410.637115
374.0469564
360.7027354
385.7135339
345.8433789
317.8610759
354.9792423
332.2066345
321.8106931
334.3706262
286.975009
274.1857771
285.8360069
232.8426375
217.9856809
227.9077075
169.6520268
153.8190513
160.7562829
103.5564413
84.03907679
88.43565502
349.2158267
339.633264
362.1726269
328.2893389
315.330372
337.271505
300.7873615
274.9606059
306.7660637
286.4157183
276.6853676
287.2534693
244.6733659
233.1409335
242.6469965
196.496122
183.4655969
191.3952286
141.9452091
128.5217724
134.2931522
85.43349942
69.43639635
72.70529485
307.8743345
298.6044196
318.7618128
287.7202634
275.4786322
294.7688283
261.8009171
238.178076
265.4866024
247.4450098
238.5287657
247.4907452
209.5977075
199.324988
207.2026324
166.9990348
155.5744811
162.0294601
119.769578
108.3313555
112.9810167
71.48853541
58.12662429
60.71350069
270.686036
261.9414104
279.960344
251.737635
240.3719108
257.3694142
227.7668273
206.4231978
230.0325007
214.0683362
206.0072323
213.670997
180.1394742
171.0575682
177.6771402
142.6229078
132.6282616
137.9716841
101.7108466
91.90896891
95.7195469
60.30331398
49.03863185
51.14031934
237.2600628
229.1675172
245.284269
219.775212
209.386569
224.4013228
197.9393969
178.8189757
199.3671242
185.2632568
178.049184
184.6589492
155.1080386
147.118521
152.751202
122.1772837
113.4542646
117.9449085
86.73215519
78.3004827
81.47878368
51.12381616
41.56459485
43.30565762
207.1987615
199.8253833
214.266566
191.3061097
181.9328114
195.2507157
171.6600836
154.6532427
172.6619521
160.2137837
153.8128732
159.5611936
133.6043099
126.6037697
131.4518386
104.7984428
97.2043201
101.0298523
74.11122735
66.84383515
69.53464606
43.45849748
35.31325591
36.77790095
180.1187577
173.4911252
186.464128
165.8621309
157.5022305
169.3671526
148.3804133
133.3515724
149.2419398
138.2639617
132.6295054
137.6691648
114.9394248
108.8325177
113.0485846
89.84707025
83.25669571
86.5550598
63.32885045
57.06555672
59.37343823
36.96306671
30.01157348
31.25978062
155.6571036
149.7752042
161.4728823
143.0260388
135.6526302
146.279031
127.6360011
114.439506
128.5607058
118.8863271
113.9660715
118.42018
98.58305266
93.28541516
96.98772353
76.84216932
71.1484516
74.02440293
54.00362991
48.61908933
50.62122208
31.38793386
25.46080639
26.53697534
133.474658
128.3223114
138.9191247
122.4264426
115.9991524
125.5722625
109.0309478
97.52128826
110.1650407
101.6456455
97.38663743
101.3559761
84.11410541
79.5516517
82.83404634
65.40796883
60.51991718
63.05447144
45.85114039
41.24339523
42.99893838
26.5461004
21.51088598
22.44884262
113.2576786
108.8100053
118.4649511
103.7334674
98.20862674
106.8890469
92.23169943
82.25485402
93.67642162
86.17934724
82.53206442
86.10084602
71.19613631
67.30512893
70.242741
55.25409716
51.0950228
53.35134935
38.64377528
34.73142044
36.28815574
22.29315306
18.04484907
18.87148731
94.71719024
90.9432815
99.80207641
86.64762409
81.98195023
89.91777677
76.98406892
68.36370166
78.75938798
72.17636938
69.09914448
72.33781186
59.55305076
56.27958428
58.93443927
46.14534553
42.64993125
44.680231
32.19919964
28.91730457
30.31322648
18.51359225
14.96851305
15.70553607
77.57975673
74.44767429
82.64784992
70.89534529
67.02842688
74.36178341
62.99105064
55.62710333
65.15165371
59.39201806
56.84534197
59.80922578
48.95744261
46.25451002
48.67779267
37.88622437
34.9994168
36.84658052
26.37294959
23.66805594
24.93383149
15.11478805
12.20593594
12.87081267
61.61173698
59.07473461
66.73669672
56.22829081
53.10038244
59.94887744
49.91975196
43.83522244
52.64898645
47.62162949
45.56489217
48.30377511
39.2128229
37.03951522
39.27698005
30.3095339
27.98599015
29.68741815
21.0429907
18.87153497
20.03375855
12.01980849
9.693722406
10.30140366
46.48155324
44.55283145
51.82521906
42.41729695
40.02486942
46.46752844
37.59819513
32.73349847
41.04630634
36.64370229
35.04914
37.61720424
30.13800561
28.46182888
30.55532439
23.26862288
21.47233324
23.06078864
16.10153483
14.42932763
15.51155413
9.162663911
7.377479901
7.940842809
32.06989701
30.76905959
37.66241537
29.27313769
27.59040426
33.73818388
25.88867818
22.16141762
30.09064363
26.26089314
25.10644
27.54711562
21.56739091
20.36379082
22.35152141
16.63058789
15.3343808
16.84025183
11.45256973
10.25459486
11.27751573
6.485851461
5.20999942
5.740277468
18.3915896
17.47662218
24.14644184
16.61294558
15.63457564
21.53967147
14.62668588
11.95728007
19.62124571
16.3027707
15.57170747
17.92522036
13.34766171
12.59701386
14.51555112
10.26737947
9.453174658
10.9058094
7.009403775
6.269131492
7.251646872
3.938989794
3.150243042
3.657046461
6.072391422
5.541664453
10.80778287
5.124816497
4.768690146
9.587852405
4.388286826
2.385160221
9.481533978
6.62461563
6.305376367
8.596763663
5.339706747
5.019825332
6.898865938
4.048157657
3.714691274
5.137950779
2.710501187
2.418659518
3.351919231
1.479109938
1.158872293
1.657670303
1222.405396
1237.496189
1229.87403
942.260866
961.8949288
959.9727194
1241.813153
1230.626176
1202.242729
982.0172627
979.2184775
946.8510167
1172.947204
1142.744861
1151.181672
1088.290451
1106.378089
1101.195599
1301.786102
1308.652408
1048.894641
1051.34722
1069.905974
113.8579733
912.0300648
876.7682049
874.3214755
932.8240438
911.3390309
930.5378875
863.1372054
878.0747853
917.960801
245.3739129
601.806849
554.0874554
607.2121763
1001.026067
1027.684291
1013.061865
1058.265548
1042.759997
1014.643942
1057.664535
1090.297716
1074.12624
1123.404743
1106.728593
1072.327457
1117.023037
1157.5817
1140.340264
1193.411489
1175.231137
1132.336862
890.9426871
918.8777461
909.6512584
937.8502173
928.2868939
898.9676645
986.8691962
958.0352113
969.1216068
922.5836412
956.7771121
947.405476
974.5662909
965.8696583
929.7885467
1037.457733
1002.347818
1013.087974
947.5021255
990.4962984
982.8070988
1004.375577
997.6125088
951.7062421
1088.439268
1043.691643
1053.876244
1158.456695
1174.979893
1168.171012
1190.036513
1182.324841
1165.502009
1214.69454
1198.738153
1206.647422
777.3162744
805.920357
801.892838
813.7761774
809.9453843
779.9991606
870.5322678
840.3127246
845.5706964
785.6975615
819.9831264
817.1945859
822.6715612
821.8584182
785.7638442
894.9755952
858.487623
861.1774516
778.0155103
819.841578
822.1112575
808.8767946
815.576377
771.3240777
907.2550868
861.2031808
857.6453326
925.8233928
905.6430966
907.5827251
665.5157234
692.8334923
693.8820454
690.0208021
691.6236837
663.0193397
750.2746712
720.6639073
720.2310724
652.2623284
684.8469117
687.8476047
675.1551187
680.7131102
646.8122899
750.3573743
715.3100557
711.1588015
620.6350097
658.3966924
667.8488385
631.375142
646.3831786
607.3918354
728.4052792
686.7347555
673.1839776
548.4883797
590.0960892
612.7872233
536.7869835
563.9209287
521.3264355
658.2589874
609.1020569
580.8363338
407.4063064
456.8639461
493.5284555
397.1654505
355.0283642
483.6055819
442.7899563
563.4297808
587.7464034
593.7296654
574.8520625
581.5150101
556.0287535
635.0317361
607.8373067
602.3813143
530.5298258
559.5643215
567.6023269
540.0802985
550.4823054
520.3111473
613.7384256
581.6251975
572.3876427
481.3431509
514.270691
528.102319
480.1214674
498.3177853
464.8390774
569.7021767
533.26801
515.4979053
402.1089181
436.1507206
459.7253732
380.9430061
408.2061821
374.5058438
481.3206046
443.8026469
414.9884504
273.3849256
301.5637625
352.0437209
266.1972027
242.2626833
320.405179
291.633022
477.1190381
496.9487181
506.7273952
475.3243085
486.3961255
466.0238076
531.4955054
508.2175996
498.1379691
428.5589629
451.457654
463.7175575
424.44812
438.4129499
414.7526251
491.3520733
463.973514
450.7576142
368.1182829
393.2937406
409.4354898
356.8984967
375.9518188
350.4899592
433.1891486
403.5173727
384.8360056
286.5534639
311.3969173
335.1029976
266.4310366
289.05065
265.656976
343.2748965
314.8158687
291.8491653
185.0367853
205.3474618
237.2654959
172.6984688
151.7895636
218.695646
195.2963244
406.3886501
422.8678215
433.5509544
398.7866946
411.2992987
394.7952756
446.8447941
428.6298605
416.1494239
354.6071812
370.8672284
385.3065059
339.5663212
355.5440493
339.4081935
393.0375169
373.3043091
357.6637513
289.8542395
306.0986214
323.1165832
267.2055404
287.7022628
271.4488686
327.2534304
306.2995883
285.9910988
211.3748042
226.8513687
246.1594939
186.9778579
208.2029208
193.5266467
244.377764
225.1823036
203.3627543
120.7329981
133.4554472
161.5644059
103.9387662
93.19102749
133.2014476
117.2339653
347.5044414
361.2375185
371.958164
337.6453323
349.807917
336.1906343
379.0699991
364.0885997
351.7898455
298.1299862
311.1122853
324.743476
281.8416967
296.7878916
284.1223759
324.3574123
310.1872393
294.8661656
238.5483393
250.0548557
266.3006979
214.2677077
232.9025107
221.7751465
257.4433032
244.9773187
225.6472911
168.1596413
177.0342307
194.8440169
141.5092569
160.5423455
152.4434966
181.0420294
170.2831059
150.3497372
92.66862705
96.83735312
119.5673107
74.30743543
70.8813665
84.79385145
78.58421467
298.2804845
309.7885142
320.0595026
287.5645408
298.9592038
287.644183
323.1994377
310.8004012
299.1869025
252.6323717
263.1324375
275.613787
236.7931106
250.1700142
240.0296193
272.1630918
260.8643652
247.0814078
199.7744215
208.630546
222.9976551
177.9163619
193.5758152
185.2205866
211.7094952
202.3898921
186.1048723
140.4357504
146.9859
162.1941436
115.8977999
131.9760892
125.9539011
145.2690615
138.4475173
121.8942816
76.17147842
79.91327064
98.37395799
61.45760636
58.62208579
67.67940246
64.50448092
256.8264166
266.5492118
276.1035591
246.1356732
256.5590919
247.0636439
276.8244756
266.4708272
255.7946194
215.447615
224.0847236
235.2987553
200.7214931
212.5475198
204.2567217
230.4023542
221.2519826
209.0499915
168.8137555
175.9502311
188.5601425
149.319809
162.8336922
156.1445426
177.3317933
169.8838438
155.8579762
117.8854377
123.061642
135.952326
96.38838011
110.1096223
105.4090587
120.3497552
115.0834543
100.8175476
63.44962138
66.35240202
81.62781629
51.1244775
48.89553475
55.97786024
53.4837682
221.6366528
229.9151283
238.636252
211.4597685
220.8541226
212.8091071
237.9615444
229.2319312
219.5800633
184.5825623
191.7920178
201.7589306
171.17933
181.5988124
174.706718
196.3515449
188.8066044
178.050017
143.5654712
149.426842
160.4782477
126.3515705
138.0132397
132.5436062
149.7923724
143.7558587
131.6562887
99.71740684
103.9162474
114.916179
81.02247306
92.764922
88.97209162
100.9652619
96.75712233
84.55374203
53.3497374
55.67547312
68.469637
42.90264186
41.10535556
46.78924174
44.79477193
191.5146364
198.6243591
206.4869497
182.1134463
190.4962679
183.6145376
205.0787995
197.646765
189.0146838
158.6093227
164.706335
173.5053636
146.5735598
155.734719
149.9233899
168.1106676
161.7924678
152.3295982
122.6288339
127.5185193
137.1808658
107.5259263
117.5952826
113.0479023
127.3284833
122.3510478
111.9064402
84.79959584
88.27261045
97.7095971
68.56072229
78.65255788
75.52602109
85.36433783
81.92860858
71.45065097
45.12778411
47.03661662
57.84261798
36.2194327
34.74078255
39.39643257
37.76973428
165.5112163
171.6689312
178.6895892
157.0199187
164.4413061
158.5002854
176.9865722
170.5996598
162.9435734
136.4801179
141.6987064
149.4314859
125.7926276
133.8251776
128.8632712
144.3433641
138.9814062
130.6779223
105.0071086
109.1452519
117.5733682
91.82472095
100.5259672
96.68831182
108.6951252
104.5248455
95.50019555
72.33629061
75.25570662
83.3789743
58.25027368
66.94631417
64.32554096
72.53865259
69.68150268
60.65708777
38.30527891
39.89938339
49.08099107
30.68933827
29.45400838
33.32897584
31.97980005
142.8752173
148.2528099
154.4696276
135.3487992
141.8749467
136.6998608
152.7655063
147.2270125
140.4836115
117.410434
121.9264224
128.6950616
108.0226066
115.0404466
110.7557706
124.0849981
119.4804818
112.2188959
89.97436648
93.52192512
100.854127
78.53329891
86.04881128
82.76591718
93.00201615
89.45821551
81.66130221
61.76887093
64.25733563
71.26028487
49.58303883
57.08230306
54.8540578
61.81215692
59.39974037
51.61742616
32.55741853
33.90762161
41.73606773
26.0468952
25.00122302
28.27049031
27.13573512
123.0120691
127.7451038
133.2068959
116.4551381
122.1577297
117.6119367
131.694218
126.8494524
120.9475964
100.8088208
104.7549168
110.65202
92.65600376
98.75990647
95.02288822
106.6193856
102.6231535
96.29959615
76.9974486
80.07292442
86.42965026
67.13166175
73.61120175
70.7699504
79.60320339
76.55366399
69.82781619
52.6937188
54.84046382
60.8733354
42.19820384
48.6575052
46.73973366
52.71043094
50.64637033
43.93991711
27.65264365
28.81005222
35.49121924
22.10066628
21.20541527
23.99651758
23.03037071
105.4400285
109.6403226
114.4000427
99.83316994
104.782192
100.7541566
113.205012
108.9305584
103.7993584
86.21414307
89.69607207
94.80336969
79.22839297
84.50730642
81.21492116
91.40576746
87.90246549
82.42504022
65.66821747
68.36464078
73.84905357
57.23535484
62.80103735
60.31406226
68.02445667
65.36968708
59.5854294
44.8114562
46.68366521
51.8652797
35.83095303
41.37617923
39.70696101
44.88927996
43.10254573
37.33925154
23.41871763
24.42204858
30.11498372
18.70843024
17.93355196
20.34277079
19.51098597
89.76398342
93.52336036
97.63364095
85.07606844
89.33583438
85.73496972
96.84018154
93.03600949
88.60946135
73.26031638
76.3618738
80.75092412
67.3736582
71.90516635
68.97633205
78.01993437
74.91831349
70.20655456
55.67201034
58.0603455
62.75945423
48.55252904
53.30222636
51.10239655
57.90429439
55.56834499
50.62302577
37.89072836
39.54158619
43.96861391
30.2791217
35.012669
33.54346225
38.09169006
36.52789809
31.59990798
19.72375033
20.60304773
25.43261912
15.76072433
15.08275323
17.18481006
16.46099993
75.65457054
79.05047386
82.55914445
71.85491298
75.48140635
72.23247552
82.22849585
78.81214165
75.03197078
61.65457308
64.4436262
68.17552264
56.80563914
60.65573598
58.02515332
66.12771757
63.35541937
59.3405753
46.76250767
48.89978209
52.8872178
40.84963934
44.86760938
42.9007852
48.96544966
46.88819637
42.69449437
31.74612357
33.21813983
36.96729087
25.3834921
29.38859926
28.08076281
32.11786619
30.73362846
26.55333323
16.46311567
17.24248138
21.30785767
13.17126762
12.57141406
14.42591414
13.78910363
62.83836115
65.9329351
68.8800944
59.89767381
62.93836924
59.98022479
69.06130318
65.96428656
62.78123549
51.15445782
53.68740415
56.8140632
47.28955874
50.51440006
48.12764132
55.46025242
52.95750439
49.58116869
38.73577535
40.66940053
44.00788055
33.93904899
37.29568327
35.51756539
40.98494541
39.11725817
35.60111406
26.22950028