/*--------------------------------*- C++ -*----------------------------------*\
| =========                 |                                                 |
| \\      /  F ield         | OpenFOAM: The Open Source CFD Toolbox           |
|  \\    /   O peration     | Version:  v2012                                 |
|   \\  /    A nd           | Website:  www.openfoam.com                      |
|    \\/     M anipulation  |                                                 |
\*---------------------------------------------------------------------------*/
FoamFile
{
    version     2.0;
    format      ascii;
    class       surfaceScalarField;
    location    "2";
    object      phi;
}
// * * * * * * * * * * * * * * * * * * * * * * * * * * * * * * * * * * * * * //

dimensions      [0 3 -1 0 0 0 0];
oriented        oriented;


internalField   nonuniform List<scalar> 
6430
(
-0.007932167904
0.9335936171
-0.01607384944
0.9329950736
-0.0243825144
0.9316759621
-0.008891336093
0.9295745982
-0.02435634358
-0.4590044786
0.4603266695
-0.0102135269
-0.4566360584
0.01168972375
0.4582973771
-0.01335104234
-0.4453465093
0.01505499843
0.4433483133
-0.006270287397
-0.006867654848
-0.1930801434
0.003674926947
0.1914334411
-0.002147552823
-0.1782224926
0.001543525818
0.1779958205
-0.001481204468
-0.1921034955
0.002777825809
0.1911315691
-0.001913011358
-0.2159520579
0.005751538805
0.2172021148
-0.003495732241
-0.00350586345
-0.05244059612
0.002813425771
0.05253080038
-0.002903630025
-0.004442998403
0.9380366155
-0.009018772213
0.9375708475
-0.01386735862
0.9365245485
-0.009467687651
0.9348625205
-0.009687593185
-0.4637028234
0.4651086359
-0.01087350011
-0.4617436255
0.0124446314
0.463442428
-0.01414343391
-0.4429973486
0.01600123331
0.4470636504
-0.009636554783
-0.01052642947
-0.1881537526
0.01055714875
0.1881745991
-0.01070416119
-0.175413399
0.01008148246
0.1747900583
-0.009622661035
-0.1946514954
0.00796263795
0.1939888439
-0.007398519249
-0.2214400828
0.006303459139
0.2226979534
-0.003778810306
-0.00378251947
-0.05473977496
0.006080792135
0.1099014295
-0.05470862992
-0.00326080036
-0.003273016442
-0.004634576873
0.9426711924
-0.009397100073
0.9423333707
-0.01441841784
0.9415458663
-0.009854097467
0.9402882135
-0.009990013429
-0.4666057733
0.4680898479
-0.01133817209
-0.465153766
0.01294541319
0.4668633994
-0.01465504663
-0.4539263139
0.01649231696
0.4617716007
-0.01221842518
-0.01215614379
-0.1915094634
0.01786942911
0.1938461248
-0.02031313493
-0.1743384052
0.02534601255
0.174920138
-0.02608502473
-0.1896932405
0.02496901135
0.1880184933
-0.02341000747
-0.2206138809
0.01505648966
0.2166912912
-0.01115859977
-0.1130771842
0.01029642068
0.2261187498
-0.01034864221
-0.1129893441
-0.004703247728
0.9473744401
-0.009520044577
0.9471501675
-0.01456193898
0.9465877607
-0.009965143591
0.9456848859
-0.009993467751
-0.4695691543
0.4710503362
-0.01144632553
-0.4685487448
0.01302235555
0.4702013055
-0.01467491619
-0.467362938
0.01642447016
0.4693190808
-0.009265719118
-0.009115026527
-0.2048986278
0.01930525567
0.2099358017
-0.024407543
-0.1801284423
0.03754711096
0.1832792
-0.04082799898
-0.1849471486
0.04632009034
0.185121824
-0.04661787297
-0.2070302421
0.04350199831
0.2050235406
-0.04156382586
-0.2195674265
0.03561544898
0.2159266415
-0.03199294735
-0.004663938167
0.9520383783
-0.009423047904
0.9519092773
-0.01436627509
0.9515309879
-0.009841192965
0.9509189599
-0.009759156154
-0.4724831492
0.4739045283
-0.01126257209
-0.4718027479
0.01275696275
0.4733488498
-0.01430306467
-0.4710972297
0.01591566727
0.4727829445
-0.008852980213
-0.008748401904
-0.2285561506
0.009850192904
0.234334704
-0.01563752834
-0.1974452663
0.03649899174
0.2036513816
-0.04278385451
-0.1905905777
0.05799074869
0.1941417549
-0.06164067531
-0.203782191
0.0685609272
0.2049312735
-0.06978285007
-0.2069538692
0.06612417521
0.2062507845
-0.0654477422
-0.004538264223
0.9565766425
-0.009151266428
0.9565222795
-0.01390226716
0.9562819886
-0.009518879426
0.9558886787
-0.009353106485
-0.475261793
0.476592723
-0.01084980936
-0.4748266746
0.0122328146
0.4762375813
-0.01364372124
-0.4743694251
0.01509206407
0.4758552126
-0.008356600056
-0.008221251459
-0.236747435
0.009128296131
0.237138543
-0.009519404161
-0.2254960865
0.01436764317
0.2333644341
-0.02225015012
-0.209366005
0.04408668267
0.2156073198
-0.05037679196
-0.211281439
0.06517168873
0.2138637561
-0.06779997088
-0.2122723577
0.07060527198
0.2155600978
-0.07391067953
-0.004346888708
0.9609235312
-0.008747684242
0.960923075
-0.01324089071
0.9607751951
-0.009051487739
0.9605301401
-0.00883086433
-0.4778530907
0.4790791514
-0.01027754839
-0.4775735769
0.01153638742
0.478839723
-0.01280253355
-0.4772442344
0.01408159475
0.4785349382
-0.007757016875
-0.007615281655
-0.2382103672
0.008418409253
0.2385369479
-0.008744989927
-0.2373124518
0.009712177182
0.2376281211
-0.0100278465
-0.2354578773
0.01095278983
0.2363945313
-0.01189006786
-0.2227675184
0.02528756778
0.2262764725
-0.0288061542
-0.2240352156
0.03755456431
0.2260995225
-0.03962376148
-0.00410987431
0.9650334055
-0.008254584227
0.965067785
-0.01245091848
0.9649715294
-0.008490551906
0.9648112707
-0.008241497175
-0.4802319952
0.4813500322
-0.009608588993
-0.4800314621
0.01074201745
0.4811562147
-0.01186677004
-0.4797325831
0.01298617741
0.4808427686
-0.007110126457
-0.006986236458
-0.239430921
0.007682067164
0.2397035279
-0.007954674044
-0.2384765941
0.008745265081
0.2387301213
-0.008998792236
-0.2371728702
0.009728169112
0.2373952
-0.009950498831
-0.2283308324
0.01020388422
0.2282102299
-0.01008328176
-0.228828314
0.01096720706
0.2290530573
-0.01119195033
-0.003845647542
0.9688790531
-0.007709893844
0.9689320313
-0.01159222674
0.9688538623
-0.007882840209
0.9687253669
-0.007623482768
-0.48239337
0.4834061793
-0.008895649499
-0.4822114526
0.009909659249
0.483205532
-0.01090373865
-0.4818713324
0.01188034576
0.4828239693
-0.006467887866
-0.00636509478
-0.2404504885
0.006963501327
0.2406789171
-0.007191929995
-0.2394156486
0.007843847235
0.2396219674
-0.008050166032
-0.2379724066
0.008631150516
0.2381388151
-0.008797559042
-0.2278954645
0.008918673852
0.2278048348
-0.008828044199
-0.2295554286
0.009599142361
0.2296810731
-0.009724786881
-0.003568763553
0.9724478167
-0.007142939809
0.9725062075
-0.01070937003
0.9724202925
-0.007261373523
0.9722825778
-0.007005207381
-0.4843442896
0.4852568718
-0.008173955737
-0.4841367661
0.009077762764
0.4850135429
-0.009954539608
-0.4837061211
0.01080712891
0.4845261247
-0.005859375355
-0.005767757108
-0.2413064061
0.006285148493
0.2414988029
-0.006477545301
-0.2401839661
0.007020747588
0.2403542727
-0.007191054109
-0.238572427
0.007660118965
0.2386975528
-0.007785244757
-0.2275775756
0.007826999512
0.2275168956
-0.007766319482
-0.2299702163
0.008432116859
0.2300436374
-0.008505537969
-0.0032916781
0.9757394948
-0.006578483427
0.9757930129
-0.009838593825
0.9756804029
-0.006652620128
0.9755033749
-0.006406770855
-0.4860975809
0.4869176361
-0.007472675302
-0.4858348357
0.008277404848
0.4866082925
-0.009050861587
-0.4852886474
0.00979606082
0.4859983205
-0.005295399003
-0.005210334916
-0.2420291242
0.005660976675
0.2421924545
-0.005824306985
-0.2408213193
0.006282022747
0.2409637658
-0.006424469182
-0.2390235746
0.006806921362
0.2391175749
-0.006900921635
-0.2273795786
0.006898726106
0.2273482694
-0.006867416874
-0.2302136789
0.007437635689
0.2302568074
-0.007480764209
-0.003022788141
0.9787622829
-0.006032994489
0.9788032192
-0.009003322099
0.9786507305
-0.006071823132
0.9784134876
-0.005841611654
-0.4876699489
0.488405956
-0.006807830278
-0.4873330965
0.007524398383
0.4880162996
-0.008207601456
-0.4866596434
0.008860394455
0.4872765334
-0.00477855346
-0.004698730949
-0.2426445401
0.005094522484
0.2427844461
-0.005234428502
-0.2413566865
0.005624428939
0.2414772229
-0.005744965347
-0.2393622994
0.006059123731
0.2394328193
-0.006129643624
-0.2272948346
0.006106776695
0.2272896942
-0.006101636263
-0.2303555622
0.006587641774
0.2303800405
-0.006612120145
-0.002768300999
0.9815305839
-0.005518492941
0.9815534112
-0.008220238247
0.9813524758
-0.00552943927
0.9810414291
-0.005318740486
-0.4890791338
0.4897397829
-0.006190088367
-0.4886571663
0.006828933953
0.4892620716
-0.007433839292
-0.4878527442
0.008007722494
0.488391594
-0.004309199334
-0.004237372976
-0.2431732149
0.004583971536
0.2432940854
-0.004704841987
-0.2418112086
0.005040469228
0.2419141365
-0.00514339706
-0.2396162358
0.005402969809
0.2396690644
-0.00545579836
-0.2273084802
0.005426974981
0.2273252146
-0.005443709394
-0.2304338091
0.005856811413
0.2304462073
-0.005869209564
-0.002531757842
0.9840623418
-0.005041628656
0.984063282
-0.007497983985
0.9838088311
-0.005031510027
0.9834158892
-0.004840934074
-0.4903428717
0.4909366431
-0.005625281375
-0.4898303629
0.006196093057
0.4903676479
-0.006733378058
-0.4888963264
0.007240086246
0.4893696115
-0.003887731338
-0.003825639998
-0.2436313996
0.00412814405
0.2437367069
-0.004233451405
-0.2422004585
0.004524888345
0.2422889961
-0.004613425944
-0.239806449
0.004829084092
0.2398460144
-0.004868649469
-0.2274029604
0.004842822684
0.2274371693
-0.004877031552
-0.2304701615
0.005227921558
0.2304743558
-0.005232115837
-0.002316087326
0.9863784291
-0.004607840617
0.9863550353
-0.006843534443
0.986044525
-0.004581053816
0.985565513
-0.00441210439
-0.4914779349
0.4920129141
-0.005116033038
-0.4908732794
0.005627677308
0.4913524123
-0.006106810188
-0.4898141969
0.006556451549
0.4902324297
-0.003514630942
-0.003460053367
-0.2440318879
0.00372640535
0.2441244432
-0.003818960701
-0.2425361778
0.00407420532
0.2426128709
-0.004150898439
-0.2399490354
0.004331226134
0.239978763
-0.004360953717
-0.2275612371
0.004343222225
0.2276089597
-0.00439094481
-0.2304776635
0.004689342257
0.2304760767
-0.004687755453
-0.002122404735
0.9885008338
-0.00421899744
0.988451628
-0.006258718515
0.988084246
-0.004178973006
0.9875176956
-0.004031928059
-0.4925002619
0.4929840054
-0.004662716478
-0.4918043288
0.00512322271
0.4922336658
-0.005552559724
-0.4906265847
0.005953832286
0.4909986427
-0.003187388137
-0.003138502161
-0.2443849595
0.003375246226
0.2444670149
-0.00345730159
-0.2428276863
0.003682660107
0.2428945766
-0.003749550456
-0.2400564285
0.003901437764
0.2400789559
-0.003923965198
-0.2277682962
0.003916913202
0.2278261452
-0.003974762201
-0.230464651
0.004229169096
0.2304589
-0.004223418077
-0.001951199912
0.9904520337
-0.003875776832
0.9903762049
-0.005743794319
0.9899522635
-0.003824871369
0.9892984222
-0.003699649652
-0.4934245377
0.4938640715
-0.004264405209
-0.4926397065
0.004681041163
0.4930266443
-0.005067978969
-0.4913505274
0.005428369632
0.4916838565
-0.002901868693
-0.002859830116
-0.2446988832
0.003069696171
0.2447722429
-0.003143055845
-0.2430825043
0.003343535324
0.2431412336
-0.003402264675
-0.2401382281
0.003531236537
0.2401555982
-0.00354860665
-0.228011389
0.003553177295
0.2280765301
-0.003618318341
-0.2304368187
0.0038360604
0.2304280465
-0.003827288203
-0.00180252603
0.9922545598
-0.00357805858
0.9921517375
-0.005297961527
0.9916721665
-0.003518162085
0.9909325969
-0.003413974075
-0.4942643362
0.494666099
-0.003919924872
-0.493393786
0.004299318087
0.4937450197
-0.004650551856
-0.4919999475
0.004976832975
0.4923006121
-0.002656937968
-0.002620559611
-0.244980476
0.002807526251
0.245046626
-0.0028736762
-0.2433068406
0.00305344504
0.2433587989
-0.003105403272
-0.2402019258
0.003216077036
0.2402157363
-0.003229887521
-0.2282801231
0.003245986947
0.2283503245
-0.00331618831
-0.2303982157
0.003503583656
0.2303872426
-0.003492610573
-0.001675802283
0.993930362
-0.003324414331
0.9938003495
-0.004918560354
0.9932663125
-0.003255480225
0.9924425458
-0.003173029086
-0.4950320128
0.4954022551
-0.003625722547
-0.4940796109
0.003973953349
0.4944011137
-0.00429545624
-0.4925874944
0.004593764949
0.4928620339
-0.002451294625
-0.002417009791
-0.24523517
0.002585411821
0.245295267
-0.00264550884
-0.2435059352
0.002807984014
0.2435522948
-0.002854343589
-0.2402533321
0.002950547831
0.2402648091
-0.002962024847
-0.2285663879
0.002989010596
0.2286399082
-0.003062530869
-0.2303517705
0.003224888349
0.2303392069
-0.003212324778
-0.001570650311
0.9955010124
-0.003114172554
0.9953438718
-0.004604060158
0.9947562001
-0.003037755558
0.993852177
-0.002975935756
-0.4957395084
0.4960830359
-0.003381283065
-0.4947088292
0.00370369658
0.4950059642
-0.004000831561
-0.4931258142
0.00427641992
0.493380988
-0.002282384097
-0.002249209654
-0.2454674305
0.002401759677
0.245522536
-0.002456865163
-0.2436842719
0.002605179769
0.2437260916
-0.002646999419
-0.2402969197
0.002732027944
0.2403070233
-0.002742131498
-0.2288638675
0.002779138231
0.228939384
-0.002854654735
-0.2302996978
0.002996581519
0.2302860135
-0.002982897216
-0.001487314109
0.9969883265
-0.002946911332
0.996803469
-0.004353539322
0.9961628281
-0.002855717515
0.9951723915
-0.002818036313
-0.4963956137
0.4967222538
-0.003182357633
-0.4952918578
0.003485218267
0.4955695536
-0.003762914039
-0.4936265976
0.004019601044
0.4938639654
-0.002141270942
-0.002115697894
-0.2456816492
0.002253459654
0.2457329998
-0.002304810317
-0.243845912
0.002442022715
0.2438841552
-0.002480265974
-0.2403362068
0.002556966658
0.2403457
-0.002566459821
-0.2291676854
0.002612571777
0.2292441761
-0.00268906247
-0.230243734
0.00281451591
0.2302293031
-0.002800085026
-0.001422793512
0.99841112
-0.002818861817
0.9981995373
-0.00416284941
0.9975068156
-0.002726705219
0.99644019
-0.002703942724
-0.497018137
0.4973250743
-0.00303364252
-0.4958380841
0.003318352419
0.4961001044
-0.003580372721
-0.4940942615
0.003822791663
0.494318348
-0.002032471595
-0.002014406564
-0.2458820068
0.002138305593
0.245930369
-0.0021866678
-0.2439944912
0.002315176203
0.2440299809
-0.002350665876
-0.2403740062
0.002421477748
0.2403835051
-0.002430976617
-0.2294740869
0.00248529792
0.2295507535
-0.002561964545
-0.2301852714
0.002674271485
0.230170399
-0.002659399154
-0.001386450989
0.999797571
-0.002740129541
0.9995532158
-0.004044243851
0.9988109299
-0.002645077924
0.9976602786
-0.002619254531
-0.4976063016
0.4978871006
-0.002925876951
-0.4963555776
0.003199590584
0.4966068336
-0.003450846583
-0.4945374407
0.00368303212
0.4947516523
-0.001953470853
-0.001943772808
-0.2460715861
0.002054781146
0.246117711
-0.002100906049
-0.2441332266
0.002222914116
0.2441667213
-0.002256408829
-0.2404126519
0.002323569536
0.2404226956
-0.002333613164
-0.2297802713
0.002395412087
0.2298565022
-0.002471643011
-0.230125415
0.00257365443
0.2301103406
-0.002558580059
-0.001344633018
-0.002671145365
-0.003946562605
-0.002595355063
-0.002530030102
-0.4981701137
0.4984468746
-0.002872115984
-0.4968520328
0.003131599516
0.4970950705
-0.003374637247
-0.4949637149
0.003599673148
0.4951693508
-0.001908011663
-0.001897297321
-0.2462531736
0.002002561788
0.2462977154
-0.002047103593
-0.2442651262
0.002164617002
0.2442973821
-0.00219687285
-0.2404543243
0.00226280552
0.2404655104
-0.002273991642
-0.2300840561
0.002342721132
0.2301595833
-0.00241824834
-0.2300649981
0.002512446132
0.2300498108
-0.002497258765
0.002770891048
-0.002872775502
-0.05233871167
0.003031005453
-0.003140153449
-0.05463062695
0.005476919549
-0.2147228774
-0.003321737924
-0.003384362088
0.1052868745
-0.002757238683
-0.1048767585
0.005118013755
0.02215345133
-0.2199277007
-0.01988717708
-0.003778656334
0.109601157
-0.003027411677
-0.1091796922
0.005636952259
-0.002822452544
0.005249620432
0.1056731324
0.05326672984
0.002932548246
-0.003044696196
-0.05315458189
0.02631057704
-0.00029801338
-0.02685223571
0.0008396720531
-0.02769428833
-0.0008193213203
0.001202660585
0.02731094906
0.005546060814
-0.005921783855
-0.1127014611
-0.001352179517
-0.02791995268
0.001577843871
0.02713642775
-0.0008569606151
-0.02763164665
-0.002575061622
0.04731955509
0.003746670767
-0.02567020339
-0.02282096084
-0.000219103849
0.0006481113811
0.02588156951
0.002947402993
0.05337138404
-0.003052057198
-0.02246027965
0.02230194907
-6.077326807e-05
0.02434603716
-0.0046199094
-0.01206799227
-0.0102331971
0.02666001115
-0.0003429047206
-0.02283796155
7.966852112e-05
0.005076891896
0.0244592748
-0.02418988151
-0.001203018949
0.00162309664
0.02376980382
-0.05194359716
0.003328245591
0.0520707995
-0.003455447922
0.05241912329
0.00336661293
-0.05232650251
-0.001755428965
-0.001703804745
-0.05173737922
0.003165747873
0.0517881073
-0.003216475951
0.003282557597
-0.003350412585
-0.05187574218
-0.0007662071636
-0.02464693045
0.001223256103
-0.02489120477
-0.001120310576
0.001382044664
0.02462947068
-0.05134490316
0.002995870392
0.05142279158
-0.003073758815
0.003144110317
-0.003235037943
-0.05164645159
0.002943204964
-0.003006702217
-0.0512814059
-0.000936399776
-0.02520243141
0.001247626415
0.02458260574
-0.0005130488763
-0.02500595664
0.02415729494
-0.0006949997812
0.003363991918
0.05248619658
-0.00173312557
-0.001697939642
0.05292100802
0.01372176951
-0.05272147261
-0.005221739561
-0.008699565353
-0.01230065244
0.02550705709
-0.02468787542
0.01148147077
0.01219312988
-0.01567604303
-0.008817739284
0.02378989357
-0.02370683011
0.004817978474
-0.02364927391
-0.005514084401
0.005411379592
0.02375197872
0.02372471887
-0.0002464509946
-0.02424447504
0.02713497185
-0.02158844029
-0.0004696396618
-0.005625045117
-0.02359788531
0.005573656518
-0.006424525848
0.01267136637
0.02088813133
0.02300820214
-0.0004865022166
0.02436560973
0.02471221468
-0.02475930302
0.01049163028
-0.007356361046
-0.2237599599
0.2257808623
0.009589661417
-0.005572909997
-0.1121178197
-0.1121337332
0.005650528707
0.1100314205
0.1113244078
0.00596881949
-0.006459960681
-0.1108332666
-0.006181153504
0.09447634935
-0.09520614281
0.00691094697
-0.002502137124
0.003807236866
0.04601445536
-0.004756611717
-0.02634865951
0.003670617155
0.02743465407
-0.026325806
0.00197210001
0.02664696192
-0.002293255931
0.02663665944
0.001672643113
-0.001534851291
-0.02677445126
0.02626946687
-0.004425566831
0.08017221636
-0.009882217419
-0.07647115243
0.02623268357
0.0008770669328
-0.0004947192683
-0.02661503124
-0.02466113074
0.004229216566
0.0265533845
-0.006121470318
-0.03213423311
0.02376916331
0.03387212689
0.02386037435
0.05423936073
-0.01889931846
-0.006279408594
0.003461476602
0.0544367432
-0.003553621659
-0.05434459813
0.001624676491
0.02645332292
-0.001441339975
0.02591295958
0.001723731081
-0.001582713919
-0.02605397675
-0.000429316918
0.02449753169
-0.02496063858
0.0008924238133
0.02462198294
0.02158537057
-0.0218488566
-0.0001658308873
0.01999047085
-0.003785959942
-0.01535169129
-0.0008528196147
-0.008517954041
0.04947630253
-0.04898719245
0.008028843971
0.002424201698
0.02380543109
-0.01994110324
0.02539862861
0.0004901042292
-0.000107410299
-0.02578132254
-0.03079858044
0.02598135921
6.060950813e-05
-0.02548638453
0.001762032093
0.02551348016
-0.001789127723
0.001943183292
-0.002353453519
-0.02591553578
-0.005990603907
-0.02455163649
0.004193580893
-0.000517931043
-0.02596253723
0.0009554323131
0.02552503596
-0.02579765144
0.001622775262
0.02569000298
-0.001515126806
0.001699251144
-0.00164446207
-0.02554117361
0.0008450536266
0.02583377564
-0.0004461456983
0.003606055365
-0.004590636356
-0.02367654975
-0.001192927999
0.001606274318
0.02408418537
0.002045173234
0.02586596548
-0.00199817913
0.02678189354
0.00924494188
-0.009741833833
-0.02628500158
-0.001950338929
0.0248102713
-0.01981379245
-0.003046139925
-0.004350825379
0.008296967496
0.01604432874
0.02073450338
-0.0003420608151
-0.01670435582
0.02182202694
-0.004389849444
-0.0007278216758
0.01902549826
-0.004468964432
-0.01834249376
0.02375335033
-0.00499753878
-0.02381398931
0.005058177755
0.02502703985
-0.0001463422815
0.01384242463
-0.0008863527669
-0.02291712372
-0.006043475446
0.005763212513
0.02319738666
-0.004064507244
-0.01192430083
-0.0007155477419
-0.006259508521
-0.02275626046
0.006098645257
-0.01473891022
-0.02205027413
-0.02610383194
0.001667348915
0.02601388601
-0.001577402982
0.001563093577
-0.001500083845
-0.02586066117
-0.02640635274
0.0009339197375
-0.02561596622
0.003016711567
0.02682847122
-0.02567166251
0.001745437131
0.0258238889
-0.001897663522
0.001587657945
-0.001647344296
-0.02604414559
-0.02387824692
0.02304731534
-2.60290311e-05
0.002328203151
-0.02620641981
-3.025815365e-08
-0.02768292811
0.002379484616
0.02208861956
0.0001158200118
9.750949375e-05
-0.0001103566289
0.02620536822
0.0005649995595
-0.022748726
0.02251195477
0.0001264146088
-4.431538802e-05
-0.0237095785
0.0008308556342
4.076131555e-05
-0.02540342425
0.001543489417
0.02540534187
-0.001545407031
0.001689867108
-0.001845260301
-0.02551626931
-0.02474708129
0.002737170437
-0.02617516607
0.001165659864
0.02585455983
-0.0255161596
0.001488286997
0.02548054541
-0.001452672809
0.001520174962
-0.001501524966
-0.02542207425
-0.02463945625
0.0242415658
-0.000115158428
0.0004452232308
-7.802093527e-05
-0.02500665854
0.0008621260819
-0.02542285949
-0.001167414222
0.02377235613
0.001552353036
-0.02375159093
0.02307188396
-0.0004877072577
-0.0002050249114
0.006818348703
-0.007369546978
-0.02413667715
0.02560770846
-0.02508189257
0.006292532807
0.02660484344
0.0104843358
0.0002068788009
0.004169229945
-0.004376108743
-0.01866909787
-0.004376492142
0.004949951734
0.02376064757
0.01933623157
-0.004661558689
0.02061641642
-0.002176865765
-0.02038988959
-0.02170575024
0.02143156618
2.773306033e-05
0.0002089541444
-0.02187101994
-4.368443516e-05
-0.02464892748
0.0006134065908
-0.01807438609
-0.0004891864961
0.01370283789
-0.001031471514
-0.004918544791
0.01924086734
-0.0006194846572
0.02211638619
-0.006146799656
-0.001471291492
0.02217564727
0.00230384636
-0.02087271802
0.01939124141
1.018511889e-05
7.234594722e-05
0.02480419558
-0.02481308973
0.02249482228
0.0001998501203
-2.546973275e-05
0.02237408627
0.0001622441555
-4.150814272e-05
0.01498403719
-0.01499165642
7.619232908e-06
-0.004787455201
0.003657911583
-0.03099805917
4.184154052e-06
-0.02213549229
0.01990892105
0.02753372739
-0.0206607549
0.02708452191
0.001552818802
-0.001441266096
-0.02719607462
-0.0001243300694
0.02317043196
-0.02393355444
0.000887452557
0.0006190800095
-0.0001508559616
-0.02542886263
0.02564599694
-0.0261115084
0.001084591462
0.02522974907
0.001308671686
8.890700488e-05
-0.01097672739
-0.003431332921
-0.0009436309775
-0.00965053644
-0.001326190951
0.01193051281
-0.001535792795
-0.01051905009
0.01681337234
-0.004252921507
-0.01665173637
0.004091285546
0.003025266762
0.003616341609
0.01816866294
-0.02231827588
0.02217334263
3.75229535e-05
5.87787465e-05
0.0001349001409
0.0004828244253
0.002385447675
-0.0001136669596
0.02193533031
-0.02207853968
6.518843598e-05
0.02177314525
4.702662627e-05
0.02222832718
9.766571091e-05
4.809338033e-05
6.719663341e-05
8.259086779e-05
-0.0222515234
-0.004474605245
0.002299809943
-0.001479449383
0.00239561632
0.01949371131
-0.02099928223
2.612152969e-05
2.74496446e-05
0.02152656863
4.155171688e-05
3.957914324e-05
0.02497033077
0.001865692623
-0.003427804265
0.003316242466
-0.003480296039
0.000813188886
-0.01678516281
-0.003841818522
0.01630230131
-0.01331151192
-0.002177600495
0.01346304018
0.009809704322
-0.001512736825
-0.002183247553
-0.001318560047
-0.002924081625
-0.001414890522
-0.004922078529
0.01709356903
-0.02016437235
-0.005238085174
0.02048037899
-0.0195156402
-0.005038581594
-0.0001741687223
0.0005522810875
-0.02202713315
-1.805551486e-05
-1.328065155e-07
-0.0005476377165
-0.01798797177
0.02354138102
-0.004838630619
-0.000714778635
-0.01279894081
-0.00448160429
-0.0007074266592
-0.01829773868
-0.005282408758
0.01078943913
-0.005545796784
-0.001134861704
-0.01176691737
-0.001032023447
0.005336096938
-0.005975971203
0.02516127436
-0.0005843100883
0.01949300226
-0.0149958878
0.0002569775824
0.004408372435
-1.301882968e-05
0.004533745579
0.007255695375
-0.00723879742
-0.1932162014
-0.003832470245
0.1762782374
-0.1800151366
0.007399385734
-0.00309647916
-0.1791245671
-0.002019599301
0.1864003666
-0.1866338712
0.002123236435
-0.002261151874
-0.1919679536
0.2139167468
-0.2124274592
0.003974172433
0.02118065197
-0.02043868369
-0.1890207594
-0.01830376421
0.1754354231
-0.1762275945
0.01893269333
-0.00089908434
0.1785529086
-0.01782687607
-0.1760529458
-0.01782392591
0.1873678387
-0.1872084566
0.01754316768
0.002123622575
0.1869266388
-0.01842874757
-0.1941430739
0.2206363686
-0.2191579799
0.0206695945
0.004166451738
0.2154903204
0.2184759603
0.005903013171
-0.003583326064
-0.003593532656
0.1084528197
-0.004292740197
-0.1081010277
0.003940948218
-0.1070535417
-0.004143388803
0.003797372153
0.1073995583
0.0528414421
0.002876697233
-0.002990831835
-0.0527273075
0.05224760802
-0.05215598518
0.003190934755
-0.05191823914
0.003085761947
0.05199822506
0.01632059212
-0.01813318496
-0.1898109049
-0.02148917538
0.1754249502
-0.1748470537
0.02075322274
0.01043735706
0.1749145887
-0.02180620512
-0.1741818751
-0.02003303914
0.1833613188
-0.1845579229
0.02109851984
0.008533783074
0.1866732144
-0.01846660002
-0.1913706505
0.2131189293
-0.2163866204
0.01372444596
0.006278883866
0.2206538488
-0.007487206669
0.223913032
0.006272091562
0.2233965293
-0.004410875481
-0.1110677605
-0.1109527568
-0.004452343196
-0.1102322781
-0.004466980594
0.004111405867
0.1105878528
0.1103608298
0.006073378454
-0.00326746294
-0.003265315752
0.05512387875
-0.003583620864
-0.05494514064
0.003404882763
-0.05456073951
-0.003489775713
0.003376513265
0.05467400197
0.01987488384
-0.02431976566
-0.2005312321
-0.0352936977
0.183518177
-0.1804911108
0.03213568733
0.0241055011
0.1765120059
-0.03783276172
-0.1777286103
-0.04116222311
0.1813314628
-0.1811065951
0.04080314382
0.02592064749
0.1822761015
-0.04076560531
-0.1854676018
-0.03560739721
0.2011253235
-0.2034863459
0.03789067262
0.01843966591
0.2096884229
-0.03297675177
-0.2097218824
-0.02567851107
0.2218481088
-0.2240561914
0.02786579094
0.00902366736
0.2270536156
-0.0223215114
-0.2229368056
0.01259858453
-0.0193404822
-0.2218367716
-0.03857851016
0.2031503166
-0.197138114
0.03248569429
0.03364899319
0.1872958426
-0.04417032896
-0.191946972
-0.05699805868
0.1900211974
-0.1865786267
0.05344578345
0.04525420531
0.1822662418
-0.05979438804
-0.1879021674
-0.06412532947
0.1992050483
-0.1984258182
0.06325982695
0.04510818973
0.1994354106
-0.06460566923
-0.2033772698
-0.06058135139
0.2114577836
-0.2144639816
0.06354853478
0.03777528347
0.2196597974
-0.05845315793
-0.2091087195
0.009297794248
-0.009706016356
-0.2363392129
-0.02192678228
0.2324622525
-0.2245980248
0.01404649574
0.02978228792
0.2098018702
-0.02964539263
-0.2178079691
-0.05043224961
0.2115138183
-0.2051539683
0.04401378012
0.05360727241
0.1943058486
-0.05623897
-0.2036218756
-0.06963794694
0.2100690819
-0.2064024238
0.06591167071
0.066841843
0.2008418605
-0.07211790393
-0.2088559385
-0.07259099949
0.206194276
-0.2056636661
0.07202981264
0.06891343685
0.2086296766
-0.07560372046
-0.2092804276
0.008601535697
-0.008942554716
-0.2378693482
-0.009960802069
0.2375862109
-0.2372487667
0.009623357918
0.01031018129
0.2365158068
-0.01029485163
-0.2369784022
-0.01500088375
0.2363802315
-0.2325820566
0.01119921969
0.03724201378
0.2183146798
-0.02151870591
-0.2289476813
-0.03802517334
0.2274877623
-0.2229003072
0.03341950656
0.06107049723
0.2141205602
-0.04126220813
-0.2195489969
-0.04942922111
0.2170220765
-0.2138000726
0.04619537236
0.06878800385
0.207985367
-0.05188378648
-0.2215885108
0.007864591546
-0.008148915857
-0.2391465967
-0.008979723257
0.2387683239
-0.238495881
0.008707280331
0.009392563583
0.2379058245
-0.009247206054
-0.2382091113
-0.0100212675
0.2374957561
-0.2372428327
0.009768344051
0.01064739039
0.2366856309
-0.0102612682
-0.2369328695
-0.01056191957
0.233687363
-0.2337082257
0.01058278231
0.02062253032
0.2321447
-0.01042972219
-0.2284630297
-0.01134146467
0.2243981605
-0.2238675125
0.01081081658
0.03449458756
0.2200747588
-0.01160914827
-0.2285606304
0.007139038404
-0.007376799077
-0.2402127278
-0.008060126092
0.2397287591
-0.239506434
0.007837800975
0.008486560964
0.2390270281
-0.008276990795
-0.2391987839
-0.00889092201
0.2383613201
-0.2381645288
0.008694130685
0.009491073374
0.2377328518
-0.009069644356
-0.2377936842
-0.009218070139
0.2335279032
-0.2335766487
0.009266815612
0.01023388544
0.2336573618
-0.009120182893
-0.2279933517
-0.009918407414
0.226097487
-0.2257244822
0.009545402607
0.01048634776
0.2248790199
-0.01006277949
-0.2294110565
0.006451777491
-0.006651806478
-0.2411063771
-0.007219972714
0.2405188356
-0.2403349755
0.007036112616
0.007632050284
0.239940556
-0.007398449536
-0.2400054893
-0.007892861835
0.2390412422
-0.2388859236
0.007737543205
0.008445805923
0.2385466647
-0.008027257243
-0.2384380316
-0.008084997904
0.2333033857
-0.233362052
0.008143664206
0.008971403574
0.2334751735
-0.0080167407
-0.2276458328
-0.008708183202
0.2273146716
-0.2270472992
0.008440810784
0.009255824123
0.2264408053
-0.008792020461
-0.229886379
0.00581377669
-0.005983161544
-0.2418597393
-0.006460566163
0.241177067
-0.2410231376
0.006306636722
0.006845117446
0.2406944658
-0.006609382137
-0.2406725034
-0.007011654044
0.2395800582
-0.2394567023
0.006888298108
0.007513590011
0.2391877712
-0.007112662399
-0.2389225663
-0.007118864
0.2330708293
-0.2331275522
0.007175586938
0.007886043634
0.2332443416
-0.007080429721
-0.2274180129
-0.007673659488
0.2281849202
-0.2279941011
0.007482840399
0.008186317537
0.2275604709
-0.00772300303
-0.2301643353
0.005230414662
-0.005375092722
-0.242499862
-0.005780598333
0.2417322259
-0.2416018373
0.005650209752
0.006134531869
0.2413245579
-0.005906131135
-0.2412311537
-0.00623586997
0.2400090098
-0.239910689
0.0061375492
0.00669042524
0.2396965544
-0.006311640904
-0.2392865285
-0.006292286279
0.2328638268
-0.2329120246
0.006340484031
0.006953761125
0.2330157943
-0.006280986311
-0.2273061346
-0.006786876761
0.2288048704
-0.2286690816
0.00665108801
0.007262379306
0.2283601765
-0.006815250538
-0.2303271884
0.004705705887
-0.004830406207
-0.2430485146
-0.005178520494
0.2422057632
-0.2420940926
0.005066849876
0.005499082471
0.2418575723
-0.005285486067
-0.241704243
-0.005557534611
0.2403517267
-0.2402730612
0.00547886909
0.005966145264
0.2401019883
-0.005614309862
-0.2395594606