/*--------------------------------*- C++ -*----------------------------------*\
| =========                 |                                                 |
| \\      /  F ield         | OpenFOAM: The Open Source CFD Toolbox           |
|  \\    /   O peration     | Version:  v2012                                 |
|   \\  /    A nd           | Website:  www.openfoam.com                      |
|    \\/     M anipulation  |                                                 |
\*---------------------------------------------------------------------------*/
FoamFile
{
    version     2.0;
    format      ascii;
    class       pointVectorField;
    location    "2";
    object      pointDisplacement;
}
// * * * * * * * * * * * * * * * * * * * * * * * * * * * * * * * * * * * * * //

dimensions      [0 1 0 0 0 0 0];


internalField   nonuniform List<vector> 
6962
(
(0 0 0)
(0 0 0)
(0 0 0)
(0 0 0)
(0 0 0)
(0 0 0)
(0 0 0)
(0 0 0)
(0 0 0)
(0 0 0)
(-0.001021674777 -0.001310987928 5.606626274e-15)
(0 0 0)
(0 0 0)
(0 0 0)
(0 0 0)
(0 0 0)
(0 0 0)
(0 0 0)
(0 0 0)
(0 0 0)
(0 0 0)
(0 0 0)
(0 0 0)
(0 0 0)
(0 0 0)
(-0.001816686409 -0.002636451995 9.964251646e-15)
(-0.001656194322 -0.002333712637 9.089951014e-15)
(-0.001417367175 -0.001937769906 7.771561172e-15)
(-0.007055409221 -0.01055452621 4.24521529e-14)
(-0.007581463223 -0.01168568313 4.560241074e-14)
(-0.01150577712 -0.01859370563 7.266409696e-14)
(-0.01086095444 -0.01703788154 6.86395385e-14)
(-0.02315772257 -0.04248910787 1.718902798e-13)
(-0.02359656103 -0.04458494282 1.749572709e-13)
(-0.02685356735 -0.05379514869 2.113448305e-13)
(-0.02648618811 -0.05153167843 2.087219286e-13)
(-0.03160912764 -0.07541185439 3.060052212e-13)
(-0.03174305617 -0.07792966061 3.06671355e-13)
(-0.03162623931 -0.08408469251 3.308742169e-13)
(-0.03141468137 -0.08120179106 3.294586826e-13)
(-0.02558174832 -0.08880935473 0)
(-0.0256673579 -0.09157116415 0)
(-0.02273473954 -0.09166392901 0)
(-0.02269220684 -0.09028349727 0)
(-0.022650055 -0.08890292484 0)
(-0.01388524316 -0.08918015825 0)
(-0.01390526983 -0.08986977165 0)
(-0.01317912549 -0.08989225603 0)
(-0.01315916916 -0.08920283305 0)
(0 0 0)
(0 0 0)
(0 0 0)
(0 0 0)
(0 0 0)
(0 0 0)
(0 0 0)
(0 0 0)
(0 0 0)
(0 0 0)
(0 0 0)
(0 0 0)
(0 0 0)
(0 0 0)
(-0.001722900436 -0.002803968028 9.492406861e-15)
(-0.001947068118 -0.003085897477 1.072752998e-14)
(-0.00208057004 -0.003209167158 1.146305273e-14)
(-0.008399681735 -0.01416980146 5.073719223e-14)
(-0.008129979886 -0.01409234332 4.909961326e-14)
(-0.01213705388 -0.02205324528 7.693845561e-14)
(-0.01245982884 -0.02203413876 7.89923682e-14)
(-0.02469027084 -0.05101446637 1.836031327e-13)
(-0.02429873148 -0.05156757458 1.80577775e-13)
(-0.02752720274 -0.0619079803 2.169930902e-13)
(-0.02790654544 -0.0611154469 2.201711036e-13)
(-0.03244699828 -0.08702148397 3.139433158e-13)
(-0.03220878586 -0.08863199787 3.110983693e-13)
(-0.03185820275 -0.09491649368 3.331085408e-13)
(-0.03201963001 -0.09301226558 3.35509398e-13)
(-0.02560059064 -0.09989408851 0)
(-0.02568929441 -0.1026562482 0)
(-0.02274850868 -0.1027506883 0)
(-0.0227041671 -0.1013699293 0)
(-0.02265980491 -0.09998852867 0)
(-0.01383757605 -0.100271845 0)
(-0.01388193824 -0.1016532456 0)
(-0.01241160954 -0.1017004636 0)
(-0.01238941814 -0.1010094425 0)
(-0.01236724735 -0.100319063 0)
(-0.0131024117 -0.100295454 0)
(0 0 0)
(0 0 0)
(0 0 0)
(0 0 0)
(0 0 0)
(0 0 0)
(0 0 0)
(0 0 0)
(0 0 0)
(0 0 0)
(0 0 0)
(0 0 0)
(0 0 0)
(0 0 0)
(-0.0004023533621 -0.0007236567822 2.220446049e-15)
(-0.0007301064818 -0.001281878907 4.024558464e-15)
(-0.001084755302 -0.001858095256 5.981326545e-15)
(-0.006228964789 -0.01167640421 3.763656053e-14)
(-0.005321334945 -0.01022862871 3.216871214e-14)
(-0.008674105191 -0.0174840341 5.503930645e-14)
(-0.009813448019 -0.01928676506 6.222800053e-14)
(-0.02129585222 -0.04887449905 1.58206781e-13)
(-0.01974036722 -0.04647753809 1.467437283e-13)
(-0.02294719722 -0.0572320307 1.808553307e-13)
(-0.02453014752 -0.05963716078 1.932343174e-13)
(-0.02995090806 -0.08889112961 2.884498196e-13)
(-0.02863456294 -0.08713756506 2.757793993e-13)
(-0.02893600461 -0.0951813263 3.012451399e-13)
(-0.03006041697 -0.09647234393 3.130551374e-13)
(-0.0256542804 -0.1097547169 3.556877015e-13)
(-0.0252837743 -0.1106441499 3.498035195e-13)
(-0.02289055382 -0.1128436613 3.565203688e-13)
(-0.02299981002 -0.110972844 3.593653153e-13)
(-0.01419243233 -0.1113217668 0)
(-0.01428115671 -0.1140845681 0)
(-0.01134043514 -0.1141790062 0)
(-0.01125171077 -0.1114162049 0)
(-0.01272210363 -0.1113689849 0)
(0 0 0)
(0 0 0)
(0 0 0)
(0 0 0)
(0 0 0)
(0 0 0)
(0 0 0)
(0 0 0)
(0 0 0)
(0 0 0)
(0 0 0)
(0 0 0)
(0 0 0)
(0 0 0)
(0 0 0)
(0 0 0)
(-9.882300257e-06 -1.861746926e-05 5.551115123e-17)
(-0.0023663483 -0.004889758976 1.432187702e-14)
(-0.001485194435 -0.003140513148 8.992806499e-15)
(-0.003456207497 -0.007673714944 2.199629368e-14)
(-0.004748609867 -0.01029870312 3.019806627e-14)
(-0.01386901887 -0.0352085882 1.034589081e-13)
(-0.01167900986 -0.0303878957 8.726352974e-14)
(-0.014469744 -0.03991086117 1.146999162e-13)
(-0.0168190172 -0.04524827947 1.330602295e-13)
(-0.02298021137 -0.07542566014 2.221556272e-13)
(-0.02060749338 -0.06938740608 1.997152443e-13)
(-0.02156560589 -0.07844939997 2.258471188e-13)
(-0.02380873877 -0.0844204161 2.486899575e-13)
(-0.02238451013 -0.1051703296 3.096828349e-13)
(-0.02079298344 -0.1001962633 2.883943084e-13)
(-0.01944696833 -0.1052959904 3.029521078e-13)
(-0.02078475918 -0.1097549879 3.230332668e-13)
(-0.01385942594 -0.1173714308 3.448352714e-13)
(-0.01318480865 -0.1143863801 3.285705041e-13)
(-0.01062572205 -0.115635119 3.319428066e-13)
(-0.01113823503 -0.1183376868 3.4741654e-13)
(0 0 0)
(0 0 0)
(0 0 0)
(0 0 0)
(0 0 0)
(0 0 0)
(0 0 0)
(0 0 0)
(0 0 0)
(0 0 0)
(0 0 0)
(0 0 0)
(0 0 0)
(0 0 0)
(0 0 0)
(0 0 0)
(0 0 0)
(-8.675899418e-06 -1.958443425e-05 5.551115123e-17)
(0 0 0)
(-8.934397564e-05 -0.0002165716546 5.689893001e-16)
(-0.0005280752943 -0.001253575713 3.372302437e-15)
(-0.00534143561 -0.01492993776 4.014844013e-14)
(-0.003558543412 -0.01017621823 2.679800826e-14)
(-0.00530545502 -0.01611830926 4.246603069e-14)
(-0.007408128118 -0.02198366219 5.914713164e-14)
(-0.01276867125 -0.04644048144 1.251221349e-13)
(-0.01016570185 -0.03792908732 1.000588501e-13)
(-0.01128580009 -0.04557439706 1.202510314e-13)
(-0.01390525918 -0.05470012674 1.474098621e-13)
(-0.01461811633 -0.07639883224 2.059186155e-13)
(-0.01231412792 -0.06621437603 1.747491041e-13)
(-0.01184942359 -0.07173655969 1.892930257e-13)
(-0.01395866424 -0.08205885336 2.211286709e-13)
(-0.009828351478 -0.09315237127 2.507716257e-13)
(-0.00843657919 -0.08275025546 2.181865799e-13)
(-0.006802783909 -0.08441125606 2.224886941e-13)
(-0.007934091837 -0.09480584334 2.551014955e-13)
(0 0 0)
(0 0 0)
(0 0 0)
(0 0 0)
(0 0 0)
(0 0 0)
(0 0 0)
(0 0 0)
(0 0 0)
(0 0 0)
(0 0 0)
(0 0 0)
(0 0 0)
(0 0 0)
(0 0 0)
(0 0 0)
(0 0 0)
(0 0 0)
(0 0 0)
(0 0 0)
(0 0 0)
(-0.0002292659704 -0.0006987778068 1.734723476e-15)
(0 0 0)
(-0.0001666558149 -0.0005518309052 1.346145417e-15)
(-0.0008264964504 -0.002682398894 6.661338148e-15)
(-0.003533236469 -0.01418910076 3.523570324e-14)
(-0.001968067062 -0.008085515935 1.96925809e-14)
(-0.002654073816 -0.01184604693 2.885192085e-14)
(-0.004380311636 -0.01909097027 4.740652315e-14)
(-0.005769896401 -0.03380961226 8.398837181e-14)
(-0.003962582933 -0.02386901473 5.81618087e-14)
(-0.004030421704 -0.02749363081 6.700195954e-14)
(-0.005747633956 -0.03807739993 9.45910017e-14)
(-0.004286271991 -0.04698897677 1.166844399e-13)
(-0.003093320415 -0.03520754781 8.576472865e-14)
(-0.00247963303 -0.03641870037 8.870681967e-14)
(-0.003438389973 -0.04837182551 1.200983757e-13)
(0 0 0)
(0 0 0)
(0 0 0)
(0 0 0)
(0 0 0)
(0 0 0)
(0 0 0)
(0 0 0)
(0 0 0)
(0 0 0)
(0 0 0)
(0 0 0)
(0 0 0)
(0 0 0)
(0 0 0)
(0 0 0)
(0 0 0)
(0 0 0)
(0 0 0)
(0 0 0)
(0 0 0)
(0 0 0)
(0 0 0)
(0 0 0)
(0 0 0)
(0 0 0)
(0 0 0)
(0 0 0)
(-2.577151103e-05 -0.0001224768247 2.91433544e-16)
(-0.0004621062775 -0.002996052897 6.911138328e-15)
(-5.199166308e-05 -0.0003439157212 7.771561172e-16)
(-0.0001135541336 -0.000855651387 1.942890293e-15)
(-0.0005853271499 -0.0043178759 9.950373858e-15)
(-0.0006018569169 -0.007578914475 1.748601264e-14)
(-0.0001943003239 -0.002512629073 5.689893001e-15)
(-0.0001665600838 -0.002830933366 6.411537967e-15)
(-0.0004932344547 -0.008136368649 1.874889133e-14)
(0 0 0)
(0 0 0)
(0 0 0)
(0 0 0)
(0 0 0)
(0 0 0)
(0 0 0)
(0 0 0)
(0 0 0)
(0 0 0)
(0 0 0)
(0 0 0)
(0 0 0)
(0 0 0)
(0 0 0)
(0 0 0)
(0 0 0)
(0 0 0)
(0 0 0)
(0 0 0)
(0 0 0)
(0 0 0)
(0 0 0)
(0 0 0)
(0 0 0)
(0 0 0)
(0 0 0)
(0 0 0)
(0 0 0)
(0 0 0)
(0 0 0)
(0 0 0)
(0 0 0)
(0 0 0)
(0 0 0)
(0 0 0)
(0 0 0)
(0 0 0)
(0 0 0)
(0 0 0)
(0 0 0)
(0 0 0)
(0 0 0)
(0 0 0)
(0 0 0)
(0 0 0)
(0 0 0)
(0 0 0)
(0 0 0)
(0 0 0)
(0 0 0)
(0 0 0)
(0 0 0)
(0 0 0)
(0 0 0)
(0 0 0)
(0 0 0)
(0 0 0)
(0 0 0)
(0 0 0)
(0 0 0)
(0 0 0)
(0 0 0)
(0 0 0)
(0 0 0)
(0 0 0)
(0 0 0)
(0 0 0)
(0 0 0)
(0 0 0)
(0 0 0)
(0 0 0)
(0 0 0)
(0 0 0)
(0 0 0)
(0 0 0)
(0 0 0)
(0 0 0)
(0 0 0)
(0 0 0)
(0 0 0)
(0 0 0)
(0 0 0)
(0 0 0)
(0 0 0)
(0 0 0)
(0 0 0)
(0 0 0)
(0 0 0)
(0 0 0)
(0 0 0)
(0 0 0)
(0 0 0)
(0 0 0)
(0 0 0)
(0 0 0)
(0 0 0)
(0 0 0)
(0 0 0)
(0 0 0)
(0 0 0)
(0 0 0)
(0 0 0)
(0 0 0)
(0 0 0)
(0 0 0)
(0 0 0)
(0 0 0)
(0 0 0)
(0 0 0)
(0 0 0)
(0 0 0)
(0 0 0)
(0 0 0)
(0 0 0)
(0 0 0)
(0 0 0)
(0 0 0)
(0 0 0)
(0 0 0)
(0 0 0)
(0 0 0)
(0 0 0)
(0 0 0)
(0 0 0)
(0 0 0)
(0 0 0)
(0 0 0)
(0 0 0)
(0 0 0)
(0 0 0)
(0 0 0)
(0 0 0)
(0 0 0)
(0 0 0)
(0 0 0)
(0 0 0)
(0 0 0)
(0 0 0)
(0 0 0)
(0 0 0)
(0 0 0)
(0 0 0)
(0 0 0)
(0 0 0)
(0 0 0)
(0 0 0)
(0 0 0)
(0 0 0)
(0 0 0)
(0 0 0)
(0 0 0)
(0 0 0)
(0 0 0)
(0 0 0)
(0 0 0)
(0 0 0)
(0 0 0)
(0 0 0)
(0 0 0)
(0 0 0)
(0 0 0)
(0 0 0)
(0 0 0)
(0 0 0)
(0 0 0)
(0 0 0)
(0 0 0)
(0 0 0)
(0 0 0)
(0 0 0)
(0 0 0)
(0 0 0)
(0 0 0)
(0 0 0)
(0 0 0)
(0 0 0)
(0 0 0)
(0 0 0)
(0 0 0)
(0 0 0)
(0 0 0)
(0 0 0)
(0 0 0)
(0 0 0)
(0 0 0)
(0 0 0)
(0 0 0)
(0 0 0)
(0 0 0)
(0 0 0)
(0 0 0)
(0 0 0)
(0 0 0)
(0 0 0)
(0 0 0)
(0 0 0)
(0 0 0)
(0 0 0)
(0 0 0)
(0 0 0)
(0 0 0)
(0 0 0)
(0 0 0)
(0 0 0)
(0 0 0)
(0 0 0)
(0 0 0)
(0 0 0)
(0 0 0)
(0 0 0)
(0 0 0)
(0 0 0)
(0 0 0)
(0 0 0)
(0 0 0)
(0 0 0)
(0 0 0)
(0 0 0)
(0 0 0)
(0 0 0)
(0 0 0)
(0 0 0)
(0 0 0)
(0 0 0)
(0 0 0)
(0 0 0)
(0 0 0)
(0 0 0)
(0 0 0)
(0 0 0)
(0 0 0)
(0 0 0)
(0 0 0)
(0 0 0)
(0 0 0)
(0 0 0)
(0 0 0)
(0 0 0)
(0 0 0)
(0 0 0)
(0 0 0)
(0 0 0)
(0 0 0)
(0 0 0)
(0 0 0)
(0 0 0)
(0 0 0)
(0 0 0)
(0 0 0)
(0 0 0)
(0 0 0)
(0 0 0)
(0 0 0)
(0 0 0)
(0 0 0)
(0 0 0)
(0 0 0)
(0 0 0)
(0 0 0)
(0 0 0)
(0 0 0)
(0 0 0)
(0 0 0)
(0 0 0)
(0 0 0)
(0 0 0)
(0 0 0)
(0 0 0)
(0 0 0)
(0 0 0)
(0 0 0)
(0 0 0)
(0 0 0)
(0 0 0)
(0 0 0)
(0 0 0)
(0 0 0)
(0 0 0)
(0 0 0)
(0 0 0)
(0 0 0)
(0 0 0)
(0 0 0)
(0 0 0)
(0 0 0)
(0 0 0)
(0 0 0)
(0 0 0)
(0 0 0)
(0 0 0)
(0 0 0)
(0 0 0)
(0 0 0)
(0 0 0)
(0 0 0)
(0 0 0)
(0 0 0)
(0 0 0)
(0 0 0)
(0 0 0)
(0 0 0)
(0 0 0)
(0 0 0)
(0 0 0)
(0 0 0)
(0 0 0)
(0 0 0)
(0 0 0)
(0 0 0)
(0 0 0)
(0 0 0)
(0 0 0)
(0 0 0)
(0 0 0)
(0 0 0)
(0 0 0)
(0 0 0)
(0 0 0)
(0 0 0)
(0 0 0)
(0 0 0)
(0 0 0)
(0 0 0)
(0 0 0)
(0 0 0)
(0 0 0)
(0 0 0)
(0 0 0)
(0 0 0)
(0 0 0)
(0 0 0)
(0 0 0)
(0 0 0)
(0 0 0)
(0 0 0)
(0 0 0)
(0 0 0)
(0 0 0)
(0 0 0)
(0 0 0)
(0 0 0)
(0 0 0)
(0 0 0)
(0 0 0)
(0 0 0)
(0 0 0)
(0 0 0)
(0 0 0)
(0 0 0)
(0 0 0)
(0 0 0)
(0 0 0)
(0 0 0)
(0 0 0)
(0 0 0)
(0 0 0)
(0 0 0)
(0 0 0)
(0 0 0)
(0 0 0)
(0 0 0)
(0 0 0)
(0 0 0)
(0 0 0)
(0 0 0)
(0 0 0)
(0 0 0)
(0 0 0)
(0 0 0)
(0 0 0)
(0 0 0)
(0 0 0)
(0 0 0)
(0 0 0)
(0 0 0)
(0 0 0)
(0 0 0)
(0 0 0)
(0 0 0)
(0 0 0)
(0 0 0)
(0 0 0)
(0 0 0)
(0 0 0)
(0 0 0)
(0 0 0)
(0 0 0)
(0 0 0)
(0 0 0)
(0 0 0)
(0 0 0)
(0 0 0)
(0 0 0)
(0 0 0)
(0 0 0)
(0 0 0)
(0 0 0)
(0 0 0)
(0 0 0)
(0 0 0)
(0 0 0)
(0 0 0)
(0 0 0)
(0 0 0)
(0 0 0)
(0 0 0)
(0 0 0)
(0 0 0)
(0 0 0)
(0 0 0)
(0 0 0)
(0 0 0)
(0 0 0)
(0 0 0)
(0 0 0)
(0 0 0)
(0 0 0)
(0 0 0)
(0 0 0)
(0 0 0)
(0 0 0)
(0 0 0)
(0 0 0)
(0 0 0)
(0 0 0)
(0 0 0)
(0 0 0)
(0 0 0)
(0 0 0)
(0 0 0)
(0 0 0)
(0 0 0)
(0 0 0)
(0 0 0)
(0 0 0)
(0 0 0)
(0 0 0)
(0 0 0)
(0 0 0)
(0 0 0)
(0 0 0)
(0 0 0)
(0 0 0)
(0 0 0)
(0 0 0)
(0 0 0)
(0 0 0)
(0 0 0)
(0 0 0)
(0 0 0)
(0 0 0)
(0 0 0)
(0 0 0)
(0 0 0)
(0 0 0)
(0 0 0)
(0 0 0)
(0 0 0)
(0 0 0)
(0 0 0)
(0 0 0)
(0 0 0)
(0 0 0)
(0 0 0)
(0 0 0)
(0 0 0)
(0 0 0)
(0 0 0)
(0 0 0)
(0 0 0)
(0 0 0)
(0 0 0)
(0 0 0)
(0 0 0)
(0 0 0)
(0 0 0)
(0 0 0)
(0 0 0)
(0 0 0)
(0 0 0)
(0 0 0)
(0 0 0)
(0 0 0)
(0 0 0)
(0 0 0)
(0 0 0)
(0 0 0)
(0 0 0)
(0 0 0)
(0 0 0)
(0 0 0)
(0 0 0)
(0 0 0)
(0 0 0)
(0 0 0)
(0 0 0)
(0 0 0)
(0 0 0)
(0 0 0)
(0 0 0)
(0 0 0)
(0 0 0)
(0 0 0)
(0 0 0)
(0 0 0)
(0 0 0)
(0 0 0)
(0 0 0)
(0 0 0)
(0 0 0)
(0 0 0)
(0 0 0)
(0 0 0)
(0 0 0)
(0 0 0)
(0 0 0)
(0 0 0)
(0 0 0)
(0 0 0)
(0 0 0)
(0 0 0)
(0 0 0)
(0 0 0)
(0 0 0)
(0 0 0)
(0 0 0)
(0 0 0)
(0 0 0)
(0 0 0)
(0 0 0)
(0 0 0)
(0 0 0)
(0 0 0)
(0 0 0)
(0 0 0)
(0 0 0)
(0 0 0)
(0 0 0)
(0 0 0)
(0 0 0)
(0 0 0)
(0 0 0)
(0 0 0)
(0 0 0)
(0 0 0)
(0 0 0)
(0 0 0)
(0 0 0)
(0 0 0)
(0 0 0)
(0 0 0)
(0 0 0)
(0 0 0)
(0 0 0)
(0 0 0)
(0 0 0)
(0 0 0)
(0 0 0)
(0 0 0)
(0 0 0)
(0 0 0)
(0 0 0)
(0 0 0)
(0 0 0)
(0 0 0)
(0 0 0)
(0 0 0)
(0 0 0)
(0 0 0)
(0 0 0)
(0 0 0)
(0 0 0)
(0 0 0)
(0 0 0)
(0 0 0)
(0 0 0)
(0 0 0)
(0 0 0)
(0 0 0)
(0 0 0)
(0 0 0)
(0 0 0)
(0 0 0)
(0 0 0)
(0 0 0)
(0 0 0)
(0 0 0)
(0 0 0)
(0 0 0)
(0 0 0)
(0 0 0)
(0 0 0)
(0 0 0)
(0 0 0)
(0 0 0)
(0 0 0)
(0 0 0)
(0 0 0)
(0 0 0)
(0 0 0)
(0 0 0)
(0 0 0)
(0 0 0)
(0 0 0)
(0 0 0)
(0 0 0)
(0 0 0)
(0 0 0)
(0 0 0)
(0 0 0)
(0 0 0)
(0 0 0)
(0 0 0)
(0 0 0)
(0 0 0)
(0 0 0)
(0 0 0)
(0 0 0)
(0 0 0)
(0 0 0)
(0 0 0)
(0 0 0)
(0 0 0)
(0 0 0)
(0 0 0)
(0 0 0)
(0 0 0)
(0 0 0)
(-0.01313925021 -0.08851257391 0)
(-0.01386526005 -0.08848990116 0)
(-0.01308022031 -0.09960443288 0)
(-0.01381538466 -0.09958082387 0)
(-0.02260839585 -0.08752169431 0)
(-0.02256648004 -0.08614047202 0)
(-0.02549715708 -0.08604725569 0)
(-0.01384538671 -0.08779906251 0)
(-0.01529983835 -0.08775344624 0)
(-0.01534047092 -0.08913470974 0)
(-0.01372538267 -0.08365623885 0)
(-0.02261544273 -0.09860712803 0)
(-0.02278955764 -0.09725891786 0)
(-0.02572586292 -0.09716096061 0)
(-0.01379321387 -0.09889044436 0)
(-0.01526360673 -0.09884322429 0)
(-0.01530796892 -0.1002246249 0)
(-0.01538108082 -0.09051526746 0)
(-0.01392559642 -0.09056072421 0)
(-0.01405002556 -0.09470334153 0)
(-0.01332350243 -0.09472603076 0)
(-0.01330230024 -0.09403581282 0)
(-0.01402882131 -0.09401305944 0)
(-0.008229338852 -0.09488532104 0)
(-0.008196343787 -0.09454308287 0)
(-0.008572383409 -0.09453023603 0)
(-0.00859753904 -0.09487356092 0)
(-0.008033466372 -0.08936621912 0)
(-0.008424396794 -0.08935205911 0)
(-0.008441842723 -0.08969531046 0)
(-0.008056558996 -0.08970890375 0)
(-0.01267774144 -0.1099875842 0)
(-0.01414807015 -0.1099403662 0)
(-0.008017970071 -0.08902187752 0)
(-0.008412299236 -0.08900735146 0)
(-0.0137453802 -0.08434694506 0)
(-0.01301937242 -0.08436968197 0)
(-0.007647528196 -0.08937983343 0)
(-0.007624900769 -0.08903623467 0)
(-0.007957260442 -0.1004568313 0)
(-0.007936237414 -0.09975999215 0)
(-0.008300519333 -0.09975022046 0)
(-0.008667229276 -0.09974165536 0)
(-0.008690978809 -0.1004351956 0)
(-0.008625505421 -0.09521641018 0)
(-0.008263668479 -0.09522751636 0)
(-0.01407147821 -0.09539335873 0)
(-0.01334488679 -0.0954159217 0)
(-0.007947348995 -0.09523619738 0)
(-0.00791046756 -0.09489434092 0)
(-0.007223873369 -0.1004803832 0)
(-0.007207412235 -0.09978339758 0)
(-0.007573835432 -0.09976970346 0)
(-0.007677559461 -0.08972178142 0)
(-0.007871851229 -0.09455286131 0)
(-0.004331188332 -0.09242263801 0)
(-0.003955759602 -0.09243610751 0)
(-0.003932235452 -0.09209478552 0)
(-0.004304697852 -0.09208134705 0)
(-0.008247809997 -0.0921132968 0)
(-0.008587549845 -0.09210450594 0)
(-0.008600543606 -0.09244912058 0)
(-0.008266884693 -0.09245726657 0)
(-0.01107082261 -0.09203150224 0)
(-0.01109118245 -0.09272149031 0)
(-0.01037259476 -0.09274328242 0)
(-0.01035255779 -0.09205334821 0)
(-0.01115404173 -0.09479287461 0)
(-0.01043532572 -0.09481467084 0)
(-0.01042412024 -0.09446974186 0)
(-0.01041368676 -0.0941248523 0)
(-0.01113271328 -0.09410272496 0)
(-0.01098901299 -0.08927002038 0)
(-0.01100922184 -0.08995930679 0)
(-0.01028903217 -0.08998121458 0)
(-0.01026825204 -0.08929213919 0)
(-0.01033168878 -0.09136350495 0)
(-0.01105040067 -0.09134158039 0)
(-0.008222927497 -0.09177047696 0)
(-0.008569257451 -0.09176089641 0)
(-0.008047158881 -0.08659319223 0)
(-0.008400209327 -0.08658288204 0)
(-0.008413991573 -0.08692804942 0)
(-0.008064910908 -0.08693797521 0)
(-0.01090869379 -0.08650694919 0)
(-0.01092895828 -0.08719796796 0)
(-0.01020883689 -0.08722000201 0)
(-0.01018844614 -0.08652905151 0)
(-0.01024827099 -0.08860194627 0)
(-0.01096903193 -0.08857982746 0)
(-0.01084787916 -0.08443723338 0)
(-0.01012648278 -0.08445956528 0)
(-0.01016781317 -0.08583855839 0)
(-0.01088838369 -0.08581650992 0)
(-0.008026964121 -0.08624874461 0)
(-0.008384700898 -0.08623796279 0)
(-0.00769702161 -0.08660321618 0)
(-0.007670525705 -0.08625935628 0)
(-0.007721059889 -0.08694734769 0)
(-0.01117574278 -0.09548262693 0)
(-0.01045772431 -0.09550414385 0)
(-0.01044626836 -0.09515941559 0)
(-0.01108940442 -0.09763812392 0)
(-0.01036739516 -0.09763337136 0)
(-0.010446978 -0.09724551287 0)
(-0.01048220639 -0.09688849511 0)
(-0.01120118792 -0.09687696681 0)
(-0.008195164978 -0.0977001757 0)
(-0.008317987111 -0.09730855219 0)
(-0.008660543317 -0.09730346033 0)
(-0.008546473044 -0.09770340932 0)
(-0.008015027105 -0.09761443597 0)
(-0.008096515936 -0.09729992868 0)
(-0.004594944217 -0.09792697128 0)
(-0.004578319792 -0.09758350087 0)
(-0.004925236879 -0.09758000312 0)
(-0.004942079688 -0.09792327383 0)
(-0.004429703019 -0.09518750131 0)
(-0.004787528396 -0.09517947844 0)
(-0.004803234371 -0.09552374907 0)
(-0.004446671621 -0.09553108912 0)
(-0.007912022978 -0.09212157535 0)
(-0.007879662644 -0.09177970216 0)
(-0.004668331996 -0.09204680423 0)
(-0.004770541321 -0.09232811542 0)
(-0.004413536437 -0.09484388774 0)
(-0.004773950764 -0.09483488254 0)
(-0.004686894661 -0.09276722978 0)
(-0.004337902154 -0.09277150069 0)
(-0.007941345231 -0.09246444529 0)
(-0.003968811057 -0.09278251869 0)
(-0.004075560103 -0.09519399291 0)
(-0.004057106132 -0.09485135199 0)
(-0.02292595743 -0.1082762909 0)
(-0.02579606588 -0.107908178 3.586575481e-13)
(-0.01410372857 -0.1085596072 0)
(-0.01557412143 -0.1085123871 0)
(-0.01704451429 -0.108465167 0)
(-0.01713321806 -0.1112273267 0)
(-0.0153523311 -0.1016060256 0)
(-0.01401500419 -0.1057968059 0)
(-0.01254467549 -0.1058440239 0)
(-0.0125003133 -0.1044626233 0)
(-0.01397064201 -0.1044154053 0)
(-0.008133541811 -0.1059856827 0)
(-0.008089179625 -0.1046042821 0)
(-0.009559527576 -0.1045570635 0)
(-0.009603889762 -0.1059384641 0)
(-0.008713447456 -0.1011268501 0)
(-0.007978724464 -0.1011498026 0)
(-0.008196657322 -0.0935026461 0)
(-0.008566160462 -0.09349045877 0)
(-0.008551736014 -0.09383929377 0)
(-0.008167147529 -0.09385273629 0)
(-0.009672044729 -0.09345475181 0)
(-0.009680091574 -0.0938013237 0)
(-0.009311611135 -0.09381315705 0)
(-0.009307598233 -0.0934661987 0)
(-0.009713089053 -0.09483683705 0)
(-0.009345953948 -0.09484856297 0)
(-0.009331165721 -0.09450407017 0)
(-0.009700604464 -0.09449207759 0)
(-0.007244009244 -0.1011733972 0)
(-0.006663168195 -0.1060329022 0)
(-0.006618806009 -0.1046515015 0)
(-0.007963983557 -0.08521798358 0)
(-0.007589268196 -0.08523046676 0)
(-0.00756345329 -0.08488761263 0)
(-0.007943834597 -0.08487456213 0)
(-0.008059937645 -0.08797811202 0)
(-0.008034430418 -0.08832723871 0)
(-0.007656752613 -0.08834007393 0)
(-0.007709364075 -0.08798814998 0)
(-0.008261508881 -0.09809246827 0)
(-0.007786650026 -0.09817836847 0)
(-0.01082967989 -0.09829452355 0)
(-0.01009323231 -0.09831817377 0)
(-0.01014665834 -0.09799981482 0)
(-0.01089679032 -0.1003662851 0)
(-0.01016141288 -0.1003892587 0)
(-0.01013885712 -0.09969889157 0)
(-0.01087440644 -0.0996752702 0)
(-0.00972633534 -0.09518131513 0)
(-0.00936214343 -0.09519268962 0)
(-0.009765802845 -0.09621629956 0)
(-0.009410448761 -0.09622687641 0)
(-0.009395768252 -0.09588173788 0)
(-0.009753558418 -0.09587101857 0)
(-0.008367660996 -0.09625535464 0)
(-0.008335473246 -0.09591225557 0)
(-0.008683578184 -0.09590274648 0)
(-0.008708818581 -0.09624671093 0)
(-0.00409487178 -0.09553654206 0)
(-0.004543888941 -0.09724715354 0)
(-0.008062790953 -0.09626296146 0)
(-0.008026449648 -0.09592012424 0)
(-0.005935041355 -0.09653245341 0)
(-0.005909889976 -0.09619266092 0)
(-0.006251607305 -0.09617044716 0)
(-0.006361004587 -0.09644298522 0)
(-0.00501582063 -0.1005545038 0)
(-0.004994283684 -0.0998634617 0)
(-0.005731312427 -0.09983850827 0)
(-0.005751702236 -0.1005302295 0)
(-0.004989990539 -0.09825597687 0)
(-0.004642034686 -0.09826072832 0)
(-0.00814027614 -0.09073938422 0)
(-0.007780163087 -0.09075037081 0)
(-0.007745950828 -0.09040663025 0)
(-0.008111811176 -0.0903950095 0)
(-0.007800489779 -0.09388692662 0)
(-0.007767825204 -0.09359817962 0)
(-0.004278064682 -0.09098461288 0)
(-0.004177796405 -0.09070574424 0)
(-0.004201639966 -0.09142041238 0)
(-0.009638451113 -0.09207467528 0)
(-0.009648627942 -0.09241957307 0)
(-0.009294296324 -0.09242998863 0)
(-0.009284181596 -0.09208502461 0)
(-0.009304715228 -0.0931204244 0)
(-0.009663914891 -0.0931095956 0)
(-0.008243916997 -0.09315147208 0)
(-0.008588178651 -0.09314208641 0)
(-0.008505700189 -0.09072777747 0)
(-0.008527440542 -0.09107275351 0)
(-0.008168405404 -0.09108370549 0)
(-0.00959289252 -0.09069401957 0)
(-0.009604451773 -0.09103996484 0)
(-0.00924640908 -0.09105082072 0)
(-0.009233055362 -0.0907049973 0)
(-0.009272288885 -0.09174069575 0)
(-0.009627642969 -0.0917301189 0)
(-0.007984770248 -0.08556106341 0)
(-0.007615983894 -0.08557297081 0)
(-0.007740077343 -0.08763853497 0)
(-0.008076756679 -0.0876298424 0)
(-0.008724395293 -0.09659175645 0)
(-0.008389494644 -0.0965992358 0)
(-0.009773688399 -0.09656184898 0)
(-0.009419491285 -0.0965724529 0)
(-0.009641847108 -0.09765442358 0)
(-0.009276613614 -0.09766936405 0)
(-0.009369488499 -0.09727940877 0)
(-0.009728380003 -0.09726698417 0)
(-0.006065357503 -0.09787878713 0)
(-0.00601010022 -0.09755152246 0)
(-0.006421644141 -0.09752224921 0)
(-0.006582045827 -0.09780882091 0)
(-0.00629482135 -0.09687389565 0)
(-0.005948490899 -0.09687686074 0)
(-0.008096951934 -0.09660490528 0)
(-0.005843587584 -0.09514126097 0)
(-0.005950180427 -0.09541787122 0)
(-0.005524886772 -0.09550718945 0)
(-0.005502797599 -0.09516415145 0)
(-0.005572725078 -0.09654203352 0)
(-0.005553340528 -0.09619961517 0)
(-0.004504948665 -0.09656238656 0)
(-0.004484042832 -0.09621879674 0)
(-0.00483721915 -0.0962140061 0)
(-0.004855532382 -0.09655806455 0)
(-0.007813778642 -0.09109413052 0)
(-0.004454821795 -0.09146327862 0)
(-0.004372287768 -0.09380863938 0)
(-0.004735410186 -0.09379916184 0)
(-0.004747144736 -0.09414516571 0)
(-0.00438463827 -0.09415462347 0)
(-0.005475141619 -0.09482456784 0)
(-0.005736463841 -0.09486331899 0)
(-0.004362733124 -0.09346211591 0)
(-0.004729360647 -0.09345098434 0)
(-0.007931506184 -0.09315726578 0)
(-0.009547373077 -0.08931458293 0)
(-0.009557458958 -0.08965864869 0)
(-0.009193654079 -0.08967007497 0)
(-0.009182032438 -0.089326187 0)
(-0.00921963336 -0.09035904762 0)
(-0.00958068753 -0.09034796658 0)
(-0.00848376323 -0.09038267929 0)
(-0.008422238846 -0.08796686248 0)
(-0.008413676062 -0.08831422468 0)
(-0.009509683703 -0.08793296801 0)
(-0.009518150833 -0.08827862721 0)
(-0.009155819612 -0.08828994195 0)
(-0.009149209049 -0.08794409467 0)
(-0.009171470639 -0.08898130157 0)
(-0.009536300044 -0.08896977815 0)
(-0.007315153351 -0.0893907642 0)
(-0.007280830088 -0.08905036706 0)
(-0.007247842093 -0.08872514903 0)
(-0.007623273742 -0.08868997043 0)
(-0.008017091674 -0.08867552502 0)
(-0.00829964294 -0.0955695304 0)
(-0.007986694709 -0.09557758933 0)
(-0.008083447931 -0.09005140225 0)
(-0.007711207149 -0.09006374173 0)
(-0.00738693321 -0.09007312779 0)
(-0.007349529535 -0.08973160924 0)
(-0.00817091273 -0.09419938145 0)
(-0.007834334541 -0.09421282364 0)
(-0.004076370792 -0.09042363714 0)
(-0.003906480804 -0.08994500779 0)
(-0.009470435906 -0.08655082508 0)
(-0.009481080411 -0.0868962859 0)
(-0.009123420628 -0.08690706525 0)
(-0.009112519476 -0.08656161267 0)
(-0.009142021031 -0.08759826593 0)
(-0.009500641179 -0.08758739151 0)
(-0.008427022274 -0.08761981433 0)
(-0.008336329058 -0.08520570497 0)
(-0.008352307511 -0.08554926035 0)
(-0.009427360787 -0.08517150263 0)
(-0.009437962022 -0.08551561606 0)
(-0.009078062763 -0.08552666001 0)
(-0.009066693648 -0.08518263547 0)
(-0.009101171253 -0.08621623867 0)
(-0.009459663077 -0.08620536837 0)
(-0.007349361214 -0.08661296791 0)
(-0.007316867784 -0.08626975021 0)
(-0.007283984793 -0.08592680193 0)
(-0.007643244497 -0.08591584274 0)
(-0.008005905003 -0.08590458166 0)
(-0.008076708264 -0.08728333479 0)
(-0.007738523189 -0.08729213994 0)
(-0.007407980473 -0.08730012162 0)
(-0.007380652526 -0.08695635267 0)
(-0.008380277593 -0.09694822471 0)
(-0.008715457555 -0.0969414429 0)
(-0.009060636721 -0.09693202777 0)
(-0.009012405884 -0.09729216065 0)
(-0.008910100722 -0.09768646512 0)
(-0.006959908579 -0.09779514479 0)
(-0.006837018326 -0.09744384713 0)
(-0.007166157766 -0.0978311686 0)
(-0.008116980709 -0.09695218426 0)
(-0.004873913715 -0.09690064358 0)
(-0.004524636601 -0.09690505208 0)
(-0.005588025478 -0.0968856749 0)
(-0.005691807537 -0.09789315971 0)
(-0.005640429557 -0.09756429322 0)
(-0.007604693482 -0.09212919693 0)
(-0.007568315689 -0.09178822349 0)
(-0.007533158142 -0.09144624744 0)
(-0.00784694577 -0.09143732659 0)
(-0.008196066991 -0.09142746372 0)
(-0.004248552895 -0.09175244097 0)
(-0.004560723675 -0.09175057287 0)
(-0.004951056532 -0.09280460518 0)
(-0.005056399997 -0.09308331084 0)
(-0.004711328552 -0.09310788028 0)
(-0.004349061309 -0.09311758726 0)
(-0.008270858446 -0.09280300584 0)
(-0.007957087172 -0.09280903591 0)
(-0.007678737126 -0.09281065285 0)
(-0.007642184219 -0.0924712265 0)
(-0.004008292047 -0.09381872301 0)
(-0.00399530311 -0.09347365861 0)
(-0.007158428056 -0.08455687221 0)
(-0.007188513363 -0.08490010301 0)
(-0.006860499921 -0.08491044413 0)
(-0.006827779629 -0.08456736217 0)
(-0.007219277662 -0.08524247706 0)
(-0.006893114606 -0.08525243761 0)
(-0.007391748812 -0.08799488155 0)
(-0.007218575087 -0.08843699943 0)
(-0.00717041647 -0.08796358115 0)
(-0.009407662545 -0.09802611599 0)
(-0.009032163185 -0.09804138613 0)
(-0.009377718184 -0.09902967411 0)
(-0.009007422961 -0.09903899663 0)
(-0.008990927381 -0.09869333834 0)
(-0.00936323222 -0.09868459357 0)
(-0.007911949443 -0.09904848544 0)
(-0.007886056421 -0.09868899882 0)
(-0.00824486483 -0.0986973867 0)
(-0.008269750774 -0.09904791377 0)
(-0.008654752975 -0.09555915407 0)
(-0.009016446701 -0.09554798826 0)
(-0.009038360994 -0.09589238066 0)
(-0.009057332093 -0.09623712449 0)
(-0.005877343 -0.09585477584 0)
(-0.006138749519 -0.09589455193 0)
(-0.007571145893 -0.09904915353 0)
(-0.007584587829 -0.09866592396 0)
(-0.006461541061 -0.09911240525 0)
(-0.006463792788 -0.09875972213 0)
(-0.00684873664 -0.0987319454 0)
(-0.006838355004 -0.09909067011 0)
(-0.006602705866 -0.09817335691 0)
(-0.006206601743 -0.0981790123 0)
(-0.007461691657 -0.09075944207 0)
(-0.00742498351 -0.09041578167 0)
(-0.006998101211 -0.08627883095 0)
(-0.006962717976 -0.08593602719 0)
(-0.007033304558 -0.08662183317 0)
(-0.007251237898 -0.08558449155 0)
(-0.006927419273 -0.08559405568 0)
(-0.007421245069 -0.08764536985 0)
(-0.007138210753 -0.08764752259 0)
(-0.007103589346 -0.08730784152 0)
(-0.007068450161 -0.08696483724 0)
(-0.009068748599 -0.09658262475 0)
(-0.00598763998 -0.09721112972 0)
(-0.006344624135 -0.09720371191 0)
(-0.006682295759 -0.09718451833 0)
(-0.006556514536 -0.0969135983 0)
(-0.005537034199 -0.09585484999 0)
(-0.005177734746 -0.09586157141 0)
(-0.005164035493 -0.09551498836 0)
(-0.00514701397 -0.09517095266 0)
(-0.007497623449 -0.0911031274 0)
(-0.00512576416 -0.0944794517 0)
(-0.005105271439 -0.09413732584 0)
(-0.005447877434 -0.09411418436 0)
(-0.005553726054 -0.09438902013 0)
(-0.005078732577 -0.09379712831 0)
(-0.005340701006 -0.0938356018 0)
(-0.005134024799 -0.09482608095 0)
(-0.005159740783 -0.09335925478 0)
(-0.00771226486 -0.0931246779 0)
(-0.01086790482 -0.01652546714 6.869504965e-14)
(-0.007012391134 -0.01016777158 4.220235272e-14)
(-0.02297815884 -0.04088901298 1.707106678e-13)
(-0.01913516876 -0.03221888961 1.34336986e-13)
(-0.01897996281 -0.03296567606 1.331712518e-13)
(-0.02629657437 -0.04963176724 2.074729277e-13)
(-0.03142340205 -0.07278545613 3.04839487e-13)
(-0.03063250182 -0.06591111607 2.759736883e-13)
(-0.03082591797 -0.06833722574 2.772226892e-13)
(-0.03124389115 -0.07843281358 3.284594818e-13)
(-0.02816706229 -0.08519557642 3.563815909e-13)
(-0.02828506951 -0.0880348072 3.567840468e-13)
(-0.02541373929 -0.08328569701 0)
(-0.02248389636 -0.08337888656 0)
(-0.01955771065 -0.08347195866 0)
(-0.02102022605 -0.08342544115 0)
(-0.01225550305 -0.02102125952 7.746581154e-14)
(-0.008209066425 -0.01343262953 4.943268017e-14)
(-0.02452801696 -0.04914879976 1.818545314e-13)
(-0.02069597025 -0.03926538539 1.450922715e-13)
(-0.02088398605 -0.04085385874 1.468547506e-13)
(-0.01979239754 -0.03539762609 1.387223669e-13)
(-0.02777871757 -0.05899503222 2.185196468e-13)
(-0.03244695141 -0.08436106086 3.129163595e-13)
(-0.03184215044 -0.07697006576 2.854522174e-13)
(-0.03188615447 -0.07949517101 2.867428517e-13)
(-0.03103168293 -0.07080585576 2.785688347e-13)
(-0.03206145255 -0.0902670949 3.347738753e-13)
(-0.02855362049 -0.09671689949 3.5826897e-13)
(-0.02844375009 -0.09947943956 3.584077479e-13)
(-0.02840586174 -0.09088409577 3.572142582e-13)
(-0.0257551602 -0.09434125278 0)
(-0.02282133421 -0.0944264133 0)
(-0.02277778552 -0.09304434427 0)
(-0.01989115811 -0.09451922818 0)
(-0.01984794053 -0.09313746965 0)
(-0.02131238078 -0.09309089033 0)
(-0.02135579085 -0.09447264268 0)
(-0.01972168985 -0.08899613115 0)
(-0.021185296 -0.08894957862 0)
(-0.0212272533 -0.09033009307 0)
(-0.01976332634 -0.0903766559 0)
(-0.01396635525 -0.09194191942 0)
(-0.0132400246 -0.09196460246 0)
(-0.01321972686 -0.09127454817 0)
(-0.01394592712 -0.09125180509 0)
(-0.01177161074 -0.09131944716 0)
(-0.01179190642 -0.09200943729 0)
(-0.01171092678 -0.08924780032 0)
(-0.01173094315 -0.08993709291 0)
(-0.01079167063 -0.02067112501 6.841749389e-14)