/*--------------------------------*- C++ -*----------------------------------*\
| =========                 |                                                 |
| \\      /  F ield         | OpenFOAM: The Open Source CFD Toolbox           |
|  \\    /   O peration     | Version:  v2012                                 |
|   \\  /    A nd           | Website:  www.openfoam.com                      |
|    \\/     M anipulation  |                                                 |
\*---------------------------------------------------------------------------*/
FoamFile
{
    version     2.0;
    format      ascii;
    class       volVectorField;
    location    "2";
    object      U;
}
// * * * * * * * * * * * * * * * * * * * * * * * * * * * * * * * * * * * * * //

dimensions      [0 1 -1 0 0 0 0];


internalField   nonuniform List<vector> 
3259
(
(101.610526 -0.2383518075 7.649657695e-21)
(101.5325411 -0.7206456448 1.206433184e-19)
(101.3808979 -1.220986516 -2.430332894e-19)
(101.1312529 -1.776984831 -4.479626407e-22)
(100.7051827 -2.184874033 -1.925641798e-21)
(100.2237478 -2.831361547 0)
(99.61960244 -3.646257549 5.193417082e-20)
(98.72398829 -4.355986431 1.301240417e-18)
(97.60686434 -5.265339526 1.480658641e-18)
(96.22077009 -6.426453872 -2.050424659e-18)
(94.38929427 -8.177110233 1.590799208e-19)
(92.24142345 -10.22052957 0)
(102.0813683 -0.2564832987 0)
(102.0171422 -0.7767350579 0)
(101.8927873 -1.314196979 0)
(101.6874061 -1.907503464 0)
(101.3171839 -2.376587421 0)
(100.9338112 -3.079877802 0)
(100.4684656 -3.948538897 0)
(99.74672109 -4.701796409 4.502246781e-21)
(98.87159249 -5.646517388 4.74449196e-19)
(97.814011 -6.846339485 0)
(96.47744848 -8.674652947 -1.297732904e-19)
(95.13910381 -11.2283022 2.486109394e-19)
(102.5799997 -0.2672146459 0)
(102.530349 -0.8101435091 0)
(102.4355897 -1.369127997 0)
(102.276206 -1.975094419 0)
(101.9612916 -2.476949738 0)
(101.6820767 -3.19911904 0)
(101.3513548 -4.053451038 -1.113039797e-19)
(100.7929422 -4.846161955 9.48403893e-19)
(100.1289899 -5.779233266 0)
(99.37259132 -6.894657173 4.89749256e-19)
(98.57589096 -8.453438007 -2.066925348e-19)
(98.1765469 -10.87184197 1.54840691e-19)
(103.0927037 -0.2709698145 0)
(103.0566375 -0.8215913891 0)
(102.9894361 -1.387015168 0)
(102.8728747 -1.988209768 0)
(102.6093567 -2.502479444 0)
(102.4185003 -3.211426462 0)
(102.1940074 -4.016624086 0)
(101.7762529 -4.818484059 -4.048736766e-19)
(101.2689293 -5.71555629 -4.072806863e-19)
(100.7152418 -6.691441155 -1.568763347e-18)
(100.210978 -7.855594949 -5.021674968e-19)
(96.87597037 -8.764772224 7.435840001e-19)
(103.6067531 -0.2687330025 0)
(103.5822698 -0.8141560394 0)
(103.5379297 -1.372945685 0)
(103.4573367 -1.955246138 0)
(103.2399567 -2.465434377 0)
(103.1180608 -3.13824373 0)
(102.9699521 -3.875018056 0)
(102.6489084 -4.633172453 0)
(102.2371896 -5.469590467 1.242573509e-18)
(101.7568988 -6.295476401 1.503832951e-19)
(101.4623036 -7.181321793 0)
(93.09805904 -6.814773204 0)
(104.1112598 -0.2616671004 0)
(104.0960785 -0.7915963504 0)
(104.0693598 -1.333303493 0)
(104.0166933 -1.88607647 0)
(103.8371306 -2.378695934 0)
(103.7638388 -3.001769947 0)
(103.6627135 -3.660639321 0)
(103.3937254 -4.330975355 0)
(103.0081708 -5.064073982 0)
(102.5061661 -5.760360135 0)
(101.5372242 -6.398894654 5.63475272e-20)
(95.96573191 -6.657068989 -7.746036188e-19)
(104.5978337 -0.2509150987 0)
(104.5896644 -0.7576039676 0)
(104.575478 -1.274497733 0)
(104.5427192 -1.791225122 0)
(104.3914824 -2.256894513 0)
(104.3475678 -2.824101426 0)
(104.268279 -3.406552964 0)
(104.0177315 -3.985794505 0)
(103.6261505 -4.58480745 0)
(103.0921613 -5.157536297 -1.263241335e-20)
(99.94360329 -5.457097691 -2.404334692e-19)
(99.19429545 -6.009001807 5.096035069e-21)
(105.0604607 -0.2375802028 0)
(105.0571009 -0.715713563 0)
(105.0506974 -1.202596959 0)
(105.0304282 -1.680319543 0)
(104.8988482 -2.113548959 0)
(104.8682908 -2.623993653 0)
(104.7910472 -3.137872788 0)
(104.5382735 -3.631587373 0)
(104.1201145 -4.121402594 0)
(103.5448531 -4.572125227 0)
(99.60832865 -4.718442469 0)
(99.90405537 -5.187264999 0)
(105.4952421 -0.2226686409 0)
(105.494722 -0.6691373215 0)
(105.491967 -1.123040531 0)
(105.477761 -1.561198024 0)
(105.3588942 -1.959638554 0)
(105.3293797 -2.416051628 0)
(105.2398071 -2.868572408 0)
(104.9732724 -3.287779432 0)
(104.5192137 -3.691804784 0)
(103.8809175 -4.050291326 0)
(99.42345197 -4.118150333 0)
(100.199748 -4.513104816 0)
(105.9000735 -0.2070223922 0)
(105.9007633 -0.6205461385 0)
(105.8983664 -1.040349702 0)
(105.8850487 -1.439881302 0)
(105.7734851 -1.803398671 0)
(105.7362978 -2.210281125 0)
(105.6249908 -2.607112675 0)
(105.3386923 -2.96514244 0)
(104.8463561 -3.301901593 0)
(104.1333983 -3.590938331 0)
(99.29111803 -3.613989305 0)
(100.368488 -3.950391297 0)
(106.2743417 -0.1912973881 0)
(106.2749625 -0.5719839998 0)
(106.2704921 -0.9579786234 0)
(106.2541941 -1.320838468 0)
(106.1457264 -1.650684341 0)
(106.0951653 -2.012949806 0)
(105.9576159 -2.360020267 0)
(105.6475347 -2.668424865 0)
(105.1182022 -2.952208525 0)
(104.3232262 -3.187464125 0)
(99.2111727 -3.186950772 0)
(100.4676758 -3.475371331 0)
(106.6185763 -0.1759828169 0)
(106.6181585 -0.5249356535 0)
(106.6099029 -0.8784006455 0)
(106.5878999 -1.207201738 0)
(106.4793957 -1.505415298 0)
(106.411885 -1.827882303 0)
(106.2461632 -2.131981615 0)
(105.9108263 -2.399238082 0)
(105.346896 -2.640973503 0)
(104.4657234 -2.833876332 0)
(99.18000275 -2.823303198 0)
(100.5252793 -3.071830891 0)
(106.9340881 -0.1614300501 0)
(106.9319215 -0.4804402016 0)
(106.9187322 -0.8033106063 0)
(106.8892067 -1.101032975 0)
(106.7784009 -1.370085065 0)
(106.6919315 -1.65741761 0)
(106.4975612 -1.924769458 0)
(106.1372546 -2.157643635 0)
(105.5412875 -2.365640435 0)
(104.5725303 -2.524825775 0)
(99.19084512 -2.51246953 0)
(100.5566491 -2.727459075 0)
(107.2226997 -0.1478784755 0)
(107.2182877 -0.4391870026 0)
(107.1994502 -0.733803986 0)
(107.1612736 -1.00356906 0)
(107.0466014 -1.246099826 0)
(106.9402589 -1.502649984 0)
(106.717764 -1.738698872 0)
(106.3337044 -1.942719747 0)
(105.7079236 -2.123321556 0)
(104.65253 -2.255470827 0)
(99.2359957 -2.246191176 0)
(100.5706376 -2.432781013 0)
(107.4865715 -0.1354776488 0)
(107.4795863 -0.4015916246 0)
(107.454711 -0.6705232925 0)
(107.4072592 -0.9154592111 0)
(107.287619 -1.134147733 0)
(107.1612249 -1.363893766 0)
(106.9117377 -1.573339438 0)
(106.5056089 -1.753077369 0)
(105.8517728 -1.911198026 0)
(104.7125196 -2.021610794 0)
(99.30810658 -2.018048538 0)
(100.5725951 -2.180495273 0)
(107.7280783 -0.124309612 0)
(107.7183165 -0.3678666271 0)
(107.6872422 -0.6137796862 0)
(107.6302432 -0.8369370286 0)
(107.5048776 -1.034391093 0)
(107.3587233 -1.240934477 0)
(107.0837091 -1.427824225 0)
(106.6573276 -1.587092824 0)
(105.9767874 -1.726618935 0)
(104.7577461 -1.819553472 0)
(99.40075103 -1.822926113 0)
(100.5659705 -1.964838642 0)
(107.9496558 -0.1144106337 0)
(107.9370031 -0.3380880712 0)
(107.8997206 -0.56366506 0)
(107.8331367 -0.7679851049 0)
(107.7015231 -0.9466900456 0)
(107.5361787 -1.133283263 0)
(107.2372318 -1.301094602 0)
(106.7923671 -1.443125702 0)
(106.0861586 -1.567208219 0)
(104.7922652 -1.64611545 0)
(99.50848413 -1.656727367 0)
(100.5531391 -1.78126231 0)
(108.1538259 -0.1057847485 0)
(108.1382211 -0.3122398365 0)
(108.0948087 -0.5201270781 0)
(108.0187523 -0.7084125485 0)
(107.8804567 -0.8707302458 0)
(107.6966446 -1.040333865 0)
(107.3751986 -1.191832066 0)
(106.9136323 -1.319666189 0)
(106.1825385 -1.4308904 0)
(104.8192451 -1.498625873 0)
(99.62690425 -1.516239582 0)
(100.5357942 -1.626129105 0)
(108.3428279 -0.09842401337 0)
(108.3242615 -0.2902646919 0)
(108.2748517 -0.4830303323 0)
(108.1895264 -0.6580181613 0)
(108.0443368 -0.8061001687 0)
(107.842885 -0.9614038508 0)
(107.5003622 -1.098689938 0)
(107.023418 -1.215366302 0)
(106.2681646 -1.315874394 0)
(104.8411379 -1.3748133 0)
(99.75258217 -1.398924102 0)
(100.5151651 -1.496516468 0)
(108.5197759 -0.09229167066 0)
(108.4981945 -0.2720502329 0)
(108.4428799 -0.4521901008 0)
(108.3484931 -0.6163557802 0)
(108.1956604 -0.7523756467 0)
(107.9773802 -0.8957257822 0)
(107.6155228 -1.021258779 0)
(107.1236511 -1.128865249 0)
(106.3449669 -1.220586199 0)
(104.8598349 -1.272740895 0)
(99.8828562 -1.302737391 0)
(100.4921861 -1.390076513 0)
(108.6842466 -0.08742106401 0)
(108.6597875 -0.2576131611 0)
(108.5987598 -0.4274824232 0)
(108.4956222 -0.5837783282 0)
(108.3366899 -0.7090198312 0)
(108.1023411 -0.8426042857 0)
(107.7227893 -0.9598828994 0)
(107.2162777 -1.058823159 0)
(106.4146961 -1.143675074 0)
(104.8768265 -1.190786151 0)
(100.0156647 -1.226043276 0)
(100.467593 -1.304926062 0)
(108.8487867 -0.08361028818 0)
(108.8209648 -0.246572155 0)
(108.7539434 -0.4085788314 0)
(108.6410759 -0.5573515667 0)
(108.4704241 -0.6758770311 0)
(108.2197019 -0.802017049 0)
(107.8232428 -0.913249649 0)
(107.3030318 -1.004644203 0)
(106.4789087 -1.084102218 0)
(104.8933069 -1.127676742 0)
(100.1494193 -1.167614326 0)
(100.4419781 -1.239612258 0)
(108.9758022 -0.08147811667 0)
(108.9458859 -0.2400166354 0)
(108.8742879 -0.3968420665 0)
(108.7553851 -0.5442579441 0)
(108.5956004 -0.6521471182 0)
(108.3310366 -0.7731494923 0)
(107.9185515 -0.8804881298 0)
(107.3852474 -0.965555474 0)
(106.5389923 -1.041008751 0)
(104.9102758 -1.082425127 0)
(100.2829378 -1.126573827 0)
(100.4158091 -1.193053304 0)
(109.2169627 -0.07897322938 0)
(109.182398 -0.233799281 0)
(109.1018217 -0.3863512313 0)
(108.9657886 -0.5259617668 0)
(108.7118751 -0.6388785743 0)
(108.4327685 -0.7563746098 0)
(108.0061659 -0.8618249791 0)
(107.4640758 -0.9409294225 0)
(106.596211 -1.013613546 0)
(104.9286546 -1.054334679 0)
(100.4149863 -1.102386941 0)
(100.3894809 -1.164549959 0)
(92.08533144 -10.12774857 0)
(94.88779708 -11.08013853 0)
(93.88953441 -7.973201384 -1.357796665e-18)
(92.19073103 -9.858351494 1.141920128e-18)
(95.94191748 -8.619648064 1.11131461e-18)
(94.90733049 -10.80133788 0)
(92.50027678 -10.01036596 -1.574919479e-19)
(93.4407232 -10.6976087 5.014804088e-19)
(91.01508211 -12.05869776 6.752530567e-21)
(90.30623272 -11.29230924 -4.560015588e-21)
(98.0570617 -10.88850586 -3.507928818e-19)
(90.24830848 -11.23651767 -1.013839356e-18)
(89.58270222 -11.24394022 0)
(83.26875813 -10.57224087 1.386889324e-19)
(91.10217374 -12.11880678 0)
(93.62417036 -10.76504047 4.856040165e-19)
(89.82204628 -12.05668209 -2.337770953e-18)
(40.60707111 -5.972688628 -6.309021818e-19)
(89.62697299 -11.29704954 1.076143286e-18)
(89.74161373 -11.995449 -5.829061599e-19)
(81.31199215 -27.93126777 2.54296586e-19)
(90.84335081 -11.68933187 -5.580921087e-19)
(92.32206115 -11.2401325 5.704389327e-19)
(92.90052174 -11.49043069 3.913842444e-19)
(91.64303714 -10.87249378 0)
(92.14468614 -11.14969146 -1.703905378e-18)
(90.78283625 -11.62278794 2.198800241e-18)
(89.96638931 -10.92052537 2.271456464e-18)
(91.0271151 -10.49681281 1.844053546e-18)
(91.48508189 -10.77843943 5.997553012e-19)
(90.87809678 -10.4011022 6.204869109e-19)
(89.89273903 -10.87404241 -1.132469944e-18)
(89.51563163 -10.91951699 1.770707195e-18)
(89.59039835 -10.96253632 -2.391344749e-18)
(93.10874479 -11.55967175 -2.821651723e-19)
(93.7438016 -11.67846419 -6.841507512e-19)
(92.79185065 -12.93136001 -3.005557046e-18)
(92.83582256 -13.29398806 5.166360307e-18)
(86.88580281 -24.49914285 -2.490173957e-19)
(83.85367421 -26.4589267 -1.979473726e-19)
(90.09542472 -11.60414521 -1.150982678e-18)
(72.7373276 -25.71588435 1.316082908e-20)
(83.04764914 -26.56693279 1.890276503e-19)
(74.35613815 -25.92499891 -5.853440625e-19)
(90.14997921 -11.67911661 2.922323543e-18)
(82.40649024 -27.98448017 0)
(88.03272386 -27.61336372 6.855098979e-20)
(98.08395764 -8.562895964 0)
(97.65942355 -10.32576331 0)
(95.28062461 -10.83630811 0)
(96.36678006 -11.18501231 0)
(81.98707839 -9.302741305 -1.827052012e-18)
(80.81474569 -10.15050498 1.010490814e-18)
(90.86622626 -11.9303342 7.238667323e-21)
(92.13274057 -11.71540969 8.355671631e-21)
(92.42376641 -11.86543193 -8.804912293e-19)
(43.92240634 -6.348490854 5.074819905e-19)
(67.9103619 -11.00219657 0)
(89.24135105 -10.68036324 -1.136657882e-18)
(89.66728456 -11.10136043 0)
(92.47384309 -12.30049491 1.073571791e-17)
(93.84534627 -11.7444239 2.289897537e-19)
(94.27406532 -11.8633192 -9.062420083e-21)
(92.5309422 -11.91099675 0)
(92.89604158 -12.02016659 0)
(91.48518117 -12.33843804 1.001133147e-18)
(88.45300919 -27.38849199 1.972306441e-19)
(90.21459109 -12.31054376 -4.040168852e-18)
(55.52217063 -18.64130633 0)
(84.47070875 -20.09274999 -3.722845494e-19)
(87.00537687 -24.06337819 1.017431656e-18)
(88.32953123 -12.82676094 -1.487806083e-17)
(89.86986626 -11.46304252 1.101223385e-18)
(89.67946067 -11.95326962 -5.992126148e-18)
(91.7786794 -11.52207329 -9.576452339e-19)
(92.03696246 -11.6656511 -9.150742581e-19)
(90.89587911 -11.87116236 -9.90343688e-19)
(90.60794763 -11.48398715 0)
(91.45912719 -11.3209141 9.595206327e-19)
(91.69821837 -11.45973098 -3.551622661e-21)
(89.29659952 -10.74453136 -1.154834288e-18)
(89.7425086 -11.09577357 5.763334353e-19)
(91.62092607 -12.41494268 9.879539116e-19)
(93.03018831 -12.03754131 2.971712636e-21)
(93.36136548 -11.97953712 2.144634655e-18)
(59.2269834 -18.6662834 0)
(57.34534815 -18.77418578 0)
(90.32372038 -12.4322135 1.179283477e-18)
(60.67851294 -20.75020741 1.254298404e-18)
(65.67528661 -21.27937728 -2.062919654e-19)
(85.6725567 -25.81496295 -1.556116197e-19)
(89.95558349 -11.47986238 -1.117595996e-18)
(73.21882666 -26.17149415 5.772331222e-18)
(80.10507101 -26.66378445 -3.353335706e-20)
(61.17945075 -21.10041539 0)
(78.82392871 -26.55824291 -3.04684356e-21)
(89.77789072 -11.90586551 -3.572000331e-18)
(91.14662804 -11.12142836 4.837652703e-19)
(91.38022757 -11.26312848 1.929149759e-18)
(90.53079282 -11.44979065 -1.055106435e-18)
(90.17304573 -11.08334993 0)
(90.86428442 -10.9218562 1.475625982e-18)
(91.07426193 -11.06186372 -9.729707637e-19)
(88.37328857 -11.13632454 -6.270905377e-19)
(88.37841665 -11.09884966 0)
(89.5648916 -11.19241676 -1.040480237e-18)
(89.92869109 -12.13241715 1.474106168e-20)
(89.68742706 -11.3613023 -1.089992461e-18)
(88.45932913 -11.29310484 0)
(88.40160108 -11.19807318 -6.449354437e-19)
(89.69130602 -11.93368597 5.663150797e-19)
(90.57516243 -10.73299648 -2.023134053e-18)
(90.79455094 -10.86708621 0)
(90.14358489 -11.05145341 0)
(89.6784696 -10.70662961 1.111598577e-18)
(90.28533184 -10.52760042 -5.091965393e-19)
(90.50205164 -10.67599744 -3.485987636e-21)
(88.89936697 -10.93276738 1.237784078e-18)
(88.80821075 -10.88441758 2.457762877e-18)
(89.43675044 -10.86965871 -3.52212438e-18)
(89.65726679 -11.00409326 5.966949829e-19)
(89.04767981 -11.0052348 0)
(88.97970205 -10.97028829 1.246718092e-18)
(91.6617352 -12.53303195 -1.729285707e-18)
(92.66604026 -12.27223767 1.674842556e-18)
(92.76110041 -12.37304196 3.659373115e-18)
(30.5961946 -10.79871248 2.849432886e-17)
(90.10694564 -12.81552221 -3.137750443e-19)
(86.08838366 -25.59802213 0)
(67.07434891 -21.20244683 7.164710619e-19)
(69.80446649 -21.05277704 1.751915088e-18)
(88.91632001 -11.50968666 3.275990858e-18)
(88.89054927 -11.44076484 -1.940794752e-18)
(90.05400672 -11.54223057 2.275994739e-18)
(73.33882181 -25.93023048 -5.539357553e-19)
(68.61543392 -24.57320994 0)
(69.38413257 -24.58996254 0)
(76.33510525 -26.28025885 -4.347393606e-20)
(90.18377716 -11.75737531 -1.784047104e-18)
(89.02227515 -11.66334994 1.363905904e-18)
(88.97306498 -11.59038231 -1.315679741e-18)
(85.46728568 -28.18432786 4.207464352e-20)
(87.45226299 -10.51925848 -2.092242623e-18)
(87.47267495 -10.58130882 0)
(87.6817106 -10.96411815 0)
(89.59932779 -11.13792973 1.037578749e-18)
(88.48043575 -11.07960209 0)
(88.64887334 -11.06148458 0)
(93.35428168 -11.96144826 7.336796046e-21)
(93.20722027 -11.99649943 1.295075461e-18)
(82.87055451 -10.79353272 -1.398849818e-19)
(91.33366666 -12.26183353 1.007120702e-18)
(92.0697198 -12.20755863 1.417677288e-18)
(92.21393154 -12.26238272 1.415552731e-18)
(90.05773553 -12.22781787 -2.314740459e-18)
(56.28169258 -19.06573475 2.794176704e-18)
(55.58819064 -19.13115074 -8.136312722e-19)
(45.89841812 -2.369123096 0)
(54.36643076 -14.98329421 1.793789559e-19)
(59.23778794 -18.2215915 -5.84062669e-19)
(88.7150206 -11.40321263 0)
(88.57219752 -11.37715492 1.290039818e-18)
(89.77115361 -11.42460471 -1.103128825e-18)
(89.65956698 -11.93119811 5.590306559e-19)
(87.70073618 -10.84228615 0)
(87.81864028 -10.88578964 -7.026554041e-19)
(87.510267 -10.6725282 -1.414699462e-18)
(87.5878697 -10.7700875 0)
(89.10836455 -11.08071623 -1.265370613e-18)
(89.07445498 -11.04170456 1.281071029e-18)
(89.70348685 -11.04352914 -8.968929302e-19)
(88.02901583 -10.96652142 -7.35901331e-19)
(88.05461973 -10.97074338 0)
(87.914766 -10.91697594 2.107870794e-18)
(87.99309542 -10.94293333 2.133181923e-18)
(92.36542034 -12.30231781 -4.68858402e-19)
(92.56479856 -12.35552171 1.128565432e-19)
(91.89016132 -12.53392399 5.982647193e-20)
(60.19177181 -19.04432708 0)
(48.63948543 -16.04256145 0)
(45.24666827 -14.78726928 2.604059552e-18)
(49.71936452 -16.89109355 0)
(49.9839105 -16.65805616 0)
(59.02554751 -18.91525501 0)
(90.60675463 -12.59202077 8.13962528e-19)
(62.35039397 -20.84689199 0)
(71.30027265 -23.14246502 0)
(70.00846585 -23.19124395 2.61549546e-19)
(90.01316431 -11.50129684 0)
(88.87129678 -11.40356949 -6.451668042e-19)
(88.82288911 -11.39602176 6.398491839e-19)
(73.62075044 -26.17673013 -1.055168795e-19)
(64.98703571 -22.63365199 -8.133578396e-19)
(65.46589481 -22.94126722 -1.864087949e-21)
(68.67206698 -22.99688627 1.118969699e-19)
(66.60299969 -22.72437667 3.660920375e-19)
(60.36177919 -21.13768684 9.323138478e-19)
(64.68353432 -22.94449985 9.479295134e-20)
(77.58819626 -26.53055541 6.800790614e-20)
(68.98310442 -24.3169058 0)
(70.57314851 -24.4252776 -1.061766067e-19)
(88.69707832 -11.81116333 1.831768687e-17)
(89.06163994 -11.7051852 7.859560854e-19)
(90.23474067 -11.82871576 -1.170080671e-18)
(98.47281771 -4.242385001 -1.433878781e-18)
(97.61093956 -4.896295089 0)
(97.29417395 -5.130339862 -1.447986696e-18)
(96.22953188 -5.942880673 -3.715982997e-19)
(95.82738472 -6.266441423 0)
(94.42503576 -7.463529256 0)
(99.49192422 -4.633435482 6.007774301e-19)
(98.80992484 -5.326680798 3.295627072e-19)
(97.90756046 -5.024957293 1.418390636e-18)
(98.56043442 -5.575368375 -3.297767485e-19)
(97.73142532 -6.435335245 1.625078566e-19)
(96.59999048 -6.097597231 7.11707107e-19)
(97.42105041 -6.778050305 0)
(96.35150755 -8.070034583 0)
(94.89690342 -7.649246268 -6.344892156e-19)
(94.90771443 -8.341901932 1.938442027e-18)
(94.42604867 -9.067877596 -2.436588514e-21)
(93.57111078 -8.783146164 6.04616337e-19)
(92.73558155 -10.4369164 1.533822173e-18)
(92.33217626 -10.97254915 -5.588360034e-19)
(91.82751847 -10.70895593 1.153962218e-18)
(100.5354421 -4.827404057 1.28511059e-18)
(100.0116774 -5.522005582 5.491446759e-19)
(99.10509515 -5.397586685 -1.573169916e-19)
(99.82328778 -5.766559729 -5.404458647e-19)
(99.21670704 -6.591227107 -5.288781644e-19)
(98.10054853 -6.504994467 1.537602348e-19)
(98.99971182 -6.910681317 3.204478792e-19)
(98.31103615 -8.079157749 -4.646367102e-19)
(96.83820382 -8.133265336 -1.532269003e-18)
(97.02707254 -8.680232601 0)
(96.73098151 -9.245969181 -2.47381428e-19)
(95.8883424 -9.406610322 -1.424899854e-18)
(95.53320721 -11.24950129 0)
(95.40711252 -11.8910367 0)
(94.71354462 -11.74470229 1.329500934e-18)
(101.5392446 -4.841638326 -1.586489344e-20)
(101.1404172 -5.518269667 1.758124412e-18)
(100.3047006 -5.538405887 0)
(100.9980438 -5.749246004 -4.315739849e-19)
(100.5544022 -6.489177148 -1.07718021e-18)
(99.56948957 -6.58650784 -2.567225624e-19)
(100.4040797 -6.760011462 -8.219846919e-19)
(99.97874098 -7.681568102 -7.160484702e-19)
(98.76527208 -8.003265167 -2.107437197e-19)
(99.85704098 -8.025162458 1.038683833e-18)
(99.74963363 -9.208464772 -7.485226731e-19)
(98.33077388 -10.04594126 3.675981899e-19)
(97.67782451 -9.408269631 -6.145155305e-19)
(102.4425183 -4.693478263 0)
(102.1298767 -5.33524564 -3.447635981e-19)
(101.4028547 -5.488758077 3.991925582e-19)
(102.0142217 -5.548022787 -3.455104165e-19)
(101.6523812 -6.192960671 -1.150989882e-18)
(100.8538875 -6.432808084 3.200086527e-18)
(101.5291445 -6.411953195 9.95357749e-21)
(101.1955393 -7.093430018 1.005157455e-18)
(100.323973 -7.54858796 1.362714255e-18)
(101.1686141 -7.34466891 8.110520377e-20)
(98.29729769 -7.698282671 -2.161314842e-19)
(99.9433345 -8.933945892 -5.120652855e-19)
(93.64458814 -7.095425114 0)
(103.2193901 -4.412559903 0)
(102.9431511 -4.988009412 2.535556422e-19)
(102.3497283 -5.262611967 0)
(102.831615 -5.177298076 -1.275841389e-19)
(102.4611793 -5.724885013 -1.518256798e-19)
(101.8800298 -6.088492247 1.060655069e-18)
(102.3376495 -5.902753937 -9.404531911e-19)
(102.1328033 -6.455298538 -2.403115557e-20)
(101.4615104 -6.938706796 0)
(101.7726412 -6.624842471 0)
(94.4299888 -6.198359789 0)
(97.06793272 -7.198965099 0)
(94.79215933 -6.685680776 -5.93360384e-20)
(103.8721528 -4.074150064 0)
(103.6009251 -4.548419178 0)
(103.1211834 -4.881462878 0)
(103.4845871 -4.704517518 0)
(103.0803663 -5.161797635 -5.824958676e-21)
(102.6280667 -5.590423345 -3.378699522e-19)
(102.9574049 -5.310639797 -1.966236535e-20)
(102.0886727 -5.690286942 -8.879887049e-21)
(102.236375 -6.278369908 7.378418388e-20)
(100.2713511 -5.67728617 0)
(96.22738241 -5.802609017 -4.272291837e-19)
(94.47888673 -6.070147632 -1.060079412e-18)
(98.70909351 -6.222153849 -1.619202521e-20)
(104.4168297 -3.719997945 0)
(104.1304592 -4.10905402 0)
(103.7441409 -4.437171972 0)
(104.006543 -4.234501639 0)
(103.5819139 -4.597583955 0)
(103.2174582 -5.01676547 0)
(103.4440786 -4.713213981 0)
(101.9802098 -4.933254761 0)
(102.0041343 -5.487903985 -1.381534196e-19)
(99.66335611 -4.888007181 0)
(97.81017697 -5.165506859 0)
(96.82119457 -5.668924859 3.011163173e-21)
(99.8020836 -5.378424799 0)
(104.8716188 -3.372399618 0)
(104.5601161 -3.693561723 0)
(104.2462452 -4.002427984 0)
(104.4269641 -3.795584937 0)
(103.9713794 -4.08598596 0)
(103.688752 -4.464237371 0)
(103.8057076 -4.174625623 0)
(101.9149329 -4.308734376 0)
(101.9689174 -4.765413863 0)
(99.4643432 -4.258275053 0)
(98.58171334 -4.547848689 0)
(98.02580099 -5.004253415 0)
(100.141481 -4.669878136 0)
(105.2531202 -3.043807899 0)
(104.912983 -3.311411379 0)
(104.6547537 -3.594700614 0)
(104.7703166 -3.395569701 0)
(104.2767996 -3.631390413 0)
(104.0546653 -3.96711522 0)
(104.0768488 -3.700284358 0)
(101.8187703 -3.7794766 0)
(101.8928238 -4.168503619 0)
(99.31923107 -3.732183175 0)
(99.13457642 -4.009458937 0)
(98.73742594 -4.405913136 0)
(100.33434 -4.082107643 0)
(105.5749833 -2.74037245 0)
(105.2065289 -2.96560707 0)
(104.9913583 -3.221531047 0)
(105.0546968 -3.035938068 0)
(104.5186667 -3.229772398 0)
(104.3425934 -3.526217296 0)
(104.2807342 -3.283433997 0)
(101.7166242 -3.326448435 0)
(101.7930232 -3.659570854 0)
(99.22637086 -3.28729086 0)
(99.53031189 -3.543775284 0)
(99.24634513 -3.886596367 0)
(100.4475838 -3.586867684 0)
(105.8487678 -2.464214158 0)
(105.4537569 -2.655821268 0)
(105.272249 -2.884834521 0)
(105.2932392 -2.715306182 0)
(104.7111369 -2.876077695 0)
(104.5709508 -3.137050659 0)
(104.4338477 -2.917895408 0)
(101.6242995 -2.938051499 0)
(101.6921963 -3.223696123 0)
(99.18356206 -2.908893616 0)
(99.81232663 -3.141406009 0)
(99.61003892 -3.437597741 0)
(100.5137959 -3.166739611 0)
(106.0837012 -2.215752364 0)
(105.6643563 -2.380414158 0)
(105.5095206 -2.583829013 0)
(105.4955156 -2.431264467 0)
(104.8648422 -2.565549069 0)
(104.7528386 -2.794577632 0)
(104.5486483 -2.598187682 0)
(101.5499751 -2.604722154 0)
(101.6038377 -2.849893507 0)
(99.18461575 -2.585712199 0)
(100.0129438 -2.793959454 0)
(99.8690624 -3.049697361 0)
(100.5507053 -2.80856478 0)
(106.2870873 -1.99424986 0)
(105.8455718 -2.137106611 0)
(105.712176 -2.316674294 0)
(105.6685754 -2.180961568 0)
(104.9880507 -2.293797336 0)
(104.8982234 -2.494138155 0)
(104.6346419 -2.319326323 0)
(101.4969156 -2.318544039 0)
(101.5346671 -2.529032999 0)
(99.22190772 -2.308959939 0)
(100.1555299 -2.494239095 0)
(100.0532843 -2.714811808 0)
(100.568436 -2.502219622 0)
(106.4646806 -1.798409856 0)
(106.002827 -1.923442131 0)
(105.8869499 -2.081008885 0)
(105.8177162 -1.961547006 0)
(105.0872318 -2.056922536 0)
(105.0148777 -2.231451673 0)
(104.6990879 -2.076957509 0)
(101.4654283 -2.073095316 0)
(101.4870537 -2.253587565 0)
(99.28791965 -2.071806616 0)
(100.2566018 -2.236175787 0)
(100.184166 -2.426034092 0)
(100.5730221 -2.239930331 0)
(106.6210846 -1.62664661 0)
(106.1403269 -1.736982563 0)
(106.0389109 -1.874368828 0)
(105.9471116 -1.770320306 0)
(105.1675261 -1.851455693 0)
(105.1089003 -2.00273778 0)
(104.7475839 -1.867274006 0)
(101.4541762 -1.863093821 0)
(101.4607947 -2.017455898 0)
(99.3759778 -1.868855696 0)
(100.3277429 -2.014636903 0)
(100.2768266 -2.177548068 0)
(100.5682878 -2.015589688 0)
(106.7600038 -1.477301239 0)
(106.2614217 -1.575452797 0)
(106.1720258 -1.694342595 0)
(106.0601294 -1.604820677 0)
(105.2330272 -1.674336119 0)
(105.1851496 -1.804623629 0)
(104.7844526 -1.686946048 0)
(101.460932 -1.684208548 0)
(101.4542772 -1.815601078 0)
(99.48039499 -1.695754728 0)
(100.3771233 -1.825327823 0)
(100.3418683 -1.964433397 0)
(100.5568267 -1.824361601 0)
(106.8844746 -1.34881469 0)
(106.3688434 -1.436845267 0)
(106.2894623 -1.538724747 0)
(106.1595331 -1.462906426 0)
(105.2870321 -1.522981607 0)
(105.2474912 -1.63417418 0)
(104.8130618 -1.533195115 0)
(101.4830833 -1.532940137 0)
(101.4651315 -1.643924359 0)
(99.59650077 -1.54909882 0)
(100.4105721 -1.66473586 0)
(100.3867929 -1.782610664 0)
(100.54048 -1.66241592 0)
(106.9969414 -1.23981505 0)
(106.46488 -1.319406181 0)
(106.3938389 -1.405565376 0)
(106.2476573 -1.342720136 0)
(105.3322412 -1.395188874 0)
(105.2990653 -1.488903955 0)
(104.8360302 -1.403657281 0)
(101.5180544 -1.406429412 0)
(101.4907218 -1.499091164 0)
(99.72064137 -1.42619872 0)
(100.4322569 -1.529965762 0)
(100.4169631 -1.628724079 0)
(100.5205749 -1.526663298 0)
(107.0993931 -1.148947164 0)
(106.5514756 -1.221579047 0)
(106.4873426 -1.293168658 0)
(106.3264953 -1.242637605 0)
(105.3708518 -1.289069104 0)
(105.3424355 -1.366695306 0)
(104.8553728 -1.296315307 0)
(101.5635037 -1.302363877 0)
(101.528522 -1.378389494 0)
(99.849981 -1.32489941 0)
(100.4451992 -1.418645706 0)
(100.4362143 -1.50002055 0)
(100.4981078 -1.414624679 0)
(107.1937226 -1.074862344 0)
(106.6304032 -1.14198384 0)
(106.5718589 -1.200019663 0)
(106.3978381 -1.161240674 0)
(105.4046881 -1.203011219 0)
(105.379694 -1.265730133 0)
(104.8726687 -1.209463253 0)
(101.6173792 -1.21887344 0)
(101.5762595 -1.279626656 0)
(99.98232544 -1.243461727 0)
(100.4516657 -1.32883667 0)
(100.4473488 -1.3942433 0)
(100.4738574 -1.324303257 0)
(107.2818204 -1.016790251 0)
(106.7032791 -1.079566305 0)
(106.6491322 -1.124804355 0)
(106.4632951 -1.097419039 0)
(105.4352811 -1.135731631 0)
(105.4125859 -1.184474634 0)
(104.889177 -1.141745411 0)
(101.6779255 -1.154511729 0)
(101.6319571 -1.201039034 0)
(100.1159708 -1.180561563 0)
(100.4534008 -1.259024488 0)
(100.4524864 -1.309560151 0)
(100.4484496 -1.254146372 0)
(107.3650459 -0.973992568 0)
(106.7715018 -1.033473304 0)
(106.7207189 -1.06654398 0)
(106.5242867 -1.050279232 0)
(105.4639535 -1.086220951 0)
(105.4425811 -1.121722795 0)
(104.905935 -1.092106747 0)
(101.7437037 -1.108201723 0)
(101.6939354 -1.141277966 0)
(100.2496541 -1.135236006 0)
(100.4517639 -1.208063655 0)
(100.4532642 -1.244553979 0)
(100.4223808 -1.202979475 0)
(107.444651 -0.9458143545 0)
(106.8363627 -1.00293999 0)
(106.7879824 -1.024411049 0)
(106.5821436 -1.01903829 0)
(105.4919489 -1.053698177 0)
(105.4709657 -1.076523924 0)
(104.9238982 -1.059771252 0)
(101.8136324 -1.079246902 0)
(101.7608333 -1.099357438 0)
(100.3824948 -1.106881064 0)
(100.44782 -1.175174185 0)
(100.4509626 -1.198171042 0)
(100.3960148 -1.169991574 0)
(107.5307728 -0.9306140101 0)
(106.9062999 -0.9860404439 0)
(106.8521342 -0.9976414438 0)
(106.6447119 -1.001643157 0)
(105.5246397 -1.036448315 0)
(105.4989516 -1.048151411 0)
(104.9473753 -1.043533606 0)
(101.8955009 -1.067861514 0)
(101.831397 -1.074619148 0)
(100.5286001 -1.095009949 0)
(100.4416379 -1.158246056 0)
(100.4465755 -1.169787892 0)
(100.3665408 -1.153369285 0)
(91.66787728 -10.61872023 -1.150581677e-18)
(91.20598476 -10.34475597 5.81072261e-19)
(91.62747265 -9.890496333 0)
(94.51755811 -11.69485868 -9.090062283e-19)
(94.02885639 -11.57377116 -9.636945387e-19)
(94.35595423 -11.00075023 3.60372279e-18)
(89.84833565 -21.08134318 3.080837925e-19)
(93.29766501 -8.664923788 0)
(92.51562604 -8.299752125 -1.342227053e-18)
(93.40216958 -7.736065233 1.361330206e-18)
(91.32610465 -9.369476224 -1.218453635e-18)
(92.22263177 -8.545188997 1.318195582e-18)
(93.0150963 -8.950924382 -6.293927028e-19)
(95.58260762 -9.377189236 0)
(94.72338407 -9.145149115 0)
(95.43710761 -8.483013136 -1.991173751e-18)
(93.85517028 -10.50437225 -1.39211604e-19)
(94.49212792 -9.457690616 0)
(95.39449651 -9.704897988 4.974560902e-19)
(93.29623707 -9.072192617 -6.145489456e-19)
(94.18092524 -9.380257951 5.637449454e-19)
(93.49810233 -10.40678113 -1.443151091e-19)
(93.07915532 -11.28385388 1.573770347e-18)
(92.50987737 -11.05676113 0)
(92.90481129 -10.52176879 -1.489341773e-20)
(90.94393235 -12.0101483 2.644906459e-21)
(91.64710825 -11.98461539 -9.188835212e-19)
(91.73591345 -12.03606139 9.268845182e-19)
(90.6982143 -11.24938059 -3.982892561e-18)
(90.7691535 -11.3033652 1.005416706e-18)
(90.37307065 -11.3498432 2.067632619e-18)
(80.5595266 -7.728271683 -1.828755869e-18)
(81.74811276 -9.198304029 9.407368578e-20)
(96.79894119 -11.13564847 0)
(70.78027047 -10.77291077 0)
(77.14850062 -11.28246753 -1.728888213e-20)
(90.47283882 -20.2707749 -6.61238835e-19)
(91.80902937 -18.04253334 0)
(90.20646871 -11.17985254 4.965676998e-19)
(90.5753287 -11.13875943 -2.475109188e-18)
(90.63255877 -11.19439949 1.979104293e-18)
(90.21727434 -10.4675117 -5.143038445e-19)
(89.61702088 -10.64743931 1.010434462e-20)
(91.48190409 -9.793744188 0)
(91.05694367 -10.25142919 5.938807432e-19)
(82.59459179 -10.86162561 1.869601639e-18)
(93.30187041 -12.12673769 -1.287796451e-18)
(93.63458744 -12.72501839 0)