/*--------------------------------*- C++ -*----------------------------------*\
| =========                 |                                                 |
| \\      /  F ield         | OpenFOAM: The Open Source CFD Toolbox           |
|  \\    /   O peration     | Version:  v2012                                 |
|   \\  /    A nd           | Website:  www.openfoam.com                      |
|    \\/     M anipulation  |                                                 |
\*---------------------------------------------------------------------------*/
FoamFile
{
    version     2.0;
    format      ascii;
    class       surfaceVectorField;
    location    "2";
    object      Uf;
}
// * * * * * * * * * * * * * * * * * * * * * * * * * * * * * * * * * * * * * //

dimensions      [0 1 -1 0 0 0 0];


internalField   nonuniform List<vector> 
6430
(
(101.5715271 -0.4792064011 6.415377553e-20)
(101.8484282 -0.2474127297 3.826863811e-21)
(101.4567273 -0.9727011019 -5.828969803e-20)
(101.7775798 -0.7486643303 6.037762815e-20)
(101.2557589 -1.494016988 -1.128136044e-19)
(101.6392257 -1.267534556 -1.216657646e-19)
(100.8482612 -2.027817583 -1.674615276e-21)
(101.4099818 -1.842196252 -2.241457072e-22)
(101.047525 -2.090228498 3.488567395e-19)
(100.5720893 -2.108731757 -9.596785027e-22)
(100.8474821 -2.22334103 2.439064367e-19)
(100.5915797 -2.317619312 -9.63055199e-22)
(100.0522345 -2.752468643 0)
(100.350856 -2.655008391 0)
(100.4028506 -2.903584046 0)
(100.0845918 -3.023189231 0)
(99.4104586 -3.545458912 2.537108607e-20)
(99.78052433 -3.426906 2.628448578e-20)
(99.8360505 -3.737321931 -1.033578725e-19)
(99.32725942 -3.830487189 -8.71414339e-20)
(99.48669601 -3.889460486 -3.24852749e-20)
(98.59806711 -4.299830992 -5.916881712e-20)
(98.84295901 -4.249875322 1.268661908e-18)
(98.85229523 -4.404722069 4.95319418e-19)
(98.5928588 -4.46665223 6.408091943e-19)
(97.44981724 -5.198239316 1.740235355e-20)
(97.75788494 -5.144693505 1.449384496e-18)
(97.76728167 -5.321140725 1.442769409e-18)
(97.44938021 -5.392581677 3.867228485e-19)
(96.02444066 -6.346529869 -1.026255983e-18)
(96.41320312 -6.259676625 -6.485891867e-19)
(96.42224709 -6.490923434 -1.00442985e-18)
(96.02171406 -6.605127072 -8.926030586e-19)
(94.13913585 -8.075146236 -5.992853206e-19)
(94.64541483 -7.902200123 -2.404194393e-19)
(94.64727089 -8.259365013 1.047918499e-18)
(94.02970753 -8.39703387 -3.513942322e-19)
(94.21161854 -8.445364256 -1.131243191e-18)
(92.16891834 -10.17451195 0)
(92.32811619 -10.14171308 -5.241534185e-20)
(92.3168109 -10.25305374 -8.557934206e-22)
(92.18104338 -10.29368057 -5.429027176e-19)
(102.0492561 -0.5159677625 0)
(102.3331277 -0.2618489723 0)
(101.9549631 -1.047354803 0)
(102.2767369 -0.7934392835 0)
(101.7900967 -1.610423717 0)
(102.168172 -1.341662488 0)
(101.4405958 -2.198975183 0)
(101.9868565 -1.941298941 0)
(101.6542347 -2.250050676 0)
(101.1678463 -2.318749167 2.441058438e-19)
(101.4745578 -2.389401295 0)
(101.224408 -2.525490678 0)
(100.7513911 -3.027002409 0)
(101.0327163 -2.890403299 0)
(101.1220659 -3.117159537 0)
(100.8267948 -3.284968972 0)
(100.2478813 -3.888174668 -1.28959128e-19)
(100.5920378 -3.716463432 0)
(100.6921622 -3.984458487 5.623232637e-20)
(100.2312566 -4.153839625 1.070049373e-20)
(100.3952044 -4.188924534 4.356241066e-19)
(99.61526047 -4.667661131 3.050671134e-19)
(99.84138828 -4.591551876 1.07686164e-18)
(99.87972632 -4.728704525 2.257714443e-21)
(99.64300536 -4.817352979 5.486103414e-22)
(98.71105677 -5.610935884 6.866085298e-20)
(98.98841465 -5.522333189 1.582210111e-19)
(99.03305881 -5.673161781 2.380405625e-19)
(98.75023575 -5.778021015 4.017498044e-19)
(97.61249263 -6.811893374 0)
(97.96012107 -6.672389881 7.840705569e-20)
(98.01665021 -6.867287841 0)
(97.66514573 -7.031853575 -1.411573259e-19)
(96.20823778 -8.646985985 4.950901052e-19)
(96.65882854 -8.400411573 -8.343528247e-19)
(96.7562772 -8.677702706 -6.489398392e-20)
(96.19925379 -8.953524216 2.878665261e-19)
(96.40475157 -8.972583037 -4.325650507e-20)
(94.97381085 -11.12968437 8.289596957e-20)
(95.20983625 -11.03272033 1.243081818e-19)
(95.33594817 -11.23888793 1.24276595e-19)
(94.91025195 -11.27722736 -7.832291893e-19)
(94.96086706 -11.42967305 8.287513467e-20)
(95.09751921 -11.45593088 3.689070937e-19)
(102.555175 -0.5382158719 0)
(102.8387271 -0.2690921757 0)
(102.4829681 -1.091290219 0)
(102.796266 -0.8158672829 0)
(102.3558979 -1.674418515 0)
(102.7159621 -1.378071323 0)
(102.0662669 -2.288723137 0)
(102.5787611 -1.981651903 0)
(102.2835931 -2.320291123 0)
(101.8011941 -2.439582453 0)
(102.1249804 -2.470041929 0)
(101.892381 -2.633415884 0)
(101.4954759 -3.176780155 0)
(101.7527698 -3.006715409 0)
(101.8685139 -3.208420152 0)
(101.6070763 -3.403796685 0)
(101.1323109 -4.036995541 -4.688090607e-22)
(101.4411336 -3.830523042 -5.600781515e-20)
(101.5659669 -4.052076981 -4.95225146e-20)
(101.1612912 -4.275715849 -3.546221228e-20)
(101.3214526 -4.294449499 -3.576014029e-20)
(100.663576 -4.836770023 1.117312528e-18)
(100.864241 -4.734955161 2.605698766e-19)
(100.9196737 -4.850723646 2.333533275e-19)
(100.7136205 -4.962492409 4.658113565e-19)
(99.97528466 -5.772897389 -2.712529129e-19)
(100.2167133 -5.661988775 0)
(100.2781223 -5.780485962 -2.430669867e-19)
(100.0390173 -5.90899782 2.550582563e-19)
(99.18576174 -6.902680516 4.04983618e-19)
(99.47255286 -6.738393952 1.105481284e-19)
(99.55217569 -6.878890943 1.888045208e-19)
(99.27360772 -7.060037684 3.639347644e-19)
(98.33020524 -8.508074513 -1.035089505e-19)
(98.6721364 -8.225185715 -2.083168515e-19)
(98.80674156 -8.388814082 -5.545983302e-20)
(98.50156979 -8.698915557 -1.046098749e-19)
(98.13604198 -10.88546847 -1.822483575e-19)
(98.25955875 -10.36714288 2.612182799e-19)
(98.13185814 -10.68101268 -8.285142404e-20)
(93.00620858 -10.05368856 7.311098382e-19)
(98.04057241 -11.12100209 7.213785663e-19)
(103.0746711 -0.5461589419 0)
(103.351818 -0.269851376 0)
(103.0230359 -1.105503638 0)
(103.3217157 -0.8178736063 0)
(102.9311554 -1.690987514 0)
(103.2659969 -1.379980222 0)
(102.6971992 -2.314514828 0)
(103.1674997 -1.971727474 0)
(102.9103314 -2.320823909 0)
(102.4477265 -2.482806782 0)
(102.7708817 -2.479596157 0)
(102.5616838 -2.658535718 0)
(102.2362524 -3.214573863 0)
(102.466253 -3.024586122 0)
(102.5968373 -3.198014981 0)
(102.3682164 -3.408411611 0)
(101.9875327 -4.033655867 6.178524473e-21)
(102.2559663 -3.814764872 0)
(102.393167 -3.986829767 0)
(102.0488713 -4.258476541 0)
(102.1927336 -4.234623241 0)
(101.657471 -4.830089323 -2.099143313e-19)
(101.8290485 -4.709235249 1.650453134e-19)
(101.8912059 -4.802373695 -2.059690222e-19)
(101.7161249 -4.932536155 4.135941036e-19)
(101.1331496 -5.732449567 -4.191777324e-19)
(101.3353445 -5.603428411 -6.655224117e-21)
(101.3985806 -5.69327386 1.839941301e-19)
(101.2002751 -5.832107033 -6.178871522e-19)
(100.559203 -6.725811237 -1.194468828e-18)
(100.7851241 -6.561504531 8.35375506e-19)
(100.8617033 -6.651969368 -1.518538191e-18)
(100.6482086 -6.826506364 -8.147684588e-19)
(100.0339785 -7.940430915 2.687071906e-19)
(100.2682611 -7.700803775 4.440176704e-19)
(100.3752841 -7.768708004 8.748836945e-19)
(100.1804368 -8.018909049 -9.792742318e-20)
(97.2731722 -9.086401097 6.429198756e-20)
(98.42360075 -8.878482858 2.264747626e-20)
(96.33110336 -8.444877876 3.718581181e-19)
(93.27260621 -8.203034727 1.511514713e-19)
(103.5945118 -0.5416256145 0)
(103.8606206 -0.2652000514 0)
(103.5600991 -1.094303554 0)
(103.8408724 -0.8028761949 0)
(103.4976332 -1.668363151 0)
(103.8052679 -1.353124589 0)
(103.3124193 -2.285725924 0)
(103.7385 -1.920661304 0)
(103.5152986 -2.266671967 0)
(103.0834841 -2.461072548 0)
(103.3935919 -2.429975705 0)
(103.2092724 -2.615856947 0)
(102.9462684 -3.16142149 0)
(103.1483228 -2.962945709 0)
(103.2836242 -3.107554889 0)
(103.0859988 -3.322044982 0)
(102.7811126 -3.916022992 0)
(103.0119426 -3.696589773 0)
(103.1488916 -3.824917029 0)
(102.8537569 -4.112882793 0)
(102.980512 -4.063354345 0)
(102.545729 -4.663348744 0)
(102.6885025 -4.528482456 6.104457545e-22)
(102.7480963 -4.599106214 0)
(102.6024942 -4.740931638 -1.193666865e-19)
(102.1257565 -5.508864955 4.470749205e-19)
(102.2928091 -5.367623499 6.287823891e-19)
(102.3423851 -5.42535511 3.984423486e-19)
(102.1785416 -5.573969592 6.12368165e-19)
(101.6429423 -6.35382107 8.015840214e-20)
(101.8185299 -6.192207308 6.056541949e-19)
(101.8610495 -6.233482952 6.032866521e-19)
(101.6963357 -6.399648064 4.161047e-20)
(101.3151527 -7.263077626 4.059470549e-20)
(101.4623778 -7.061086302 0)
(101.5799839 -7.096822454 1.325068733e-20)
(101.4076107 -7.306977497 5.777145745e-20)
(93.36183321 -6.954724901 0)
(95.10586576 -7.019064069 0)
(93.11418941 -6.754580093 3.629579456e-20)
(93.30227546 -7.189080483 4.070971173e-19)
(104.1036693 -0.5270310327 0)
(104.3557129 -0.2562910996 0)
(104.0827188 -1.062741427 0)
(104.3440907 -0.774600159 0)
(104.0430266 -1.614477664 0)
(104.3235683 -1.303900613 0)
(103.896987 -2.210865039 0)
(104.280661 -1.838650796 0)
(104.0859809 -2.17236244 0)
(103.6897116 -2.386606484 0)
(103.9800857 -2.334536565 0)
(103.8187443 -2.519988239 0)
(103.6060822 -3.039317998 0)
(103.7820974 -2.841206503 0)
(103.9139387 -2.959489506 0)
(103.7433307 -3.168905178 0)
(103.4950202 -3.717727662 0)
(103.6927669 -3.505298821 0)
(103.8191802 -3.59860298 0)
(103.5644932 -3.882276449 0)
(103.6739919 -3.818509735 0)
(103.306469 -4.371762892 0)
(103.4271888 -4.240787982 0)
(103.4771318 -4.289082328 0)
(103.3541675 -4.422487415 0)
(102.9198688 -5.120665812 -6.376841542e-20)
(103.06418 -4.9737022 0)
(103.0918816 -5.004804152 0)
(102.9466894 -5.154787901 1.714734999e-19)
(102.421822 -5.831562507 -4.702516056e-19)
(102.5668623 -5.675849439 -1.681976323e-19)
(102.5855578 -5.686995408 -4.117724207e-19)
(102.4600346 -5.846061166 3.736471648e-19)
(101.653346 -6.511860264 2.817562225e-20)
(101.8872572 -6.334741183 8.728530056e-20)
(101.3427515 -6.278513591 1.113522796e-21)
(100.5157309 -6.362782702 3.661704047e-19)
(95.376193 -6.671308604 -4.195027077e-19)
(95.21562623 -6.357539685 -9.184286766e-19)
(96.52142759 -6.611236419 -6.063081338e-19)
(97.43983151 -6.912735986 3.317452103e-19)
(104.5937491 -0.5048064926 0)
(104.8299276 -0.2442476507 0)
(104.582571 -1.015873214 0)
(104.82416 -0.7366587653 0)
(104.5590986 -1.537671666 0)
(104.8137452 -1.238547346 0)
(104.4418965 -2.10230815 0)
(104.7870114 -1.735772333 0)
(104.6152398 -2.051065923 0)
(104.2550651 -2.273635855 0)
(104.5225595 -2.207702649 0)
(104.3808919 -2.387074297 0)
(104.2054499 -2.870655245 0)
(104.3589339 -2.679453586 0)
(104.4817201 -2.77513527 0)
(104.3327537 -2.973530032 0)
(104.1222285 -3.471559802 0)
(104.2931085 -3.270606144 0)
(104.4038264 -3.339787729 0)
(104.1784849 -3.602887541 0)
(104.2717644 -3.537877656 0)
(103.9448301 -4.029972285 0)
(104.0499123 -3.910083257 0)
(104.087336 -3.941562358 0)
(103.9788925 -4.06176959 0)
(103.5552775 -4.644662484 0)
(103.6851451 -4.510997298 0)
(103.6930252 -4.525605358 0)
(103.5610554 -4.657615654 0)
(103.0242446 -5.234028771 -1.613096461e-20)
(103.154771 -5.0872224 -6.320111886e-21)
(103.1547275 -5.082055736 -6.315936461e-21)
(103.0382498 -5.22607313 3.664064979e-20)
(100.1080136 -5.567040394 -1.203799108e-19)
(100.9722033 -5.466393709 -1.893576791e-19)
(99.85947004 -5.356099988 -1.484153915e-19)
(98.48454999 -5.389837682 -9.649996779e-21)
(98.95015607 -6.115439621 -5.707026566e-21)
(98.00443149 -5.833436715 4.05121412e-21)
(99.348614 -5.89977349 -3.04450319e-20)
(99.76551423 -6.040637643 1.610172097e-21)
(105.0587808 -0.4772818848 0)
(105.2782857 -0.2301246383 0)
(105.053899 -0.9586092472 0)
(105.2762938 -0.6924261184 0)
(105.0405628 -1.445931771 0)
(105.2715354 -1.1628199 0)
(104.9427098 -1.972024598 0)
(105.2540523 -1.620760513 0)
(105.100095 -1.914178882 0)
(104.7740799 -2.136029872 0)
(105.0180064 -2.062310142 0)
(104.892253 -2.231701078 0)
(104.7417548 -2.675081384 0)
(104.8769738 -2.494952375 0)
(104.9871732 -2.572307018 0)
(104.8544078 -2.756188605 0)
(104.6651212 -3.205447641 0)
(104.8157853 -3.016183349 0)
(104.9073347 -3.070262252 0)
(104.7046914 -3.302427523 0)
(104.7840803 -3.245638308 0)
(104.4774277 -3.675797793 0)
(104.5724819 -3.568075784 0)
(104.5963817 -3.588004613 0)
(104.4969665 -3.694693007 0)
(104.0632706 -4.177958683 0)
(104.1831791 -4.06189739 0)
(104.1739015 -4.065926988 0)
(104.0510344 -4.179652687 0)
(103.4943688 -4.642677796 0)
(103.6168026 -4.51842504 0)
(103.5913861 -4.503747729 0)
(103.4620908 -4.621690121 0)
(99.63382308 -4.803234671 0)
(100.7886359 -4.739379571 0)
(99.58119732 -4.63810578 0)
(98.23936158 -4.683363568 0)
(99.85308142 -5.282855999 0)
(98.96493842 -5.093918747 0)
(99.95115192 -5.096657893 0)
(100.1800705 -5.198304844 0)
(105.4949821 -0.4465711597 0)
(105.6978185 -0.2148452894 0)
(105.4933444 -0.8953020779 0)
(105.6978326 -0.6448410247 0)
(105.484864 -1.34613328 0)
(105.6950703 -1.081693916 0)
(105.3985179 -1.830664238 0)
(105.6810524 -1.500537902 0)
(105.5404851 -1.7706382 0)
(105.2456354 -1.985356433 0)
(105.466604 -1.908558239 0)
(105.3532657 -2.065873084 0)
(105.2174237 -2.468339041 0)
(105.338508 -2.301360717 0)
(105.4343295 -2.364387926 0)
(105.3131276 -2.532219846 0)
(105.1317405 -2.935615955 0)
(105.2683404 -2.759021311 0)
(105.3395809 -2.802534389 0)
(105.1538752 -3.004128131 0)
(105.2215507 -2.956384013 0)
(104.9223234 -3.330094439 0)
(105.0112405 -3.234324815 0)
(105.0219999 -3.246490317 0)
(104.9278583 -3.340422664 0)
(104.4730428 -3.743700887 0)
(104.5869829 -3.64321748 0)
(104.5630735 -3.641161478 0)
(104.4455545 -3.739045997 0)
(103.8432599 -4.112465694 0)
(103.9677914 -4.008894805 0)
(103.9158751 -3.990067689 0)
(103.763163 -4.086186271 0)
(99.44384712 -4.188220829 0)
(100.6581514 -4.142440247 0)
(99.40430021 -4.051059881 0)
(98.19542982 -4.100345657 0)
(100.1703701 -4.591500579 0)
(99.46859494 -4.45849622 0)
(100.2251972 -4.438112931 0)
(100.3495715 -4.516854102 0)
(105.9004184 -0.4144424054 0)
(106.0871452 -0.1991598902 0)
(105.8995648 -0.8295133909 0)
(106.0877285 -0.5962650692 0)
(105.8917075 -1.243684826 0)
(106.0841425 -0.9991641629 0)
(105.8106743 -1.686534322 0)
(106.0691188 -1.380359885 0)
(105.9381711 -1.627036902 0)
(105.6712751 -1.830441263 0)
(105.8703767 -1.754024677 0)
(105.7666172 -1.898491636 0)
(105.6375226 -2.261505674 0)
(105.7480229 -2.108410815 0)
(105.8288333 -2.160429585 0)
(105.7156074 -2.312051935 0)
(105.5320434 -2.671808357 0)
(105.6599528 -2.510075231 0)
(105.7109468 -2.544249261 0)
(105.5377274 -2.722125601 0)
(105.5954152 -2.678939669 0)
(105.2958093 -3.004470602 0)
(105.3811891 -2.919929614 0)
(105.379763 -2.926962727 0)
(105.2885429 -3.009312567 0)
(104.8083111 -3.348730208 0)
(104.9188564 -3.261671353 0)
(104.8826272 -3.256333951 0)
(104.7678888 -3.340791688 0)
(104.1050889 -3.645604995 0)
(104.2379958 -3.558707998 0)
(104.1596897 -3.538014442 0)
(103.9797493 -3.616838447 0)
(99.30513403 -3.673079377 0)
(100.5420842 -3.636236707 0)
(99.27865585 -3.557299413 0)
(98.2148245 -3.608046217 0)
(100.3513697 -4.016241822 0)
(99.80742268 -3.917359749 0)
(100.3834082 -3.887267042 0)
(100.4421737 -3.95146944 0)
(106.2746521 -0.3822643247 0)
(106.4462439 -0.1836401025 0)
(106.2727272 -0.7639627716 0)
(106.4462761 -0.5484598267 0)
(106.2623431 -1.142561122 0)
(106.4397974 -0.9181896344 0)
(106.1818836 -1.545144612 0)
(106.4204849 -1.264020103 0)
(106.2961632 -1.488043399 0)
(106.0537975 -1.677667512 0)
(106.2327121 -1.604014176 0)
(106.1361582 -1.735611497 0)
(106.0080375 -2.061763925 0)
(106.1108768 -1.922518836 0)
(106.1768039 -1.965960545 0)
(106.0689278 -2.102162719 0)
(105.8773093 -2.420703057 0)
(106.0001517 -2.275243484 0)
(106.0321415 -2.301741387 0)
(105.8664719 -2.460115681 0)
(105.9159206 -2.420034796 0)
(105.6111726 -2.70439448 0)
(105.6946217 -2.629954321 0)
(105.6824429 -2.633629471 0)
(105.5926731 -2.705833675 0)
(105.0864309 -2.994068435 0)
(105.1952247 -2.918477467 0)
(105.1485898 -2.911552586 0)
(105.0348579 -2.984654672 0)
(104.3019548 -3.235443489 0)
(104.4470885 -3.162332804 0)
(104.3429734 -3.141042672 0)
(104.1346226 -3.206003082 0)
(99.21873658 -3.23711499 0)
(100.451698 -3.204983092 0)
(99.20507457 -3.138760183 0)
(98.28207201 -3.190437572 0)
(100.4576087 -3.531113033 0)
(100.038862 -3.455347591 0)
(100.4764285 -3.421854233 0)
(100.4919696 -3.475384069 0)
(106.6183674 -0.351037991 0)
(106.7760086 -0.1687066447 0)
(106.6140306 -0.7006148518 0)
(106.7746503 -0.5026885734 0)
(106.5989014 -1.045560574 0)
(106.763839 -0.8408567159 0)
(106.5155651 -1.410248085 0)
(106.7379575 -1.154118897 0)
(106.6179375 -1.356778923 0)
(106.3968472 -1.531379655 0)
(106.5574247 -1.462058847 0)
(106.4662036 -1.581193886 0)
(106.3349545 -1.873426793 0)
(106.4324471 -1.747624755 0)
(106.4840278 -1.784430966 0)
(106.3794148 -1.906306226 0)
(106.1764249 -2.187722062 0)
(106.2965522 -2.057924621 0)
(106.3110142 -2.078854563 0)
(106.149958 -2.219486047 0)
(106.1926411 -2.182917978 0)
(105.8797138 -2.431729893 0)
(105.9623724 -2.366243606 0)
(105.9407628 -2.367889947 0)
(105.8515155 -2.4312255 0)
(105.3200474 -2.678144158 0)
(105.4282074 -2.612368295 0)
(105.3726454 -2.604925343 0)
(105.2585777 -2.668353621 0)
(104.449763 -2.875890749 0)
(104.609281 -2.814270195 0)
(104.4805356 -2.793251977 0)
(104.2444946 -2.847024442 0)
(99.18175792 -2.866103377 0)
(100.3919335 -2.836403481 0)
(99.17951485 -2.782147406 0)
(98.38480732 -2.834015914 0)
(100.5195218 -3.119290762 0)
(100.1971744 -3.059750011 0)
(100.5302034 -3.026212448 0)
(100.5154777 -3.071119436 0)
(106.9330048 -0.3214655982 0)
(107.0780106 -0.1546540661 0)
(106.9253267 -0.6408283042 0)
(107.0746603 -0.4598130032 0)
(106.9039695 -0.9545652032 0)
(107.0585802 -0.7685562872 0)
(106.8153375 -1.284273434 0)
(107.0246473 -1.052299603 0)
(106.9071094 -1.235192867 0)
(106.7042945 -1.39439373 0)
(106.8484309 -1.330359961 0)
(106.7610386 -1.437716494 0)
(106.6238635 -1.699198619 0)
(106.7178025 -1.586095448 0)
(106.7558524 -1.617843095 0)
(106.652918 -1.726591404 0)
(106.4367283 -1.975248485 0)
(106.5557307 -1.859882126 0)
(106.5542913 -1.87694004 0)
(106.3958861 -2.001485989 0)
(106.4329835 -1.968582103 0)
(106.1104049 -2.186701373 0)
(106.192979 -2.129108935 0)
(106.1631476 -2.129671496 0)
(106.0738645 -2.185249413 0)
(105.5183857 -2.398456261 0)
(105.6267308 -2.341137588 0)
(105.5633 -2.333856506 0)
(105.4478293 -2.388944292 0)
(104.5605724 -2.561510988 0)
(104.7353768 -2.509507575 0)
(104.5836251 -2.489379738 0)
(104.3217974 -2.534044756 0)
(99.18771227 -2.549095117 0)
(100.3627689 -2.520657214 0)
(99.19501445 -2.477232178 0)
(98.51199868 -2.528429816 0)
(100.5536662 -2.768016637 0)
(100.3049694 -2.72030256 0)
(100.5590763 -2.68844963 0)
(100.5219864 -2.726061108 0)
(107.2204937 -0.2940143818 0)
(107.3542074 -0.1416780622 0)
(107.2088687 -0.5854870114 0)
(107.3484545 -0.4203893136 0)
(107.1803619 -0.8707448594 0)
(107.3265512 -0.7021636392 0)
(107.0848269 -1.168623859 0)
(107.283684 -0.9595141355 0)
(107.1672289 -1.124360486 0)
(106.9800091 -1.268363742 0)
(107.1095545 -1.210117946 0)
(107.0247893 -1.306533823 0)
(106.8798523 -1.540454789 0)
(106.9716164 -1.43911115 0)
(106.9970866 -1.467066897 0)
(106.8946805 -1.563901535 0)
(106.6644107 -1.783899345 0)
(106.7834306 -1.681590116 0)
(106.7676691 -1.696088617 0)
(106.6105884 -1.806146963 0)
(106.6430537 -1.776888062 0)
(106.3103371 -1.968481812 0)
(106.393256 -1.917836957 0)
(106.3562888 -1.917971755 0)
(106.2666321 -1.966760235 0)
(105.6882415 -2.152138215 0)
(105.7974358 -2.102154864 0)
(105.7268763 -2.095447782 0)
(105.6091568 -2.143287314 0)
(104.6435752 -2.287394867 0)
(104.8337039 -2.24347693 0)
(104.6608402 -2.224654872 0)
(104.3757831 -2.261858058 0)
(99.22893939 -2.277571912 0)
(100.361537 -2.249859551 0)
(99.24386668 -2.215998632 0)
(98.65469209 -2.265752173 0)
(100.5695292 -2.467496285 0)
(100.3774039 -2.428767274 0)
(100.5713594 -2.399386414 0)
(100.5170438 -2.430715836 0)
(107.483079 -0.2689684503 0)
(107.606876 -0.1298936304 0)
(107.4671483 -0.5351109763 0)
(107.5984548 -0.3847291259 0)
(107.4309851 -0.7947432868 0)
(107.5704495 -0.6421514893 0)
(107.3275005 -1.064000422 0)
(107.5181927 -0.8761981198 0)
(107.4017001 -1.024760049 0)
(107.2276502 -1.154141899 0)
(107.3443687 -1.101886096 0)
(107.2612621 -1.188255264 0)
(107.1074142 -1.397688788 0)
(107.1980631 -1.307090305 0)
(107.2119599 -1.332275638 0)
(107.1092431 -1.418374216 0)
(106.8646661 -1.6134089 0)
(106.9844967 -1.522808396 0)
(106.9559135 -1.535751617 0)
(106.7992487 -1.632813446 0)
(106.827867 -1.607084703 0)
(106.4850931 -1.77574098 0)
(106.5686183 -1.731198769 0)
(106.5254803 -1.73135224 0)
(106.4352266 -1.774197771 0)
(105.8347382 -1.936369592 0)
(105.9453409 -1.892778314 0)
(105.8682045 -1.886886816 0)
(105.7475857 -1.928408102 0)
(104.7057951 -2.049280938 0)
(104.9107099 -2.012184034 0)
(104.7187673 -1.994933522 0)
(104.4133435 -2.025994758 0)
(99.29800457 -2.044924455 0)
(100.3844624 -2.017757131 0)
(99.31882867 -1.992202397 0)
(98.80607848 -2.039927902 0)
(100.5728028 -2.210209351 0)
(100.4247125 -2.178556217 0)
(100.5721104 -2.151923155 0)
(100.5041213 -2.177819026 0)
(107.7231975 -0.2464759883 0)
(107.8384153 -0.1193601229 0)
(107.7027789 -0.4899544117 0)
(107.8271657 -0.3529773491 0)
(107.6587427 -0.7268283028 0)
(107.7929685 -0.5887223731 0)
(107.5466676 -0.9706127061 0)
(107.7311619 -0.8024610668 0)
(107.6137376 -0.9364598907 0)
(107.4506953 -1.052007776 0)
(107.5562355 -1.005742889 0)
(107.4740005 -1.082967478 0)
(107.310567 -1.270795993 0)
(107.400921 -1.189925145 0)
(107.4042474 -1.213172194 0)
(107.3006053 -1.289643415 0)
(107.0419079 -1.462994011 0)
(107.1630951 -1.382843406 0)
(107.1230812 -1.395003419 0)
(106.9662019 -1.480440379 0)
(106.9916228 -1.458073013 0)
(106.6391585 -1.606869717 0)
(106.7234473 -1.567694485 0)
(106.674964 -1.5681798 0)
(106.5839518 -1.605806591 0)
(105.9619428 -1.748469621 0)
(106.0744056 -1.710478452 0)
(105.9911316 -1.705553932 0)
(105.8671431 -1.741546891 0)
(104.7526579 -1.843413739 0)
(104.9714479 -1.812093713 0)
(104.7624881 -1.796586 0)
(104.4396253 -1.822556989 0)
(99.38835633 -1.845890905 0)
(100.4275253 -1.819281562 0)
(99.41359916 -1.800862765 0)
(98.96124699 -1.846150581 0)
(100.5671246 -1.990214165 0)
(100.4539206 -1.96431449 0)
(100.564615 -1.940463216 0)
(100.4855217 -1.961643324 0)
(107.9433296 -0.2265938813 0)
(108.0512773 -0.1100978163 0)
(107.9183614 -0.4500960204 0)
(108.0371119 -0.325164329 0)
(107.8664287 -0.6670298826 0)
(107.996756 -0.5418967011 0)
(107.7453959 -0.8883686839 0)
(107.9254265 -0.7381996914 0)
(107.8063257 -0.8592845551 0)
(107.6523481 -0.9618923654 0)
(107.7482429 -0.9215041298 0)
(107.6662243 -0.9904552802 0)
(107.4928445 -1.159346587 0)
(107.5835495 -1.087223589 0)
(107.5772735 -1.109229835 0)
(107.4722403 -1.177094175 0)
(107.1998532 -1.331638607 0)
(107.3227634 -1.260798893 0)
(107.272577 -1.272740788 0)
(107.1150556 -1.347825682 0)
(107.1378317 -1.328608648 0)
(106.7761414 -1.460215455 0)
(106.861295 -1.425776206 0)
(106.8081524 -1.42683048 0)
(106.7162491 -1.45984944 0)
(106.0731369 -1.586016632 0)
(106.1878094 -1.55296578 0)
(106.0987645 -1.549120854 0)
(105.9710885 -1.580243695 0)
(104.7883525 -1.66653312 0)
(105.0198782 -1.640147022 0)
(104.7959323 -1.626507759 0)
(104.4584806 -1.648214886 0)
(99.49443166 -1.676243314 0)
(100.4868185 -1.650337805 0)
(99.52285643 -1.638013255 0)
(99.11677052 -1.680593749 0)
(100.5549795 -1.802814458 0)
(100.4699669 -1.781728007 0)
(100.5511516 -1.760597326 0)
(100.4628674 -1.777653601 0)
(108.1460237 -0.2093161505 0)
(108.2479201 -0.1021042741 0)
(108.1165143 -0.4154977159 0)
(108.2307993 -0.3012519452 0)
(108.0567805 -0.6152193609 0)
(108.1843851 -0.5015781667 0)
(107.9265569 -0.8170371771 0)
(108.1037034 -0.6832146233 0)
(107.9822473 -0.7929332423 0)
(107.8355702 -0.8835249728 0)
(107.9232244 -0.8488262495 0)
(107.8408761 -0.9103401932 0)
(107.6573829 -1.062756438 0)
(107.7489671 -0.9984482321 0)
(107.7340213 -1.019826103 0)
(107.6272073 -1.080016687 0)
(107.3415398 -1.218111046 0)
(107.4664805 -1.155790287 0)
(107.4071369 -1.167558976 0)
(107.2489016 -1.234063153 0)
(107.2695406 -1.217166563 0)
(106.8990165 -1.334242132 0)
(106.9851364 -1.304006619 0)
(106.9278815 -1.305815298 0)
(106.8349554 -1.334731166 0)
(106.1710299 -1.446900272 0)
(106.2881876 -1.418228072 0)
(106.1937027 -1.415546007 0)
(106.0621317 -1.442361018 0)
(104.8161481 -1.515912501 0)
(105.0591552 -1.49376546 0)
(104.8221745 -1.482078596 0)
(104.4727893 -1.500179991 0)
(99.61169574 -1.532671109 0)
(100.5588232 -1.507657662 0)
(99.64232861 -1.500531177 0)
(99.27040113 -1.540263962 0)
(100.5381344 -1.64427462 0)
(100.4763793 -1.627303138 0)
(100.5333461 -1.608780014 0)
(100.4373301 -1.62220649 0)
(108.3335449 -0.1946118085 0)
(108.4307382 -0.09535784202 0)
(108.2995559 -0.3860660006 0)
(108.4106414 -0.2811574624 0)
(108.232189 -0.5711950242 0)
(108.3582951 -0.4676102166 0)
(108.0927351 -0.7561212926 0)
(108.2684281 -0.6371869707 0)
(108.1440521 -0.7369711034 0)
(108.0030572 -0.8165124827 0)
(108.0838344 -0.7873123517 0)
(108.0006477 -0.8421141673 0)
(107.8070283 -0.980362286 0)
(107.8999187 -0.9229946229 0)
(107.8771795 -0.9442547969 0)
(107.768312 -0.9976672256 0)
(107.4697272 -1.120989322 0)
(107.5970466 -1.066952723 0)
(107.5296245 -1.078343613 0)
(107.3702255 -1.138812834 0)
(107.3890181 -1.122624148 0)
(107.010154 -1.227589256 0)
(107.0972861 -1.201120475 0)
(107.0363778 -1.203782633 0)
(106.9423333 -1.229040111 0)
(106.2579081 -1.329295706 0)
(106.3777524 -1.30452219 0)
(106.2781379 -1.303068904 0)
(106.1425599 -1.326059739 0)
(104.8385801 -1.389233616 0)
(105.0917867 -1.370753929 0)
(104.8435883 -1.361071395 0)
(104.4846621 -1.376085875 0)
(99.73660945 -1.412559827 0)
(100.6405618 -1.388622809 0)
(99.76869056 -1.385947299 0)
(99.42076564 -1.422778569 0)
(100.5178673 -1.511588132 0)
(100.4756901 -1.498205969 0)
(100.5123849 -1.482167631 0)
(100.4097624 -1.492369235 0)
(108.5089855 -0.1824004542 0)
(108.602085 -0.08985636733 0)
(108.4705364 -0.3616505114 0)
(108.5790195 -0.264831697 0)
(108.3956865 -0.5346719496 0)
(108.5208313 -0.439836262 0)
(108.2466065 -0.7055523304 0)
(108.4222088 -0.6000670542 0)
(108.2942103 -0.6911939976 0)
(108.1574143 -0.7604500908 0)
(108.232363 -0.7364787221 0)
(108.1480282 -0.7853403938 0)
(107.9443223 -0.9114157626 0)
(108.0388848 -0.8602244989 0)
(108.0091565 -0.8817419826 0)
(107.8980423 -0.9292373851 0)
(107.5871745 -1.039628034 0)
(107.7171093 -0.9932458299 0)
(107.6428467 -1.004947583 0)
(107.4812877 -1.060341044 0)
(107.4983989 -1.044686323 0)
(107.1115026 -1.138905041 0)
(107.199696 -1.115800082 0)
(107.1355483 -1.119373441 0)
(107.0402921 -1.141400773 0)
(106.3357284 -1.231610622 0)
(106.4584117 -1.21030419 0)
(106.3539771 -1.210135187 0)
(106.2143388 -1.229732599 0)
(104.8576003 -1.284526732 0)
(105.1197645 -1.269234817 0)
(104.8620092 -1.261582831 0)
(104.4956427 -1.273928687 0)
(99.86641684 -1.313817114 0)
(100.7295671 -1.29112113 0)
(99.89936901 -1.292265439 0)
(99.56709732 -1.32620429 0)
(100.4951445 -1.40234917 0)
(100.4697677 -1.392140079 0)
(100.4891731 -1.378468144 0)
(100.3808113 -1.385782679 0)
(108.6720174 -0.1727225768 0)
(108.7643404 -0.08551573141 0)
(108.6292728 -0.3422263769 0)
(108.7382425 -0.2520928183 0)
(108.547191 -0.5055788319 0)
(108.6742844 -0.4180309017 0)
(108.3896693 -0.6632719812 0)
(108.5662348 -0.5705653311 0)
(108.4348197 -0.6545201051 0)
(108.3005593 -0.7148008144 0)
(108.3718237 -0.6960065322 0)
(108.2853331 -0.7391377616 0)
(108.0715378 -0.8551812344 0)
(108.168155 -0.809480494 0)
(108.1321304 -0.8317583717 0)
(108.0184714 -0.8739784087 0)
(107.6964323 -0.9742596429 0)
(107.8286909 -0.9335968049 0)
(107.7482198 -0.9473387264 0)
(107.5842824 -0.9945522257 0)
(107.6004084 -0.9829026223 0)
(107.2049785 -1.066843683 0)
(107.2944086 -1.046660313 0)
(107.2273857 -1.051345284 0)
(107.1307231 -1.070511062 0)
(106.4062627 -1.152458894 0)
(106.5319129 -1.134241855 0)
(106.4229508 -1.135432716 0)
(106.2792317 -1.152004632 0)
(104.8747439 -1.200125786 0)
(105.1447062 -1.18762966 0)
(104.8788864 -1.182034561 0)
(104.5068879 -1.192038932 0)
(99.99898999 -1.234753513 0)
(100.8238197 -1.213456469 0)
(100.0323673 -1.217902106 0)
(99.70905931 -1.248983962 0)
(100.4707237 -1.314615784 0)
(100.4600398 -1.307253094 0)
(100.4644266 -1.295855218 0)
(100.3509842 -1.300550407 0)
(108.8348761 -0.1652201721 0)
(108.9195571 -0.08254417147 0)
(108.7874532 -0.3273369119 0)
(108.8905353 -0.2432943 0)
(108.6975096 -0.4834058422 0)
(108.8209039 -0.4027102785 0)
(108.5273101 -0.6333074484 0)
(108.7045426 -0.5508045654 0)
(108.5701657 -0.6279476832 0)
(108.4363777 -0.6794351322 0)
(108.5033434 -0.6650983156 0)
(108.4150079 -0.7045970318 0)
(108.1907231 -0.8114647533 0)
(108.2896429 -0.7707240551 0)
(108.2478953 -0.7941350691 0)
(108.1314848 -0.8315811686 0)
(107.7984644 -0.9240221013 0)
(107.9332505 -0.8878856492 0)
(107.8473542 -0.9041923494 0)
(107.6810453 -0.9440183904 0)
(107.6962825 -0.9358450938 0)
(107.292406 -1.010717932 0)
(107.3832033 -0.9931749154 0)
(107.3135092 -0.9990860848 0)
(107.2153138 -1.015637622 0)
(106.4710978 -1.090761402 0)
(106.5998125 -1.075325687 0)
(106.4865843 -1.077957769 0)
(106.3388001 -1.091809511 0)
(104.8912383 -1.134711893 0)
(105.167944 -1.124699372 0)
(104.8953833 -1.121198755 0)
(104.5192787 -1.129111295 0)
(100.1326905 -1.174088696 0)
(100.9216858 -1.154341812 0)
(100.1661446 -1.161681072 0)
(99.84658617 -1.18995102 0)
(100.4452126 -1.246880159 0)
(100.4476211 -1.24211402 0)
(100.4387228 -1.232929574 0)
(100.3206895 -1.235206295 0)
(108.9608445 -0.1610092892 0)
(109.070809 -0.08022567302 0)
(108.910086 -0.3182126978 0)
(109.038204 -0.2369079582 0)
(108.8148365 -0.4696601847 0)
(108.9631735 -0.3915966489 0)
(108.6488639 -0.6143486062 0)
(108.8376456 -0.5351098555 0)
(108.6900209 -0.6083508375 0)
(108.5646998 -0.6532326703 0)
(108.6259628 -0.645630616 0)
(108.5371376 -0.6795672862 0)
(108.303639 -0.7797004527 0)
(108.4048517 -0.7431403052 0)
(108.3584625 -0.7681742391 0)
(108.238708 -0.8014972901 0)
(107.8951545 -0.8878106387 0)
(108.0324605 -0.8554249496 0)
(107.9418899 -0.8746206562 0)
(107.7728587 -0.9075358201 0)
(107.7874764 -0.9028206262 0)
(107.3751303 -0.9697735311 0)