/*--------------------------------*- C++ -*----------------------------------*\
| =========                 |                                                 |
| \\      /  F ield         | OpenFOAM: The Open Source CFD Toolbox           |
|  \\    /   O peration     | Version:  v2012                                 |
|   \\  /    A nd           | Website:  www.openfoam.com                      |
|    \\/     M anipulation  |                                                 |
\*---------------------------------------------------------------------------*/
FoamFile
{
    version     2.0;
    format      ascii;
    class       surfaceScalarField;
    location    "3.06";
    object      meshPhi;
}
// * * * * * * * * * * * * * * * * * * * * * * * * * * * * * * * * * * * * * //

dimensions      [0 3 -1 0 0 0 0];
oriented        oriented;


internalField   nonuniform List<scalar> 
6430
(
0
0
0
0
0
0
0
0
0
0
0
0
0
0
0
0
-1.054982606e-05
0
1.400473336e-05
3.464948578e-05
3.988069117e-05
-8.052513275e-05
-0.0001798607097
8.633531284e-05
0.0002879496461
-0.0002327878781
-0.0007097434692
0.0002353353019
0.0008607924599
-0.0002426984774
-0.001261386883
0.000245284315
0.001357836516
-0.0001230911567
-0.001482269267
0.0001235580762
0.000738619396
0.0007431829514
-1.211252041e-05
-0.0003683533232
1.221384622e-05
0.0003682519974
0
0
0
0
0
0
0
0
0
0
0
0
0
0
0
0
-1.572400227e-05
0
1.289173412e-05
4.817410202e-05
4.449021374e-05
-9.511861052e-05
-0.0002171976999
9.211496718e-05
0.000339558123
-0.0002444763646
-0.0007941549046
0.0002406525551
0.0009532460038
-0.0002407705873
-0.001360128326
0.0002402875193
0.001453223694
-0.0001207322818
-0.001556772419
0.0001207322819
0.0007762560365
0.0007805163823
-1.119113519e-05
-0.0007762560365
2.107261198e-05
-9.881476789e-06
0.0003873697311
0.0003888863054
0
0
0
0
0
0
0
0
0
0
0
0
0
0
0
0
-7.971704175e-06
0
2.899269081e-06
2.281232662e-05
1.438005278e-05
-7.116124002e-05
-0.0001607033864
6.126583269e-05
0.0002710220191
-0.0002115162192
-0.0007096344887
0.0001962373581
0.0008708801196
-0.0002323463408
-0.001307972542
0.0002258646565
0.001419768028
-0.0001269945817
-0.001611474884
0.0001314525428
0.001628619551
-2.107261196e-05
-0.001631113406
3.690716702e-05
0.001631113406
-1.583455504e-05
0
0
0
0
0
0
0
0
0
0
0
0
0
0
0
0
-7.039599919e-08
0
0
1.286013198e-07
0
-2.944062399e-05
-5.602349954e-05
1.995097289e-05
0.0001262157038
-0.0001378358627
-0.0004678700286
0.0001159861009
0.000609212573
-0.0001897890622
-0.001037324191
0.0001722297424
0.001164419182
-0.0001321284199
-0.00145278605
0.0001271342489
0.001514752708
-3.936430538e-05
-0.001613109412
3.985022032e-05
0.001623329715
0
0
0
0
0
0
0
0
0
0
0
0
0
0
0
0
0
0
0
0
0
-1.978773187e-06
-1.294851223e-07
3.200563855e-07
9.770930611e-06
-5.353156704e-05
-0.0001699944426
3.632152805e-05
0.0002592650854
-0.0001092005856
-0.0005785891558
8.73284615e-05
0.0006878207611
-9.757565697e-05
-0.0009731501101
8.419762682e-05
0.001046078751
-3.708198878e-05
-0.001182167582
3.443623616e-05
0.001199146369
0
0
0
0
0
0
0
0
0
0
0
0
0
0
0
0
0
0
0
0
0
0
0
0
0
-3.951326028e-06
-4.46053701e-06
6.019001917e-07
2.074654636e-05
-3.105124991e-05
-0.0001445812709
1.779650879e-05
0.0002012533784
-4.188388242e-05
-0.0003755153581
2.927783943e-05
0.0004262687919
-2.185742519e-05
-0.0005299620468
1.681846904e-05
0.0005447041156
0
0
0
0
0
0
0
0
0
0
0
0
0
0
0
0
0
0
0
0
0
0
0
0
0
0
0
0
0
-9.203693617e-08
0
0
7.533979534e-07
-3.817002716e-06
-2.064181497e-05
5.959898723e-07
3.198592076e-05
-3.790750293e-06
-6.22922588e-05
1.276550534e-06
6.761419031e-05
0
0
0
0
0
0
0
0
0
0
0
0
0
0
0
0
0
0
0
0
0
0
0
0
0
0
0
0
0
0
0
0
0
0
0
0
0
0
0
0
0
0
0
0
0
0
0
0
0
0
0
0
0
0
0
0
0
0
0
0
0
0
0
0
0
0
0
0
0
0
0
0
0
0
0
0
0
0
0
0
0
0
0
0
0
0
0
0
0
0
0
0
0
0
0
0
0
0
0
0
0
0
0
0
0
0
0
0
0
0
0
0
0
0
0
0
0
0
0
0
0
0
0
0
0
0
0
0
0
0
0
0
0
0
0
0
0
0
0
0
0
0
0
0
0
0
0
0
0
0
0
0
0
0
0
0
0
0
0
0
0
0
0
0
0
0
0
0
0
0
0
0
0
0
0
0
0
0
0
0
0
0
0
0
0
0
0
0
0
0
0
0
0
0
0
0
0
0
0
0
0
0
0
0
0
0
0
0
0
0
0
0
0
0
0
0
0
0
0
0
0
0
0
0
0
0
0
0
0
0
0
0
0
0
0
0
0
0
0
0
0
0
0
0
0
0
0
0
0
0
0
0
0
0
0
0
0
0
0
0
0
0
0
0
0
0
0
0
0
0
0
0
0
0
0
0
0
0
0
0
0
0
0
0
0
0
0
0
0
0
0
0
0
0
0
0
0
0
0
0
0
0
0
0
0
0
0
0
0
0
0
0
0
0
0
0
0
0
0
0
0
0
0
0
0
0
0
0
0
0
0
0
0
0
0
0
0
0
0
0
0
0
0
0
0
0
0
0
0
0
0
0
0
0
0
0
0
0
0
0
0
0
0
0
0
0
0
0
0
0
0
0
0
0
0
0
0
0
0
0
0
0
0
0
0
0
0
0
0
0
0
0
0
0
0
0
0
0
0
0
0
0
0
0
0
0
0
0
0
0
0
0
0
0
0
0
0
0
0
0
0
0
0
0
0
0
0
0
0
0
0
0
0
0
0
0
0
0
0
0
0
0
0
0
0
0
0
0
0
0
0
0
0
0
0
0
0
0
0
0
0
0
0
0
0
0
0
0
0
0
0
0
0
0
0
0
0
0
0
0
0
0
0
0
0
0
0
0
0
0
0
0
0
0
0
0
0
0
0
0
0
0
0
0
0
0
0
0
0
0
0
0
0
0
0
0
0
0
0
0
0
0
0
0
0
0
0
0
0
0
0
0
0
0
0
0
0
0
0
0
0
0
0
0
0
0
0
0
0
0
0
0
0
0
0
0
0
0
0
0
0
0
0
0
0
0
0
0
0
0
0
0
0
0
0
0
0
0
0
0
0
0
0
0
0
0
0
0
0
0
0
0
0
0
0
0
0
0
0
0
0
0
0
0
0
0
0
0
0
0
0
0
0
0
0
0
0
0
0
0
0
0
0
0
0
0
0
0
0
0
0
0
0
0
0
0
0
0
0
0
0
0
0
0
0
0
0
0
0
0
0
0
0
0
0
0
0
0
0
0
0
0
0
0
0
0
0
0
0
0
0
0
0
0
0
0
0
0
0
0
0
0
0
0
0
0
0
0
0
0
0
0
0
-0.0003675412248
0.0003675430058
-1.211430135e-05
-0.0003865731749
0.0003865731749
-1.119113518e-05
-0.001463875927
-0.0001232460833
0.0007297091406
0.0007343217129
2.81207227e-05
0.0003666907989
-2.801435355e-05
-0.0007343383929
-0.001508877995
-0.0001200581953
0.0007365719853
0.0007716319233
2.631250803e-05
0.0003850587484
-2.6312508e-05
-0.0007716319233
0.0003702331082
-0.0007385819856
2.811627682e-05
1.210585371e-05
-0.000376833702
0.0003767993472
-1.207149884e-05
1.28781303e-06
0.0001874386514
-8.426952354e-07
-0.0001878837692
-4.677981104e-07
0.0001831761411
-0.000183369951
6.616080162e-07
-0.0008086205332
0.0008086205332
-2.107261197e-05
0.0001836202498
-3.413775131e-07
-0.0001837466704
2.928552255e-07
0.0001833577353
-3.034071965e-08
0.0003897896898
3.09843571e-06
-0.0003880088961
-2.963074527e-06
-1.916154932e-06
0.0001877288348
-0.0001879707884
1.529766579e-06
-0.0003778518448
1.217704672e-05
0.0003777806518
-1.48594198e-06
1.639769382e-06
0.0001875750074
7.157168943e-07
0.0003897916571
-1.592836966e-06
8.751527416e-07
5.63355199e-07
0.0001829056411
-1.164659541e-06
0.0001871173689
-0.0001845047451
-3.294997028e-06
-2.375847254e-06
0.0001860784874
-0.0001863051018
2.602461598e-06
-7.256220314e-06
-0.0003731885623
7.292558711e-06
0.0003731522239
7.29369683e-06
-0.0003767659984
-7.120790227e-06
0.0001881317074
0.0001884613844
-7.178182863e-06
-0.00036819321
7.274723491e-06
0.0003680966694
-0.0003720012013
0.0003719713689
-7.226387935e-06
0.0001852908444
-2.077813591e-06
-0.000185588878
-1.807169095e-06
0.0001818748025
-0.0001820007415
1.93310812e-06
-7.181704649e-06
-0.0003644942915
7.212895481e-06
0.0003644631007
-0.0003675171593
0.0003675192525
-7.180276012e-06
-0.0003630348569
0.0003630727535
-7.21960128e-06
0.0001814590148
-1.648585978e-06
-0.0001816175979
1.599827485e-06
0.0001812622213
-1.403034027e-06
1.828724496e-06
0.0001816459055
-0.0003777128211
7.429959981e-06
0.0001886421544
0.0001889344035
2.179214474e-05
-0.0004169793893
-1.29301601e-05
0.0001959499231
0.0002121674816
0.0002138337702
9.108207731e-06
-4.425414862e-06
-0.000218516563
5.103776877e-05
-9.287126865e-06
0.0001720831283
2.159707319e-06
-2.256445117e-06
-0.0001900620119
1.900771545e-07
0.0001882288419
-0.0001885954246
1.765054913e-07
2.294656971e-06
0.0001849146087
-1.91842129e-06
-4.595493753e-05
1.447098715e-05
-0.0001530207947
0.0001879474102
7.023699671e-07
-0.000188459703
0.0001886652197
-0.0002363219013
1.701744104e-06
2.69472061e-06
0.0001856784238
-2.038386233e-06
2.988115406e-07
2.169723749e-07
-0.001607246673
0.001612135429
-0.0001223111725
5.786410679e-05
-0.001612244596
0.0008036240626
-3.155159882e-05
-2.631250802e-05
-0.0007762560365
2.631250802e-05
2.107261196e-05
-0.0007901262282
0.0007901262282
-2.107261196e-05
0.0007901262282
5.356289854e-06
-5.356289866e-06
-0.0007901262282
0.0003888039871
-0.0003880885333
2.382981873e-06
0.0001895688879
-1.093940583e-06
-0.0001891705151
6.955678548e-07
-2.369190181e-06
-0.0001884105782
2.249896138e-06
0.0001885298722
2.277122645e-06
-0.000188398649
0.0001883053168
-2.18379052e-06
7.14425712e-07
0.0003888052783
1.174754501e-07
0.0007901262282
-1.174754534e-07
7.434995311e-07
-0.0001797718323
0.00017957486
-5.465271769e-07
-1.578028189e-06
-0.0001844660328
5.833783652e-07
0.0001854606826
0.0002565526074
-0.0002093522085
-3.809219115e-05
-0.0003563336826
5.960487224e-06
0.0001971175019
0.0001750478382
-0.0003865749048
6.313131826e-06
0.0003862164767
-5.954703753e-06
-0.0001885512521
2.402923788e-06
0.000188425451
2.641124013e-06
-0.0001898317477
0.0001898087225
-2.618098745e-06
0.0001890402562
2.497819432e-06
-2.153637231e-06
-0.0001893844384
8.522763224e-07
2.058152309e-06
-1.980166345e-06
0.0001889622702
-4.26242452e-05
0.0001871599601
6.97521411e-06
-0.000151510929
0.0003865755447
-3.576723678e-06
3.936938257e-06
-0.0003869357593
-0.0001848822298
1.622455981e-06
0.0003075903762
1.255779526e-06
-0.0001850488845
0.0001848048746
-1.011769622e-06
4.333253219e-05
-1.129166747e-05
0.0001575280231
-2.735328213e-06
-0.0001863987962
2.701075793e-06
0.0001864330486
-0.0001873546028
0.0001875707545
-2.585341863e-06
0.0001894934382
-2.124797402e-06
-0.0001884625814
0.0001853023989
-1.349916163e-06
-0.000185533553
1.581070325e-06
-2.521695007e-06
-0.0001858402071
2.546797247e-06
0.0001858151048
-0.0001859418207
0.000185843632
-2.637139497e-06
-0.0001798921437
9.407860762e-07
0.0001796948572
-0.000183891331
0.0001843571545
-2.043851736e-06
0.0001895417491
-0.0001900574988
3.013569153e-06
-0.0001901627428
2.597120976e-06
0.0001902067458
3.128371751e-07
-0.0002119281326
0.0002132597914
-1.644495901e-06
0.0001818092215
-3.05057192e-05
9.746287196e-06
-0.0001610497895
0.0001898081078
-0.0002361296166
3.697263655e-06
2.88553183e-06
0.0001887143695
7.640302239e-06
-4.275305999e-05
0.0001880237954
-0.0001529110376
-1.589659651e-08
0.000188507401
-1.331544396e-06
1.795172323e-06
0.0001891351123
-1.555425771e-06
-0.0001893748589
1.465786071e-06
0.0001850923923
2.5851026e-05
-0.0002591395381
9.399155974e-07
0.0001883323871
-0.000188338641
-9.33661747e-07
0.0001859287557
-2.485523079e-05
-0.0001534332227
0.0001883038389
1.795811583e-06
-0.0001891597349
0.0002359817477
-3.155777361e-06
-2.310593161e-06
-0.0001836461348
2.369634802e-06
0.0001835870931
-0.0001856231702
0.0001855943073
-2.492832077e-06
-1.084951727e-06
-0.000185313849
-1.48005414e-06
-0.0001838530687
8.67090045e-07
-2.458240832e-06
-0.0001833010055
2.398825213e-06
0.0001833604211
-0.0001837757018
0.0001838068416
-2.341733001e-06
1.113388506e-06
3.859728441e-07
0.000181858374
-0.0001840873768
1.171301799e-05
0.0001734877473
-8.90490462e-09
-0.0001841088126
1.93381161e-06
-0.000187949832
0.0001876557898
0.0001832670218
7.35001275e-07
-0.0001834386679
-9.09909221e-07
1.095302129e-06
0.0001830816289
0.0001823817047
6.057563491e-07
-0.0001877952921
0.0001860248762
-2.581670649e-06
-0.0001820904212
2.580398676e-06
0.0001820916932
-0.0001829814623
0.0001830740846
-2.550863097e-06
-1.89728482e-06
-0.0001834741003
-1.141505018e-06
-0.0001800496439
1.299005224e-06
-2.461888342e-06
-0.000180229538
2.491086266e-06
0.0001802003401
-0.0001818021007
0.0001817713629
-2.550932865e-06
-1.158758235e-06
1.400555356e-06
0.0001810204242
-0.0001808076446
0.0001805985103
-9.496238869e-07
-0.0001810387964
-1.171882279e-06
0.0001821556924
2.020761406e-06
-0.0001823477294
-1.672465181e-06
2.0369628e-06
0.0001817911948
0.0001813739957
-0.0001984815748
0.000197446406
-3.390246034e-06
1.491323986e-06
-2.43606207e-06
-0.0001975368367
-1.477365194e-06
-0.0002155478739
0.0001963009208
2.357356773e-05
-0.0002198744886
-3.22622522e-06
0.0001913855043
-0.0001888478917
1.7444687e-06
3.838308653e-07
0.0001894083803
-2.423614986e-06
0.0001826006544
1.632182108e-06
-1.410272724e-06
1.836744494e-06
0.0001844881369
-0.0001849062924
-1.22372974e-06
0.0001847197494
-1.67548188e-06
-0.0001851492318
-2.501517092e-06
-0.0001609020325
2.345485623e-05
-0.0002597767576
0.0001847242475
-9.034052482e-06
-0.0001522353388
-1.079042892e-06
0.0001875050345
0.0001866265421
3.080125003e-06
-0.0001870119465
-2.150554991e-06
4.552494085e-06
0.000184224603
0.0001853646133
-1.579786214e-06
2.336398179e-06
3.680725078e-07
-0.0001795484027
0.0001795006056
5.509576391e-07
-0.0001794001198
0.0001792172347
-0.0002311530192
-2.059876352e-05
0.0002517517827
0.0001850539522
-0.0001844794787
4.326881049e-05
0.0001534981597
-2.423526106e-06
-0.0002001161489
1.402545158e-07
0.0002002887316
3.267521275e-06
-0.0001921125159
0.0001924730607
-3.628066149e-06
0.000200301735
6.895043206e-06
-1.186942611e-05
-0.0001953273521
-0.0001889698909
0.0001886232692
-1.807015583e-06
2.127100001e-06
-1.827532896e-06
-0.000189269458
2.427238053e-06
-0.0001896845764
0.0001885769145
-2.576984561e-05
0.0001859422971
-0.0001531972374
0.0002383152063
-0.0002640850519
6.210585292e-06
0.0002127227028
-1.863155306e-05
-5.810021288e-06
0.0001960315524
9.005818472e-06
-0.0001992273496
0.0001684246816
-0.0002021651401
3.234739364e-06
-1.179075123e-06
1.194508669e-06
0.0001847894411
-0.0001840708719
0.0001839870989
-0.0001843476402
-0.00018866788
0.0001779819689
9.359224989e-07
-8.858744129e-07
0.0001805484622
1.019137611e-06
0.0001809372091
7.348765262e-07
-0.0001795195798
0.0001793356609
-0.0001799747025
0.0001798237046
-2.420790027e-06
0.0001843544184
-0.0001829838947
0.0001826000675
-0.000183006985
4.012083641e-06
-1.446619338e-06
0.0001800346032
0.0001677677386
1.168171329e-06
0.0001812249619
0.0001815127468
2.588850315e-06
-0.000190219111
0.0001923719079
-0.0001922191197
0.0001919952311
-0.0001771065891
-1.440524253e-06
0.0001882934005
-3.640643634e-05
5.071556438e-06
-0.0001457717092
-1.155305009e-06
2.609639717e-05
-0.0002622260138
0.0001826313523
-0.0001514633986
0.0001848880917
0.0001916545377
0.0001907060686
4.856077699e-06
-6.044778089e-07
0.0001901313697
1.179176703e-06
-1.071206778e-06
0.0001884905244
0.0001850692884
-0.0001852789842
-1.209456018e-06
0.0001850550146
0.000185077445
-0.00015583554
8.022968509e-06
-4.351104175e-05
0.0001866318884
-0.0001511438152
-2.436588044e-05
0.0001853773513
-0.0001529885024
-3.74979427e-06
0.0001886073432
-0.000236476625
0.0001892157889
-0.0002613318557
0.0002366987178
-0.0002610645982
-0.0001862610149
0.0001869777836
-4.436905248e-05
-0.0001509260149
3.169930383e-06
-2.193651355e-05
0.0002579182613
-0.0001880676654
0.000170683646
-0.0001881433178
-0.0001722600563
0.0002796697025
-8.05919296e-05
0.0006955708295
0.0002034799064
-0.0001997053247
-0.0005463572855
0.0008449209433
-0.0002311548445
0.001240746356
0.000258697112
-0.0002578286306
-0.001123286909
0.001336939929
-0.0002422183436
0.000149265253
-0.0001500266614
-0.001450797075
-0.0002072295664
0.0003238355054
-9.31756999e-05
0.0007586463374
0.0002153218684
-0.0002138691694
-0.0006053393695
-0.0005524866395
0.0002050295742
0.0009119358146
-0.0002435566946
0.001309128379
0.0002600307398
-0.0002609416195
-0.001193145046
-0.001142639492
0.00025801909
0.001401878139
-0.0002421349867
0.0001438939267
-0.0001448223002
-0.001502742673
-0.001470759088
0.0001484788326
0.0001277713053
-0.001505399608
0.0007478198696
0.0007533665093
4.856189395e-05
0.000753183774
-4.855779707e-05
-0.0007531878708
-4.854818589e-05
0.0007385816166
-0.0007385847175
4.85512868e-05
1.21074236e-05
-0.0003720983718
0.0003720638357
-1.207288743e-05
8.470232774e-06
-8.438405022e-06
-0.000372033029
-8.416341201e-06
-0.0003681891756
8.412306813e-06
-0.0001818705891
0.0002977535745
-7.985799533e-05
0.0007468969301
0.0001813518067
-0.0001941406742
-0.0005864518586
-0.0006343226244
0.000211284702
0.0009090090097
-0.0002241106798
0.001339115349
0.0002433554888
-0.0002504731433
-0.001211201247
-0.001242358817
0.0002584672619
0.001445071649
-0.000236566625
0.0001570144808
-0.0001530912608
-0.001579835359
-0.001551723262
0.0001453707184
0.001575628343
0.0001207581723
-0.001575624608
9.97739704e-05
0.0007901262282
-5.250532785e-05
-4.726864257e-05
0.0007855021151
-4.726864257e-05
0.0007762560365
-0.0007762560365
4.726864256e-05
2.107261196e-05
-0.0007805163823
0.0003896807138
0.0003908356685
7.262045696e-06
0.0003908356685
-7.262045703e-06
-0.0003908356685
-7.262622343e-06
0.0003873703077
-0.0003873697311
7.2620457e-06
-8.216774244e-05
0.0001649252236
-3.9859937e-05
0.0005393200972
0.0001101494659
-0.0001299395171
-0.0003984751503
-0.000551477504
0.0001661024837
0.0006884959778
-0.0001589147811
0.001126606917
0.0001882194892
-0.000206082159
-0.0009877299796
-0.001176038521
0.0002337020024
0.001252157438
-0.0002046969444
0.001523265552
0.0001532699286
-0.0001581503171
-0.001451680367
-0.00157211205
0.0001596145416
0.001576764202
-0.0001344124129
0.001652292581
6.215013921e-05
-6.113531139e-05
-0.001638328441
-0.001631113406
5.786410681e-05
0.001658828888
-3.838479388e-05
-3.748082003e-06
2.847493915e-05
-5.804400797e-06
0.0002401891886
3.598608307e-05
-5.230418214e-05
-0.0001496951634
-0.000336663829
9.011367321e-05
0.0003453178679
-7.304447858e-05
0.0007020814037
0.0001003744496
-0.000123364034
-0.0005809699243
-0.0008993597008
0.0001680695664
0.0008195552647
-0.0001312134577
0.001116998404
0.0001069674232
-0.0001218662701
-0.001029565226
-0.001373708263
0.0001454574079
0.001190647331
-0.0001095267219
0.001324725389
5.395718695e-05
-5.790182584e-05
-0.001294469692
-0.001592906955
6.199132244e-05
0.001340957356
-3.882612409e-05
0
0
0
2.263221216e-05
8.314471184e-07
-4.413360364e-06
-4.317087915e-06
-9.635689555e-05
2.225842417e-05
5.769159433e-05
-1.113752544e-05
0.0002347559608
2.404208721e-05
-3.924597115e-05
-0.0001669698237
-0.0004679490354
7.813198882e-05
0.0003067774571
-4.747242878e-05
0.0005164086854
4.241145892e-05
-5.780110247e-05
-0.0004505007193
-0.0008878631693
9.083257225e-05
0.0005751509157
-5.567788709e-05
0.0006922446792
2.877492968e-05
-3.595714615e-05
-0.0006642406601
-0.001150976865
4.885111334e-05
0.0007083179321
-2.665599542e-05
0
0
0
0
0
0
0
0
0
0
0
4.438946189e-06
0
-6.470441609e-07
-2.939025355e-07
-9.358006463e-05
1.237428831e-05
1.340567201e-05
-2.209498782e-06
6.906096095e-05
2.796704086e-06
-8.525386695e-06
-4.767692949e-05
-0.0003195028934
2.870629255e-05
9.065348746e-05
-9.830646523e-06
0.0001408930947
4.450553569e-06
-9.05465553e-06
-0.0001278620826
-0.0005047797279
2.161545875e-05
0.0001490196319
-7.42512137e-06
0
0
0
0
0
0
0
0
0
0
0
0
0
0
0
0
0
0
0
0
0
0
0
-1.107660701e-05
2.088263161e-07
0
0
0
0
0
0
-5.40131484e-05
1.38826168e-06
0
0
0
0
0
0
0
0
0
0
0
0
0
0
0
0
0
0
0
0
0
0
0
0
0
0
0
0
0
0
0
0
0
0
0
0
0
0
0
0
0
0
0
0
0
0
0
0
0
0
0
0
0
0
0
0
0
0
0
0
0
0
0
0
0
0
0
0
0
0
0
0
0
0
0
0
0
0
0
0
0
0
0
0
0
0
0
0
0
0
0
0
0
0
0
0
0
0
0
0
0
0
0
0
0
0
0
0
0
0
0
0
0
0
0
0
0
0
0
0
0
0
0
0
0
0
0
0
0
0
0
0
0
0
0
0
0
0
0
0
0
0
0
0
0
0
0
0
0
0
0
0
0
0
0
0
0
0
0
0
0
0
0
0
0
0
0
0
0
0
0
0
0
0
0
0
0
0
0
0
0
0
0
0
0
0
0
0
0
0
0
0
0
0
0
0
0
0
0
0
0
0
0
0
0
0
0
0
0
0
0
0
0
0
0
0
0
0
0
0
0
0
0
0
0
0
0
0
0
0
0
0
0
0
0
0
0
0
0
0
0
0
0
0
0
0
0
0
0
0
0
0
0
0
0
0
0
0
0
0
0
0
0
0
0
0
0
0
0
0
0
0
0
0
0
0
0
0
0
0
0
0
0
0
0
0
0
0
0
0
0
0
0
0
0
0
0
0
0
0
0
0
0
0
0
0
0
0
0
0
0
0
0
0
0
0
0
0
0
0
0
0
0
0
0
0
0
0
0
0
0
0
0
0
0
0
0
0
0
0
0
0
0
0
0
0
0
0
0
0
0
0
0
0
0
0
0
0
0
0
0
0
0
0
0
0
0
0
0
0
0
0
0
0
0
0
0
0
0
0
0
0
0
0
0
0
0
0
0
0
0
0
0
0
0
0
0
0
0
0
0
0
0
0
0
0
0
0
0
0
0
0
0
0
0
0
0
0
0
0
0
0
0
0
0
0
0
0
0
0
0
0
0
0
0
0
0
0
0
0
0
0
0
0
0
0
0
0
0
0
0
0
0
0
0
0
0
0
0
0
0
0
0
0
0
0
0
0
0
0
0
0
0
0
0
0
0
0
0
0
0
0
0
0
0
0
0
0
0
0
0
0
0
0
0
0
0
0
0
0
0
0
0
0
0
0
0
0
0
0
0
0
0
0
0
0
0
0
0
0
0
0
0
0
0
0
0
0
0
0
0
0
0
0
0
0
0
0
0
0
0
0
0
0
0
0
0
0
0
0
0
0
0
0
0
0
0
0
0
0
0
0
0
0
0
0
0
0
0
0
0
0
0
0
0
0
0
0
0
0
0
0
0
0
0
0
0
0
0
0
0
0
0
-8.38518953e-06
-0.000367548311
-8.426120555e-06
-0.0003644571138
8.388942886e-06
-1.21551765e-05
-0.0003644150555
1.211971567e-05
0.0003644505163
-7.263661263e-06
-0.0003865738658
-8.537217701e-06
-0.0003550628947
7.266429794e-06
-1.299904108e-05
-0.0003534691775
1.119113519e-05
0.0003552770834
-4.8862103e-06
4.88722393e-06
0.0007343560183
-4.858537488e-05
-0.0007343188294
0.0007202420088
-0.0007202394822
4.854923609e-05
-0.001445037803
0.0007202363056
0.0007248008576
0.0003604764102
-0.000720258933
2.800752215e-05
4.342781415e-05
0.0007202439188
4.339036766e-05
0.0007343583447
-4.339269404e-05
0.0007716319233
-4.726864256e-05
-0.0007716319233
0.0007625934883
-0.0007626304826
4.859888833e-05
-0.001543985895
0.0007638743629
0.000787824642
-2.818749616e-05
0.0003798824934
-0.0007627612797
3.321443763e-05
-4.339853651e-05
4.326078453e-05
0.0007627312402
4.202955177e-05
0.0007716319233
-4.202955177e-05
4.339163142e-05
0.0007385803529
0.0007531806094
-4.339537199e-05
0.0003761280879
-2.793978114e-05
-0.000753209505
8.468001874e-06
-8.434929376e-06
-0.0003767990709
-0.000373188004
8.469674433e-06
-0.0003731849282
1.21066554e-05
0.0003731856964
-0.0001879531924
-6.847949491e-07
1.037214046e-06
-9.461968496e-07
-0.0001880442096
1.299751189e-06
-0.0001881463063
1.20287309e-06
-1.078563615e-06
-0.0001834942605
0.0001836325581
-0.0001837548534
1.32516837e-06
8.554982045e-07
0.0008086205332
5.356289853e-06
-5.35628987e-06
-0.0008086205332
0.0007947503414
-0.0007947503414
5.356289859e-06
-0.0007947503414
2.107261196e-05
0.0007947503414
1.174754513e-07
0.0007947503414
1.174754541e-07
0.0008086205332
-1.174754574e-07
-0.0003877308241
-4.525840639e-06
-0.0003908357022
4.525346439e-06
-0.0001840061924
-4.43997714e-07
1.016015646e-06
-1.112096816e-06
-0.0001839101112
-0.0001838092184
-0.0001801123739
0.0001800811617
-2.430676126e-06
-1.01719161e-06
-0.0001798961457
-0.0003630542632
0.000363058018
-1.215893133e-05
-8.396358903e-06
-0.0003630646185
0.0001995197002
-0.0001966791623
4.054505309e-06
-0.0001927504461
2.905883257e-06
0.0001931120841
-0.00038693502
4.05109174e-06
-2.548853224e-06
-2.576114616e-06
1.563490731e-06
-0.0001882345279
0.000188227081
-0.0001884911232
-0.0004141548692
0.0004148349914
-1.367916328e-05
-8.618275292e-06
-0.0004168983317
-0.0003777467804
8.501961231e-06
0.0003880097861
-1.67037619e-06
1.201539585e-06
2.250707634e-06
0.0001948923415
-0.0001981016794
-2.600683346e-06
2.301785624e-06
0.0002034284998
2.503077045e-06
-2.407588395e-06
-0.0001864005904
0.0001870693372
-0.0001869700926
2.40383245e-06
2.659852301e-06
0.000374134331
7.434382374e-06
-0.0003742761546
-6.15938791e-06
2.804248914e-06
0.0001868829737
3.251893493e-06
-6.186688e-06
0.0001867807278
2.743846496e-06
-2.714881484e-06
-0.000188427614
-0.0001883183279
2.711998634e-06
-0.0003762685939
0.000188248179
0.000188334007
0.0003703534283
7.233120752e-06
-0.0003703118256
-6.254103858e-06
6.069740471e-06
0.0001849146215
-5.749176769e-06
0.0001839456076
-5.918735349e-06
0.0001857615955
-0.0003715447597
0.0001858555577
-0.0003715380268
-0.0001854143716
-1.812673734e-06
2.247782601e-06
-2.089705837e-06
-0.0001855724484
-0.0001857486838
2.080035024e-06
-2.052822601e-06
-0.0001820279539
0.0001824097208
-0.0001824428137
2.113127928e-06
1.995099514e-06
0.0003656484403
7.20917355e-06
-0.0003656447184
-6.008111813e-06
5.979946598e-06
0.0001826951432
-6.045109576e-06
0.0001824096772
-5.853312088e-06
0.000183847686
-0.000366736574
0.0001835622031
-0.0003667076765
0.0003603627703
7.158269047e-06
-0.0003604253917
5.855932049e-06
0.0001801566795
-6.118954176e-06
0.0001813444974
-0.0003612806315
0.0001807880713
-0.0003613419637
-0.0001812305282
-1.456854152e-06
1.92673082e-06
-1.86940177e-06
-0.0001812878573
-0.0001817436897
7.672731844e-06
-0.0003797082603
0.0001896084723
0.0001898570162
2.955658947e-06
-2.927306063e-06
-0.0001898601006
-0.0001886474513
2.840045711e-06
1.688314283e-06
-2.349055369e-06
-0.0002112673915
-0.0001901215064
2.914422575e-06
-0.0003868514058
0.0001901178645
0.0001914761131
-0.0001865018725
-1.902771887e-06
1.17019628e-06
-8.556611222e-07
-0.0001868164076
-0.0001831760108
-5.71580487e-06
-2.382439172e-07
1.333436961e-07
0.0001894458016
4.473241353e-07
9.360310716e-07
0.000188686276
-0.0001886392447
1.248745548e-06
0.0001880928691
-2.809839637e-07
8.575281944e-07
-2.163973592e-06
-9.272713153e-07
-9.977397039e-05
0.001612244596
0.0001001025184
-0.001594124796
0.001594124796
-0.001593814729
-2.631250802e-05
-0.0007947503414
2.631250799e-05
7.881852169e-05
-4.202955178e-05
0.0007947503414
0.0007993744546
-3.678896991e-05
7.881852166e-05
4.202955176e-05
0.0007762560365
0.0007901262282
-4.202955177e-05
-2.631250802e-05
-0.0007901262282
-1.583455505e-05
0.0007901262282
1.583455503e-05
-0.000785502115
0.000785502115
-8.572509347e-06
-0.000785502115
-0.000785502115
-2.023321706e-06
0.0007855021031
-3.33295621e-06
1.059546426e-05
-5.952387301e-06
-4.643076946e-06
1.059546424e-05
5.952849643e-06
0.0003877305899
0.0003908356685
-5.952387303e-06
0.0003908356087
-2.023261989e-06
-0.0003908356685
1.048989586e-06
-0.0001888164138
-1.403090937e-06
0.0001886571071
-0.0001885543144
0.0001884925753
2.152854059e-06
-0.0001883955332
-1.609205062e-06
1.547465932e-06
-1.895746637e-06
-1.574048263e-06
1.733058771e-06
-0.0001880707919
-0.0001881017284
7.136175915e-07
0.0003908356644
-7.136732028e-07
-3.215608029e-06
3.215663644e-06
-0.0003908357579
-0.0003880913988
-3.216148995e-06
5.121478168e-06
-5.121478176e-06
-0.0007855021369
1.905858189e-06
5.961083557e-07
-3.904443224e-07
5.651844749e-07
-0.0001797212745
-0.000179883695
-9.048923455e-06
-0.0002017806502
0.0001465221276
-0.0001638802938
8.309242702e-06
8.256043338e-05
2.586950311e-05
0.00038354878
6.316654081e-06
-0.0003839049468
5.7267837e-06
0.0001911005123
-2.499545108e-06
-2.89148681e-06
-0.000199592436
1.164601383e-06
-5.361510971e-06
4.642967702e-06
-0.0003854230051
0.0001930378317
-0.0003850610547
0.000188716767
2.492423496e-06
-0.0001888062668
-1.92398182e-06
2.149625678e-06
-2.341318647e-06
2.465464688e-06
-0.000189461151
-0.0001895868262
-1.773406336e-06
-0.0003861394945
4.656101687e-06
0.0003854203311
-3.339124889e-06
4.005261325e-06
-0.0001951856098
3.272320321e-06
-2.265098047e-06
-2.081781808e-06
0.0001680828484
0.0001938892531
6.147560607e-06
-3.445894772e-06
5.213002116e-05
0.0003110136444
-0.000193178781
-0.0001618628881
2.049854679e-05
-0.0001053895454
0.0001398993392
-5.500834063e-05
0.0001603113862
-0.0001162392716
0.0001868420549
2.639748704e-06
-2.585752122e-06
2.457714391e-06
-2.553293908e-06
-2.206506325e-06
0.0001878815142
-0.0001869373805
0.0001871885886
-0.0001876082629
1.984158106e-06
1.897601221e-06
-0.0001857248694
-1.706284853e-06
0.0001855105876
-0.0001857026922
0.0001858279362
2.574418749e-06
-2.206675341e-06
2.33191936e-06
-2.116439938e-06
-2.458345728e-06
-0.0001856988748
0.0001801838645
-0.0001804149607
-7.40461853e-07
0.0001918557553
2.305588038e-06
-0.0001915642223
-2.453099456e-06
2.089735033e-06
-1.111189755e-06
-1.176892744e-06
-0.0001965582914
-0.0001958971993
-6.939600152e-07
0.000189282651
-8.128990615e-08
-0.0001894668304
0.0001899520471
-0.0001895816906
0.0001889622959
8.176806689e-07
7.254727307e-07
2.086407184e-07
0.0001876980573
0.0001880131411
0.0001838802714
2.434970971e-06
-1.81201346e-06
1.93743145e-06
-1.719180821e-06
-2.026719622e-06
0.0001855045869
-0.0001848567604
0.0001847674722
-0.0001845770937
1.515546871e-06
1.396443468e-06
-0.0001835436475
-1.705864674e-06
0.0001840563864
-0.0001837720397
0.000183618512
2.342516336e-06
-1.936727244e-06
1.783199485e-06
-2.119953628e-06
-1.721557586e-06
-0.0001838484693
0.0001824096078
2.580468085e-06
-2.330334095e-06
2.297128248e-06
-2.266594865e-06
-2.238317971e-06
0.0001831924489
-0.0001827247482
0.0001827835585
-0.0001829091703
1.987516044e-06
1.745167399e-06
-0.0001801406321
-1.65417927e-06
0.0001805728096
-0.000180697044
0.0001807240629
2.55509473e-06
-2.151100689e-06
2.178119578e-06
-2.091392638e-06
-2.238921629e-06
-0.0001813486593
9.907209853e-07
-0.00018911314
0.0001890257588
-0.000188890699
0.0001853294002
-5.747770071e-08
-2.139503915e-07
-3.347348346e-06
2.956510419e-07
-8.710074407e-07
-0.000189868105
0.0001705754065
2.57297754e-06
-0.0001730081296
2.66881144e-06
4.026301306e-06
-5.440130292e-06
0.0001931910205
4.722170542e-06
-0.0001900454237
0.0001886315947
-0.0001886373169
0.0002593283241
8.303520579e-06
6.16718896e-06
1.153146687e-05
0.0002049040363
-3.712800431e-06
-0.000299141434
0.0002052833555
-0.0001982064149
5.335449024e-05
0.0001538577431
-1.185706651e-05
1.893400709e-05
-6.18037975e-06
-4.300905898e-05
0.0001158242873
0.0001724135169
0
0
0
0
0
0
2.607705505e-05
3.094506441e-05
4.68393598e-05
-4.642638446e-05
-8.821598988e-05
0
0
0
0
0
0
0
0
4.409587027e-05
4.595607182e-05
5.808381397e-05
-5.646674611e-05
-0.0001133156252
-9.418031236e-05
5.115816228e-05
0.0003074373491
9.012149978e-05
-0.0001940704961
-0.0001264318668
0.0001310020347
0.0004389017272
-0.0001193543843
0.0004138860618
0.0008851513711
-0.0007337829414
0.0002404864268
-0.0002552286741
0.0002598440312
0.001030924811
-0.00025393352
0.001007148701
0.001384711174
-0.001282770911
0.000242747372
-0.0002166039669
0.0002156528917
0.001455013871
-0.0002169199424
0.001428747965
0.0003703028812
1.214407326e-05
-1.088360688e-05
1.088151559e-05
0.0003703049725
-1.085192748e-05
0.000368220318
0
0
0
0
0
0
0
0
3.867135717e-05
3.120482046e-05
4.022424334e-05
-4.660134811e-05
-9.179209366e-05
-0.0001186967691
5.579580954e-05
0.0003325897895
8.695126577e-05
-0.0002107223796
-0.0001329031924
0.0001267012406
0.0004737876965
-0.0001364855592
0.0004806005953
0.000950312431
-0.0007894406521
0.0002338530554
-0.0002591827339
0.0002532014948
0.001104007214
-0.0002624930974
0.001104796186
0.001460659967
-0.001364502559
0.0002390374054
-0.0002131012193
0.0002137196361
0.001528897149
-0.0002124868161
0.001517900256
0
0
0
0
0
0
0
0
7.028414028e-06
2.011599131e-06
1.212656901e-05
-1.86179425e-05
-2.710660064e-05
-7.682996886e-05
3.31387612e-05
0.0002390102792
5.065635796e-05
-0.0001361108519
-9.503938513e-05
8.148639924e-05
0.0003645989093
-0.0001074096661
0.0004031561936
0.0008206635873
-0.000661739901
0.0001785675668
-0.0002186769433
0.0002017674955
0.0009777396023
-0.0002329614807
0.001028469444
0.001379524174
-0.00126214531
0.0002167237752
-0.0002093758851
0.0002037259981
0.001475793628
-0.0002125347719
0.001508312497
0.001631347122
-0.001600644596
0.0001340888841
-0.0001040230569
0.0001077893784
0.001645127854
0.001630925333
0.001649224616
-0.001649082505
3.701951185e-05