/*--------------------------------*- C++ -*----------------------------------*\
| =========                 |                                                 |
| \\      /  F ield         | OpenFOAM: The Open Source CFD Toolbox           |
|  \\    /   O peration     | Version:  v2012                                 |
|   \\  /    A nd           | Website:  www.openfoam.com                      |
|    \\/     M anipulation  |                                                 |
\*---------------------------------------------------------------------------*/
FoamFile
{
    version     2.0;
    format      ascii;
    class       surfaceVectorField;
    location    "2.57";
    object      Uf;
}
// * * * * * * * * * * * * * * * * * * * * * * * * * * * * * * * * * * * * * //

dimensions      [0 1 -1 0 0 0 0];


internalField   nonuniform List<vector> 
5975
(
(103.84999 -29.53913382 -1.959723789e-19)
(103.1438736 -29.78761972 -3.159775772e-19)
(103.1570681 -29.14516867 -1.459638536e-19)
(103.8585293 -29.02065529 -1.718479068e-19)
(102.9419648 -29.61417986 1.116680045e-19)
(107.4417719 -20.13325807 -5.446709834e-19)
(108.1605713 -19.61752666 2.274962759e-19)
(106.5685802 -18.61258675 2.886854714e-19)
(107.4343462 -18.22749346 2.920270558e-19)
(106.8731826 -19.78700191 1.199687797e-18)
(108.2216006 -18.93911315 2.209426291e-19)
(107.7365956 -13.43578697 1.581735313e-19)
(107.2798429 -13.98078084 -1.7032079e-19)
(106.6411754 -13.30358058 -6.247192391e-19)
(107.0502435 -12.84560811 -3.609889005e-19)
(106.4059306 -9.688084947 1.798400046e-19)
(106.1845116 -10.12559114 -4.307751579e-19)
(105.6629941 -9.753027753 1.685539277e-19)
(105.8651478 -9.378188775 9.244670994e-22)
(104.9825081 -7.106420392 3.286688523e-19)
(104.8805778 -7.463302865 1.312096998e-20)
(104.4471013 -7.226968797 1.981134437e-20)
(104.5475622 -6.916739734 7.971045838e-19)
(103.5354307 -5.489929511 1.496831589e-19)
(103.5575392 -5.202257738 3.950866426e-21)
(103.1663465 -5.327465476 -7.39891624e-20)
(103.1972085 -5.075075976 -1.063298831e-19)
(102.105868 -3.648059413 -1.567902538e-20)
(102.1096256 -4.074728392 1.189302832e-20)
(101.5711926 -3.851373027 -3.346934874e-20)
(101.6170768 -3.502889783 -3.398750395e-20)
(101.2103848 -2.672817801 2.602564796e-22)
(101.2004827 -3.003821154 0)
(100.7989428 -2.839816116 -1.131686006e-20)
(100.8556094 -2.564184875 0)
(99.91643315 -1.579011516 6.00168555e-21)
(99.78653423 -1.976412183 -9.745335623e-21)
(100.2536394 -2.269024404 0)
(100.5051721 -2.196906695 0)
(99.58941136 -1.012801251 7.117047801e-21)
(99.42809191 -1.337393336 1.451063297e-20)
(99.39673446 -0.4946533741 -2.470189376e-21)
(99.1980969 -0.7803856649 1.105877048e-21)
(99.07972525 -0.256998919 6.397689964e-21)
(96.87113137 -19.67837354 1.368970818e-19)
(95.94768567 -19.19839546 -3.498163695e-20)
(96.84671387 -18.37570211 -8.798852313e-20)
(97.44918173 -18.93995204 2.920741122e-20)
(95.97484727 -18.72543267 1.928284091e-19)
(102.051017 -16.02969453 1.192790963e-19)
(102.8558559 -16.0578287 1.858134722e-20)
(102.0364911 -15.08098385 5.3155309e-20)
(102.6494007 -15.14155515 -1.552519935e-19)
(103.8798039 -12.40260163 1.263311164e-18)
(103.4430613 -12.59853861 3.971881105e-19)
(103.1372363 -11.99105638 7.067419579e-19)
(103.4969952 -11.83796772 5.75085516e-19)
(103.6211227 -9.563468026 1.41379539e-19)
(103.3603615 -9.805174215 0)
(103.0224239 -9.405670197 -2.291247901e-19)
(103.2454862 -9.202359453 2.628764101e-19)
(102.9302828 -7.342189745 1.208378615e-19)
(102.7786294 -7.584058313 -3.984980993e-19)
(102.4524147 -7.305648201 -2.718022082e-19)
(102.5888406 -7.089976304 -2.278243528e-20)
(101.9385051 -5.763860149 3.008602644e-20)
(102.010167 -5.536639601 -2.919071825e-20)
(101.6363188 -5.558460805 -1.128436454e-19)
(101.7048042 -5.363908143 2.921453442e-20)
(101.0266486 -3.987571803 -4.619477207e-20)
(100.9395552 -4.355289804 -2.427261699e-20)
(100.484518 -4.063033486 -4.316179109e-20)
(100.5933793 -3.77498809 -1.785592277e-20)
(100.3740697 -2.962664343 -2.898333131e-20)
(100.2959612 -3.261110802 1.043937565e-20)
(99.94400141 -3.047094329 -3.06257125e-20)
(100.0463112 -2.801601215 -1.592640724e-20)
(99.30934148 -1.724691933 -8.626728422e-22)
(99.12610921 -2.091876215 -2.780082942e-20)
(99.51905981 -2.453915092 -7.086640403e-21)
(99.77719651 -2.404229504 -4.281028229e-21)
(99.04774441 -1.10768965 9.575885521e-21)
(98.84727719 -1.424496081 1.796756113e-20)
(98.89065246 -0.5416808812 9.577018939e-21)
(98.66433615 -0.8342695898 3.729982755e-22)
(98.56888509 -0.2747482038 2.258271931e-21)
(98.18895147 -12.8466839 1.083136781e-19)
(97.86979009 -12.05630142 1.08326258e-19)
(98.48567994 -11.90525154 -5.08681291e-21)
(98.71311464 -12.36565667 1.100591342e-20)
(100.5475217 -12.37691263 9.896823525e-20)
(100.1978093 -12.1110574 2.443992424e-20)
(100.2678567 -11.61221511 4.943412306e-20)
(100.5399759 -11.80608621 4.770363853e-20)
(101.4057343 -10.61597743 0)
(101.1192801 -10.60475129 1.04893685e-19)
(100.9738723 -10.1622198 -1.226911993e-19)
(101.2072245 -10.16534174 9.522899084e-21)
(101.4856491 -8.755522777 3.727833983e-19)
(101.270584 -8.848194344 1.786511306e-19)
(101.0563382 -8.502075993 1.786796274e-19)
(101.2380051 -8.419246028 1.107804896e-21)
(101.1652941 -7.037684769 1.859293547e-19)
(101.0180193 -7.17923691 3.742058989e-20)
(100.7818067 -6.907332381 -5.298874154e-20)
(100.9095199 -6.782164387 -8.204724333e-20)
(100.5027522 -5.657304645 -2.308424847e-20)
(100.5946259 -5.501963028 1.805751011e-22)
(100.2682919 -5.448512939 -1.227417791e-20)
(100.3554463 -5.307556783 -1.069621162e-20)
(99.95745582 -4.084149299 3.46386499e-21)
(99.82304253 -4.369767956 6.417127902e-21)
(99.45293986 -4.058789367 0)
(99.59333437 -3.830083506 2.765110152e-21)
(99.52260475 -3.093506262 -1.302163401e-20)
(99.399321 -3.342255294 2.762660204e-21)
(99.10572855 -3.106896244 4.368466585e-21)
(99.23624423 -2.896682956 0)
(98.67482976 -1.791453369 -8.104607629e-21)
(98.45881542 -2.119876349 -1.200039795e-20)
(98.78894174 -2.515443786 -1.436203013e-21)
(99.0394497 -2.492943229 -1.200389357e-20)
(98.47380322 -1.155074874 9.255449654e-21)
(98.24932001 -1.457086222 1.843149948e-20)
(98.35117443 -0.5663297244 -6.211113946e-21)
(98.10936257 -0.8562069407 -1.045668983e-20)
(98.03486226 -0.2820037447 -6.588911213e-21)
(99.14173071 -9.762181076 2.274748789e-20)
(99.00494183 -9.290363232 2.328460453e-20)
(99.3043552 -9.209936094 -1.158963969e-19)
(99.32819969 -9.459488603 3.40468213e-20)
(99.76453522 -9.714647343 9.629712525e-21)
(99.66139755 -9.483793968 1.142695115e-20)
(99.66810744 -9.194286759 1.704186087e-20)
(99.74827322 -9.373406804 9.915734252e-20)
(100.0144641 -8.88407345 5.055698661e-21)
(99.8801611 -8.801009626 -7.140438555e-21)
(99.77971806 -8.494368152 -9.413658817e-20)
(99.89057495 -8.557090757 8.12917278e-20)
(99.99352406 -7.717860378 -1.882233804e-20)
(99.85437953 -7.733396368 -2.342166463e-19)
(99.70453719 -7.455897521 -5.947254123e-20)
(99.82133824 -7.437088063 5.598534318e-20)
(99.77122699 -6.447164244 3.584314836e-20)
(99.65555286 -6.519662671 1.428546652e-19)
(99.47789781 -6.280157683 2.763716374e-21)
(99.57754726 -6.211422931 3.725456093e-20)
(99.29844901 -5.309912029 0)
(99.3888138 -5.214014395 0)
(99.11994491 -5.118275489 0)
(99.20489209 -5.023728384 0)
(98.97791074 -3.995071264 -1.492896634e-20)
(98.82814926 -4.202480733 -1.491469823e-20)
(98.53378408 -3.902893343 5.447594588e-21)
(98.68232654 -3.72732362 -4.176476622e-20)
(98.71107005 -3.091509336 2.726201627e-20)
(98.56578632 -3.288710675 -3.658711705e-21)
(98.32466213 -3.051949983 2.643822774e-21)
(98.46747858 -2.876451791 1.289168137e-20)
(98.04228434 -1.791209281 1.512709829e-20)
(97.812107 -2.079990786 2.480919173e-20)
(98.08843376 -2.475798092 3.06530422e-20)
(98.32428428 -2.488442074 -1.291212929e-20)
(97.89295213 -1.161874603 -2.043652166e-21)
(97.65891961 -1.444125352 -8.31832944e-21)
(97.79997588 -0.5710394842 -1.082112874e-20)
(97.55378711 -0.8507943761 -1.205374448e-20)
(97.4963999 -0.2804498269 1.222360735e-21)
(99.67904426 -7.862737851 7.421891288e-20)
(99.5580903 -7.555931254 1.101573339e-20)
(99.77481953 -7.491443032 4.985651911e-20)
(99.72350515 -7.656167061 -5.06604446e-20)
(99.49122781 -7.886877852 7.301813553e-21)
(99.50832281 -7.710513826 -4.119966772e-21)
(99.45486041 -7.519431987 -9.965362831e-21)
(99.43413422 -7.66249059 7.289492416e-21)
(99.24311195 -7.445660456 3.4748042e-20)
(99.20728339 -7.353632854 3.132891904e-20)
(99.10558563 -7.13334666 9.754899718e-20)
(99.13377668 -7.206664441 5.31562923e-20)
(98.99359828 -6.690345158 9.167403825e-20)
(98.92505582 -6.667547904 -5.132699222e-22)
(98.79763771 -6.448162338 4.236953762e-20)
(98.85590733 -6.461683301 2.03628943e-20)
(98.7115187 -5.760856501 0)
(98.63606094 -5.790311492 1.402591113e-20)
(98.49133307 -5.586613891 0)
(98.55841504 -5.555890953 0)
(98.33020718 -4.857348856 0)
(98.40464026 -4.800540436 0)
(98.18851425 -4.687960124 0)
(98.25976225 -4.627251212 0)
(98.12379878 -3.790025911 2.037098682e-20)
(97.97934859 -3.933714069 0)
(97.74366149 -3.659279143 0)
(97.88611294 -3.52903186 0)
(97.96398658 -2.990826672 -2.028615068e-20)
(97.81505287 -3.142962734 0)
(97.61323661 -2.911714423 0)
(97.75615836 -2.769565336 0)
(97.43439397 -1.740760784 -2.324025152e-21)
(97.20398218 -1.989884533 1.922855924e-20)
(97.43578705 -2.369372129 1.2792585e-20)
(97.65174108 -2.411043069 1.281371265e-20)
(97.32513113 -1.136445019 -1.920971802e-20)
(97.09241543 -1.39502946 -1.798788648e-20)
(97.25512254 -0.5594197237 2.285903366e-23)
(97.01308022 -0.8241562315 -1.218268359e-21)
(96.96902086 -0.2724333655 1.222268034e-21)
(99.99819803 -6.545331427 1.874403678e-20)
(99.89700953 -6.338307356 -2.571001666e-20)
(100.0550074 -6.274735131 -7.152351708e-21)
(99.96977679 -6.397380321 -7.144048807e-21)
(99.37560806 -6.56842141 1.579308974e-20)
(99.45295422 -6.434300393 6.93095064e-21)
(99.35355587 -6.293523975 9.584680391e-21)
(99.27862599 -6.406034571 1.352721629e-20)
(98.77213576 -6.29295407 -2.08019245e-20)
(98.79759991 -6.209077191 -3.41240067e-21)
(98.68012324 -6.041564454 4.492365402e-21)
(98.65528297 -6.110450511 -6.869636813e-21)
(98.3005119 -5.766928163 -3.433814925e-23)
(98.28320327 -5.731530182 -3.437428246e-23)
(98.15964879 -5.555683293 -1.798923202e-23)
(98.17387715 -5.581686293 5.943786783e-23)
(97.92037828 -5.080988913 0)
(97.88009158 -5.086170635 0)
(97.75583647 -4.919806559 0)
(97.79277481 -4.910988094 0)
(97.56488745 -4.372421654 0)
(97.61987062 -4.341999401 0)
(97.44787352 -4.226201923 0)
(97.50158392 -4.189305676 0)
(97.39338294 -3.515728745 0)
(97.26534022 -3.61115569 0)
(97.07186171 -3.36394174 0)
(97.1974063 -3.268874299 0)
(97.29042407 -2.819360821 0)
(97.14986011 -2.934115099 0)
(96.97990659 -2.717691971 0)
(97.11378978 -2.603547956 0)
(96.86400923 -1.653163296 0)
(96.64262678 -1.866541701 0)
(96.84185306 -2.219742945 0)
(97.03516929 -2.281721091 0)
(96.78343829 -1.085638537 0)
(96.55928329 -1.320012475 0)
(96.73039355 -0.5366992139 0)
(96.49872161 -0.7823235957 0)
(96.46445164 -0.2594813854 0)
(100.1823826 -5.564582848 8.904744737e-22)
(100.1293974 -5.418514417 1.685754685e-21)
(100.2126925 -5.356047248 9.599807374e-24)
(100.1066452 -5.450447515 3.195417863e-22)
(99.28829858 -5.565018354 6.810492365e-22)
(99.39854784 -5.461358955 -1.109008227e-22)
(99.26636784 -5.349180751 0)
(99.16001666 -5.437864444 4.405736585e-22)
(98.44225912 -5.360604025 -4.96427221e-22)
(98.50622657 -5.289394787 0)
(98.37362919 -5.156383966 0)
(98.31392091 -5.216345205 0)
(97.79738905 -4.974148269 0)
(97.81700941 -4.936902675 0)
(97.69354978 -4.796979924 0)
(97.67553771 -4.826376318 0)
(97.324501 -4.462010703 0)
(97.31273377 -4.455072942 0)
(97.19857534 -4.318412051 0)
(97.2107033 -4.321034944 0)
(96.95861323 -3.899203172 0)
(96.9946197 -3.884006095 0)
(96.85553194 -3.773262816 0)
(96.89223591 -3.751158377 0)
(96.77687225 -3.208058837 0)
(96.67172987 -3.271217573 0)
(96.50637875 -3.051420325 0)
(96.61099573 -2.983258694 0)
(96.69655146 -2.609746776 0)
(96.57134431 -2.695693343 0)
(96.42493746 -2.498302744 0)
(96.54492404 -2.406541618 0)
(96.33856186 -1.54270549 0)
(96.13353337 -1.725841073 0)
(96.30944948 -2.048933063 0)
(96.48067455 -2.120348493 0)
(96.27604955 -1.018315001 0)
(96.06667145 -1.229789107 0)
(96.23447129 -0.5056192297 0)
(96.01712204 -0.7307361617 0)
(95.98947349 -0.2429387477 0)
(100.2765892 -4.796547204 0)
(100.2649666 -4.685936144 0)
(100.2908473 -4.628693232 0)
(100.1697111 -4.701112571 0)
(99.20168306 -4.770037441 0)
(99.33403684 -4.689731706 0)
(99.18057504 -4.5971338 0)
(99.05296557 -4.667263874 0)
(98.19314586 -4.605137364 0)
(98.28317211 -4.54653576 0)
(98.13988293 -4.439453162 0)
(98.05611279 -4.489842777 0)
(97.42137666 -4.310397282 0)
(97.46730929 -4.275413903 0)
(97.34164103 -4.161936857 0)
(97.29994788 -4.190543416 0)
(96.86437431 -3.914976848 0)
(96.87513504 -3.902709885 0)
(96.76551142 -3.789411764 0)
(96.75756777 -3.797478083 0)
(96.47186189 -3.460873445 0)
(96.49041558 -3.45417047 0)
(96.3769076 -3.35286 0)
(96.39758931 -3.340055724 0)
(96.2580346 -2.896648117 0)
(96.17793782 -2.939820855 0)
(96.02963634 -2.745643773 0)
(96.1127468 -2.696675246 0)
(96.17813055 -2.385254815 0)
(96.07120664 -2.450037637 0)
(95.94149927 -2.272520905 0)
(96.04534197 -2.19812741 0)
(95.86109878 -1.421412041 0)
(95.6764761 -1.579070231 0)
(95.83615228 -1.871240704 0)
(95.9871649 -1.944667909 0)
(95.80803302 -0.942591665 0)
(95.61686811 -1.132490353 0)
(95.77284366 -0.4692591699 0)
(95.57249826 -0.6743928363 0)
(95.54865195 -0.2246806686 0)
(100.3178242 -4.17177015 -2.661239176e-35)
(100.3335127 -4.08575186 1.593656799e-35)
(100.3224416 -4.033288306 -5.177905739e-35)
(100.1904141 -4.090666637 -2.661551167e-35)
(99.11833397 -4.128783704 0)
(99.26604965 -4.065335956 0)
(99.09790813 -3.987463261 0)
(98.9554603 -4.043594244 0)
(97.99602308 -3.988549434 0)
(98.10400701 -3.940342724 0)
(97.95251772 -3.851972723 0)
(97.85180373 -3.894035684 0)
(97.12862582 -3.753277458 0)
(97.19370216 -3.722033024 0)
(97.06506008 -3.628262879 0)
(97.00575439 -3.654373746 0)
(96.49991562 -3.438299774 0)
(96.5283309 -3.424282793 0)
(96.42036863 -3.329380407 0)
(96.39637162 -3.339611247 0)
(96.07612933 -3.066007504 0)
(96.07955881 -3.064542675 0)
(95.98614686 -2.973639747 0)
(95.99301433 -2.966579959 0)
(95.81918322 -2.599582176 0)
(95.76327986 -2.629549095 0)
(95.6251385 -2.459142393 0)
(95.68784148 -2.422999164 0)
(95.72694542 -2.161251012 0)
(95.63898066 -2.210947209 0)
(95.52086321 -2.052586495 0)
(95.60784709 -1.99158404 0)
(95.43088261 -1.297648744 0)
(95.26836156 -1.433997911 0)
(95.41729494 -1.696182646 0)
(95.55014694 -1.767944643 0)
(95.38075713 -0.8638584771 0)
(95.20934235 -1.034066048 0)
(95.34818634 -0.4310337568 0)
(95.16590177 -0.6168930339 0)
(95.1437158 -0.2059573024 0)
(100.3261453 -3.653619305 -2.25436332e-35)
(100.362609 -3.58636031 0)
(100.3245574 -3.537864608 0)
(100.1845412 -3.58466973 0)
(99.03754267 -3.601392399 0)
(99.19636962 -3.550539468 0)
(99.01772061 -3.484058989 0)
(98.86449729 -3.529435532 0)
(97.83268318 -3.477865225 0)
(97.9535743 -3.438161656 0)
(97.79581177 -3.363918305 0)
(97.68274718 -3.398906664 0)
(96.89251193 -3.283202863 0)
(96.97184075 -3.256046898 0)
(96.84025228 -3.17739922 0)
(96.76759471 -3.200408888 0)
(96.2042015 -3.025385459 0)
(96.24651446 -3.011503036 0)
(96.13874799 -2.931245926 0)
(96.10189235 -2.941816717 0)
(95.74928613 -2.71523474 0)
(95.74009153 -2.716563379 0)
(95.66205867 -2.635993164 0)
(95.65727014 -2.632157387 0)
(95.44588141 -2.324827455 0)
(95.41192817 -2.345770253 0)
(95.28006816 -2.196910893 0)
(95.32381524 -2.169250679 0)
(95.33411996 -1.947161194 0)
(95.26459854 -1.986143817 0)
(95.1543473 -1.845637762 0)
(95.22487317 -1.794763502 0)
(95.04516939 -1.177010831 0)
(94.9050676 -1.295740512 0)
(95.04719146 -1.529893175 0)
(95.16409554 -1.597588965 0)
(94.99344702 -0.786083478 0)
(94.84210563 -0.9386081893 0)
(94.96078255 -0.3929837077 0)
(94.79664442 -0.5607579105 0)
(94.77454734 -0.187608812 0)
(100.3131762 -3.218916847 -3.46877475e-35)
(100.366363 -3.166160004 1.280697257e-35)
(100.3075225 -3.121270969 -3.46877475e-35)
(100.1614202 -3.160140776 -3.46837575e-35)
(98.95912761 -3.161557388 0)
(99.12623032 -3.12043376 0)
(98.93989384 -3.063034418 0)
(98.77860933 -3.099956165 0)
(97.69277809 -3.050238462 0)
(97.82325846 -3.017503917 0)
(97.66067038 -2.95428904 0)
(97.53833703 -2.983320578 0)
(96.69650251 -2.88462398 0)
(96.78666178 -2.86141723 0)
(96.65242668 -2.794661597 0)
(96.56946893 -2.814492081 0)
(95.95904665 -2.668673687 0)
(96.0124015 -2.655863118 0)
(95.90410449 -2.587418654 0)
(95.85688008 -2.597367907 0)
(95.47510675 -2.406543375 0)
(95.45535821 -2.409105532 0)
(95.3892452 -2.338270097 0)
(95.37455158 -2.336156451 0)
(95.12629827 -2.075543838 0)
(95.11178425 -2.090704152 0)
(94.98351004 -1.960750625 0)
(95.01010834 -1.938696287 0)
(94.99134216 -1.748282321 0)
(94.93905637 -1.779712452 0)
(94.8339883 -1.655441847 0)
(94.88904345 -1.612198482 0)
(94.70027254 -1.063082257 0)
(94.58195448 -1.167350669 0)
(94.72000507 -1.375907081 0)
(94.82307039 -1.43817205 0)
(94.64400248 -0.7118763286 0)
(94.51218316 -0.8487156659 0)
(94.60941284 -0.356468593 0)
(94.462793 -0.5076310128 0)
(94.43968113 -0.1701821926 0)
(100.2861161 -2.851338277 2.982795634e-35)
(100.352934 -2.809882862 0)
(100.2777203 -2.768431649 0)
(100.1268442 -2.800946251 0)
(98.8830701 -2.791138887 0)
(99.05645985 -2.757734465 0)
(98.8644251 -2.70776407 0)
(98.69698112 -2.737888318 0)
(97.57001423 -2.689268553 0)
(97.70780957 -2.662305882 0)
(97.54149258 -2.60794924 0)
(97.41203167 -2.631947482 0)
(96.52990323 -2.54530024 0)
(96.628458 -2.525733542 0)
(96.4919535 -2.468549659 0)
(96.40091181 -2.485339907 0)
(95.75196123 -2.360908513 0)
(95.81419312 -2.349608782 0)
(95.70504824 -2.290836091 0)
(95.64938122 -2.299673578 0)
(95.24181599 -2.136576128 0)
(95.21320601 -2.139436144 0)
(95.156483 -2.077521361 0)
(95.13336407 -2.076200245 0)
(94.85056649 -1.852477218 0)
(94.85306421 -1.86412821 0)
(94.72663025 -1.750597527 0)
(94.73789206 -1.732189586 0)
(94.69114108 -1.56716566 0)
(94.65460538 -1.593328513 0)
(94.55284448 -1.4835912 0)
(94.59367561 -1.446102294 0)
(94.39215766 -0.9579508644 0)
(94.29438622 -1.050420454 0)
(94.43026386 -1.235970041 0)
(94.52138526 -1.292170562 0)
(94.32956214 -0.64284215 0)
(94.21617039 -0.7659125363 0)
(94.29188436 -0.3223412657 0)
(94.16173124 -0.4585121559 0)
(94.1368741 -0.1540148582 0)
(100.2495506 -2.538768148 1.16870679e-35)
(100.3276 -2.506149043 -1.080272062e-36)
(100.2393246 -2.468091482 1.16870679e-35)
(100.0845978 -2.495264535 1.168843803e-35)
(98.80940476 -2.477143624 0)
(98.98764153 -2.4500071 0)
(98.79136685 -2.406271585 0)
(98.61913621 -2.430807159 0)
(97.46036554 -2.382931318 0)
(97.6038633 -2.360821485 0)
(97.43466143 -2.313764637 0)
(97.29960633 -2.333462074 0)
(96.38559036 -2.255666038 0)
(96.4907771 -2.239401168 0)
(96.35237882 -2.190092768 0)
(96.25488657 -2.204050854 0)
(95.57422286 -2.095680395 0)
(95.64367986 -2.086077804 0)
(95.53359384 -2.035347863 0)
(95.47097831 -2.042831402 0)
(95.04083416 -1.901624701 0)
(95.00473866 -1.90422004 0)
(94.95554507 -1.85038017 0)
(94.92523692 -1.849263121 0)
(94.61078485 -1.65494736 0)
(94.6281164 -1.664631565 0)
(94.50237131 -1.565324216 0)
(94.50003103 -1.549217916 0)
(94.42708448 -1.404641158 0)
(94.40474122 -1.42718081 0)
(94.30496719 -1.330324973 0)
(94.33291853 -1.297178587 0)
(94.11676301 -0.8626496396 0)
(94.03794473 -0.945541118 0)
(94.17298237 -1.11064248 0)
(94.25384011 -1.160597318 0)
(94.04689942 -0.5798621078 0)
(93.95050466 -0.6909532566 0)
(94.00546065 -0.2910909778 0)
(93.890459 -0.4139295193 0)
(93.86340768 -0.1392910512 0)
(100.2067023 -2.272123849 1.013489875e-35)
(100.2942091 -2.246474697 0)
(100.195285 -2.211821924 0)
(100.0373742 -2.2343192 0)
(98.73817664 -2.209976043 0)
(98.92018927 -2.188030053 0)
(98.72075398 -2.149627438 0)
(98.54475932 -2.169480684 0)
(97.36111118 -2.122174124 0)
(97.50912773 -2.104195387 0)
(97.33768761 -2.063270158 0)
(97.19817386 -2.079257583 0)
(96.25863702 -2.008162555 0)
(96.36914248 -1.994868103 0)
(96.22918144 -1.952149879 0)
(96.12647305 -1.963508336 0)
(95.41956247 -1.867465655 0)
(95.4949589 -1.859601906 0)
(95.38394142 -1.815642111 0)
(95.31555791 -1.821677282 0)
(94.86573671 -1.698018908 0)
(94.8232885 -1.700021781 0)
(94.7802069 -1.653434652 0)
(94.74374532 -1.652152272 0)
(94.40063452 -1.481502708 0)
(94.43088882 -1.490256808 0)
(94.3050741 -1.403269369 0)
(94.29072305 -1.388526183 0)
(94.19367449 -1.260487753 0)
(94.1840065 -1.280589454 0)
(94.08528472 -1.195082192 0)
(94.10169287 -1.165201121 0)
(93.8701828 -0.7775004816 0)
(93.80859759 -0.852691208 0)
(93.94371054 -0.9997521111 0)
(94.01576436 -1.043533733 0)
(93.79268047 -0.5233109261 0)
(93.71171928 -0.624083923 0)
(93.74715555 -0.2629482374 0)
(93.64588792 -0.374090564 0)
(93.6163944 -0.1260901738 0)
(100.1597395 -2.044648651 0)
(100.255373 -2.024557896 0)
(100.1475336 -1.993244089 0)
(99.98695965 -2.011562762 0)
(98.6693741 -1.982440887 0)
(98.85433111 -1.964861979 0)
(98.65254307 -1.931067897 0)
(98.4735775 -1.946942502 0)
(97.27032527 -1.900092887 0)
(97.42196005 -1.885664456 0)
(97.24877479 -1.849956714 0)
(97.10567221 -1.862720832 0)
(96.14552922 -1.796813646 0)
(96.26034551 -1.786179157 0)
(96.11909434 -1.749041769 0)
(96.01212873 -1.758035374 0)
(95.28337708 -1.671619262 0)
(95.36369072 -1.66545396 0)
(95.25178879 -1.627242795 0)
(95.17858917 -1.631822889 0)
(94.71163806 -1.52239635 0)
(94.66378255 -1.523627198 0)
(94.62569144 -1.483516451 0)
(94.58395361 -1.481842813 0)
(94.21506743 -1.330383386 0)
(94.25658365 -1.338911767 0)
(94.13019189 -1.262609201 0)
(94.10526194 -1.24855594 0)
(93.98627089 -1.133921784 0)
(93.98785788 -1.152453617 0)
(93.88951549 -1.076906246 0)
(93.89565258 -1.049450856 0)
(93.64875319 -0.7023790755 0)
(93.60263348 -0.7714588294 0)
(93.73849868 -0.9027133646 0)
(93.80303747 -0.94054671 0)
(93.56361006 -0.4732266057 0)
(93.4964537 -0.5652037681 0)
(93.51390619 -0.2379661879 0)
(93.4248966 -0.3389789013 0)
(93.39284922 -0.1144174666 0)
(100.1100906 -1.850908805 0)
(100.212856 -1.835293897 0)
(100.0973885 -1.807210145 0)
(99.93453824 -1.821773661 0)
(98.60289323 -1.788919486 0)
(98.7901372 -1.775074127 0)
(98.58661834 -1.745309572 0)
(98.40530622 -1.757750775 0)
(97.18654284 -1.71125224 0)
(97.34109786 -1.699916656 0)
(97.16654947 -1.668707202 0)
(97.02053505 -1.678635738 0)
(96.04362862 -1.616784082 0)
(96.16197135 -1.608545374 0)
(96.01965334 -1.576191867 0)
(95.90918368 -1.583026121 0)
(95.16214645 -1.504198338 0)
(95.24656103 -1.49966575 0)
(95.13383675 -1.466382296 0)
(95.05658999 -1.469532289 0)
(94.574702 -1.371739431 0)
(94.52222375 -1.372094227 0)
(94.48823233 -1.337773459 0)
(94.44195402 -1.335559006 0)
(94.04993938 -1.199720974 0)
(94.1012809 -1.208514541 0)
(93.97396326 -1.141495783 0)
(93.93972578 -1.127632755 0)
(93.80088111 -1.023848432 0)
(93.81242439 -1.0414617 0)
(93.71396403 -0.9746337875 0)
(93.71100646 -0.9489325106 0)
(93.44907839 -0.6368935064 0)
(93.41671138 -0.7012444638 0)
(93.55383922 -0.818722571 0)
(93.61198717 -0.8508964865 0)
(93.35651161 -0.4294372094 0)
(93.30156948 -0.5140200053 0)
(93.30267945 -0.2160846906 0)
(93.22448441 -0.3084504488 0)
(93.1898595 -0.1042351727 0)
(100.0588115 -1.686570417 0)
(100.1679381 -1.67464787 0)
(100.0458277 -1.649657015 0)
(99.88098297 -1.660827821 0)
(98.53859466 -1.624996427 0)
(98.72760545 -1.614401901 0)
(98.52283948 -1.588208362 0)
(98.3396756 -1.597631745 0)
(97.10861521 -1.551358151 0)
(97.2655435 -1.542763569 0)
(97.08993213 -1.515485343 0)
(96.94153796 -1.522877319 0)
(95.95090023 -1.464179455 0)
(96.07215309 -1.458126918 0)
(95.92895087 -1.42992557 0)
(95.81557326 -1.434764057 0)
(95.05312328 -1.361916352 0)
(95.1409846 -1.358955787 0)
(95.02750281 -1.32993895 0)
(94.94683145 -1.331684799 0)
(94.45187094 -1.243432329 0)
(94.3954189 -1.242839597 0)
(94.36481637 -1.213726527 0)
(94.31461276 -1.210859039 0)
(93.90183425 -1.087724375 0)
(93.96175927 -1.097140577 0)
(93.8332637 -1.038204687 0)
(93.79084004 -1.024142531 0)
(93.63408671 -0.92907998 0)
(93.65441509 -0.9462830222 0)
(93.55545012 -0.8870741056 0)
(93.54447103 -0.8625689795 0)
(93.26806673 -0.5805252701 0)
(93.24782031 -0.6413694872 0)
(93.38662638 -0.7469068015 0)
(93.43937711 -0.7737163771 0)
(93.16840863 -0.3916599153 0)
(93.12414957 -0.4701403189 0)
(93.11057999 -0.1971815584 0)
(93.04180162 -0.2822912071 0)
(93.00462736 -0.09548100479 0)
(100.0066404 -1.548195365 0)
(100.1215014 -1.539393064 0)
(99.99352092 -1.517317437 0)
(99.82689245 -1.525428576 0)
(98.47630424 -1.487162036 0)
(98.66666283 -1.47943742 0)
(98.46102054 -1.456433594 0)
(98.27640648 -1.463169125 0)
(97.03560077 -1.416979242 0)
(97.19446204 -1.410844114 0)
(97.01801671 -1.387032114 0)
(96.86767188 -1.392127661 0)
(95.86571497 -1.335842561 0)
(95.98938097 -1.331802749 0)
(95.84543254 -1.307235333 0)
(95.72963022 -1.31021416 0)
(94.95409305 -1.242041781 0)
(95.04486435 -1.240595909 0)
(94.93067252 -1.21529845 0)
(94.84709121 -1.215666586 0)
(94.34061362 -1.135215547 0)
(94.28074006 -1.133624013 0)
(94.25291817 -1.109211076 0)
(94.19932302 -1.105601968 0)
(93.76788555 -0.9927512214 0)
(93.83532416 -1.003061493 0)
(93.70545092 -0.9511869899 0)
(93.65581903 -0.9366032662 0)
(93.48292092 -0.8484477878 0)
(93.51098395 -0.8656559484 0)
(93.41119422 -0.8130905002 0)
(93.39316193 -0.7893068349 0)
(93.10284682 -0.532705376 0)
(93.09320581 -0.5911688482 0)
(93.23407633 -0.6864169199 0)
(93.28230719 -0.7081509864 0)
(92.99647558 -0.3595593623 0)
(92.96148695 -0.4331341558 0)
(92.93481552 -0.1811020075 0)
(92.87415838 -0.260261241 0)
(92.83449046 -0.08808364124 0)
(99.9540884 -1.433008356 -1.833571244e-36)
(100.0741735 -1.426915936 -2.743262567e-37)
(99.94093747 -1.407569787 -3.568381478e-36)
(99.77267959 -1.412914769 -1.833360335e-36)
(98.4158183 -1.372596588 0)
(98.60719072 -1.367446799 0)
(98.40095714 -1.347321203 0)
(98.215217 -1.351624581 0)
(96.9666966 -1.30535266 0)
(97.12713643 -1.301460383 0)
(96.95003286 -1.280736469 0)
(96.79808305 -1.283719396 0)
(95.78672599 -1.229205646 0)
(95.91240487 -1.227045733 0)
(95.76781441 -1.20568941 0)
(95.64997819 -1.206911598 0)
(94.86322504 -1.142325094 0)
(94.95647105 -1.142352185 0)
(94.84160585 -1.12032746 0)
(94.75553162 -1.119334903 0)
(94.23877347 -1.045264632 0)
(94.17590079 -1.042625321 0)
(94.15040752 -1.022555902 0)
(94.09379584 -1.018123334 0)
(93.64564916 -0.9133873873 0)
(93.71975008 -0.9248815476 0)
(93.58820801 -0.8792276247 0)
(93.53224775 -0.8637315108 0)
(93.3447658 -0.7808543899 0)
(93.37963135 -0.7984442296 0)
(93.2787287 -0.7516530394 0)
(93.25452501 -0.7281432144 0)
(92.95095806 -0.4928828603 0)
(92.95046222 -0.549972799 0)
(93.0937067 -0.6364051134 0)
(93.13824053 -0.6532646963 0)
(92.83825416 -0.3327999328 0)
(92.81110523 -0.4025844813 0)
(92.77294461 -0.1676921719 0)
(92.7190648 -0.2421167127 0)
(92.67696062 -0.08196648973 0)
(99.90151021 -1.338800993 0)
(100.0263927 -1.335116807 0)
(99.88839217 -1.318311095 0)
(99.71862381 -1.321150645 0)
(98.35693151 -1.279054169 0)
(98.54904961 -1.27624312 0)
(98.34243571 -1.2587348 0)
(98.15583423 -1.26080989 0)
(96.90121321 -1.21427597 0)
(97.06293961 -1.212455309 0)
(96.88530344 -1.194503156 0)
(96.73203376 -1.195517036 0)
(95.71280703 -1.142202333 0)
(95.8401668 -1.141817572 0)
(95.69500154 -1.123315693 0)
(95.57545805 -1.12286103 0)
(94.77902295 -1.060928926 0)
(94.87437557 -1.062390429 0)
(94.75885839 -1.043253717 0)
(94.67065172 -1.040921859 0)
(94.14474725 -0.9720801217 0)
(94.07921771 -0.9684860198 0)
(94.0557586 -0.952380509 0)
(93.99645913 -0.9471044791 0)
(93.53283031 -0.8485672183 0)
(93.61279946 -0.8613579282 0)
(93.47932606 -0.8212436165 0)
(93.41788907 -0.8043989892 0)
(93.21728822 -0.7253572278 0)
(93.25811409 -0.7436603377 0)
(93.15588319 -0.7018458054 0)
(93.12625507 -0.6782904796 0)
(92.80953311 -0.4605191141 0)
(92.81707184 -0.5174063935 0)
(92.96323029 -0.5963208071 0)
(93.00466223 -0.6087083451 0)
(92.69083055 -0.311047336 0)
(92.6706916 -0.3781117503 0)
(92.62199768 -0.1567793814 0)
(92.57415355 -0.2276669954 0)
(92.52968224 -0.07707878118 0)
(99.84914322 -1.263791985 0)
(99.97847494 -1.262298535 0)
(99.83610524 -1.247870825 0)
(99.6649104 -1.248420837 0)
(98.29942623 -1.204732386 0)
(98.49208217 -1.204081947 0)
(98.28523885 -1.188982986 0)
(98.09798573 -1.188980584 0)
(96.83851959 -1.141978491 0)
(97.00129575 -1.142106136 0)
(96.82321149 -1.126668129 0)
(96.66885353 -1.125812212 0)
(95.6429531 -1.073149835 0)
(95.77172013 -1.074472278 0)
(95.62601397 -1.058528836 0)
(95.50503413 -1.056442292 0)
(94.70015227 -0.9962832122 0)
(94.79729283 -0.9991681584 0)
(94.68111331 -0.9825863708 0)
(94.59109404 -0.9789026769 0)
(94.05702215 -0.9140595331 0)
(93.98929204 -0.9094706744 0)
(93.96725917 -0.8968823108 0)
(93.90582801 -0.8906077777 0)
(93.42745744 -0.7970588681 0)
(93.5123954 -0.8110691218 0)
(93.37716114 -0.7758760719 0)
(93.31083371 -0.7575252642 0)
(93.09836746 -0.6809523097 0)
(93.14436499 -0.700329079 0)
(93.04035295 -0.6627760707 0)
(93.00624009 -0.6385686614 0)
(92.67828079 -0.4352480532 0)
(92.6918529 -0.4921529555 0)
(92.8406192 -0.5649024936 0)
(92.88009431 -0.5721873622 0)
(92.55393779 -0.2940922033 0)
(92.53808995 -0.3593426168 0)
(92.48180176 -0.1483079815 0)
(92.43721149 -0.2166466122 0)
(92.39036188 -0.07331112165 0)
(99.79716373 -1.206636145 -7.063562076e-36)
(99.93066964 -1.207191775 0)
(99.78424105 -1.195016069 -5.848967034e-36)
(99.61167099 -1.193436804 0)
(98.24308351 -1.148248701 0)
(98.43612415 -1.149636634 0)
(98.22915022 -1.136786939 0)
(98.04140548 -1.134805734 0)
(96.77803436 -1.087089857 0)
(96.94167319 -1.089088999 0)
(96.76319104 -1.075959441 0)
(96.60792798 -1.073289784 0)
(95.57625023 -1.020739526 0)
(95.70620574 -1.023739488 0)
(95.55996552 -1.010114896 0)
(95.43776514 -1.006406064 0)
(94.6253458 -0.947182327 0)
(94.72402109 -0.9515181267 0)
(94.60714562 -0.9372289263 0)
(94.51555543 -0.9321454662 0)
(93.97378993 -0.8702586448 0)
(93.90412539 -0.8643763318 0)
(93.88312486 -0.8552380312 0)
(93.81967722 -0.8479057202 0)
(93.32814643 -0.7576621543 0)
(93.41744642 -0.7734670093 0)
(93.28025207 -0.7423575026 0)