/*--------------------------------*- C++ -*----------------------------------*\
| =========                 |                                                 |
| \\      /  F ield         | OpenFOAM: The Open Source CFD Toolbox           |
|  \\    /   O peration     | Version:  v2012                                 |
|   \\  /    A nd           | Website:  www.openfoam.com                      |
|    \\/     M anipulation  |                                                 |
\*---------------------------------------------------------------------------*/
FoamFile
{
    version     2.0;
    format      ascii;
    class       surfaceScalarField;
    location    "1.19";
    object      meshPhi;
}
// * * * * * * * * * * * * * * * * * * * * * * * * * * * * * * * * * * * * * //

dimensions      [0 3 -1 0 0 0 0];
oriented        oriented;


internalField   nonuniform List<scalar> 
5999
(
0
0
0
0
0
0
0
0
0
0
0
0
0
0
0
0
0
0
0
0
0
0
0
0
0
0
0
0
0
0
0
0
0
0
0
0
0
0
0
0
0
0
0
0
0
0
0
0
0
0
0
0
0
0
0
0
0
0
0
0
0
0
0
0
0
0
0
0
0
0
0
4.777240723e-09
3.619906344e-08
0
0
0
0
0
0
0
0
0
0
0
0
0
0
0
0
0
0
0
0
0
0
0
0
0
0
0
0
0
-2.231354501e-08
-6.690805997e-07
2.064831451e-06
4.194970137e-06
-8.05382918e-06
-3.610079074e-05
1.874345625e-05
5.091012692e-05
-9.991609901e-06
-9.485768033e-05
1.677946595e-05
0.00010676175
0
0
0
0
0
0
0
0
0
0
0
0
0
0
0
0
0
0
0
0
0
0
0
0
0
-1.090103377e-06
-1.579218139e-06
5.675424961e-06
1.107022488e-05
-4.128132893e-05
-9.297719765e-05
6.487558727e-05
0.0001320261417
-7.201337e-05
-0.0002631699401
9.387641668e-05
0.0003072473255
-3.836762243e-05
-0.0004243437877
4.363957258e-05
0.0004548200972
0
0
0
0
0
0
0
0
0
0
0
0
0
0
0
0
0
0
0
0
0
0
0
3.592155816e-07
6.607038202e-07
-4.866854905e-05
-7.717114606e-05
7.18025676e-05
0.0001300916528
-0.0001554770779
-0.0003359341869
0.0001883766218
0.0004136381722
-0.0001569688952
-0.0006454677309
0.0001741203323
0.0007161675662
-4.852262167e-05
-0.0008877373475
4.673009891e-05
0.0009283599797
0
0
0
0
0
0
0
0
0
0
0
0
0
0
0
0
0
0
0
0
0
-1.15456859e-05
-9.988097288e-06
1.910432237e-05
4.258073481e-05
-0.0001573352538
-0.0002510152503
0.0001862027614
0.0003467952867
-0.0002897579118
-0.0006811528398
0.0003099428793
0.0007976870583
-0.0002077621967
-0.001084707531
0.0002259308811
0.001145673222
-3.68500051e-05
-0.00128504575
3.549912038e-05
0.001304994489
0
0
0
0
0
0
0
0
0
0
0
0
0
0
0
0
0
0
3.155475436e-07
8.040664262e-09
3.099270471e-07
-4.504255803e-05
-5.338748878e-05
5.491166752e-05
0.0001193924793
-0.0002648940094
-0.0004345800676
0.0002778519991
0.0005780152073
-0.0003584710822
-0.0009893283033
0.0003700838067
0.001113283431
-0.0002233218868
-0.001399441254
0.00020621528
0.001462591377
-5.460200964e-05
-0.001518761725
5.814068424e-05
3.229518508e-05
0.0007282775025
0.0007546503628
0
0
0
0
0
0
0
0
0
0
0
0
0
0
0
0
-1.323954547e-06
0
2.839025907e-06
2.955483644e-06
4.578784509e-06
-7.568561036e-05
-9.607301227e-05
7.823168134e-05
0.0001877331883
-0.0003206501848
-0.0005933442452
0.0003260011466
0.0007532138978
-0.0003863707807
-0.001218170352
0.0003874689819
0.001348426741
-0.0001862156278
-0.00159262822
0.0001816787835
0.001612749304
-2.255567322e-05
-0.00081343555
2.393023082e-05
0.0008120609924
0
0
0
0
0
0
0
0
0
0
0
0
0
0
0
0
-3.688104533e-06
0
4.662160703e-06
8.550981422e-06
9.765124088e-06
-9.114658839e-05
-0.0001271827638
9.390293739e-05
0.0002341267948
-0.0003438598242
-0.0006886665489
0.0003474811289
0.0008638263119
-0.0003906987189
-0.001360640224
0.0003914236017
0.001493646064
-0.0001756779076
-0.00171802704
0.0001748693809
0.001726027699
-1.93857678e-05
-0.0008597426255
1.938135102e-05
0.0008597470423
0
0
0
0
0
0
0
0
0
0
0
0
0
0
0
0
-5.613924743e-06
0
6.924662996e-06
1.366055819e-05
1.539604659e-05
-0.0001007711317
-0.0001520900214
0.0001035489377
0.0002714178803
-0.0003564984216
-0.0007668926813
0.0003600198725
0.0009549976925
-0.0003934272971
-0.001481029996
0.0003940966845
0.001619156977
-0.0001731816151
-0.001842029014
0.000172693535
0.001846808155
-1.923915466e-05
-0.000919061955
1.952883167e-05
0.0004582165607
0.0004605557173
0
0
0
0
0
0
0
0
0
0
0
0
0
0
0
0
-8.356857348e-06
0
1.000683918e-05
2.139384556e-05
2.371682938e-05
-0.0001122412075
-0.0001829278445
0.0001153027393
0.0003160726565
-0.0003706846303
-0.000855254757
0.0003743352963
0.001056660472
-0.0003959284536
-0.001611160308
0.0003964845884
0.00175356298
-0.0001711878281
-0.001971159359
0.0001707911574
0.001973263683
-1.931831322e-05
-0.0009826100282
1.939443651e-05
0.0004902420948
0.0004922918101
0
0
0
0
0
0
0
0
0
-1.201245316e-05
0
3.234461779e-05
3.384138825e-05
-0.000125302783
-0.0002196047025
0.0001292111563
0.0003674311368
-0.0003858370026
-0.0009508283255
0.0003901679766
0.001165039435
-0.0003979723314
-0.001745020462
0.0003983901126
0.001890364998
-0.0001698893038
-0.002097995529
0.0001698869568
0.002098167821
-1.951047547e-05
-0.001045186841
1.949089986e-05
0.0005214297331
0.000523776684
-0.0008531596324
0.0008532013986
-1.942753401e-05
-0.0009112810759
-1.903896292e-05
0.0004548171818
0.0004562637024
-0.0009746842101
-1.919714088e-05
0.0004864154929
0.0004881475448
-0.001037064528
-1.933721604e-05
0.0005175155363
0.0005193757319
-0.0008052187466
0.0008048050814
-2.214200808e-05
-0.001810216239
0.001815658211
-0.0001736496068
2.80324961e-05
-2.800239097e-05
-0.000911311181
-2.814978037e-05
-0.0008596572942
2.806444907e-05
-0.001939353666
0.001942050827
-0.0001716224163
2.800637773e-05
-2.797682589e-05
-0.0009747137619
-0.0009190913806
2.806192168e-05
1.941294293e-05
-0.0009437285026
-1.938066781e-05
0.0004707798788
0.0004729163487
-4.412380796e-06
0.0002367362367
4.390418505e-06
-0.0004729252571
0.0002362109827
4.482349689e-06
0.0002285241977
-0.0004580498928
-4.306980738e-06
0.0002293503261
-0.002065895644
0.002066529338
-0.0001700265806
2.804034516e-05
-2.80136755e-05
-0.001037091197
-0.0009825923038
2.798865329e-05
1.906512853e-05
-0.001006166413
-1.927041373e-05
0.0005022761249
0.0005040955735
-2.54426916e-06
0.0002522594342
2.600709116e-06
-0.0002523158742
4.165160948e-06
0.000244826793
-0.0004902484806
-4.205370059e-06
0.0002454618967
-0.001045214877
2.806838086e-05
1.080155625e-05
-0.0005356199241
0.0005356752713
-1.085690348e-05
-3.74971921e-06
0.0002685529786
3.465202331e-06
-0.0002682684617
3.137633879e-06
0.0002600289452
-0.0002601477396
-3.018839442e-06
6.653290436e-06
-0.0004149766406
-6.32097135e-06
0.0002068274649
0.0002078168565
-6.962738291e-06
-0.0004272382226
6.901165464e-06
0.0002137102717
0.0002135895237
-0.0004081710203
-8.815519354e-07
1.773214819e-06
0.0004072793575
-0.0004141529487
0.0004144670119
6.339227217e-06
0.0002279499533
4.697622295e-06
-0.0004560984906
0.0002279332647
0.0004431501189
4.513952861e-06
-0.0004431930818
-4.470989995e-06
-1.923670293e-05
-0.0008888663733
1.926958208e-05
0.0008888334941
6.753035364e-06
-6.454937384e-06
0.0002212378797
0.0002216141413
-3.139475916e-06
0.0002279475006
3.141928669e-06
-0.0004286495726
-6.762723627e-06
0.0002139318067
0.0002145177513
-0.0004416397413
6.6826714e-06
0.0002207502774
0.0002209598279
0.0002442026935
4.35799933e-06
-0.0004880161572
0.0002436206253
0.0002374531018
-0.0004752813854
-4.597360376e-06
0.0002380132632
-0.0009519252458
1.918057558e-05
0.0004751856746
0.0004769719385
3.321831984e-06
-3.375350334e-06
0.0002375066201
-2.845351256e-06
0.0002441461926
2.901852144e-06
-3.091765954e-06
0.0002284764878
0.000236852419
3.205649645e-06
0.0002595470013
3.203954323e-06
-0.0002596133218
0.0002527023291
-0.0002527127028
-2.533895487e-06
-0.001013245067
1.937600105e-05
0.0005057255782
0.0005072086161
3.264237711e-06
-3.100102054e-06
0.0002525381935
-4.198601887e-06
0.0002593636385
4.38196472e-06
-2.838784965e-06
0.0002448202267
0.0002521895811
3.334090829e-06
0.0002685285928
-0.0002686336774
-3.644634646e-06
0.0005374359705
4.844891785e-06
-4.668474113e-06
0.0002683521751
-3.960946472e-06
0.0002597912897
0.000268749915
4.647955424e-06
-0.00168696138
0.001696756855
-0.0001771012001
-2.82331352e-05
-0.0008530762775
-3.106775199e-05
-0.0008123482293
2.998043123e-05
2.039077416e-05
-0.0008269670804
0.0008268856688
-2.030936251e-05
-4.303643136e-06
4.252188132e-06
-0.0004141014937
2.194458856e-06
-0.0004093833299
-9.821493244e-07
-0.0008815135272
0.0008816038492
-1.932702494e-05
4.51785949e-06
-0.0004416436479
4.503497552e-06
-0.0004286502927
-4.502777506e-06
4.499758974e-06
-0.000427234484
-0.0004149999878
-4.280295883e-06
-0.0008297664922
1.985206346e-05
0.0008303052029
6.007726033e-06
-0.0002103843143
-6.374288077e-06
0.0002107508763
-0.0002103975988
-5.838021308e-07
-2.231897707e-06
0.0002132132986
-0.0002065408236
-4.832460385e-06
0.0002067843484
4.588935492e-06
-0.0008119777568
-2.035872292e-06
1.237726539e-05
3.877813653e-06
0.0003946926407
0.0004030659093
-0.0004025672841
0.0004107880579
-9.102325774e-06
0.0002643849119
2.021754411e-06
-0.0002645041844
-1.902481872e-06
-2.314536669e-06
-0.0005292225908
2.360642577e-06
0.0005291764849
2.35171488e-06
-0.0005355896477
0.0005356425691
-2.404636287e-06
-0.0002131792016
4.258561379e-06
-6.032688757e-05
0.0002692475278
-0.0002089903816
6.225437882e-06
0.0002087726697
-6.445384444e-06
-0.0004204799173
6.612261598e-06
0.0002095989077
0.0002107141324
-6.504338494e-06
6.979124772e-06
-0.0002094651678
6.665615535e-06
-0.0002108604702
-8.984346985e-06
-9.306266165e-06
2.231268452e-05
-0.0002142682698
0.0002012618514
-0.0002107370186
-6.151634169e-06
-0.0004228187774
-6.905417045e-06
0.0002116415547
0.0002116372553
-5.393193347e-06
-0.0004140887251
0.0004143515768
5.130341669e-06
-5.888035119e-06
6.117162815e-06
-0.0002067699512
-5.533960923e-06
-0.0002040277016
-8.35936196e-07
0.0002101765211
5.798921502e-06
-0.000209309827
0.0002067921896
-0.0002067866972
-5.893527554e-06
-0.0004127599077
-5.654915969e-06
0.0004130216303
-6.169773848e-06
0.0002081295031
0.0002098444859
4.590596558e-06
-3.190209625e-06
-0.0002247217387
0.0002247748222
3.137126089e-06
5.821451683e-06
-0.0002207408752
-5.781040705e-06
0.0002207004642
-0.0002252979459
-3.194803462e-06
0.0002253025398
-6.882537848e-06
-0.0004346725763
6.694915813e-06
0.0002171473408
0.0002177128575
-6.384735405e-06
6.3810849e-06
-0.0002171164757
0.0002171201262
-0.0002135204718
-7.157701515e-06
0.0002113719071
5.940758685e-06
-0.0002204163725
0.0002202970655
-0.0002174145764
-6.30388169e-06
0.0002173337227
-0.0004360752935
-6.829977605e-06
0.000217929902
0.0002180928312
-3.156743668e-06
-0.0002404595
0.0002404078123
3.208431319e-06
-0.0002410909269
-3.143313405e-06
0.0002410774966
-2.973558322e-06
-0.0002326300953
0.0002325820754
3.021578244e-06
-0.0002331626319
-2.969666991e-06
0.0002331587406
-2.552832362e-06
-0.0002564388011
0.0002564472565
2.544376961e-06
-0.0002570525484
-2.791594092e-06
0.0002572913102
-3.81275226e-06
-0.0002485577599
0.0002486829614
3.687550825e-06
-0.0002489426072
-3.820779707e-06
0.0002489506346
-0.0005374507255
0.0005374539095
-2.36658241e-06
-0.00026398851
0.0002637464899
2.608602486e-06
-2.127630636e-06
0.0002641459601
-6.895085806e-06
-0.0004142518268
4.652819115e-06
-0.0002131550162
0.0002131936613
-6.224472389e-07
2.830909621e-06
-0.0002489388242
-2.834692571e-06
-2.112161111e-06
-0.0004983615832
2.156823933e-06
0.0004983169204
2.15107864e-06
-0.0005041496363
0.0005041516137
-2.153056046e-06
-2.118856012e-06
-0.000490247006
2.117324123e-06
0.0004902485379
-0.0004963544462
0.0004963563574
-2.114072275e-06
2.724671041e-06
-0.0002484515213
-2.227472429e-06
-0.0005214376581
2.273366196e-06
0.0005213917643
-0.000527804336
0.0005278070706
-2.31727123e-06
2.143113497e-06
-0.0002641098691
4.347749808e-06
0.0002417548678
-0.0004828128601
-4.380684393e-06
-2.07916257e-06
-0.0004828144668
2.078020616e-06
0.0004828156087
-0.0004881074239
0.0004880634765
-2.074908584e-06
-3.965675997e-06
0.0002436898403
4.124702869e-06
-0.0002438488672
0.0002424520813
4.774304055e-06
-0.0002426978425
-4.5285429e-06
3.023509975e-06
-0.0002429599615
-2.967392426e-06
0.000242903844
2.250651396e-06
-0.0002569326529
-2.370546894e-06
-2.1416523e-06
-0.00051384536
2.090258273e-06
0.000513896754
-0.000519287258
0.0005192898743
-2.2300887e-06
-0.0005057326408
2.148910693e-06
0.0005057348088
-0.0005119346776
0.0005119846948
-2.191669524e-06
2.149044281e-06
-0.000256337194
-2.839344579e-06
-0.0002533652022
0.0002532934104
2.911136417e-06
-4.186200933e-06
0.000252584681
4.449966521e-06
-0.0002528484466
5.026017072e-06
0.0002520367306
-0.0002521973264
-4.865421309e-06
-4.623454205e-06
4.72788428e-06
-0.0002589267298
0.0002588222997
2.281491708e-05
-0.0002591133889
-7.296883287e-06
0.0002435953551
4.309956262e-06
-0.0002586319832
-4.503195965e-06
0.0002588252229
-2.916901159e-06
-0.0002465072957
0.0002465806767
2.843520161e-06
-3.400049457e-06
0.0002471040366
3.327579265e-06
-0.0002470315664
0.0002443702685
-0.0002446209258
-3.715018702e-06
0.0002515948034
5.233790426e-06
-0.0002518025767
0.0002501272291
5.811922627e-06
-0.0002503362245
-5.60292729e-06
3.635193394e-06
-0.000250836782
-3.519786971e-06
0.0002507213756
-3.335379663e-06
-0.0002619287356
0.0002617358174
3.528297859e-06
-3.974566002e-06
4.074697111e-06
-0.0002611014872
0.0002610013561
-0.0002592057019
-4.276443442e-06
0.0002588586911
-1.694029054e-06
-0.0002687611414
2.652810854e-05
0.0002439270619
2.078019893e-06
-0.0002670904646
-2.812268785e-06
0.0002678247135
-1.952056646e-06
-0.0002116980855
5.404240116e-06
0.000208245902
-0.0002153213155
1.845146434e-05
0.0001949177945
-5.465500753e-06
-0.0002102203854
0.0002107547576
4.931128559e-06
-0.0002114338355
-4.405716735e-06
0.0002103740515
-7.512358311e-06
-0.0002071300327
1.001881771e-05
0.0002046235733
-0.0002071214897
-7.16605378e-06
0.0002067751852
8.802031403e-06
-0.0002078633986
-8.060122495e-06
6.145380564e-06
-0.0002091210962
-5.905812571e-06
0.0002088815282
-5.186575451e-06
-0.0002106001548
0.0002103474263
5.439303975e-06
4.574537819e-06
-0.0002072702094
-5.57915881e-06
0.0002082748304
-0.0002090244031
0.0002089248196
6.244964055e-06
9.739847074e-06
-0.0002080678483
4.479978681e-06
-0.0002153189876
-4.482306527e-06
5.089733164e-06
-0.0002131974878
-5.545611684e-06
0.0002136533664
-6.790879728e-06
-0.0002137758938
0.0002140101109
6.556662619e-06
-0.0002116108051
-5.057989326e-06
0.000211482219
-0.0002119843398
0.0002121657268
4.908346103e-06
5.091715437e-06
-0.0002123098222
0.0002054096262
8.338790534e-06
-0.0002066151422
-7.133274589e-06
5.154745215e-06
-0.0002072858393
-5.196200565e-06
0.0002073272947
-0.000207500382
0.0002074324135
4.642506317e-06
-9.957963337e-06
-0.0002056994126
0.0002044897194
1.116765654e-05
-7.834689376e-06
0.0002032863522
4.930768309e-06
-0.0002245553425
-2.195701648e-06
0.0002218202759
4.48847488e-06
-0.0002244345685
-4.714829629e-06
0.0002246609232
-6.84593293e-06
-0.0002254577868
0.000226105906
6.197813797e-06
4.755767316e-06
-0.0002211662798
-4.587364537e-06
0.000220997877
-0.0002233437242
0.0002233958618
4.436337286e-06
5.206457893e-06
-0.0002229179834
0.0002226422938
6.811410827e-06
-0.0002270929675
-6.709410484e-06
0.0002269909671
-6.312623677e-06
-0.0002277396215
0.0002276338976
6.418347617e-06
-0.0002257051303
-7.083108702e-06
0.000225942306
-0.0002266602283
0.0002265188363
6.952802904e-06
6.690502939e-06
-0.0002151385036
-6.607709585e-06
0.0002150557102
6.293912859e-06
-0.0002156747293
-6.157927768e-06
0.0002155387442
-5.714663628e-06
-0.00021763508
0.0002175026192
5.847124429e-06
-0.0002138952842
-6.794783388e-06
0.0002138991879
-0.0002155444197
0.0002153691835
6.469149039e-06
6.821144011e-06
-0.0002148003749
0.0002146697338
5.85850539e-06
-0.0002192499973
-5.849813845e-06
0.0002192413057
5.191975708e-06
-0.0002196889848
-5.060839857e-06
0.0002195578489
-0.000220838144
0.0002207509969
4.842914439e-06
-0.0002178468058
-5.5432047e-06
0.0002176753469
-0.000218669506
0.0002185790793
5.282402443e-06
6.108317818e-06
-0.0002182318142
0.0002179820018
6.617691341e-06
-0.0002385022183
-6.456769128e-06
0.0002383412961
-5.928639277e-06
-0.0002399553633
0.0002397933022
6.0907004e-06
7.356640839e-06
-0.0002380530414
-7.446503392e-06
0.000238142904
-0.0002382501903
0.000238038407
6.829474625e-06
5.198628158e-06
-5.04077881e-06
0.000242294232
-4.420896512e-06
0.0002434790983
4.631638531e-06
-0.0002406230689
-5.721822737e-06
0.0002404162524
-0.0002421427289
0.0002419848447
5.356512347e-06
5.601775885e-06
-0.0002308489388
-5.357020943e-06
0.0002306041838
-4.791039262e-06
-0.0002323157428
0.0002321119901
4.994791944e-06
-0.0002282208506
-6.158743619e-06
0.0002280669705
-0.0002303179527
0.0002301170434
5.802685134e-06
3.951647645e-06
-0.0002358095591
-4.023556148e-06
0.0002358814676
-0.0002382115912
0.0002391777186
6.39051343e-06
-0.0002328518097
-4.586751244e-06
0.0002326475217
-0.000234756134
0.0002345721111
4.135670593e-06
0.0002557446218
-2.852700624e-06
3.357929672e-06
-0.0002562498508
0.0002534446201
-0.0002537121251
-3.918695869e-06
-0.0002543259178
-2.673319972e-06
0.0002541598932
4.06897864e-06
-4.064193577e-06
0.000253439835
-3.383813778e-06
3.70016544e-06
0.0002554282701
4.667125467e-06
-4.624514493e-06
0.0002519941197
4.451079262e-06
0.0002522025804
-0.0002570039664
3.231513227e-07
0.0002532970013
-0.0002582694332
0.0002587550562
3.824333197e-06
6.842455987e-05
-0.0002605680937
0.0002149584509
-0.0002575140563
-2.342610695e-06
0.0002492377572
-6.774850213e-06
6.684763245e-06
-0.0002491476702
0.0002492092672
-0.0002483823969
-4.226919776e-06
-0.0002470581487
-3.14701152e-06
0.0002472882591
3.019676042e-06
-3.133365769e-06
0.000249322957
-7.80055345e-06
2.261916112e-05
0.0002344191495
-4.203485016e-06
0.000244152857
0.0002466018243
3.521888336e-06
5.027912504e-06
-4.936704112e-06
0.0002500360207
4.756758019e-06
0.0002515051708
-0.0002486365574
-5.489833678e-06
0.0002463258376
-0.0002496402171
5.121075909e-06
0.0002495470537
-0.0002503011913
0.0002501875105
3.748874224e-06
6.023097493e-06
-0.000249851392
-0.0002488989556
-6.512452008e-06
-3.429094026e-06
3.529393365e-06
-0.00026320803
0.0002631077307
-0.0002616399699
-3.826807784e-06
0.0002614922117
-0.0002624185176
-3.093348965e-06
0.0002621764869
-0.0002655508234
0.0002657424152
1.886428134e-06
2.45749922e-06
-0.0002649305976
0.0002607790693
-0.0002635548299
-3.424259117e-06
0.000263549995
4.377559248e-06
0.0002336115621
-0.0004667779504
-4.37380294e-06
-2.087619997e-06
-0.0004667777029
2.086663984e-06
0.0004667786589
2.083994721e-06
-0.0004729192799
0.000472920169
-2.084883816e-06
-0.0004581348256
-2.048187316e-06
2.047303176e-06
0.0004581357098
-0.0004648189178
0.0004647765133
-2.04521546e-06
0.000232140426
4.382525873e-06
-0.000464775488
-0.00047523408
2.083106756e-06
0.0004752349679
-0.0004804512071
0.0004804526066
-2.080562003e-06
0.0002398005311
4.493019321e-06
-0.0004804053006
-3.375522229e-06
-0.0002386342755
0.0002386329985
3.376799259e-06
-6.293541803e-06
6.489154665e-06
-0.0002384458031
6.510353446e-06
-0.0002378317944
-6.731600462e-06
5.833870056e-06
-0.0002375351078
3.949984009e-06
-0.0002355523086
-4.207234511e-06
2.969019851e-06
-0.0002351762965
-3.026490012e-06
0.0002352337667
-0.0002104500351
-6.329556277e-06
0.0002104053033
-2.319517961e-05
-0.0002113199379
0.0001741882299
-1.931342295e-05
0.0002885609508
-0.0002076235894
6.798171864e-06
0.0002070508554
-0.0002081824332
7.537968501e-06
-6.666758005e-06
7.214582387e-06
-0.0002087302575
-6.163129866e-06
-0.000209968796
-0.0002161735074
6.0847629e-05
0.000177638563
-8.607093162e-06
7.653888458e-06
-0.0002152203027
-8.61158172e-06
-0.0002142637812
-5.747161434e-06
-0.0002111529871
0.0002108389312
-5.385811964e-06
-0.0002112002807
-5.762738081e-06
4.869228954e-06
-0.0002066593403
-5.206736836e-06
0.0002069968482
-0.0002075753984
0.0002075059691
5.224174497e-06
9.095801619e-06
-0.0002064564237
0.0002120084892
-9.735025875e-06
-0.0002084432372
4.156823843e-06
-6.084212559e-05
0.000268693791
0.0002067003629
5.585963971e-06
1.838706204e-06
0.0001886923567
-0.000205384392
6.047314344e-06
0.0002011757839
6.17316284e-06
-0.0002069669583
-0.0002853919159
-1.869848997e-05
0.0003040904059
-6.258794765e-05
4.563427706e-06
-0.000227367396
-2.214006109e-05
-0.0002269625181
0.0001865146316
-5.48260361e-06
5.633377733e-06
-0.0002208916493
0.0002210682282
-5.323488027e-06
-0.0002212273438
-5.613101885e-06
0.0002209002894
-6.180692188e-06
6.216107673e-06
-0.0002274728033
0.0002274373878
-6.191950329e-06
-0.0002275710399
0.0002275822981
-8.609356757e-06
-0.0002260930728
0.0002125623685
-6.599294577e-06
-0.000225753054
0.0002237429918
-0.0002164830594
6.316744516e-06
0.0002165473998
-6.945094315e-06
7.1083322e-06
-0.0002166462973
-6.752363672e-06
-0.0002173092064
-8.340143044e-06
-0.0002137919105
0.0002137593738
-7.980451848e-06
-0.000214119065
-6.770189952e-06
0.0002133718622
-0.0002202940835
6.01597852e-06
0.0002202188637
-5.780289217e-06
5.925896257e-06
-0.0002204396905
-0.0002205632839
-6.642288978e-06
-0.0002175246511
0.0002175466497
-6.493751009e-06
-0.0002176951877
-6.266497461e-06
0.0002175092655
-5.535744375e-06
5.738107339e-06
-0.0002401577262
-0.000238700667
-6.095093071e-06
-0.0002390026459
-3.272469535e-06
0.0002388995932
-0.0002426033191
0.0002425487863
3.07804272e-06
4.974745838e-06
-0.0002423431707
-0.0002407808733
-5.377939932e-06
-4.34114297e-06
4.522747105e-06
-0.0002324973469
4.979138987e-06
-0.0002309861967
-4.841881051e-06
3.036214328e-06
-0.000231161688
-3.030905224e-06
0.0002311563789
-5.440257779e-06
5.528913665e-06
-0.000231417832
0.0002313291761
-5.306831498e-06
-0.0002319485927
0.0002318151664
-5.799645662e-06
-0.0002278648012
0.0002274724965
-5.838486167e-06
-0.0002287292468
0.0002287680873
-2.098645565e-05
-0.0003005856167
0.0003215720723
-5.258791788e-06
-0.0002323950309
0.0002323469912
-0.0002329323926
-5.118902083e-06
0.0002327925029
-0.0002346391349
0.0002346865492
2.92160549e-06
3.949070554e-06
-0.0002347552206
-0.0002329893303
-4.203622366e-06
-0.0002524156608
0.00025220766
4.657967296e-06
-3.983725644e-06
-0.0002526687007
4.236765484e-06
-3.726740199e-06
-0.000253105432
-0.0002586596625
4.955568838e-06
0.0002584319779
-5.647458602e-06
5.978687859e-06
-0.0002589908918
-5.420694866e-06
-0.0002591534935
-6.299780747e-06
6.269000228e-06
-0.0002590826084
0.0002586032975
-0.0002589243904
0.0002562619831
-4.101971438e-06
6.658908257e-06
-0.000267972445
0.0002654155082
-0.0002679315726
0.0002676988903
-0.000260564072
4.175069148e-06
0.0002604637
-4.552779228e-06
4.87357628e-06
-0.0002608848691
-4.280883242e-06
-0.0002613733832
-5.146394921e-06
-0.0002594800018
0.0002599313682
-0.0002602041868
0.0002598299939
-2.257190495e-05
6.959341384e-05
-0.0002704108993
0.0002233893905
-0.0002687198421
0.0002528068454
-1.099391696e-06
1.103441501e-06
-0.0002687651912
0.0003394424588
-0.0002709484367
0.0003659705674
-0.0002101725506
0.0002092472344
-0.0002738550564
0.0002923065207
-2.809861139e-06
-0.0002115916417
1.545299888e-06
-1.131174786e-06
-0.0002093543432
-2.326357498e-05
6.009664641e-05
-0.0002097318265
-5.226328835e-06
-0.0002048725067
0.0001868352605
-3.121385839e-07
-0.0002087150564
0.0002730400659
-0.0002132555581
-0.0002084015925
0.0001952252306
-0.0002071390606
0.0002067711787
-5.914515414e-06
5.004772594e-06
-0.0002144092448
0.0002174897339
-0.0002157503609
-0.0002108435732
-5.049255953e-06
-0.0002111801292
-0.0002123543056
2.424316571e-05
-1.031115491e-05
0.0001905577086
-0.0002089252796
0.0001723263197
-0.0002074926489
2.012501441e-05
0.0001813490197
0.0002888188054
0.0002041243024
-0.000205785829
6.955148873e-06
0.0002032164679
0.0001999303462
-4.430314672e-06
4.705733546e-06
-0.0002248307614
0.0002265794933
-0.0002264463803
0.0002056853017
-0.0002216513716
0.0002212447276
-5.014260261e-06
-0.0002219605994
-0.0002232265101
-6.254324488e-06
6.29527608e-06
-0.0002267978684
0.0002267569168
-0.0002272410722
0.0002272028554
-6.388230884e-06
-0.0002259055199
0.0002256944562
-0.0002263605941
0.0002262676393
-7.271058374e-06
7.43169082e-06
-0.000215299136
0.000215627356
-0.0002157900821
0.0002153363909
-0.0002145036998
0.0002145546538
-7.758838575e-06
-0.0002147253131
-0.0002151275226
-5.993344202e-06
6.108626288e-06
-0.0002193652794
0.0002200802671
-0.000220147715
0.0002202464317
-0.0002177113097
0.00021755313
-6.304158959e-06
-0.0002179009017
-0.0002184273469
0.0002386912957
-6.341821014e-06
-0.0002388062438
5.662717758e-06
-5.575898727e-06
0.0002386044767
5.7962349e-06
0.000238207779
5.439765308e-06
-5.304739002e-06
0.0002396582758
-0.0002390834692
0.0002389473358
-0.0002393345899
0.000237637168
-7.096980543e-06
-0.0002379866909
8.298138195e-06
-6.021462968e-06
0.0002353604928
2.251721563e-05
0.0002239238265
5.938395113e-06
0.0002378962468
-0.0002378874551
0.0002378043873
-0.000238154961
0.0002426013427
-4.837295195e-06
-0.0002428048263
4.999055632e-06
-4.958469323e-06
0.0002425607564
5.040606458e-06
0.0002422526812
4.780147102e-06
-4.595678235e-06
0.0002432946294
-0.000242904923
0.0002427266008
-0.0002431105796
0.0002410865454
-5.559982974e-06
-0.0002412483852
5.214671696e-06
-5.212835124e-06
0.0002410847088
0.0002403261851
5.171969508e-06
0.0002418534817
-0.0002416276388
0.0002415867732
-0.0002418311094
-5.573842872e-06
-0.0002304858381
5.705558524e-06
0.0002303541224
-0.0002309308028
0.0002308858736
0.000231135033
-5.154686764e-06
-0.0002313373671
5.873170502e-06
-5.668940383e-06
5.991516236e-06
5.463706158e-06
-5.300308792e-06
-0.0002316230662
-0.000231782961
-5.751776238e-06
-0.0002294282752
0.0002293415652
-0.0002299129919
0.0002298667742
-1.198393785e-06
-0.0002353803616
4.552874824e-06
0.0002320258805
-0.0002380132096
0.0002158283602
0.0002379438799
-4.896432703e-06
-0.0002370710033
3.647711113e-06
-3.717040847e-06
4.148817158e-06
6.476118666e-05
0.0001969337476
-0.0002395414708
-0.0002380473901
0.0002331053517
-4.381875967e-06
-0.000233310227
5.047818011e-06
-4.874858826e-06
4.551743625e-06
0.0002341691846
-0.0002337185377
0.0002333954225
-0.0002339647431
-4.913410917e-06
0.0002331899313
0.0002338086485
-0.0002552967147
3.645544383e-06
0.0002550090999
-2.949734046e-06
3.207137085e-06
-0.0002555541177
-2.756714913e-06
-0.0002564428699
-3.467312684e-06
-0.0002539715526
0.0002545875984
-0.000254847774
0.0002543144469
-3.961557453e-06
0.0002542118108
0.0002547477079
-4.677309625e-06
-0.0002522420321
0.0002522948272
0.0002519814297
2.428341654e-05
-0.0002597236345
0.0002357633693
-0.0003271916007
0.0003514750172
-0.0002611690442
2.402003396e-06
-5.265441485e-06
3.638601785e-06
-0.0002595422045
-0.0002595645349
-2.774875404e-06
-0.0002574958958
0.0002596642418
-0.0002588005154
0.0003144426898
-6.672304721e-05
-0.0002508530083
-2.257602945e-05
0.0003370187192
4.690348299e-07
0.0002262778927
-0.0002504016487
0.0002062977627
0.0002447959466
-3.96985403e-06
-0.0002450295776
4.543658107e-06
-4.337106151e-06
0.0002445893946
0.0002441008369
4.023776058e-06
0.0002430470831
-0.0002453917039
0.0002450783738
-0.0002458396696
-4.846493405e-06
-0.0002506627436
0.0002505725329
-0.0002511526035
0.0002510628681
-5.314824015e-06
-0.000248790512
0.0002486155023
-0.0002492054522
0.0002490117041
-0.0002626185367
3.67849314e-06
0.0002624694369
-3.465535396e-06
3.737781359e-06
-0.0002628907826
-3.241522452e-06
-0.000263432043
-4.009410059e-06
-0.0002619114431
0.000262129139
-0.0002624007677
0.0002619808243
-0.0002634527347
3.357478656e-06
0.0002625527552
-1.821366736e-06
2.577386036e-06
-0.000264208754
-0.0002656485229
-2.915355608e-06
-0.0002638809968
0.000263662499
-0.0002640004686
0.0002635957186
0
0
0
0
0
0
0
0
0
0
0
0
0
0
0
0
0
0
0
5.325325618e-08
0
1.199736299e-05
5.323693226e-06
-6.230694115e-07
-5.548646549e-06
0
0
0
2.034206272e-05
-1.809618829e-06
4.838992265e-05
1.119598792e-05
-4.732868892e-06
-3.928789093e-05
0
0
0
5.635380557e-05
-4.61020108e-06
0
0
0
0
0
0
0
0
0
2.111812093e-06
0
5.369122161e-05
2.7838157e-05
-1.290918026e-05
-2.918146022e-05
0
2.977835297e-07
8.327013551e-05
-2.26061052e-05
0.0001884635264
7.004631992e-05
-4.805776381e-05
-0.0001519255335
-2.266376299e-05
1.500753102e-05
0.0002249056568
-5.152803364e-05
0.0003232214913
5.161037955e-05
-4.089170709e-05
-0.0002932894728
-8.10907524e-05
1.985891044e-05
0.0003490146009
-3.170548409e-05
0
0
0
4.715389368e-05
2.492501431e-05
-1.245979862e-05
-1.733599735e-05
0
8.380286696e-07
8.904711375e-05
-2.980212867e-05
0.0002644165342
0.000133686432
-0.0001021068432
-0.0001997960309
-5.864804975e-05
4.816919326e-05
0.0003325920051
-0.0001231266473
0.0005410047565
0.0001699260647
-0.0001454544076
-0.0004725692898
-0.0002184457056
9.438348308e-05
0.0006062905005
-0.0001373597488
0.0007695213491
8.034799337e-05
-7.609399027e-05
-0.0007217104049
-0.0003889290883
6.143657989e-05
0.0008096013538
-4.876399758e-05
-3.576404438e-06
2.63771209e-05
-5.738964866e-06
0.0002036382567
0.0001114720437
-8.722020158e-05
-0.000129134302
-3.857305461e-05
4.310953221e-05
0.0002901487556
-0.0001289727689
0.0006033268236
0.000275057096
-0.0002451255105
-0.0004964735968
-0.0002614114442
0.0001671060239
0.0007111325719
-0.000258205128
0.0009712346595
0.0002486502936
-0.0002288882727
-0.0008881989086
-0.0005702836965
0.0001923177928
0.001046815683
-0.0001997034439
0.001202286235
8.029869086e-05
-8.153900808e-05
-0.001161951691
-0.0008384082724
8.25039513e-05
0.001232175318
-4.02836571e-05
-3.986976804e-05
9.726815234e-05
-3.478090649e-05
0.0003982391731
0.0001994569831
-0.0001838470585
-0.0002823653884
-0.0001662270863
0.0001364494757
0.0005228237398
-0.0002394141875
0.000914413748
0.0003615787289
-0.000342668893
-0.0007857647584
-0.0005619023166
0.0002965214177
0.001036323874
-0.0003442736182
0.001345396216
0.0002664309478
-0.0002793039042
-0.0012518779
-0.0010090388
0.000270711232
0.001410370932
-0.0002322383367
0.001450690817
0.0001019970339
-8.570554581e-05
-0.001466092426
-0.001254803537
8.117596484e-05
0.001436779916
-4.069110852e-05
-8.888903504e-05
0.0001759969165
-7.071765707e-05
0.0005642534481
0.0002613597615
-0.0002519153359
-0.0004187130464
-0.0003139927404
0.0002204214583
0.0007182759626
-0.0003107818191
0.00117100187
0.0004006740714
-0.0003943354096
-0.001027405343
-0.0008591536455
0.0003833387792
0.001301970167
-0.000384690899
0.001562775487
0.0002443656652
-0.000248177311
-0.001505752446
-0.001318451157
0.0002564526614