/*--------------------------------*- C++ -*----------------------------------*\
| =========                 |                                                 |
| \\      /  F ield         | OpenFOAM: The Open Source CFD Toolbox           |
|  \\    /   O peration     | Version:  v2012                                 |
|   \\  /    A nd           | Website:  www.openfoam.com                      |
|    \\/     M anipulation  |                                                 |
\*---------------------------------------------------------------------------*/
FoamFile
{
    version     2.0;
    format      ascii;
    class       pointVectorField;
    location    "1.29";
    object      pointDisplacement;
}
// * * * * * * * * * * * * * * * * * * * * * * * * * * * * * * * * * * * * * //

dimensions      [0 1 0 0 0 0 0];


internalField   nonuniform List<vector> 
6962
(
(0 0 0)
(0 0 0)
(0 0 0)
(0 0 0)
(0 0 0)
(0 0 0)
(0 0 0)
(0 0 0)
(0 0 0)
(0 0 0)
(-0.0003400352114 0.001223814713 5.606626274e-15)
(0 0 0)
(0 0 0)
(0 0 0)
(0 0 0)
(0 0 0)
(0 0 0)
(0 0 0)
(0 0 0)
(0 0 0)
(0 0 0)
(0 0 0)
(0 0 0)
(0 0 0)
(0 0 0)
(-0.0006044900787 0.002073316511 9.964251646e-15)
(-0.0005511198962 0.001913689671 9.076073226e-15)
(-0.0004716800387 0.001657787373 7.771561172e-15)
(-0.00234468565 0.009050205956 4.241051954e-14)
(-0.002518880942 0.009605006076 4.556077737e-14)
(-0.00381780396 0.01530671374 7.259470802e-14)
(-0.003605189057 0.01463202576 6.855627177e-14)
(-0.007645319349 0.03667117598 1.717237463e-13)
(-0.007784473472 0.03687834024 1.748046152e-13)
(-0.008836598638 0.04455328848 2.111366637e-13)
(-0.008723439703 0.04453512984 2.085276396e-13)
(-0.0103223018 0.06530514834 3.056999098e-13)
(-0.01035169918 0.06466269322 3.063660436e-13)
(-0.01027752341 0.06976520359 3.305550278e-13)
(-0.01022572631 0.07031223341 3.291533712e-13)
(-0.008238619077 0.07671561609 0)
(-0.0082474238 0.07579572747 0)
(-0.007270629799 0.0757857589 0)
(-0.007266314635 0.07624554384 0)
(-0.007262127241 0.07670537289 0)
(-0.00434275137 0.07667558479 0)
(-0.004344500617 0.0764459017 0)
(-0.004102640542 0.07644359485 0)
(-0.004100913352 0.07667321406 0)
(0 0 0)
(0 0 0)
(0 0 0)
(0 0 0)
(0 0 0)
(0 0 0)
(0 0 0)
(0 0 0)
(0 0 0)
(0 0 0)
(0 0 0)
(0 0 0)
(0 0 0)
(0 0 0)
(-0.000573238472 0.001877854502 9.492406861e-15)
(-0.0006477994931 0.002149557992 1.071365219e-14)
(-0.0006922115148 0.002326277205 1.146305273e-14)
(-0.002788924199 0.01029535082 5.068168107e-14)
(-0.002699230775 0.009838210201 4.904410211e-14)
(-0.00402285241 0.01541807408 7.685518888e-14)
(-0.004130311888 0.01603321308 7.890910148e-14)
(-0.008126031298 0.03728710557 1.834227215e-13)
(-0.007993743396 0.03620941752 1.803973637e-13)
(-0.009026566656 0.0435198637 2.167849233e-13)
(-0.009156223507 0.04472207468 2.199629368e-13)
(-0.01053060857 0.06378070325 3.136380045e-13)
(-0.01044139597 0.062406293 3.108069357e-13)
(-0.01028355172 0.06682097913 3.327893516e-13)
(-0.01034985326 0.06815901497 3.351763311e-13)
(-0.008165860533 0.07302588805 0)
(-0.008175692669 0.0721058608 0)
(-0.007196168187 0.07209539283 0)
(-0.007191253261 0.0725552996 0)
(-0.007186336051 0.07301542008 0)
(-0.004247805348 0.07298401663 0)
(-0.004252722558 0.07252389615 0)
(-0.003762981688 0.07251866239 0)
(-0.003760521941 0.07274882949 0)
(-0.003758064478 0.07297878287 0)
(-0.004002934913 0.07298139975 0)
(0 0 0)
(0 0 0)
(0 0 0)
(0 0 0)
(0 0 0)
(0 0 0)
(0 0 0)
(0 0 0)
(0 0 0)
(0 0 0)
(0 0 0)
(0 0 0)
(0 0 0)
(0 0 0)
(-0.0001339167818 0.0004160284009 2.206568261e-15)
(-0.0002429796058 0.0007651212249 4.024558464e-15)
(-0.0003609707591 0.001151935301 5.967448757e-15)
(-0.002068686555 0.007251454971 3.759492717e-14)
(-0.001767692218 0.006114527684 3.214095656e-14)
(-0.002876704034 0.01046333284 5.498379529e-14)
(-0.003253574891 0.0119922687 6.217248938e-14)
(-0.007004603319 0.03050704507 1.580541253e-13)
(-0.006495272951 0.02791624487 1.466049504e-13)
(-0.00752353578 0.03441183984 1.806749195e-13)
(-0.008039951571 0.03726507503 1.930400284e-13)
(-0.009690766413 0.05564226641 2.881722638e-13)
(-0.009264837355 0.05248799763 2.755018436e-13)
(-0.009313597126 0.05733721099 3.009537064e-13)
(-0.009677547595 0.06038821449 3.12749826e-13)
(-0.00811422884 0.06859533898 3.553407568e-13)
(-0.007986102613 0.06656615129 3.494704526e-13)
(-0.007172295019 0.06783445184 3.561873019e-13)
(-0.00722124064 0.06929358907 3.590044928e-13)
(-0.00428713846 0.06930348021 0)
(-0.00429697288 0.06838323925 0)
(-0.00331746977 0.06837277151 0)
(-0.00330763535 0.06929301247 0)
(-0.003797397591 0.06929824645 0)
(0 0 0)
(0 0 0)
(0 0 0)
(0 0 0)
(0 0 0)
(0 0 0)
(0 0 0)
(0 0 0)
(0 0 0)
(0 0 0)
(0 0 0)
(0 0 0)
(0 0 0)
(0 0 0)
(0 0 0)
(0 0 0)
(-3.289599446e-06 9.941006675e-06 5.551115123e-17)
(-0.0007868853451 0.002612883642 1.430799923e-14)
(-0.0004940533748 0.001617719276 8.992806499e-15)
(-0.001148487695 0.003955249113 2.19685381e-14)
(-0.001577062945 0.005507331814 3.015643291e-14)
(-0.004573994184 0.01888209004 1.033617636e-13)
(-0.003856118749 0.01570263274 8.718026301e-14)
(-0.004762181277 0.02064118859 1.145750161e-13)
(-0.005528127974 0.02428858053 1.329353294e-13)
(-0.007453380248 0.04056349445 2.219335826e-13)
(-0.006694955095 0.0359523724 1.995209553e-13)
(-0.006967993378 0.04065882409 2.25638952e-13)
(-0.007679554426 0.04541143863 2.484401573e-13)
(-0.007069803739 0.056543206 3.093914014e-13)
(-0.006577801987 0.05191330101 2.881028749e-13)
(-0.006093927398 0.05453152502 3.026745521e-13)
(-0.006503377302 0.05897698969 3.227279555e-13)
(-0.004138848212 0.062929325 3.444883268e-13)
(-0.003941393469 0.0591215084 3.282651928e-13)
(-0.00307985807 0.0597189914 3.316236175e-13)
(-0.003225344452 0.06339249706 3.470834731e-13)
(0 0 0)
(0 0 0)
(0 0 0)
(0 0 0)
(0 0 0)
(0 0 0)
(0 0 0)
(0 0 0)
(0 0 0)
(0 0 0)
(0 0 0)
(0 0 0)
(0 0 0)
(0 0 0)
(0 0 0)
(0 0 0)
(0 0 0)
(-2.888012934e-06 9.055014571e-06 5.551115123e-17)
(0 0 0)
(-2.973919272e-05 9.66518437e-05 5.689893001e-16)
(-0.0001757328334 0.0005796899085 3.358424649e-15)
(-0.001770614201 0.006913900502 4.010680676e-14)
(-0.001181139041 0.004546070232 2.678413047e-14)
(-0.001757478562 0.007204281051 4.242439733e-14)
(-0.002449879642 0.01018662171 5.909162049e-14)
(-0.004178380993 0.02155294118 1.249972348e-13)
(-0.0033363145 0.01697672903 9.994782779e-14)
(-0.003688022039 0.02040517737 1.201261313e-13)
(-0.004528806388 0.02539442828 1.472710842e-13)
(-0.004671043996 0.03547365084 2.057104487e-13)
(-0.003953898461 0.02965408109 1.745825706e-13)
(-0.003773987424 0.03212234922 1.891126145e-13)
(-0.00442158012 0.03809359339 2.209066263e-13)
(-0.002981914096 0.04318870979 2.505218255e-13)
(-0.002581679688 0.03701578843 2.179645353e-13)
(-0.002028686115 0.03774048157 2.222666495e-13)
(-0.002341056737 0.04393027987 2.548516953e-13)
(0 0 0)
(0 0 0)
(0 0 0)
(0 0 0)
(0 0 0)
(0 0 0)
(0 0 0)
(0 0 0)
(0 0 0)
(0 0 0)
(0 0 0)
(0 0 0)
(0 0 0)
(0 0 0)
(0 0 0)
(0 0 0)
(0 0 0)
(0 0 0)
(0 0 0)
(0 0 0)
(0 0 0)
(-7.63021282e-05 0.0002807056165 1.720845688e-15)
(0 0 0)
(-5.546652199e-05 0.0002140851412 1.346145417e-15)
(-0.0002748916663 0.001077726638 6.661338148e-15)
(-0.001169653789 0.005705201347 3.519406988e-14)
(-0.0006530415123 0.0031383864 1.967870311e-14)
(-0.0008790057473 0.004598909301 2.882416528e-14)
(-0.001446369836 0.007677978459 4.736488979e-14)
(-0.00188383614 0.01360265893 8.390510509e-14)
(-0.001300869097 0.009269824975 5.810629755e-14)
(-0.001317506403 0.01067765715 6.69325706e-14)
(-0.001866537467 0.01531954338 9.449385718e-14)
(-0.001355662731 0.01889684143 1.165734176e-13)
(-0.0009901260427 0.01366980169 8.569533971e-14)
(-0.0007830763685 0.01413760087 8.862355294e-14)
(-0.00106918037 0.01944825195 1.199873534e-13)
(0 0 0)
(0 0 0)
(0 0 0)
(0 0 0)
(0 0 0)
(0 0 0)
(0 0 0)
(0 0 0)
(0 0 0)
(0 0 0)
(0 0 0)
(0 0 0)
(0 0 0)
(0 0 0)
(0 0 0)
(0 0 0)
(0 0 0)
(0 0 0)
(0 0 0)
(0 0 0)
(0 0 0)
(0 0 0)
(0 0 0)
(0 0 0)
(0 0 0)
(0 0 0)
(0 0 0)
(0 0 0)
(-8.578332187e-06 4.281968486e-05 2.91433544e-16)
(-0.000153546889 0.001047587535 6.89726054e-15)
(-1.730330177e-05 0.0001161510387 7.771561172e-16)
(-3.777728598e-05 0.0002889848689 1.942890293e-15)
(-0.0001942644322 0.001509820913 9.950373858e-15)
(-0.0001985625335 0.002650110308 1.745825706e-14)
(-6.448438094e-05 0.0008486253565 5.689893001e-15)
(-5.519793197e-05 0.0009561235667 6.411537967e-15)
(-0.000162132469 0.002844950488 1.873501354e-14)
(0 0 0)
(0 0 0)
(0 0 0)
(0 0 0)
(0 0 0)
(0 0 0)
(0 0 0)
(0 0 0)
(0 0 0)
(0 0 0)
(0 0 0)
(0 0 0)
(0 0 0)
(0 0 0)
(0 0 0)
(0 0 0)
(0 0 0)
(0 0 0)
(0 0 0)
(0 0 0)
(0 0 0)
(0 0 0)
(0 0 0)
(0 0 0)
(0 0 0)
(0 0 0)
(0 0 0)
(0 0 0)
(0 0 0)
(0 0 0)
(0 0 0)
(0 0 0)
(0 0 0)
(0 0 0)
(0 0 0)
(0 0 0)
(0 0 0)
(0 0 0)
(0 0 0)
(0 0 0)
(0 0 0)
(0 0 0)
(0 0 0)
(0 0 0)
(0 0 0)
(0 0 0)
(0 0 0)
(0 0 0)
(0 0 0)
(0 0 0)
(0 0 0)
(0 0 0)
(0 0 0)
(0 0 0)
(0 0 0)
(0 0 0)
(0 0 0)
(0 0 0)
(0 0 0)
(0 0 0)
(0 0 0)
(0 0 0)
(0 0 0)
(0 0 0)
(0 0 0)
(0 0 0)
(0 0 0)
(0 0 0)
(0 0 0)
(0 0 0)
(0 0 0)
(0 0 0)
(0 0 0)
(0 0 0)
(0 0 0)
(0 0 0)
(0 0 0)
(0 0 0)
(0 0 0)
(0 0 0)
(0 0 0)
(0 0 0)
(0 0 0)
(0 0 0)
(0 0 0)
(0 0 0)
(0 0 0)
(0 0 0)
(0 0 0)
(0 0 0)
(0 0 0)
(0 0 0)
(0 0 0)
(0 0 0)
(0 0 0)
(0 0 0)
(0 0 0)
(0 0 0)
(0 0 0)
(0 0 0)
(0 0 0)
(0 0 0)
(0 0 0)
(0 0 0)
(0 0 0)
(0 0 0)
(0 0 0)
(0 0 0)
(0 0 0)
(0 0 0)
(0 0 0)
(0 0 0)
(0 0 0)
(0 0 0)
(0 0 0)
(0 0 0)
(0 0 0)
(0 0 0)
(0 0 0)
(0 0 0)
(0 0 0)
(0 0 0)
(0 0 0)
(0 0 0)
(0 0 0)
(0 0 0)
(0 0 0)
(0 0 0)
(0 0 0)
(0 0 0)
(0 0 0)
(0 0 0)
(0 0 0)
(0 0 0)
(0 0 0)
(0 0 0)
(0 0 0)
(0 0 0)
(0 0 0)
(0 0 0)
(0 0 0)
(0 0 0)
(0 0 0)
(0 0 0)
(0 0 0)
(0 0 0)
(0 0 0)
(0 0 0)
(0 0 0)
(0 0 0)
(0 0 0)
(0 0 0)
(0 0 0)
(0 0 0)
(0 0 0)
(0 0 0)
(0 0 0)
(0 0 0)
(0 0 0)
(0 0 0)
(0 0 0)
(0 0 0)
(0 0 0)
(0 0 0)
(0 0 0)
(0 0 0)
(0 0 0)
(0 0 0)
(0 0 0)
(0 0 0)
(0 0 0)
(0 0 0)
(0 0 0)
(0 0 0)
(0 0 0)
(0 0 0)
(0 0 0)
(0 0 0)
(0 0 0)
(0 0 0)
(0 0 0)
(0 0 0)
(0 0 0)
(0 0 0)
(0 0 0)
(0 0 0)
(0 0 0)
(0 0 0)
(0 0 0)
(0 0 0)
(0 0 0)
(0 0 0)
(0 0 0)
(0 0 0)
(0 0 0)
(0 0 0)
(0 0 0)
(0 0 0)
(0 0 0)
(0 0 0)
(0 0 0)
(0 0 0)
(0 0 0)
(0 0 0)
(0 0 0)
(0 0 0)
(0 0 0)
(0 0 0)
(0 0 0)
(0 0 0)
(0 0 0)
(0 0 0)
(0 0 0)
(0 0 0)
(0 0 0)
(0 0 0)
(0 0 0)
(0 0 0)
(0 0 0)
(0 0 0)
(0 0 0)
(0 0 0)
(0 0 0)
(0 0 0)
(0 0 0)
(0 0 0)
(0 0 0)
(0 0 0)
(0 0 0)
(0 0 0)
(0 0 0)
(0 0 0)
(0 0 0)
(0 0 0)
(0 0 0)
(0 0 0)
(0 0 0)
(0 0 0)
(0 0 0)
(0 0 0)
(0 0 0)
(0 0 0)
(0 0 0)
(0 0 0)
(0 0 0)
(0 0 0)
(0 0 0)
(0 0 0)
(0 0 0)
(0 0 0)
(0 0 0)
(0 0 0)
(0 0 0)
(0 0 0)
(0 0 0)
(0 0 0)
(0 0 0)
(0 0 0)
(0 0 0)
(0 0 0)
(0 0 0)
(0 0 0)
(0 0 0)
(0 0 0)
(0 0 0)
(0 0 0)
(0 0 0)
(0 0 0)
(0 0 0)
(0 0 0)
(0 0 0)
(0 0 0)
(0 0 0)
(0 0 0)
(0 0 0)
(0 0 0)
(0 0 0)
(0 0 0)
(0 0 0)
(0 0 0)
(0 0 0)
(0 0 0)
(0 0 0)
(0 0 0)
(0 0 0)
(0 0 0)
(0 0 0)
(0 0 0)
(0 0 0)
(0 0 0)
(0 0 0)
(0 0 0)
(0 0 0)
(0 0 0)
(0 0 0)
(0 0 0)
(0 0 0)
(0 0 0)
(0 0 0)
(0 0 0)
(0 0 0)
(0 0 0)
(0 0 0)
(0 0 0)
(0 0 0)
(0 0 0)
(0 0 0)
(0 0 0)
(0 0 0)
(0 0 0)
(0 0 0)
(0 0 0)
(0 0 0)
(0 0 0)
(0 0 0)
(0 0 0)
(0 0 0)
(0 0 0)
(0 0 0)
(0 0 0)
(0 0 0)
(0 0 0)
(0 0 0)
(0 0 0)
(0 0 0)
(0 0 0)
(0 0 0)
(0 0 0)
(0 0 0)
(0 0 0)
(0 0 0)
(0 0 0)
(0 0 0)
(0 0 0)
(0 0 0)
(0 0 0)
(0 0 0)
(0 0 0)
(0 0 0)
(0 0 0)
(0 0 0)
(0 0 0)
(0 0 0)
(0 0 0)
(0 0 0)
(0 0 0)
(0 0 0)
(0 0 0)
(0 0 0)
(0 0 0)
(0 0 0)
(0 0 0)
(0 0 0)
(0 0 0)
(0 0 0)
(0 0 0)
(0 0 0)
(0 0 0)
(0 0 0)
(0 0 0)
(0 0 0)
(0 0 0)
(0 0 0)
(0 0 0)
(0 0 0)
(0 0 0)
(0 0 0)
(0 0 0)
(0 0 0)
(0 0 0)
(0 0 0)
(0 0 0)
(0 0 0)
(0 0 0)
(0 0 0)
(0 0 0)
(0 0 0)
(0 0 0)
(0 0 0)
(0 0 0)
(0 0 0)
(0 0 0)
(0 0 0)
(0 0 0)
(0 0 0)
(0 0 0)
(0 0 0)
(0 0 0)
(0 0 0)
(0 0 0)
(0 0 0)
(0 0 0)
(0 0 0)
(0 0 0)
(0 0 0)
(0 0 0)
(0 0 0)
(0 0 0)
(0 0 0)
(0 0 0)
(0 0 0)
(0 0 0)
(0 0 0)
(0 0 0)
(0 0 0)
(0 0 0)
(0 0 0)
(0 0 0)
(0 0 0)
(0 0 0)
(0 0 0)
(0 0 0)
(0 0 0)
(0 0 0)
(0 0 0)
(0 0 0)
(0 0 0)
(0 0 0)
(0 0 0)
(0 0 0)
(0 0 0)
(0 0 0)
(0 0 0)
(0 0 0)
(0 0 0)
(0 0 0)
(0 0 0)
(0 0 0)
(0 0 0)
(0 0 0)
(0 0 0)
(0 0 0)
(0 0 0)
(0 0 0)
(0 0 0)
(0 0 0)
(0 0 0)
(0 0 0)
(0 0 0)
(0 0 0)
(0 0 0)
(0 0 0)
(0 0 0)
(0 0 0)
(0 0 0)
(0 0 0)
(0 0 0)
(0 0 0)
(0 0 0)
(0 0 0)
(0 0 0)
(0 0 0)
(0 0 0)
(0 0 0)
(0 0 0)
(0 0 0)
(0 0 0)
(0 0 0)
(0 0 0)
(0 0 0)
(0 0 0)
(0 0 0)
(0 0 0)
(0 0 0)
(0 0 0)
(0 0 0)
(0 0 0)
(0 0 0)
(0 0 0)
(0 0 0)
(0 0 0)
(0 0 0)
(0 0 0)
(0 0 0)
(0 0 0)
(0 0 0)
(0 0 0)
(0 0 0)
(0 0 0)
(0 0 0)
(0 0 0)
(0 0 0)
(0 0 0)
(0 0 0)
(0 0 0)
(0 0 0)
(0 0 0)
(0 0 0)
(0 0 0)
(0 0 0)
(0 0 0)
(0 0 0)
(0 0 0)
(0 0 0)
(0 0 0)
(0 0 0)
(0 0 0)
(0 0 0)
(0 0 0)
(0 0 0)
(0 0 0)
(0 0 0)
(0 0 0)
(0 0 0)
(0 0 0)
(0 0 0)
(0 0 0)
(0 0 0)
(0 0 0)
(0 0 0)
(0 0 0)
(0 0 0)
(0 0 0)
(0 0 0)
(0 0 0)
(0 0 0)
(0 0 0)
(0 0 0)
(0 0 0)
(0 0 0)
(0 0 0)
(0 0 0)
(0 0 0)
(0 0 0)
(0 0 0)
(0 0 0)
(0 0 0)
(0 0 0)
(0 0 0)
(0 0 0)
(0 0 0)
(0 0 0)
(0 0 0)
(0 0 0)
(0 0 0)
(0 0 0)
(0 0 0)
(0 0 0)
(0 0 0)
(0 0 0)
(0 0 0)
(0 0 0)
(0 0 0)
(0 0 0)
(0 0 0)
(0 0 0)
(0 0 0)
(0 0 0)
(0 0 0)
(0 0 0)
(0 0 0)
(0 0 0)
(0 0 0)
(0 0 0)
(0 0 0)
(0 0 0)
(0 0 0)
(0 0 0)
(0 0 0)
(0 0 0)
(0 0 0)
(0 0 0)
(0 0 0)
(0 0 0)
(0 0 0)
(0 0 0)
(0 0 0)
(0 0 0)
(0 0 0)
(0 0 0)
(0 0 0)
(0 0 0)
(0 0 0)
(0 0 0)
(0 0 0)
(0 0 0)
(0 0 0)
(0 0 0)
(0 0 0)
(0 0 0)
(0 0 0)
(0 0 0)
(0 0 0)
(0 0 0)
(0 0 0)
(0 0 0)
(0 0 0)
(0 0 0)
(0 0 0)
(0 0 0)
(0 0 0)
(0 0 0)
(0 0 0)
(0 0 0)
(0 0 0)
(0 0 0)
(0 0 0)
(0 0 0)
(0 0 0)
(0 0 0)
(0 0 0)
(0 0 0)
(0 0 0)
(0 0 0)
(0 0 0)
(0 0 0)
(0 0 0)
(0 0 0)
(0 0 0)
(0 0 0)
(0 0 0)
(0 0 0)
(0 0 0)
(0 0 0)
(0 0 0)
(0 0 0)
(0 0 0)
(0 0 0)
(0 0 0)
(0 0 0)
(0 0 0)
(0 0 0)
(0 0 0)
(0 0 0)
(0 0 0)
(0 0 0)
(0 0 0)
(0 0 0)
(0 0 0)
(-0.004099204564 0.07690311132 0)
(-0.004341021211 0.07690548183 0)
(-0.004000475166 0.07321156685 0)
(-0.004245345601 0.07321418372 0)
(-0.007258108532 0.07716541748 0)
(-0.007254004338 0.07762546115 0)
(-0.008230155378 0.07763559384 0)
(-0.004339331738 0.07713557166 0)
(-0.004823776449 0.07714038547 0)
(-0.00482745322 0.07668033723 0)
(-0.004328924843 0.07851538108 0)
(-0.007181418841 0.07347554056 0)
(-0.007248985885 0.07392305581 0)
(-0.008227044112 0.0739347264 0)
(-0.004242888138 0.07344413711 0)
(-0.004732650379 0.07344937109 0)
(-0.004737567589 0.07298925061 0)
(-0.004831127479 0.07622052407 0)
(-0.004346340144 0.07621577072 0)
(-0.004358221419 0.07483599844 0)
(-0.004116233803 0.0748336261 0)
(-0.004114097592 0.0750635188 0)
(-0.00435608498 0.07506591251 0)
(-0.002419487365 0.07481692536 0)
(-0.002410944877 0.07493107582 0)
(-0.002536202617 0.07493267091 0)
(-0.002542127974 0.07481821463 0)
(-0.002393639771 0.07665537489 0)
(-0.002523863331 0.0766573009 0)
(-0.002527223009 0.07654292406 0)
(-0.002398883013 0.07654114642 0)
(-0.003792480381 0.06975836693 0)
(-0.00428222125 0.06976360069 0)
(-0.002390936807 0.07677010071 0)
(-0.00252229426 0.07677212434 0)
(-0.004330656601 0.07828533444 0)
(-0.004088840182 0.07828294256 0)
(-0.00226508179 0.07665359492 0)
(-0.002259999908 0.07676812433 0)
(-0.002289202161 0.07296436787 0)
(-0.00228717279 0.07319646318 0)
(-0.002408495012 0.07319711852 0)
(-0.002530616807 0.07319735493 0)
(-0.002533577226 0.07296633824 0)
(-0.002548992289 0.07470389662 0)
(-0.002428474372 0.07470277966 0)
(-0.004360442429 0.07460617077 0)
(-0.004118432985 0.07460384095 0)
(-0.002323124397 0.0747021454 0)
(-0.002313285594 0.07481619651 0)
(-0.002044923706 0.07296175731 0)
(-0.002044413823 0.07319386887 0)
(-0.002166476742 0.07319581454 0)
(-0.002272639835 0.07653956218 0)
(-0.00230286664 0.07493013455 0)
(-0.001139531948 0.07566443076 0)
(-0.001014473106 0.07566262407 0)
(-0.001009076514 0.07577640204 0)
(-0.001133147781 0.07577821956 0)
(-0.002445399117 0.07573947196 0)
(-0.002558545429 0.0757399758 0)
(-0.002560413467 0.07562517693 0)
(-0.002449295814 0.07562484438 0)
(-0.003385632233 0.07574657048 0)
(-0.003387489705 0.0755167603 0)
(-0.003148149826 0.07551462999 0)
(-0.003146399438 0.07574441994 0)
(-0.003393644397 0.07482684438 0)
(-0.003154261775 0.07482471362 0)
(-0.003152991215 0.07493960437 0)
(-0.003151977337 0.07505447649 0)
(-0.003391465672 0.07505671525 0)
(-0.003378090005 0.07666632297 0)
(-0.003379902223 0.07643674741 0)
(-0.003140028294 0.07643459003 0)
(-0.003138024421 0.07666409942 0)
(-0.003144371453 0.07597418556 0)
(-0.003383753617 0.07597635906 0)
(-0.002439561073 0.07585375818 0)
(-0.002554906555 0.07585447789 0)
(-0.002417968086 0.07757828928 0)
(-0.00253555571 0.07757920394 0)
(-0.002537682258 0.07746421547 0)
(-0.00242141873 0.07746340046 0)
(-0.003371055204 0.07758659385 0)
(-0.003372873588 0.07735644127 0)
(-0.003133021487 0.07735424137 0)
(-0.003131160588 0.07758437212 0)
(-0.00313629449 0.07689397508 0)
(-0.003376360074 0.07689619863 0)
(-0.003365569184 0.07827593982 0)
(-0.003125290573 0.07827364987 0)
(-0.003129215804 0.07781435236 0)
(-0.003369217503 0.07781655386 0)
(-0.002413701978 0.0776930839 0)
(-0.002532852827 0.07769412213 0)
(-0.002301352162 0.07757744913 0)
(-0.002294984506 0.07769209305 0)
(-0.002306899853 0.07746273233 0)
(-0.003395949978 0.07459710311 0)
(-0.003156801525 0.07459506035 0)
(-0.003155446166 0.07470988607 0)
(-0.003351844001 0.07388025371 0)
(-0.003111554495 0.07388698329 0)
(-0.003140809224 0.07401551599 0)
(-0.003155080535 0.07413409948 0)
(-0.003394478328 0.07413281063 0)
(-0.002388043537 0.07388023447 0)
(-0.002431717466 0.07400971209 0)
(-0.002545774841 0.07400896463 0)
(-0.002504954642 0.07387665344 0)
(-0.002328695289 0.07391005757 0)
(-0.002358061468 0.07401416147 0)
(-0.001188080074 0.07383041306 0)
(-0.001184995398 0.07394485695 0)
(-0.001300492942 0.07394354779 0)
(-0.001303651731 0.07382916881 0)
(-0.001152610408 0.07474343365 0)
(-0.001271771078 0.07474355292 0)
(-0.001274544339 0.07462884922 0)
(-0.001155808808 0.07462894822 0)
(-0.002333572171 0.07573911046 0)
(-0.002325238354 0.0758531349 0)
(-0.001254430999 0.07578712468 0)
(-0.001286446091 0.07569276051 0)
(-0.001149679147 0.07485792193 0)
(-0.001269708562 0.07485834971 0)
(-0.001255473266 0.07554719609 0)
(-0.001139279399 0.07554826269 0)
(-0.002340887646 0.0756247759 0)
(-0.001016347539 0.0755472268 0)
(-0.001034686376 0.07474379781 0)
(-0.001030986815 0.07485797865 0)
(-0.007215837027 0.07025491091 0)
(-0.008173935369 0.07008599613 3.582967256e-13)
(-0.004277306324 0.07022350746 0)
(-0.004767068565 0.07022874144 0)
(-0.005256830806 0.07023397543 0)
(-0.005266662942 0.06931394818 0)
(-0.004742484799 0.07252913013 0)
(-0.004267471904 0.07114374842 0)
(-0.003777731034 0.07113851466 0)
(-0.003772813824 0.07159863514 0)
(-0.004262554694 0.0716038689 0)
(-0.002308459272 0.07112281287 0)
(-0.002303542062 0.07158293335 0)
(-0.002793289343 0.07158816717 0)
(-0.002798206553 0.07112804669 0)
(-0.002536124741 0.07273595835 0)
(-0.002291405894 0.07273355683 0)
(-0.002418467189 0.07527738672 0)
(-0.002541544536 0.07527880889 0)
(-0.002534256234 0.07516280074 0)
(-0.002406148727 0.07516106833 0)
(-0.002909896688 0.07528280951 0)
(-0.002910104173 0.07516739444 0)
(-0.00278736976 0.0751660828 0)
(-0.002788507743 0.07528159775 0)
(-0.002913704655 0.07482248482 0)
(-0.002791418807 0.07482119935 0)
(-0.002788952605 0.07493597045 0)
(-0.002912007129 0.07493732826 0)
(-0.002046685058 0.07273094155 0)
(-0.001818703442 0.07111757895 0)
(-0.001813786232 0.07157769943 0)
(-0.002400087636 0.07803662546 0)
(-0.002275273273 0.07803514198 0)
(-0.002269125119 0.07814944627 0)
(-0.002395829456 0.07815107819 0)
(-0.002412347549 0.07711722262 0)
(-0.002401368225 0.0770011964 0)
(-0.002275565292 0.07699961686 0)
(-0.002295586302 0.07711638091 0)
(-0.002407329436 0.07374918546 0)
(-0.002248658512 0.07372397884 0)
(-0.003260713853 0.07366362047 0)
(-0.003015415996 0.07366099902 0)
(-0.003035468831 0.07376658504 0)
(-0.003268280866 0.07297354866 0)
(-0.003023344034 0.07297114481 0)
(-0.003020758344 0.07320109682 0)
(-0.003265757006 0.07320371507 0)
(-0.002915657721 0.0747077296 0)
(-0.002794354032 0.07470654012 0)
(-0.002921415545 0.0743629499 0)
(-0.002803059245 0.07436196291 0)
(-0.002800633502 0.07447694819 0)
(-0.002919801676 0.07447796523 0)
(-0.002455760529 0.07435991854 0)
(-0.002447492897 0.07447434979 0)
(-0.00256342868 0.07447503306 0)
(-0.002569377691 0.0743603633 0)
(-0.001038672082 0.0746296414 0)
(-0.001175933004 0.07405705685 0)
(-0.0023542292 0.0743595602 0)
(-0.002344577175 0.07447393391 0)
(-0.001644078674 0.07428502894 0)
(-0.001638129548 0.07439830942 0)
(-0.001752029773 0.07440326703 0)
(-0.001786499952 0.07431177178 0)
(-0.001309436919 0.07295282864 0)
(-0.001307195158 0.07318299807 0)
(-0.001552695748 0.07318604915 0)
(-0.001554550838 0.07295566186 0)
(-0.001317226975 0.07371808581 0)
(-0.001201374735 0.07371898508 0)
(-0.002419401601 0.0761975504 0)
(-0.002299458339 0.07619646096 0)
(-0.002290521416 0.07631112017 0)
(-0.002412382206 0.07631237972 0)
(-0.002283861605 0.0751523021 0)
(-0.002275047748 0.07524864547 0)
(-0.001132102166 0.07614346138 0)
(-0.001100715744 0.07623699869 0)
(-0.001103556825 0.07599894882 0)
(-0.002908554396 0.07574241248 0)
(-0.002909482789 0.07562753945 0)
(-0.00279146797 0.07562659886 0)
(-0.002790560719 0.07574149349 0)
(-0.002790013374 0.07539671053 0)
(-0.002909651486 0.07539775397 0)
(-0.002436701491 0.07539393932 0)
(-0.002551357143 0.07539460891 0)
(-0.002541117068 0.0761988084 0)
(-0.002545893864 0.07608382688 0)
(-0.002426309638 0.07608274127 0)
(-0.002903233646 0.07620229354 0)
(-0.002904614716 0.076087062 0)
(-0.002785361514 0.0760860013 0)
(-0.00278338228 0.07620120508 0)
(-0.002789057132 0.07585618939 0)
(-0.002907413432 0.07585717638 0)
(-0.002404560522 0.0779222819 0)
(-0.002281723755 0.0779209478 0)
(-0.002308301957 0.07723253256 0)
(-0.002420428866 0.07723302551 0)
(-0.002572102402 0.07424540259 0)
(-0.002460576185 0.07424530079 0)
(-0.002921576634 0.07424787631 0)
(-0.002803605242 0.07424687206 0)
(-0.002869903108 0.07388514889 0)
(-0.0027482273 0.07388277989 0)
(-0.002781921286 0.07401191574 0)
(-0.002901468203 0.07401349255 0)
(-0.001677855986 0.07383596779 0)
(-0.001661796682 0.07394529298 0)
(-0.001798989271 0.07395210252 0)
(-0.001850336396 0.07385557249 0)
(-0.001761398381 0.07416881355 0)
(-0.001646099899 0.07417029583 0)
(-0.002363161866 0.07424549941 0)
(-0.001623556672 0.07474874441 0)
(-0.001657064351 0.07465591372 0)
(-0.001514867013 0.07462921601 0)
(-0.001509960293 0.07474355494 0)
(-0.001523412089 0.07428442336 0)
(-0.001519401195 0.07439853675 0)
(-0.001167853742 0.07428526165 0)
(-0.001163344835 0.07439977581 0)
(-0.001280935004 0.07439885237 0)
(-0.001284577613 0.0742842007 0)
(-0.002308196512 0.07608179963 0)
(-0.00118752369 0.07598287554 0)
(-0.001143330338 0.07520280217 0)
(-0.001264264519 0.07520336787 0)
(-0.001265703519 0.07508811557 0)
(-0.001144974502 0.07508755207 0)
(-0.001503176013 0.07485678375 0)
(-0.001589881776 0.07484202215 0)
(-0.001142620632 0.07531821188 0)
(-0.001264733292 0.07531930314 0)
(-0.002332673116 0.07539423825 0)
(-0.002897917236 0.07666176855 0)
(-0.00289882129 0.07654717311 0)
(-0.002777646056 0.07654596363 0)
(-0.002776229552 0.07666051085 0)
(-0.002781381219 0.07631645137 0)
(-0.002901638408 0.07631756555 0)
(-0.002536275702 0.07631383198 0)
(-0.002533021018 0.07711838399 0)
(-0.002527694294 0.07700282427 0)
(-0.002895222624 0.07712191278 0)
(-0.00289557651 0.0770067985 0)
(-0.002774892583 0.07700561564 0)
(-0.002775158004 0.07712077929 0)
(-0.002775172931 0.07677538251 0)
(-0.002896689875 0.07677661702 0)
(-0.002154371689 0.07665232629 0)
(-0.002145373979 0.07676587342 0)
(-0.002136712497 0.07687435861 0)
(-0.002261927089 0.07688339123 0)
(-0.002393113802 0.07688539166 0)
(-0.002438010161 0.07458868256 0)
(-0.002333786754 0.07458823133 0)
(-0.002405391197 0.07642695285 0)
(-0.002281401532 0.07642549956 0)
(-0.00217339886 0.07642468734 0)
(-0.00216338382 0.07653862969 0)
(-0.002404930529 0.07504565939 0)
(-0.002292803424 0.0750435848 0)
(-0.001068967187 0.07633162218 0)
(-0.001015831151 0.07649214695 0)
(-0.002892013049 0.07758224387 0)
(-0.002893093096 0.0774671801 0)
(-0.002773967892 0.07746614214 0)
(-0.002772802361 0.077581205 0)
(-0.002775231084 0.07723594089 0)
(-0.002894676627 0.07723700364 0)
(-0.002537087532 0.07723386611 0)
(-0.002524111724 0.07803805775 0)
(-0.002526980779 0.07792359018 0)
(-0.002887509428 0.07804166345 0)
(-0.002888584679 0.07792704846 0)
(-0.00276871217 0.0779259384 0)
(-0.002767380694 0.07804052927 0)
(-0.002771487459 0.0776962449 0)
(-0.00289089026 0.07769730719 0)
(-0.002185562617 0.07757668193 0)
(-0.002177194084 0.07769115485 0)
(-0.002168693963 0.07780554087 0)
(-0.002288352989 0.07780662728 0)
(-0.002409146136 0.07780778993 0)
(-0.002422883229 0.07734836216 0)
(-0.002310254327 0.07734784248 0)
(-0.002200175083 0.0773475424 0)
(-0.00219352983 0.07746216198 0)
(-0.002455020088 0.07412920428 0)
(-0.002566634301 0.07412907192 0)
(-0.00268159556 0.07412974477 0)
(-0.002662974131 0.07401021711 0)
(-0.002626110234 0.07387970084 0)
(-0.001976206884 0.07385743061 0)
(-0.001937807049 0.07397523747 0)
(-0.002044600834 0.07384396947 0)
(-0.002367352538 0.07412976355 0)
(-0.001288253437 0.07417004099 0)
(-0.001171963857 0.07417106382 0)
(-0.001526054839 0.074169932 0)
(-0.001553416058 0.07383384711 0)
(-0.001538659415 0.07394367781 0)
(-0.002231222099 0.07573876474 0)
(-0.00222154464 0.07585251834 0)
(-0.002212280493 0.07596659697 0)
(-0.002316789442 0.07596732911 0)
(-0.002433066021 0.07596812288 0)
(-0.001116804715 0.07588809743 0)
(-0.001220725206 0.07588649356 0)
(-0.001343134026 0.07553287217 0)
(-0.001376210905 0.07543935292 0)
(-0.001261177456 0.07543363513 0)
(-0.001140526288 0.07543298696 0)
(-0.002448153492 0.07550973548 0)
(-0.002343670597 0.07550996543 0)
(-0.00225100925 0.07551141177 0)
(-0.002241262475 0.07562465166 0)
(-0.001022101154 0.07520204096 0)
(-0.001020237928 0.0753169895 0)
(-0.002136669069 0.0782624221 0)
(-0.002144235957 0.07814796199 0)
(-0.002034981769 0.07814685853 0)
(-0.002026536756 0.07826128789 0)
(-0.002152034958 0.07803378221 0)
(-0.002043399391 0.07803279224 0)
(-0.002189818921 0.07711640477 0)
(-0.002129025274 0.07697047891 0)
(-0.002116370812 0.07712840124 0)
(-0.002789303893 0.07376309938 0)
(-0.002664208703 0.07376069384 0)
(-0.002772181785 0.07342927492 0)
(-0.002648861216 0.07342881197 0)
(-0.002645835025 0.07354398319 0)
(-0.002769820384 0.07354423951 0)
(-0.002284161245 0.07343346392 0)
(-0.002278105673 0.07355330496 0)
(-0.002397476546 0.07354795484 0)
(-0.002403260787 0.07343110321 0)
(-0.002556283799 0.07458960455 0)
(-0.002676754471 0.07459074238 0)
(-0.002681593325 0.07447595389 0)
(-0.002685450021 0.0743610694 0)
(-0.001629705172 0.07451100774 0)
(-0.001716431687 0.07449590439 0)
(-0.002170718789 0.07343567136 0)
(-0.002177925279 0.07356313487 0)
(-0.001800931848 0.07342252889 0)
(-0.001804195851 0.07353990469 0)
(-0.001932523841 0.07354640576 0)
(-0.001926510695 0.07342707696 0)
(-0.00185461415 0.07373408807 0)
(-0.001722729141 0.07373502974 0)
(-0.002193389298 0.07619571215 0)
(-0.002183621037 0.07631036247 0)
(-0.002071026735 0.07769040499 0)
(-0.002061693369 0.07780476073 0)
(-0.002080298811 0.07757598447 0)
(-0.002160234594 0.07791971359 0)
(-0.002052382205 0.07791883885 0)
(-0.002202128753 0.07723253071 0)
(-0.002107904409 0.0772338321 0)
(-0.002098802357 0.077347143 0)
(-0.002089551652 0.07746156375 0)
(-0.00268678675 0.07424598699 0)
(-0.001656747591 0.07405875407 0)
(-0.001775623944 0.07405867794 0)
(-0.001888156007 0.07406265911 0)
(-0.001848220838 0.0741537326 0)
(-0.00151643163 0.07451340934 0)
(-0.001396789587 0.07451373377 0)
(-0.001394700757 0.07462919286 0)
(-0.001391487936 0.07474382775 0)
(-0.002202898969 0.07608105906 0)
(-0.00138934502 0.07497414785 0)
(-0.001384963182 0.07508817178 0)
(-0.001499165816 0.07509343184 0)
(-0.001532438429 0.0750011971 0)
(-0.001378555115 0.07520159697 0)
(-0.001465477951 0.07518692319 0)
(-0.001389623259 0.07485871215 0)
(-0.001408640875 0.07534676719 0)
(-0.002259930189 0.07540664835 0)
(-0.003608203096 0.0148211655 6.862566071e-14)
(-0.002330683356 0.00910454136 4.216071936e-14)
(-0.007590844186 0.03685696058 1.705580122e-13)
(-0.006333616249 0.02899554372 1.341982081e-13)
(-0.00627986594 0.02840383895 1.330324739e-13)
(-0.008667982699 0.04479902034 2.072786387e-13)
(-0.01027613758 0.06583553805 3.045341757e-13)
(-0.01004598555 0.0595989868 2.756961326e-13)
(-0.01009730288 0.05916103858 2.769451335e-13)
(-0.01018670773 0.0709370866 3.281402927e-13)
(-0.009124009709 0.0769528838 3.560207684e-13)
(-0.009143317666 0.0761301212 3.564371021e-13)
(-0.008222078416 0.07855538336 0)
(-0.0072462052 0.07854525364 0)
(-0.00627155014 0.07853513694 0)
(-0.00675868533 0.07854019324 0)
(-0.00406386039 0.0159192008 7.738254482e-14)
(-0.002726201039 0.0101569717 4.939104681e-14)
(-0.008078756379 0.03739093582 1.816741202e-13)
(-0.006834309734 0.02982933678 1.449534937e-13)
(-0.006892315998 0.02981923365 1.467159727e-13)
(-0.006544148167 0.02923534425 1.38583589e-13)
(-0.009122865874 0.04493566677 2.182976022e-13)
(-0.01054709906 0.06436418104 3.126110482e-13)
(-0.01038830863 0.05871361272 2.851746617e-13)
(-0.01038866327 0.0582540269 2.864652959e-13)
(-0.01015239592 0.05873637161 2.783051567e-13)
(-0.01038199548 0.06885817458 3.344546862e-13)
(-0.009171362254 0.07367714742 3.579220254e-13)
(-0.009115167117 0.07279949359 3.580608032e-13)
(-0.009163438011 0.07530863302 3.568673135e-13)
(-0.008256899347 0.07487306747 0)
(-0.007279757601 0.07486563863 0)
(-0.007275115932 0.07532597579 0)
(-0.006303776159 0.074855636 0)
(-0.006299242488 0.07531586744 0)
(-0.006787018812 0.07532093059 0)
(-0.006791616597 0.07486069983 0)
(-0.00628674579 0.07669522705 0)
(-0.006774244289 0.07670028723 0)
(-0.006778367341 0.07624047887 0)
(-0.006290761986 0.07623541755 0)
(-0.004350059428 0.07575574431 0)
(-0.004108135926 0.07575337266 0)
(-0.004106299596 0.07598320444 0)
(-0.004348180128 0.075985597 0)
(-0.0036239688 0.07597858421 0)
(-0.003625804901 0.0757487738 0)
(-0.003618540042 0.076668572 0)
(-0.003620288146 0.07643899576 0)
(-0.003577189332 0.01335945738 6.834810495e-14)
(-0.002331479466 0.00828076974 4.236888618e-14)
(-0.007428704951 0.03278308062 1.676159211e-13)
(-0.006216526884 0.02587021962 1.322969512e-13)
(-0.005810625842 0.02386513119 1.236788449e-13)
(-0.006763028643 0.02888621974 1.439404151e-13)
(-0.008465796106 0.03976035948 2.032540802e-13)
(-0.01002617346 0.05834475459 2.982059044e-13)