/*--------------------------------*- C++ -*----------------------------------*\
| =========                 |                                                 |
| \\      /  F ield         | OpenFOAM: The Open Source CFD Toolbox           |
|  \\    /   O peration     | Version:  v2012                                 |
|   \\  /    A nd           | Website:  www.openfoam.com                      |
|    \\/     M anipulation  |                                                 |
\*---------------------------------------------------------------------------*/
FoamFile
{
    version     2.0;
    format      ascii;
    class       volScalarField;
    location    "0.8";
    object      omega;
}
// * * * * * * * * * * * * * * * * * * * * * * * * * * * * * * * * * * * * * //

dimensions      [0 0 -1 0 0 0 0];


internalField   nonuniform List<scalar> 
3259
(
30.43627219
30.45935073
30.49048739
30.53573878
30.61449668
30.7399393
30.98661524
31.4271236
32.63218906
35.53805604
44.19417022
105.6702778
30.33510044
30.36051083
30.39595908
30.44786735
30.53716605
30.6873316
30.9718979
31.47498946
32.84346615
36.13079338
46.72330161
155.5886503
30.23897993
30.26679578
30.30636346
30.36418518
30.46031696
30.628872
30.9410551
31.49036669
32.93786413
36.45724076
49.321802
478.4525974
30.14378278
30.17389888
30.21750092
30.28172687
30.38566678
30.57039072
30.90960526
31.49699819
32.98577095
36.62928769
51.3655386
664.2538501
30.05202838
30.08450738
30.13177661
30.2012688
30.31164033
30.51046059
30.8757595
31.50445329
33.03115323
36.7566525
52.23987423
571.270118
29.95859634
29.99321434
30.04406078
30.11937958
30.23712816
30.44813016
30.83771528
31.51258489
33.10570903
36.97865992
53.5106157
491.6231081
29.86757399
29.90423457
29.95824173
30.03805255
30.16121258
30.38291451
30.79514953
31.51366146
33.21094212
37.40857057
56.60180857
487.5590431
29.77274689
29.81106239
29.86815798
29.95335804
30.08341166
30.31474522
30.74844014
31.50866791
33.31366073
37.96433371
62.33358651
516.5087275
29.68043881
29.72016366
29.77978928
29.86876024
30.00328371
30.2437426
30.69822518
31.49929473
33.41674597
38.58551903
68.85525236
518.1738152
29.58267117
29.62337235
29.68548207
29.77942934
29.92075007
30.17008771
30.64517039
31.48709129
33.5242161
39.33680721
75.00581871
495.4498294
29.48883886
29.53025335
29.59416159
29.69095035
29.83570702
30.09402306
30.58991503
31.47359806
33.64225859
40.33088242
80.61649272
464.2488003
29.38793436
29.42972663
29.49555483
29.59693129
29.74855188
30.01594198
30.53326815
31.46084487
33.78286975
41.57160359
85.76166141
432.0122134
29.29357091
29.33555443
29.4025758
29.50585449
29.65951083
29.93640968
30.47626609
31.45138967
33.96242033
42.93276792
90.47080178
403.224746
29.18979952
29.23178387
29.30037667
29.40819524
29.56931773
29.85604833
30.41995498
31.4480911
34.19351488
44.31015146
94.72439067
377.414493
29.09643238
29.13831983
29.20773327
29.31668462
29.47816113
29.77546088
30.36525612
31.4529051
34.47775592
45.6579902
98.50733658
353.8069278
28.98984144
29.03155591
29.10239612
29.21622203
29.38685494
29.69514572
30.31292234
31.46862819
34.8072521
46.96088003
101.8721354
331.9528166
28.89924673
28.94075239
29.01223326
29.12655756
29.29525476
29.61550878
30.26363226
31.49702795
35.17075255
48.21415512
104.8709074
311.6079086
28.78927613
28.83056277
28.90343677
29.02320499
29.20429077
29.53690398
30.2180728
31.53927843
35.55806282
49.4177727
107.5315973
292.6524423
28.7035689
28.7446394
28.8181155
28.93792394
29.11340455
29.45966166
30.17697307
31.59601588
35.96164657
50.57486391
109.8747202
274.9952423
28.58881857
28.62969595
28.70457216
28.83034896
29.02388901
29.38411992
30.14107018
31.66715726
36.37640225
51.6894811
111.9259821
258.5923501
28.51072129
28.55143775
28.62699346
28.75285872
28.93465213
29.3106329
30.11095129
31.75216687
36.79906257
52.76705082
113.7314264
243.3172724
28.38872518
28.42930938
28.50629715
28.63792656
28.84784887
29.23968449
30.08710963
31.85008491
37.22687113
53.80897538
115.2932381
229.0178011
28.32167077
28.36221046
28.44000271
28.57331472
28.76193235
29.17198797
30.06991077
31.95962903
37.65665896
54.81047824
116.5944092
215.8090194
28.166466
28.20700233
28.28683696
28.42709433
28.68130848
29.1088647
30.05945146
32.07854624
38.08179379
55.75646647
117.6227538
203.7538449
104.5456177
134.4266924
43.85550253
88.2113996
46.29232192
110.0885067
89.84507966
114.5478453
1123.110428
735.5385819
159.7189539
724.361491
1083.483556
8533.474226
1133.462111
116.0223192
1767.900073
7540.865998
1092.698677
1736.274769
4319.287518
796.1532554
225.1081122
239.3818753
208.1113358
219.7546755
792.8373339
575.3024245
193.6843254
204.1348139
190.4421486
566.2048255
757.435002
770.705397
245.6000212
257.9363334
1403.610527
2834.236013
1548.142525
2574.954797
1132.02073
6449.188512
2847.475465
5521.658489
1128.154158
3924.759945
1975.458965
48.66293682
119.1613164
113.3068071
173.480712
4198.895098
7801.835716
1034.276741
411.9049346
431.8733596
6388.793577
3250.283785
733.9413325
913.9222582
8772.737625
327.3483277
377.4924045
439.4132958
457.5986912
1143.985436
1796.322528
1788.587829
8039.413162
1637.193312
1455.367846
15996.29337
1104.314484
1651.374543
383.4107726
404.9753254
940.1106227
763.5850184
362.5348762
378.003263
741.1824249
826.2521268
1187.330952
470.4414599
516.4873302
5962.689522
6764.706436
1868.552868
7348.618922
5298.078409
2060.31736
1106.185624
6414.439461
3692.46485
7122.152877
4141.972636
1591.597657
343.9884964
357.9291875
758.1800809
643.1296165
325.0824881
339.3985497
1683.841422
1661.277339
1060.059968
1770.924803
1098.32236
1719.064357
1705.702133
1736.453181
308.420632
320.5912323
614.7020388
547.982496
295.2218884
305.0066225
1087.844312
1087.712772
754.1259596
773.2734649
1095.916223
1100.246631
1481.478655
970.1662456
957.260001
12486.8313
2325.738374
1868.725376
4750.162716
3905.217936
1789.964451
1767.952431
1116.935533
6217.707594
6775.095595
6473.763825
5085.745063
1187.448911
1836.363048
1778.965042
2886.208998
1680.867819
1694.802871
2133.161772
1005.539029
1615.722637
1552.993867
855.143954
1204.319805
12907.3454
1145.569092
789.7725786
793.3120928
1791.802249
7673.306346
7932.966275
9263.345554
5973.393131
5574.315326
1735.031438
1723.353626
1099.283245
1699.712735
1726.192899
1727.23906
1709.462961
1712.785273
1141.401461
1153.16481
802.3509852
1787.797484
1691.21257
1744.859866
1735.61868
821.3274796
826.714604
1190.78683
5799.854074
8691.876799
9043.209449
8516.961066
8531.3983
6419.075803
1817.689752
6381.153953
4568.357348
4954.11203
1114.596312
1759.104519
1743.022325
6379.473581
7010.235212
6759.018612
5520.892643
6014.947854
7424.087368
7061.196144
4528.985417
6688.583519
5756.62924
2174.794448
1750.069701
1176.327464
31.41880985
32.19600905
32.59471328
34.47254867
35.44123591
40.53236086
31.46884835
32.35820201
32.22662904
32.80673982
34.92154793
34.54435967
36.02132565
42.06018521
40.77256905
44.75502828
53.31072235
51.77882491
109.3312761
176.2473177
167.9794056
31.48755338
32.44069177
32.38501731
32.91993716
35.19159854
35.003629
36.39231166
43.39496013
42.39406157
47.34887799
56.01291236
57.44627584
158.4557748
305.3442657
272.2543572
31.49574507
32.48170528
32.45374225
32.97550537
35.33115864
35.2368227
36.59583495
44.52744419
43.70887206
51.02362553
181.9323643
130.355206
664.1900768
31.50222811
32.51511123
32.48993922
33.01827172
35.41857534
35.35341706
36.72276251
45.13167486
44.72992257
52.04819649
194.7745919
190.3721295
599.161344
31.51129344
32.56523615
32.52529007
33.08305716
35.55389691
35.44350071
36.90829029
45.76455058
45.25332212
53.06859603
192.3194432
193.9298283
505.9467928
31.51396899
32.63510403
32.58252841
33.18482015
35.81649476
35.60446927
37.27854405
47.13664888
46.01860929
55.57892821
201.3612262
192.5757439
481.1990442
31.51044582
32.69987454
32.65179773
33.28811232
36.1697905
35.90266546
37.82038106
49.66960463
47.65526282
60.76556942
230.720839
207.4768919
512.2492819
31.50199407
32.7615624
32.71548039
33.39073137
36.5512628
36.26217199
38.42188881
53.19020881
50.45484778
67.23315122
257.5707819
238.0988293
520.2263221
31.49034545
32.82328391
32.77689875
33.49668435
36.97781267
36.65259421
39.13036335
57.37315051
54.20626877
73.52271761
282.7453882
264.1580452
502.3739589
31.47700551
32.8885421
32.83912056
33.61122065
37.4989397
37.0963719
40.05607184
61.48603109
58.42664571
79.25947463
301.6500933
288.2163639
472.3606416
31.46383844
32.96319161
32.90605001
33.74472691
38.18392209
37.65304941
41.24466846
65.29631211
62.46754852
84.51710535
312.9949848
305.1394039
439.8069342
31.45331469
33.05617245
32.98435031
33.91304092
39.03646925
38.38339771
42.588087
68.82948673
66.20438187
89.3347106
317.0398082
314.720276
410.0893721
31.44808756
33.17744754
33.08351227
34.13062363
39.9905343
39.26854024
43.96755686
72.10767596
69.67348848
93.70494867
315.5744002
317.0031036
383.6230374
31.45074357
33.334163
33.21317366
34.40204778
40.98175583
40.23683667
45.32495433
75.12892085
72.88779212
97.6040288
310.4260464
314.6611658
359.5034089
31.46359128
33.52792193
33.37923146
34.72124592
41.97408253
41.23074309
46.63971694
77.90015672
75.84500326
101.0664927
301.9934884
308.5857424
337.2329107
31.48864588
33.75540771
33.58188113
35.07729655
42.95078124
42.22028646
47.90559218
80.44192032
78.55717514
104.1537714
291.9510407
299.6420523
316.5059037
31.52738218
34.01089986
33.81693714
35.45947261
43.90443782
43.19164205
49.1214133
82.77304599
81.04447013
106.8960131
281.2463654
289.385313
297.1890862
31.58048345
34.28861495
34.07850009
35.85955384
44.83321711
44.13911444
50.28980411
84.91204949
83.32625928
109.3165686
270.3557867
278.6311566
279.1754715
31.64805368
34.58372035
34.36097409
36.27187733
45.73768267
45.06170936
51.41454928
86.87215182
85.41923418
111.4361742
259.5513555
267.7732858
262.4107599
31.72968172
34.89255766
34.65981881
36.69281982
46.62011482
45.9604155
52.50103174
88.67732451
87.33809096
113.3003128
249.0352067
257.0585356
246.8161465
31.82448176
35.21211174
34.97161227
37.11962648
47.48183018
46.8376525
53.55239475
90.33969788
89.10724748
114.9262333
239.388441
246.8187434
232.1535093
31.93129534
35.539502
35.29337851
37.54951318
48.32125297
47.69378137
54.56692835
91.85226827
90.73026682
116.3022966
230.292103
237.4265848
218.5060689
32.04902228
35.8728642
35.62202844
37.98099387
49.13857353
48.52523799
55.54490655
93.21104488
92.19250258
117.425598
221.532123
228.5452859
205.9316714
32.18506674
36.23214355
35.95210006
38.43989458
49.98087623
49.3198537
56.54032357
94.4725367
93.47287138
118.3519806
212.3754527
220.0028852
193.6874755
165.2648233
157.8816897
101.2589163
262.782161
242.6444012
131.6638094
1018.918972
51.26414505
49.68790503
43.39391608
83.86190441
54.98140965
56.71326684
56.92693369
53.83688528
45.03338081
97.36755772
60.01249344
64.28896359
57.33261414
59.33137532
95.00271131
188.8197466
179.5496236
110.5846716
1117.258677
749.0801998
759.316029
536.9860352
545.0190678
744.2792925
3029.096626
3718.300016
186.3535707
2777.250765
2206.235234
955.344043
860.7049791
706.2917085
517.3056356
528.3926469
292.4663073
541.1006133
100.2841664
155.5836636
12067.88552
1290.232024
2316.786827
771.3799698
776.600502
1134.878798
120.3328847
203.9577498
193.3082131
5503.919484
5612.687803
9323.140365
599.2306208
614.3247625
826.6938507
228.5950812
301.1891925
296.1414309
345.3953743
321.4324351
235.0172098
211.6810241
274.6057092
269.195914
287.0173787
281.7167473
216.1757413
777.7944817
580.7454021
590.8507256
450.3210347
456.9849845
582.3515674
197.0308239
251.8969222
246.9241679
263.0255709
257.5212968
200.6160331
184.2592846
233.5739029
242.2194882
237.8141127
187.3141723
560.8791946
438.3771387
443.883671
248.6100643
369.486991
352.53001
409.8723361
379.0135538
258.7991059
1635.002605
2272.218357
2194.285533
3594.137226
3297.743304
2411.290789
3070.274289
4313.796561
3904.193117
3519.399691
2603.887879
58.46455665
57.19850887
47.98932274
126.2110596
74.91890986
77.50184672
65.11895969
66.16664609
123.0032783
340.1816675
281.6112283
164.6227177
4577.511561
1061.576867
1316.877642
402.8457136
347.1249578
6547.137593
699.901812
728.1850201
1089.348612
418.626491
534.4612973
520.9295995
555.4446274
547.3499463
426.1043213
4775.512135
1074.317622
1497.624172
1341.820219
1481.664774
3709.223916
1075.248884
1072.117635
727.7972603
3465.582644
4961.570313
13080.83573
344.6471656
609.6139358
555.5623435
698.9038421
631.1344508
361.9918479
444.4896597
571.5708861
565.9101811
587.8081474
583.020893
453.2027216
1469.077694
1819.922164
3360.520379
3038.947456
3989.970618
4482.290234
1993.862622
15264.87457
13426.68364
389.9853544
479.7111705
470.8084281
504.8953078
491.7949407
396.7431727
851.8251118
634.0006183
662.5112942
565.7772909
574.2256845
773.4239114
367.7385646
449.8289317
443.3642728
463.2167811
456.1609773
372.5290989
745.8187384
1081.347536
1080.640643
474.4436845
611.4544381
606.5477738
681.844111
687.2923944
518.7617654
3888.436539
4121.598213
5733.066826
2178.022523
3054.025557
2826.848462
5257.515245
4732.109677
3408.565247
348.6819879
425.5234997
419.3791172
437.4283361
431.3062209
353.1233748
750.3596159
551.6832578
559.3254318
489.1957944
503.9421366
678.3950166
329.9140839
398.6524604
390.9337811
413.0679523
406.1518037
334.6960433
312.3149704
371.3021564
366.0155714
383.7180594
377.0599022
316.1623717
596.9232573
465.4834963
476.3284213
427.3612151
432.5640646
553.4540597
298.3615734
351.2470621
346.3817643
360.9987959
356.1270924
301.4794053
2631.629235
2445.430492
1722.01726
4501.265663
3393.192089
3519.776193
3014.345924
3114.515191
4218.50394
3186.302971
1112.646906
2219.042306
1570.951594
2374.670063
2260.85946
1171.848484
13319.58569
5108.414632
5270.847843
10000.64876
12110.21816
8331.445077
6591.976732
8920.368375
8462.827582
8496.906437
9687.25634
6595.734865
30.65774032
30.70780698
30.77869208
30.87824442
31.01158153
31.2637627
30.5756198
30.63488624
30.6640517
30.71736368
30.83139737
30.8438149
30.9866213
31.28667741
31.2656262
31.434447
31.65085894
31.63598715
32.68061614
33.19948428
33.13497132
35.67278303
36.98244925
36.81207279
106.8875578
121.7533187
120.221627
30.49753601
30.56546983
30.59772279
30.6583258
30.78571024
30.80853405
30.956503
31.28955745
31.28758907
31.48010645
31.72362881
31.71415276
32.87299618
33.45082634
33.41059606
36.22725753
37.73157559
37.59454395
30.42215573
30.49782542
30.52931403
30.60005324
30.73957142
30.7628431
30.9253502
31.28684335
31.28912767
31.49258985
31.74870109
31.7438514
32.9527757
33.55825324
33.53815876
36.51190112
38.16232121
38.07620244
49.96332614
61.10505161
59.80683901
571.7117121
1954.174026
2168.186236
30.34808186
30.43039564
30.46207643
30.5409577
30.69119374
30.71572938
30.89314776
31.28343474
31.2856602
31.49842724
31.76432851
31.76064532
32.99627509
33.6145973
33.60110682
36.66248244
38.4109529
38.35769615
51.6358711
64.49970038
63.92737135
650.1875622
1422.476553
1519.434103
30.27402066
30.36190812
30.39444617
30.47988093
30.63967872
30.66586379
30.85730046
31.27848694
31.28255895
31.50709206
31.78355615
31.77789544
33.04629054
33.67619649
33.65767258
36.79709317
38.61237826
38.55340665
52.4576142
66.15127384
65.7280302
546.2821656
1125.82916
1189.667518
30.19889625
30.29155903
30.32534736
30.4161001
30.58464452
30.61260703
30.81698236
31.26644792
31.27560704
31.51359054
31.80773277
31.80229194
33.13164144
33.78682308
33.75274169
37.06339059
39.00057149
38.87699626
54.05336237
69.5366234
68.35258391
482.5033421
936.5847231
975.9418719
30.12214689
30.21892408
30.25414263
30.3493614
30.52614418
30.5558124
30.77227375
31.24845946
31.26211605
31.51302338
31.82481411
31.82116817
33.23683542
33.94269686
33.90356625
37.54276349
39.72866195
39.51697861
57.85909007
77.38203178
74.93250596
494.8642025
796.4069221
828.9188476
30.04319675
30.14382258
30.18054064
30.27972256
30.46454117
30.49570256
30.72372636
31.22567932
31.24289462
31.50672319
31.83607483
31.83367924
33.33926096
34.10085754
34.06089477
38.11224187
40.6458684
40.404275
63.95078265
87.96164141
85.38232777
520.3101341
681.9474154
707.883238
29.96194116
30.06618097
30.1044026
30.20733735
30.40024228
30.43270958
30.67201251
31.19944202
31.21919938
31.49648426
31.8436596
31.84200386
33.44305487
34.2656468
34.22353988
38.75694181
41.7513348
41.447635
70.44826201
97.6170736
95.29285834
514.0466417
592.5590056
612.9805557
29.8780933
29.9860432
30.02570971
30.13241717
30.33355194
30.36717985
30.61777262
31.17100816
31.19234209
31.48379622
31.84947353
31.84808213
33.55240507
34.44338864
34.39716992
39.55918516
43.22251031
42.81449961
76.45485759
106.4004797
104.2796497
488.0056601
521.2853225
537.6999078
29.79204351
29.90359132
29.94454501
30.05526326
30.26482311
30.29941307
30.5617033
31.14185026
31.16360047
31.47026656
31.85566488
31.85393464
33.67470922
34.64842152
34.5933271
40.62199642
45.05220234
44.57383239
81.94569372
114.3863464
112.4698036
456.1864039
463.137289
476.6623142
29.70379564
29.81921382
29.86121211
29.97636476
30.19462852
30.22986618
30.50474302
31.11384089
31.13456544
31.45808701
31.86527555
31.86235354
33.82349632
34.90631833
34.83537878
41.90592535
47.00318403
46.51518583
86.98094091
121.4840112
119.7913488
424.4575377
414.681072
426.0993363
29.61426509
29.73341412
29.77615039
29.89632737
30.12371313
30.15921445
30.44796211
31.08891716
31.10716118
31.44990327
31.88209383
31.87699115
34.0151143
35.2397501
35.14879427
43.2782679
48.9193886
48.44715074
91.57849198
127.6594419
126.2076396
396.5197493
373.0120059
382.8732305
29.52336591
29.64674191
29.6899332
29.81577431
30.05284127
30.0882288
30.39235445
31.06890118
31.08334734
31.44840294
31.91005404
31.9018121
34.25981211
35.65047307
35.54129206
44.65090366
50.75450297
50.30407944
95.71444741
132.867783
131.6607106
371.3039171
336.8932093
345.428619
29.43233418
29.55969161
29.60305743
29.73525495
29.98267439
30.01763899
30.33874779
31.05531847
31.06476954
31.45577074
31.95266811
31.9404618
34.55634308
36.12165601
35.99937959
45.98831378
52.4994381
52.07169112
99.38537064
137.2032534
136.1843848
348.1614206
305.8803646
313.1858993
29.34053864
29.47268074
29.51604972
29.65521988
29.91374267
29.94803423
30.2878465
31.04977881
31.05304659
31.47450418
32.01277702
31.99600539
34.89540878
36.63239439
36.50201734
47.27904449
54.15481394
53.7492227
102.6554125
140.9048577
140.0371494
326.6860651
279.4333972
285.6611016
29.24962485
29.38603893
29.42920202
29.57602819
29.84649835
29.87990069
30.24033839
31.05356387
31.04989384
31.50628091
32.09180385
32.07024818
35.26572711
37.16597267
37.03113363
48.51975899
55.7236694
55.33929378
105.5667686
143.9974235
143.2838505
306.6807069
256.8392304
262.1733618
29.15809927
29.30004502
29.3429557
29.49800476
29.78136508
29.81368196
30.19690023
31.06788065
31.0560575
31.55212885
32.18979236
32.16355239
35.65771746
37.7113523
37.5743064
49.71143355
57.21202357
56.8470192
108.1463356
146.5010153
145.9329163
288.027759
237.492325
242.0728236
29.06845037
29.21492841
29.25743834
29.42143046
29.71878041
29.74983137
30.15825253
31.09337912
31.07312656
31.61249287
32.30583232
32.27520123
36.06448057
38.26202449
38.12409187
50.85744305
58.62691933
58.27971673
110.411868
148.4506359
148.0205483
270.6493699
220.87288
224.8310529
28.97781877
29.13084659
29.17314554
29.34655326
29.65916397
29.6888134
30.12514197
31.13042194
31.1015432
31.68717277
32.43851078
32.40386649
36.48147417
38.81450697
38.67632498
51.9623402
59.97598889
59.64430987
112.3978102
149.9365795
149.6153975
254.4948782
206.5142051
209.968796
28.89012463
29.04784992
29.09009666
29.27350131
29.60284346
29.63112483
30.09797921
31.17877783
31.14136595
31.77551795
32.58618694
32.54796024
36.90569589
39.36700468
39.22897612
53.03126355
61.26779257
60.94982962
114.1448867
151.0217088
150.805095
239.3628665
194.0348814
197.0921865
28.80007254
28.9657725
29.00910622
29.2022512
29.5499705
29.57729424
30.07718308
31.23801881
31.19249831
31.87648582
32.74698381
32.70565508
37.33439046
39.917407
39.78008045
54.06455812
62.50301888
62.19852824
115.647445
151.6809752
151.5700263
225.1972209
183.1117749
185.877685
28.71345901
28.8839568
28.93042569
29.13231957
29.50032878
29.52802839
30.0629522
31.30753191
31.25430414
31.9888301
32.91897966
32.87490198
37.76493939
40.46337557
40.32651976
55.06007386
63.67860147
63.38344622
116.8969225
151.9340966
151.9214034
212.0837599
173.4779456
176.0678934
28.61338621
28.79595642
28.8560082
29.05891552
29.45148682
29.48447153
30.05571356
31.3920308
31.32545826
32.11276258
33.10263408
33.05241243
38.20106332
41.01051379
40.86020826
56.02680406
64.80266655
64.48620712
117.8963775
151.8352231
151.888282
200.0453344
164.9122414
167.474795
118.7153388
117.2362252
103.3925682
168.6389629
161.5159005
136.6329296
86.69786696
73.18977522
74.2886669
108.1134601
87.22051348
89.02006663
75.44845832
76.61465506
91.48308268
131.6642127
130.0399786
113.2228524
98.49815593
109.9605153
117.3638393
135.129464
133.7347405
2156.485545
90.75253139
92.57021117
116.4429394
2904.897158
3199.076373
7425.86418
5725.938116
4565.163955
5059.083967
1675.225412
1915.246199
2463.574156
1416.113877
31.62046079
31.61090422
31.41410177
32.1691968
31.8600688
31.87561652
33.08794245
33.03024852
32.55247846
34.37231478
33.62591881
33.70277215
36.68011014
36.52333658
35.31626499
40.23099355
38.09678633
38.30578723
31.70244781
31.66307863
31.441623
32.28706154
31.94158314
31.99538192
31.89935429
31.92338858
32.26176253
33.36257697
33.24361714
32.71441124
34.72536507
33.9017858
34.05449974
33.76081067
33.84496252
34.65269575
37.44409568
37.10380573
35.76607896
41.34323426
38.87233744
39.34757945
38.48035893
38.70930514
41.10959525
124.9236608
123.3289991
108.0644857
173.5439032
144.2263676
146.2880976
140.146394
142.1205552
170.5852064
31.73826589
31.73159628
31.48416625
32.42511761
32.04174487
32.05236626
32.01395023
32.02893853
32.40656124
33.51398472
33.48504683
32.89846926
35.13823255
34.21690225
34.25590559
34.11676214
34.17086887
35.0747148
37.97475636
37.85871518
36.31523651
43.06478699
39.97080778
40.1565589
39.56588052
39.77208874
42.72827314
208.0124068
211.9675755
280.3601531
31.75700132
31.75312389
31.49428314
32.47350858
32.07515299
32.08149511
32.06105046
32.0685557
32.46454044
33.5889282
33.57487226
32.96519499
35.30526243
34.33811804
34.3569813
34.28862984
34.31580822
35.27437064
38.29890319
38.23605711
36.55747007
44.27662555
40.61204831
40.73079156
40.32747386
40.4796267
44.00359317
63.20123037
62.27059397
50.54659551
168.4769664
87.04917303
90.15153495
80.11939915
83.59088247
150.0902387
1636.270262
1778.377317
635.3660551
1091.925136
1010.484785
1348.599984
1206.664816
31.77279874
31.76828478
31.50001695
32.50612543
32.09928957
32.10599981
32.08738006
32.09318983
32.49790208
33.64179529
33.62778199
33.00685743
35.39653798
34.4058896
34.42307637
34.37292025
34.38956651
35.37524433
38.50333415
38.45734332
36.69239286
45.01245441
41.01189825
41.08598763
40.84584803
40.93451818
44.88277476
65.35201367
64.96083684
51.85523178
195.0746949
95.92603838
97.04318991
92.6389684
94.47246929
193.6922201
1260.520506
1337.547245
626.4127357
873.3358902
846.6658572
950.7491928
906.9532379
31.79633549
31.78990475
31.50931373
32.55019621
32.1319834
32.14303276
32.11376877
32.12229577
32.53732439
33.72370172
33.6987486
33.06370138
35.50944045
34.49379353
34.52674225
34.44258045
34.46557497
35.47313748
38.77311715
38.68341959
36.84627275
45.55669032
41.36118181
41.49583045
41.16397075
41.25389797
45.39146678
67.41091645
66.69122603
52.72475659
192.4672957
99.94503348
101.2876866
97.98245272
98.89057707
193.0533471
1018.635639
1069.764701
523.420991
780.0788111
757.407268
823.738515
802.2442032
31.81713053
31.81267331
31.51402084
32.61802749
32.17597301
32.1859745
32.15448716
32.16548806
32.60047112
33.86441806
33.8252118
33.15837652
35.73494233
34.66114629
34.71821766
34.56472804
34.60911513
35.66488152
39.31842322
39.14832715
37.16282465
46.69089843
42.07124773
42.337187
41.65507258
41.84432589
46.32343591
72.81329746
71.0094523
54.726652
197.1290369
107.6672473
110.7360534
102.9384825
105.0786077
194.0018361
863.1887217
898.9323907
480.0176983
678.6623179
650.7623616
732.169653
706.1464254
31.83102733
31.82808304
31.51182989
32.68411041
32.2134926
32.22200214
32.19553119
32.2046809
32.66809522
34.0212714
33.98190622
33.26252376
36.07921373
34.89331606
34.95290287
34.77610162
34.83441272
35.99019855
40.17169195
39.94679624
37.67993715
48.94532586
43.35978866
43.74133662
42.64680047
42.99525053
48.2733021
82.74532023
80.06648318
59.26778386
222.8375584
122.8765066
127.2420253
114.3695124
118.3550871
214.2158801
735.528193
764.9998596
504.5357854
564.6657439
538.0751244
621.8315755
593.4001088
31.84020521
31.83824273
31.50443346
32.7462606
32.24608914
32.25378476
32.23024312
32.23825029
32.73090642
34.18210059
34.14123821
33.36491905
36.45265729
35.13674576
35.20013171
35.01325943
35.07448573
36.3563491
41.1645544
40.89842189
38.2644744
52.21917611
45.03120633
45.52833098
44.14359382
44.57148967
51.30480625
92.91552663
90.47320854
65.59171407
251.2115551
139.5915611
143.4515181
131.4749968
135.6129198
245.2149423
634.6063371
657.5500986
521.0129572
470.4448609
451.2632772
513.6549466
491.1777104
31.84666717
31.84520991
31.49345849
32.80769195
32.27632849
32.28380391
32.26136451
32.26885758
32.79223908
34.35229241
34.3085199
33.46965984
36.86507083
35.39845836
35.46813809
35.26474935
35.33076494
36.7569331
42.43301286
42.07897002
38.93779699
56.31185879
47.26856294
47.92335079
46.0668586
46.64777478
55.25174328
102.1061294
99.88754637
72.00403234
276.9173238
154.5721704
158.0982669
147.2261594
150.9417322
270.6778347
555.0108631
573.2805569
508.6322391
401.6185103
387.3093586
433.4868922
416.9718375
31.85235537
31.85089089
31.48040054
32.87164124
32.30665561
32.31461186
32.291317
32.29890635
32.85518961
34.54108253
34.49124589
33.58133429
37.35558553
35.69390354
35.7769689
35.54021409
35.61522526
37.2217901
44.10638565
43.65445097
39.79870462
60.48508717
50.01058315
50.72145292
48.60425803
49.30254906
59.464652
110.5008637
108.475025
77.87181132
297.6210155
168.0205875
171.0806522
161.5358088
164.8339879
293.1288531
490.8135497
505.6568868
480.3432261
349.8648506
338.9260307
373.9680093
361.5323648
31.85981563
31.85761262
31.46698111
32.94321172
32.34038669
32.3499088
32.32283252
32.33138583
32.924203
34.76900584
34.70683785
33.70876419
37.99544145
36.06010354
36.16808276
35.86518318
35.95930178
37.81838125
46.02593511
45.53743982
40.92733384
64.37184503
52.82665648
53.51175693
51.42984773
52.13216786
63.42885192
118.0447451
116.2468556
83.24575705
310.824714
179.3553471
181.8057801
173.9799071
176.7445233
308.2150796
437.9485894
450.2769806
447.9312608
309.9514077
301.4380553
328.6686948
319.0188944
31.87253586
31.86865283
31.4555422
33.03065579
32.38248922
32.39504008
32.36003318
32.37084996
33.00675981
35.06289967
34.98210526
33.86679615
38.81081049
36.53744504
36.67550653
36.28357145
36.40669335
38.59267093
47.97002314
47.48850217
42.24530322
67.9704593
55.50720387
56.15244175
54.18693987
54.8519879
67.09529891
124.6876629
123.1146915
88.1712134
316.6625539
188.3277943
190.2078466
184.1327819
186.3069841
315.7872366
393.066214
403.6595477
417.1736395
278.7473356
272.0341763
293.4056296
285.8458025
31.89442086
31.88788569
31.44875104
33.1440074
32.43905293
32.45618314
32.40858156
32.42321209
33.11272392
35.43624477
35.33564099
34.07115134
39.74651776
37.12830344
37.29012595
36.82038262
36.9714963
39.505509
49.84803961
49.38643889
43.6233771
71.31226105
58.0282239
58.63405454
56.78762615
57.41272658
70.5006218
130.3868765
129.0513824
92.65583827
316.3914053
194.9942797
196.3538051
191.968744
193.5414532
316.8104856
354.28974
363.4847402
390.0140073
254.1427827
248.8700019
265.6888617
259.7366707
31.92931967
31.91920219
31.449202
33.29148267
32.51601289
32.53900718
32.47466961
32.49458167
33.25114795
35.87986635
35.76345817
34.32935225
40.7329057
37.79883481
37.97431701
37.45621254
37.62594332
40.48440597
51.63830774
51.19928904
44.98919455
74.39798925
60.39282019
60.96006384
59.23000853
59.81610102
73.65072365
135.1225374
134.0196674
96.67320443
312.1284163
199.5985545
200.6059638
197.5387747
198.5637819
313.5172839
320.7787662
328.6809793
365.3669545
234.7042472
230.4481126
243.891978
239.1771754
31.98041252
31.9659783
31.45930272
33.47613947
32.61763275
32.64715282
32.56358479
32.58977549
33.42654624
36.37325417
36.24639171
34.63755494
41.72705864
38.51153914
38.69308462
38.15184913
38.33100932
41.47917326
53.33812464
52.92160743
46.31551709
77.22992746
62.60538761
63.13578977
61.51779465
62.06601688
76.54457231
139.128688
138.1879658
100.237948
304.3479882
203.3637598
204.1345444
201.5874311
202.4954331
306.4967589
292.1258006
298.8709753
342.6833342
218.8148648
215.264663
226.392969
222.5206855
32.04989003
32.03073828
31.48113857
33.69568372
32.74549083
32.78149067
32.67830951
32.71108363
33.63780163
36.89714886
36.76418682
34.98546648
42.70863362
39.24092394
39.42401524
38.87531696
39.0579539
42.46506809
54.94976343
54.55501594
47.59388545
79.82735728
64.67380878
65.16943582
63.657294
64.16971499
79.19874669
142.5277596
141.7360674
103.4153673
294.60835
206.0282841
206.5059557
204.8570236
205.4794656
297.1031097
267.6969195
273.4583727
321.6012044
205.4326589
202.4024595
211.8531117
208.5773885
32.13846904
32.11455005
31.51636936
33.94474217
32.89853663
32.94046286
32.81901868
32.85803636
33.88004945
37.43767557
37.30154173
35.36199445
43.6683877
39.9722858
40.15450633
39.60699447
39.78974312
43.43074723
56.47738855
56.10303825
48.82208602
82.20936264
66.60681968
67.07041719
65.65668839
66.13552282
81.63262174
145.3194906
144.6817188
106.2420869
284.0337866
207.5029709
207.6787618
206.90677
207.2255548
286.6394368
246.7941195
251.7331524
301.9659437
193.9525354
191.3170281
199.4870467
196.6690666
32.24563876
32.21716375
31.56583914
34.21740126
33.074179
33.12127906
32.98373461
33.02831283
34.14733243
37.98630477
37.84871858
35.75822383
44.60339784
40.69827387
40.87854065
40.33625237
40.51749392
44.37200301
57.92824059
57.57243461
50.00199914
84.39528469
68.41658549
68.85105397
67.5265154
67.97498469
83.86596792
147.5398689
147.0443538
108.7421606