/*--------------------------------*- C++ -*----------------------------------*\
| =========                 |                                                 |
| \\      /  F ield         | OpenFOAM: The Open Source CFD Toolbox           |
|  \\    /   O peration     | Version:  v2012                                 |
|   \\  /    A nd           | Website:  www.openfoam.com                      |
|    \\/     M anipulation  |                                                 |
\*---------------------------------------------------------------------------*/
FoamFile
{
    version     2.0;
    format      ascii;
    class       volScalarField;
    location    "1.45";
    object      k;
}
// * * * * * * * * * * * * * * * * * * * * * * * * * * * * * * * * * * * * * //

dimensions      [0 2 -2 0 0 0 0];


internalField   nonuniform List<scalar> 
3019
(
36.90870127
36.90876393
36.9088989
36.90915422
36.95450606
36.95541518
36.95702081
36.96039473
36.96674567
36.9769065
36.9894486
37.002679
36.7274953
36.72774161
36.72810361
36.72893962
36.77504258
36.77962788
36.78877924
36.82404561
36.85340444
36.90080352
36.96428143
37.01654761
36.54754615
36.54817048
36.54927009
36.55151747
36.59931859
36.61063945
36.63229516
36.68763476
36.75775395
36.86802459
36.9833584
37.06792097
36.36898303
36.36979747
36.37176272
36.37645885
36.42835263
36.45152585
36.4988468
36.59097735
36.73322356
36.90263133
37.07087024
37.20207197
36.19226781
36.19365909
36.19743167
36.20705815
36.26548704
36.30706901
36.39587527
36.54975103
36.76730368
37.01031501
37.26767735
37.49638736
36.01687218
36.01905867
36.02543015
36.04133972
36.11285184
36.18289646
36.33637455
36.56040705
36.85240001
37.20649182
37.64064341
38.13375121
35.84398788
35.84773481
35.85858718
35.88502764
35.9724548
36.08090144
36.31568117
36.60597526
36.99922261
37.51628494
38.29154153
39.61462489
35.67465786
35.68032769
35.69677204
35.73720249
35.84367104
36.00257579
36.32325354
36.68269822
37.19568422
37.92470516
39.21831137
42.18625713
35.51190004
35.52063836
35.54517153
35.60352265
35.72956609
35.94670092
36.34634297
36.78202618
37.41740648
38.34962311
40.0944378
44.52776133
35.35745255
35.36943472
35.40249115
35.48002976
35.63218649
35.91006084
36.3810215
36.8937369
37.63890025
38.72887027
40.73877113
45.6032614
35.21435824
35.23087348
35.27491511
35.37584206
35.55085617
35.88841734
36.42392587
37.00792632
37.84498569
39.05584981
41.25313996
45.99097175
35.08237646
35.1028826
35.15668029
35.27963655
35.48257165
35.87779663
36.47112771
37.1183533
38.03535589
39.34996914
41.72648922
45.68544966
44.3415035
45.5021274
45.99441119
45.74511162
41.7816096
40.59502817
44.46994807
43.53654715
41.13403249
45.16372479
44.57803666
45.84929854
47.98245202
48.99041556
41.62319587
45.34959764
45.21407564
45.92502226
44.18805356
46.26166181
45.34817697
45.45744113
39.26895578
41.77474298
48.96691612
50.99951594
44.38544285
48.50868117
49.11402775
49.82546256
45.1191749
50.56468984
49.19987765
51.16128909
50.71733369
46.46112739
47.81011106
45.90908707
47.43756843
45.51799989
49.11131865
47.55641875
41.91357897
44.05959332
45.88786028
43.05586931
40.44462928
45.38941063
43.20059774
39.0860988
45.42575737
37.04864151
40.29582219
37.26957601
39.89954948
43.35849981
41.47764432
43.3048448
47.38186779
43.92309468
45.00381058
49.89893929
49.64018602
49.46621256
47.73617926
43.61070627
57.345696
46.77685651
55.18713346
41.62439205
43.86702428
40.63343129
44.97131732
44.60703737
62.10567964
57.86468341
50.00590068
58.2711766
59.32353256
53.45353015
57.90100194
50.28184874
46.2862666
52.61636596
46.07699478
58.45660934
53.46643193
46.93791186
55.99041947
61.91446234
49.92368474
45.63394599
49.83687281
51.18561141
49.30190781
52.85015626
46.05881941
48.83938933
51.09638709
46.56409136
46.44006123
48.43693555
48.338922
42.02245322
41.84346953
44.35901007
44.21036452
44.48142121
39.2505893
39.10221597
43.43672744
46.27328767
45.11074359
46.58830444
46.31984235
46.92003193
46.67425654
45.26178066
45.42345524
45.08648636
40.77868492
47.06721451
47.20458643
46.99640432
41.6319424
42.17291162
45.92051053
42.99881621
45.84022269
45.5307491
46.22692866
45.93964901
43.14288989
42.62290394
36.88316276
37.24384532
33.83685081
34.11916024
40.95331092
44.95926551
40.76102264
41.48227598
37.38707663
37.79381304
43.63319838
39.85230416
33.52097206
33.76463269
33.00021822
38.29614541
55.13845035
55.02030135
50.09235677
51.15709062
60.55563943
59.92093331
59.47159918
53.41406142
54.04832139
52.29776237
53.16460661
59.79829605
56.17038853
54.41351093
54.24285547
54.2023501
54.41858384
56.48245657
56.70129951
50.93301055
52.00208401
60.12416545
60.6200634
44.10728487
50.018345
49.06071287
50.92108776
50.27749713
44.74847412
47.73966005
47.08696162
48.7284022
47.96465961
50.71904169
53.39572425
52.80339585
54.10256803
53.58448549
51.22559996
47.17142022
51.77314173
51.13825977
52.60007504
51.98199345
47.57509048
41.08680648
40.56059868
42.00063701
41.27142668
39.72096564
39.2066396
40.39365717
39.8750595
46.04968533
45.43943296
46.87684283
46.25873526
44.22597391
42.47936404
45.21795493
44.60727841
36.40354304
36.74095589
42.47728906
34.35200353
34.12439793
34.68300692
34.44632446
33.99449603
41.17159025
34.26386426
36.0270831
38.69362654
40.48328004
44.81412475
38.27877017
35.73101627
39.10272543
38.31147912
35.08556914
34.79043843
35.54977444
35.19884602
43.77681145
37.93931282
38.4286091
33.22359892
33.453118
39.70442727
38.55736138
33.00020075
33.17229761
48.45224958
47.56161115
47.46676433
47.60097294
47.58149757
48.59517849
47.42319816
47.26585152
47.2598083
47.06486201
43.80887547
44.48939352
44.8216938
45.84351892
47.91207452
56.53039108
61.77189344
62.61074006
58.58682061
58.69436409
57.41641377
57.25485229
54.08813045
55.24247961
54.81697012
57.06507644
56.82191589
57.41745732
49.28409172
50.5807265
56.13071952
57.64854762
63.84640813
59.7902327
63.92896066
64.29915333
61.19204762
42.29144104
44.71039032
44.14349985
48.71574595
48.45640342
45.37382252
41.8453593
41.58185419
43.66555621
43.28299725
49.76757837
52.19659802
51.83236586
54.42284289
54.0458104
52.28586854
46.38353534
49.38558007
49.07943145
51.46637479
51.10928838
48.40720402
43.06982062
43.61907839
46.9440287
46.04761175
42.34687127
42.89046968
46.852436
47.3951464
48.73292336
40.07094349
39.90989188
41.35448059
41.14782127
37.52826474
39.67348944
39.54060724
48.01877438
46.09573779
46.66447919
36.98188847
39.43595807
39.2995335
33.92649191
35.94792734
35.83247715
36.3085933
36.08542075
34.01355494
33.11138727
33.05378313
33.60957328
35.54545557
35.44148541
35.73648924
35.63838581
33.68109033
33.2504826
33.17009117
34.2283108
33.41393451
33.02382241
56.11619483
53.02724325
52.58974974
56.01141992
63.48978882
65.04538622
57.03777003
62.22570229
66.34198721
61.22163954
59.19449821
56.11274166
55.68928778
54.69957896
57.06706601
56.61519489
56.32429081
65.12842525
64.82686827
59.12329461
65.61207689
67.84008266
61.05960327
64.88290619
65.09348633
47.21278743
47.03774249
44.07337562
44.91779513
48.04386474
47.86172038
42.38082698
42.10140257
42.96302745
42.66137752
52.92959993
52.55965841
50.22387817
51.75039424
53.67400345
53.3014428
50.06604503
49.73988738
46.81002548
47.96709022
50.7517358
50.41138822
40.90541377
37.7833598
37.95029251
37.48215684
37.63603907
40.73394946
41.6976662
38.50293617
38.75060887
38.11554876
38.30134477
41.47139736
39.53695143
36.60241934
36.76082759
36.34103774
36.49654048
39.40220111
40.21925651
37.18400934
37.33933547
36.88390984
37.04658129
40.05551319
40.48613289
40.30192513
45.84764412
43.60762769
43.81187666
43.18767861
43.3739713
45.63523057
40.91542727
40.71431165
38.81224488
38.72500677
43.93449694
41.74759227
41.82047584
39.11617823
39.61959231
43.17374978
45.0343224
42.78295209
42.93693159
42.37251217
42.48215488
44.78216635
39.28270873
39.18372119
36.47085882
38.82337353
38.69006493
39.13941473
39.013881
36.66065618
34.29282651
34.1789622
34.60706885
34.50546325
33.93308111
33.74421255
34.51840748
37.39947709
36.71800536
38.37991293
38.09991917
35.84219257
36.46992593
34.82882648
35.62571602
36.01943366
38.86339712
36.08240996
36.25584677
35.77845455
36.0069155
38.78507671
34.98953008
34.87828869
35.42340595
35.30262002
33.30625026
35.1493651
35.03014353
35.34768159
35.23742292
33.36626135
33.0618872
34.73379878
34.50378207
34.9527949
34.81083197
33.10279282
36.71875107
36.75944369
36.84410432
36.77615901
36.84255686
36.88654532
36.86735945
36.94948869
36.94633592
36.97306558
37.03498195
37.00506996
37.04920485
36.61058663
36.69545875
36.7370317
36.73198471
36.84850678
36.83781204
36.88782649
37.00460353
36.95676554
37.04075699
37.13405717
37.05172208
37.15785993
36.55532489
36.70192937
36.69211242
36.75369569
36.918374
36.85950806
36.97530304
37.14841786
37.03078846
37.20491844
37.36019695
37.17501055
37.4032821
36.55457356
36.75278202
36.70975971
36.82469636
37.06107854
36.94728831
37.14744231
37.42766299
37.20361937
37.52694276
37.83617977
37.44513313
37.92833264
36.591633
36.85813656
36.77430414
36.95684431
37.29627022
37.11121646
37.42834887
37.90311397
37.52421397
38.09600839
38.83057778
38.00532387
39.11121318
36.65998768
37.00773726
36.89195233
37.14038447
37.61709751
37.37055451
37.81398547
38.60411407
38.06112589
38.97351393
41.14006174
39.19314059
40.36133737
40.93592963
39.90249083
36.75499318
37.19203789
37.05348205
37.36109485
37.98290184
37.71030985
38.24668218
39.35458564
38.80127447
39.45893385
40.04766605
39.75321339
42.58295351
43.2567604
42.75030254
36.86547996
37.38417905
37.24009634
37.58488469
38.3249897
38.07104688
38.63972997
39.95663232
39.52003631
40.2744187
41.03548598
40.82401204
44.70265878
45.87130101
45.67153131
36.98024073
37.56921627
37.43121228
37.79585525
38.62705681
38.40393925
38.97841823
40.43424097
40.08431096
40.87653755
41.72450265
41.56860724
45.69514345
47.08226616
47.03111948
37.09476817
37.74285337
37.61267066
37.99095163
38.89756173
38.69631393
39.27976927
40.85916748
40.541657
41.37960638
42.29767141
42.15065868
45.97947589
46.5741297
46.7396907
37.78201696
38.96031151
40.96046112
41.86673724
43.06767596
42.66825804
45.62164976
45.42611938
45.67160456
45.45915012
45.20432837
44.12490416
47.00272232
46.86281196
45.3911991
46.78938877
46.921376
45.98451945
45.74992263
45.97433445
45.79822711
43.48847704
41.40935148
40.656911
40.07303705
41.20388387
41.40505028
41.22768713
40.44019098
44.11462799
41.98220209
42.26655827
41.53186937
41.87971037
43.98793748
42.01633778
41.87036002
41.00550448
44.9541319
42.68513335
42.91766175
42.35445977
42.6046149
44.86952028
47.06779787
47.08756243
45.77717088
48.14695731
48.11066632
48.00147401
48.62098235
48.55099479
48.86077253
42.5831255
42.41840079
41.49127972
45.33032917
43.28798152
43.4971495
42.99425171
43.21526625
45.31355547
46.31959259
46.5135973
45.95622479
44.57485098
45.84037262
45.6699316
46.80285088
46.6446422
46.0280463
43.56104872
43.72199135
45.324433
45.07792132
45.34112568
45.5591538
39.94547494
42.79552729
42.7396133
44.0055234
43.80343428
41.35465474
49.35937255
51.70233724
50.78144787
53.35191918
53.31707806
50.77598959
44.93643863
45.54072277
44.90032158
50.136629
49.48522635
48.05048879
49.45935092
47.54667877
47.59779828
47.41135506
47.51777076
49.56227764
45.26852724
46.7834462
46.2925462
50.40717173
50.59131102
51.09311959
48.28865217
48.83378994
49.47584521
51.23443927
53.00287684
53.28733669
51.25728649
51.74228738
50.85721653
46.66937484
47.09744385
46.94981606
47.88702402
47.76721215
47.63172615
45.95538479
46.95929928
47.04865261
47.31135492
46.76302254
46.91814341
44.64832775
44.80411606
45.65622448
48.83329833
47.57563995
48.10990383
47.07685048
47.23640403
47.68055298
42.35145197
44.39470625
44.20034683
45.49699283
45.32224793
43.67276127
45.84598755
46.04570515
46.25280759
42.91149369
41.50333173
41.65598838
38.4296596
38.58503568
40.59928873
45.24963197
44.33454548
44.49550897
41.81151939
41.96538137
43.34498152
42.66016086
44.98719583
36.88110591
34.39407663
34.50300967
40.14818032
38.14795689
38.28767975
34.68722201
35.04950431
37.5739113
40.58962644
40.33060434
39.6876737
42.69354455
40.95734598
41.40319691
40.24792917
40.79469882
42.42563632
44.18533722
43.74176818
42.96051801
46.06576394
44.40390174
45.20165879
43.2879411
44.11304286
45.52369924
46.21533625
46.02580584
44.84887406
50.00617329
47.09076853
47.3493529
46.6889598
47.00193715
49.98348929
48.85887458
46.16256211
46.5775603
45.42204333
46.00826138
48.61926566
43.88453415
44.91504476
44.57486187
47.80975872
48.96515319
47.47408795
59.43212896
57.16860882
53.69244212
41.9061802
42.90198482
42.37674785
42.70408826
41.76936471
45.16479006
43.20896018
42.68074893
43.19541497
42.93119752
40.14659047
44.84962703
44.13547221
44.3095089
43.80593809
43.98796838
44.73133124
52.59814719
51.94784163
49.70105353
56.2029544
56.83044326
59.97225444
50.53617994
53.23351888
52.77886502
47.31502886
46.44626249
45.59020105
49.60037331
47.60837709
48.85591977
45.57086359
46.29660664
48.59941282
57.74811597
55.01138495
55.5679083
51.5990356
52.27253558
54.40102062
47.51897177
48.8714026
48.09989231
49.81364745
50.41158305
50.22189479
49.5614879
49.0187948
49.60221345
52.4940804
52.88631665
51.22644095
50.98308229
51.89908217
52.35173856
45.86745544
46.01697462
46.6939085
46.30802192
45.56659033
45.71788459
48.1953246
48.32037975
48.54012959
48.23181449
47.94060231
48.06899509
40.55427544
40.7216514
42.17974991
41.64010244
40.05552686
40.32522702
43.10227973
43.31830047
44.50755708
44.0644136
42.74334169
42.91296361
43.63745781
37.31504689
37.46423948
39.40517172
38.9378936
37.02304827
37.19147583
44.02000779
44.56373699
46.17152353
46.00779573
44.70431726
46.5005451
46.38847121
46.50927243
46.14020933
46.26532382
46.41093108
46.84031387
46.85673531
46.96759647
46.62777772
46.74407574
46.75814316
45.8487999
46.49311883
46.33171777
45.31361069
44.76872737
44.91824097
44.46001909
44.6188913
45.2019746
41.21312291
43.60407857
43.38584221
47.37867985
47.23956342
46.86896297
47.13906765
47.27880982
47.37672579
47.07393165
47.17810659
47.06953055
41.82329488
43.57400852
43.39877741
43.91452403
43.74124936
41.98769426
45.78473738
44.95610334
45.11025756
44.77970385
44.58809151
42.51331828
45.73902332
45.34708403
45.48565893
45.06319041
45.20632677
45.63582546
46.13273757
45.88457999
46.01318259
45.62130722
45.75400883
46.03698398
43.5435479
45.1452159
44.96507783
41.19800046
41.34763901
42.76668906
39.73983807
39.59324427
37.12647381
40.76522926
38.76264429
38.99252059
43.98697507
44.17262996
45.11346388
41.11471902
42.8692981
42.62534402
43.23415185
43.04647427
41.26022967
37.51522476
40.04881871
39.89682985
40.36118772
40.20611676
37.65873016
43.4892978
42.12025811
42.2740814
37.87182056
38.01218762
40.0013961
37.9535232
35.71374644
36.36721344
52.42228883
50.12564143
48.57612609
48.43718465
50.85518146
52.69811227
55.86911946
53.48427435
57.51454739
57.49504908
59.07319607
53.65084421
55.49736364
55.30487785
55.69383618
55.63057887
53.86065695
52.60162196
54.35186177
53.90076871
55.06000832
54.74037251
52.88736053
59.99131297
57.23765597
57.46364644
54.39521457
55.32450383
55.43696509
54.86371203
55.11497365
54.34301598
54.31659677
55.66266432
55.70022659
55.50768709
55.59554516
54.37994338
54.02643468
54.53435703
57.27341498
51.31392813
52.58653942
52.11998276
53.44817239
53.0042824
51.63219402
49.76623688
48.76761482
49.07283163
47.31501632
48.01267559
49.4294422
50.71210083
50.01422639
50.26159518
49.48012001
49.70881992
50.48677501
47.5186241
45.40281623
45.65015283
44.92357635
45.16189706
47.30120047
48.44658621
46.44892438
46.80558796
45.90095642
46.16302029
48.19761699
53.20196769
53.2800693
53.55086394
52.73371467
53.0080191
53.0039747
53.94103691
54.34695906
54.60640799
53.81949978
54.08503902
53.7669799
51.56335607
51.08715143
51.35650152
50.54480194
50.80862787
51.349713
52.39515324
52.18007191
52.45651175
51.63086452
51.90333417
52.18883432
46.67099824
44.47873694
44.69579048
44.03920774
44.25303284
46.4634352
42.33205729
40.89215773
41.04114366
39.30663182
39.69547684
41.41047167
39.12749808
41.60240659
41.28469393
42.3531393
41.98747075
39.77334231
44.64339643
43.55318602
43.78436031
42.42844695
42.58368878
43.92028259
38.08362091
40.68088227
40.51999472
41.04444433
40.8521158
38.24359609
39.55287344
37.59406614
37.73755511
36.62833318
36.89056719
38.7732478
48.30796605
48.2129133
48.30313434
47.53650796
47.92269346
47.9758811
47.79792004
47.86348844
47.50427942
47.59956202
48.10430937
48.13667149
48.02391282
48.06697836
47.59355314
48.73293269
48.47675962
48.3958786
47.37535837
47.64634192
47.72530142
47.47157186
47.56149818
47.32275267
47.44826061
47.64235911
47.51267201
46.46218877
46.61172892
47.19155857
44.00849693
45.63105898
45.4537397
46.01783232
45.81683085
44.22770876
45.21201195
46.47168625
46.23927137
46.88908536
46.69237791
45.57614437
47.79436954
47.39029651
47.53693246
49.74907729
50.57152022
49.95622118
51.65840342
51.10895097
50.14941522
55.31861905
52.90226564
53.51339976
43.25135036
44.93918971
44.76896281
45.28060763
45.10935633
43.43320789
46.81608573
46.16524457
46.31381896
45.26227108
45.4154595
46.18204106
42.53072865
44.25724099
44.08451282
44.59903809
44.42787993
42.70888033
47.03226646
47.86073206
47.70800783
48.16303297
48.01288947
47.21553177
48.63421274
48.4433932
48.56567903
47.6762288
47.80996562
48.13009328
46.2842748
47.23474181
47.07126336
47.5523105
47.39690527
46.48517191
36.8670295
36.86911865
36.95605738
36.87235224
36.87745311
36.9582373
36.88282447
36.89108155
36.96314702
36.90217462
36.91633242
36.97133075
36.9335251
36.95340373
36.98321195
36.97630094
36.99599117
36.99639934
37.0101186
37.01664244
37.00501347
36.688389
36.69025881
36.7769078
36.69418565
36.70026413
36.783513
36.70846243
36.71017422
36.81887936
36.78696099
36.79474682
36.82966199
36.82420916
36.83769565
36.86293521
36.8841648
36.90384631
36.91472866
36.96442525
36.98214269
36.97853477
37.02404568
37.03289986
37.0228892
36.5157708
36.52067911
36.60398432
36.52984328
36.54340558
36.6199495
36.56233258
36.59040022
36.67626968
36.65925182
36.67612816
36.70189159
36.74377224
36.77285104
36.78222496
36.8709181
36.90395499
36.89888945
36.99766022
37.02600446
37.00928711
37.09167708
37.10714357
37.08168782
36.34917115
36.35932058
36.43774746
36.37709416
36.40395261
36.47116138
36.44242088
36.51368783
36.56570169
36.57581399
36.6100499
36.62010149
36.73660886
36.78154497
36.77446501
36.92191227
36.96946296
36.94604359
37.10763044
37.15027938
37.10896066
37.25721301
37.28318845
37.22543401
36.19167912
36.21055515
36.28234146
36.24226511
36.28981728
36.34327583
36.36084405
36.49422563
36.50188789
36.54987085
36.60461563
36.60204214
36.78179069
36.8467576
36.8258843
37.05077237
37.12164777
37.07439202
37.34138334
37.4143398
37.33036926
37.61631309
37.66629508
37.54476617
36.04403139
36.07645965
36.14113288
36.12917248
36.20751609
36.2443765
36.32111019
36.51254608
36.49585023
36.56861627
36.64155258
36.62858964
36.88368546
36.97285321
36.93455707
37.27309436
37.38605223
37.30639581
37.77271958
37.91997143
37.7620158
38.39264437
38.53453629
38.2572856
35.90671819
35.95857861
36.015098
36.03884582
36.1565529
36.17804031
36.31771619
36.55762708
36.5208958
36.62223867
36.71811784
36.69586246
37.04333892
37.16740658
37.1138695
37.61126011
37.79184837
37.67791273
38.5020781
38.82864845
38.55405359
35.7839265
35.86003366
35.90666149
35.97242037
36.13161569
36.14100754
36.33341819
36.62749765
36.57354177
36.70456834
36.82669021
36.79842153
37.24785152
37.41283184
37.35047744
38.03091506
38.29866842
38.17051173
35.67792803
35.78054174
35.8171457
35.92682827
36.12623065
36.12592649
36.36284765
36.71353671
36.6480702
36.80952326
36.95846712
36.92449977
37.47381054
37.67722584
37.61181069
38.44986972
38.78901983
38.67335736
35.58862487
35.71899809
35.74588604
35.89864714
36.13374319
36.1283639
36.40273592
36.80652327
36.73615808
36.92259491
37.09561564
37.0611613
37.69214083
37.92695754
37.86658871
38.81482681
39.20213409
39.10568978
35.51569189
35.67266751
35.69091133
35.88353664
36.15197168
36.14047777
36.4505665
36.90187099
36.82940293
37.03809267
37.23209743
37.19698931
37.89611161
38.15596673
38.09904927
39.13289453
39.55657072
39.47122685
35.64816795
36.16000975
36.92203816
37.15343942
37.36414366
37.32659506
38.08316788
38.36426932
38.31182126
39.42139554
39.88051538
39.79977258
42.15848514
41.7138993
41.37193146
40.3377425
40.60911313
44.35592673
43.50506257
43.61251536
42.73282528
42.88533144
43.70091826
45.10277768
44.25681493
44.33533051
43.71408132
43.8138931
44.68116621
45.34743541
44.73877041
44.77836305
44.40751064
44.4763456
45.25599664
44.3170203
44.99854692
44.88532543
44.81275761
44.84471347
45.34349088
39.48162949
40.96211346
40.81603977
42.85991395
42.73370975
41.63564292
49.23318887
48.75047054
48.68698728
49.03045915
49.00801857
49.74469683
49.15329445
49.26890422
49.29412583
49.01877335
48.92177621
49.03775753
42.05439505
43.10608858
42.98055191
44.77742777
44.66327004
43.9304644
40.6691422
40.52530334
38.92650216
45.40688723
43.15809111
42.3926027
42.57093265
41.03982116
41.2839552
41.81196367
46.98955477
46.14495865
46.48072989
43.66425545
44.08882169
44.41346316
49.96179374
49.03058852
49.03957309
48.4428422
48.5863977
49.79580563
49.27751822
48.12986562
48.29470631
46.78369361
47.06589528
48.06018673
44.21228298
43.72403502
43.42341797
41.83845094
41.70164179
40.48108482
51.61529177
50.22754349
50.93960114
45.89422126
46.45334391
46.82332796
50.06284213
50.16053588
50.02399727
49.74169988
49.84025034
49.95305327
46.75870354
45.73692167
45.50834033
45.6405421
45.53583405
44.96998265
45.43143358
45.80835181
45.73494462
40.92591244
42.10067881
41.96385744
43.86641926
43.73937481
42.84389921
43.27991035
44.10292607
43.98299119
36.7305486
36.76155651
36.75161589
36.78508203
36.77179776
36.74338114
36.8367291
36.80299267
36.81345712
36.79666689
36.81539251
36.79836751
36.85297703
36.83200054
36.81751094
36.87472961
36.85121789
36.86792063
36.89683877
36.89708658
36.87274226
36.9458552
36.92029936
36.92230276
36.9311255
36.92211462
36.94450906
36.99687726
36.98810818
36.96700948
37.02217746
37.00623134
37.01696559
36.99688908
36.99977263
37.01253059
37.06142922
37.04545602
37.03472259
37.05219342
37.06948556
37.02832299
37.03872526
36.63478431
36.65356243
36.63316753
36.70441866
36.6770211
36.66290411
36.71780749
36.69551069
36.71847235
36.77094439
36.76968446
36.73487586
36.84187533
36.80569491
36.80925923
36.80787508
36.80441881
36.83874999
36.92752486
36.91363038
36.87721367
36.98391548
36.9489229
36.96632863
36.9271314
36.9360045
36.96812992
37.07509344
37.04769446
37.01658923
37.10027367
37.07545365
37.10613326
37.03167798
37.05094973
37.07326036
37.17768532
37.13875761
37.12112516
37.15188137
37.19291451
37.09124748
37.11836086
36.60174093
36.60481404
36.56402422
36.69620565
36.65020574
36.65191996
36.65366597
36.64950475
36.69314468
36.80716747
36.79253105
36.74339876
36.89416662
36.84283228
36.86218183
36.81644991
36.82766406
36.87465849
37.03293177
36.99841982
36.94607065
37.10203409
37.05050052
37.09076352
36.98874376
37.01652478
37.06295893
37.25965407
37.20003651
37.15203014
37.28542737
37.24478487
37.31148888
37.14373166
37.18970447
37.22575857
37.43837094
37.3543125
37.32168499
37.37961161
37.46871051
37.24343758
37.30416039
36.61793015
36.6099277
36.55125567
36.7345315
36.67067674
36.68379147
36.65433172
36.66076763
36.71988941
36.90023526
36.87056187
36.80105342
37.01941303
36.94318513
36.97879402
36.88574359
36.91392761
36.98172922
37.23759776
37.17831205
37.09839785
37.34306942
37.25974029
37.33123259
37.13892975
37.19416433
37.26772126
37.62871943
37.51288542
37.42771213
37.67467406
37.59631158
37.73197053
37.39015576
37.48553821
37.55486858
38.00680501
37.82794571
37.75246869
37.88205101
38.08694811
37.58112391
37.71386118
36.67559195
36.65762083
36.57919237
36.82665768
36.73999664
36.76447996
36.69978482
36.71846816
36.79911987
37.06186504
37.01588486
36.91850143
37.22922257
37.11907026
37.17445239
37.02043492
37.06689539
37.16702171
37.57188183
37.47481316
37.34720917
37.76147758
37.61322147
37.7298671
37.4121046
37.50630531
37.63488664
38.31178586
38.10123095
37.92390934
38.48533362
38.28793292
38.55876982
37.88488382
38.07606868
38.24107575
39.38923361
38.93523301
38.71288322
39.10500511
39.81063125
38.34538961
38.6794425
36.7686437
36.74278097
36.64044921
36.96735575
36.85151562
36.88429092
36.79110017
36.81990372
36.9279766
37.28430999
37.22568587
37.09151207
37.53258684
37.37169171
37.44198122
37.23732429
37.30175587
37.44887802
38.03795735
37.9139962
37.7119377
38.41480283
38.14587732
38.29790721
37.85900706
37.99636683
38.22971714
39.44651291
39.12392059
38.73487554
40.14160662
39.5767863
40.03478966
38.84672685
39.21823118
39.67854577
40.59954975
40.45459259
40.74822645
36.89089764
36.85847282
36.72930596
37.14442589
36.9963861
37.0360633
36.92162086
36.95703896
37.09678972
37.5463391
37.4800431
37.30468867
37.89208864
37.67420501
37.75184264
37.52064921
37.59501086
37.79903724
38.55309813
38.42812155
38.14028334
39.17875877
38.76837548
38.91604793
38.45823294
38.61400615
38.99301126
37.02688836
36.9924086
36.83709111
37.33629915
37.15816847
37.19911944
37.07660905
37.11746871
37.28838773
37.80503095
37.74157096
37.52954573
38.24270768
37.97717655
38.04957521
37.82767708
37.9032342
38.15810028
39.00509426
38.8993575
38.54644211
39.82028031
39.31680751
39.43669276
39.05680787
39.19057953
39.67540105
37.16411074
37.12951177
36.95087333
37.52334932
37.31958959
37.35968666
37.23962096
37.27997992
37.47781996
38.04381813
37.9854675
37.74393204
38.55435411
38.25330873
38.31854712
38.11939047
38.18750196
38.48052799
39.38469479
39.29468846
38.89752834
40.32149507
39.76171994
39.8620984
39.55004096
39.65827846
40.20614299
47.07017825
46.51505949
46.5415524
46.44880111
46.4820705
47.05265534
37.29779692
37.26238748
37.06369328
37.69825508
37.47309773
37.51292186
37.3977774
37.4380293
37.65826437
38.26186715
38.20705549
37.94139067
38.83082013
38.50106137
38.56153348
38.38044679
38.44350952
38.76601916
39.72099631
39.63869048
39.20583523
40.7527173
40.14630611
40.2386774
39.95872256
40.05386196
40.64954415
46.63210713
46.41008546
46.37057114
46.4768127
46.44184726
46.687212
37.54712875
37.58703448
37.82585033
38.61755338
38.6752445
39.0241033
40.32796703
40.41967218
41.06609656
45.51029439
45.63752397
45.57434431
45.75189398
45.69517499
45.59206749
46.8363183
46.53353457
46.50401507
46.5778727
46.55495752
46.88041108
45.82636746
45.86196026
45.80510392
45.96756676
45.91231098
45.90112728
42.3762474
42.11390075
42.64713593
41.18364165
41.58715021
41.86554956
40.993563
41.23080548
40.86065477
40.4272902
40.48680719
40.18396691
41.27816785
40.92161636
40.74230905
41.07398684
41.45849247
43.27815366
43.39520151
44.23753546
42.8900153
42.79062579
42.17535138
43.84756126
43.02411181
43.15632714
44.08952974
44.17589139
45.03264669
42.7630376
43.42051287
43.33712277
43.58157835
43.5019205
42.84165565
42.43969854
43.07628014
42.98387648
43.25235422
43.16490899
42.52338782
44.77797353
43.90844218
44.0015531
47.08040295
46.60170266
46.61010901
46.56717576
46.58464445
47.08610272
44.64872821
44.69672624
45.34099803
43.35502846
44.01194624
43.94737346
44.13500187
44.0747463
43.42788926
43.06725693
43.73471394
43.65950205
43.87878305
43.80832049
43.14317984
45.28904957
44.53857873
44.59703065
46.38618758
46.25195651
46.2052821
46.33450293
46.29112873
46.45070405
45.21765412
45.10562308
44.44549499
43.62787923
44.24675036
44.19219785
44.34545094
44.29758457
43.66840509
45.33315776
44.87377936
44.89987441
45.16648269
45.3952039
45.334621
45.51706292
45.45049563
45.25305355
41.26642897
41.0917502
39.71639668
42.06682962
42.26764419
42.78063462
41.49611371
42.61152699
42.48193027
51.41932919
50.57982559
50.773086
50.23972379
50.40522642
51.12260065
53.37652786
52.40038052
52.43553995
52.21002203
52.32632065
53.37766139
48.86908132
48.81163329
49.34875969
47.57088195
48.21109609
48.22867671
48.16514114
48.18950564
47.58684156
47.46790815
48.24302334
48.21680902
48.24116699
48.24627229
47.4859166
49.65193139
48.96976439
48.92248992
50.75943067
50.74069239
50.60442175
50.99652576
50.86233331
50.92766735
48.46879923
49.04111219
48.89583024
49.33240851
49.18665584
48.65052646
49.38096984
49.383621
49.49886439
53.10995545
52.37521299
52.31332435
52.43509888
52.41438733
53.20633133
51.42075588
51.24424504
51.11487443
51.47943471
51.35763341
51.581747
46.9942069
46.60624015
46.59222908
46.61508538
46.61221754
47.02383502
48.6866699
48.80457959
48.92757299
47.75408046
48.45923653
48.31205918
48.75074127
48.60557438
47.93244592
43.35640625
43.22823657
42.19915966
43.80211227
44.55498469
44.44000636
46.11617205
46.06845147
46.01474359
46.16326139
46.11269474
46.18470706
42.56459202
41.74315238
41.89612552
45.27079366
41.99457329
42.20212406
42.93809297
42.13116124
41.53505317
41.77339618
45.39207686
45.78638587
46.5510398
44.68818401
45.1057901
44.74356049
45.74414385
45.42969559
44.94606318
44.36371009
43.92699774
43.77315728
44.93980835
44.52481021
44.968453
48.92878254
48.99520051
49.99514329
47.18029716
48.03054827
47.93739408
48.17504246
48.10838241
47.26562057
46.80127991
47.61679173
47.49285164
47.83761856
47.72764514
46.90049395
49.91229605
48.71534134
48.83286755
47.76068596
47.95625501
49.07837551
46.31652606
47.07270589
46.8970594
47.36710519
47.22167324
46.44656873
45.63992633
46.27842033
46.01655532
46.71517576
46.50060411
45.82408718
48.35285556
47.31745521
47.55213355
42.14836698
42.5357974
42.40054998
42.29496661
42.55742911
44.36227964
44.11525228
44.58420918
43.06173852
43.40436853
43.67325395
43.03086056
43.22392946
42.81949183
40.32554717
41.5660293
41.40858613
52.393496
51.29273463
51.46777829
50.94543372
51.12946921
52.18477941
53.09913424
51.93191113
52.08271886
51.6224063
51.7874446
52.95392642
48.66512134
49.51361921
50.69487338
49.36159737
48.66835425
48.33777105
47.57237035
47.14347256
47.85503356
50.02637034
50.19603672
50.0575488
50.47419509
50.3298685
50.22640795
49.61285773
49.72752343
49.65644116
49.20684077
49.62377902
49.47804786
49.91432771
49.76921262
49.40017643
52.63147582
52.08980537
51.99523887
52.24912982