/*--------------------------------*- C++ -*----------------------------------*\
| =========                 |                                                 |
| \\      /  F ield         | OpenFOAM: The Open Source CFD Toolbox           |
|  \\    /   O peration     | Version:  v2012                                 |
|   \\  /    A nd           | Website:  www.openfoam.com                      |
|    \\/     M anipulation  |                                                 |
\*---------------------------------------------------------------------------*/
FoamFile
{
    version     2.0;
    format      ascii;
    class       volVectorField;
    location    "1.45";
    object      U;
}
// * * * * * * * * * * * * * * * * * * * * * * * * * * * * * * * * * * * * * //

dimensions      [0 1 -1 0 0 0 0];


internalField   nonuniform List<vector> 
3019
(
(99.99823976 0.004212016187 -4.296113709e-21)
(99.99777657 0.01390823642 4.507834479e-25)
(99.99644465 0.02848771817 -4.284540927e-21)
(99.99423363 0.05109757852 -4.251565294e-21)
(99.99981892 0.03944596704 4.09198564e-21)
(99.99720955 0.06344632884 0)
(99.99579865 0.1001130593 0)
(99.9954433 0.1496605196 -7.057221022e-21)
(99.99432115 0.2136021073 8.156729174e-22)
(99.99371895 0.2887632964 -5.195804433e-21)
(99.99430818 0.3645958562 7.319112385e-22)
(99.99589588 0.4241327282 0)
(99.98432044 0.01128711244 1.72234691e-20)
(99.97884382 0.03773191901 4.29823185e-21)
(99.96645847 0.07794406619 2.999508789e-20)
(99.94523931 0.1406856611 -1.284575118e-20)
(99.94975605 0.1866430026 4.124638084e-21)
(99.91773171 0.3033130418 -5.619945224e-23)
(99.87700178 0.478982222 0)
(99.85626196 0.6335207818 -7.151797972e-21)
(99.81464033 0.9148562153 -6.555943596e-21)
(99.78722565 1.256203735 -1.119632007e-20)
(99.79360606 1.613491526 -4.505267114e-21)
(99.84672967 1.90307813 -5.400028342e-21)
(99.95794183 0.01474193685 -1.71851089e-20)
(99.94244016 0.05030601917 -3.452787878e-20)
(99.90871817 0.1063436698 -7.72940511e-20)
(99.85230708 0.1965348624 1.028049089e-19)
(99.8264966 0.2946132399 -8.489698058e-21)
(99.73055941 0.4926569385 -8.218319196e-21)
(99.60447758 0.7944533419 -1.424458201e-20)
(99.53844863 1.117592353 0)
(99.40435095 1.657107733 2.722171719e-20)
(99.31492538 2.330937439 -6.575683666e-20)
(99.348821 3.050115687 -3.603586363e-20)
(99.54631695 3.682072843 -1.272667442e-20)
(99.92689428 0.01239956606 -8.672425144e-21)
(99.89714828 0.04484215348 6.068675304e-20)
(99.83352271 0.1027746388 -1.736585666e-20)
(99.72953436 0.1997955982 0)
(99.64854766 0.3377100764 0)
(99.46127236 0.5923864271 -6.669697343e-20)
(99.20325196 0.9950186565 -1.332905002e-19)
(99.00604405 1.476453252 3.121019546e-20)
(98.69159439 2.265281943 -1.510004837e-20)
(98.46802611 3.27599569 0)
(98.45860812 4.482910736 -4.092603322e-19)
(98.85794958 5.672602005 0)
(99.90515668 0.002883977458 0)
(99.85883195 0.01669719234 0)
(99.76059885 0.05930812108 8.791510759e-21)
(99.59927831 0.1404924468 1.325486577e-20)
(99.45083561 0.2988148723 2.191045533e-20)
(99.14242012 0.5715367675 0)
(98.71256682 1.008511529 0)
(98.30732673 1.612058013 0)
(97.73686685 2.575865021 1.076438786e-20)
(97.19823302 3.942404963 2.803887575e-19)
(96.9257757 5.802351501 0)
(97.45037941 8.004615266 4.445963123e-19)
(99.90827825 -0.01426492569 0)
(99.84499393 -0.03570705826 0)
(99.71241788 -0.02930667955 -1.759635269e-20)
(99.49076041 0.01469525357 3.591962675e-20)
(99.26583579 0.1642572967 0)
(98.82440002 0.4029217325 0)
(98.19323266 0.8071346747 2.81075738e-20)
(97.55733287 1.42971104 3.023220137e-19)
(96.61344616 2.42634992 0)
(95.51017514 3.994618044 1.308100431e-18)
(94.43373657 6.592260154 1.253441329e-18)
(94.43324506 10.71270087 1.047733982e-18)
(99.95121328 -0.03861690791 4.309607512e-21)
(99.87271582 -0.1104680859 -4.343027248e-21)
(99.71066529 -0.1597554932 8.867155241e-21)
(99.43629933 -0.1776203766 -3.241059344e-20)
(99.12695235 -0.06737963202 6.680571701e-23)
(98.5666415 0.08450576956 2.781481662e-20)
(97.75646442 0.3758401001 -4.791721335e-20)
(96.88629365 0.8930556329 -1.684577649e-19)
(95.5297109 1.731001583 1.401552132e-20)
(93.67279177 3.137187743 0)
(90.96496022 5.774196335 2.22760929e-20)
(87.44287152 12.27502212 0)
(100.0467922 -0.06869062638 -4.310063603e-21)
(99.95685434 -0.2027950529 4.344587323e-21)
(99.7736665 -0.3226650541 -5.51907409e-21)
(99.46162803 -0.4214070274 -3.718612804e-21)
(99.08127749 -0.3798458717 1.587130136e-20)
(98.43136803 -0.3570228866 9.476646084e-21)
(97.50880565 -0.2567353962 -4.946803512e-21)
(96.44441307 0.04979171983 0)
(94.7864423 0.5114434337 -4.071149978e-19)
(92.36670008 1.249868669 -8.727941208e-19)
(88.28048823 2.369413421 -9.725632021e-19)
(80.11746852 4.439898136 1.254021809e-18)
(100.2043276 -0.1022374586 -2.080664058e-21)
(100.1080915 -0.3057225833 -1.563987604e-21)
(99.91449541 -0.5047982614 -5.362898233e-22)
(99.58414304 -0.6954066408 1.626919579e-21)
(99.15297639 -0.7430201859 -3.108034274e-23)
(98.46094721 -0.873373638 0)
(97.50504398 -0.9993307819 4.280802541e-20)
(96.34312472 -0.9633016856 -6.282230368e-19)
(94.59898178 -0.9558935929 -4.12740345e-19)
(92.15684913 -1.002311334 -9.886473645e-19)
(88.46353959 -1.533354628 1.946569606e-18)
(83.58102627 -3.637316961 0)
(100.4282811 -0.1365866851 4.100075094e-21)
(100.3314255 -0.4110181425 6.225915801e-23)
(100.1390712 -0.6906756029 0)
(99.81127316 -0.9754701214 2.124193072e-22)
(99.35451087 -1.121625744 -2.182016091e-21)
(98.67060279 -1.407954318 2.331569887e-21)
(97.75534414 -1.752850476 0)
(96.60527856 -1.976006484 -2.688464706e-19)
(94.96848618 -2.349105427 -4.202306651e-19)
(92.80393568 -2.916290245 2.754173626e-20)
(89.9044591 -4.051901424 9.210030155e-19)
(86.87183951 -5.937856519 0)
(100.7178207 -0.1691630361 -2.01923309e-21)
(100.6256439 -0.5105902812 2.037645474e-21)
(100.4450541 -0.8652710281 1.988241708e-21)
(100.1407218 -1.238592688 -1.862986505e-21)
(99.68058133 -1.481761287 -2.153091911e-21)
(99.04808836 -1.906992026 0)
(98.2276403 -2.43757686 -2.388214571e-21)
(97.16191029 -2.874944345 0)
(95.71421511 -3.513886581 1.590558266e-18)
(93.86588103 -4.370806037 8.195077598e-19)
(91.47988916 -5.69515541 8.086219155e-19)
(89.04534339 -7.286566403 1.02548398e-18)
(101.0671227 -0.1977337243 7.400505157e-21)
(100.9841993 -0.5973405834 0)
(100.823244 -1.013872202 -1.98434301e-21)
(100.5563307 -1.471976356 0)
(100.1079264 -1.796426282 0)
(99.56456747 -2.329339454 -6.402677978e-21)
(98.87345004 -3.001626551 -2.206042608e-21)
(97.93598486 -3.598438357 4.830459475e-19)
(96.70565067 -4.412829778 -7.607681976e-19)
(95.14478734 -5.452036852 -2.382679457e-20)
(93.08029355 -6.933741401 0)
(90.79976951 -8.551068783 -1.639767893e-18)
(83.00760559 -3.142160235 2.28850126e-18)
(86.55117393 -5.726403951 -1.201805592e-18)
(88.80897469 -7.139698378 2.09803721e-19)
(90.57665633 -8.381271431 5.614575711e-19)
(80.52063102 6.001812788 -9.834226344e-21)
(89.51442004 -3.530773872 -9.220876455e-19)
(86.89781353 -5.385133703 -9.564045995e-19)
(84.21076655 -3.112460397 -1.08206736e-18)
(91.08731874 -5.334611878 1.994148588e-20)
(89.08200974 -6.888100065 -8.385890128e-19)
(87.20737603 -5.61093689 9.243205554e-19)
(87.76495907 -6.504611962 1.063387942e-21)
(86.91508107 -7.553743596 0)
(85.72902238 -6.992029351 0)
(92.6698101 -6.649860388 7.5858188e-19)
(90.83086059 -8.153987926 0)
(89.31348323 -7.045233568 2.06236795e-21)
(89.71322709 -7.733716984 3.932057616e-19)
(88.72896242 -8.477570594 5.707284561e-19)
(88.09692903 -8.026791569 1.940487044e-19)
(91.05218527 -8.319021655 7.278702103e-19)
(91.62454511 -9.053313351 5.62504989e-19)
(90.11917997 -9.955433682 -2.655702814e-19)
(89.46305814 -9.233407718 1.973517005e-21)
(76.05454508 -5.132125148 3.319330443e-19)
(81.39454228 -6.480814313 -2.103129974e-18)
(69.2442128 6.294277591 8.574930708e-19)
(74.98639746 -4.532678698 0)
(85.56392847 -6.896886509 0)
(84.34009936 -6.381531847 -9.000199997e-19)
(85.46624378 -4.99634604 1.022069946e-18)
(84.16830057 -6.599991324 1.153631899e-18)
(85.43428908 -7.043044998 6.452989614e-19)
(81.87492489 -6.506384052 0)
(83.96372798 -6.564595508 -5.524558031e-21)
(87.98420706 -7.971385124 0)
(87.07017639 -7.610944565 -4.00102211e-19)
(88.04244393 -6.673955557 0)
(86.88834322 -7.718404344 6.155959792e-19)
(87.85099499 -8.063792134 -1.242307871e-18)
(85.5156767 -7.09880447 -2.520511953e-21)
(86.8107564 -7.685706421 -3.102697951e-19)
(89.41297818 -9.186115667 -5.522762203e-19)
(88.76787472 -8.516407817 0)
(89.9274843 -7.889539369 -1.947683299e-19)
(88.61569675 -8.550051954 5.936128209e-19)
(89.1909686 -9.23207274 0)
(87.9051358 -8.096332598 -6.195370026e-19)
(88.58112941 -8.512451489 0)
(90.16375629 -10.01235859 -1.059995272e-18)
(91.74827416 -9.146885314 -5.631138844e-19)
(89.79678784 -10.04643673 -2.278080205e-21)
(89.23958261 -9.278479907 5.671672504e-19)
(89.76376587 -9.991734857 -2.691663933e-19)
(88.2168263 -0.6862096718 -9.765359286e-19)
(83.73756427 -2.590689903 -1.129087119e-18)
(81.7613521 4.21776482 2.322686488e-18)
(80.65901747 0.1647857397 0)
(75.80981019 -3.51194407 0)
(71.4411499 6.108834813 7.214432085e-20)
(85.05302091 -4.717089574 0)
(84.12917808 -6.333226959 -9.11830922e-19)
(81.9529404 -6.021705582 1.023197234e-20)
(81.48421361 -5.94109678 -1.047314004e-18)
(76.6996833 -4.138056267 0)
(81.19066442 -0.9142336684 -3.764996646e-20)
(78.99982446 -9.196235625 -1.135174695e-18)
(54.64011892 8.808776133 0)
(62.79266248 -7.547181716 1.61727911e-18)
(78.52429853 18.56835708 0)
(69.63805004 8.587281287 2.353542093e-18)
(89.8381748 -9.584315231 3.753993242e-23)
(90.69488513 -9.277898452 6.447763593e-19)
(91.04873811 -9.565668003 0)
(74.5911833 -10.7636056 1.845269801e-18)
(78.54868773 -9.405481449 1.141833356e-18)
(78.80281822 -6.135506931 -1.176513908e-18)
(78.72485517 -9.064784211 1.008998815e-18)
(74.67763105 -9.780118993 -2.139902312e-18)
(80.97307334 -8.046633463 9.593154688e-19)
(79.13790699 -8.899333342 -9.867571069e-19)
(79.55724891 -6.279193332 8.771358205e-19)
(70.6108306 0.09116975037 -3.123738986e-18)
(64.00928639 -5.943695795 0)
(57.44700581 8.439270896 0)
(73.81768072 -9.690549962 1.475803225e-18)
(65.41755606 -6.989365646 -1.466876405e-18)
(71.6291931 -1.500556279 0)
(64.48890956 -8.599830918 0)
(73.76330321 -10.59729629 6.16370755e-19)
(84.79725733 -6.713572612 6.535800395e-19)
(83.00491344 -7.112861479 1.971246877e-18)
(84.87879778 -6.7512855 0)
(82.96441318 -6.50308648 9.641229313e-19)
(82.22596158 -7.347725712 -1.968291673e-18)
(81.12972268 -7.941686788 2.920803243e-18)
(82.94659085 -7.104702925 0)
(82.33269923 -7.273067301 3.929237933e-18)
(83.24939522 -6.503783069 0)
(87.38330279 -7.872261711 1.847866697e-18)
(87.44705114 -7.900690719 -6.16950918e-19)
(86.12663384 -7.418428193 6.410244793e-19)
(86.21482994 -7.465579302 0)
(88.89684223 -8.857965065 0)
(88.93676979 -8.899895518 -1.503863663e-19)
(88.25756323 -8.27683754 -5.792045183e-19)
(88.30170623 -8.305843704 5.7635037e-19)
(91.17258614 -9.665077048 1.245685421e-18)
(89.55550902 -9.566128538 5.983268395e-19)
(89.59085769 -9.612205146 -6.050467002e-19)
(66.42107225 26.01021409 0)
(55.08028075 11.85615631 -3.34541945e-18)
(88.42903499 -8.262570757 -1.079209766e-21)
(88.99311075 -7.9400096 3.835642796e-21)
(89.30552467 -8.155186679 -1.369571492e-18)
(88.54622066 -7.673654694 7.413871967e-22)
(88.88523594 -7.871732439 -1.393183301e-18)
(88.38175907 -8.235148915 -5.631444054e-19)
(90.24823459 -8.912548641 4.243964152e-21)
(90.5818198 -9.184349957 6.479206859e-19)
(89.79657078 -9.536032756 -5.728448648e-19)
(87.62567187 -7.815340828 0)
(88.05264008 -7.414287679 0)
(88.42775089 -7.608260662 0)
(87.29882486 -8.199229204 0)
(87.16502561 -8.125074396 6.885591064e-19)
(87.68593946 -7.991640394 1.234457113e-18)
(89.11161395 -8.860901657 0)
(89.81979846 -8.561193135 6.719870362e-19)
(90.13914539 -8.823092528 -6.625703193e-19)
(89.40745877 -8.232236376 3.941433321e-21)
(89.71539307 -8.476154626 4.141070763e-21)
(89.06755761 -8.817038085 0)
(88.72464381 -8.679227438 0)
(87.68166699 -8.72591368 0)
(87.6361762 -8.568075424 1.344304342e-18)
(87.24337027 -9.226195345 -1.453467822e-18)
(87.1690077 -9.08617956 -2.716102208e-18)
(89.05969999 -9.081772089 0)
(88.06532612 -8.171193757 0)
(87.48162195 -8.306961462 -7.147239876e-19)
(87.34778514 -8.227340999 -7.14203657e-19)
(87.6254327 -8.534018859 -1.333027014e-18)
(87.5706816 -8.466902328 0)
(88.47138618 -8.415928101 -7.502474013e-23)
(89.38865008 -9.406317559 -5.80850719e-19)
(87.48123001 -9.401676397 -1.463289872e-18)
(87.28588268 -9.285513795 7.358415859e-19)
(87.62050794 -9.805240578 -9.149967568e-19)
(89.72043327 -9.838194154 0)
(79.93537722 -8.642826445 -8.789175227e-19)
(80.22376634 -8.52389508 3.011361376e-18)
(56.36195591 -0.1498081815 -7.29190283e-18)
(57.71172837 -2.527326432 1.799622879e-18)
(76.54994432 -10.1793866 4.590412868e-18)
(77.10549149 -9.948588465 -6.959219929e-18)
(77.30787165 -9.499051036 9.925050789e-19)
(77.37999922 -7.664376672 1.665017503e-20)
(78.8547289 -7.704807414 -9.446026456e-19)
(74.95145601 -7.244807138 0)
(76.82300559 -7.609918438 -2.015431967e-18)
(76.74661148 -9.631065303 -9.760093894e-19)
(80.41833643 -8.357640011 -2.49206118e-18)
(80.6333792 -7.517246115 -8.219938814e-19)
(81.36811105 -7.36100581 -9.517349672e-19)
(79.28307551 -7.687485935 -9.137117315e-19)
(80.34660024 -7.56625953 8.377707453e-19)
(80.12275293 -8.451230258 0)
(70.66311213 -9.282001011 1.297344216e-18)
(71.82993368 -6.141746135 0)
(74.20785144 -7.044683282 5.821694162e-19)
(69.03342386 -10.40799926 0)
(70.43651617 -10.58150079 0)
(83.34552616 -7.13642141 2.20027684e-21)
(84.09116124 -6.965449491 8.869312869e-19)
(84.26581913 -7.019541538 -5.318436183e-19)
(83.74175439 -6.919526534 0)
(84.00969801 -6.952781181 -7.969073612e-19)
(83.2620507 -7.152945114 2.394105254e-21)
(84.55335974 -7.197767121 7.128031503e-19)
(84.7411786 -7.360124176 -1.456288331e-18)
(84.31404111 -7.052011106 7.013504762e-19)
(84.49348256 -7.156165574 7.101649974e-19)
(81.82164104 -7.556340571 2.960628965e-18)
(82.31494579 -7.121122598 7.662729105e-19)
(82.75880531 -7.012166804 1.54055304e-18)
(81.57827035 -7.310099143 7.627046395e-19)
(82.14758328 -7.165520795 -7.582946369e-19)
(81.67665151 -7.645171296 9.865838376e-19)
(82.68523273 -7.188466974 0)
(83.34685081 -6.924439471 7.861519319e-19)
(83.64995696 -6.914082231 0)
(82.88913195 -6.982937095 7.721478965e-19)
(83.23731248 -6.932182544 -7.806233502e-19)
(82.57467785 -7.199793247 0)
(86.35585816 -8.044629932 6.901739552e-19)
(86.52648672 -8.101045424 0)
(86.11284378 -8.043541639 5.763470434e-19)
(86.30631421 -8.037261622 -6.828857551e-19)
(86.78654567 -8.141962341 7.21328727e-19)
(86.90162487 -8.219677207 -2.207996691e-18)
(86.59103633 -8.114078621 7.024076007e-19)
(86.74957938 -8.129960584 -4.292554301e-18)
(85.1863399 -7.654088673 7.463041667e-19)
(85.47679574 -7.780395384 7.606708124e-19)
(84.81484121 -7.426008926 -2.199473287e-18)
(85.08933519 -7.605426275 7.427889095e-19)
(85.93555766 -7.94467957 7.733699652e-19)
(86.06725984 -8.022554014 -6.666357019e-19)
(85.57277829 -7.816682529 -1.535176906e-18)
(85.85256981 -7.914367385 -7.764780093e-19)
(87.85741004 -8.9192918 0)
(87.71946538 -8.789932224 -6.931735528e-19)
(88.76560745 -8.725596559 0)
(86.80004223 -8.760536361 0)
(86.97120482 -8.875897636 1.594639576e-18)
(86.74993572 -8.501272314 -1.549281942e-18)
(86.75607556 -8.682290555 0)
(86.97027392 -8.903412408 1.86855061e-18)
(89.03038661 -9.030256108 0)
(87.26926211 -9.042133967 6.211550727e-18)
(87.85771251 -8.957950539 -3.598033411e-19)
(87.43117971 -8.399437921 -5.393740683e-19)
(87.5162902 -8.343343889 2.067025965e-18)
(88.1152584 -8.202923028 0)
(87.09651939 -8.361013445 -3.401806836e-18)
(86.59943173 -8.385042608 -8.865413706e-20)
(86.94947786 -8.249994837 2.222804935e-18)
(87.06355785 -8.330482885 3.831750743e-19)
(86.71382629 -8.422565917 7.654961518e-19)
(86.75119263 -8.471384721 1.544138203e-18)
(86.6081486 -8.388233733 -1.484584598e-18)
(86.6906745 -8.411204427 -7.650516295e-19)
(88.43145781 -8.387461854 1.16239211e-18)
(87.5450994 -8.450608312 -1.93925261e-18)
(87.45290542 -8.416546137 6.237977597e-19)
(87.6207063 -9.488198207 1.107765167e-18)
(87.53156594 -9.422624067 7.359582688e-19)
(89.43509699 -9.445019661 5.873301271e-19)
(89.69075815 -9.775830884 -6.798880677e-19)
(87.59963967 -9.731100875 0)
(87.62897062 -9.51818846 -1.855503484e-18)
(86.41598865 -7.347916669 8.230201377e-19)
(86.88784618 -6.836224624 -1.517503023e-18)
(87.35257273 -7.071794311 1.227517926e-21)
(86.23947175 -6.476580774 7.914745295e-19)
(86.72832661 -6.750541995 7.66571159e-19)
(86.24318368 -7.266497073 0)
(87.50082166 -7.144422431 -2.209187961e-18)
(87.9205047 -7.348807868 7.270143237e-19)
(87.49580916 -7.765395669 5.892039669e-19)
(87.11273438 -7.781905438 0)
(86.64806468 -7.994096805 0)
(86.4344252 -7.961130809 0)
(86.36794901 -7.937596054 0)
(86.15434684 -7.861024453 1.798347321e-19)
(86.5640206 -7.606503086 0)
(79.37710147 -8.964949613 0)
(75.32518301 -10.64927436 -5.107044082e-18)
(74.22261184 -11.04629215 -1.802969844e-17)
(78.08240637 -9.574755408 -2.303977996e-18)
(78.28569685 -9.209782544 2.993379273e-18)
(78.38310429 -8.715324806 -1.89781198e-18)
(78.81991968 -8.605480082 -9.524238756e-19)
(80.82629577 -8.171990197 -8.652195637e-18)
(80.98087709 -7.915948118 8.151216606e-19)
(81.17987628 -7.833666846 7.885363938e-19)
(79.22614748 -8.484804694 -1.327017086e-20)
(79.59646803 -8.360747451 -9.580397017e-19)
(79.50988644 -8.722358756 1.005604442e-18)
(68.3569454 -3.632564203 1.440677436e-18)
(70.98583345 -5.567828995 1.306561794e-18)
(69.42486487 -8.97286399 -1.277825101e-18)
(66.08250255 -9.472426951 0)
(65.58119092 -11.75283223 1.017328062e-17)
(63.5928795 -10.26810395 8.410744627e-19)
(73.5089771 -11.19685163 6.094444709e-18)
(72.59616039 -11.4268132 2.559595817e-18)
(72.80612634 -10.60704632 -2.561660122e-18)
(83.27082706 -7.096274188 -7.084575531e-18)
(83.63208181 -7.100807177 0)
(83.58962332 -7.121711365 0)
(83.36409031 -7.075331099 8.781319324e-19)
(83.44579817 -7.085766035 -4.425535141e-18)
(83.07720886 -7.1285027 1.972614596e-18)
(83.80213993 -7.354180762 3.635689156e-18)
(83.83684094 -7.432188002 9.085972078e-19)
(83.57773274 -7.144189883 0)
(83.61107884 -7.164121711 0)
(82.09002147 -7.427107183 0)
(82.3584625 -7.338361842 -8.430271034e-19)
(82.4914582 -7.27903217 -3.576503015e-21)
(81.37188423 -7.759752918 -8.205944044e-19)
(81.56301805 -7.68837321 -1.649745726e-18)
(81.31222423 -7.847676861 4.938012539e-18)
(82.88583555 -7.118458596 0)
(83.2091472 -7.085315296 3.386115164e-21)
(83.28841938 -7.072769983 -8.731357457e-19)
(82.60832982 -7.221609771 -4.24301704e-18)
(82.70805878 -7.179476521 -8.505060693e-19)
(82.41040664 -7.226447583 1.969245206e-18)
(86.89223214 -8.059040108 -6.648387249e-19)
(86.7091234 -8.006516428 0)
(87.1825529 -7.810545017 0)
(87.629232 -7.962303577 6.172942965e-19)
(87.11979916 -8.108878002 1.368484593e-18)
(86.95479517 -8.073821369 -6.682948323e-19)
(85.6977124 -7.693313569 -1.45208014e-18)
(85.41450221 -7.564393212 0)
(85.85956464 -7.294045653 6.432722416e-19)
(84.50846729 -7.880563075 1.810416687e-18)
(84.60506134 -7.91514525 0)
(83.89205068 -7.534553643 1.825412784e-18)
(83.98385965 -7.630107397 -9.136397076e-19)
(84.92255798 -8.082667735 1.619156769e-18)
(84.70005514 -7.946464396 1.806851667e-18)
(84.7928892 -7.974539234 0)
(86.47895054 -7.567025197 0)
(86.06830618 -7.831414946 -7.304964915e-19)
(85.79185523 -7.730999432 7.287617455e-19)
(87.65949752 -8.663503638 0)
(88.16541415 -8.676213339 -1.723598211e-21)
(88.19411584 -8.729295809 0)
(87.20722069 -9.177463285 -2.167544266e-18)
(88.25230328 -9.232785644 3.029846734e-18)
(88.29162929 -9.275761733 1.227988955e-18)
(88.20475969 -9.136658759 5.872319184e-19)
(88.21636238 -9.189577487 -1.190204078e-18)
(87.16932314 -9.132494707 7.076874514e-19)
(88.00705141 -9.991086021 1.33870639e-18)
(88.03233852 -10.02036836 1.362423242e-18)
(87.41689533 -9.376162685 -7.315275134e-19)
(88.44039275 -9.409244541 6.273720629e-19)
(88.4938409 -9.440059598 0)
(88.33384756 -9.323476249 0)
(88.38420362 -9.370543647 6.218843893e-19)
(87.34586486 -9.339371968 2.198281505e-18)
(88.09805761 -9.948639229 0)
(88.00721485 -9.967849461 0)
(88.69083306 -9.884732609 3.463086663e-19)
(88.24854442 -9.916845561 -2.585935243e-19)
(87.27363776 -9.845508615 -1.347589818e-18)
(79.66787228 -8.776111204 5.634862995e-19)
(80.40787569 -8.353036208 0)
(48.0365593 0.9199794337 0)
(50.00130395 -2.745434514 4.014323559e-18)
(58.07749898 -11.09997505 0)
(60.44960278 -11.77410847 0)
(52.63630776 -5.89061474 -2.200896496e-18)
(55.40088462 -9.605304 4.713066547e-20)
(52.87295153 -10.5350793 7.388526901e-18)
(75.95264587 -10.42446067 4.487563147e-18)
(77.61155778 -9.744302538 0)
(80.51498578 -8.083305039 -9.083448046e-19)
(80.76292891 -8.002670785 1.710884571e-18)
(80.63089698 -8.290073042 6.446090026e-18)
(79.83059867 -8.567849594 0)
(79.92733835 -8.248721974 0)
(80.22882429 -8.155892839 0)
(68.78753083 -12.17433795 0)
(67.31366671 -12.17703841 0)
(67.57018404 -10.05300036 6.601326636e-19)
(62.72103832 -12.14162278 -2.132413505e-18)
(64.65974508 -12.5206252 -1.036592738e-20)
(71.7059168 -10.62396966 0)
(71.5089432 -11.71079362 0)
(70.2147406 -11.99438266 0)
(83.70191763 -7.10671285 0)
(83.76805475 -7.104217952 4.819084098e-22)
(83.40205383 -7.106358953 -5.98561377e-19)
(83.16380203 -7.147040625 -4.936411912e-19)
(83.53390186 -7.098176963 2.117595405e-21)
(83.62487331 -7.106362711 0)
(83.73612011 -7.250456522 2.713122311e-18)
(83.77000845 -7.294865409 0)
(83.65703848 -7.18681004 1.793558193e-18)
(83.69872737 -7.215396062 -2.706948559e-18)
(82.07734883 -7.457959145 -1.681190847e-18)
(82.2198923 -7.394707581 -3.365798689e-18)
(81.95265525 -7.488829987 1.976988809e-18)
(81.50350104 -7.74755674 -9.936072881e-19)
(81.74965454 -7.611950073 6.232543875e-21)
(81.92247809 -7.532310632 1.672441647e-18)
(83.00910399 -7.128822087 3.454356727e-18)
(83.1153035 -7.108452683 1.989522421e-22)
(82.79807299 -7.154906566 0)
(82.4846618 -7.205323633 0)
(82.80267416 -7.154705823 -1.715679557e-18)
(82.90239833 -7.141347011 8.634778204e-19)
(86.40687695 -8.061058688 0)
(85.7179617 -8.06565293 1.63867318e-18)
(85.67919235 -8.048330757 -8.178921272e-19)
(85.83691026 -8.110652702 0)
(85.77079478 -8.090526302 0)
(86.46384642 -8.081840606 1.393620136e-18)
(86.18061884 -8.047471653 -1.338835416e-18)
(85.53968028 -8.08459658 7.954541831e-19)
(85.47979215 -8.10482868 -1.427525409e-18)
(85.6464013 -8.044097606 -2.133653282e-21)
(85.6028158 -8.058453422 2.421787493e-18)
(86.24931389 -8.040795301 0)
(86.82163837 -8.162186677 7.245927928e-19)
(86.10964046 -8.13656071 0)
(86.0880707 -8.116682489 8.229727863e-19)
(86.17298501 -8.202081513 1.654176564e-18)
(86.13615047 -8.165964212 0)
(86.85915439 -8.188836676 -2.192148073e-18)
(86.65200737 -8.121262545 -2.1224478e-18)
(85.97405799 -8.119475348 -8.163487231e-19)
(85.90806959 -8.119219951 -8.170889537e-19)
(86.06427806 -8.108374569 1.64194151e-18)
(86.02753389 -8.112303446 8.193129721e-19)
(86.7054082 -8.124900066 7.098349108e-19)
(84.31083805 -7.800047266 -1.808379349e-18)
(84.41003068 -7.842919247 -9.049421938e-19)
(85.28316369 -7.699467791 1.503997748e-18)
(84.95516743 -7.780903919 -1.577207562e-18)
(84.8558343 -7.737243279 2.363256463e-18)
(85.1531665 -7.857459098 0)
(85.05458982 -7.820696512 0)
(85.38014929 -7.741497692 0)
(84.09904196 -7.697626988 1.820938901e-18)
(84.20954598 -7.751066207 9.050748865e-19)
(85.03874122 -8.051393588 -9.482485833e-19)
(85.10424963 -8.063251459 -1.090556112e-18)
(86.01586154 -7.983412227 7.400517867e-19)
(85.69079397 -8.051688038 0)
(85.60498566 -8.016652881 1.246068368e-18)
(85.47125701 -8.109753948 -6.335520596e-18)
(85.49869707 -8.089569701 2.478883926e-18)
(86.03782559 -7.99888723 3.47667139e-18)
(85.66770867 -7.850540691 -2.316502006e-18)
(85.34643237 -7.923426391 2.413678364e-18)
(85.25058134 -7.891715473 8.00500105e-19)
(85.53107064 -7.98444829 -8.169408348e-19)
(85.43970421 -7.954252663 -2.431212302e-18)
(85.76121064 -7.882792809 7.747887289e-19)
(84.88207741 -8.002556972 1.80753881e-18)
(84.97020293 -8.027438595 2.277634382e-18)
(87.81861057 -8.883333731 0)
(88.31921184 -8.876607316 6.757527934e-19)
(88.35816694 -8.917734681 6.768410173e-19)
(88.23106214 -8.783698023 6.647644964e-19)
(88.27489499 -8.833241542 -2.017146103e-18)
(87.77003276 -8.842545677 2.097294755e-18)
(86.86718329 -8.813922444 0)
(86.92817713 -8.849090521 0)
(86.74598676 -8.543939863 0)
(86.74274717 -8.601872136 0)
(86.95930186 -8.917606199 -1.200819361e-18)
(86.59293676 -8.943511935 1.429689532e-18)
(87.43940732 -9.003485791 -6.554977072e-18)
(88.31422625 -9.027126885 1.838076603e-18)
(88.24367148 -9.073882995 -5.866196333e-19)
(88.37909932 -8.957791923 -6.805249223e-19)
(88.39484009 -9.010255863 0)
(87.86620866 -8.999857355 3.584554378e-19)
(86.77078833 -8.364532098 0)
(86.05582856 -8.322955026 -5.998801383e-18)
(86.34426006 -8.31275247 2.025246511e-18)
(86.66112682 -8.379749087 1.305725889e-18)
(86.99818864 -8.277022689 2.990127272e-18)
(86.27107469 -8.258388469 -1.661971675e-18)
(86.22106209 -8.234006009 -1.658818756e-18)
(86.33018551 -8.301853779 0)
(86.31572909 -8.278494167 1.679645057e-18)
(87.04400533 -8.302157059 -2.273520768e-18)
(86.73333118 -8.435116307 -1.408999518e-21)
(86.74609601 -8.45028271 -2.310210502e-18)
(86.63861184 -8.393247601 7.573310697e-19)
(86.66619212 -8.401173942 1.522923411e-18)
(87.60003979 -9.464793748 7.356336764e-19)
(88.60936235 -9.524574916 -2.591208093e-18)
(88.63521955 -9.557993989 6.544218759e-19)
(88.53946552 -9.467413755 1.274059404e-18)
(88.57751679 -9.494925345 6.408342155e-19)
(87.57009386 -9.443186406 -1.468983716e-18)
(87.61677762 -9.633218206 0)
(88.67795011 -9.714823361 0)
(88.66689083 -9.797462307 1.725937851e-19)
(88.65455616 -9.597825534 -6.596859026e-19)
(88.66678862 -9.649478493 6.702985838e-19)
(87.62480781 -9.566110124 0)
(99.64089696 1.00467603 -1.442608409e-20)
(99.56669879 1.34903844 6.768760833e-21)
(99.85433649 0.8284756118 6.763150297e-21)
(99.537929 1.479289084 -2.02571047e-20)
(99.48718437 1.912461388 -6.185158238e-21)
(99.83266812 1.155629344 -3.658373702e-22)
(99.47047557 2.067863779 5.689204289e-21)
(99.4883041 2.537032035 0)
(99.83973412 1.51463038 4.504450852e-21)
(99.49946141 2.689521494 -5.602467253e-20)
(99.61234945 3.106546336 6.038595557e-20)
(99.89288781 1.831323799 -1.612919224e-21)
(99.65396609 3.222179895 1.481186275e-21)
(99.1569327 1.403109927 -1.547208481e-20)
(98.95856582 1.93114115 -1.497928427e-20)
(99.4387577 1.508531914 0)
(98.89455546 2.134844926 -3.661986516e-21)
(98.74903377 2.810600407 -2.819579173e-22)
(99.33168392 2.154240994 -1.865472771e-20)
(98.71707357 3.058315264 1.01506466e-19)
(98.70229646 3.854467059 4.62845588e-20)
(99.33076829 2.871760251 8.460549217e-20)
(98.7306174 4.128294399 -3.407914255e-19)
(98.95489063 4.916992875 -2.129776981e-19)
(99.48559488 3.543897519 0)
(99.07798351 5.1480437 5.638894725e-20)
(98.49366933 1.60499717 5.117737385e-19)
(98.11862156 2.2743968 -2.661702119e-19)
(98.76641767 2.047036997 2.992625794e-20)
(97.99635984 2.535228476 2.667915536e-19)
(97.65418584 3.457107459 0)
(98.51100263 3.001677375 2.347703309e-19)
(97.5578505 3.814621764 2.552805747e-19)
(97.38460524 5.041787909 4.910394505e-19)
(98.43091856 4.170320998 3.855752867e-19)
(97.38613394 5.496751978 -4.58926955e-19)
(97.682099 6.92473052 8.246199031e-19)
(98.71132552 5.399057343 -1.413619761e-19)
(97.90399998 7.383240325 -1.219657238e-18)
(97.74202721 1.509585712 0)
(97.12428488 2.216947986 -6.214977183e-19)
(97.8819639 2.299189351 0)
(96.90338076 2.508607597 6.272024235e-19)
(96.20419902 3.603384965 6.235560648e-19)
(97.32109051 3.557510664 -5.592431076e-19)
(95.96345143 4.063657906 0)
(95.31821125 5.785113225 0)
(96.94599464 5.290566823 -3.050351872e-20)
(95.16160127 6.492214624 1.15094783e-18)
(95.15966372 9.057035731 0)
(97.20522804 7.456634139 7.915889444e-19)
(95.42800796 10.01782379 -4.768686479e-19)
(97.03802379 1.059463964 -6.399272296e-19)
(96.12865464 1.691479243 6.938993344e-19)
(96.86654813 2.133615886 3.209767718e-19)
(95.78263145 1.958985845 0)
(94.57806049 3.001057623 -6.677409718e-21)
(95.79753858 3.526980032 -9.75191774e-19)
(94.1114846 3.455046881 7.639216955e-19)
(92.4856202 5.325428649 -3.094759601e-18)
(94.6668592 5.814844124 -1.250211295e-18)
(91.87447892 6.198439957 3.073079232e-18)
(90.1185526 10.28227239 3.365881891e-18)
(94.1999386 9.538023897 -1.046122393e-18)
(89.77647879 12.40822908 -2.189805583e-18)
(96.52648896 0.2834349933 0)
(95.37753462 0.6813601131 -3.88527151e-19)
(95.90686188 1.48065885 7.312160286e-19)
(94.92665883 0.8525700212 -4.099604941e-19)
(93.28153129 1.511411827 2.519804439e-20)
(94.19932578 2.709192504 -3.873878469e-19)
(92.60096405 1.792463512 -8.553524917e-19)
(89.91684785 2.915926942 0)
(91.74316587 4.923172064 8.35564859e-19)
(88.69872026 3.418232789 9.69157858e-19)
(82.11290878 5.49988828 -1.21503262e-18)
(88.31774592 9.972170835 -2.058718675e-18)
(84.5460123 10.56184028 1.000640937e-18)
(82.21130436 16.28458285 0)
(88.15156896 16.10765446 -7.505769163e-19)
(96.33444616 -0.7007048356 5.333754875e-19)
(95.07994365 -0.6222249179 0)
(95.25428667 0.3725591363 3.854028942e-19)
(94.59067568 -0.5860870495 0)
(92.82671298 -0.4792912977 0)
(93.07599928 1.034709776 8.82328735e-19)
(92.10823232 -0.4558356793 9.88478107e-19)
(89.37474433 -0.5408887421 4.371429126e-20)
(89.55828622 2.045038403 0)
(88.08147912 1.293351476 -9.735478534e-19)
(86.56946603 1.415756854 2.102625344e-18)
(86.75789943 2.705926401 -1.046299876e-18)
(80.04359268 2.895085522 -1.268109521e-18)
(78.20514812 2.810998868 2.004394167e-23)
(78.20569184 4.655145812 -1.318614914e-18)
(96.50985682 -1.729501189 -7.189887734e-19)
(95.29916383 -1.9402514 -1.999690481e-19)
(95.08632866 -0.9607846266 4.09851527e-19)
(94.83622138 -2.018997504 -4.224279367e-19)
(93.22031047 -2.333758594 0)
(92.85826572 -0.9704106593 6.668437701e-19)
(92.59043544 -2.48312171 -9.123664321e-19)
(90.3665469 -3.175803794 0)
(89.53991164 -1.299676145 -1.93320123e-18)
(88.77869799 -2.283042187 -9.703690243e-19)
(87.72555531 -2.664235713 -2.560116025e-19)
(87.29308618 -1.853438711 0)
(84.11357237 -4.050949484 1.078155878e-18)