/*--------------------------------*- C++ -*----------------------------------*\
| =========                 |                                                 |
| \\      /  F ield         | OpenFOAM: The Open Source CFD Toolbox           |
|  \\    /   O peration     | Version:  v2012                                 |
|   \\  /    A nd           | Website:  www.openfoam.com                      |
|    \\/     M anipulation  |                                                 |
\*---------------------------------------------------------------------------*/
FoamFile
{
    version     2.0;
    format      ascii;
    class       surfaceVectorField;
    location    "1.45";
    object      Uf;
}
// * * * * * * * * * * * * * * * * * * * * * * * * * * * * * * * * * * * * * //

dimensions      [0 1 -1 0 0 0 0];


internalField   nonuniform List<vector> 
5999
(
(99.99800793 0.008516912156 -2.174795835e-21)
(99.99202372 0.007745164705 6.449808109e-21)
(99.99710993 0.01998431491 -2.142178365e-21)
(99.98926528 0.02581231747 2.191727731e-21)
(99.99533827 0.03818494765 -4.268052646e-21)
(99.98296563 0.05320766281 1.291899642e-20)
(99.99795688 0.04261339219 1.310888295e-21)
(99.97181971 0.09587616976 -8.451286101e-21)
(99.98818072 0.09399251668 -1.41711123e-21)
(99.99713043 0.07668390062 2.046153222e-21)
(99.99898973 0.0456744315 1.005613997e-21)
(99.98630116 0.125211875 2.028802524e-21)
(99.99687336 0.07079544645 9.870950179e-22)
(99.99768425 0.05614514297 -1.027256229e-21)
(99.99616774 0.08899741556 9.870547021e-22)
(99.97921117 0.199058522 1.960546651e-21)
(99.99585851 0.1112270774 0)
(99.99568049 0.1353964408 -3.528719031e-21)
(99.97349534 0.2976676115 -3.528700666e-21)
(99.99515158 0.1637445823 -9.133073916e-22)
(99.99459054 0.195799913 3.072895746e-21)
(99.96690661 0.4257040225 3.317323549e-21)
(99.99411884 0.2312281239 4.078256464e-22)
(99.99381796 0.2691671385 -2.598003453e-21)
(99.96338193 0.5768849346 3.748303787e-22)
(99.99377203 0.3083445965 -2.567097581e-21)
(99.9940671 0.3469193014 4.293053714e-22)
(99.96668681 0.7302244194 -1.668692989e-21)
(99.99473307 0.3825490379 2.333457688e-21)
(99.99552753 0.413118939 1.90452826e-21)
(99.97852549 0.8496205026 -8.184198637e-22)
(99.9965309 0.4361469039 0)
(99.98158145 0.02377997484 1.076144418e-20)
(99.96967233 0.01300934977 3.204926214e-22)
(99.97264799 0.05627647132 1.714696781e-20)
(99.95879885 0.04400147381 -1.507222651e-20)
(99.95584813 0.1073824384 8.960381313e-21)
(99.93513386 0.09210882011 -2.328914461e-20)
(99.9482498 0.1676114454 -1.528150876e-21)
(99.89484352 0.1685368409 4.4834845e-20)
(99.91221697 0.2117952943 -9.855493842e-21)
(99.92385763 0.2143191692 -2.117405645e-21)
(99.94200228 0.2106496036 4.14961349e-21)
(99.96413541 0.1502817669 2.062235591e-21)
(99.94449276 0.2451449911 2.001108829e-21)
(99.92599081 0.2696246777 2.043405909e-21)
(99.87604611 0.3550210215 -4.141034447e-21)
(99.90832983 0.3427908491 -2.787958813e-23)
(99.91625303 0.3884929004 1.960854334e-21)
(99.88796596 0.4320814959 -2.288999389e-23)
(99.81702868 0.563317585 0)
(99.87764993 0.5013261986 0)
(99.84512086 0.5750098343 -2.432932178e-21)
(99.88798284 0.5708833333 -4.766754038e-21)
(99.87254207 0.6037390914 -7.080165675e-23)
(99.83715895 0.6971058493 -1.071994336e-20)
(99.86330703 0.6579955128 -3.68517435e-21)
(99.8344886 0.8746606909 2.905580105e-23)
(99.85849554 0.8224645402 -2.390183083e-21)
(99.79091152 1.010342522 -1.302689918e-20)
(99.82787879 0.9468165754 -3.179631393e-21)
(99.8099467 1.208546742 -5.781519658e-21)
(99.84259934 1.125727343 -5.479316426e-21)
(99.76337768 1.391537056 6.963093813e-22)
(99.80930066 1.293104515 -6.92252203e-21)
(99.81666867 1.564625944 -1.465621744e-23)
(99.8562499 1.440872461 -4.359758683e-21)
(99.7768975 1.791899344 -2.252741318e-21)
(99.8270534 1.649280028 -3.253043774e-21)
(99.86980454 1.863779139 -3.506621037e-21)
(99.91054906 1.693632555 -5.515036097e-21)
(99.84797684 2.118890667 -2.267251572e-21)
(99.8913307 1.930404025 -3.294067077e-21)
(99.95019137 0.03181279524 -2.58547919e-20)
(99.9396327 0.01356300731 -1.292254374e-20)
(99.9255752 0.07684556 -5.590786713e-20)
(99.91636665 0.0475640997 1.186388434e-20)
(99.88053199 0.1494616158 1.113667466e-20)
(99.86694455 0.1045508185 -4.731878922e-20)
(99.83504362 0.2539901131 2.854149622e-20)
(99.78603978 0.1981627016 5.139417105e-20)
(99.77881077 0.2775818855 -4.416934547e-20)
(99.8599723 0.2682907343 -8.4790593e-21)
(99.78444434 0.3063145666 -6.278946498e-20)
(99.80409804 0.3347696182 -4.244481748e-21)
(99.78290765 0.4496757592 -8.244254554e-21)
(99.75615558 0.4362275447 -4.107327564e-21)
(99.66715417 0.5242064609 2.883934822e-20)
(99.70098214 0.5601834393 8.080809151e-21)
(99.68108703 0.7210482324 -7.120968863e-21)
(99.6379541 0.7110391637 5.271890638e-21)
(99.51060953 0.8536056938 -4.059970925e-20)
(99.60247477 0.8613942253 2.821456603e-21)
(99.53744943 0.925284753 -1.763473271e-20)
(99.58954981 1.061130851 -7.213449846e-21)
(99.55583986 1.061687407 0)
(99.48109026 1.169976961 7.494869693e-21)
(99.52236432 1.177603134 -7.173686002e-21)
(99.47105581 1.568194471 3.477261515e-21)
(99.42155359 1.583139447 1.361157637e-20)
(99.32869805 1.742022984 6.7367125e-21)
(99.39117521 1.735305553 1.689259178e-20)
(99.39258053 2.199571441 -3.008021758e-20)
(99.32329902 2.243049407 -4.221282595e-20)
(99.22712508 2.45783666 -5.856969546e-20)
(99.31436472 2.419762303 -9.804238545e-21)
(99.4241705 2.870316773 -4.595879175e-20)
(99.33980661 2.961854731 2.426107543e-20)
(99.26092622 3.230798733 -9.542131346e-20)
(99.36770625 3.136405673 9.964678547e-21)
(99.60030082 3.452424214 -5.631952846e-21)
(99.51596351 3.614289587 -6.360095732e-21)
(99.48229229 3.918780428 1.076394779e-22)
(99.58799585 3.741355019 -1.70954379e-20)
(99.9120229 0.02820623849 2.596233829e-20)
(99.9130493 0.00763680488 -4.335559463e-21)
(99.86534168 0.07279228571 2.186763859e-20)
(99.87435195 0.03075935795 3.033288123e-20)
(99.78155702 0.1519368144 -8.687455264e-21)
(99.79239416 0.08102247702 -4.27986902e-21)
(99.67555084 0.2875025052 0)
(99.65949252 0.1701109744 6.633775293e-21)
(99.60912045 0.2858237454 2.013255511e-20)
(99.69421626 0.3279241912 -5.869399912e-20)
(99.59706798 0.329739533 1.513644866e-20)
(99.60586678 0.3908801705 0)
(99.53220983 0.5741154924 2.036261781e-22)
(99.51231192 0.5200495693 -3.327930474e-20)
(99.38198627 0.5958069653 -3.325691682e-20)
(99.40164031 0.6806154663 6.740041594e-20)
(99.30896088 0.9537867581 -1.00025675e-19)
(99.27277484 0.8783804508 3.739245129e-20)
(99.08460682 1.0108794 -6.695672744e-20)
(99.17244763 1.110502852 -3.335121375e-20)
(99.08154976 1.130769429 -5.4723278e-20)
(99.08143876 1.439777913 7.864136534e-21)
(99.04435578 1.39649374 1.561054907e-20)
(98.9250986 1.506404374 3.955086974e-20)
(98.96659727 1.563625138 7.798692564e-21)
(98.79287908 2.200216445 -9.394419911e-21)
(98.72892604 2.156047954 7.382312525e-21)
(98.58280638 2.320788206 -6.938908067e-20)
(98.65790473 2.38061804 -7.528355414e-21)
(98.59228792 3.167476261 5.060436966e-20)
(98.48947561 3.138708742 1.172111898e-19)
(98.329934 3.376774527 1.206840286e-19)
(98.45340822 3.419469586 0)
(98.59489848 4.30588546 -3.750801651e-19)
(98.44474391 4.326240359 -1.115048648e-20)
(98.30322855 4.657487166 -1.922786159e-19)
(98.4860057 4.639061882 -2.10105331e-19)
(98.96886974 5.410420625 2.818279352e-20)
(98.78453371 5.536012189 -7.080225732e-20)
(98.72776968 5.945674006 1.896016067e-19)
(98.94819543 5.794693361 0)
(99.88199593 0.009765393862 0)
(99.90385943 -0.005693310233 0)
(99.80971862 0.03729623662 4.395441127e-21)
(99.84845486 -0.0095047598 0)
(99.67993959 0.1014940684 1.117983956e-20)
(99.73196869 0.01501068961 -3.55391051e-21)
(99.50039509 0.2520334995 1.842442532e-20)
(99.53765455 0.07761617226 2.458058371e-20)
(99.43710683 0.2101231378 -7.394733698e-21)
(99.49998926 0.3103040374 2.606530743e-20)
(99.40111018 0.2679661916 2.093013523e-21)
(99.38090437 0.3575517939 -1.063108654e-20)
(99.22253599 0.5853524605 0)
(99.22669136 0.4942823941 -2.18998668e-20)
(99.05974653 0.5391675936 -1.800482205e-20)
(99.04312677 0.6681283727 4.466927688e-21)
(98.83773515 1.017644168 0)
(98.82818211 0.8882846671 4.466449444e-21)
(98.58048501 0.9719614045 -4.623155326e-21)
(98.62377397 1.167265229 2.223930454e-20)
(98.52025199 1.158084103 5.766476292e-21)
(98.40022343 1.608542308 2.548919627e-19)
(98.37703313 1.515533379 0)
(98.21187952 1.606096688 0)
(98.23757842 1.715469958 1.288119555e-19)
(97.86683414 2.555510792 1.390032043e-19)
(97.8086131 2.438531128 5.440079201e-21)
(97.60280119 2.578338898 -2.681309759e-19)
(97.66481292 2.725897004 4.220049919e-19)
(97.37780613 3.878583623 2.678486265e-19)
(97.25955724 3.749325116 -1.389792768e-19)
(97.00449706 3.988945118 -6.516088814e-22)
(97.14434865 4.14988823 7.143686191e-20)
(97.15647815 5.649519788 -2.295083014e-19)
(96.9358151 5.54452083 -1.528502285e-20)
(96.66581774 5.941019446 0)
(96.93993486 6.069080076 5.822274119e-20)
(97.679613 7.693700415 -3.879817112e-19)
(97.3274206 7.729184048 6.185615256e-19)
(97.17964376 8.328276473 3.120734135e-19)
(97.61791511 8.260535023 -8.473428679e-20)
(99.87664047 -0.02479797226 0)
(99.92727398 -0.02644340119 2.155044385e-21)
(99.77871483 -0.03244434269 -8.796994962e-21)
(99.85575148 -0.07310086173 -2.172179862e-21)
(99.601605 -0.006604406942 9.157908599e-21)
(99.70776742 -0.0945565738 -4.360170276e-21)
(99.34079679 0.1096532829 1.19713471e-20)
(99.45849647 -0.08143903287 3.638010986e-21)
(99.28777302 0.04601483922 -2.917799158e-23)
(99.31464662 0.200696448 -8.864475312e-21)
(99.21817295 0.1104523041 -8.988883528e-21)
(99.16542717 0.2122042807 0)
(98.90084959 0.4548766021 -1.800437758e-20)
(98.94475358 0.3348143683 0)
(98.75279786 0.3325221392 -1.253121391e-22)
(98.67990717 0.4929769208 -9.020663696e-23)
(98.32013435 0.8713247391 9.320985452e-21)
(98.36431629 0.6982323804 1.396410523e-20)
(98.07123556 0.7143483496 1.886464582e-20)
(98.04209341 0.997956782 -1.541308473e-20)
(97.94565764 0.9299190639 -3.300014873e-21)
(97.6491488 1.469580405 1.513918902e-19)
(97.66060486 1.337676711 1.522128361e-19)
(97.46652336 1.379012544 2.710368928e-19)
(97.44751944 1.534502858 1.501498889e-19)
(96.75459057 2.467210925 3.126461381e-19)
(96.73949644 2.280050461 1.598757859e-19)
(96.47043598 2.36675823 -6.826939317e-19)
(96.48133995 2.588753085 4.778171137e-21)
(95.73778946 4.029007081 6.579258512e-19)
(95.65635602 3.785983618 2.449799013e-19)
(95.27599401 3.937360761 6.487525653e-19)
(95.370318 4.280394951 -1.416277564e-19)
(94.79792835 6.542000155 1.201927598e-18)
(94.55024235 6.200586199 -7.830833405e-21)
(94.03723234 6.593821418 1.331687041e-18)
(94.34259094 7.021904894 7.73234095e-19)
(94.94024372 10.36404032 2.957583434e-19)
(94.31582268 10.11551459 -2.973318954e-20)
(93.83193615 11.04512154 1.10488977e-18)
(94.67787634 11.30742528 5.411306437e-19)
(99.91196695 -0.07403461443 -1.644856547e-23)
(99.99712614 -0.05365498618 8.672741299e-23)
(99.79169987 -0.1341195659 2.261318892e-21)
(99.91249554 -0.1566401235 -1.050249305e-22)
(99.57351499 -0.1674449885 -1.182780797e-20)
(99.73936344 -0.2412433856 1.801780221e-21)
(99.23013853 -0.1052998663 -1.06541938e-20)
(99.44530668 -0.2996490834 -1.796360996e-20)
(99.20559935 -0.20094318 -1.534657132e-20)
(99.16323598 -0.00530864261 -8.370635001e-21)
(99.09997708 -0.1409657323 -3.356065923e-21)
(98.99994437 -0.03809662931 3.340761788e-23)
(98.62421264 0.1734445539 1.363485489e-20)
(98.7197966 0.04050430952 1.390547182e-20)
(98.52234353 -0.01965366928 6.859907094e-21)
(98.38171352 0.1485509758 2.371003831e-20)
(97.85508614 0.498886729 -1.897330401e-20)
(97.9766078 0.2944631356 -1.43161827e-20)
(97.67922809 0.2275178598 -2.395482446e-20)
(97.53893533 0.5341405308 -9.195905738e-20)
(97.46689475 0.4325609232 -6.830820766e-20)
(96.96189886 0.9762011425 -4.040477436e-19)
(97.02588162 0.8191452842 -7.564278712e-21)
(96.81717732 0.8007657017 -1.673068029e-19)
(96.73366023 0.9795547356 -8.611236319e-20)
(95.65512745 1.844867311 7.012175517e-21)
(95.71748088 1.60622197 3.713174828e-19)
(95.41427693 1.599800852 1.643991181e-20)
(95.32641505 1.87378963 7.620148054e-19)
(93.89115053 3.29642505 3.827447866e-19)
(93.93727728 2.921906165 -1.946020431e-19)
(93.4667054 2.945045761 1.038001873e-19)
(93.3836279 3.383373523 0)
(91.41219855 5.98607684 1.545107051e-18)
(91.35745422 5.342212007 4.367075755e-19)
(90.5199427 5.469718973 1.11105225e-20)
(90.54624236 6.301460457 -3.968834722e-19)
(88.60287643 12.34294748 -1.108460211e-18)
(87.88657098 11.14469971 -1.038119909e-18)
(85.9991177 12.4851841 -1.177319043e-18)
(86.2669501 11.66434194 0)
(87.68976733 13.83606466 5.14275163e-19)
(86.69169808 13.89372813 -2.567966838e-19)
(100.0018236 -0.1350861704 1.722955314e-23)
(100.1245587 -0.08546436285 -3.19535676e-21)
(99.86526171 -0.2610038166 -5.871735775e-22)
(100.0313005 -0.2542604096 1.390222899e-21)
(99.61764512 -0.3704668126 -4.599530302e-21)
(99.8426962 -0.4137374006 -3.027532961e-21)
(99.20807588 -0.3908617747 9.480211108e-21)
(99.52116932 -0.5584178782 -1.045637404e-21)
(99.22120817 -0.51069354 9.990331261e-22)
(99.09371064 -0.2971568394 4.655614401e-21)
(99.0821042 -0.4651501539 9.629243257e-21)
(98.93402702 -0.3784306454 6.803665525e-21)
(98.45515102 -0.2403212429 -2.312764622e-21)
(98.60907104 -0.3655528743 3.60294436e-21)
(98.42702095 -0.4829569987 2.378096424e-21)
(98.21856963 -0.3355439137 7.212700641e-21)
(97.55543047 -0.08898781148 -2.476972148e-21)
(97.75721148 -0.2860128486 -2.747110416e-23)
(97.49100093 -0.4386595533 1.105792353e-22)
(97.23065179 -0.1457624683 -2.454955811e-19)
(97.20138584 -0.2853841883 2.158479073e-19)
(96.48539921 0.1666010175 0)
(96.61150916 0.01135652504 2.052341782e-20)
(96.41412549 -0.07208754298 0)
(96.26023233 0.09689979942 -9.244679802e-20)
(94.85627761 0.682124584 -4.085388746e-19)
(95.01972739 0.4425594922 -1.194940639e-20)
(94.73396838 0.3320304902 -6.17684423e-19)
(94.52984419 0.5899991316 -4.146032019e-19)
(92.48300394 1.521160872 -8.640732746e-19)
(92.72358095 1.143344594 7.429967921e-21)
(92.28520462 0.9668077207 -8.94673389e-19)
(91.96741278 1.370700302 -4.399219236e-19)
(88.4860757 2.892621185 3.865575985e-22)
(88.92612034 2.211084058 -4.813408759e-19)
(88.18570401 1.831137069 -9.730555907e-19)
(87.52302407 2.543892863 -1.009260399e-18)
(80.31395172 5.220823883 6.222690147e-19)
(80.93950866 4.329713262 1.788391033e-18)
(80.0894488 3.66295192 -2.071331808e-20)
(79.16362113 4.587210643 -3.204564982e-20)
(100.156209 -0.2032703026 -1.822322919e-21)
(100.3163059 -0.1194123248 1.009747955e-21)
(100.0112938 -0.4031257753 -1.06326149e-21)
(100.2198553 -0.3583718724 -7.486697767e-22)
(99.74931687 -0.5985228171 5.453302897e-22)
(100.027062 -0.5977413318 -2.681320665e-22)
(99.29671661 -0.7193426946 6.17589099e-22)
(99.69821608 -0.8354507422 9.080566953e-22)
(99.35300691 -0.852931336 5.423634406e-22)
(99.13534799 -0.6467194608 1.581674428e-21)
(99.18679036 -0.8312963899 -1.553809667e-23)
(98.99577721 -0.7737596934 -1.554030667e-23)
(98.44223163 -0.7411049969 -2.373240891e-21)
(98.64976235 -0.8397260414 0)
(98.50234756 -1.007609571 -1.165899061e-21)
(98.23942308 -0.9032863962 -1.239425723e-21)
(97.48961834 -0.8099509025 2.399501068e-20)
(97.76107957 -0.9676032216 2.021070012e-20)
(97.55297129 -1.190007743 1.083238726e-21)
(97.18838646 -0.9540605367 2.769793843e-19)
(97.20992836 -1.112049946 -4.422706625e-19)
(96.34185523 -0.8319316218 -4.777708035e-20)
(96.52112885 -0.9587012064 -3.811233128e-19)
(96.36282861 -1.092727553 9.39627436e-20)
(96.14722498 -0.9640120168 -6.890767548e-19)
(94.60235379 -0.7707069894 -2.065033537e-19)
(94.84205132 -0.9569300679 -3.618837033e-21)
(94.63039965 -1.137745098 7.488105056e-22)
(94.33441807 -0.9530332454 1.095169531e-20)
(92.13411793 -0.7292254614 -8.130543609e-22)
(92.51026973 -0.9851562679 -1.545915086e-19)
(92.21010894 -1.263634039 -4.939247413e-19)
(91.77083076 -1.029807472 4.257573101e-19)
(88.34774275 -1.11028182 4.857213907e-19)
(89.00761507 -1.414034242 -1.246129563e-20)
(88.62678887 -1.908621933 4.789729153e-19)
(87.87937964 -1.69586053 9.752426912e-19)
(83.29569412 -3.389982615 1.143338397e-18)
(83.8957874 -3.376076137 -5.409248849e-19)
(83.84825564 -3.844281518 5.393790792e-19)
(83.30751833 -3.953872486 -5.755605363e-19)
(100.3798532 -0.2731477467 2.081159311e-21)
(100.5739722 -0.1528742357 1.019042937e-21)
(100.235248 -0.5486520644 3.112947357e-23)
(100.4797515 -0.4607995274 1.078391799e-21)
(99.97516571 -0.8315461705 1.062139062e-22)
(100.2939459 -0.7779615338 9.939911983e-22)
(99.5067844 -1.06068381 -1.534030744e-21)
(99.978008 -1.10702186 -8.721160794e-22)
(99.60584907 -1.195510435 7.131666545e-22)
(99.30424209 -1.020590606 -1.091071431e-21)
(99.42159338 -1.204121187 -5.51028029e-22)
(99.19817628 -1.185003121 -1.091002766e-21)
(98.60739926 -1.274886094 4.426874168e-24)
(98.85621627 -1.331358594 1.16582251e-21)
(98.75580926 -1.536315257 1.165832841e-21)
(98.45796087 -1.48859951 1.165811229e-21)
(97.67837995 -1.566714984 -2.019050071e-20)
(97.99968621 -1.662716149 0)
(97.86198608 -1.930282826 0)
(97.42809898 -1.777593942 -2.181474102e-19)
(97.49605293 -1.931670686 1.910577516e-19)
(96.55779293 -1.852852904 -4.937193317e-19)
(96.77531826 -1.932466467 -9.377044951e-20)
(96.66271714 -2.095106421 -1.343475153e-19)
(96.41864701 -2.019925141 -5.136950946e-19)
(94.90263351 -2.184221966 -4.213280913e-19)
(95.19337604 -2.298224846 -2.106445344e-19)
(95.0477496 -2.506720463 -4.185004361e-19)
(94.72707563 -2.40532909 -8.384429716e-23)
(92.69808304 -2.699826447 -4.421468478e-19)
(93.10831295 -2.827397901 1.364508805e-20)
(92.92396189 -3.118108693 8.757627728e-19)
(92.48189778 -3.020741338 2.350581906e-19)
(89.71070782 -3.791382205 1.334132095e-21)
(90.3061648 -3.867070678 4.552940628e-19)
(90.10222419 -4.286003963 4.60629387e-19)
(89.50375029 -4.270135553 5.798024956e-19)
(86.71094339 -5.832114851 -6.008572454e-19)
(87.03958713 -5.773359456 4.619832612e-19)
(87.02539986 -6.037615897 -9.128251286e-19)
(86.65727178 -6.064109001 -5.304694266e-19)
(86.76379076 -6.138336029 0)
(100.6717337 -0.3393897542 9.147012835e-24)
(100.8941467 -0.1834450927 2.689623275e-21)
(100.5353489 -0.6861397562 2.012943552e-21)
(100.8069088 -0.553938402 1.019450626e-21)
(100.2928808 -1.049524491 6.253492951e-23)
(100.6368508 -0.9394994239 -6.304126869e-23)
(99.8339759 -1.385159577 -2.056383309e-21)
(100.3546433 -1.35519699 -9.321643029e-22)
(99.96987908 -1.51212623 -4.973876717e-22)
(99.59933116 -1.384191924 -5.366267924e-22)
(99.7772246 -1.551494778 -1.068932511e-21)
(99.53479808 -1.573685664 8.954764812e-23)
(98.9445922 -1.785849283 0)
(99.21855409 -1.792022865 1.075774821e-21)
(99.17037403 -2.018395553 2.136956747e-21)
(98.85713541 -2.031318593 1.162880354e-21)
(98.09817743 -2.27267378 -1.194416065e-21)
(98.44612375 -2.298284576 -4.400901553e-23)
(98.38093393 -2.587195946 -1.193696669e-21)
(97.91138384 -2.525501174 1.29788298e-20)
(98.01653939 -2.662565412 -3.945056601e-20)
(97.08083544 -2.769839634 -3.507450716e-19)
(97.3144079 -2.801822809 3.267860111e-19)
(97.25001943 -2.974422536 8.606471116e-20)
(96.99482475 -2.950903622 3.616773011e-19)
(95.60767098 -3.380580034 1.946983641e-19)
(95.91100141 -3.428292965 2.158439101e-19)
(95.82875913 -3.639129352 3.982143984e-19)
(95.50508072 -3.606152528 3.876899766e-19)
(93.72125335 -4.208236339 8.275423571e-19)
(94.12271012 -4.245741407 8.773413258e-20)
(94.01729816 -4.522048195 4.111692701e-19)
(93.59762515 -4.508202499 5.182290153e-19)
(91.28337192 -5.514866912 4.142648957e-19)
(91.80584604 -5.50026117 8.081689362e-19)
(91.67589918 -5.863617728 -3.93004809e-19)
(91.15477256 -5.905149976 5.095763015e-19)
(88.92690528 -7.213120903 6.174484703e-19)
(89.17941829 -7.163904204 5.140618607e-19)
(89.15962534 -7.360092587 5.117996721e-19)
(88.880469 -7.377262739 -1.099242355e-19)
(88.95800033 -7.432969502 7.979494208e-19)
(101.0256667 -0.3971491569 3.700765381e-21)
(100.9037319 -0.8055598262 -9.9204545e-22)
(100.6897657 -1.236098567 -9.920131036e-22)
(100.2573884 -1.670653829 0)
(100.0025099 -1.708828205 7.660644189e-24)
(99.98297316 -1.906873142 2.03001613e-21)
(99.42848023 -2.229575976 -1.079311937e-21)
(99.71130639 -2.18399273 -1.171174485e-21)
(99.40324967 -2.487630016 1.15792406e-21)
(98.70369112 -2.86916996 -1.10303122e-21)
(99.05677509 -2.825171394 3.209770853e-21)
(98.5833139 -3.141527947 1.979529688e-19)
(98.71503416 -3.253681923 -1.993013533e-19)
(97.83074465 -3.51730994 -9.142390867e-20)
(98.06577818 -3.505040775 1.262397346e-20)
(98.04500909 -3.674462429 -8.036929549e-20)
(97.79335711 -3.696137459 -2.8299622e-19)
(96.57264257 -4.313280222 3.740492675e-19)
(96.87234291 -4.30476443 1.686827252e-19)
(96.84361138 -4.503908255 -5.683493724e-19)
(96.52917818 -4.527695627 1.73729967e-19)
(94.97641812 -5.332559632 6.092385027e-21)
(95.36241385 -5.303648946 3.653374317e-19)
(95.31826548 -5.561264434 -7.42732067e-19)
(94.91724439 -5.610482826 -1.209063701e-20)
(92.87461756 -6.791760926 3.79354202e-19)
(93.36759275 -6.721290108 -7.318404429e-19)
(93.29248359 -7.066217126 4.354717177e-19)
(92.78484343 -7.153555973 3.756506448e-19)
(90.68809157 -8.466153239 -5.389910111e-19)
(90.92588961 -8.434323157 -4.577254931e-19)
(90.91380719 -8.637117103 -7.237506763e-19)
(90.63167055 -8.635044149 -5.457741162e-19)
(90.70646099 -8.702992342 2.802511911e-19)
(83.3723076 -2.87164523 5.759721172e-19)
(82.67899272 -3.483446336 1.143066868e-18)
(82.70961674 -2.84176913 5.652917155e-19)
(86.72445902 -5.555113459 -1.079149817e-18)
(86.38206978 -5.613632947 2.417580343e-19)
(86.33071557 -5.859865027 -4.004782141e-19)
(86.44171536 -5.937170852 1.315172568e-19)
(88.94551172 -7.011645206 -3.122915029e-19)
(88.68627176 -7.065117959 -4.187537599e-19)
(88.64151057 -7.23389287 -3.892287453e-19)
(88.72214484 -7.288510629 -3.834848991e-19)
(90.70367892 -8.266797095 2.809835675e-19)
(90.46698968 -8.297602702 -1.87676583e-19)
(90.40989874 -8.46330671 1.032691098e-18)
(90.48303703 -8.530040995 -2.310269517e-19)
(81.3169005 5.755630233 -6.087033624e-19)
(79.58906897 6.353846105 -6.590712389e-19)
(80.86533295 6.732828458 1.513926478e-18)
(89.94521915 -3.352722028 -4.558581118e-19)
(89.08026377 -3.746990362 -9.470024671e-19)
(89.32726536 -3.23816622 -9.421505309e-19)
(87.05239483 -5.498032389 -1.599603792e-20)
(86.73583299 -5.264427897 2.022111555e-21)
(87.0897245 -5.224945174 -9.437264729e-19)
(83.97681639 -2.851879219 -1.105558854e-18)
(84.53694076 -2.895857126 -5.411543208e-19)
(84.43725773 -3.336142617 5.297520859e-19)
(91.42716124 -5.141635054 4.412691258e-19)
(90.74999074 -5.546701776 -8.49702573e-19)
(90.89047182 -5.139866605 9.970013235e-21)
(89.19762232 -6.966661106 -4.182671816e-19)
(88.96219799 -6.808009438 4.180409557e-19)
(89.23004617 -6.767662019 -4.233776351e-19)
(87.39129506 -5.457086005 9.265386561e-19)
(87.35593072 -5.717046033 4.610237361e-19)
(87.90376505 -6.58926904 5.318102403e-22)
(87.9169023 -6.357081288 4.394821362e-19)
(87.62111475 -6.415344196 4.553135162e-19)
(87.57343033 -6.620741687 3.353137626e-21)
(87.67097694 -6.68083954 9.776040249e-19)
(86.99261205 -7.582320783 -1.998734085e-19)
(86.84584659 -7.640355508 -2.060206377e-19)
(86.8345187 -7.522563316 -4.065222566e-19)
(86.99496925 -7.469413394 3.936144332e-19)
(86.79219529 -7.624018732 2.085213482e-19)
(85.646294 -6.944454096 0)
(85.58721135 -7.057881323 -1.677916722e-21)
(85.82459067 -6.905587003 4.159667361e-19)
(85.81347029 -7.039516206 -4.20138818e-19)
(85.64273759 -7.097367518 -4.302558461e-19)
(92.96560936 -6.443714542 3.64236075e-19)
(92.36685678 -6.863629752 -8.627965141e-19)
(92.46833174 -6.499660889 7.705135999e-19)
(90.9414038 -8.236490534 3.63891042e-19)
(90.72199668 -8.072251368 0)
(90.9687807 -8.038730659 -7.219220221e-19)
(89.4592711 -6.92774815 -8.049854369e-19)
(89.42556967 -7.123056235 1.20411662e-18)
(89.82014754 -7.811659165 9.906103458e-20)
(89.84285251 -7.621681211 1.967310207e-19)
(89.60455297 -7.657948703 -7.956789382e-19)
(89.55127315 -7.815663708 -3.08941374e-19)
(89.62238089 -7.874738865 -3.025569141e-19)
(88.74840668 -8.497000957 2.851768057e-19)
(88.65542674 -8.495189665 2.868823791e-19)
(88.70917589 -8.460235288 2.998533325e-22)
(88.78998365 -8.458048947 -2.793650324e-19)
(88.040528 -7.999081947 9.700605907e-20)
(87.96902199 -8.069299415 -3.500205243e-19)
(88.1818167 -7.968539171 9.716023127e-20)
(88.15212215 -8.05469941 9.705614365e-20)
(88.00516235 -8.090043358 6.440004691e-20)
(91.18873178 -8.201605239 7.245766724e-19)
(91.16517355 -8.401962935 7.183250547e-19)
(91.69069758 -9.100279106 -2.002401661e-21)
(91.66664465 -8.980129963 4.327603383e-19)
(91.56151734 -9.123714193 5.673912073e-19)
(91.55357935 -9.017739369 2.840724275e-19)
(90.1413482 -9.983889646 -6.627651857e-19)
(89.94352302 -9.973844158 -2.673013438e-19)
(90.09878192 -9.927079527 3.029766129e-19)
(90.24317265 -9.930794969 -1.310217697e-19)
(89.43804838 -9.209784496 -2.748860998e-19)
(89.35264075 -9.255205526 2.812951683e-19)
(89.54801479 -9.208076006 2.791684809e-19)
(89.48842733 -9.255612169 -2.773417625e-19)
(75.52218509 -4.83296281 1.662598771e-19)
(76.37716873 -4.636335529 1.659078453e-19)
(76.55923391 -5.364001122 1.660962112e-19)
(75.59459016 -5.662928604 1.625893432e-18)
(75.97495433 -5.782054407 -2.823548554e-18)
(81.63469678 -6.493599411 -1.050939729e-18)
(81.43942062 -6.211460799 -1.573853916e-18)
(81.12062733 -6.458309738 -3.820752507e-19)
(81.29163742 -6.757762024 -7.053855226e-19)
(81.45305443 -6.749009632 -1.215705675e-18)
(70.34535057 6.215777956 4.586410869e-19)
(69.42861983 7.438631212 1.601704716e-18)
(69.27913686 5.167838602 4.285715757e-19)
(67.92693865 6.448986683 4.68972911e-19)
(75.39778683 -4.032253358 0)
(74.63993215 -5.159731301 -5.329955366e-19)
(74.43979492 -4.156758021 -7.203149952e-19)
(85.47742668 -6.999132146 4.295416773e-19)
(85.48232908 -6.850868485 1.071277525e-19)
(85.65931994 -6.811145312 -8.30099406e-19)
(85.42423163 -6.960837532 4.305226534e-19)
(84.25416151 -6.488909202 1.290381515e-19)
(84.23427468 -6.35737577 -9.059221465e-19)
(84.4204447 -6.278152214 -1.41254823e-20)
(84.43876442 -6.408880172 -1.341617619e-18)
(85.25926327 -4.856747277 5.112082489e-19)
(85.67092294 -4.802869751 1.016978711e-18)
(85.65784661 -5.126489702 3.861765135e-19)
(85.2944872 -5.220142731 -2.554728819e-19)
(84.06585291 -6.582299265 5.745863095e-19)
(84.26412501 -6.620718768 1.034709577e-18)
(84.03848564 -6.690944675 8.697234806e-19)
(84.10317508 -6.691580685 -1.048191013e-19)
(85.47704922 -7.071009686 3.209972399e-19)
(85.37041797 -7.087347088 3.244510584e-19)
(85.39189336 -7.021674176 6.461501042e-19)
(81.91405374 -6.262693528 5.127564635e-21)
(82.08161533 -6.508769599 0)
(81.76227034 -6.740076357 0)
(81.89832528 -6.726773589 0)
(84.04643524 -6.447702792 -4.577678695e-19)
(83.85361959 -6.550277761 -1.209856489e-19)
(83.83589628 -6.665183702 -4.880485219e-19)
(83.90472599 -6.664104202 -4.863205128e-19)
(87.89515115 -8.035494983 -8.295691433e-19)
(87.92640891 -7.944371759 -4.884045762e-19)
(88.06770522 -7.911272369 0)
(87.85898142 -8.015006693 4.129638295e-19)
(86.94961935 -7.678257525 2.748899659e-19)
(87.14894589 -7.52934637 1.908136475e-19)
(87.14457028 -7.637532752 1.957157297e-19)
(87.00074974 -7.692662393 -1.337223121e-19)
(88.18936696 -6.531220276 -4.313793597e-19)
(88.17562435 -6.754905901 -1.076037996e-19)
(87.85902661 -6.785775403 -4.807917144e-19)
(87.95260836 -6.841172421 -4.746314693e-19)
(86.85192631 -7.70213609 1.521145377e-19)
(86.92441969 -7.727179973 3.085442226e-19)
(86.83227077 -7.753075668 4.644164654e-19)
(87.87951857 -8.080120995 -9.309089808e-19)
(87.78420369 -8.091617721 2.369312366e-20)
(87.82212834 -8.053067232 -3.116223858e-19)
(85.55562347 -7.120515515 -3.237189257e-19)
(85.45166182 -7.137856201 -1.26621218e-21)
(86.75454621 -7.728242201 -2.647425185e-21)
(86.76796376 -7.675546676 1.920219664e-21)
(89.30346746 -9.208910699 -2.79870923e-19)
(89.38846573 -9.163076905 -5.512541737e-19)
(89.49761223 -9.161879143 -2.72791162e-19)
(88.69209299 -8.532938412 2.95648155e-19)
(88.83048168 -8.496263408 2.821576794e-19)
(88.78736302 -8.535988105 2.879336443e-19)
(90.05660726 -7.778389148 -9.745593959e-20)
(90.03425829 -7.969632959 1.860377228e-19)
(89.76484711 -7.970063558 -6.263426976e-20)
(89.8352999 -8.031380981 3.69810533e-19)
(88.59831846 -8.531269007 2.971539045e-19)
(88.63296791 -8.570308557 -2.258875286e-21)
(88.51569091 -8.562811617 9.121807476e-19)
(89.21513063 -9.255307141 2.840593158e-19)
(89.02715596 -9.249146967 0)
(89.16739225 -9.208417286 2.801906509e-19)
(87.93099842 -8.107060361 -3.09762053e-19)
(87.8377455 -8.118256339 -3.081799577e-19)
(88.48424134 -8.525651015 6.862098482e-22)
(88.56345363 -8.495218697 -2.951519694e-19)
(89.98208424 -10.03039766 -5.367344863e-19)
(90.29056895 -9.987314929 2.607204811e-21)
(90.18909678 -10.03962723 4.106350594e-21)
(91.68714433 -9.208175778 -2.813702284e-19)
(89.7812206 -10.01915344 -1.355969358e-19)
(89.81991671 -10.07204377 2.727818112e-19)
(89.48155872 -10.05316243 5.653956842e-19)
(89.26431595 -9.301026238 -3.764019855e-21)
(89.07424679 -9.295502674 5.761676806e-19)
(89.45932649 -10.00249681 1.4345624e-19)
(89.75302021 -9.96274935 -1.683253089e-19)
(88.80216549 -0.6085861188 -4.675102086e-19)
(87.56827009 -0.7981944741 3.584757985e-20)
(88.15502933 -0.2134394294 -9.786759404e-19)
(83.49918497 -2.284298692 1.307744563e-20)
(84.1046598 -2.374359763 -5.646650754e-19)
(81.94389162 4.858195642 5.599708331e-19)
(82.44506837 4.069506598 2.729817092e-20)
(81.71146657 3.5636211 2.353237923e-18)
(80.93833018 -0.3768151601 -1.888047567e-20)
(81.31872953 0.3721474885 5.936370155e-19)
(79.93564093 -0.1064352683 -8.339927831e-19)
(80.4716743 0.803628441 6.190447217e-19)
(76.26030509 -3.825629664 0)
(75.3627977 -3.120868595 0)
(76.21731549 -3.099427984 6.479093577e-19)
(71.62003881 7.063845782 -6.920208256e-19)
(72.38809209 5.973029235 7.642891987e-19)
(71.4264821 5.17504261 3.588899645e-20)
(85.27455067 -4.50902845 -5.078556561e-19)
(84.8668082 -4.961086485 1.318851124e-19)
(84.82734529 -4.561246427 -5.303542762e-19)
(84.015353 -6.312540201 1.368938386e-18)
(84.20791846 -6.222000324 -4.575261727e-19)
(81.71803322 -5.981397318 -5.184831483e-19)
(82.01855633 -5.793451008 1.036699711e-18)