/*--------------------------------*- C++ -*----------------------------------*\
| =========                 |                                                 |
| \\      /  F ield         | OpenFOAM: The Open Source CFD Toolbox           |
|  \\    /   O peration     | Version:  v2012                                 |
|   \\  /    A nd           | Website:  www.openfoam.com                      |
|    \\/     M anipulation  |                                                 |
\*---------------------------------------------------------------------------*/
FoamFile
{
    version     2.0;
    format      ascii;
    class       surfaceScalarField;
    location    "1.95";
    object      phi;
}
// * * * * * * * * * * * * * * * * * * * * * * * * * * * * * * * * * * * * * //

dimensions      [0 3 -1 0 0 0 0];
oriented        oriented;


internalField   nonuniform List<scalar> 
6464
(
0.4583351176
0.002330149911
-0.002275885932
0.458433508
0.002177377916
-0.002045168101
0.458489535
0.001885633094
-0.00171961185
0.4585053209
0.001549290897
-0.001372169593
0.4584927581
0.001214411524
-0.001063941819
0.4584847887
0.0008941531316
-0.000826102797
0.4584504391
0.0007256636841
-0.0005922565938
0.4584594368
0.0004828197874
-0.001819138241
0.9186052544
0.0002913507897
-0.0004274669373
-0.001139021691
0.9186698834
-3.195918336e-05
0.9157429375
0.9137680408
-0.004707728619
-0.2291588667
0.2291054291
0.00476120453
-0.004599407106
-0.2293322626
0.2294039304
0.004527739329
-0.004097537211
-0.2294337065
0.229596011
0.003935232725
-0.003384091116
-0.2294685306
0.2296715045
0.003181117246
-0.002625679712
-0.2294452697
0.2296406173
0.00243033209
-0.001954834008
-0.2293915553
0.2295535416
0.00179284774
-0.4588543148
-0.002629204588
0.4602546717
0.001228847624
4.345732939e-05
0.4608830392
-0.001695868504
-0.4592306281
-0.002022321556
0.9179735161
0.0007535540502
0.001900505836
-0.001248562267
0.9178961242
0.0002289223917
0.9142654528
0.9139969632
-0.2290520013
-0.01333504537
0.2290141524
0.01337308481
-0.2302832628
-0.01259779346
0.2308399814
0.01204312582
-0.2308050307
-0.009779152011
0.2316937752
0.008892603151
-0.2305441055
-0.006340909649
0.2310128865
0.005872320761
-0.230453178
-0.004757873983
0.2308124665
0.004398585484
-0.003145007998
-0.2302720458
0.230940211
0.002476842794
-0.4628350259
0.0007370152973
0.4616005346
0.0004974760182
-0.4599277373
-0.0007053040129
0.4598509587
0.0007820826618
-0.000457663107
0.9194760702
-0.0006446635045
-0.0004002275262
0.001220622726
0.9162178383
0.0005598324371
0.9149262431
0.9145567956
-0.2287039
-0.02854235603
0.2284949298
0.02875053659
-0.2331579941
-0.02769634803
0.2340896195
0.02676797447
-0.2358737218
-0.02247084287
0.2377132489
0.02063728095
-0.2352299245
-0.01453304362
0.2373144253
0.0124535796
-0.2344516769
-0.002098470057
0.2387348537
-0.002184610964
-0.003100726531
-0.2317799508
0.231779577
0.003101100314
-0.4615033628
-0.004538734727
0.462599263
0.0034428345
-0.4604948493
-0.00234072884
0.4613812086
0.0014543695
0.002155778597
0.919119894
-0.0009736374278
-0.0008259649606
0.001555028124
0.9168185888
0.0007062474146
0.9157750238
0.9152630431
-0.2273743136
-0.04138539436
0.2267777757
0.04198049082
-0.2369683858
-0.04163444154
0.2380354704
0.04057044685
-0.2442011136
-0.03421789939
0.2467442578
0.03168259569
-0.2517000676
-0.0167931559
0.2511655552
0.01733355556
-0.2391049152
-0.01257142874
0.2416892384
0.009991599587
-0.004542884013
-0.2330868718
0.2335884875
0.004041268289
-0.4641181182
-0.005111373904
0.4655412904
0.003688201705
-0.462189532
-0.00271065154
0.4630048264
0.001895357225
0.002738157319
0.9205721823
-0.002432448949
-0.001757996724
0.001428105143
0.918128641
0.000629675822
0.9165734532
0.9158927189
-0.2240015363
-0.0462369571
0.2228007219
0.04743751491
-0.2422150664
-0.04570419556
0.2423262224
0.04559484192
-0.2600546975
-0.03553271667
0.258069503
0.0375242983
-0.2571725978
-0.03158923174
0.2606051482
0.02816622612
-0.2508275214
-0.01777197001
0.2541998513
0.01440810203
-0.005056237376
-0.23690016
0.2385171113
0.00344084441
-0.4667284892
-0.00502745078
0.4678938328
0.003862107149
-0.4634128098
-0.003029763186
0.4637561618
0.002686411184
0.001969321288
0.9223273081
-0.001749052235
-0.001975394835
0.0009871300682
0.9191108322
0.0003585623067
0.9172020209
0.9162512812
-0.03292458947
-0.1087408029
0.1081771823
0.03348821005
-0.02657792632
-0.2514966394
0.05016736729
-0.02696407442
0.1270378667
0.1278334061
-0.04297825975
-0.2625144581
0.2654699858
0.04002729895
-0.2711562194
-0.02901585025
0.2733904868
0.02679240962
-0.2634435123
-0.01939801971
0.2667536573
0.01609541488
-0.007372155917
-0.2453007478
0.2476092595
0.005066692875
-0.4690175501
-0.003863552795
0.4695792554
0.003301847487
-0.4645351023
-0.002358791577
0.4652897086
0.001604185308
0.0005845988645
0.9234102322
-0.0007049411057
-0.0009625818552
7.261634051e-05
0.9196228147
-6.273446086e-05
0.9173373717
0.9161885467
-0.03335939118
-0.1411948768
0.1441549188
0.03039934913
-0.03698481537
-0.2742263769
0.2773316339
0.03388150173
-0.2827629978
-0.02494914281
0.2856807618
0.02203938668
-0.2760182832
-0.01374614133
0.2785773577
0.01119632037
-0.006805767713
-0.2536170813
0.2556304087
0.004794305874
-0.4705018017
-0.001669769057
0.4712120441
0.0009595266161
-0.4658585673
-0.0004925395806
0.4662991727
5.193409989e-05
-0.001497676147
0.9236397343
0.000900880564
0.0003672935606
-0.00120277121
0.9193279098
-0.0006465487333
0.9167811492
0.915541998
-0.01478918728
-0.1573208581
0.1578241952
0.01428585017
-0.02056588961
-0.2836162008
0.2845439779
0.01963847514
-0.2920237878
-0.01590317963
0.2935340942
0.01439478726
-0.2849358097
-0.009257186568
0.2866091552
0.007585526101
-0.002873389423
-0.2599569032
0.2612344025
0.001596476895
-0.4721666723
0.001242787235
0.4729155771
-0.001991691992
-0.4664368597
0.002242271562
0.4664461248
-0.002251536668
-0.003954829376
0.9226017778
0.002725162547
0.002267623258
-0.002729780396
0.9181028608
-0.001398285086
0.9154496539
0.9141437129
0.003735510042
-0.1548538545
0.1537984396
-0.00268009512
-0.00201568925
-0.2850318885
0.284344859
0.00270236649
-0.2968902168
-0.002798513692
0.2973680511
0.002318281601
-0.2903340645
-0.0001777864861
0.2910960366
-0.0005872893709
0.002334621434
-0.2628719447
0.2631683718
-0.002632770318
-0.4727144626
0.005287334686
0.4720805127
-0.004653384741
-0.4661123908
0.004377605354
0.4663023754
-0.004567589969
-0.006618980149
0.9202679814
0.004772609145
0.004180167421
-0.00435294317
0.9158368238
-0.00219565262
0.9132923634
0.9119480603
0.01357465616
-0.1447143587
0.1432976106
-0.0121579081
0.01208490672
-0.2815882188
0.2808158921
-0.01131448032
-0.298560999
0.01180984808
0.2961140597
-0.009369178071
-0.2921081693
0.008652247235
0.2917921428
-0.008344804239
0.007082848018
-0.2614706876
0.2608567975
-0.006473187516
-0.4711311132
0.009098358018
0.4699062701
-0.007873514895
-0.4663749745
0.006763132472
0.4653555851
-0.005743743064
-0.009061163709
0.9168505098
0.006440936418
0.006037698931
-0.00591353889
0.912689199
-0.002915526732
0.9102943512
0.9090325336
0.01685241486
-0.1337597696
0.1323979956
-0.01549064086
0.02033160883
-0.2781267771
0.2777540162
-0.01996473544
-0.2950697833
0.01569138823
0.2983718327
-0.01900749539
-0.2899029719
0.019347253
0.2890036251
-0.01845885499
0.01121620921
-0.2562758399
0.2543574631
-0.009302810173
-0.4684510279
0.01227263243
-0.01059088196
-0.4642842274
0.009099823601
-0.007799704642
-0.01124173334
0.006749896568
-0.007272856026
-0.003543447377
0.1606588076
0.01757219966
-0.1598511194
-0.008890143163
-0.0094897446
-0.1424215539
-0.03681948526
0.145881648
0.1571237402
-0.001850943097
-0.1582689055
0.001688219589
0.001307888791
0.1610873885
-0.007326387526
-0.007891380711
0.1458668136
-0.01285852937
-0.147365127
0.007248372561
0.007108470269
0.1559005055
0.002666502058
0.002292242721
0.1342234902
-0.01665923483
-0.1355687976
0.01800454218
0.01508281089
0.1443586589
0.01843782133
0.1326380837
-0.1051472675
0.1037854826
0.03392395018
-0.1387464779
-0.03759902615
-0.1237438182
-0.02828122195
0.1254471139
0.04342673861
0.009808409377
-0.04311771876
-0.01011742922
0.02705591813
-0.07277234786
-0.02938914801
0.07510557775
0.01676872225
-0.1565173807
0.2845174277
0.02529810131
-0.2821258902
-0.02768964615
-0.2713986121
-0.04081612486
0.2752301507
0.04928767226
0.0008783360556
-0.04938775154
-0.0007782567744
-0.0461759021
0.003675277304
-0.003032618289
0.04553324308
-0.0009244373823
-0.1557803602
0.2851093244
0.006412023498
-0.2861785003
-0.005342840138
-0.02202184445
0.2859733735
0.03944777229
-0.004230176832
-0.03981249898
0.004594903523
-0.04270131505
-0.001655618484
0.001204985922
0.04315194762
-0.01143859974
-0.1461342883
0.2765601249
-0.008924067406
-0.2789886055
0.01135247204
-0.0003521739521
0.2834458209
0.07072653306
-0.0109257276
-0.07124494067
0.01144413521
-0.07461927117
-0.01005919619
0.07412772676
0.005346856561
0.005203884042
0.007975339296
0.03059690928
-0.007734005183
-0.03083824339
0.0639880789
-0.01115135467
-0.06442904457
0.01159232033
-0.06723921136
-0.01144958154
0.01183770255
0.06685109035
0.004249517497
-0.04656959944
-0.003855820152
0.009394778119
-0.009603346419
0.04363530691
-0.1549107337
0.02576885803
0.1570128541
-0.01367274329
-0.01419823512
-0.08482717026
-0.008973542389
0.0855244298
0.01767106097
0.04501106525
0.004439098019
-0.04520064577
-0.001471503753
-0.04223517653
0.001005365223
0.0002127696468
-5.475984992e-05
0.04912966247
-0.07991847182
0.002488860492
-0.002422513695
0.07985212503
-0.04775905297
0.04756038674
0.0004114358819
0.04205491452
-0.001703574551
-0.04182284372
0.04466043109
0.004025911466
0.000895163816
-0.04777588073
0.003224034685
-0.08008404857
-0.003058457937
-0.00987414092
-0.0751422599
0.005218602276
0.005178527366
-0.004095701315
0.004284374569
0.03925909904
-0.1518056685
-0.009718811392
0.1503275032
0.005717853938
0.005479122815
-0.07843607239
0.004080855835
0.07788761859
-0.007628103347
0.07439914011
-0.009395101364
-0.07487817966
0.0422703167
-0.001871020666
0.004071413999
-0.007357939718
-0.03981569016
-0.03956403334
-0.00848436098
-0.1531679987
0.005043645431
0.004803045694
-0.01137106692
-0.06771064384
0.0118424994
-0.0111540517
0.01156811434
0.07031247042
-0.02898234696
-0.007320958991
0.006830022717
-0.02925937706
0.008252369396
0.01139001764
-0.007341676171
0.03203960871
0.01382998983
-0.04565451207
-0.000215086476
0.02114682294
-0.03723938398
-0.02332600516
0.0394185662
0.04515068981
-0.007687049896
-0.03728637442
-0.0001772654887
-0.01538088476
-0.1350381197
0.2696282606
-0.01860849645
-0.2708961255
0.01987449355
0.01421291309
0.2744318774
0.03790382948
-0.007259299956
-0.03043376057
-0.0002107689511
0.06513382367
-0.01312027368
-0.06574664087
0.006898442927
0.006834647958
-0.03352964849
-0.006591431131
0.006689959052
0.03343112057
-0.07263787408
0.07454258507
0.02515120714
-0.01012310231
0.01896082379
-0.08385648235
0.02821158959
-0.1522997116
-0.01520312058
-0.01561949103
-0.006639877046
-0.03368286071
0.006793089268
-0.03571825986
-0.006839807843
0.007299431277
0.03525863642
-0.139949155
-0.01588055109
0.01736152888
0.1384681772
-0.07077243631
0.07028047232
-0.01066208772
0.06729772529
-0.01092529131
-0.06774350089
0.07394067952
-0.009600735601
-0.01052928716
-0.07116887674
-0.01543793234
-0.1414358705
0.01692464781
0.02301927654
-0.05203419426
-0.02169167184
0.05070658957
0.02712258083
-0.07052753468
-0.02936739401
0.0423544071
-0.123643576
-0.02219874888
-0.02334138413
0.062874741
0.06395456095
-0.0558815598
0.05488424159
0.02401659475
0.03301344315
-0.0009738344429
-0.08136880946
0.02396417434
0.0832221487
-0.01276642795
-0.01305108563
-0.0436431016
0.05971770501
0.01693883974
-0.03696403937
0.03871482833
0.01939603397
0.01574691299
-0.04556002475
0.02510394668
-0.07943204939
-0.01339131094
-0.01364939582
-0.04152802228
0.002669729353
-0.002651703603
0.04150999653
0.002351491468
-0.04185122999
-0.002028283755
-0.04017315132
-0.003201852304
0.003121886932
0.04025311669
-0.003440241158
-0.04049095533
0.00375804517
-0.006174425815
0.03661336839
-0.03564432383
0.005205381254
-0.009682351576
0.02186152787
0.03297151352
-0.07264074317
-0.01067072735
0.01108080073
0.07223066979
-0.03849406171
0.03668437973
-0.007872669596
0.0366797815
-0.006380230866
-0.03647397645
-0.03402784028
0.03805618116
-0.003794386347
-0.0002339545268
-0.006902832059
-0.03927827955
-0.01052140851
-0.0730934726
0.005521011325
0.00545312661
0.06309112835
-0.01275521404
-0.06361102048
0.01327510617
-0.01306759593
0.06456865022
0.006824629905
0.006808139477
0.01845175469
0.02830057182
-0.008848497038
-0.04460076391
0.006464392855
-0.006210213612
0.04434658467
0.006906920373
-0.04465998651
-0.006847697776
-0.04001118749
-0.0009335583953
0.0008300602419
0.04011468564
-0.001292671981
-0.04020279674
0.001484281231
0.04082081341
-0.0009998830322
-0.04111360236
0.08198531119
-0.0001028178296
-0.08230925957
0.0004267662078
-0.08312506866
0.001894726284
-0.001664876166
0.08289521854
0.08063659077
-0.002403770547
-0.08099421305
0.00276139282
-0.000712235462
0.001033135371
0.08166441128
0.04079843049
-0.0009111754708
0.04224155591
0.002511544038
-0.04240160848
0.08363842179
0.005676913678
-0.08370845578
-0.005606879683
-0.08367787122
0.008189655798
-0.008251700193
0.08373991561
0.002610238147
-0.08331877494
-0.002416531867
0.004886794306
-0.004806464357
0.08355809184
0.04235400285
0.002557282417
-0.03843587738
-0.00462187435
0.00481047458
0.03824727715
-0.001856267675
-0.03209168202
-7.98905853e-05
-0.004651581097
-0.03866574999
0.004881453711
0.006165892751
0.03683864635
-0.006324757608
0.006937418978
0.0351902313
-0.006616057159
-0.03551159312
0.06897943917
-0.01128991987
-0.06942358833
0.01173406902
-0.03622057529
0.007439734412
0.005476794438
0.03730246671
0.01869693332
-0.0002451786298
-0.01265124544
0.01302638159
0.03871320353
-0.04054793834
0.001834734804
0.03446686068
-0.006960075459
-0.0345024708
0.006995685581
-0.03197669519
-0.006918783144
0.006542547836
0.03235293049
-0.00657879972
-0.01037938408
0.009757433691
0.007200750118
-0.007622571397
-0.0328648829
0.008510759115
-0.02994097454
-0.00761167465
0.006301036023
0.03125161317
0.03039753236
-0.04736277042
-0.02851285731
0.02229086181
0.02318723357
0.02057592804
-0.03531124016
-0.02250407186
0.03089540888
-0.05914648405
-0.03284425668
0.06109533186
-0.05223177982
0.03304841538
0.02418769856
0.02539319824
-0.04646353498
0.003979987934
-0.005921033292
0.04840458034
-0.04207083631
0.04129291272
0.0009167661313
-0.0001388425414
0.04012180536
0.0006244267618
-0.04038894012
-0.0003572919963
0.04347592792
0.002771904033
-0.04412412766
-0.002123704293
-0.04090668624
-0.003671370265
0.003823197061
0.04075485945
-0.04302327602
0.003528384226
0.04341269257
-0.00391780078
0.03822757398
0.006982187529
-0.006024876461
-0.03918488505
-0.03782645357
0.03793769269
2.539414393e-05
-0.0001366332719
0.04359887126
-0.003562852685
-0.03980507677
-0.0002309418096
0.04331431627
-0.002954577499
-0.04365866365
0.003298924876
-0.04484848829
0.006202027213
-0.007121938316
0.04576839939
-0.04088989458
-0.02862213112
0.05774866523
0.01176336047
0.001911579482
-0.04380019831
-0.0001822174823
0.04388040962
0.006850043382
-0.04382353263
0.08276369401
0.01278031924
-0.08237113208
-0.01317288117
-0.0806385264
0.01556105753
-0.01622992017
0.08130738903
0.00907940258
-0.08355367912
-0.009203594671
0.0118319749
-0.01216072935
0.08309244846
0.04383255069
0.006512251785
-0.04099704725
-0.00109386745
0.0007122599105
0.04137865479
-0.03743608087
0.03750913247
0.0001959071335
-0.0002689587339
0.0001618635266
-0.03769996031
-0.0002883567865
0.04565354352
-0.002715277676
-0.04773691499
0.004798649143
0.003683274893
0.03889851022
-0.004354211135
0.002568534299
0.0421355412
-0.003505447477
-0.04119862802
0.03929976896
-0.004220868194
-0.03926402814
0.004185127378
0.07634957223
0.004540903912
-0.008537499229
-0.07700455801
-0.007140739849
0.07548430652
-0.07592484824
0.007581281566
-0.07724357005
-0.006252712702
0.006689080648
0.0768072021
0.04022141381
-0.003174528613
-0.04048712635
0.0789932448
-0.004362325285
-0.07944945218
0.004818532668
-0.002930905935
0.003298661255
0.08026883545
-0.005890271563
-0.07769878271
0.006345484227
-0.004778200549
0.005194313242
0.07857713211
0.04017227711
-0.003152715602
-0.01132368867
0.01170593814
0.0685971897
0.03491711325
-0.006566689788
0.06699714433
0.00663934954
-0.01278108223
-0.06749528868
-0.0371176349
-0.009251850604
0.01851869354
0.02785079197
-0.04309635481
0.0204418499
-0.02085948256
0.04351398748
-0.03302981503
0.04353209203
0.02821092653
0.02079826857
-0.04225586941
-0.02163875397
-0.02879705578
-0.002257113505
0.03124352004
-0.0001893507547
-0.006112772849
-0.02245666554
-0.0002276173921
0.03359345567
-0.00726701103
-0.03375318014
0.007426735496
-0.007456335348
0.007974649386
0.03394854664
0.01923550244
-0.01896277535
-0.0002727270908
0.01210989003
-0.01410544671
0.002800774853
-0.01186258045
0.01094329246
0.002404074413
0.006541119758
-0.03125390457
0.03259498968
-0.007882204867
0.009208155375
0.03322402025
-0.008130558693
-0.03430161693
0.03435709734
-0.006751563669
-0.03468542188
0.007079888207
-0.04062168459
0.01988886542
-0.02076134564
0.0274803512
-0.0001778858042
0.03295672474
-0.03204314445
-0.0009135802919
0.04705901971
0.01343066761
-0.04597954062
-0.01451014669
-0.04357281542
0.01436362726
-0.01516688089
0.04437606905
0.04872979054
0.01221302636
-0.04665996332
-0.01428285358
0.01255379375
-0.01283071788
0.04733594383
0.01463340222
-0.04287008622
-0.01533613141
-0.04017774197
0.0156690871
-0.01658127538
0.04108993025
-0.04323576274
0.04454643656
0.01913117608
-0.03863683052
0.03773228933
0.001226890405
-0.0003223492177
0.02687724185
-0.0267814797
-9.576215553e-05
0.004518174566
-0.04401949134
-0.006962218203
0.002581312396
-0.001975901638
0.04287051716
0.03979620845
0.0005540550634
-0.0002284581588
0.0006779558976
-0.03913944325
-0.0001753431652
0.0004008860851
-0.0382025314
0.03961131205
-0.00180966673
0.001050285623
-0.002186870439
-0.0418866912
-0.003426197629
-0.04076628914
0.003285800527
0.03797844742
-0.03656874507
-0.0003594167242
-0.03457864748
0.03554635147
-0.0005668179071
0.03602626766
-0.03559163359
0.006547553452
0.04190533006
-0.0003984984176
-0.002167134392
-0.03226264429
-0.0001488687963
-0.003513022714
0.004405800334
0.04242153865
0.05156545859
-0.007743703045
-0.0002228842806
-0.003602011763
-0.03676765403
-0.03776160981
-0.007030577936
0.007563877663
0.03722831009
-0.005462174238
-0.03629463019
0.003995194616
0.03799150849
-0.006085469813
-0.03736821292
0.03628352498
-0.005968884833
-0.03639554532
0.006080905175
-0.03731128989
-0.005848411298
0.006289311136
0.03687039005
0.03406939629
-0.006928346554
-0.03325382258
0.03744534069
-0.005859567726
-0.0378051627
0.006219389743
-0.03859010357
-0.005360467301
0.005228007539
0.03872256333
-0.005801882438
-0.03755817492
0.006048767468
-0.005656891456
0.005661899218
0.03744033293
0.03616336383
-0.004351081049
0.007216700336
0.03200091605
-0.007487443425
-0.03173017296
0.03255375047
-0.007062476037
-0.03280292605
0.007311651611
-0.007307003241
0.007649760553
0.03325069836
-0.002324301736
-0.04748511502
0.04553750784
0.004271908915
-0.008537271354
0.008985831685
-0.04133845491
0.006319221534
-0.0442392794
-0.006928430417
0.02858488611
-0.03688661742
-0.0002355400465
-0.04367814853
0.04148944223
-0.0001355954341
-3.724500586e-05
0.04248439566
0.006418256266
-0.04525316861
-0.003649483318
0.01050316004
-0.01131516569
0.04954179618
0.005238589881
-0.04873289868
-0.0001838397391
0.009486361745
-0.008546234339
0.04154426825
-0.0438043546
0.008087728241
-0.008349788005
0.04406641436
-0.04410563086
0.04446697057
0.009125022034
0.006158345289
-0.04840487042
-0.03688889332
0.03718234527
3.826564237e-05
-0.0003317175922
0.0002683435903
-0.0372740128
-0.0004304116624
-0.0009740301669
-0.04065297631
0.000629959218
-0.003218870608
0.005813126489
0.04305928764
0.0259778417
-0.02564911959
-0.0003287221169
-0.0005562569786
-0.03625445085
-7.81854946e-05
0.03973465484
-0.005905542274
-0.04047274071
0.006643628149
-0.03837484368
-0.005175623446
0.00438275604
0.03916771109
-0.005193353099
-0.03818555981
0.004788809344
-0.0062900653
0.007457872573
0.03856684756
0.02301731986
-0.02264206938
-0.0003752504786
0.04212589969
-0.04074223201
0.001184866617
0.001965339968
0.03774420259
-0.006607949595
-0.03906964328
0.007302749194
-0.004285970985
0.00365869263
0.04275317805
-0.02048003309
-0.0002813125511
-0.03600562494
-0.006537751605
0.006282626063
0.03626075048
-0.02706978207
0.03016887147
-0.002971492478
-0.0001275969252
-0.009560226371
-0.04217371129
-0.005945480541
-0.02096687111
-0.0001574304112
-0.006936608509
-0.03628624984
0.007217233413
-0.02966223592
-0.0002386986451
0.03083248569
-0.1381034123
0.03971203295
-0.268233915
-0.04287613933
-0.2586894705
-0.04562117583
0.2613350831
-0.02490074345
0.02776654296
-0.002625425187
-0.0002403743233
-0.01939474806
-0.005317755672
-0.0001882397218
0.0211949912
0.2687621078
-0.01908679746
-0.0003079505997
0.06691030964
-0.01106216589
-0.02080582091
-0.1298915796
0.01114998062
-0.01669962383
-0.1299332403
0.01801663496
0.02048683407
-0.01978288671
-0.01944804401
0.01874409665
-0.01904529375
-0.01213281365
0.01711714066
0.01406096674
-0.009029400857
0.01031112864
-0.01166111186
0.02721802907
-0.03047171604
-0.03729425137
0.02184576778
-0.02748721163
-0.02284371267
0.02848515652
-0.02260609007
0.02117039675
0.02192252739
-0.1301040646
0.03316333362
-0.03549715865
0.1324378896
-0.1267023367
0.1287673332
0.04028941062
0.02517387638
-0.07068916962
0.01079786797
-0.0421716384
-0.01110701331
0.04248078375
-0.04549873816
0.04597237445
0.01208015746
0.04768490777
0.01116665948
-0.04663854089
0.03140333273
-0.006940488469
-0.0316211512
0.007158306943
-0.006999734419
0.007397066721
0.03215641817
0.03115871156
-0.00840964611
0.006561769733
0.0664916512
-0.01264770774
0.06517563302
-0.01262010503
-0.06567580167
0.06560667106
-0.01135841155
-0.06604508486
0.01179682534
0.04809855432
0.01008951349
0.007808391505
-0.0454957661
0.008341421295
-0.04374015135
-0.008405624548
-0.02586208775
0.005320386749
0.007741653195
-0.02891633571
-0.008084694546
0.03477598325
-0.02675116829
-0.0002831617647
0.0171662649
-0.006854130282
0.006988735727
-0.06070768891
0.01589257082
-0.0008393939723
-0.03325529917
-0.003791495533
-0.0002395797194
-0.03243973236
0.03263396816
-0.007453535758
0.004711269165
-0.0306148381
-0.006536163419
-0.02545361065
-0.0002688807501
-0.03336325045
0.03339042423
-0.006945956927
0.03419057458
-0.006898471559
-0.03425217848
0.03312398336
-0.006558636523
-0.03322907206
0.006663725228
0.01645770007
-0.0798589751
-0.01723725137
-0.07693971345
0.018883085
-0.01995779386
0.07801442231
-0.07993571731
0.08145952466
0.02244036699
-0.00665866533
0.006979126894
0.03403663578
0.03328575831
-0.007673412709
-0.007244344412
-0.03374147743
-0.06542611896
0.02556040038
-0.02677099188
0.06663671047
-0.06172837286
0.06290154938
0.02972223236
0.01910295822
-0.03549106954
0.01486606246
0.04558094755
-0.0007293050011
-0.04607892278
0.04574913748
0.01519584776
-0.04510519976
0.01596511673
-0.03073453551
0.03100376563
-0.0002692301221
0.0102525968
-0.04068474565
-0.0003023866598
0.007163527964
-0.03566678975
-0.007141062049
0.03321515147
-0.0320970381
0.006045414593
0.002945501939
0.03547503078
0.02199345474
-0.0001319268781
-0.006356043883
0.02841786636
-6.836773429e-05
0.03402562277
-0.007410153139
-0.006014578066
0.03555188286
-0.03568594962
0.006148644828
-0.005921183071
0.006129260561
0.03607544749
0.0376102933
-0.006649362738
-0.007559602663
0.04596563887
-0.0003498550444
-0.03958226428
0.03865339214
-0.00663073052
-0.03860954281
-0.004767107813
-0.00730849016
0.005755962396
0.02985309958
-0.03186858166
0.03220736973
-0.007647278234
-0.00808311054
-0.03312658213
0.0351514939
-0.001789368061
-0.000235543711
-0.03047755395
-0.002330259329
-0.0003187688427
-0.03674343655
-0.003722373937
0.002367328758
-0.03472324005
-0.004387525256
-0.02956961065
-0.0001547426203
-0.02361172394
-0.006574419913
-0.0002914100963
-0.02341278247
-0.0001989414768
-0.004266706878
0.004419036941
0.0391474389
0.04233775332
-0.004488183106
0.03930360425
-0.005877646132
-0.04003390771
0.02477169293
-0.0003187972148
-0.03178838031
0.03912515802
-0.00708688098
-0.0002498967253
-0.003705926237
-0.0003159111112
0.02995636217
-0.02873157
-0.004893807212
0.03222474419
0.03358185419
-0.00612273091
0.007929779736
-0.003467152179
0.005294806137
-0.00679629729
0.01399704741
0.001289157888
0.006640621851
0.007314022989
-0.03291234611
-0.007266559786
0.03930760834
-0.03170012922
-0.0002934561324
0.02661991514
-0.02015344358
-0.0001654355364
-0.004909122165
-0.0001710919181
-0.006569855099
-0.03171666101
0.01856160649
-0.01932292742
0.03247798194
-0.02968090949
0.03060047855
0.02092619871
0.02645564422
-0.03226743018
-0.04702149246
0.04314470797
0.004068491513
-0.0001917070261
-0.05511793448
0.008428320297
-0.0003318782747
-0.04186607384
0.04147409655
0.0004791591764
-8.718188746e-05
0.001465350703
-0.0001867165722
0.0006634038573
0.0408290166
-0.000199507738
-0.0462313478
0.04528362662
0.001611125035
-0.0473822502
0.002067668538
-0.04444438834
0.0437500655
0.001318749605
-0.0005619941691
0.001401232446
-0.0001219176888
-6.696233894e-05
0.03846955586
-0.0004649008243
-0.0434706381
0.04430599897
-0.0009023232181
-0.04288231933
-0.0005629246179
-0.04516395497
0.04521664896
-0.003615546672
0.0009595301763
-0.001817486174
-0.0003759907331
0.009394714115
0.04833550551
1.844560184e-05
-0.04718219982
0.04896032101
0.007616592925
-0.04420883954
0.008790000191
-0.04859245451
0.003121783794
-0.004767675041
0.005135541535
-0.0002323678389
0.0001204967159
0.03749635407
-0.0001077183118
-0.04140250396
0.04179940558
-0.0002764049041
-0.04099299331
-0.0002136035147
-0.04233942148
-0.0003810343222
-0.0002593184091
-0.0002806974989
-0.0004629246472
-0.04155852285
0.04268757753
-0.0007462493318
-0.00038280535
4.71343874e-05
-0.0001315606894
-0.04615077493
0.05386423991
-0.007390823049
-0.0003226419321
-0.003304638768
-0.0001585586235
-0.01751594217
-0.0002328254743
0.01892639591
-0.0004077023693
-0.007517791174
-0.0003069812036
-0.008583334917
-0.0003496772748
0.03606853252
-0.05624811294
-0.0006799021444
0.03754518545
-0.001476652934
0.02035148402
0.04423711997
-0.0007050279397
-0.03798961748
0.0565128375
0.02571389994
0.02587774145
-0.0356564324
-0.03572918387
0.03630702042
-0.0005778365453
0.02133272887
-0.0005490752358
-0.001751656273
-0.0002601228596
-0.02206628555
-0.0003903799882
-0.005961534965
-0.0002565732484
-0.02914187496
-0.007434498102
-0.008979492297
-0.01108460064
-0.03274626901
-0.007610763234
-0.0002646523423
-0.0002645781545
-0.00507429068
-0.0001916271312
-0.04437387248
0.06103436017
0.01629623705
-0.01382563571
0.01520090071
-0.0002878326093
-0.01203761192
-0.04661617534
0.01199382394
0.04396458301
-0.04574959814
0.06068549507
-0.04876384698
0.008573043388
-0.0004939420601
0.01290342522
-0.0006329120322
0.002954280421
0.03495334928
-0.00017534037
-0.04002353245
0.03880942102
0.004168391849
-0.04102525147
0.002228609427
-0.03894346644
0.01070277381
-0.008381110502
0.008247065089
-0.0002092409157
0.0005079697709
0.03944866867
-0.0001604299928
-0.04307987238
0.04242458475
0.001163257405
0.001224248179
-0.04178948729
0.001442191712
-0.0005700366512
0.001205134114
-0.00026081123
-0.001249820445
9.354001823e-05
0.04076759248
-0.04008373121
-0.002266549259
0.04110046002
-0.03916540241
-0.002727995529
-0.03603016964
-0.0002709948875
-0.000267580541
-0.0003902781472
0.02394127085
-0.04987745189
-0.009655452551
0.02419210563
-0.0002508347709
0.03118625029
-0.0004465912169
-0.007704155162
-0.0002679666676
-0.02507160055
-0.007063718705
-0.0001273250351
-0.02470480822
-0.0003667923272
-0.009776626023
0.03663727639
-0.0432727576
0.04024700858
-0.006750877002
-0.00579981169
-0.03881691725
-0.003950496925
0.007194096348
-0.005764005012
0.04389836373
-0.03606619059
-0.0002682954687
-0.009372826773
0.0211741524
-0.007811306434
0.02147797089
-0.0003038184831
-0.02771222478
0.03086643091
-0.0002087041823
-0.0001888393045
0.00299618078
-0.005265188197
0.03170782036
-0.0002937732137
-0.0003631756218
-0.03676333684
-0.006640048008
0.03647503829
0.009354469266
-0.007464413964
0.003929739863
0.04334003884
-0.001732270864
-0.04531817105
0.04390793986
0.005339971058
0.005551715369
-0.04659797751
-0.04310074811
0.007877740263
-0.005407776178
0.006214967921
-0.003406192247
-0.03972817
-0.0005646396731
2.900137222e-05
-0.003227568692
-0.04794362401
0.005918024091
0.04113961495
-0.04394906179
-0.000418121853
0.03768621276
-0.0001960811215
0.04963195897
-0.0002616295906
0.006046849095
-0.0003639519201
0.007645021273
-0.05868691041
0.01022610956
-0.0002720978282
0.02920092521
-6.094679335e-05
0.02959137834
-0.0003904531261
0.01244873619
0.0001600128625
0.03730035682
-0.0002780244101
-0.03985586449
0.04024765148
-0.0002317741281
-0.03933000511
-0.0004875937412
-0.04056534064
-0.0001593090815
-0.0001279516092
-0.0001897375418
-0.000101607586
-0.007553165368
0.03375308756
-0.000222080491
-0.03791412657
0.03760287644
-0.007241915242
-0.009699006247
-0.03858707
-0.001299192083
0.002241289712
-0.003225483274
-0.0002600735741
-0.03918549246
0.04707716551
-0.007790982094
-0.0001006909562
-0.003875028957
-0.000158969609
-0.006344528177
-0.0002077626132
-0.03397860996
-0.007089158268
-0.009543513824
0.0005040696743
-0.03931959976
-0.001926701929
0.03520149329
-0.03448092537
-0.0002164982377
0.03672701396
-0.0003406540504
0.03355341737
-0.0004018271031
-0.0006273273581
-0.0003001806513
-0.002202724527
0.009918853439
-0.04145536628
-0.007533130444
0.03523230113
-0.04872623016
0.03596063041
0.0406914837
-0.000305777117
-0.007815516547
-0.0002192299111
-0.006517704772
-0.004016803092
0.03440632265
-0.0002206480886
-0.03493522541
0.03649191471
-0.005573492389
-0.03264973051
-0.005256987381
-0.03620922227
-0.008197241043
0.03484623695
0.007497833731
-0.007215141299
-0.0002695549038
-0.03515166707
0.04288783495
-0.007503125945
-0.0002330419354
-0.003979189029
-0.0003060471302
-0.03146816401