/*--------------------------------*- C++ -*----------------------------------*\
| =========                 |                                                 |
| \\      /  F ield         | OpenFOAM: The Open Source CFD Toolbox           |
|  \\    /   O peration     | Version:  v2012                                 |
|   \\  /    A nd           | Website:  www.openfoam.com                      |
|    \\/     M anipulation  |                                                 |
\*---------------------------------------------------------------------------*/
FoamFile
{
    version     2.0;
    format      ascii;
    class       surfaceScalarField;
    location    "2.78";
    object      phi;
}
// * * * * * * * * * * * * * * * * * * * * * * * * * * * * * * * * * * * * * //

dimensions      [0 3 -1 0 0 0 0];
oriented        oriented;


internalField   nonuniform List<scalar> 
6430
(
-0.007543367462
0.9321901709
-0.01529019147
0.9316995899
-0.02319214773
0.9305984159
-0.008094563417
0.9288618839
-0.02352957653
-0.4590718769
0.460277316
-0.0093000025
-0.4569623679
0.0106393451
0.4584722643
-0.01214924146
-0.4521580013
0.01369127593
0.4520536604
-0.006587678257
-0.006857081339
-0.2139640905
0.005512385187
0.2134099934
-0.004750409193
-0.2069438928
0.003750361851
0.2069563661
-0.003481306293
-0.2103434342
0.003678705835
0.2103036247
-0.003456952963
-0.2167591953
0.00628905977
0.2179599253
-0.003743107405
-0.00374668235
-0.05265045302
0.00288750404
0.05273652664
-0.002973577648
-0.0040249071
0.936215078
-0.008173930019
0.9358486128
-0.01257767159
0.9350021574
-0.008598872642
0.9336736609
-0.00879057593
-0.4635245876
0.4648005185
-0.009874803573
-0.4617718829
0.01130110894
0.4633148196
-0.01284404555
-0.4531455713
0.01452955756
0.4556837104
-0.008240607543
-0.008662523587
-0.2123956571
0.008500742739
0.2124985067
-0.008385148312
-0.2062995091
0.007374205251
0.2061592291
-0.006949418077
-0.2128548693
0.006000969702
0.2129364267
-0.005912483298
-0.2220976865
0.006849556359
0.2233351847
-0.004041241132
-0.004045813466
-0.05490491223
0.006349611065
0.1102421672
-0.05487046088
-0.0034023208
-0.003414084331
-0.004194639487
0.9404097175
-0.008509559054
0.9401635324
-0.01306751177
0.9395601102
-0.008940117685
0.9386063967
-0.009060129932
-0.4661629819
0.4675117115
-0.01028884727
-0.4648720498
0.01174979236
0.466430225
-0.0133079675
-0.4594653438
0.01498702807
0.4637554934
-0.009590945384
-0.00962625544
-0.214227614
0.01206422672
0.2153544433
-0.01300681447
-0.2063189102
0.01456053398
0.2066764071
-0.01464881151
-0.2120901003
0.01377107513
0.2116458788
-0.01313071062
-0.2244419937
0.01031550168
0.2233111922
-0.009143697046
-0.1134474087
0.01079863493
0.226819682
-0.01084478181
-0.1133261264
-0.004252873934
0.9446625915
-0.008613449311
0.9445241078
-0.01318754817
0.944134209
-0.009032414336
0.9435117147
-0.009060451833
-0.4688565959
0.4702047423
-0.01038056071
-0.4679681252
0.01181464958
0.4694778455
-0.0133243699
-0.4671207361
0.01493237087
0.468874134
-0.008384800991
-0.008300832733
-0.2206306789
0.01315976212
0.2230380047
-0.01545558397
-0.2092977681
0.02102102752
0.2108166483
-0.02231884141
-0.210982392
0.02431993287
0.2112423768
-0.02437415282
-0.2203653016
0.0231193593
0.2197754511
-0.02241891217
-0.2238212098
0.02060109528
0.222074718
-0.01882963756
-0.004212669377
0.9488752609
-0.008516637534
0.9488280759
-0.0129972086
0.9486147801
-0.008910951717
0.9482652479
-0.008839790065
-0.4715045148
0.472800104
-0.01020654096
-0.4709421317
0.0115683131
0.4723572033
-0.01298338476
-0.4705145637
0.01446921479
0.4720738124
-0.00805999034
-0.00796847314
-0.2320327804
0.008937027486
0.23489672
-0.01178622341
-0.2176090015
0.02157122891
0.2205992728
-0.02442832206
-0.2141852716
0.03119778856
0.2159496966
-0.03279826361
-0.2198321444
0.03581215773
0.2205208816
-0.03638497429
-0.2165547271
0.03572654656
0.2150580376
-0.03419529481
-0.004093200606
0.9529684615
-0.008259327758
0.9529942031
-0.01256051947
0.9529159718
-0.008609122789
0.9527741528
-0.008460301533
-0.4740312298
0.4752446076
-0.009822500607
-0.4737111804
0.01108424668
0.4750050966
-0.01237816289
-0.4735448121
0.01371600559
0.474925069
-0.007608747778
-0.00748751473
-0.2366138686
0.008331009036
0.236980784
-0.008697924415
-0.2312480662
0.01153636136
0.2351354711
-0.01539989984
-0.2234151272
0.02592017792
0.2264806331
-0.02890481652
-0.2244357943
0.03599459965
0.2262302345
-0.0377160036
-0.2133068956
0.03829049948
0.2137086165
-0.03866994686
-0.003912958528
0.95688142
-0.007879927879
0.9569611725
-0.01194054448
0.9569765884
-0.008173055934
0.9569783185
-0.007971654283
-0.4763876958
0.477504765
-0.009290125132
-0.4762312037
0.01043898593
0.477393774
-0.01160155613
-0.4762154936
0.01278606715
0.4774195433
-0.007063620406
-0.006926496356
-0.2379900312
0.007680834018
0.2382981837
-0.00798898651
-0.2375240444
0.008911439268
0.2378285541
-0.0092159489
-0.2363476376
0.01010551756
0.2369399919
-0.0106966918
-0.232381801
0.01775319292
0.234527256
-0.01988335006
-0.2166532543
0.02287116129
0.2178077373
-0.02401966614
-0.003690053146
0.9605714732
-0.007416532682
0.960687652
-0.01119926579
0.9607593215
-0.007650441906
0.9608478428
-0.00741834816
-0.4785497079
0.4795650967
-0.00866583072
-0.4784880376
0.009698999933
0.4795202845
-0.01073124678
-0.478537528
0.01176758511
0.4795740782
-0.006464167367
-0.006339967914
-0.2391431099
0.006997369962
0.2394009255
-0.007255185584
-0.2386462135
0.008010278078
0.2388900776
-0.008254142202
-0.2376949318
0.008953184828
0.2379158891
-0.009174142089
-0.2361970485
0.009753896894
0.2362972555
-0.009854103886
-0.2199515551
0.009933486605
0.2203422172
-0.01032414875
-0.003441257347
0.9640127305
-0.006903779272
0.9641501739
-0.01039091091
0.9642464532
-0.007079446988
0.9643726883
-0.006836309405
-0.4805090879
0.4814262463
-0.007996605381
-0.4804878574
0.008918682363
0.4813981273
-0.009828952266
-0.4805342434
0.01073126923
0.481423123
-0.005862723122
-0.005757425781
-0.2401072586
0.006323452369
0.2403229749
-0.006539168655
-0.2395473193
0.007159634587
0.2397442202
-0.00735653549
-0.2385013418
0.00791260064
0.2386739749
-0.008085233696
-0.2365336287
0.008514230214
0.2365956055
-0.008576207078
-0.2213869836
0.008696763673
0.2216977988
-0.009007578859
-0.003179995736
0.9671927263
-0.006368784987
0.9673389632
-0.009557440047
0.9674351082
-0.006493491111
0.9675607944
-0.006252055031
-0.4822719447
0.4830947851
-0.007316331486
-0.482249212
0.008134763161
0.4830486291
-0.00893418032
-0.4822455839
0.009717789008
0.4830059984
-0.005283033218
-0.005195170344
-0.2409145163
0.0056814901
0.2410955154
-0.00586248922
-0.2402775715
0.006375433305
0.2404381596
-0.00653602142
-0.2391354461
0.006984593474
0.2392726849
-0.007121832242
-0.236744369
0.007446343482
0.2367839734
-0.007485947878
-0.2225315539
0.00763468872
0.2227792751
-0.007882409967
-0.002917952747
0.970110679
-0.005834844316
0.9702558548
-0.008733175972
0.9703334399
-0.005917582632
0.9704301537
-0.005684952668
-0.4838487959
0.4845840747
-0.006652861389
-0.4837953838
0.007377432261
0.4844965372
-0.008078585641
-0.4837107667
0.008759811064
0.4843645791
-0.004747286717
-0.004666336795
-0.2415925206
0.005087543165
0.241744859
-0.005239881549
-0.2408754926
0.005666900227
0.2410078628
-0.005799270386
-0.2396425225
0.006166170652
0.2397533318
-0.00627697999
-0.2368809264
0.006526826684
0.2369074708
-0.006553371058
-0.2234426581
0.006724812119
0.2236394997
-0.006921653772
-0.002663164414
0.9727738434
-0.005317758862
0.9729104492
-0.007940732732
0.9729564138
-0.005366693182
0.9730041694
-0.005148055243
-0.4852544376
0.4859098254
-0.006022080976
-0.4851512735
0.006662781862
0.4857660803
-0.007277588689
-0.4849713966
0.007869864572
0.4855349167
-0.004254743083
-0.004178641516
-0.2421641478
0.004546134637
0.2422930885
-0.004675075358
-0.2413701828
0.005033347796
0.2414804518
-0.005143616715
-0.2400538411
0.005447576009
0.2401444426
-0.005538177449
-0.2369748431
0.0057338667
0.2369941283
-0.005753151871
-0.2241665051
0.00594220164
0.2243229542
-0.006098650741
-0.002421615758
0.9751954592
-0.004829157524
0.975317991
-0.007196351876
0.9753236081
-0.004851118123
0.9753092448
-0.004650309188
-0.4865050202
0.4870885049
-0.005434602899
-0.4863403028
0.006001065509
0.4868798589
-0.006540621615
-0.4860586843
0.007056397941
0.4865458226
-0.003806101521
-0.003737434791
-0.2426488316
0.004056633236
0.2427585864
-0.004166388091
-0.2417837216
0.004469284265
0.2418765064
-0.004562069016
-0.2403913667
0.004816650984
0.2404662019
-0.004891486132
-0.2370454206
0.005047226706
0.2370608729
-0.005062679029
-0.2247420474
0.005264860735
0.2248666628
-0.005389476079
-0.002196839665
0.9773922989
-0.004375739253
0.9774968906
-0.00650891223
0.9774567811
-0.004377074654
0.977372361
-0.00419495377
-0.4876169478
0.4881364531
-0.004896579907
-0.4873842098
0.005397876631
0.4878585784
-0.0058722452
-0.4869994097
0.006322620862
0.4874220123
-0.003402416666
-0.003342806811
-0.2430622873
0.003618692861
0.2431562634
-0.003712669037
-0.2421329613
0.003970727865
0.2422117836
-0.004049550143
-0.240671125
0.004264790983
0.2407334998
-0.004327165841
-0.2371040139
0.004453038968
0.2371176381
-0.004466663196
-0.2252014127
0.004678210843
0.2253013108
-0.004778108922
-0.001991732944
0.9793840318
-0.00396293329
0.9794680909
-0.005885493508
0.9793793413
-0.003947869872
0.9792207008
-0.003785963456
-0.488605977
0.4890691383
-0.00441103121
-0.48830246
0.004855558039
0.488720658
-0.005273755972
-0.4878162743
0.00566843005
0.4881844691
-0.003044542388
-0.002992082486
-0.2434171521
0.003232129324
0.2434981564
-0.003313133612
-0.2424306895
0.003534807944
0.2424982748
-0.003602393198
-0.2409050798
0.003785972341
0.2409575331
-0.003838425598
-0.2371572789
0.003941797744
0.2371702594
-0.003954778254
-0.2255711529
0.004172613159
0.2256522108
-0.004253671036
-0.001807510214
0.981191542
-0.003592843581
0.9812534243
-0.005328356097
0.9811148538
-0.003564716453
0.9808804681
-0.003423406954
-0.4894872238
0.4899012462
-0.003978738878
-0.4891126256
0.004374174041
0.4894826828
-0.00474423122
-0.4885288077
0.005091619974
0.4888512265
-0.002730444895
-0.002683593825
-0.2437237718
0.002893997035
0.2437940982
-0.002964323466
-0.2426867693
0.003156340605
0.2427452281
-0.003214799397
-0.2411024297
0.003372677194
0.2411469304
-0.00341717792
-0.2372090638
0.003503495851
0.2372220431
-0.003516475111
-0.2258729002
0.003737954315
0.2259398448
-0.003804898909
-0.001644754285
0.9828362963
-0.003266359428
0.9828750294
-0.004838128261
0.9826866227
-0.003227532394
0.9823766878
-0.003106815522
-0.4902747447
0.4906463669
-0.003599154577
-0.4898302975
0.003952495258
0.4901593694
-0.004281567183
-0.4891536101
0.004588960487
0.4894375521
-0.002456573918
-0.002416328528
-0.2439906442
0.002599990585
0.2440521726
-0.002661518919
-0.2429088987
0.002829238775
0.2429598817
-0.002880221803
-0.2412703593
0.003017080391
0.2413084451
-0.003055166144
-0.2372613811
0.003128480671
0.2372746774
-0.003141777027
-0.2261241306
0.003364636542
0.2261807787
-0.003421284649
-0.001503591901
0.9843398882
-0.002983524338
0.9843549619
-0.004414295198
0.9841173935
-0.002935906964
0.9837334207
-0.002835121186
-0.4909816087
0.491317036
-0.003271334309
-0.4904693975
0.003588987894
0.4907639813
-0.003883571638
-0.4897043489
0.004157603981
0.4899558812
-0.002222016445
-0.002187119911
-0.244224888
0.002348087981
0.2442791782
-0.002402378156
-0.2431032359
0.002550193419
0.2431480903
-0.002595047777
-0.2414145812
0.002714719151
0.2414474972
-0.002747635084
-0.2373152346
0.002811071761
0.2373289974
-0.002824834539
-0.2263390316
0.003047248647
0.226388476
-0.003096693112
-0.001383550945
0.9857234391
-0.002743155679
0.9857145666
-0.004054589408
0.9854288272
-0.0026869641
0.9849724829
-0.002606687473
-0.4916197728
0.4919250146
-0.002992205901
-0.4910425888
0.003280067503
0.4913084975
-0.003545976239
-0.4901936901
0.003792597738
0.4904191916
-0.002025356157
-0.001992743154
-0.2444322379
0.002135240158
0.2444805371
-0.002183539314
-0.2432748005
0.002315017103
0.2433146323
-0.002354848891
-0.2415397255
0.002460493762
0.2415684884
-0.00248925659
-0.2373710314
0.002545226823
0.2373852887
-0.0025594841
-0.2265290112
0.002779804402
0.2265737097
-0.002824502969
-0.001284283139
0.9870077223
-0.002544604618
0.9869748881
-0.003757559534
0.9866417822
-0.002481096387
0.9861165562
-0.00242053643
-0.492200717
0.4924807161
-0.002761095484
-0.4915612177
0.003024431678
0.49180371
-0.003266923913
-0.4906339001
0.0034913203
0.4908397178
-0.001864190219
-0.001832947799
-0.2446174954
0.001959850776
0.244660929
-0.002003284327
-0.2434277975
0.002121612077
0.24346359
-0.002157404553
-0.2416496216
0.002251807079
0.2416751073
-0.002277292753
-0.237428788
0.002327742917
0.2374435191
-0.002342473977
-0.2267031122
0.00255944184
0.2267450234
-0.002601352986
-0.001205898552
0.9882136208
-0.002387333605
0.9881563231
-0.003522206859
0.9877766554
-0.002310969981
0.9871781559
-0.002272836568
-0.4927334873
0.492996914
-0.002574396672
-0.4920355167
0.002819060959
0.4922594125
-0.003042956765
-0.4910366152
0.003249054083
0.4912252627
-0.001731089172
-0.001706612408
-0.2447851776
0.001819055881
0.2448249775
-0.001858855718
-0.2435659879
0.001967061542
0.2435986306
-0.001999704168
-0.2417475744
0.00208533861
0.2417705454
-0.002108309551
-0.2374883877
0.002154863022
0.2375035628
-0.00217003816
-0.2268684319
0.002382564818
0.2269090572
-0.002423190094
-0.001145857791
0.9893594786
-0.002268058965
0.9892785243
-0.003344597034
0.9888531935
-0.002190041221
0.9881902649
-0.002166664847
-0.4932338659
0.4934792096
-0.002435384972
-0.4924747112
0.00266339404
0.4926838835
-0.002872566381
-0.491406977
0.00306494662
0.491582692
-0.001628902465
-0.001611759155
-0.2449396491
0.001710753397
0.244976656
-0.001747760277
-0.2436927294
0.001848265286
0.2437229765
-0.001878512372
-0.2418364623
0.001957504925
0.2418575697
-0.001978612372
-0.2375497215
0.002022616059
0.2375653265
-0.002038221082
-0.2270303768
0.00224514479
0.2270708516
-0.002285619526
-0.001111662513
0.9904711411
-0.00219489025
0.990361752
-0.003234450469
0.9898927537
-0.002111829922
0.9891590638
-0.002091419466
-0.4937028134
0.4939271936
-0.002336210126
-0.4928869945
0.002554325237
0.493086237
-0.002753567819
-0.4917536212
0.002936386535
0.4919201234
-0.001555995423
-0.001546893341
-0.2450841677
0.001633604507
0.2451191664
-0.001668603199
-0.2438109255
0.00176355422
0.2438394426
-0.001792071299
-0.2419187892
0.001866312538
0.2419386127
-0.001886135996
-0.2376127977
0.001928778054
0.2376288466
-0.001944826888
-0.2271931372
0.002145192443
0.2272343327
-0.002186387939
-0.001075355666
-0.002134435604
-0.00314942546
-0.002066942097
-0.00201818149
-0.4941507519
0.4943713306
-0.002287520819
-0.4932801747
0.002493795466
0.4934723002
-0.002685920922
-0.492084827
0.002862245163
0.4922432988
-0.00151500259
-0.001505714374
-0.2452217275
0.001587211589
0.2452554854
-0.001620969523
-0.2439231503
0.001712358705
0.2439505437
-0.001739752161
-0.2419968731
0.001811048201
0.2420160201
-0.001830195219
-0.2376777071
0.001872806209
0.2376942003
-0.001889299422
-0.2273597672
0.002082932594
0.2274022867
-0.002125452111
0.002846220907
-0.002942057396
-0.05255461653
0.003157142379
-0.003270508953
-0.05479154564
0.006020492771
-0.2155780332
-0.003564560038
-0.003637094786
0.1057063821
-0.002829774194
-0.1053154449
0.005285057894
0.02274640014
-0.2206147848
-0.02019316265
-0.004036139155
0.1099306449
-0.003152911589
-0.1095039063
0.005883315428
-0.002899995217
0.005420350744
0.1060735306
0.05343730491
0.003023682935
-0.003130845825
-0.05333014203
0.02635900263
-0.0003077552694
-0.02690560159
0.0008543542236
-0.02779529345
-0.0008287286759
0.001215552468
0.02740846966
0.005811289012
-0.006169119577
-0.1130895781
-0.001363575112
-0.02802391819
0.001592199847
0.02722814497
-0.0008643093535
-0.02772741073
-0.002754389757
0.04712195922
0.003905515024
-0.02560979952
-0.02266328497
-0.0002296062916
0.000663321085
0.02592528784
0.00304281327
0.05353678488
-0.003142293234
-0.02248860025
0.022326404
-6.741004278e-05
0.02543122098
-0.004916609489
-0.01230040592
-0.01096859533
0.02674791676
-0.0003485004682
-0.02287012944
7.37739187e-05
0.00527006587
0.0250083854
-0.02426195977
-0.001214421494
0.001638146091
0.02383823517
-0.05212262522
0.003387461422
0.05224285583
-0.003507692024
0.05256854706
0.003435879234
-0.05248342077
-0.001785293597
-0.001735711936
-0.05194284103
0.003218987519
0.05198726014
-0.003263406623
0.003339701125
-0.003400641774
-0.05206168457
-0.0007761735153
-0.02472267795
0.001236891694
-0.0249972043
-0.001132010994
0.001396503129
0.02473271217
-0.05157335207
0.003047302654
0.0516456389
-0.003119589487
0.003196718748
-0.003281617438
-0.05185794234
0.002994433416
-0.003052331338
-0.05151545414
-0.0009473670261
-0.02531141416
0.001261576882
0.02468417504
-0.0005205389498
-0.02511100312
0.02425539347
-0.0007032294276
0.003438372673
0.05262855383
-0.001765401295
-0.001732978148
0.053038369
0.01385591484
-0.05285021668
-0.005278003186
-0.008766063972
-0.01231260642
0.0254763546
-0.02468994844
0.01152620025
0.01216535756
-0.01566457659
-0.00881338739
0.02392401737
-0.0238628885
0.004925353998
-0.02405066356
-0.005664972487
0.005601792814
0.02411384324
0.02378847703
-0.0002526465068
-0.02431200404
0.02798206585
-0.02226110904
-0.000450890934
-0.005786897473
-0.02404016212
0.00577639603
-0.006652991718
0.01315400306
0.0214810545
0.02306752587
-0.0004934703285
0.02487096203
0.02492870186
-0.02501562239
0.00842873964
-0.007692788862
-0.2251598861
0.2265563908
0.01010888465
-0.005857406919
-0.1124873118
-0.1125092677
0.005909917073
0.1103703389
0.1117077824
0.006252326033
-0.006754510735
-0.1112055977
-0.006562956927
0.09464463934
-0.09525441809
0.00717273568
-0.002679246587
0.003966354102
0.04583485171
-0.004774977067
-0.02641302449
0.003690846649
0.02749715492
-0.02640327921
0.001996374891
0.02672310382
-0.0023161995
0.02670465096
0.001698974785
-0.001557978938
-0.02684564681
0.02745806061
-0.004706086216
0.08272601272
-0.01012279727
-0.07916617238
0.0263481138
0.0008880195935
-0.0005022759208
-0.02673385747
-0.02475507426
0.004252218093
0.02665099609
-0.006148139913
-0.03203206685
0.02375703512
0.03375138636
0.02401752853
0.05435185456
-0.01898879422
-0.006342219872
0.003607282114
0.05457226924
-0.003708404449
-0.0544711469
0.001652159464
0.02651788906
-0.001465397562
0.02596682621
0.001756868155
-0.001612344624
-0.02611134974
-0.0004438494703
0.02452567723
-0.02499436365
0.000912535895
0.02480111522
0.02159707145
-0.02186498636
-0.0001759345591
0.02099088411
-0.003994556694
-0.01611569831
-0.0008806291077
-0.008613038587
0.04990340076
-0.04948449406
0.008194131882
0.002499482145
0.02393218221
-0.01986670928
0.02547597841
0.000498619435
-0.0001125167964
-0.02586208105
-0.03085830724
0.02602647559
5.685458101e-05
-0.02557065225
0.001783706766
0.02559607842
-0.001809132937
0.001967868082
-0.002376272692
-0.0259948746
-0.006012154044
-0.02461635384
0.004215483396
-0.0005267402927
-0.02604904375
0.0009677898027
0.02560799424
-0.0258908341
0.001643138557
0.02578115025
-0.001533454708
0.001720913771
-0.001663737353
-0.02562782866
0.0008557849368
0.02594576938
-0.0004534405218
0.003627324994
-0.004613411446
-0.02376898781
-0.001209619731
0.001629526477
0.02410577048
0.002081415737
0.02591653752
-0.002031127052
0.02682352945
0.009306434328
-0.009801205392
-0.02632875839
-0.002061459873
0.02595491105
-0.02069846787
-0.003194983299
-0.004579716392
0.008783768763
0.01678683174
0.02073934481
-0.0003518930914
-0.01742509433
0.02276899252
-0.00461179582
-0.0007321023715
0.01973258483
-0.00467738013
-0.01904976139
0.02399880913
-0.005117829521
-0.0240959346
0.005214954993
0.02510134719
-0.0001521090737
0.01425864587
-0.0008673749929
-0.02346345072
-0.006238055895
0.00598993414
0.02371157247
-0.004277322016
-0.01243073381
-0.0007170384975
-0.006465665549
-0.0233392019
0.006341416736
-0.01477083392
-0.02209962737
-0.02620549021
0.001687517893
0.02611348275
-0.001595510433
0.00158363275
-0.001518262137
-0.02595620471
-0.02649649247
0.0009460681556
-0.02571782591
0.003037177754
0.02693286625
-0.02577823005
0.001765937832
0.02592950865
-0.001917216425
0.001607386459
-0.001665667586
-0.02614720909
-0.02394897395
0.02311340821
-2.874362216e-05
0.002340623894
-0.02628717996
-2.417881551e-06
-0.0277815123
0.002394725471
0.02210904841
0.000127168665
9.018692181e-05
-0.0001152263853
0.02628962487
0.0005735182815
-0.02281207533
0.02257290575
0.000123943199
-4.716758524e-05
-0.02374652373
0.0008410261057
3.536819235e-05
-0.02551532366
0.001563293448
0.02551578611
-0.001563755902
0.001710469107
-0.001864698285
-0.02562400087
-0.02484733772
0.002756836802
-0.02629337423
0.001179465986
0.02596969318
-0.02563462229
0.001508237712
0.02559730349
-0.001470918906
0.001539960889
-0.001519711282
-0.02553557326
-0.02473703658
0.02433586275
-0.0001193651289
0.0004524390508
-8.204765271e-05
-0.02510742797
0.0008728183455
-0.02553138241
-0.001177509617
0.0238671224
0.001565780694
-0.02384223227
0.0231580562
-0.000493333543
-0.0002095989437
0.006849942285
-0.007389609655
-0.02415028106
0.02562535312
-0.02510969872
0.006334287882
0.02660944399
0.01054210939
0.0002164749295
0.004557621391
-0.004774096324
-0.01866712265
-0.004387063597
0.00509443788
0.02397032646
0.02002270407
-0.004869835628
0.02129499413
-0.002290733192
-0.02106572081
-0.02175509988
0.02147822285
2.423052801e-05
0.0002148537551
-0.02192270474
-4.724889424e-05
-0.0247198875
0.0006227372093
-0.01862903605
-0.0004706221484
0.01416883967
-0.001014836605
-0.00512870092
0.01990451016
-0.0006069695726
0.02271507799
-0.006362724404
-0.001480691258
0.02222985118
0.002318365949
-0.02091592281
0.01942878069
6.450859087e-06
6.882971598e-05
0.02518957544
-0.02524385751
0.02257993267
0.0002042087643
-2.779549e-05
0.02245716944
0.0001667014493
-4.393822371e-05
0.01503340389
-0.01503671055
3.306660002e-06
-0.004808646475
0.003678130258
-0.03109781734
1.99091075e-06
-0.02221255337
0.01998918175
0.02756208886
-0.02072774114
0.02710907787
0.001623863528
-0.00151514515
-0.02721779624
-0.0001706855715
0.02300712987
-0.02379170473
0.0009552604456
0.0006369306438
-0.0001635928323
-0.02546770147
0.0256909431
-0.02616145557
0.001107443114
0.02526954573
0.001333933265
8.046921549e-05
-0.01151435563
-0.003628795424
-0.000972547251
-0.01015568747
-0.001358668158
0.01201257119
-0.001665572441
-0.01051768432
0.01769809741
-0.004451889
-0.01754767803
0.004301469612
0.003104965891
0.003815319648
0.0190346255
-0.02237686552
0.02222971475
3.463396871e-05
6.362483239e-05
0.0001324153949
0.0004911686516
0.002398547531
-0.0001185956679
0.02201225206
-0.02215751214
6.321242412e-05
0.0218479638
4.492313517e-05
0.0223093758
0.0001017916335
4.600200795e-05
7.118698061e-05
8.06766863e-05
-0.02233245144
-0.004493513376
0.002314171637
-0.001488566875
0.002412306227
0.01955578611
-0.02106825397
2.390097903e-05
2.556219326e-05
0.02159898128
3.938357426e-05
3.739376919e-05
0.02500480586
0.001894266348
-0.00345547127
0.003350578414
-0.00349998185
0.0008836942855
-0.01754832587
-0.004033836293
0.01732702684
-0.01410697255
-0.002336360004
0.01434851847
0.01038148016
-0.0015977114
-0.002325465105
-0.001400027281
-0.003086959235
-0.001427759685
-0.005162104138
0.01777540919
-0.02082182528
-0.005454067516
0.02111378866
-0.020179102
-0.005254519095
-0.0001798115729
0.0005612712632
-0.02208104824
-2.14680799e-05
-3.442555967e-06
-0.0005330193001
-0.01867736193
0.02444860689
-0.005061943234
-0.0007093017271
-0.01328144119
-0.004694975879
-0.0007009448587
-0.01894429114
-0.005512132874
0.0112956572
-0.005791341452
-0.001135076616
-0.01226416862
-0.001017272568
0.005557505769
-0.006181629684
0.02603173804
-0.0005697221079
0.02010898615
-0.01502149647
0.0002506625561
0.004423767563
-1.648334227e-05
0.004553991378
0.006840437836
-0.006670415806
-0.2139354275
-0.004582504657
0.2065657814
-0.2079443103
0.006244257954
-0.004047073814
-0.2072006188
-0.003293314508
0.2087019465
-0.2085398472
0.003349391453
-0.003503305402
-0.2099552705
0.216753641
-0.2155605736
0.004850090271
0.02165015474
-0.02119123424
-0.2126377619
-0.01963097822
0.2065680209
-0.2067757841
0.02012179546
0.003088923061
0.2075174593
-0.01923032085
-0.2064181205
-0.01908833729
0.2102475392
-0.2098605139
0.01891177904
0.003426803271
0.2091709109
-0.01954102307
-0.2122350323
0.2222234035
-0.2208551814
0.02138768884
0.005055745145
0.2180066
0.2191912837
0.006443310195
-0.003835529938
-0.003839138674
0.1088111452
-0.004522549799
-0.1084692249
0.004180629525
-0.1074604945
-0.004362528976
0.004030766071
0.1077922574
0.05303101592
0.002957438829
-0.003065566409
-0.05292288834
0.05243068114
-0.05234536825
0.003254388242
-0.05212575175
0.00314489114
0.05219984814
0.0112669612
-0.0119071319
-0.2133908942
-0.01267071854
0.2069444223
-0.2066030673
0.01260093962
0.007783439035
0.2064441583
-0.01257796447
-0.2061362803
-0.01145970452
0.2096003702
-0.2098719339
0.01195498478
0.006223884515
0.2102378567
-0.01085747785
-0.2125034619
0.2214325025
-0.2222902225
0.009345198697
0.006206926215
0.2228781138
-0.008020236568
0.2245483549
0.006807123957
0.2240440186
-0.004674886822
-0.111396584
-0.1112817693
-0.00471101506
-0.1105657448
-0.004722887513
0.004369807887
0.1109188244
0.110719551
0.006352484641
-0.003414355389
-0.003415513111
0.05530176721
-0.00375171678
-0.0551138098
0.003563759373
-0.05470723949
-0.003642596902
0.003522109918
0.05482772649
0.01331211412
-0.01526194331
-0.2185479987
-0.01972285346
0.2109012048
-0.2094533011
0.01849830493
0.0142572082
0.2075108784
-0.02065845808
-0.2081252612
-0.02167288371
0.2094997435
-0.2092316445
0.02163080123
0.01424439725
0.2093541181
-0.02143770931
-0.2110099982
-0.01942091367
0.2178222317
-0.2185360311
0.02026233392
0.01138956442
0.2204375764
-0.01849793786
-0.2211892651
-0.0162944083
0.2270583781
-0.2276240343
0.01689132795
0.009521397462
0.2278336282
-0.01470471937
-0.225393706
0.0102388463
-0.01346558647
-0.2287676246
-0.02230543922
0.220280603
-0.2173974077
0.01955908707
0.01942589054
0.2127015098
-0.02478594393
-0.2149701832
-0.03033805051
0.21400261
-0.2122999363
0.02881877875
0.02396868801
0.2100712439
-0.03152655712
-0.2128174077
-0.03337502682
0.2178461048
-0.2173325062
0.03300100661
0.0237254495
0.2173529117
-0.03360418388
-0.2194827121
-0.03273189219
0.2240764885
-0.2250235751
0.03373540699
0.02122735109
0.2264744194
-0.03092848519
-0.2183232127
0.008484970563
-0.008867015059
-0.2362318241
-0.01512415027
0.2345607645
-0.2306915845
0.01128212424
0.01847442416
0.223487895
-0.01884370063
-0.2274770811
-0.02868992247
0.2245101093
-0.221395774
0.02567333118
0.02926515035
0.216100308
-0.0313998624
-0.2206014205
-0.03764545743
0.2234095296
-0.2215328479
0.03586493103
0.03506711216
0.2187240346
-0.03913950149
-0.222855245
-0.03927125714
0.2197741721
-0.2207286979
0.04026938527
0.03686515006
0.2229937552
-0.03917349584
-0.213378289
0.007849201057
-0.008170794573
-0.2376684377
-0.009140939461
0.2376833162
-0.2373598776
0.008817500884
0.009444789687
0.236659005
-0.009463125327
-0.2372018586
-0.01218235352
0.2369057496
-0.2349335995
0.01021652038
0.02264833047
0.2278549655
-0.01543208795
-0.2330852147
-0.02390918541
0.2328966333
-0.2303510112
0.02139292985
0.03394129525
0.2255430275
-0.02600833377
-0.2302532364
-0.028388676
0.2191050009
-0.2187547658
0.0280552464
0.03901381418
0.2190881459
-0.02952346216
-0.2155087649
0.00716749038
-0.007436392403
-0.2388742079
-0.008229950251
0.2388179726
-0.2385564229
0.007968400565
0.008604795756
0.2379899597
-0.008487511641
-0.2383886521
-0.009229079876
0.2379693544
-0.2377278564
0.008987581818
0.009813985183
0.2371972819
-0.009464648038
-0.2374593637
-0.01009352146
0.236829921
-0.2366454323
0.009909032775
0.01521469524
0.2354481941
-0.01020846645
-0.2360821035
-0.01026560614
0.2209811717
-0.2208812282
0.01016566261
0.02224972149
0.2197367582
-0.01068198798
-0.2195351733
0.006488648011
-0.006713402572
-0.239882504
-0.007364651444
0.2397382834
-0.2395256722
0.007152040182
0.007762018214
0.2390662324
-0.007572127185
-0.2393398436
-0.008160003489
0.2388016661
-0.2386117275
0.007970064867
0.008726017102
0.2381965222
-0.008343269348
-0.238318076
-0.008804554764
0.2374165258
-0.2372887751
0.00867680407
0.009586726227
0.2369970916
-0.008874181804
-0.2364640016
-0.008986499161
0.2214726251
-0.2213419702
0.008855844329
0.009820300309
0.221094358
-0.009315207179
-0.2210582756
0.00583964361
-0.006028017541
-0.2407261423
-0.006565751201
0.2404898659
-0.2403156522
0.006391537457
0.006957472758
0.2399404453
-0.006734597124
-0.2401087255
-0.007207377146
0.2394625972
-0.2393107926
0.007055572472
0.007733246595
0.2389810202
-0.007352515663
-0.2389903076
-0.00769994577
0.2378319117
-0.2377406234
0.007608657506
0.008396965907
0.2375337901
-0.007744111092
-0.2367002037
-0.007886396106
0.2220211725
-0.2218816186
0.007746842195
0.008562703794
0.2216066849
-0.008148734894
-0.2222692151
0.005233110292
-0.005391489959
-0.241434141
-0.005838393892
0.2411087537
-0.2409648101
0.005694450309
0.006209504041
0.2406557952
-0.005977213533
-0.240736673
-0.006362638497
0.2399956842
-0.2398725099
0.006239464165
0.006840749134
0.2396064416
-0.006479415206
-0.2395257457
-0.006745774041
0.2381321012
-0.2380656014
0.006679274217
0.007362187252
0.2379160679
-0.006774931835
-0.2368517686
-0.006941235512
0.2225822694
-0.2224422617
0.006801227814
0.007494481766
0.2221613794
-0.007149789563
-0.223234104
0.004676257813
-0.004810018447
-0.2420303871
-0.005184071261
0.2416228343
-0.2415028817
0.00506411867
0.005529506928
0.241246147
-0.005299359833
-0.2412548943
-0.005617553327
0.2404319001
-0.2403306135
0.00551626666
0.006049035771
0.2401128191
-0.005712717009
-0.2399586774
-0.005920370683
0.2383537517
-0.2383041978
0.005870816841
0.006465190592
0.2381937373
-0.005941072848
-0.236954141
-0.006126135528
0.223133695
-0.2229974883
0.005989928793
0.00658549597
0.2227215856
-0.006291782863
-0.2240008577
0.004173542297
-0.004287203554
-0.2425351703
-0.00460281966
0.2420537062
-0.2419528151
0.004501928593
0.004918542028
0.2417376401
-0.00469958215
-0.2416869591
-0.00496538333
0.2407932443
-0.2407089855
0.004881124549
0.0053509166
0.2405285595