/*--------------------------------*- C++ -*----------------------------------*\
| =========                 |                                                 |
| \\      /  F ield         | OpenFOAM: The Open Source CFD Toolbox           |
|  \\    /   O peration     | Version:  v2012                                 |
|   \\  /    A nd           | Website:  www.openfoam.com                      |
|    \\/     M anipulation  |                                                 |
\*---------------------------------------------------------------------------*/
FoamFile
{
    version     2.0;
    format      ascii;
    class       volScalarField;
    location    "1.17";
    object      k;
}
// * * * * * * * * * * * * * * * * * * * * * * * * * * * * * * * * * * * * * //

dimensions      [0 2 -2 0 0 0 0];


internalField   nonuniform List<scalar> 
3259
(
37.0057539
37.00661963
37.00243884
36.98859778
36.97649533
36.9666794
36.96073904
36.95713086
36.91071255
36.90939508
36.90876763
36.90842121
37.03279256
37.03853092
37.02312824
36.97517655
36.91231971
36.86296889
36.81023945
36.78979443
36.7351291
36.73062811
36.72854998
36.7275501
37.10433444
37.11570851
37.0836872
37.0056114
36.89206059
36.78064708
36.68152106
36.63539379
36.56683001
36.55678811
36.55205427
36.55017817
37.28756095
37.28959856
37.22453391
37.1021508
36.93760757
36.76730407
36.59465956
36.5045278
36.40871963
36.38947006
36.38014877
36.37654863
37.68636676
37.66143887
37.51926731
37.30423143
37.06068494
36.81530231
36.57227993
36.405815
36.26562814
36.22859362
36.2118287
36.20535913
38.57065061
38.46283295
38.08111039
37.67480638
37.2874151
36.93239968
36.59389973
36.34619749
36.13822226
36.07365566
36.04578596
36.03488092
40.55316436
40.40091169
39.09772129
38.27465684
37.63899575
37.1215501
36.65523058
36.32824091
36.02599609
35.92494407
35.88122049
35.86414662
43.43324045
40.74226525
39.12212748
38.1160702
37.37883258
36.7539114
36.33648676
35.9316132
35.78388414
35.7191508
35.69413459
48.52284824
42.75872014
40.13748643
38.67726551
37.68382396
36.87763471
36.35936834
35.85325993
35.65300098
35.56306503
35.52852668
51.96731835
44.59312522
41.15958047
39.25983004
38.00179136
37.01348969
36.39177022
35.79282217
35.53652733
35.41842453
35.37291677
53.62569778
45.96586842
42.04994377
39.79412359
38.3056737
37.14610031
36.43011081
35.74685097
35.43730307
35.2903784
35.23302904
54.32586619
46.88649997
42.73985952
40.23194155
38.56329323
37.26361137
36.46899718
35.71614735
35.35601922
35.18162989
35.11227445
49.14547849
43.85369009
52.93810636
49.61402972
54.63431207
53.24624193
55.29634422
54.74497637
55.3346977
40.52127753
43.34167083
40.28535855
53.77261777
45.80529049
47.96442828
43.22563383
41.36359873
56.89102295
59.76430117
51.65484413
45.49243189
43.83903084
54.93680736
54.53736232
53.49236014
47.13339171
45.96795184
56.63985258
55.60226841
40.41632936
57.76957472
57.45819953
59.73102397
54.1405176
46.87927467
52.94695567
58.30322084
54.65937959
56.62155819
51.48257011
57.92196101
56.50300587
58.48496584
58.0683575
51.22645005
55.40690875
55.03099681
54.176785
57.00611361
57.26186815
56.42907935
56.96137178
53.99003493
57.39425304
56.75683994
43.28472759
45.21392648
57.80839973
39.96450512
68.07716287
49.76810955
57.24568555
54.28593295
48.18282832
47.44986839
67.62350168
47.42866042
45.69189458
45.34690717
51.85205404
46.20601094
45.20411343
41.71789506
55.0986889
57.58553082
57.73325511
57.29773999
57.55648011
55.03169012
42.37368207
45.17254405
42.32854886
42.37911653
73.98358554
50.38629905
67.71023154
48.4593371
63.25915598
49.42687261
58.93926196
59.12662088
54.63614933
54.61337597
41.45862767
51.52173021
56.23169734
42.22699664
41.382002
54.53468965
42.92576667
56.0912306
50.89365714
48.42868484
59.53001802
57.91617553
57.50818121
55.76188024
55.93072477
57.25051833
55.91646173
55.32387712
56.47408658
56.07485955
57.14012495
58.94939631
53.93530707
52.83047092
55.09223282
54.25623785
58.90639801
55.62989962
55.49515342
55.54824263
41.51150687
44.35832275
57.0758873
41.31273149
41.23845774
69.01416574
51.61411251
67.96931832
40.38100016
41.9222099
57.54667992
43.05340303
50.12322021
44.19758266
48.49803371
44.03773799
44.32592475
57.86238917
61.50763469
59.74705043
59.6658986
54.71937809
44.54909758
44.41491066
50.19433963
49.73335464
54.34021914
59.22414506
63.62446017
61.96451693
55.71895211
50.52042445
48.90287563
52.412193
51.02646628
56.11299434
55.08265632
50.80672254
50.4767536
56.13260281
44.48004092
44.47592034
55.23189431
57.1224671
57.10063258
57.04745849
56.34635407
56.82411332
56.57537361
57.02102225
56.88214602
56.35402986
57.15883401
45.01141568
49.82744976
59.97320312
60.27403308
59.69032917
58.9642553
56.95540461
56.67065663
39.71589569
40.12547181
68.14044198
63.98774961
51.01719126
64.43687094
49.32280802
42.75176674
42.99046188
55.70487896
63.72830208
74.41263588
59.0067991
54.66712284
63.51193067
59.92911653
53.8289454
50.23643367
56.90380104
56.85317007
56.31528728
58.22490143
59.54313809
59.27568786
57.51725979
46.05821551
44.87755532
54.66267297
51.17465936
50.42504709
46.22850829
50.54390199
50.0782302
54.38288533
49.67974942
46.55104635
43.29658539
44.45468693
41.46140618
49.87036629
48.67832268
46.86182678
46.27331225
44.80722922
48.20703388
46.85109507
45.40766128
46.78879665
39.95689043
39.71551792
63.82931073
62.98511104
58.93194387
64.8081113
66.15534959
65.44112471
65.48489764
64.65694134
66.60347267
65.2537714
56.11293859
62.82811139
63.97734434
51.44504725
50.86172428
55.24597516
56.13389385
52.96404304
51.74032285
43.20523588
43.14146772
44.40960745
43.42246803
55.2692949
44.05488167
45.39208056
43.15856714
43.62416658
63.69280593
40.93137894
62.31820403
54.66170631
61.8378777
40.90960444
69.14009052
42.95906123
40.78163832
39.35315824
67.00261645
66.44083268
48.37876556
67.36083057
57.74324257
57.85090315
55.46239409
46.96996098
46.0625422
50.47145578
57.55135954
46.68542992
46.95521055
41.7452876
42.12915142
44.8255413
52.22198286
56.68892909
59.84703936
41.43985719
40.24280026
43.9826969
50.63631359
52.62209161
57.63112575
60.77598323
62.62464711
55.67343845
55.68896094
48.58375325
70.32111762
62.15021873
41.90684425
68.80050238
56.60843523
46.04272362
48.81527404
66.57331642
40.25174131
39.96951061
47.92451363
48.34007019
46.59600243
49.05004146
43.55190053
41.74678567
40.4167713
43.59810522
43.9940925
47.57805936
70.11386011
64.12343793
61.04867808
73.5615089
70.23298252
41.75052184
48.01923814
46.22661702
59.0640502
58.14377683
47.2996408
51.28586366
50.26792741
41.34280569
55.27387002
43.01583293
43.70158361
53.21898276
42.09683147
43.55460778
54.36707668
53.74863021
44.42850191
45.17147752
55.03840313
53.4693132
53.77550629
55.31060912
44.54684732
45.60330876
69.10305289
66.54774583
65.5301381
51.08344484
48.76611465
41.24272622
59.10772087
61.73683922
64.06127154
45.06519776
64.74818941
56.88454182
65.18646531
63.46441803
47.3499431
45.57833107
46.49738363
52.34911804
54.52751675
54.9757812
53.82037532
54.13511353
60.96709762
60.50086933
60.88214784
59.64467914
60.02565847
60.35070829
50.23377022
46.87693332
47.20608278
46.38115062
46.59378754
50.45522925
62.89024889
61.94589641
62.02166425
61.31790655
61.65463622
62.40504154
50.45308722
48.24590551
48.62538326
47.54066032
47.88902603
50.45482787
53.18827788
53.18106487
52.39921608
52.49920273
71.74831675
72.31670473
69.26093259
53.01846108
72.00444069
65.08987068
72.10237248
65.58655112
68.57858267
63.36663039
53.55424313
70.27120865
64.39228942
57.7015327
57.00031244
68.24405182
52.00981737
58.42904229
60.67999736
63.31031207
65.14020079
62.07642398
69.00627699
64.64962337
69.59775036
62.13478616
65.61445108
68.85928853
70.80665417
70.00609147
56.26444355
56.9341857
57.27323937
55.82189193
56.03330498
55.82319027
58.60326515
58.7757582
59.14666605
57.88612518
58.23014784
58.10015248
45.64981323
46.84890115
46.85362772
50.8338008
50.68771248
48.04185322
51.83000522
51.71023638
50.74450001
50.27479649
50.99865905
48.10460909
46.43307091
46.3057486
46.79693536
46.63283785
47.06545456
58.64665246
52.52569024
42.30057942
60.77583812
60.59918179
60.13393876
45.67448316
58.60008329
57.75918904
42.2927084
42.55764832
50.29962541
63.59177522
62.03135176
61.99937378
61.98155579
62.01397631
63.29074284
65.23691256
65.61181559
65.39317504
69.23354871
69.01358538
69.34197494
69.34193144
65.22797482
66.94500839
68.44425943
70.1977893
67.10802203
51.35443292
49.79967799
50.21326665
48.99752561
49.39828798
50.95852708
52.34096166
51.38828032
51.7724224
50.6308423
51.02811321
52.15292917
53.61259346
53.29445502
54.83895492
46.42156695
49.37277498
44.40065627
52.63517021
53.20739985
51.99950829
52.36594158
44.9192322
43.19600799
48.77399918
46.19856279
52.26182098
52.55857297
43.38647348
60.90659024
45.2628683
46.81262572
42.33354803
43.74052024
61.99649093
60.46763092
59.52960037
48.7822037
53.73228888
62.60721454
67.66871245
37.07273677
37.02718258
37.07886072
37.09143796
37.03903016
37.09019908
37.0729537
37.0297567
37.06309478
37.01422099
36.99428235
36.99308081
36.91628732
36.9279339
36.89014285
36.81476081
36.87423035
37.21569786
37.09565004
37.22895324
37.23754719
37.11751209
37.23179012
37.19678501
37.09539454
37.17808889
37.10133326
37.02913984
37.06984783
36.9597606
36.92076818
36.9200402
36.80101474
36.80371582
37.54494058
37.27360607
37.56226731
37.56227513
37.2940517
37.53942528
37.46006874
37.24707294
37.42435408
37.29225643
37.13715113
37.2414261
37.07746418
36.98171065
37.0210492
36.85272354
36.80730434
38.24413957
37.65957572
38.2817613
38.27018336
37.6667818
38.18395353
37.98258615
37.56502411
37.90486213
37.65096378
37.36311476
37.56277149
37.30338824
37.12269038
37.21883359
36.97696859
36.87622518
40.17879868
38.50812372
40.20705691
39.97866055
38.48024709
39.59658323
38.99103109
38.18284527
38.78991775
38.25796247
37.77599054
38.09848178
37.66981266
37.38085051
37.53827256
37.17878265
37.01890099
41.82870846
41.8462997
40.55665909
41.23876695
40.52831972
40.02805409
40.27622748
39.17398347
38.45720603
38.88999738
38.18206707
37.78523029
37.98179352
37.46192258
37.24133955
45.41631575
43.93283702
42.51840471
42.25308499
40.33634894
39.4447636
39.88597272
38.82198353
38.33610817
38.5344664
37.80915388
37.54294845
50.0685879
47.21407833
46.01739713
44.17391999
41.53860155
40.63354695
40.92667054
39.49708303
38.98596069
39.11949765
38.183071
37.9010021
52.75618336
49.54505745
48.80429148
45.6653284
42.58509098
41.811272
41.84978213
40.12784151
39.65791633
39.66933747
38.54181039
38.27246696
53.98211795
50.86617236
50.49800838
46.68699686
43.40657931
42.81096069
42.58950214
40.6517503
40.26642265
40.13337964
38.85473571
38.6249893
54.48078577
52.01989885
51.88771039
43.56884464
40.76267196
38.92148857
48.32526917
49.93304375
51.20738677
44.18387967
45.14695339
44.61835874
52.58758818
54.85696108
55.31173956
51.60021522
52.65665033
50.38640834
54.49288469
56.25801891
56.45903507
55.42848103
55.75202505
53.52569793
55.2301735
56.25322949
56.29331145
56.01290629
56.07159437
54.85460941
56.3196871
56.35681491
55.38765072
55.81807337
55.81148585
57.64109432
41.86402503
58.00790685
55.10436954
42.68569852
42.87339563
43.60075622
40.45542256
41.77175253
41.45866184
53.14476624
54.03710963
54.72742351
46.66083676
47.64183568
46.89685296
45.65741258
44.27747719
46.03664251
42.60104838
43.670062
44.42473762
42.14972512
42.90204645
41.97355294
57.18970691
54.97593329
54.4935918
60.55272171
60.38588585
59.75931196
48.51818273
47.54824776
50.50314374
44.97950769
46.47502764
47.05188284
45.15456711
45.83715426
44.42362681
54.84979267
52.49546044
52.71750764
51.15293562
50.98158274
54.4365349
50.31272583
49.77488758
52.96386195
46.78794788
48.45746073
48.81562507
47.57765806
48.04130374
46.39552977
56.50662997
54.08866228
54.47759241
49.50625406
50.60724076
55.77264596
39.47626822
39.60546342
41.14895763
57.66303119
53.18940409
54.56716767
56.56446194
56.7261709
57.52364023
59.63284979
60.82431255
60.7429817
55.38409702
56.06052125
54.71727869
48.02031216
49.46786685
47.74111175
53.5581712
51.86081812
51.12528737
55.56070865
55.05148351
57.51984599
54.78934739
51.54978464
51.34313436
54.08113549
53.63511353
56.38681352
54.04984519
54.68714521
51.91832571
57.56925281
57.81957532
57.77507152
58.08729305
58.09470312
56.73940352
58.8450142
56.41052382
55.99593936
57.72526012
57.58963164
58.50398188
50.55954569
52.96540865
53.81532269
55.20187641
47.7548886
49.11359468
52.87281263
52.99090009
55.09769471
56.09609002
56.22989434
54.35030653
57.04388399
57.91787959
57.93971128
57.12616181
57.10620211
57.15346016
56.3032288
58.05638263
58.0746083
57.96519927
57.98422404
56.4148343
53.76852834
55.82949501
56.04794472
57.31927808
56.20564854
56.3942487
54.72909889
55.02329151
56.87789992
54.96590611
39.40163735
51.27079269
56.31629756
52.88601717
51.72902142
51.03567416
54.05709889
47.97158875
49.65084022
49.85480448
49.13521291
49.40664374
47.72143251
46.45763985
39.98780203
40.43441556
42.47877496
42.84862828
46.31120669
47.95289877
46.0013934
44.4239019
50.30461471
49.55957084
51.08652363
45.33933967
45.97094384
47.49576337
44.63026778
41.56974067
41.93380017
40.58128063
40.57489239
42.01553438
56.19003273
56.22865778
55.18145987
57.66924405
57.33586811
57.07955629
57.33858126
57.33624879
57.68060316
57.41288349
57.11335154
57.12425109
57.09055614
57.10931441
57.45035567
54.938504
56.11168297
56.15743306
43.54950696
44.50360179
44.83147314
45.41068701
42.28276204
43.42862219
43.15834892
43.73063037
43.57369309
42.28831504
52.371609
55.73679786
51.80831427
54.65310195
49.64448279
47.51713442
59.50459121
57.68650395
62.63244856
47.87527557
49.71184662
51.68703724
58.4063521
58.18509073
58.76376443
59.26619298
59.03729496
58.8390494
51.94440643
51.9560377
54.63973711
54.55896225
51.66187621
51.87474763
53.28154129
53.72688416
56.37395569
41.88572475
41.84251178
41.7441506
43.91753726
43.52194746
41.31884992
41.72132608
41.76096686
43.76508869
55.95597701
50.99898535
51.46533211
50.11870973
44.43034485
45.45875425
40.81755627
41.56767586
49.28127732
59.8315449
60.10780573
58.27554902
57.071212
59.00438899
59.46502054
52.8852418
52.66170911
55.58809487
56.06031644
53.20253905
53.07894413
58.07235856
58.03918279
57.49144774
55.73444513
57.03596598
57.16446649
56.68875712
56.8867901
55.54229597
56.35171732
57.46066627
57.53480544
57.27669998
57.3760081
56.22416179
56.84043247
58.0979951
58.09287645
57.07031634
56.74257778
58.91556507
53.59188738
55.02509241
55.36417974
54.22811191
54.63865397
53.22223238
54.83229808
56.23822709
56.48853574
55.69450731
55.96663778
54.55834169
58.63546651
57.5640911
57.30261266
46.05231563
47.24271531
56.07974333
55.47203007
53.57768444
53.71588095
42.42771826
50.99844756
51.54531633
52.28133259
51.71126416
42.8779282
56.9741318
55.29729288
55.55211641
41.12573172
40.82872
40.67823644
44.85756632
43.5244009
41.07200872
46.49304145
40.77154804
46.98252041
44.91521228
44.29412762
45.60679474
45.82226901
45.2356034
44.01640538
48.9282064
45.75868293
47.02799037
47.6013114
49.50095712
44.2969226
45.46796501
45.07807143
45.89219842
45.72751049
44.39345282
56.13246297
55.47871623
57.50995893
59.72370233
60.11326606
59.92428516
52.07784458
52.2721453
54.75907852
44.36513513
47.21922555
46.95358388
48.14183809
47.64707113
44.34280667
54.35966111
50.85454359
50.83067671
60.75654092
60.84333386
59.46311464
53.2852238
52.5598668
54.63449698
49.99726816
51.06570749
51.66809341
49.80377493
50.45341242
49.45908945
51.97350966
53.29948329
53.77958135
52.24108751
52.78712479
51.50952894
57.18788111
54.51294786
53.9162212
51.97989291
51.76295351
54.93489195
56.20260168
53.32096386
53.05444295
44.48547214
48.77417806
48.52159004
49.16737813
48.97793844
44.46951804
55.17170853
53.07613657
53.16811189
57.87873594
57.89565091
57.07755498
57.08718993
57.83995246
57.8351083
57.83886707
57.84151829
57.0724435
58.02018296
58.03944576
56.30464338
56.74900487
57.69669751
57.73494135
57.59781847
57.65167284
56.67221004
56.98058041
57.81465954
57.82936317
57.76753683
57.79403514
56.93968896
56.3861455
57.98973979
58.00846477
55.78622711
56.00841973
57.2465567
46.13879771
53.31724142
52.89787769
54.22271155
53.78608025
48.9796105
54.55905268
58.15909972
65.59345641
39.82621528
40.9927605
40.45375746
42.91100141
41.69566011
39.93449754
53.80367958
46.6943726
41.05413584
41.53890982
40.55910378
40.76392585
44.57924363
42.62029955
40.61374655
40.71039196
57.26833099
60.41274977
62.68051098
57.24369017
59.44351362
56.40021039
63.8247036
65.61065055
61.46210683
52.24096904
54.26806283
56.18627256
51.59159905
53.04219487
51.47249328
58.9192177
55.35032582
54.02695477
58.52521157
57.58092165
56.91944923
59.60199921
59.40972956
59.42828664
46.86649961
46.85079586
45.22083908
54.65417225
51.95706262
51.99456968
50.98981434
51.31383678
54.47120941
42.22090642
42.03978032
41.66428207
49.52280673
45.42967535
45.91792191
44.34624049
44.86458035
49.06851762
45.77206191
42.46005591
42.62398387
42.38413645
42.38166468
45.20908083
47.7991885
43.46101097
43.84060027
42.88720553
43.12614368
47.25961598
44.61247246
41.90777081
42.06695565
40.56516191
41.20685306
49.78476987
39.86997177
39.70641533
39.59765047
40.08629026
39.84192769
39.73958726
58.61663586
60.37014255
60.56915883
57.87468824
58.46733169
56.5920704
63.47420634
61.03564743
60.44114163
61.88433482
61.53439927
63.93387041
55.41199118
52.43524277
52.20522142
53.09152505
53.19948742
56.13385811
43.14069714
43.80651687
43.34610504
45.07929904
44.4666848
43.12723677
44.09649283
42.60655358
42.47937658
42.97732183
42.77627906
43.72604446
41.25517619
41.01020835
40.98073408
40.9558516
42.32173298
41.649407
42.24895638
41.39156288
41.51456267
40.2501555
40.7208455
41.41855377
39.64050045
40.15249887
39.77326266
50.03401638
50.18926374
48.53732318
57.80167442
57.34689204
57.34261553
57.37453733
57.35676893
57.81208913
46.83287712
48.27961704
48.69596092
47.03328959
47.6589544
46.83651247
57.05927005
49.42593711
49.49485328
50.6370373
54.4631913
63.92866106
46.81201195
48.31361048
47.8332164
48.95007233
48.81651595
46.87315244
42.88548477
42.62903132
42.04995386
44.10348679
43.19535566
43.32990793
52.75158934
53.38726552
52.81636994
57.8471736
55.37767189
54.49319615
57.09830337
56.19089607
58.79165836
40.99952919
39.56914625
39.6735345
39.52664112
39.52796905
40.54055739
42.2441165
39.77003448
40.09634981
51.33015518
54.95996404
54.60453483
55.5722437
55.27482371
52.00037263
61.61594467
58.67935425
57.87131618
59.91783986
59.26642625
62.04564979
55.12191225
56.66992644
57.28969501
39.89340774
40.08806782
40.54450856
40.40653907
41.06105947
40.88053104
40.01067631
46.69019682
43.6436175
43.41767694
47.7592038
48.48552692
49.14983799
49.89395322
48.6646206
47.94530524
40.92219771
41.18004682
44.08191043
41.11160476
40.30478331
40.42905449
40.31755306
40.29355271
40.69531416
43.68926037
44.0744395
43.99912935
44.55709475
44.43272501
43.81130281
46.28372476
45.09015732
45.78836304
50.95137874
47.59910979
47.95323853
46.49942128
46.97022094
50.58679707
41.28990778
42.93829184
42.61497292
53.27803401
53.41392348
55.37934396
44.74267901
49.75922518
49.42645884
50.57566615
50.19485201
45.14024318
45.79624204
46.78882005
46.3861658
47.36848037
47.15885828
46.18089335
50.83080034
48.27712572
49.22928128
37.01940573
37.02242678
37.00683638
37.02190985
37.01758726
37.00518401
37.00979363
36.9937027
36.99559293
36.97343617
36.95128358
36.98249737
36.93247658
36.91666432
36.97117505
36.90426393
36.89252462
36.96346893
36.88401039
36.87771417
36.95873626
37.04499508
37.04920534
37.03610263
37.05228011
37.05022544
37.03732482
37.03352339
37.02334916
37.01577578
36.97850421
36.95964419
36.96026922
36.90028069
36.88149584
36.89909305
36.79694065
36.76470032
36.82381544
36.7418076
36.72464796
36.7987945
36.71230861
36.70604062
36.78359869
37.13780006
37.14624343
37.11217946
37.14685986
37.14180835
37.11172175
37.10897367
37.09148769
37.06810562
37.02231802
36.99292836
36.97852774
36.89691421
36.86348255
36.86091131
36.76449261
36.67905326
36.71561734
36.63051495
36.59487437
36.65563648
36.56881169
36.55325304
36.6213297
37.36443883
37.37268957
37.29540101
37.35685529
37.34220278
37.28117221
37.27944367
37.24959303
37.19845174
37.14103408
37.09895327
37.06424245
36.95984058
36.91146096
36.89280768
36.79914736
36.66676426
36.66285974
36.57175764
36.50330947
36.54371849
36.45309445
36.41954675
36.4771805
37.8520607
37.85763728
37.68941048
37.80336746
37.75520941
37.64665533
37.62598733
37.56877448
37.47058068
37.37844468
37.31176348
37.2447716
37.10642967
37.03856302
36.99873804
36.89933937
36.70289797
36.67839011
36.57876134
36.46140979
36.47658351
36.37290544
36.31026668
36.35607981
38.9675047
38.97851542
38.58186995
38.74342746
38.6145419
38.40359324
38.28482648
38.16139017
37.9793715
37.80024393
37.68687381
37.57527475
37.36125317
37.26048722
37.1953653
37.07089783
36.79343708
36.74100842
36.61989041
36.4692978
36.46268705
36.33323967
36.22969794
36.26069368
40.90427283
40.92350034
40.63510798
39.44831239
39.16560447
38.86480966
38.46488546
38.26708269
38.10278047
37.74486479
37.59137139
37.49995405
37.31189428
36.93238378
36.85679871
36.70108525
36.50481914
36.48367182
36.33073198
36.17894529
36.19614946
44.08210269
43.74288446
43.18134775
41.2364362
40.64589865
40.23509545
39.37337765
39.04959482
38.83483138
38.24963086
38.02641115
37.91203141
37.60595509
37.11314601
37.01759646
36.81381855
36.56228963
36.53081054
36.34704924
36.15200536
36.15970083
49.07522774
48.07508851
47.58030061
43.25119784
42.32262752
41.90500893
40.40749635
39.94105143
39.70697782
38.82626973
38.52388464
38.3956995
37.92449831
37.3171675
37.21294708
36.94546325
36.63568086
36.59691927
36.37531114
36.14403555
36.14414573
52.25755716
51.09248475
50.79648907
44.98079743
43.82861754
43.48073094
41.41164772
40.81624232
40.5959905
39.39920751
39.01921539
38.89902445
38.23418727
37.52015175
37.41912604
37.08125508
36.716758
36.67502212
36.41176735
36.14776021
36.14514786
53.76327601
52.67791939
52.52498231
46.23146269
44.97951514
44.72442017
42.24941431
41.56248866
41.38209305
39.91394108
39.47004685
39.36584464
38.50590239
37.70395484
37.61526565
37.20760735
36.79622444
36.75595407
36.45244983
36.15591451
36.15225963
54.39239786
53.40010598
53.3512734
47.04766806
45.77008702
45.60489006
42.87808874
42.1327578
42.00573242
40.3257231
39.83509456
39.75173446
37.7840717
36.83108342
36.16165387
40.92911283
47.07164162
46.53333517
47.33199428
50.48922507
50.14671175
51.30887911
52.38466838
52.2051709
53.32916141
57.73506581
57.32789111
57.42859744
57.20692743
56.95608458
58.0843486
57.78902656
58.22663212
58.27332859
57.49366366
57.51956884
56.57051129
58.62750728
57.60158225
57.39418129
58.34429158
58.39464811
58.21308274
57.82806076
57.83539422
57.23035715
56.37614729
57.43632671
57.45329647
57.50607153
53.27064026
53.20918643
54.20819377
46.09275099
45.54838392
45.08007203
57.62747503
57.8054243
57.79464185
57.76294352
57.76410417
57.71336506
57.33519384
57.81145353
57.81672456
57.79349903
57.79298605
57.52108469
42.21535667
42.61293515
42.64301731
42.71266602
42.71239984
42.36238035
50.67264665
48.99725535
47.77612652
57.87266093
57.92831904
57.3401036
57.04079037
57.75911996
57.81246987
58.35321898
58.2638988
58.96842123
58.83494241
58.4808773
58.4243045
53.87124281
53.95534683
55.697426
41.72274347
45.00124978
44.55203017
48.07599847
47.5798551
43.86450119
55.08925983
54.79778252
55.31490643
56.48142759
55.65839657
55.32794522
57.39343661
57.39031345
56.33340675
56.36333881
57.3982969
57.39436757
45.43021986
49.0160729
48.50974148
42.73550751
42.23892531
42.38942717
57.76269542
57.76440492
57.76270243
55.42060337
56.38447242
56.4146161
41.86926133
42.46218123
42.32041614
44.47279145
44.08046302
44.17874645
57.57492558
56.86927189
57.00990427
47.15186954
47.79777242
47.17746479
47.21398143
46.32307923
46.50947404
37.05429792
37.0390556
37.08538612
37.06461636
37.05983604
37.07001891
37.06774427
37.08966229
37.0386402
37.0514692
37.0526927
37.0866453
37.06654585
37.06946312
37.05491629
37.0622679
37.08149434
37.03380857
37.04651295
37.04063381
37.04918246
37.03430209
37.04661038
37.00334339
37.02022573
37.03338124
37.00251074
37.01027166
36.99698272
36.9682283
36.96217392
36.98433788
36.91466239
36.94063892
36.94400401
36.94278869
36.93961003
36.91794736
36.86130632
36.86880096
36.89220854
36.82984416
36.8497245
36.83788414
36.88567372
36.86600623
36.85014472
37.1657969
37.12699238
37.23813019
37.18621609
37.1774149
37.18879471
37.18943836
37.24019018
37.11653335
37.1499655
37.1497484
37.2234845
37.17985239
37.18571161
37.15651905
37.17022589
37.2122022
37.10534599
37.13404984
37.12264721
37.1555242
37.12039043
37.14028105
37.07204687
37.0978771
37.1300727
37.05033312
37.07154211
37.04820924
37.03521956
37.0117545
37.04355798
36.94229748
36.97820279
36.99867251
36.95106455
36.96236521
36.92944174
36.87951538
36.86941869
36.90631113
36.79846616
36.83400071
36.83959492
36.83107732
36.83132638
36.7983388
37.43303805
37.34870888
37.56891038
37.45467757
37.44916718
37.44658315
37.45222831
37.56911874
37.29638209
37.37356928
37.36843122
37.51230474
37.43029421
37.44128181
37.37834064
37.40729441
37.48917945
37.26661967
37.32602306
37.30503353
37.38372903
37.31141782
37.34655228
37.23180859
37.27323321
37.33946702
37.16942646
37.2164599
37.18016078
37.18775772
37.14107663
37.18773908
37.03953755
37.09133776
37.13314266
37.02420366
37.05481862
37.00800234
36.96441235
36.93543923
36.98760436
36.8327249
36.8837078
36.90810646
36.84935707
36.86420451
36.81839761
37.98820903
37.82196704
38.29549349
38.04189917
38.03225382
37.99068296
38.02413949
38.2905678
37.68141686
37.85643739
37.84857171
38.10352474
37.95641352
37.98259335
37.8232428
37.89195394
38.04820169
37.60918128
37.72053108
37.67766305
37.82254229
37.68533898
37.75518717
37.54044691
37.61394404
37.73795217
37.41883052
37.50790965
37.44427995
37.4763317
37.38858788
37.46454509
37.235202
37.31215521
37.38999061
37.18454772
37.24419443
37.1749702
37.13642303
37.08451652
37.15949609
36.93825572
37.01077399
37.05587481
36.9372587
36.9715364
36.90553355
39.38001497
38.92070577
40.22430347
39.47384196
39.47566647
39.25028394
39.38511167
40.10581836
38.54483293
38.96914755
38.9149771
39.37558246
39.0601035
39.20401549
38.67969755
38.85194841
39.19692156
38.29107756
38.51840294
38.40675554
38.60264228
38.36613193
38.52023461
38.07810072
38.21924971
38.4264263
37.87763246
38.03956139
37.91860568
37.95000593
37.81101216
37.94218749
37.56351815
37.68415862
37.80761898
37.47695652
37.57621996
37.46684538
37.41288833
37.33452141
37.44759435
37.12013887
37.22541958
37.29326024
37.1057567
37.16302992
37.0680266
41.84061408
41.41688357
41.39678517
41.31927065
41.37730628
41.89562863
40.61771555
40.97373201
40.96235781
39.85376297
39.49224487
39.84306406
38.91489246
39.18700319
39.49143459
38.652549
38.91170495
38.67919434
38.63357743
38.44346062
38.66805841
38.04248837
38.23559168
38.39841343
37.93956538
38.08163523
37.907952
37.7958287
37.6927274
37.8619875
37.38285989
37.53305035
37.62342373
37.36758591
37.44695507
37.3102995
44.86628953
44.28409657
44.69110352
43.38227929
43.82583607
44.32848835
41.48525129
41.05823159
41.74140131
40.02577047
40.49845906
40.86016114
39.81037839
40.15561647
39.73808524
39.49079979
39.258123
39.6166488
38.64981656
38.93843821
39.13868995
38.57441383
38.7576105
38.49240607
38.27188621
38.14511616
38.38657854
37.71680266
37.92255779
38.03082174
37.72102049
37.82037651
37.62923569
48.98421671
48.5350853
49.57955515
46.81513091
47.61345071
48.02731076
46.74409296
47.19371246
46.46412962
43.11583252
42.72470924
43.72530854
41.2340063
41.91258061
42.25490752
41.21263837
41.5700716
40.94262794
40.39034955
40.15619146
40.65492113
39.32469795
39.7172683
39.91704159
39.32677735
39.52823629
39.15920095
38.77729412
38.64916899
38.97079666
38.08901778
38.35604261
38.46611987
38.13766384
38.24773086
37.99522923
51.6048169
51.35162173
52.51556016
49.32390765
50.2806476
50.53536224
49.73994681
50.03076421
49.06456807
44.44901059
44.15021393
45.34049358
42.34134764
43.16777809
43.43962972
42.57193909
42.88159199
42.0895063
41.2072003
41.00839319
41.62948994
39.97360803
40.460875
40.63772133
40.10035251
40.28911148
39.82033359
39.25573198
39.13958721
39.53590579
38.45370423
38.77993546
38.88108051
38.57091408
38.67486913
38.3627811
52.91864235
52.78517946
53.86463021
45.41590111
45.20587083
46.47597113
43.21799111
44.1352959
44.33830587
43.68943976
43.92958256
43.03105725
41.86770025
41.71877258
42.42106074
40.53329035
41.09348832
41.22672631
40.79152856
40.95334944
40.40636559
39.66410934
39.57206435
40.02891141
38.78223578
39.15777083
39.23889147
38.97733434
39.06812397
38.70473862
44.51261568
44.67434456
43.71868168
41.35118835
41.46707896
40.86731516
39.31617341
39.38996326
38.98673324
50.37100712
49.52870446
49.06615846
50.26680648
49.85370461
50.80068836
55.02551703
53.90600501
53.72096346
54.23369046
54.07331634
55.16547789
51.9716298
50.95941273
50.5846043
51.59364072
51.26472967
52.32460549
56.29104852
55.52979646
55.48923107
55.55262315
54.5167468
54.38012194
54.76177712
54.6443392
55.6472368
41.33210813
40.92155411
40.87357419
40.43690814
41.65503108
41.16067222
41.19901988
40.96341793
41.04571841
41.54668124
45.16554255
45.80852042
46.28800335
44.8253515
45.32478064
44.8067703
46.73371726
45.99147914
45.42076574
48.21261512
49.11369042
49.44733485
48.40503788
48.77873081
47.90021609
50.93409626
49.79110877
49.39572757
50.16430383
51.13683108
51.32425662
50.74387636
50.96369546
49.95948671
53.16246065
52.03166538
51.81748566
49.86817439
52.95728586
52.79332805
53.32656608
53.16701289
50.28373723
57.11898781
57.24116344
57.6956211
53.69209829
56.08183595
55.82933814
56.50370773
56.29969997
54.16682992
48.50615301
47.91121019
47.37033812
48.73523963
48.23991765
49.00242117
57.81921714
56.73606604
56.4464302
54.28213537
53.12808655
52.89417178
53.53274673
53.31928941
54.48159615
58.11312353
58.14749992
57.66159546
57.85600731
58.12650843
58.17157929
58.07951424
58.11402821
57.80629355
56.66027517
57.5674094
57.6030304
57.92181756
57.75424654
58.74576555
57.68250271
57.98140995
58.04113767
57.7972399
57.90705481
57.63176183
58.36164495