/*--------------------------------*- C++ -*----------------------------------*\
| =========                 |                                                 |
| \\      /  F ield         | OpenFOAM: The Open Source CFD Toolbox           |
|  \\    /   O peration     | Version:  v2012                                 |
|   \\  /    A nd           | Website:  www.openfoam.com                      |
|    \\/     M anipulation  |                                                 |
\*---------------------------------------------------------------------------*/
FoamFile
{
    version     2.0;
    format      ascii;
    class       volScalarField;
    location    "2.5";
    object      p;
}
// * * * * * * * * * * * * * * * * * * * * * * * * * * * * * * * * * * * * * //

dimensions      [0 2 -2 0 0 0 0];


internalField   nonuniform List<scalar> 
3259
(
744.9430763
748.9015647
757.0946156
768.7162622
796.080039
819.0258769
847.8083044
894.7252769
944.4019562
997.697229
1052.096007
1142.40254
700.8910456
703.4985145
709.0828887
716.6068239
738.8609336
753.151471
768.6748673
800.9200208
828.2058647
850.3934661
858.9827563
884.8321399
654.0403036
655.2244368
657.8681116
661.0670484
678.437965
683.4624169
686.7097104
702.2458795
707.701934
700.8101578
663.0947938
554.4658776
605.594246
605.4691123
605.310639
604.4781217
617.2175575
614.3031243
607.4388931
607.2630864
593.1685228
564.292777
503.2306655
392.6402316
556.7253495
555.511944
553.0159248
548.8401657
557.218156
547.9818509
533.2242841
521.1208727
490.4172581
446.0680295
377.8037562
277.9494821
508.4754049
506.4101061
502.0850483
495.3418241
500.0073305
486.1757476
466.0051164
447.3393545
406.4532925
352.7801116
282.7232149
195.7064101
461.6637733
458.9719719
453.3013722
444.7325033
446.5382025
429.732125
406.4096434
384.3931967
341.9832433
286.9409058
218.5709676
144.6452837
416.8957388
413.7922993
407.2355628
397.5128296
397.2733538
378.8548415
353.9964363
330.999819
289.7518848
238.9970253
178.7565002
115.1618309
374.5866814
371.2629478
364.2322475
353.9264292
352.3375792
333.3569207
308.3141747
285.6571499
246.9141706
201.1933752
148.9212535
94.15208425
334.9854646
331.5964272
324.4303655
314.0119825
311.5710153
292.8300867
268.5620287
246.9731116
211.3956842
170.7110573
125.2195988
78.40187966
298.1948202
294.8580957
287.8109325
277.6346432
274.7456022
256.7820632
233.9887113
213.7798643
181.6061974
145.6479437
106.0909483
65.88928851
264.2014044
261.002949
254.2557253
244.5696432
241.5385611
224.7001638
203.6662746
185.1313918
156.3477315
124.7100644
90.35350834
55.71030686
232.9097112
229.9098904
223.5868856
214.5549368
211.6094726
196.1030004
176.9736534
160.231798
134.7054494
106.981337
77.18327057
47.28104764
204.1688991
201.407313
195.5889556
187.3117605
184.6114916
170.5393039
153.3551075
138.4322478
115.9693387
91.78287249
65.99689969
40.19437225
177.7885979
175.2885822
170.0216818
162.5532923
160.2127531
147.6079157
132.3449034
119.2076025
99.58971179
78.60245485
56.37744499
34.15662147
153.55243
151.3254164
146.6322568
139.9941445
138.0935821
126.9450496
113.5412542
102.123967
85.13317212
67.04819373
47.99942815
28.94718364
131.2308966
129.280318
125.1665586
119.35835
117.9564088
108.2272924
96.60460236
86.81931081
72.25300471
56.81205115
40.62008315
24.39701241
110.590029
108.9140472
105.3746474
100.3825267
99.52230913
91.16242942
81.27160924
72.98545968
60.66518336
47.64363931
34.04989317
20.36963815
91.38934894
89.98408206
87.00858219
82.80814217
82.53895269
75.4830489
67.26590868
60.38215494
50.14397987
39.34716046
28.11133734
16.74499022
73.41686282
72.27500783
69.85044996
66.41724715
66.75178907
60.9462744
54.29087832
48.81176512
40.50535061
31.765333
22.65220166
13.42373701
56.36247099
55.48642659
53.60779216
50.90578159
51.98869409
47.33007809
42.08510036
38.0617102
31.56856061
24.73870827
17.55697176
10.33911113
40.30526632
39.66831508
38.3196334
36.3902751
37.77622665
34.42502158
30.56329733
27.92381767
23.15272267
18.13486427
12.75440222
7.451965345
23.94154234
23.62980878
22.8293943
21.66818436
24.22679571
22.05144706
19.50690739
18.2198097
15.08845237
11.79711207
8.187456324
4.728261094
11.77645618
11.49320527
11.08275235
10.45058842
10.99547896
9.889710363
8.667904791
8.791827938
7.215693522
5.592420411
3.775670049
2.136340836
1156.566513
914.337866
1097.361836
1151.98081
908.0774091
914.6680896
1125.664456
1042.572874
1092.074835
1208.362534
623.2587457
1215.249621
1220.4944
1049.273582
1083.299952
1025.900743
1089.04051
957.2195528
1213.642798
1096.904165
-255.0142906
1151.199842
1116.737487
1067.926789
1174.425789
1131.777725
1158.235778
1257.063747
1226.696479
1187.80219
1239.341786
1264.536282
1268.754278
1260.796227
1049.974966
994.3423876
953.2146507
974.610384
511.9715735
221.8340174
1164.201533
-242.5030262
179.8753528
-156.5551466
1157.834511
-191.7082873
146.9798254
709.1797515
657.1857466
879.6540816
767.3713774
789.9508522
996.8175395
1118.134212
1103.712072
1076.838286
904.0443578
689.1248952
1297.331676
1230.78619
814.5374327
978.0446376
938.139947
1067.225842
1034.51747
1047.472216
188.8800923
1055.47416
468.7427553
734.5249165
549.2592749
601.9427842
1188.090114
1123.527223
1135.849316
1112.268803
1123.54558
1176.906717
1164.87617
1143.72246
1291.501434
1239.074963
1030.543476
1022.317292
986.5029258
650.0595469
564.0781515
1040.590074
300.2569217
448.9407782
349.9802919
1179.147085
-394.5471063
32.67293247
247.2565107
-10.79297455
1122.551223
1193.043995
1172.452747
1184.933198
1229.763044
1218.571084
1200.060898
1225.317214
1232.853141
1226.430641
1079.762209
1206.753526
1213.396352
1218.984948
1102.268633
1244.626221
1225.340267
1236.118268
1285.728794
1270.408957
1251.624304
1272.691512
1282.163037
1276.966267
1253.319141
1256.763079
1264.148243
971.5435262
982.0433672
961.1115717
701.4350308
979.7906587
390.9062461
514.477433
630.2217474
1170.199501
1173.079324
1169.014345
-306.8197201
-149.1081752
-128.0869203
-144.0101013
1149.369454
1156.046726
1164.631221
-46.40710107
1312.077853
1309.282036
1233.688325
1228.931263
1235.179759
1228.744637
973.0810105
1005.935621
1109.702901
1061.339789
1054.693084
1041.197
1069.209508
415.6852768
402.7359392
1083.160197
967.8512953
748.8679549
1189.606328
1203.439107
1198.277419
1112.642498
1287.162078
1275.777457
1305.409901
1298.105609
1243.660205
1249.51165
1245.883793
1252.215915
1246.664417
1266.482698
1259.117873
1025.301795
1007.729304
1011.521074
610.5719815
623.2772453
678.8116995
567.8154206
574.0315548
559.0010403
1023.940435
394.2831725
344.5386802
279.2343219
1173.279935
1174.928791
1179.155263
-373.4325248
121.5043974
64.56713237
230.9336718
220.9016806
232.1228893
47.36231207
-85.13034062
-65.66562314
35.59625073
1134.594316
1148.256638
1141.174554
917.1926865
957.9397838
972.5163716
1017.849451
1033.329932
1081.164848
824.0612995
848.4510949
931.4539662
856.688527
879.83232
984.231135
886.6423343
903.5182105
1038.78376
1005.683087
1009.930927
1085.732131
1101.993151
1123.600168
1166.064904
726.6729412
735.1892675
821.4862685
737.3721316
738.8531921
845.8506837
737.1444607
720.1750426
858.6780397
807.8571467
803.4926613
873.9997717
845.5630743
836.9908635
908.0524004
630.3060837
624.0543137
706.9453581
620.8933967
605.0287063
704.4815262
596.7622219
558.3186805
676.9379503
539.7603804
463.7422604
595.8693421
426.4975091
541.4880366
522.3175682
597.5530959
514.757654
485.9750761
573.7329435
473.6525334
425.9019439
522.5184203
406.1688656
331.2716138
425.3876626
304.0381745
464.712345
436.2931368
498.95922
425.3712959
387.9033434
459.0436836
373.5018471
323.5974799
397.474577
303.6890379
238.2780148
304.9522347
212.9043858
399.1645957
368.6150947
417.9403715
356.7938464
316.1665915
367.4875995
301.046618
251.3754335
302.7219349
231.6608583
176.1539176
219.8527097
155.0848417
343.5217971
313.2302813
353.7418304
301.8382058
263.7842974
301.8442164
249.9192932
204.4429553
237.9568398
187.5015954
138.74662
165.1422863
121.180177
296.3011121
267.4798781
300.9740372
256.8646827
222.2145899
252.4927908
209.8667255
170.0048892
194.907806
155.7702088
113.6778615
131.8319407
98.73401715
256.0728742
229.3635913
257.3047473
219.6835614
188.6613417
213.1674557
177.761539
142.8725984
162.6239223
130.6624733
94.68306658
108.4718935
81.98932989
221.6023851
197.2885642
220.832006
188.5874541
161.0811304
181.2712879
151.484259
121.0114976
136.9753358
110.5159934
79.65628471
90.60652321
68.77078386
191.9007752
170.032791
190.0640348
162.2913863
138.0409567
154.9409245
129.6125816
103.053421
116.1992319
94.01975627
67.47013013
76.37708705
58.07176993
166.1315443
146.6526229
163.8564993
139.8188758
118.5297904
132.865083
111.1530567
88.05237476
99.05588003
80.2703146
57.39037579
64.77558615
49.24895489
143.6115822
126.4069333
141.32262
120.4131197
101.805934
114.1120114
95.37552858
75.33517239
84.68095281
68.63293605
48.91255325
55.13674379
41.85761332
123.7883155
108.7135401
121.7643196
103.4890719
87.31050313
97.99194607
81.73159579
64.41731735
72.45301547
58.65412794
41.67896718
46.99933753
35.58077014
106.2071533
93.10884665
104.6324732
88.58745319
74.61318513
83.98201389
69.80238158
54.92593754
61.92340405
49.99259602
35.42369558
40.03219507
30.18198515
90.48941064
79.21948666
89.48835747
75.34183459
63.37634082
71.6785054
59.26205627
46.5751229
52.74042513
42.38241282
29.94780268
33.98805699
25.48058983
76.31407632
66.7403101
75.97815666
63.45423508
53.32652628
60.76210151
49.84736001
39.14882587
44.63946811
35.62546882
25.09748956
28.68194982
21.33422385
63.42436664
55.4251919
63.81078988
52.68465023
44.24565402
50.97269587
41.34839266
32.46280966
37.41473622
29.54551124
20.74093367
23.96703226
17.61927626
51.61449918
45.07688819
52.7546229
42.84193355
35.96479667
42.10646161
33.60258076
26.34292909
30.88665705
23.97915764
16.76290058
19.71492218
14.22987815
40.68155964
35.50946841
42.61940325
33.74701552
28.32237674
34.00101339
26.45098016
20.66789195
24.88594007
18.80155457
13.07688986
15.81656197
11.09048538
30.40768835
26.53313797
33.21710383
25.21730192
21.1622338
26.49237296
19.75597195
15.32700845
19.30344982
13.93058135
9.630322812
12.19436807
8.156992933
20.61165521
17.97110126
24.36040914
17.08035859
14.32999642
19.43080021
13.36283166
10.26247051
14.03801218
9.311071637
6.383227535
8.801498128
5.39588213
11.13094233
9.663849517
15.87616631
9.175798745
7.674316058
12.65527424
7.14152328
5.38768564
9.02974847
4.872485455
3.292921444
5.597497492
2.772100616
2.274132775
1.820128107
7.607510079
1.664036311
1.137753177
6.016238546
0.9518152624
0.6722857638
4.185890631
0.8047407935
0.4267791409
2.540083933
0.2219137598
1179.47521
1218.283814
1193.856753
928.6768617
973.8559078
959.583078
648.5624863
1109.809279
1178.013693
1141.279995
1225.550532
1189.010941
1119.506801
902.2197399
983.6299844
956.8027233
1009.617003
989.3895773
904.7065256
1094.836692
1016.764157
1040.225702
1060.680792
1108.649586
1086.574075
1100.164609
1095.921154
1086.681336
1202.934166
1195.855777
1201.109415
487.9483245
695.1079013
727.9504038
641.8793333
451.6150923
628.6789315
608.8475744
1220.914126
1215.591951
1209.646133
1276.92927
1291.75325
1207.028494
1230.804139
974.1739805
994.4995184
951.7598032
1077.085
1066.519083
1073.008546
979.3674154
990.9505337
1043.651958
939.034617
920.5817307
1062.920892
1145.686997
1137.633962
1142.794568
1101.082606
1109.660641
1125.364476
1072.589418
1100.354162
1084.776638
1160.620435
1169.245989
1183.087924
1140.384261
1154.942975
1146.378474
1164.315854
1159.700216
1152.973135
1253.1091
1246.142777
1249.811602
1213.855004
1222.212201
1235.197923
1196.365491
1209.294415
1200.902871
1263.653836
1272.744577
1248.077854
1260.609367
1251.672897
1272.024101
1267.209286
1260.18088
1031.43158
1032.309374
1063.219427
990.9418268
1021.367811
1012.698238
466.8592872
511.0409197
547.5075385
253.0747049
303.7330626
266.4181958
132.5275486
171.1816832
211.765047
-153.9736939
3.609510719
695.0500965
748.2726978
757.518332
733.0773663
737.7514692
678.4905563
874.629633
785.1325245
769.0418566
759.8493369
798.0178623
806.2419452
870.993994
784.3421925
726.7276261
918.3757231
846.0305252
763.989344
1113.094506
1105.01213
1109.924846
1094.758119
1099.777237
1108.171977
1081.532632
1090.870779
1085.925805
716.3728919
697.1298283
713.1732794
631.7279614
660.0314295
721.5478197
1303.429446
1307.979116
1302.764931
945.9381763
957.874646
688.3662702
970.436175
982.4985612
981.223252
944.2663015
967.4830789
956.4913101
1057.003042
1061.298406
1071.768705
1037.262179
1049.851656
1046.116911
307.4426633
759.2602847
869.1567795
820.9503155
668.6432036
890.9654481
688.2952356
768.8612304
714.686808
1128.457965
1132.853511
1140.742903
1116.438118
1124.783431
1120.060096
1133.988619
1129.332846
1120.886992
1173.354167
1166.316819
1170.175605
1158.086305
1162.162015
1169.32038
1148.126861
1155.209663
1150.549592
1284.735271
1291.122565
1298.165994
1009.909783
1008.896466
1023.391702
979.4964402
993.0319876
997.3638098
421.6945059
382.2058609
401.7982894
309.8205481
347.8323604
388.0127405
49.02666632
101.2151705
77.48627593
1186.60368
1191.018171
1197.943382
1176.608866
1183.926071
1179.222455
1193.331669
1188.523646
1180.89967
1226.596012
1220.909802
1225.03902
1212.687444
1216.690261
1222.786392
1204.548887
1210.758684
1206.026971
1238.388147
1242.23928
1249.00878
1229.089618
1235.592213
1231.439845
1242.717854
1239.333381
1232.839825
1280.412526
1273.991868
1279.170075
1264.594674
1269.069386
1275.382182
1255.787783
1262.527371
1257.775517
431.7537432
474.8363951
436.3270379
539.3640612
509.0707903
471.7225063
584.7279545
553.864918
589.4431676
-105.2270254
973.6800089
969.0831359
965.6938941
1030.509804
1011.733988
992.2893594
1338.398749
1101.563814
1068.131945
1029.317377
992.0511359
1099.135639
940.0334399
1032.628694
1025.643804
764.848178
787.263678
734.2405639
825.0671349
835.8273319
850.2789717
866.7522285
885.8423223
904.806552
769.0589069
776.3295998
806.7650156
786.1951392
796.6749403
832.5114747
807.7561387
816.4535827
883.5873567
871.703062
882.2333462
906.5275954
915.7892145
927.2955354
957.5592539
961.4930703
972.6248276
1011.181862
1129.866059
1136.52896
1150.153165
709.2060852
713.4505341
745.670857
718.5243085
723.4592669
760.9596803
727.7937706
723.5417472
794.220639
776.1667759
781.6904713
807.7140006
797.901922
802.6478109
834.6072136
812.3542644
813.546936
854.0767111
647.7294156
648.3099516
681.1112661
648.6030554
648.1189377
685.5240546
646.5157594
631.7639685
700.4471004
677.9947793
678.5070037
703.9998616
677.9527099
676.7490644
707.4022502
665.1541311
657.7436238
695.1960692
619.4341127
599.5579965
645.4293366
503.8324906
488.1204276
545.6718433
586.7715438
584.2375845
616.3037848
580.648444
575.7152079
611.4568635
569.5773873
547.1265928
609.97488
584.684109
580.8052508
604.4275559
566.2806928
559.886289
587.8923243
532.9475363
520.4389242
552.8385242
468.7835668
446.2538439
480.7426261
361.550308
314.7950197
346.3186378
528.0379311
522.9709655
553.4271035
516.4170494
508.1330326
541.1882998
498.6554516
472.5260446
527.722164
501.5731891
493.8338368
514.1656021
467.3739761
457.1469965
481.0354711
420.1645736
405.2414308
431.5475447
351.2865086
328.5965827
355.1923754
253.9692893
219.0044812
238.697916
472.6305436
465.7852525
494.0742719
457.2377104
446.8179928
476.660656
435.2824432
407.8367554
455.5948116
430.6169257
421.4830961
438.3993849
388.8879868
376.2649081
394.2487255
333.8153416
318.0958626
337.1374037
263.7331967
242.5090781
260.8911991
180.4619895
154.8633887
169.1085513
421.2367125
413.287714
439.1766092
403.5798543
392.0068067
418.6004477
379.3191384
352.3612899
393.3053341
370.1960742
360.6987403
374.9108679
327.9152185
315.4956964
329.4114376
273.8335866
258.6554044
271.4225588
207.6385394
188.519409
198.9115494
135.4459454
112.4501042
120.6801327
374.133226
365.6338193
389.0879015
355.4360272
343.5211919
367.0014658
330.3647755
304.8548003
339.9741068
318.9509562
309.634127
321.5844951
278.2508037
266.6482357
277.9177592
228.7193885
215.1452454
224.9941841
170.7056962
155.2038385
162.3598974
109.1925667
91.26717034
96.26188306
331.281182
322.6763299
343.8018322
312.4815943
300.7827706
321.4734251
287.7443505
264.094763
294.2972286
275.3954756
266.5760333
276.6756501
237.4175087
226.840181
236.0708947
192.9723282
181.0060504
188.8422588
142.483379
129.4541224
135.3368273
89.84848074
74.88004604
78.53407821
292.5128153
284.1187977
303.0751651
274.2613142
263.1339411
281.3629062
250.697143
228.9741155
255.0529884
238.1827719
230.0325293
238.6280054
203.4637433
193.9701216
201.630676
163.9960393
153.4681558
159.8384648
120.0613565
108.9590296
113.671441
75.01401299
62.31917089
65.17996223
257.534505
249.5636098
266.5570762
240.2596471
229.8738804
245.9927173
218.3368195
198.5976265
221.1810803
206.2123657
198.7978566
206.1635782
174.9067766
166.4755617
172.9143396
140.0676804
130.8313107
136.1014677
101.8760635
92.3685995
96.21034035
63.1523903
52.345262
54.64026555
226.0109349
218.593309
233.8313772
209.980268
200.4370633
214.7088604
189.9033154
172.1477625
191.8339746
178.5706119
171.9034964
178.2647365
150.6290259
143.1939588
148.671202
120.0069659
111.9296953
116.3549304
86.84638349
78.68600466
81.87658162
53.45733814
44.24494943
46.12317362
197.5943173
190.8036781
204.4874658
182.9544005
174.305599
186.9880938
164.811243
148.9636142
166.2380119
154.5029268
148.5653039
154.1023378
129.7729203
123.2503043
127.9626924
102.9670798
95.92639686
99.69225652
74.21924496
67.2082495
69.90119379
45.39652117
37.54320248
39.10768097
171.9424279
165.8132722
178.1299284
158.7559078
151.012435
162.3295055
142.5508975
128.505871
143.7640175
133.393372
128.1519965
133.0096441
111.672186
105.9790921
110.0762817
88.31575187
82.20187206
85.4468156
63.4583095
57.43667575
59.74160171
38.59628323
31.90641707
33.23004435
148.7271538
143.2677891
154.3931362
137.0025445
130.1498881
140.2998424
122.6901293
110.3264153
123.8981809
114.7425985
110.1561076
114.451827
95.81012707
90.87083926
94.46857584
75.57454273
70.29191571
73.12002595
54.17785563
49.00529625
51.00369592
32.78400004
27.09571534
28.23149845
127.6389628
122.8412242
132.9355874
117.35136
111.3605389
120.5154839
104.8584771
94.0486472
106.211888
98.13639264
94.16068248
97.99107022
81.77748948
77.52525649
80.7149618
64.37633667
59.84423257
62.33554079
46.06882164
41.64082265
43.39406566
27.75358362
22.9337688
23.92131251
108.3895821
104.2358645
113.4462394
99.49595922
94.33447067
102.64405
88.75273592
79.34654231
90.34352394
83.22671149
79.81981806
83.26612566
69.24464876
65.62094018
68.47722334
54.42857708
50.57693932
52.79604733
38.90787529
35.13302041
36.68961135
23.34600281
19.2861437
20.15614263
90.7121505
87.17765117
95.63958366
83.15606186
78.78332243
86.39167848
74.12131846
65.97127225
75.97490485
69.72204025
66.84607246
69.9739588
57.94227592
54.89581066
57.47883675
45.49408624
42.26353477
44.26266478
32.51301312
29.31369401
30.71274804
19.42997071
16.04236071
16.82103047
74.35320109
71.41084316
79.25243813
68.07748921
64.43990139
71.47494047
60.6712309
53.71431006
62.87274364
57.3959687
55.01465571
57.87557278
47.65843984
45.14475654
47.5008576
37.3907593
34.72792711
36.54751372
26.70703126
24.03393612
25.31032696
15.88948029
13.10652487
13.81619771
59.09546981
56.70427905
64.03765741
54.02872644
51.0803342
57.64759168
48.08955705
42.35489371
50.84535524
46.05393647
44.13117701
46.77354791
38.21266304
36.19440356
38.36639432
29.96258947
27.81395451
29.4939455
21.34811929
19.17208371
20.35341295
12.63225664
10.40365971
11.06051656
44.62009439
42.79914994
49.76759143
40.79129381
38.53718694
44.71968237
36.25402005
31.66343225
39.66862061
35.47368705
33.98643178
36.46397755
29.42257511
27.86898116
29.9012967
23.05391968
21.38325799
22.95071059
16.3309699
14.6406037
15.74673572
9.600052271
7.888179364
8.501013386
30.8220154
29.59830759
36.2014675
28.18710565
26.59808878
32.50132375
24.9940558
21.47111418
29.11640979
25.46079928
24.38733417
26.74524025
21.11004868
19.99757055
21.93164779
16.5297223
15.30192984
16.79658624
11.59328053
10.37119748
11.41690544
6.757194221
5.533706426
6.108628693
17.75366015
16.8693625
23.25622696
16.04705155
15.11993891
20.78560017
14.16645849
11.61109347
19.01859025
15.83844587
15.1606265
17.4407473
13.10849423
12.41609895
14.29322723
10.23995944
9.452757006
10.89965069
7.074071455
6.305345487
7.306202193
4.068625208
3.312890956
3.8571364
6.110208446
5.565593291
10.45458049
5.140424495
4.779427425
9.288747331
4.397342125
2.431719827
9.214023817
6.468858024
6.172155183
8.393844131
5.274386613
4.974962842
6.822422341
4.043091074
3.704753449
5.141958328
2.710522147
2.395289548
3.341915837
1.50547124
1.196401132
1.72175889
1163.469431
1176.533166
1168.603026
915.6567256
935.1539986
930.6259634
1177.353293
1165.242471
1140.315152
945.909323
940.3591253
910.641329
1114.536941
1087.873191
1098.29886
1047.615641
1063.325684
1056.798416
1230.937607
1238.11893
1011.245969
1015.37483
1031.625158
98.14105741
877.1958122
842.5357251
843.2018945
921.6093754
895.0983696
918.3553955
850.3667849
864.475551
908.0035724
232.4892654
596.5923307
558.9832861
599.1300062
930.1991195
953.6466688
939.3220309
984.1195371
968.5871905
943.7698149
987.3960324
1016.674064
1000.173705
1050.709809
1033.539417
1002.523302
1048.976287
1085.85034
1068.147978
1122.28472
1103.862485
1064.889939
832.0203528
857.0284614
847.790944
876.2838577
866.5386079
840.1755762
918.7895205
893.1238128
904.3494688
864.7487153
895.9187295
886.1285804
914.9422025
905.5595034
872.5066398
970.8588897
938.8015879
950.2143216
892.8455754
932.7268358
924.0192281
949.5351303
941.1486065
898.4650596
1024.812218
983.7376112
995.1615441
1108.284813
1122.571205
1115.083821
1138.132338
1130.186397
1115.766618
1157.966123
1144.265303
1152.302789
729.6514419
755.4925795
751.2773776
763.7290501
759.6973826
732.5461333
814.5991149
787.2465292
792.7116619
738.9195154
770.5013315
767.3938829
774.297204
772.8338871
739.4557631
840.5408231
806.770976
810.0958067
733.6226083
773.0243885
774.1835893
765.1353098
770.0587398
728.0507969
856.8556371
813.3349295
811.7209583
902.220819
882.478727
886.2492569
628.5726788
653.2098956
653.8777171
651.1251698
652.3428612
626.536047
705.623988
678.9029579
678.6575301
616.8137333
646.5136172
649.2503596
637.3526574
642.6218444
611.6102088
706.556908
674.3605729
670.5853343
586.4744221
621.4542571
630.4136961
595.9321767
610.0971477
573.8000564
687.3587768
647.9884677
635.4752321
517.7159462
557.2144325
578.4200876
505.2992344
532.8694716
492.1607439
624.4596521
576.5360345
547.926899
382.1998936
428.0928827
464.089941
374.9287215
336.5024123
460.213182
418.5311172
535.5164739
557.7826675
562.7296045
546.6801297
552.4979978
529.1766271
601.2521409
576.5524804
571.7688286
506.3133262
532.6946722
540.1431331
514.2185198
524.1308958
496.7895645
581.5001457
552.3752917
543.4963968
459.6269537
489.3411834
502.7001766
456.2694241
473.9131706
443.7347537
539.0027954
505.6947691
488.5033966
383.6944188
414.0055053
436.4616178
359.9470642
387.4391853
357.2936652
454.3704491
419.6579174
391.0848017
260.8861066
286.2177358
332.0038196
253.3650549
231.3496219
304.6649482
277.4979865
456.0653358
474.5069354
482.8022881
455.9089316
465.4979071
446.5611364
506.8238183
485.5819791
476.8048965
413.7376794
434.7123014
445.6876737
409.9802273
422.8530482
401.2835509
470.63884
445.9727207
433.6957032
358.0124181
380.720252
395.9705607
346.3507731
364.1918998
341.4283718
415.3569231
388.8382475
370.9577105
281.3457896
303.9433391
326.5827335
258.5598945
280.4305687
259.2659226
329.3538478
303.7549533
280.7620045
184.5347469
201.1049738
232.2686629
172.8738394
155.6472253
210.8129255
191.3379881
389.7648869
405.2768076
414.5813015
384.2332637
395.1805424
379.5932298
428.6147189
411.507165
400.6510094
344.1074451
359.6673481
372.4010416
331.6672773
346.0522534
330.5557687
381.2877441
362.8830362
348.7456293
285.3415173
300.8520219
316.5838451
266.6039103
284.4018423
269.0166171
320.5581538
301.5604306
283.7210328
211.5766541
226.0837401
246.6963672
188.819541
207.3334796
193.6896439
240.093335
222.786237
203.3580768
130.5311622
141.9568715
166.9739132
114.0853923
103.9574356
139.9753188
126.088994
334.063098
347.0901262
356.5989241
326.0866665
336.9293573
323.9679244
364.7080931
350.4989135
339.5783282
289.7891715
302.3019785
314.5464874
275.7466465
289.3591011
277.0937317
316.022597
302.3195004
288.4121775
235.4992438
246.710499
261.5224135
214.9095151
231.2261529
220.3767807
255.2950812
242.8706808
226.1414787
170.1152322
179.0259765
197.2679791
146.4283289
162.4059745
154.0119409
181.7690148
171.6130326
155.4083953
101.1101993
105.9111027
127.3727981
84.09987738
80.1546808
95.63717267
89.0587637
287.2041123
298.1805163
307.4126994
278.1301806
288.4237332
277.5937121
311.5824576
299.7442951
289.2846265
245.7605218
255.9414997
267.2996356
231.7565741
244.0787931
234.1943629
265.4860683
254.4956081
241.8334294
197.1211375
205.875415
219.0279177
177.830474
192.1617193
183.8500547
210.3249839
200.9626416
186.1079707
141.6042668
148.2644856
163.0482166
119.2830067
133.815863
127.7263762
146.8179292
140.1996196
125.3430328
82.41779722
86.61811138
103.696579
68.82948271
65.49973697
76.31672879
72.4624744
247.5729609
256.8809177
265.5622907
238.2709308
247.7846988
238.6638042
267.2270619
257.2979846
247.5761125
209.6467165
218.0415424
228.3496082
196.4215918
207.382964
199.2913263
224.8053384
215.8776952
204.5798115
166.5347304
173.5812805
185.1725577
149.0940364
161.5595819
154.9069735
175.9978449
168.5783592
155.6657413
118.6471262
123.9025472
136.4095681
99.00599203
111.5898953
106.8066197
122.0106613
116.6480742
103.5947276
68.21442427
71.44209292
85.7982423
56.77700893
54.20999061
62.41131757
59.50857946
213.8159175
221.7651994
229.750424
204.8132464
213.4518168
205.7042906
229.9141163
221.5162228
212.6549065
179.6312288
186.6436471
195.8673967
167.5031461
177.1803588
170.4561662
191.5763164
184.2134618
174.2261746
141.6192251
147.4018692
157.5940024
126.0656433
136.8892774
131.4575189
148.5930605
142.594376
131.3801854
100.2462552
104.4904146
115.1669146
83.11097577
93.9426246
90.08888876
102.2828385
98.0012822
86.75549293
57.06058501
59.61663598
71.80827244
47.36299504
45.32479315
51.79476526
49.51647466
184.8608228
191.6992081
198.9407219
176.450364
184.2002056
177.563631
198.2568364
191.094031
183.1231689
154.3682112
160.2980521
168.4728973
143.4360327
151.9516063
146.2850932
164.0217306
157.8592307
149.0648273
120.9717897
125.7925395
134.7270238
107.2341975
116.6222738
112.1123686
126.2803379
121.3405046
111.6118479
85.21321494
88.70675931
97.85642217
70.29509007
79.61501621
76.44515181
86.42512284
82.93814431
73.26069756
48.09449625
50.16592109
60.54947668
39.81947029
38.16363341
43.39338536
41.56073409
159.8325723
165.7615899
172.2567152
152.1778917
159.0652119
153.3312539
171.1701939
165.0080042
157.9087463
132.8507063
137.9242414
145.1231898
123.1209336
130.592388
125.7567871
140.8448921
135.6180288
127.8957015
103.6085635
107.6844788
115.4915779
91.56599064
99.70224088
95.90107867
107.7968392
103.6639507
95.2303929
72.70680066
75.63214674
83.48832539
59.74342449
67.75612898
65.10506208
73.41811713
70.52458486
62.20271933
40.7427825
42.45342621
51.30571686
33.65123205
32.28236621
36.58715635
35.08467045
138.026904
143.2086374
148.9801253
131.209116
137.2812036
132.2840887
147.795552
142.4486929
136.1778371
114.3152529
118.7042224
125.011931
105.7590234
112.2891204
108.1153253
121.1007558
116.6145904
109.8580958
88.81101962
92.30208124
99.10136228
78.32995443
85.37067546
82.12311924
92.25138921
88.74423576
81.44294867
62.13489444
64.62187395
71.3716189
50.9034
57.78675468
55.53838455
62.56409149
60.12667563
52.97629905
34.60827608
36.04483541
43.59033456
28.52339632
27.3744619
30.97391918
29.72210065
118.8798266
123.4432772
128.5271034
112.9248038
118.2392344
113.8480375
127.4500745
122.7709854
117.2726712
98.18179407
102.0165232
107.5144154
90.75091298
96.43090761
92.79107045
104.0862058
100.1937416
94.30923339
76.04415192
79.06960116
84.96742438
66.99994041
73.07112676
70.26175653
78.99574202
75.98067884
69.67658092
53.07230106
55.21517089
61.01260809
43.38664412
49.29317727
47.36271783
53.37667198
51.29641164
45.1588067
29.41007866
30.63411097
37.05957387
24.19853707
23.2214019
26.27257166
25.21478834
101.9315545
105.9836017
110.4223816
96.83590658
101.4523126
97.55982489
109.5905646
105.4607238
100.6751789
83.99948036
87.38294123
92.14456594
77.6385453
82.54952667
79.34324944
89.26806761
85.85604885
80.75979141
64.90449368
67.55496928
72.64281025
57.18219944
62.38617768
59.92965335
67.54770646
64.92403866
59.51325717
45.20404991
47.07329516
52.05090012
36.90764747
41.96846465
40.29072308
45.50095582
43.70408234
38.44281146
24.94290033
26.00028163
31.46002268
20.50297801
19.66125367
22.28114652
21.37565803
86.80294916
90.43200247
94.2699319
82.54867111
86.52326198
83.0418313
93.77714978
90.10019648
85.97003775
71.41068852
74.42529866
78.51522875
66.06451654
70.27676608
67.42384571
76.23187331
73.21135408
68.83053627
55.07793771
57.42620681
61.78224619
48.56840922
53.00443096
50.83149216
57.5497371
55.24272185
50.62246434
38.29157255
39.94103808
44.19754574
31.25259536
35.57461984
34.0990828
38.66759331
37.09655158
32.5985699
21.05295396
21.97824901
26.59877104
17.30481042
16.57043075
18.84865089
18.06372089
73.17741757
76.45725821
79.73497018
69.74238214
73.12538913
69.98266448
79.65110631
76.34705783
72.82040693
60.12513794
62.83807654
66.31293075
55.74064771
59.31550532
56.75071093
64.64853154
61.94697852
58.21806999
46.31298585
48.41694402
52.10807278
40.92910176
44.67306315
42.72909082
48.72087079
46.66926852
42.75838969
32.1471515
33.61965919
37.2437659
26.25877586
29.9266625
28.61297956
32.66742048
31.2773788
27.45294584
17.62016241
18.44134017
22.32569375
14.50026172
13.85003959
15.85913207
15.16952455
60.80011175
63.78835159
66.54302754
58.15610518
60.99226958
58.13125101
66.91502293
63.91919031
60.95018027
49.90966598
52.37377508
55.28316964
46.43474594
49.42562828
47.0979418
54.24943739
51.80847876
48.67614017
38.40872601
40.3133048
43.39660888
34.07424049
37.18898206
35.43132124
40.8349767
38.98890407
35.72391094