/*--------------------------------*- C++ -*----------------------------------*\
| =========                 |                                                 |
| \\      /  F ield         | OpenFOAM: The Open Source CFD Toolbox           |
|  \\    /   O peration     | Version:  v2012                                 |
|   \\  /    A nd           | Website:  www.openfoam.com                      |
|    \\/     M anipulation  |                                                 |
\*---------------------------------------------------------------------------*/
FoamFile
{
    version     2.0;
    format      ascii;
    class       volScalarField;
    location    "2.58";
    object      k;
}
// * * * * * * * * * * * * * * * * * * * * * * * * * * * * * * * * * * * * * //

dimensions      [0 2 -2 0 0 0 0];


internalField   nonuniform List<scalar> 
3019
(
46.73644916
52.50749864
46.20655328
42.55673266
40.28367839
38.64502973
37.28201043
36.44631292
35.64357327
35.25736619
35.06652534
34.98966741
55.89739934
52.47357681
46.50219901
42.89414015
40.50965236
38.77411114
37.34433333
36.46218463
35.60837386
35.19212686
34.98034771
34.89434476
55.62585488
51.9565912
46.55097398
43.04143871
40.62724555
38.83850883
37.37522989
36.46434399
35.56981207
35.13105658
34.90218211
34.80890216
53.56257594
51.13767462
46.41351006
43.05587256
40.63183956
38.84146917
37.37155401
36.4450786
35.5198941
35.06643378
34.82618261
34.72721925
51.3777435
50.27884046
46.05951658
42.89496865
40.54920879
38.80092329
37.3370996
36.39775368
35.4583974
34.99724637
34.74805268
34.64474764
49.32850493
49.35712793
45.56084898
42.58263301
40.3656129
38.69507584
37.2531042
36.31916256
35.37839806
34.91515918
34.66317588
34.55693789
47.72366771
48.36120326
44.96932803
42.211065
40.13349381
38.53926986
37.13584505
36.21644751
35.28340848
34.82259804
34.57007837
34.46263302
46.47295935
47.38381147
44.39563445
41.84152946
39.88073625
38.35476665
36.99497168
36.09435407
35.17406948
34.71835744
34.46698693
34.35913304
45.32032856
46.4925938
43.86529431
41.4851778
39.62189203
38.15517482
36.83763008
35.95740056
35.0537535
34.60543527
34.35643074
34.2487659
44.24979908
45.67494903
43.37036675
41.14586797
39.36461748
37.9487588
36.66948692
35.80952271
34.92309606
34.48258712
34.23635712
34.12922763
43.25420476
44.91953326
42.90500732
40.82338813
39.11285216
37.74039736
36.49483771
35.65398969
34.78652003
34.35488926
34.11182888
34.00545385
42.32038183
44.21690031
42.46515796
40.51568761
38.86826615
37.53303274
36.31680814
35.49348302
34.64287043
34.21905169
33.9788801
33.87330579
41.44350593
43.55987349
42.04764754
40.22072071
38.63120642
37.32839984
36.13759493
35.32999899
34.49781426
34.08271717
33.84558322
33.74084345
40.61978861
42.94271445
41.64978674
39.93688781
38.40135339
37.12738268
35.95865395
35.16508974
34.34695357
33.93843801
33.70374286
33.59974595
39.84674728
42.36013219
41.26933637
39.66298181
38.17820961
36.9303678
35.78094029
34.99976351
34.19900719
33.79865652
33.56661204
33.46333087
39.12011007
41.80877276
40.90438569
39.39798728
37.96122716
36.73742196
35.60501731
34.8348821
34.04398316
33.64851183
33.41836142
33.31566266
38.43650203
41.28588389
40.55336279
39.14105726
37.74990825
36.54847847
35.43123001
34.67080864
33.897399
33.50972003
33.28183156
33.17967893
37.79266431
40.78879463
40.21488195
38.89142045
37.54377431
36.36338005
35.25977318
34.50813895
33.73875014
33.35408033
33.12764026
33.02591155
37.18575651
40.31598115
39.88777564
38.64840843
37.34239893
36.18195476
35.0907717
34.3468147
33.59787264
33.2208956
32.99633513
32.89499127
36.61349663
39.86441529
39.57110469
38.41147136
37.14542009
36.00402895
34.92430953
34.18751556
33.43325341
33.0575944
32.83424443
32.73320339
36.07378293
39.43193967
39.26406432
38.18012153
36.9524937
35.82937229
34.76050318
34.02979836
33.30454274
32.9361445
32.71419047
32.61340312
35.5651145
39.01692018
38.96604729
37.95399397
36.76336858
35.65789462
34.59977743
33.87511566
33.1268321
32.75964035
32.53894863
32.4383852
35.08668422
38.6186199
38.67661617
37.73280097
36.57783647
35.48943138
34.44351505
33.72350244
33.02217309
32.65877434
32.43884074
32.33840541
34.64073066
38.24006511
38.39713891
37.51702498
36.39609448
35.32403108
34.29614744
33.580948
32.79325774
32.43215251
32.21363837
32.11340583
42.35033497
45.74776116
53.94489883
52.52030795
42.73358853
55.51308552
54.41486391
53.96869585
54.13859173
52.88089177
56.99237323
49.24362447
48.52924326
52.1057835
57.28588137
57.07856369
39.58398504
44.94756983
39.41633567
40.51939663
54.30263827
45.90596367
56.13300783
53.80353209
54.33780716
55.55626448
54.67198766
41.19226797
57.40909225
57.34246255
52.62695286
53.28726893
59.75120435
39.5611483
41.38502337
51.17326909
47.47937259
41.19796162
40.36520939
49.19188893
59.99380729
41.23465522
46.65131014
66.46291294
39.58188778
40.47635968
39.59043856
39.5445081
58.63835547
62.02824076
39.45598789
59.80436418
52.8367194
53.1271732
47.3761995
40.82223207
40.51287902
39.51391891
44.52813924
40.04539391
39.54113876
46.78950149
63.38391441
65.75400895
67.41803558
56.77755768
64.47045835
40.41765359
39.70350609
57.03331269
51.71894847
57.94351694
54.15349418
62.97058118
63.0726679
61.00775513
42.46942327
55.36206526
49.40497304
61.63245804
62.70733647
44.47856878
47.27729133
50.89434761
65.15128051
53.37976177
43.00427248
44.59689187
58.57107722
45.00430238
47.27266047
41.47116527
43.1507
59.52381446
46.06606798
43.19489378
42.46613753
40.69515949
40.20856959
38.96286478
49.40986747
56.36414693
55.81611762
52.53974975
47.6789208
47.5072672
46.43966092
43.57639526
43.29293416
42.82310868
40.97730416
40.77895589
40.46440775
39.13582401
39.01027484
56.14998269
57.03547656
57.3684465
52.13163022
47.72949836
47.74905631
46.55523093
43.76963698
43.63830255
43.02262755
41.1473371
41.03298775
40.61209487
39.23184777
39.1647388
51.00552717
51.11241705
54.09321492
52.70287145
53.53859629
51.34891435
47.55039186
47.71070948
46.47550886
43.80468412
43.78634557
43.06274055
41.17636175
41.16162856
40.63890465
39.24416578
39.24060688
48.9216976
50.6062617
51.92664407
51.6171503
52.42794887
50.49701092
47.14863158
47.46495187
46.16304189
43.66086902
43.79192998
42.95173928
41.11293415
41.16976046
40.5817695
39.20865495
39.23905332
46.4551368
48.28816877
49.80607521
50.50854193
51.3456617
49.59597053
46.60811454
47.02567941
45.69694374
43.34479703
43.59538751
42.67125428
40.92075901
41.07475901
40.41758963
39.10563155
39.18976971
44.64752848
45.91962905
48.07971174
49.34978266
50.22177383
48.61361855
45.95936273
46.45410999
45.12002983
42.93226669
43.24655532
42.30447647
40.66876002
40.86127358
40.19425506
38.94560043
39.06968698
43.61714038
44.33957193
46.77388968
48.21488337
49.0600575
47.61966635
45.29576184
45.78844476
44.53468774
42.51830918
42.82743545
41.93294905
40.39467127
40.60143053
39.94491095
38.75339453
38.89982527
42.70669976
43.3906578
45.60069038
47.17789273
47.94628865
46.70800782
44.68500085
45.13847573
43.99426695
42.1230566
42.41750787
41.5727306
40.11550982
40.32491712
39.6866725
38.54429549
38.702265
41.80113509
42.47906765
44.50996707
46.23170288
46.93340061
45.87310484
44.11784054
44.53943405
43.49113719
41.74964546
42.02765477
41.22905733
39.83978995
40.04603794
39.42852443
38.3279305
38.49063213
40.91524701
41.57864076
43.49694562
45.36199756
46.0077819
45.10311042
43.58749377
43.98201062
43.01881413
41.39660916
41.6595856
40.90253179
39.57161531
39.77194267
39.17515506
38.11001896
38.27345917
40.0559323
40.6973633
42.54837058
44.55732633
45.15502622
44.38802823
43.088929
43.46004511
42.57290883
41.06092235
41.31117178
40.5913444
39.31243978
39.50595905
38.92870239
37.89384834
38.05574228
39.2322351
39.84665628
41.65760434
43.80998279
44.36542824
43.72018785
42.61798291
42.96874706
42.15008448
40.74003022
40.97939104
40.29336286
39.06223295
39.24906469
38.68977653
37.6812363
37.84033298
38.4463076
39.03220255
40.82084996
43.11249757
43.63121176
43.09352007
42.17113335
42.50413137
41.74753527
40.43205558
40.66188339
40.00687012
38.82033113
39.00100591
38.45816462
37.47301678
37.62876679
37.70004625
38.25604625
40.03551522
42.45974364
42.94508229
42.50275328
41.74549811
42.0628349
41.36292633
40.1355848
40.35690555
39.73058525
38.58599657
38.76106354
38.23339589
37.26947834
37.42170352
36.99497847
37.5199604
39.29763538
41.84738365
42.30317134
41.9438418
41.33867209
41.64210778
40.99426757
39.84942689
40.06311625
39.46345364
38.35853008
38.52850769
38.01492688
37.07058936
37.21933577
36.33047095
36.82515625
38.60356385
41.2691207
41.6997972
41.41409794
40.94867861
41.2396527
40.63989213
39.57255769
39.77936493
39.20457724
38.13730901
38.30265294
37.80223349
36.87617279
37.02157871
35.70477901
36.17057703
37.95006381
40.72074859
41.12938363
40.91068144
40.57386756
40.85361102
40.29839293
39.30409346
39.50468332
38.95318322
37.92179195
38.08291238
37.59484492
36.68600682
36.82825081
35.11590285
35.55427532
37.33413452
40.19829306
40.58781417
40.43208596
40.21279574
40.4823618
39.96853765
39.04323678
39.23819155
38.70856966
37.71147645
37.86874059
37.39231495
36.49983958
36.63910645
34.56218823
34.97438792
36.75337416
39.70002742
40.07152466
39.97544381
39.86430533
40.12453413
39.64934042
38.78934006
38.97913106
38.47016365
37.50594723
37.65965823
37.19427154
36.3174447
36.45390216
34.0415758
34.42928488
36.20551074
39.22408359
39.57904378
39.5383482
39.52742145
39.77903036
39.3399549
38.54183232
38.72688166
38.23745468
37.30481768
37.45526337
37.00035868
36.1385541
36.27240728
33.55212545
33.91705569
35.68854757
38.76904875
39.10845639
39.11905136
39.20137867
39.44492375
39.03973065
38.30027801
38.48089865
38.01005322
37.10779222
37.25518405
36.81030505
35.96300398
36.09435991
33.09132335
33.43635138
35.2000371
38.33344444
38.65864212
38.71595465
38.88544864
39.12149356
38.74808938
38.06431069
38.24077426
37.78763197
36.91462302
37.05914441
36.62388583
35.79064805
35.91962384
32.65510992
32.98629705
34.73562456
37.91403333
38.22896386
38.32645975
38.5781498
38.80822917
38.46387483
37.83336289
38.00619373
37.56972352
36.72501253
36.86691743
36.44083769
35.6212904
35.74803913
32.21643816
32.56834984
34.26594038
37.48355899
37.82264117
37.92480853
38.25912094
38.50691881
38.16831913
37.59281407
37.77777995
37.34280935
36.52791171
36.67874202
36.25069461
35.44569704
35.57971402
41.75689862
39.93977931
40.2032668
50.34088183
49.54146205
44.69028654
53.85294347
56.59899369
56.68690379
51.5248395
42.13108315
39.45822066
39.45912801
42.97333061
57.1879225
57.06651817
54.22804104
53.97983712
56.75990951
56.73533846
56.7091855
56.76023513
53.98776029
53.50879531
52.41057566
56.9113564
56.04108822
56.50194561
55.85782018
56.86906078
39.46696693
40.09957136
45.16494576
45.95930573
49.97657768
47.70288339
43.40556966
44.27475607
56.99540944
56.53162215
50.20501773
57.22165119
57.12603865
57.2563911
56.62519593
57.00378949
57.15182293
39.41048515
39.32843263
39.70025048
41.3021883
42.05744837
50.51524319
43.99316485
39.55029023
39.91115085
39.37537174
39.68078421
39.48642717
46.78314633
45.71301496
39.67202101
53.89448432
50.59414662
51.31313773
49.80111513
53.4325337
41.67734312
42.52160065
46.82178996
40.3702375
40.75227848
40.95678453
40.66048247
56.63078046
57.01450668
56.08098935
54.03646956
55.78208321
55.46522999
56.64699669
56.01572838
54.19879322
55.30218578
53.14280374
53.62235665
51.98389759
52.57618806
55.00093883
43.64000033
48.66711938
47.73902628
57.4059264
57.49121654
57.54602595
57.34491234
57.42800367
57.38259081
53.80905253
56.92756723
56.72512247
52.99772835
46.71701809
47.11811936
39.72978675
42.78262521
41.29000441
42.273302
41.71491836
43.67167862
43.1562143
41.11267734
50.50156084
46.83839764
47.42038342
44.49982659
39.97056552
40.54179588
39.47032284
39.65134269
42.38934727
40.02209552
39.33517624
39.37499259
39.74073192
41.97890806
41.01826367
46.04315843
43.4536364
40.00563633
39.57437037
39.88370023
39.75674782
40.4288897
40.05914122
39.53232082
40.49491102
39.98554808
39.36541154
50.62176072
50.54197003
52.88235402
47.28179283
48.80303556
48.89805452
39.47567994
39.63662041
41.28847329
40.01897244
39.33542302
39.39165748
39.3805145
39.34563164
39.71836945
40.82877642
40.57167522
39.4880225
45.65895465
43.11268206
43.0309936
42.26159949
45.24698618
40.05823085
40.17250201
40.1080688
39.79022708
39.85733272
39.74260501
39.75437837
39.87863584
38.60492605
37.76852267
37.24130359
36.80437857
36.43692324
36.11966232
47.67791252
51.76231291
51.08495657
52.53290607
50.72702558
50.67996631
46.28385891
45.1931425
45.09379943
42.67319536
42.00274635
41.90550857
40.34410361
39.88241364
39.82552025
38.74946829
37.87502392
37.82766301
37.31603881
36.85089695
36.82881559
36.45759139
36.11792716
36.11947711
56.08829456
57.29033268
57.28758898
52.37715869
50.70234518
50.75417276
46.54654506
45.47717473
45.41437314
42.93941187
42.26076584
42.21575296
40.55424344
40.06474034
40.02518409
38.82864032
37.93800277
37.91181949
37.36283578
36.87778337
36.86652104
36.4660433
36.10638445
36.11478816
55.11989758
55.73228255
56.192167
51.76249249
50.31439636
50.44532877
46.54280066
45.52804398
45.52719799
43.05359256
42.37364382
42.36170117
40.63827963
40.1412194
40.1311854
38.84441895
37.95779271
37.95499222
37.37640415
36.88079897
36.88245356
36.45913418
36.08040363
36.09724107
53.02282726
53.85395888
54.32132596
50.92551072
49.68780854
49.85328025
46.34085567
45.40222458
45.45860848
43.03335269
42.36177421
42.37732382
40.62054189
40.12175978
40.13301873
38.81740809
37.94264493
37.9533692
37.36146084
36.86402058
36.87548777
36.43071331
36.0364193
36.06183757
50.8369205
52.02130799
52.47274723
50.05653898
48.98004787
49.16481163
45.94695029
45.07241567
45.16997691
42.8285517
42.18573907
42.24457058
40.51022865
40.02878287
40.0613821
38.72787354
37.8797687
37.9192968
37.30002116
36.80232678
36.8371937
36.36529965
35.97025609
36.00747163
48.88070431
50.2932736
50.708903
49.11307376
48.17949837
48.38864753
45.41856422
44.60333566
44.73050008
42.4907822
41.88542679
41.9660543
40.31072456
39.85476358
39.90341843
38.581912
37.76610224
37.8279475
37.19798608
36.70713963
36.75783779
36.27327946
35.88176137
35.92939618
47.39042048
48.79066464
49.14187824
48.10865349
47.30610114
47.52647187
44.82144408
44.07207604
44.20307403
42.11787186
41.55328579
41.63702507
40.07150457
39.63880377
39.69526256
38.40286605
37.61994417
37.6962087
37.06789647
36.58635157
36.64905936
36.15961123
35.77465908
35.83132877
46.17709592
47.50285676
47.81123745
47.15339829
46.47205597
46.67355132
44.2592992
43.57090652
43.6927752
41.75096084
41.21995909
41.30271293
39.81620754
39.40363398
39.46343497
38.20599529
37.45347252
37.53866703
36.91798313
36.44697001
36.51829096
36.02903014
35.65197665
35.71612515
45.04513782
46.34479194
46.62383327
46.28173896
45.70777962
45.89294794
43.7385009
43.10454781
43.21816308
41.39869716
40.89563562
40.97557652
39.55721538
39.16166934
39.22236121
38.00068303
37.27470712
37.36524458
36.75461484
36.29454506
36.37187646
35.88574843
35.51711135
35.58699549
43.99446333
45.2896972
45.54509938
45.48066837
45.00254652
45.17383463
43.2514295
42.6675464
42.77435105
41.06373449
40.58449578
40.66096773
39.30106105
38.91983541
38.98003986
37.79244957
37.08905855
37.18247911
36.58275974
36.13328585
36.21463842
35.73335978
35.37297945
35.44719457
43.01526998
44.31685643
44.55296551
44.73924152
44.34744325
44.50695082
42.79278735
42.25487197
42.35596968
40.74516418
40.28713439
40.36023434
39.05100132
38.68188713
38.74088694
37.58462134
36.90026071
36.99487125
36.40609046
35.96642164
36.05026866
35.57481291
35.22247256
35.29955395
42.09600373
43.4156313
43.63474083
44.04861232
43.73502825
43.88447275
42.3587958
41.86304141
41.95919159
40.44082003
40.00233695
40.07244268
38.80829947
38.44963395
38.50711504
37.37919096
36.71085512
36.80551398
36.22724366
35.79641095
35.88160279
35.4124247
35.06741887
35.14656772
41.23274497
42.57674376
42.78106336
43.40204477
43.15941184
43.30013972
41.94643388
41.48951173
41.58129918
40.14876999
39.72857298
39.79605639
38.57308486
38.22368814
38.2795807
37.1772149
36.5224774
36.61646631
36.0480199
35.62502591
35.7107452
35.24794339
34.90993503
34.99003777
40.4219759
41.79176801
41.98345964
42.79401498
42.61589446
42.74898049
41.55312015
41.13217297
41.22008823
39.86752104
39.46452324
39.52968262
38.34495803
38.00399404
38.05834473
36.97918433
36.33611849
36.42900134
35.86960141
35.45351616
35.53918497
35.08261996
34.75064643
34.83155338
39.66091192
41.05305578
41.23363344
42.21946881
42.10063201
42.22698121
41.17671116
40.78926755
40.87372808
39.59593202
39.20916409
39.27223869
38.12340569
37.79025422
37.84315324
36.78522888
36.15232993
36.24388245
35.69272681
35.28271388
35.36795816
34.91737239
34.59134459
34.67201141
38.94533355
40.3567724
40.52701445
41.67549954
41.61058717
41.73086389
40.81538047
40.45926915
40.54062923
39.33302871
38.96162559
39.0228163
37.90788426
37.58206004
37.63360958
36.59529431
35.97137994
36.06149158
35.51783759
35.11318214
35.197748
34.75278636
34.43146945
34.51245255
38.27196051
39.70031937
39.8607944
41.15926453
41.1434023
41.25817905
40.467614
40.14089532
40.21946453
39.07798981
38.72117949
38.78066379
37.69790408
37.37901165
37.42931425
36.40925249
35.79338028
35.8820121
35.34519206
34.9452697
35.02899638
34.58934274
34.27321349
34.35308391
37.6375734
39.08107516
39.2326065
40.66843402
40.69674596
40.80662692
40.13206994
39.83299676
39.90904994
38.83006189
38.48715648
38.5450966
37.49299266
37.18070337
37.22986005
36.22692629
35.6183295
35.70549917
35.17492546
34.77922592
34.86201854
34.42725731
34.11449333
34.19481063
37.03952148
38.49571537
38.63903693
40.20119847
40.26878681
40.37408905
39.80766267
39.53463997
39.60838104
38.58862341
38.2590035
38.31551965
37.29275452
36.98679163
37.03487609
36.04814943
35.44617979
35.53193076
35.00710978
34.61517529
34.69700007
34.26684408
33.95899162
34.03725445
36.47548593
37.94162721
38.07737571
39.75457596
39.8582526
39.95932794
39.49346913
39.24502538
39.31664719
38.35312575
38.03622731
38.09144073
37.09681937
36.79694318
36.84404128
35.87268829
35.27688968
35.36130026
34.84169616
34.4531773
34.53414594
34.10801426
33.80195164
33.88161571
35.94331534
37.41672158
37.54547083
39.32661956
39.46378159
39.56097888
39.18873432
38.96349606
39.03314782
38.12311156
37.81841369
37.87241841
36.90486328
36.6108584
36.65703766
35.70042205
35.11028856
35.19373631
34.67845116
34.29299453
34.37358365
33.95088163
33.65030118
33.72679649
35.44095961
36.91911107
37.04182093
38.91555109
39.08485733
39.1782576
38.89287545
38.68955376
38.75735703
37.89823867
37.60525348
37.65812254
36.71665386
36.4283339
36.47364179
35.531201
34.94555715
35.02943445
34.51662849
34.13398291
34.21585507
33.79447431
33.49359164
33.57515586
34.96527762
36.44593262
36.5656495
38.51994339
38.71981855
38.81063755
38.60525151
38.42268574
38.48888891
37.67819179
37.3964658
37.44828823
36.5319797
36.2491786
36.29366644
35.3647763
34.77998406
34.8695635
34.35366305
33.97361955
34.0621971
33.63679875
33.34361032
33.4252988
34.50945048
35.989721
36.11971532
38.13271853
38.36168868
38.46013096
38.3217649
38.15949832
38.22879422
37.46095711
37.19031773
37.24329204
36.34964134
36.07230446
36.11727922
35.19231331
34.60195116
34.71949252
34.1783814
33.80091275
33.91701717
33.46615342
33.16840728
33.2853671
53.90619845
54.84948706
54.88017318
52.06139855
48.67944141
49.15517273
40.78780812
40.69528541
43.80711309
54.88657086
54.90524222
53.97368681
56.72325688
56.79832706
54.585904
54.32190436
51.56367541
43.01045978
42.37055703
40.21749771
40.22589349
40.12957402
41.07124591
44.58511106
43.43682341
53.07038468
55.22499515
54.97001828
40.55699839
40.36610425
44.96087642
44.84328638
45.95993152
43.06816289
43.89150875
44.01836643
41.81483954
41.69720875
42.34141795
40.6015054
41.12349774
41.2277602
39.76088291
39.68419131
40.12384297
38.90284438
39.27828894
39.34665812
52.92708116
52.38188909
48.58999169
56.20491184
54.84519335
55.18910803
54.09433303
54.48183835
55.98143708
50.77661252
50.75047713
52.52758462
47.6591787
49.11687871
49.15254357
48.99465784
49.05501575
47.55801305
45.36558697
45.27938618
46.37711318
43.48600477
44.32490219
44.41739818
44.13165059
44.2477411
43.41534345
42.14495822
42.08521881
42.74904161
40.92501201
41.47959163
41.5347379
41.31782419
41.39547892
40.84612643
39.98807861
39.93892987
40.41397386
39.09618642
39.50051184
39.54594195
39.40210382
39.4548242
39.05731822
57.18439437
57.260605
56.16804601
57.55665688
57.54132496
57.32621713
50.55168987
50.62811365
52.26671606
47.74334004
49.11222622
49.06506586
49.16658703
49.14692444
47.75310709
45.51681901
45.50493125
46.55600227
43.74586402
44.57488612
44.59589495
44.46768825
44.53219428
43.69346681
42.34322695
42.3070363
42.99275748
41.11089031
41.68339538
41.72127212
41.59760847
41.64576452
41.079676
40.11637523
40.08953555
40.58037884
39.21255234
39.63614335
39.65860594
39.57909566
39.61269984
39.19329207
51.24130016
51.27035572
54.79186562
55.26353803
54.61247655
52.98113255
54.35913529
53.99129293
55.10541927
54.73226329
53.26132654
50.01418834
50.1689696
51.55814242
47.62269305
48.8438925
48.73505342
49.01847234
48.93990483
47.67945758
45.5011894
45.52207266
46.52057084
43.80638811
44.62149645
44.61445877
44.60829806
44.62120248
43.79910632
42.38238121
42.38267005
43.06311457
41.1776983
41.75660518
41.75580386
41.73785419
41.74963175
41.17315498
40.1397029
40.14197275
40.64067084
39.24604699
39.67791165
39.67547414
39.67070536
39.67813912
39.24637142
49.53336703
50.10438776
52.92981368
53.39008321
52.47613048
51.88720652
52.92031782
52.56815397
53.63005351
53.27358258
52.15672498
49.34401629
49.51816841
50.71219349
47.26310742
48.35563878
48.21479545
48.61629981
48.48953057
47.36875958
45.25803307
45.33577108
46.25704644
43.71551776
44.49215852
44.42709802
44.59000343
44.54626057
43.75968999
42.29405566
42.33302929
42.99768214
41.14150466
41.71534779
41.68227533
41.74997382
41.73781487
41.15765915
40.08804897
40.10776885
40.60619135
39.22059641
39.64652317
39.63105572
39.66916334
39.65928462
39.23179401
47.03641495
47.64978952
51.13729967
51.57554499
50.31090229
50.7917703
51.50972365
51.15662019
52.21626252
51.8629426
51.07081583
48.59207911
48.78919357
49.82908591
46.75510074
47.74965051
47.58034136
48.06694092
47.91191641
46.8944087
44.8518366
44.96610074
45.82590448
43.43628986
44.17175578
44.06968107
44.35137082
44.26595679
43.52018808
42.04444227
42.11852195
42.75367159
40.97689591
41.52683915
41.46181956
41.63912856
41.58667406
41.02875978
39.94903766
39.99106408
40.46604486
39.1378233
39.54911664
39.5124194
39.6091013
39.58159661
39.16632528
45.01501568
45.43623564
49.50897007
49.89294207
48.46528274
49.64117163
50.11113574
49.77058564
50.80530178
50.45637688
49.93218914
47.74738369
47.96513414
48.86479818
46.12874931
47.03517046
46.84448249
47.40432552
47.22235298
46.29383631
44.33625118
44.47081545
45.27141245
43.0376222
43.72720008
43.60810234
43.96090162
43.84604829
43.14300545
41.72051132
41.80342882
42.39782213
40.73477459
41.25031431
41.17644913
41.39350625
41.32282073
40.79909938
39.75028956
39.80358613
40.25345825
38.98935577
39.38285533
39.33466388
39.47214373
39.4287916
39.03091081
43.84252866
44.06933058
48.12818341
48.45434822
47.07947852
48.49014664
48.7886703
48.47759579
49.43617271
49.10830411
48.77222561
46.87958622
47.09036426
47.86121844
45.4563927
46.27076799
46.08721349
46.65036672
46.45847999
45.62057385
43.81690839
43.94334042
44.67658961
42.62030676
43.25861309
43.1452943
43.49012686
43.37359158
42.72339728
41.38594691
41.46952532
42.02510959
40.46414157
40.95021959
40.87415005
41.10160395
41.02611074
40.53313814
39.52267572
39.58120624
40.00856779
38.80351977
39.18011481
39.12607784
39.28464393
39.23300987
38.85238043
42.93456106
43.16309066
46.90959346
47.20246382
45.88626295
47.42804716
47.59272983
47.31270211
48.1748278
47.87999224
47.68409965
46.08192991
46.27490747
46.92820719
44.83326458
45.55945764
45.39058141
45.9076051
45.73174769
44.98437353
43.33368926
43.45123767
44.12555799
42.21984078
42.81585907
42.7095767
43.03371044
42.9238982
42.31800323
41.05631087
41.13779432
41.66133991
40.18521282
40.6465739
40.57134473
40.7980902
40.72219078
40.25505402
39.28297664
39.34344399
39.75148004
38.59757102
38.95937363
38.90273055
39.0711931
39.01554631
38.6502425
42.02582085
42.25153608
45.80566751
46.07218831
44.77501651
46.46051323
46.51285893
46.25873145
47.03959653
46.77304442
46.69432683
45.34837807
45.52631163
46.07531329
44.25595404
44.90307931
44.7465475
45.22498346
45.06251367
44.39644879
42.88273474
42.992772
43.61382056
41.84097786
42.40082261
42.30105766
42.6050182
42.50211582
41.93363274
40.73831732
40.81654333
41.31332868
39.90811617
40.348777
40.27581266
40.49659424
40.42238221
39.97688126
39.04044564
39.10101363
39.492742
38.38236284
38.73139168
38.67406178
38.84581314
38.78864506
38.43658738
41.1352109
41.35632257
44.7937167
45.03925052
43.74349208
45.57304621
45.53131733
45.30032151
46.01016257
45.76779358
45.78827551
44.66922669
44.83438466
45.29010908
43.71691897
44.29332831
44.14736956
44.59281589
44.44177841
43.84840084
42.45841316
42.56225295
43.13426824
41.48312201
42.01027665
41.91596812
42.20275777
42.10585374
41.57076459
40.43414599
40.50889258
40.98263468
39.63783736
40.06104345
39.99085939
40.20352511
40.13193303
39.70461894
38.80022528
38.85988803
39.23789862
38.1644546
38.50249687
38.44557938
38.61678504
38.55956376
38.21891819
40.2675885
40.48135259
43.8578822
44.08519422
42.77995475
44.75280515
44.63687946
44.42466607
45.07445653
44.85340969
44.95201001
44.03629338
44.19057818
44.56209953
43.21082565
43.72353351
43.58665078
44.00381465
43.86257197
43.33452037
42.05651882
42.1550607
42.6820978
41.14336786
41.64015654
41.55044085
41.82288065
41.73096353
41.22677843
40.14325946
40.21481144
40.66782234
39.37637301
39.78449236
39.71705654
39.92138212
39.85260121
39.4408831
38.56498552
38.62324622
38.98961231
37.94762753
38.27625442
38.2203464
38.38889703
38.33243675
38.00157618
39.43472471
39.63948464
42.98892622
43.20039908
41.87506653
43.99187201
43.81172259
43.61475289
44.21652324
44.01226245
44.17698056
43.44293779
43.58787515
43.88307269
42.73333243
43.18810313
43.05904943
43.45183429
43.31901007
42.85023728
41.67412843
41.76803072
42.25378666
40.81897725
41.28744655
41.2017193
41.46177441
41.37412195
40.89875559
39.86416474
39.93291734
40.3667208
39.12397531
39.51858997
39.45365047
39.65027377
39.58412542
39.18624888
38.33586605
38.39255191
38.74880524
37.73401556
38.05453366
37.99990636
38.1647614
38.10947793
37.78702654
38.63919963
38.83443549
42.1780937
42.37575844
41.02522777
43.28256666
43.04385092
42.85979615
43.42119944
43.23094197
43.455436
42.88388484
43.02068607
43.24662835
42.28076199
42.68241727
42.56017546
42.93179051
42.80626688
42.39174328
41.3089294
41.39873407
41.84641348
40.50792633
40.94997477
40.86777005
41.11691737
41.03301271
40.58452589
39.59539861
39.66169445
40.07749624
38.88007348
39.26226102
39.19954195
39.38929455
39.32550457
38.94029222
38.11307106
38.16818936
38.51540976
37.52465752
37.83808953
37.784815
37.94563176
37.89168526
37.5765513
37.8828645
38.06812047
41.41691167
41.60293775
40.22721737
42.61882823
42.32457662
42.15133249
42.67875776
42.50037721
42.78054985
42.35494495
42.48456653
42.64737033
41.85005762
42.20274125
42.08652102
42.43952224
42.32039396
41.95582514
40.95901684
41.04515663
41.45751121
40.20869204
40.62603158
40.54698841
40.78639917
40.70582834
40.28245994
39.33581448
39.39990432
39.79875938
38.64391006
39.01447679
38.95376224
39.13735223
39.07566935
38.70226218
37.89640398
37.95001638
38.28897555
37.31993647
37.62706117
37.57513252
37.73189837
37.67930907
37.37065846
37.16741265
37.34233268
40.69979253
40.87512271
39.47786433
41.99708224
41.64653757
41.48311544
41.98060505
41.81235135
42.14897939
41.85261787
41.97585661
42.08072016
41.43872785
41.74606748
41.63519304
41.97169504
41.85822352
41.53986374
40.62274338
40.70561225
41.085031
39.92005643
40.31420567
40.23799191
40.46868383
40.3910971
39.99128131
39.08446779
39.1465769
39.52942771
38.41478697
38.77438947
38.71547931
38.89351842
38.83373233
38.47144303
37.68549141
37.73770272
38.06898125
37.11989576
37.42130942
37.37065865
37.52354079
37.47226347
37.16945965
36.49293073
36.65775008
40.02367235
40.18901948
38.77314746
41.41073103
41.00661692
40.85223537
41.32200401
41.16319919
41.55427056
41.37427881
41.49173675
41.54395622
41.04469005
41.30993192
41.20386884
41.52555675
41.41715168
41.14167347
40.29870478
40.37863306
40.72722406
39.64095165
40.01325553
39.93959002
40.16243418
40.0875318
39.70988311
38.84055933
38.90087589
39.26856319
38.19205721
38.54125482
38.48398128
38.65698915
38.59892104
38.24716906
37.47991816
37.53083172
37.85488921
36.92437878
37.220546
37.171095
37.32031882
37.2702814
36.97283075
35.85772716
36.01292235
39.38627959
39.54216893
38.10980819
40.85526394
40.40117046
40.25475092
40.69988481
40.54953858
40.99144141
40.91767901
41.02992174
41.03418685
40.66622934
40.89234093
40.79062863
41.09893461
40.99510152
40.75947058
39.98570315
40.06297937
40.3826309
39.37046639
39.72212367
39.65075867
39.86652384
39.79404103
39.437326
38.60340448
38.66209524
39.01536906
37.97516433
38.31444363
38.25865772
38.42709539
38.37058685
38.02886869
37.27928974
37.32900529
37.64621884
36.73317357
37.02446271
36.97613023
37.12193915
37.07306058
36.7805731
35.25983079
35.40584123
38.78433355
38.93167659
37.48474062
40.32658867
39.82668662
39.68762959
40.11022636
39.96753355
40.45641408
40.480502
40.58804775
40.54955436
40.30184044
40.49150407
40.39373384
40.68993648
40.590228
40.39168661
39.68267924
39.75754657
40.04996418
39.10777255
39.43985761
39.37058248
39.57993665
39.50963592
39.1727518
38.37237867
38.4295879
38.76911745
37.76358922
38.09337629
38.03894859
38.20322522
38.1481307
37.81600639
37.08321889
37.13182629
37.44251042
36.54602459
36.83273036
36.78544156
36.92807232
36.88026796
36.59243219
34.6975826
34.8347765
38.2149011
38.35437323
36.89544273
39.82240515
39.28089006
39.14868058
39.55033142
39.41474815
39.94622878
40.06142707
40.16457361
40.0876958
39.95030468
40.10596396
40.01183013
40.29689915
40.20098148
40.03704297