/*--------------------------------*- C++ -*----------------------------------*\
| =========                 |                                                 |
| \\      /  F ield         | OpenFOAM: The Open Source CFD Toolbox           |
|  \\    /   O peration     | Version:  v2012                                 |
|   \\  /    A nd           | Website:  www.openfoam.com                      |
|    \\/     M anipulation  |                                                 |
\*---------------------------------------------------------------------------*/
FoamFile
{
    version     2.0;
    format      ascii;
    class       volScalarField;
    location    "2.58";
    object      nut;
}
// * * * * * * * * * * * * * * * * * * * * * * * * * * * * * * * * * * * * * //

dimensions      [0 2 -1 0 0 0 0];


internalField   nonuniform List<scalar> 
3019
(
0.07013206465
0.209312342
0.2799439177
0.3555517641
0.4432466831
0.5693880937
0.7749902741
1.019592305
1.157029857
1.151451598
1.148874695
1.148165507
0.1336982719
0.310585339
0.3904645044
0.4621711034
0.5421644407
0.6629697285
0.8513159626
1.069930369
1.158163865
1.152153701
1.149269704
1.14844624
0.1857971238
0.462401418
0.5995937566
0.6344197793
0.6932556641
0.7977183338
0.967152041
1.159471983
1.159223278
1.152893229
1.149792534
1.148902117
0.2008759961
0.4712029365
0.7293133022
0.9024603203
0.9040120934
0.9760421159
1.126453232
1.168787828
1.160161423
1.153636707
1.150394132
1.149454884
0.1997539312
0.4700755119
0.7311210883
0.9386889152
1.07039925
1.137083785
1.166747724
1.169693632
1.160901935
1.154288997
1.150962215
1.150001282
0.1992491865
0.4692765622
0.7359713185
0.9451914111
1.074778549
1.139416614
1.16774382
1.170206037
1.16142541
1.15482628
1.151501119
1.150535924
0.2078213903
0.4755406372
0.7455662748
0.95180136
1.077765937
1.140774391
1.168190147
1.1703732
1.161704606
1.155183017
1.151899226
1.150944269
0.2222987306
0.486136032
0.7539189881
0.9568834391
1.079805133
1.141463355
1.168219022
1.170262014
1.161842723
1.155467776
1.15224747
1.151302468
0.2351548972
0.4953928966
0.7594223843
0.9606551645
1.081166693
1.141695592
1.167940855
1.169941677
1.161792805
1.155582661
1.15243673
1.151504581
0.2464346809
0.5035552063
0.7631729369
0.963079342
1.081980082
1.141605179
1.167446234
1.16947326
1.16168606
1.155675111
1.152601893
1.151674417
0.2565200871
0.5108059225
0.7660061009
0.9642406717
1.082268732
1.141260291
1.16679926
1.168906002
1.161444753
1.155616649
1.152610664
1.151686604
0.2656301892
0.5172885086
0.7683012188
0.9644610826
1.082047711
1.140690423
1.166041237
1.168275287
1.161213257
1.155586961
1.152638626
1.151708085
0.2739613607
0.5231437832
0.7702289818
0.9640903779
1.081385915
1.13991861
1.165200482
1.167605314
1.160868707
1.1554117
1.152512866
1.151575227
0.2816815547
0.528500964
0.7718854404
0.9633737335
1.080385907
1.138976215
1.164299416
1.166912069
1.160581471
1.155311446
1.152453002
1.151499799
0.288916138
0.5334486971
0.7733307602
0.9624553952
1.079146311
1.137899931
1.163357135
1.166206957
1.160178732
1.155057675
1.152234395
1.151267407
0.2957396228
0.5380645834
0.7746111752
0.9614217439
1.077746542
1.136724785
1.162389329
1.165497876
1.159873353
1.154920452
1.152124531
1.151136761
0.3022142745
0.5424192498
0.7757700043
0.9603298416
1.076246779
1.135480896
1.161408527
1.164790529
1.159437266
1.154616401
1.15184678
1.150842311
0.3084042614
0.5465741603
0.7768443865
0.9592175285
1.074690595
1.134192541
1.160424337
1.164089559
1.159132507
1.154459224
1.151708181
1.150680615
0.3143656076
0.5505852216
0.7778608243
0.9581099264
1.073109886
1.132879421
1.159444081
1.163396942
1.158685439
1.154134629
1.151404735
1.150360236
0.3201373651
0.5544647014
0.778839263
0.9570272275
1.07152995
1.131557745
1.158473218
1.162716998
1.158378186
1.153951755
1.151235686
1.150167252
0.3257446189
0.5582296325
0.7798034713
0.9559900503
1.069971822
1.130240294
1.157515673
1.162046796
1.157962085
1.153653369
1.150953952
1.149870273
0.3312223805
0.5619098151
0.7807844352
0.9550200663
1.068454024
1.128939701
1.156576902
1.161396189
1.157602013
1.153402966
1.150717443
1.149609338
0.3366087474
0.5655413303
0.7818114841
0.9541365707
1.066992386
1.127665906
1.155672906
1.160764999
1.157322032
1.153209464
1.150533766
1.149413595
0.3419069529
0.5691272002
0.7828862649
0.9533463917
1.065595382
1.126423196
1.154868395
1.160221241
1.156847357
1.152871339
1.150213793
1.149065571
0.05212361768
0.06572108946
0.1839236851
0.09787713099
0.05363715433
0.1246995573
0.2504998572
0.1871571782
0.1371413013
0.1042409938
0.1456716718
0.08220987397
0.08024028084
0.09483069472
0.1618017295
0.149335209
0.03546023628
0.06378479785
0.03226194297
0.04278092418
0.109302242
0.06827363141
0.1796077196
0.3879522886
0.2825567673
0.1226159659
0.1141884509
0.04623708271
0.2016784913
0.1681913489
0.09838012313
0.1129022787
0.007032831579
0.02189823692
0.03765735143
0.08778324853
0.01089858231
0.01380972472
0.04256643662
0.01087669271
0.01056908949
0.01400123417
0.01087725762
0.01106578183
0.02316374123
0.01572516629
0.03311323734
0.02606083457
0.01084779852
0.007244415586
0.02460620181
0.01038846534
0.01074622851
0.1912440934
0.2440956001
0.0448829188
0.01538703091
0.02236682555
0.0110316331
0.01702425928
0.03276873046
0.06585483365
0.01078915527
0.007537737504
0.00764217394
0.01097095617
0.01078504034
0.04196734568
0.03551212488
0.01038375579
0.01041287973
0.01039862136
0.01050602735
0.007222207113
0.01057890465
0.0106417698
0.01244985295
0.01096763017
0.01081144062
0.0108191038
0.01063605986
0.01159408809
0.01130878431
0.0109891187
0.01090435778
0.0111241165
0.01282828621
0.01205391337
0.01054323987
0.01101265739
0.01087191968
0.01300468938
0.01177999981
0.01037196881
0.2614138943
0.3168132706
0.3363663937
0.3993732911
0.4236240537
0.508595434
0.08322256686
0.1230028064
0.1229774761
0.2758915533
0.338311449
0.2619930883
0.3566602775
0.4112478424
0.3355908858
0.4293022657
0.4916145151
0.4192708961
0.5139939019
0.5920944186
0.5285665257
0.1477809591
0.2704044578
0.2172652504
0.4574970948
0.5250345061
0.3738585083
0.5356117685
0.5700894063
0.4446924931
0.5837732568
0.6305683577
0.5196934797
0.6501582608
0.7189868424
0.6202149843
0.1240406188
0.110369991
0.1992274752
0.4027544511
0.3933705196
0.4703776317
0.6673731995
0.5944035765
0.7286233282
0.8261697663
0.6236467897
0.8213319965
0.8349236816
0.6752239503
0.8453478724
0.8987716368
0.760862707
0.1273524053
0.1261070829
0.2005690036
0.4031632491
0.4038389683
0.4707188601
0.6687661578
0.6680470569
0.7305856381
0.8925733776
0.8891432083
0.9373512448
1.042802917
0.8967628359
1.069022341
1.12423091
0.95344071
0.1271982592
0.1270078082
0.1986484299
0.4004487828
0.4022283434
0.4689316429
0.6715569044
0.6690584795
0.7343017356
0.8983226329
0.8938526402
0.9433715396
1.048347242
1.044293196
1.073836668
1.127222193
1.125105425
0.1346540836
0.1281694793
0.2047766234
0.404768816
0.4007144942
0.4732436849
0.6795396244
0.6730298111
0.7429713454
0.9061212686
0.9001768972
0.9503081489
1.052373108
1.049489045
1.077121815
1.129088681
1.127778497
0.1502951568
0.1380540034
0.2187684146
0.4158078696
0.4071387552
0.483617897
0.6888493349
0.6821813067
0.752132434
0.9126181265
0.9079045339
0.9557380429
1.055231422
1.053181606
1.079367038
1.13016831
1.129421381
0.1657504715
0.1543472893
0.2321090471
0.426274262
0.418557724
0.4931906619
0.6952995193
0.6906766761
0.7582555137
0.9174702192
0.9139876262
0.9598361865
1.057255441
1.055806929
1.080880454
1.130700254
1.130345107
0.1791500725
0.1692915624
0.2437391076
0.4355186432
0.4286910839
0.5016064283
0.7001873957
0.6966293206
0.762344563
0.9206217895
0.9184181453
0.962600203
1.058600755
1.057653605
1.081825907
1.130845513
1.130768644
0.1908700535
0.1822246052
0.2540984918
0.4437567283
0.4376687908
0.50907102
0.7042314523
0.7012638471
0.7653579434
0.9222661466
0.9211585032
0.9640534691
1.059284654
1.058834704
1.08224577
1.130686418
1.13083298
0.2013067971
0.1935884046
0.2634338465
0.4511517838
0.4456791339
0.5157324762
0.7077003403
0.7051476829
0.7677669359
0.9228783271
0.9224973198
0.9644737403
1.059321345
1.059352617
1.082147937
1.130253306
1.130603676
0.2107284381
0.203751286
0.2719423005
0.4578671663
0.4528899196
0.5217315128
0.7107259893
0.7084953428
0.7697755906
0.9228875495
0.9229248933
0.9642231061
1.058806706
1.059239505
1.081587266
1.129567693
1.130105035
0.2193308189
0.2129505902
0.2798015886
0.4640439261
0.4594584568
0.5272026242
0.7134040696
0.711426142
0.7714932366
0.922558322
0.9228306787
0.9635762139
1.057882204
1.058608891
1.080661965
1.12866475
1.129361214
0.2272751506
0.2213752521
0.2871491438
0.4698023343
0.4655179312
0.5322462299
0.7158044576
0.7140291504
0.7729867769
0.9220318969
0.9224422485
0.9626986217
1.05667767
1.057603368
1.079474023
1.127589349
1.128410792
0.2346871284
0.2291760836
0.2940694114
0.4752291843
0.471190339
0.5369378034
0.7179805215
0.7163687528
0.7743042342
0.921387371
0.9218802803
0.9616875928
1.055292088
1.056345473
1.078107979
1.126385629
1.12729932
0.2416551365
0.2364690173
0.3006254883
0.4803655388
0.476540045
0.5413518336
0.7199820005
0.7184965814
0.7754896382
0.9206774537
0.9212151263
0.9606060346
1.053797206
1.054926735
1.07662852
1.125091701
1.126069698
0.2482700158
0.2433396045
0.3068810982
0.4852629654
0.4816118277
0.545550276
0.7218542473
0.7204617852
0.7765822295
0.9199391888
0.9204952167
0.9594960973
1.052243559
1.053413181
1.07508309
1.123738427
1.124758329
0.2546178522
0.2498795338
0.3128957971
0.4899576061
0.4864554982
0.549595442
0.7236315371
0.7223075884
0.777611195
0.9191972769
0.9197540933
0.9583853572
1.0506663
1.051850783
1.073505941
1.122350231
1.123394212
0.2607645643
0.2561702764
0.3187141927
0.4944860301
0.4911054383
0.553506836
0.7253371978
0.7240649965
0.7785972109
0.9184704546
0.9190142515
0.9572945714
1.049092225
1.05027202
1.071923712
1.120947152
1.122000553
0.2667475684
0.2622691544
0.3243653141
0.4988699536
0.4955956702
0.5572985572
0.7269948519
0.7257561199
0.7795623262
0.9177784035
0.9182941303
0.9562439811
1.047543732
1.048702363
1.070358311
1.1195452
1.120596371
0.2726037243
0.2682052806
0.3298869094
0.5031439156
0.4999462728
0.5609996082
0.7286368582
0.7274063377
0.7805363805
0.9171440359
0.9176142606
0.9552552722
1.046040786
1.04716347
1.068828844
1.11815891
1.119196967
0.2783905744
0.2740105532
0.3353401008
0.5073613169
0.504193922
0.5646557452
0.7303015298
0.7290492347
0.7815536795
0.9165906194
0.9169978448
0.9543494688
1.044601023
1.045674724
1.067352118
1.116801152
1.117816733
0.2841745357
0.2797178819
0.340798769
0.5115945358
0.5083761296
0.5683367055
0.7320381105
0.7307168445
0.7826573858
0.9161453387
0.9164659724
0.9535504306
1.043243318
1.044252667
1.065946047
1.115485758
1.116467597
0.2903813536
0.285328884
0.3466690475
0.5161738661
0.5124950617
0.5723321343
0.7340034303
0.7324120933
0.7839607667
0.9158257154
0.9160243094
0.9528557987
1.04193677
1.042905851
1.06457832
1.114189216
1.11515502
0.04935490208
0.04029895621
0.04227497339
0.08531383891
0.08092042211
0.06095791627
0.1676612921
0.1479938956
0.1565315606
0.09035389828
0.03730871523
0.02519908031
0.03329780418
0.05495285365
0.1535081953
0.1423964605
0.1088345854
0.2172768147
0.1833876917
0.221373904
0.1604929592
0.1757830486
0.2099711816
0.1171975034
0.1024448277
0.1425611663
0.131132383
0.1281663636
0.1276855541
0.1417632359
0.0273719876
0.03822463871
0.06530453955
0.06728092253
0.08423461197
0.07645845906
0.05765269053
0.06182231751
0.1281781392
0.1259664804
0.08746035672
0.1570049459
0.1409261011
0.1451979155
0.1333553368
0.1363086743
0.1530230412
0.0244807836
0.02733877385
0.03773731448
0.01492645079
0.01386856047
0.01100805364
0.0597222202
0.03578208855
0.04120125317
0.02983607056
0.01882562652
0.02150052908
0.06716483282
0.06235125261
0.03538530802
0.1049204068
0.08325883228
0.08776212464
0.07847750111
0.1000361648
0.04957389366
0.05402273111
0.07238113249
0.01838875716
0.01660586909
0.04419598564
0.04342398884
0.2564633794
0.2490667942
0.1547720496
0.3814437626
0.3182606343
0.3246744528
0.2446567374
0.3035676619
0.3292658059
0.1225136629
0.1015789796
0.1058385653
0.09249300883
0.09691382095
0.1182967123
0.05629774696
0.07624213767
0.07161099139
0.1874772671
0.166375323
0.1779111885
0.1503234731
0.1574864868
0.1762126616
0.1034740957
0.1359908844
0.1300936361
0.1079821233
0.07039352534
0.07391235373
0.01926038702
0.01179249406
0.01310002882
0.05061309615
0.04864949373
0.0532514306
0.05175663152
0.03569075375
0.08576127058
0.06951381115
0.07051952264
0.01145207621
0.01701458203
0.01484716303
0.02228017417
0.01960892256
0.01257096841
0.040365934
0.03017271903
0.03282451978
0.02053148359
0.0134253936
0.01479206787
0.01141440188
0.01214479356
0.01796944546
0.03111586172
0.02059868785
0.02288356883
0.01661055106
0.01850506973
0.02827734247
0.01484806202
0.01651245955
0.02701923605
0.2118530874
0.1987171817
0.1786894009
0.2288169827
0.2115276529
0.2256138584
0.03528227888
0.03764873795
0.04735189385
0.01709047672
0.02733321706
0.02489566161
0.03261132428
0.03022795058
0.01965974565
0.04349545556
0.04136142988
0.03002087013
0.06127554323
0.05253645236
0.05262555469
0.04888331017
0.05966850773
0.02284621094
0.02074496784
0.03958511833
0.03067246346
0.03293622924
0.02563120334
0.02816064076
0.03733193657
0.5400190197
0.6394703516
0.7465120316
0.859612738
0.9868432544
1.136234166
0.07463136837
0.09401576619
0.08982245615
0.2263962817
0.2464912793
0.2272291271
0.3012953317
0.3201964951
0.2981191276
0.3772358245
0.397323024
0.3762885973
0.4650098918
0.4911170374
0.4697286049
0.6247192714
0.7205919901
0.6742070041
0.8088108372
0.9133143932
0.8853855377
1.023913867
1.158969363
1.128487242
0.1384041583
0.1777418699
0.1693850831
0.3548220005
0.3740137799
0.3299262813
0.4314123558
0.4480888501
0.4085161031
0.4978493113
0.5164452069
0.4809010104
0.5750337715
0.5986359558
0.5668367295
0.7441138062
0.8293452983
0.7720905934
0.9045159502
0.9979706414
0.9521358861
1.087755131
1.164549674
1.163913124
0.1916451742
0.2679915891
0.2626760978
0.4661031541
0.5345095294
0.5312962755
0.6757475515
0.6749157027
0.6068709151
0.6908823762
0.6999882991
0.6466485387
0.7396822114
0.7576859506
0.7131103423
0.908672461
0.9703090197
0.8952720525
1.04008787
1.117715116
1.054050807
1.168058174
1.165662033
1.165165441
0.2014100194
0.2740658521
0.2743531911
0.4714241617
0.5387791992
0.5386214997
0.7297979066
0.7876486956
0.7870010506
0.934652824
0.9742561869
0.8941923416
0.9674564983
0.9753249557
0.9144623218
1.119983695
1.157556269
1.056856038
1.165955594
1.169433183
1.168723569
1.169301071
1.166561086
1.166163705
0.1990438788
0.2695478065
0.2706631866
0.4694710252
0.5378680254
0.5380401416
0.7319053362
0.7907858447
0.7897329683
0.9401262691
0.9801217846
0.9786171843
1.071658003
1.093355187
1.092293099
1.138942352
1.15943539
1.158635936
1.167324095
1.170410356
1.169989082
1.17001159
1.167177103
1.166931552
0.2004437717
0.2693750652
0.2686097079
0.4700589923
0.5399355653
0.5389193043
0.7380156111
0.7973279274
0.7952543191
0.9470079769
0.9865337685
0.9850021458
1.075635122
1.096655508
1.095953497
1.140510146
1.160448526
1.160029678
1.168027064
1.170879587
1.170698466
1.170340183
1.167497207
1.16739411
0.2112662484
0.2782786974
0.275299936
0.4782874752
0.5481232133
0.5455850733
0.7479628195
0.8068068757
0.8045884984
0.9532008635
0.991663117
0.9905134924
1.078351829
1.098830379
1.098370187
1.141342128
1.160864637
1.160718926
1.168249757
1.170950608
1.170955739
1.170356555
1.167562213
1.167584574
0.2256921735
0.2908623694
0.2878665025
0.488567821
0.5571947177
0.5550721923
0.755524052
0.8140223754
0.8124698573
0.9579491921
0.9955333286
0.9946671619
1.080201864
1.100231881
1.099940183
1.141672001
1.160860444
1.160906095
1.168112205
1.170726651
1.170867833
1.170130499
1.167423453
1.167542642
0.238106272
0.3019888249
0.2993247541
0.4975289285
0.5649667327
0.5631197197
0.7604830227
0.8187059902
0.817740606
0.9613896851
0.9983533727
0.9977458572
1.081419581
1.101077906
1.100910688
1.141652675
1.160561884
1.160741849
1.167716057
1.170292428
1.170529945
1.169727848
1.167129516
1.167322129
0.2490593803
0.3119623673
0.3095651235
0.5054485552
0.5717993401
0.5701692787
0.7639473255
0.8215790626
0.8209812499
0.9634787037
1.000110633
0.9997721253
1.082101756
1.101477118
1.101416904
1.141366973
1.160052349
1.160329751
1.167138844
1.169711776
1.170016026
1.169203631
1.166731542
1.166970432
0.2588826926
0.3209785423
0.3188035401
0.5124940623
0.5778492781
0.5764033623
0.7666223953
0.8234418085
0.8230400549
0.9643695742
1.000841926
1.000745857
1.08225978
1.101457123
1.101500926
1.140851032
1.159381171
1.159734844
1.166432194
1.169030642
1.169380627
1.168600195
1.166261747
1.166533394
0.267780229
0.3292153467
0.3272205743
0.5188066472
0.5832382656
0.5819461142
0.7688137204
0.8247548955
0.8244635224
0.9644125974
1.000759095
1.000840989
1.081920025
1.101035633
1.101176388
1.140127104
1.158578597
1.158994718
1.165629722
1.168280864
1.168662106
1.167946467
1.165750686
1.166038148
0.2759444109
0.3368207517
0.3349707714
0.5245262896
0.5880885318
0.5869199432
0.770666435
0.8257375836
0.8255157222
0.9639370504
1.000128831
1.000324875
1.081163723
1.100264969
1.10048637
1.139224129
1.157669874
1.158135955
1.164756234
1.167484963
1.167887023
1.16726261
1.165209599
1.165510475
0.2835337091
0.3439146895
0.3421848047
0.5297744882
0.5925082312
0.5914387626
0.7722653587
0.8264985855
0.8263253303
0.963159428
0.999159942
0.9994254353
1.080095236
1.09922066
1.099503138
1.138178077
1.156679731
1.157183459
1.163832422
1.166659805
1.167074786
1.166561463
1.164656297
1.164958916
0.290659467
0.3505703109
0.3489432969
0.5346317083
0.5965760849
0.595588419
0.7736652708
0.8270982018
0.8269608536
0.9622056112
0.9979880199
0.9982946605
1.078808951
1.097977286
1.098303149
1.137024812
1.155631056
1.156161367
1.162875689
1.165818348
1.166240086
1.165853315
1.164091509
1.164399392
0.2973898735
0.3568574776
0.3553163116
0.5391761351
0.6003566495
0.5994348392
0.7749113417
0.8275809675
0.827468957
0.9611528946
0.9967002903
0.9970294831
1.077379246
1.096597237
1.096952166
1.135795742
1.154543312
1.155090881
1.161900225
1.164970594
1.165394379
1.165143989
1.163528195
1.163831012
0.3037875964
0.3628452318
0.361371862
0.5434751811
0.6039122644
0.6030411697
0.7760459693
0.8279858091
0.8278900315
0.9600529573
0.9953550354
0.9956943826
1.075861844
1.095129315
1.095502373
1.134516638
1.153432271
1.153989558
1.160917177
1.164124161
1.16454608
1.164439993
1.162963634
1.163267347
0.3099161938
0.3685980565
0.3671789121
0.5475907125
0.6072934793
0.606462487
0.777103799
0.8283431205
0.8282569399
0.9589397683
0.993990467
0.9943318869
1.074296834
1.093609982
1.093993035
1.133208153
1.152310306
1.15287127
1.159935308
1.163285035
1.163701935
1.163743345
1.162406098
1.162701575
0.3158282157
0.3741543845
0.3727812745
0.5515679424
0.6105357615
0.6097362825
0.7781088611
0.828674043
0.8285927913
0.9578365636
0.9926329413
0.992970459
1.07271418
1.092067396
1.092453923
1.131887371
1.151187475
1.151746595
1.15896174
1.16245806
1.162866253
1.163060197
1.161857912
1.162148312
0.3215595726
0.379538742
0.3782055597
0.5554168314
0.6136681304
0.6128937806
0.7790811853
0.8289971995
0.8289159285
0.9567632429
0.9913042009
0.9916325382
1.071137855
1.090524217
1.090908993
1.13056771
1.150073802
1.150624635
1.158002364
1.161647508
1.162043145
1.162389705
1.161313752
1.161595505
0.3271395509
0.3847761877
0.3834720178
0.5591591003
0.6167186041
0.6159612939
0.7800466099
0.8293365696
0.8292485929
0.9557408564
0.9900253386
0.9903392334
1.069588158
1.088999372
1.089377912
1.129261752
1.148977568
1.14951432
1.157061596
1.160855975
1.16123383
1.161740019
1.160799652
1.16105981
0.332618442
0.3899140211
0.3886144477
0.5628299271
0.6197375589
0.6189797954
0.7810378975
0.8297214028
0.8296188495
0.954791059
0.9888167802
0.9891112391
1.068083087
1.087509767
1.087878025
1.127980068
1.14790106
1.148420946
1.156139478
1.160082289
1.160443478
1.161102171
1.160266995
1.160525799
0.3380638083
0.395018673
0.3936705134
0.5664883768
0.62277188
0.6219880576
0.7820910951
0.8301828942
0.830053021
0.9539347486
0.987697679
0.9879666131
1.066638884
1.086070651
1.086424254
1.126733308
1.146826847
1.147357865
1.155210661
1.159301744
1.159683337
1.160463021
1.159783594
1.16001873
0.3435642367
0.4001837502
0.3986416327
0.5702222279
0.6258960481
0.6249801959
0.7832709244
0.8307777524
0.830553485
0.9532046323
0.9866965556
0.9869130384
1.065278609
1.084704299
1.085024562
1.125506698
1.14570857
1.146391629
1.154262345
1.158514529
1.159012949
1.159819766
1.159242707
1.159573537
0.1762563964
0.1683002306
0.173046479
0.09642963672
0.07318596683
0.08013214589
0.04555949056
0.04593432768
0.05806310354
0.1830768066
0.184624538
0.1941162345
0.1361028564
0.1421759002
0.1110191822
0.1077920772
0.09363209735
0.05333637586
0.05052508185
0.04061670033
0.03223014531
0.03055578023
0.04662230228
0.05938929102
0.0549520997
0.09926452692
0.1117183783
0.1117833856
0.03614706043
0.03465623582
0.2791853505
0.2627554807
0.2456522331
0.2987935668
0.2804873019
0.297598676
0.3560648973
0.3387301852
0.3183215538
0.382611962
0.3599010406
0.3766989126
0.4500017609
0.4333599725
0.4069601076
0.4931831554
0.4618803958
0.4784229585
0.1021987587
0.09835615372
0.07910695874
0.1237847231
0.117214443
0.1149788127
0.1103498572
0.1139551873
0.1253586113
0.2955459479
0.2688681027
0.2485481591
0.3082795384
0.2857545894
0.3153206782
0.2420421585
0.2614929007
0.2828017815
0.3746750218
0.3448069888
0.3267266403
0.3824450961
0.3630632822
0.3930401065
0.3162655173
0.3387728228
0.3580319789
0.4488394835
0.4229872633
0.4024956599
0.4641767913
0.4433997263
0.4703321368
0.3969977847
0.418080745
0.4409588815
0.5392505277
0.5140877969
0.4871959591
0.5689608616
0.5413016337
0.5666949063
0.4978307464
0.5183611405
0.5459229735
0.1881393533
0.1827422675
0.1446911578
0.1939790084
0.2151372361
0.2398798869
0.4961433729
0.42887639
0.4117721696
0.4663599096
0.4493784143
0.5122287911
0.3517316515
0.3961133259
0.4160818055
0.5470110489
0.4940881671
0.4795829879
0.5224422601
0.5088047859
0.5586497194
0.4268015615
0.4647885244
0.4806488717
0.5984945827
0.5548455549
0.5380820266
0.5905460296
0.5720387052
0.6136917903
0.5002433875
0.5349196609
0.5541103594
0.6718324868
0.6340142679
0.6108976165
0.6837130423
0.6577704392
0.6946046539
0.5937700704
0.6242804122
0.6489505581
0.1206325112
0.115786456
0.2736432701
0.2715945857
0.1962672423
0.4006634859
0.3378758792
0.3398409201
0.3302900458
0.3347483939
0.3976050379
0.5379739357
0.5366632782
0.4687701246
0.6662230655
0.6029274587
0.6040358303
0.5882310943
0.6011269418
0.6644610454
0.7861722365
0.7566387789
0.7275218427
0.7491317313
0.7499492598
0.8373794303
0.615061769
0.6776454697
0.6832024643
0.822181622
0.7586220828
0.7527465212
0.7771067685
0.7666082505
0.8270583092
0.6599988827
0.7108550955
0.7238586751
0.8579917236
0.8057198465
0.7904524368
0.8505900258
0.8246620391
0.8759768534
0.73430482
0.7781974041
0.802847067
0.1274648033
0.1271418488
0.2719523178
0.2731722252
0.2012090947
0.4038810588
0.3396907737
0.3384893697
0.3406394023
0.3405009649
0.4041649835
0.5383360179
0.5386311283
0.4712134306
0.6685940206
0.6047319115
0.6046246202
0.6045975252
0.6047737392
0.6684038484
0.7889403965
0.7882714061
0.7301762639
0.8913854987
0.8421129613
0.8430459581
0.8403639942
0.8412343806
0.8902710095
0.9771660623
0.975745286
0.9359673798
1.041293604
1.010753692
1.012257129
0.8930406838
0.9689456944
0.9649261105
1.091115356
1.042054776
1.039828639
1.069780406
1.051704395
1.109352341
0.93030303
0.9889947856
1.00729772
0.1267594777
0.1267314363
0.2684076984
0.2687246738
0.1985992519
0.4006652565
0.3351357839
0.3347755305
0.3371741917
0.3360095296
0.4013436872
0.538254432
0.5378841583
0.4690125509
0.6704294896
0.6052812767
0.6061123423
0.6046134412
0.6047897962
0.6695586323
0.7934619739
0.7919957762
0.732985519
0.8966518654
0.846686411
0.8482857159
0.8441196362
0.8453355558
0.8951661781
0.9833628849
0.981706163
0.9416832586
1.04710026
1.016814465
1.01830222
1.013751539
1.015278931
1.045740486
1.095175128
1.094312176
1.072799945
1.126594781
1.112077065
1.11280514
1.110359708
1.111265285
1.125893035
0.1318757896
0.1296885611
0.2727676465
0.2707653421
0.2023057869
0.402825848
0.3368973386
0.3387848075
0.3349271869
0.3356204415
0.4014894915
0.5432860623
0.5414113323
0.4713721435
0.6770695027
0.6105458527
0.6126624158
0.6072264632
0.6086901547
0.6748884886
0.8022101662
0.7997024619
0.740334693
0.9042243575
0.8544902929
0.8567059118
0.850126025
0.852210904
0.90221081
0.9892803563
0.987956697
0.9487132814
1.051493295
1.022124555
1.023210007
1.019680111
1.020950782
1.050534381
1.097857742
1.097288122
1.076413624
1.128706638
1.114560097
1.115023412
1.113456892
1.114039885
1.128272343
0.1461230518
0.1418541333
0.284772898
0.2815734063
0.2150828935
0.4129605892
0.3470070725
0.3499539567
0.3411349976
0.3439689403
0.4100117018
0.5528619467
0.5505510574
0.4810033767
0.6868404827
0.619814843
0.6219006374
0.6151369615
0.6175674031
0.6846235572
0.8107500121
0.8088618401
0.7501496313
0.9111488361
0.8625828805
0.8642872053
0.8587928225
0.8607509564
0.9095780203
0.9937354083
0.9927354318
0.9545112756
1.054605227
1.02600637
1.026805437
1.024214461
1.025144384
1.053923392
1.099611556
1.099242868
1.078883866
1.129957601
1.116117774
1.116397865
1.115434484
1.115797786
1.129709931
0.1620659171
0.1582548397
0.2965857546
0.2937668051
0.2289565956
0.423784007
0.3582527144
0.3608603955
0.3528056662
0.3555693415
0.421212763
0.5612119336
0.5592389036
0.4909166967
0.6938778516
0.6274290313
0.6290914515
0.6238504361
0.6256866876
0.6923436053
0.8166473595
0.8154120358
0.7569624804
0.9164153145
0.8686047864
0.8697746003
0.8658606395
0.8673001367
0.9152533601
0.997072788
0.9963351523
0.9589335254
1.056816217
1.028861219
1.02944116
1.027545469
1.02822976
1.056333887
1.100714991
1.100489406
1.080559373
1.130608474
1.117030231
1.117180919
1.116641345
1.116851079
1.130490823
0.1759791919
0.1726939827
0.3071045023
0.3045807273
0.2409636232
0.4333091616
0.3682640764
0.3706043955
0.3633958084
0.3658622166
0.4310336212
0.5684887191
0.5667554555
0.4995982275
0.6990619435
0.6336885563
0.635112519
0.6306836741
0.6322137581
0.6978785453
0.8203117459
0.8195580661
0.7614517362
0.9199902827
0.8725146825
0.8731992104
0.8708118409
0.8717222327
0.9192568437
0.999366832
0.9988939464
0.9620375159
1.058325989
1.030872373
1.031245585
1.029969746
1.030446864
1.058010067
1.101330448
1.10121763
1.081639046
1.130839973
1.117480152
1.117533312
1.117305156
1.117404314
1.130814442
0.1880765151
0.1851948549
0.3165779059
0.3142986464
0.2516108335
0.4417838897
0.377288744
0.3794193149
0.3728832499
0.3751102284
0.4397548379
0.5749144172
0.5733804877
0.507285651
0.7032813461
0.6391044407
0.6403508262
0.6364879239
0.6378174085
0.7022928082
0.8226001011
0.8221157161
0.7646732029
0.9219719188
0.8747125471
0.8750739064
0.8737860968
0.8742866146
0.9216052391
1.000594495
1.000383923
0.9638013775
1.05917628
1.032045932
1.032208122
1.031565537
1.031832038
1.059026234
1.101519004
1.101511168
1.082190163
1.130752955
1.11756239
1.117529698
1.11756454
1.117573945
1.130801474
0.1988023109
0.1962286596
0.3251846015
0.3231048984
0.2611848157
0.4493733179
0.3855303371
0.3874793854
0.3815021354
0.3835381587
0.4475490281
0.5806186684
0.5792539052
0.5141348817
0.7068793389
0.6438585262
0.644957836
0.641557242
0.6427254401
0.7060286361
0.8241496564
0.8238103776
0.7672080819
0.9227959676
0.8758515655
0.8760326256
0.8753789254
0.8756355668
0.9226709195
1.000885015
1.000886877
0.9644450736
1.059369041
1.032400742
1.032376113
1.032319733
1.03238291
1.05937994
1.101294137
1.101388032
1.082219043
1.130386688
1.11730716
1.117192565
1.117476188
1.117401707
1.130503067
0.2084579027
0.2061318096
0.3330881667
0.3311704274
0.2698818301
0.456244431
0.3930821587
0.3948759584
0.3893863595
0.3912528341
0.4545853387
0.5857232623
0.5844967647
0.5202862327
0.7100057816
0.6480656688
0.6490453124
0.6460241212
0.6470590944
0.7092623643
0.8252790685
0.8250261529
0.7693042834
0.9229248611
0.8764077728
0.8764896821
0.8761828497
0.8763064439
0.9229383753
1.000497416
1.00064337
0.9643317178
1.058979529
1.032077015
1.031913498
1.032311709
1.032210771
1.059124478
1.100689428
1.100872979
1.081765882
1.129761504
1.116734519
1.116546219
1.117058576
1.116905443
1.129940288
0.2172486409
0.2151209633
0.3404266901
0.3386384623
0.277889295
0.4625440283
0.4000574872
0.4017249379
0.3966351637
0.3983613554
0.461015466
0.5903465536
0.5892302954
0.5258780003
0.7127631752
0.6518319702
0.6527161171
0.6499984333
0.65092647
0.7121039027
0.826141378
0.825945874
0.7710871615
0.9226633518
0.8766370733
0.8766603687
0.8765537119
0.8766019817
0.9227546249
0.9996767735
0.9999120543
0.9637647116
1.058144261
1.031270478
1.031014411
1.031722668
1.031507314
1.058387065
1.099772118
1.100026538
1.08092179
1.12890886
1.115886265
1.115637768
1.116341534
1.116121039
1.129140762
0.2253440831
0.2233767668
0.3472925861
0.3456168386
0.2853544495
0.468395492
0.4065583472
0.4081169041
0.4033643206
0.4049746127
0.466966726
0.5945819794
0.5935557087
0.5310217289
0.7152276544
0.6552446908
0.6560510714
0.6535786843
0.6544208236
0.7146358334
0.8268156396
0.8266618938
0.7726318903
0.9221772282
0.8766666122
0.8766518877
0.8766721645
0.8766736414
0.9223142496
0.9985930874
0.998882051
0.9629337618
1.056999216
1.030148768
1.029834243
1.03074075
1.030451457
1.057308212
1.098619637
1.098925863
1.079790764
1.127872209
1.114819507
1.114525566
1.115376601
1.11510337
1.128145828
0.2328798098
0.231041887
0.3537554332
0.3521739495
0.292375515
0.4739021737
0.4126501245
0.4141189827
0.4096507794
0.4111610123
0.4725554544
0.5984981436
0.5975457277
0.5357937095
0.717455118
0.6583685451
0.6591116213
0.6568397028
0.6576114994
0.7169178203
0.8273516085
0.8272283527
0.7739891976
0.9215565685
0.8765648626
0.8765251827
0.8766293195
0.8765997858
0.9217210109
0.9973544762
0.997674362
0.9619492111
1.055651212
1.028830866
1.028481218
1.029508766
1.029173741
1.056002644
1.097301011
1.097643019
1.078462441
1.126696674
1.113591134
1.113264792
1.11422237
1.113910476
1.127001064
0.2399506449
0.238221306
0.3598837434
0.3583796398
0.2990167734
0.479106319
0.4184096797
0.4198060652