/*--------------------------------*- C++ -*----------------------------------*\
| =========                 |                                                 |
| \\      /  F ield         | OpenFOAM: The Open Source CFD Toolbox           |
|  \\    /   O peration     | Version:  v2012                                 |
|   \\  /    A nd           | Website:  www.openfoam.com                      |
|    \\/     M anipulation  |                                                 |
\*---------------------------------------------------------------------------*/
FoamFile
{
    version     2.0;
    format      ascii;
    class       volScalarField;
    location    "2.58";
    object      p;
}
// * * * * * * * * * * * * * * * * * * * * * * * * * * * * * * * * * * * * * //

dimensions      [0 2 -2 0 0 0 0];


internalField   nonuniform List<scalar> 
3019
(
-773.8824895
-975.5408413
-1042.197969
-1026.214538
-985.3054979
-929.5308728
-846.4138823
-800.2448069
-740.0740238
-720.6044497
-707.5011353
-701.0995557
239.8126676
-412.2809589
-650.6660249
-746.3007396
-781.3437313
-777.4662599
-739.2701614
-716.3179434
-675.1049281
-663.7943715
-655.5525729
-651.5953129
201.9073263
-174.8064068
-405.2870031
-536.2394584
-609.3603757
-640.8743054
-635.6590236
-632.6545551
-608.3258767
-604.1858191
-600.5978391
-598.9425699
150.4196992
-81.05657608
-264.0112177
-393.0381483
-477.51153
-526.5104996
-542.7039439
-553.7243873
-542.7913185
-544.5582038
-544.9970583
-545.2774214
116.500742
-41.31537363
-182.4762835
-295.635627
-378.9185173
-434.123764
-461.9506109
-481.7923129
-480.9159372
-487.1320151
-490.6563486
-492.3627928
92.09988642
-25.08336784
-135.6804308
-230.6213871
-305.0979614
-359.6703342
-393.1454724
-417.8737949
-424.0008618
-433.1917189
-438.8781531
-441.5558616
71.49934845
-19.58737318
-107.6429592
-185.7139234
-250.2399572
-300.9249696
-335.7144822
-362.1401284
-372.5051909
-383.4181546
-390.4295944
-393.7600654
55.19249564
-17.846132
-88.64033808
-153.036596
-208.3896809
-253.8931009
-287.7591991
-313.899026
-326.4760846
-338.130519
-345.7958984
-349.4434299
43.34572696
-16.54950294
-74.59562444
-128.2558821
-175.6187616
-215.8352164
-247.4063194
-272.2172857
-285.6213901
-297.3035522
-305.117633
-308.8455044
34.42512998
-15.38493431
-63.67607786
-108.7793189
-149.3240745
-184.5590737
-213.2418123
-236.1650344
-249.4717585
-260.7098029
-268.3261943
-271.9668262
27.60476545
-14.25237772
-54.84331858
-93.01004129
-127.7608097
-158.4715418
-184.1107351
-204.8884089
-217.5160559
-228.0232413
-235.2201641
-238.6644157
22.31047118
-13.11569591
-47.47453323
-79.92522219
-109.7383983
-136.4093273
-159.0673322
-177.6435379
-189.2568567
-198.8761778
-205.5214322
-208.703728
18.14708149
-11.96978312
-41.17977792
-68.84872302
-94.43081637
-117.522303
-137.3673553
-153.7994912
-164.2270189
-172.8899964
-178.9152823
-181.8012752
14.83265831
-10.82241057
-35.70291259
-59.31608558
-81.24716488
-101.1741278
-118.4176722
-132.8233765
-141.9991566
-149.6953492
-155.0767987
-157.6539608
12.1618125
-9.685153886
-30.86921279
-50.99906939
-69.7557061
-86.88232246
-101.7462197
-114.269649
-122.1878227
-128.9422414
-133.6846988
-135.954698
9.982795278
-8.56868451
-26.55315946
-43.65582354
-59.62953358
-74.26980613
-86.96647789
-97.75803339
-104.4478956
-110.3050432
-114.4302866
-116.4032184
8.181417099
-7.481656573
-22.66136467
-37.10328619
-50.61579207
-63.03746166
-73.76084684
-82.96537709
-88.47182227
-93.48530483
-97.02387328
-98.71416625
6.669859992
-6.430063325
-19.12061959
-31.19693875
-42.51106449
-52.93851299
-61.86354665
-69.6126459
-73.98520715
-78.2105193
-81.19631976
-82.62021002
5.379415252
-5.417482522
-15.8716202
-25.82006976
-35.14885737
-43.7548051
-51.05064197
-57.45666955
-60.73698154
-64.22908997
-66.69550016
-67.86857088
4.254997789
-4.445552495
-12.86481451
-20.87660677
-28.39549353
-35.33274742
-41.10546054
-46.27846258
-48.51825223
-51.32412684
-53.30227371
-54.24044215
3.251396059
-3.514077564
-10.05639787
-16.28258515
-22.13494254
-27.56390557
-31.83854972
-35.88059735
-37.06864293
-39.24300729
-40.75590057
-41.46611124
2.330805546
-2.621450617
-7.406661675
-11.96154839
-16.25306717
-20.25155347
-23.13298622
-26.06303044
-26.43005238
-27.96446819
-29.03646803
-29.54493961
1.461138857
-1.764477892
-4.878355718
-7.843054499
-10.64665397
-13.28245481
-14.82996496
-16.74802949
-15.75066776
-16.67155538
-17.30369125
-17.55066781
0.6208263238
-0.9369501282
-2.435247992
-3.862621905
-5.221531686
-6.523540449
-6.709005626
-7.583783891
-7.604604958
-8.054636408
-8.350398114
-8.563817195
-828.4208257
-867.2764646
-1088.918576
327.959255
-781.4398452
190.8463877
-423.6505909
-981.5705521
311.6433713
339.875778
-1008.277567
-48.98590637
-124.9414688
-179.7219503
-492.2916966
-868.3104487
-1174.210116
-468.9864422
-1223.407283
-1224.120552
-1250.74294
-377.5169564
214.8545338
-125.6436736
-311.0004296
-914.9329889
-1164.808245
-1176.258903
-141.9136286
-387.2835962
-107.5917125
370.411625
-1420.397951
-1422.703762
381.755469
145.3201619
-1186.235081
-1013.360142
-1024.223644
-1017.048607
-1189.195755
-799.8747843
-968.9455956
-566.1072294
-589.1798575
-750.8837909
-379.8186588
-536.3385357
-467.4094684
-1199.940436
-1376.599579
-1406.31772
-1199.726848
-1107.854353
-1167.635852
-976.3171885
-966.5724296
-804.8059018
-1540.067163
-1528.755037
-1420.810163
-1411.181919
-801.8415617
-817.1066778
-641.2257105
-646.4805134
-744.6060659
-181.2636306
-327.5887115
-1543.77347
-1414.755037
-1491.659827
-1033.673226
-1030.319793
-1018.696459
-1132.557944
-838.4369598
-819.2363603
-804.8781513
-959.4480493
-902.3718475
-900.1330138
-571.4266389
-626.763204
-624.5329683
-446.9134614
-452.3409651
-499.8769882
-1343.161616
-1345.645439
-1400.255997
-1213.038007
-1274.727019
-1283.708853
-1159.208384
-1119.340696
-1104.279863
-1056.104965
-1039.335127
-986.1042082
-502.587482
-598.8320169
-833.963123
-518.8634399
-699.4070056
-1035.953352
-734.4211724
-798.1448481
-1033.091352
-810.3089815
-829.5099981
-996.9977843
-829.9371742
-820.822202
-944.588297
275.2901365
25.9991358
-85.41937076
-214.5170419
-407.8835222
-609.842987
-454.2629928
-556.9056088
-729.7428273
-581.9204465
-636.3310874
-776.4507553
-648.4500479
-670.0840814
-781.226728
222.0269412
295.9395487
161.8635588
-37.52791732
-93.95736998
-97.33854756
-250.4215078
-359.4650207
-292.7345533
-395.9927479
-509.9341792
-423.6305058
-489.9095804
-595.4589499
-506.9133982
-544.1039439
-636.0665232
162.4949079
202.3494366
124.0391599
-6.913665085
-26.75139547
-48.1550736
-164.1606803
-223.5987965
-198.7825342
-290.1373499
-365.4108377
-316.4544376
-383.1134413
-460.0121532
-401.1976072
-444.1663521
-516.821771
125.3762952
152.252815
98.27268099
3.26627125
-3.025691
-27.75215907
-117.1995885
-149.6473093
-145.1266501
-221.7022645
-270.1245663
-244.5667739
-304.4427761
-360.9188901
-321.4795173
-364.515047
-422.4489582
98.47458782
118.5987985
76.2435633
3.565885501
3.89586128
-20.39108831
-91.03391994
-109.2240041
-113.5274525
-176.3967933
-208.6881152
-195.5737426
-247.2759453
-288.4672438
-262.5437096
-302.6130405
-347.5889126
76.34634486
92.45877514
58.78832434
0.9402780053
3.110995802
-18.21556424
-74.68597747
-86.34946437
-92.82868455
-144.3161624
-167.3885894
-160.3336613
-204.5022381
-235.4474331
-217.8751317
-253.8824983
-289.3684139
60.35001429
71.80760965
45.99764534
-1.264516475
0.3119822294
-16.85518721
-62.88055458
-71.40132189
-77.759928
-120.4264551
-137.7128071
-133.8738124
-171.5245282
-195.4772605
-183.119997
-214.9051776
-243.3474706
48.45051008
57.05224934
36.43103511
-2.764191677
-1.698473411
-15.67061098
-53.80560858
-60.40304405
-66.17876896
-101.8950714
-115.3719176
-113.250583
-145.3824021
-164.4377842
-155.3970983
-183.2039805
-206.3924875
39.35788854
45.95057661
29.14797515
-3.720823339
-3.048751717
-14.5352096
-46.50037846
-51.84013013
-56.89490109
-87.03014465
-97.88468461
-96.66795313
-124.143694
-139.6722732
-132.7804631
-156.9857021
-176.2057888
32.27380781
37.42339441
23.51489797
-4.262665254
-3.890738022
-13.40084489
-40.40882373
-44.87971531
-49.20360332
-74.77492285
-83.75339794
-82.9860575
-106.5189496
-119.4387506
-113.9618338
-134.9631672
-151.1393735
26.65459392
30.74877422
19.09885686
-4.493043606
-4.345900963
-12.25681322
-35.19324228
-39.03282629
-42.66847745
-64.44558538
-72.03306328
-71.4577478
-91.63021133
-102.5680342
-98.03863453
-116.2113299
-130.0086323
22.12247024
25.43162533
15.59393825
-4.49438878
-4.512047676
-11.10875817
-30.63812276
-33.99911082
-37.0059967
-55.58143242
-62.10664412
-61.57416555
-78.86033564
-88.25892598
-84.36954237
-100.0497651
-111.9592628
18.41115243
21.12629302
12.77824006
-4.331025671
-4.46682916
-9.967904245
-26.60028978
-29.58468042
-32.02485148
-47.86242948
-53.55463257
-52.97875116
-67.76548047
-75.94416271
-72.48920542
-85.97053056
-96.35949435
15.32713391
17.58762948
10.48824496
-4.052167918
-4.270499897
-8.845362005
-22.97920505
-25.6591909
-27.58926056
-41.05656647
-46.08295483
-45.41129568
-58.01477255
-65.21279035
-62.04808437
-73.5826564
-82.734995
12.7279199
14.63652922
8.601542498
-3.695039656
-3.968976803
-7.750282688
-19.7009542
-22.12987127
-23.59882661
-34.98989073
-39.47626306
-38.67574881
-49.35472571
-55.75587313
-52.77674187
-62.57881058
-70.71816722
10.50566553
12.14063273
7.024604922
-3.287675248
-3.596981557
-6.689404722
-16.70872674
-18.92803839
-19.9763241
-29.52765624
-33.57229721
-32.61971755
-41.58557379
-47.33585228
-44.46165488
-52.71102482
-60.01931866
8.576443655
9.998732027
5.684491962
-2.850999312
-3.180559571
-5.666841979
-13.95634282
-15.9997653
-16.65933297
-24.56121569
-28.24334383
-27.1201424
-34.54432771
-39.76270466
-36.92753971
-43.76883984
-50.40082949
6.873457126
8.131821665
4.523156093
-2.400741352
-2.739187331
-4.684707165
-11.40533342
-13.30110176
-13.59628126
-20.0017001
-23.38635047
-22.0765739
-28.09906334
-32.88174591
-30.03318762
-35.58669793
-41.66085186
5.341271932
6.476367928
3.493131079
-1.948576893
-2.287493288
-3.743208073
-9.021704674
-10.79498815
-10.74210554
-15.77245659
-18.91623524
-17.40258103
-22.13781562
-26.5675432
-23.66011826
-28.03794542
-33.64708548
3.932672824
4.979266084
2.555029098
-1.503163619
-1.836308192
-2.841111027
-6.774627475
-8.448299975
-8.056298502
-11.80468335
-14.7585826
-13.02018267
-16.5554291
-20.71076739
-17.69385306
-20.97387921
-26.23508577
2.605918228
3.594822273
1.675254865
-1.070511241
-1.393625993
-1.975595321
-4.634873931
-6.230734731
-5.50095731
-8.034762202
-10.84601545
-8.857234295
-11.25391202
-15.20730943
-12.02764728
-14.26420536
-19.26986275
1.327315775
2.282828746
0.8270727459
-0.6547542869
-0.9648044963
-1.142989919
-2.575198956
-4.113459106
-3.041205201
-4.405471165
-7.116349834
-4.849106128
-6.146046683
-9.961990759
-6.566595265
-7.790894202
-12.62954358
-0.0580380379
1.015533702
-0.1915320588
-0.4733939706
-0.5511586474
-0.5554566709
-0.7992855318
-2.067510771
-0.8809116513
-1.125970592
-3.512171633
-1.207440037
-1.451532951
-4.888354065
-1.533628749
-1.809283949
-6.194161884
-877.7968732
-871.0350676
-821.2048039
-882.4697235
-972.8541957
-961.8725843
-1428.740065
-1447.579624
-1031.802605
197.2066074
451.801155
-756.5221695
-599.6616843
-659.851179
66.2820076
-8.43127045
126.449718
-623.9976755
-459.6755568
-222.702436
-902.4165858
-557.6698143
-703.9331935
356.0363984
390.7200995
-1153.006932
-1170.196391
-931.5744344
-1252.921011
-1264.655944
-1520.797763
-1514.356818
12.17038132
87.56199301
21.57577757
-205.1729385
-153.085879
-68.14171028
-320.7161061
-528.962658
-416.9168565
-608.1499235
-547.4289212
-419.0878476
-856.0359636
-685.9075392
-734.0538971
-1173.533107
-1125.764317
-1125.819237
-338.84468
-401.0235806
-391.4835159
-563.9185667
-550.4345406
-404.1591949
-1275.929758
-1275.127104
-1220.21694
-1249.874912
-1342.908611
-1372.272849
-1337.913177
-1339.909481
-1249.841228
-1430.07013
-1425.287451
-338.0776263
-244.1235465
-289.6175029
-233.9513128
-281.6953906
-8.389848224
-136.5775583
92.28057665
84.7234675
272.8088202
-168.3379121
-53.06160196
-22.69692241
-168.7696609
-103.008091
-227.3443555
-997.0365361
-984.7029285
-898.3847526
-1160.506588
-1072.077764
-1080.33409
-1057.13435
-1063.986307
-1155.952545
-211.0739964
-116.9460418
-44.91049611
-305.1533318
-204.1352718
-293.4545426
77.83501934
-101.9210684
-211.7588533
383.5307275
498.1977509
469.7545314
-1474.479482
-1477.533506
-1420.869975
158.1394189
77.08559576
297.5584683
231.6266741
312.078586
86.30537174
156.8319142
219.3027435
-1129.647645
-1126.811155
-1175.24968
-1016.096152
-1068.088326
-1057.590681
-1075.993537
-1072.629543
-1019.900112
-638.2532679
-627.662616
-579.1095322
-747.8646128
-674.1954673
-691.5272838
-431.6388832
-415.213976
-359.9988298
-520.9050556
-466.8647558
-483.2377786
-1384.123081
-1335.318795
-1328.939686
-1171.363093
-1349.663724
-1420.262258
-1306.793479
-1330.883349
-1172.979837
-971.5975139
-920.9301098
-926.176247
-907.5964171
-915.287163
-967.6317131
-812.7326286
-862.3474258
-852.1441429
-1417.937876
-1466.612697
-1471.222728
-1459.415942
-1462.655824
-1416.538416
-1508.863655
-1505.865496
-132.546872
-185.472964
-231.0153795
-207.7669955
-157.6638652
-305.5157644
-254.8987088
-276.5699157
-967.4535545
-934.3921806
-898.6201612
-867.2652379
-839.6752202
-817.1509085
-682.0362105
-705.8099103
-793.3103678
-803.275128
-850.5671555
-1004.382201
-930.011201
-941.4792896
-1041.922027
-951.2611903
-948.6123998
-1017.56745
-931.7787523
-923.4447452
-972.665997
-814.3357485
-809.9541596
-872.1424448
-792.957358
-775.2673014
-822.1618565
-758.7384363
-745.9876596
-781.1141688
263.9313488
149.3149457
116.7241415
-328.7530716
-411.2083687
-494.1319366
-576.0519298
-612.3670103
-683.0560906
-686.9458489
-703.29269
-759.0481867
-734.2876854
-739.4328901
-783.5526842
-672.6953864
-689.9180001
-749.0159429
-686.4369372
-680.601651
-727.741071
-673.8386839
-667.757164
-705.7348526
189.3216232
96.51060747
96.11877078
-142.9684603
-208.5450124
-245.4981126
-362.7525822
-402.1730781
-445.0233537
-494.8694998
-518.6881992
-559.0493003
-572.7171983
-585.4094384
-620.6078721
-552.594029
-581.7591797
-633.9355952
-587.6520397
-590.9845474
-634.8442712
-592.1304331
-591.9963696
-629.4056505
141.1924014
84.68579751
88.07953495
-67.8314993
-114.999486
-132.1593597
-239.1031118
-274.6587582
-301.0190453
-365.1235371
-390.011827
-417.8880389
-450.2707818
-465.8670789
-492.7150749
-455.2899856
-489.2848825
-533.6100605
-500.8112951
-509.9742514
-549.3104689
-516.499712
-520.9699969
-556.1366893
109.9984113
72.06242123
75.18914402
-35.72637048
-70.79423812
-79.02204518
-168.2831419
-197.8684389
-213.5240516
-276.8769241
-299.8273115
-319.2799203
-358.234779
-374.3092349
-395.0923615
-376.3824637
-411.3266526
-448.5666117
-426.052873
-438.6476449
-473.1036233
-448.4826094
-455.9708603
-487.963418
86.5214734
58.63112839
62.10345767
-23.04791095
-50.03089155
-53.80576851
-127.3801919
-151.5650775
-161.1383889
-217.9098981
-237.7158073
-251.2449502
-289.8805282
-304.9158861
-320.4604815
-314.0859462
-346.9054678
-377.48204
-363.1217644
-377.2279933
-406.7456982
-388.7411143
-397.8940861
-426.3295627
66.99307328
45.20205799
48.42926401
-19.04646217
-40.42337254
-42.24494649
-102.2799488
-121.8760521
-128.2981639
-176.6063589
-193.3486188
-203.1783754
-238.7402803
-252.2438236
-264.1458614
-264.4076581
-294.3283804
-319.290709
-310.674341
-324.8712239
-350.0151447
-336.8845586
-346.696382
-371.7243759
51.90131701
34.20981492
36.62047302
-17.49958647
-34.67919555
-35.9482104
-84.75492446
-100.7857446
-105.4728992
-146.2249035
-160.3686425
-167.7867002
-199.4654426
-211.3457735
-220.6710126
-224.3694858
-251.3079337
-271.7946927
-266.7348915
-280.2807984
-301.702792
-292.0644774
-301.8547266
-323.8080131
40.87774946
26.25673468
28.0238452
-16.25142764
-30.35604346
-31.34356946
-71.62270856
-84.91668245
-88.511158
-122.9642442
-134.9468953
-140.7414433
-168.5172055
-178.8710712
-186.340752
-191.6013183
-215.4967804
-232.6032375
-229.6279954
-242.2058317
-260.5152428
-253.3324221
-262.6893425
-281.8905111
32.54925398
20.35343584
21.67408095
-15.10097512
-26.85117831
-27.67067637
-61.30184819
-72.44371336
-75.31116746
-104.5369959
-114.7261729
-119.3864775
-143.5438277
-152.5265641
-158.6341307
-164.3709667
-185.3993127
-199.8151585
-198.1136525
-209.552631
-225.2777814
-219.7902444
-228.4831181
-245.282918
26.15602101
15.90434325
16.90437418
-13.96914947
-23.85655072
-24.56810555
-52.88215451
-62.29331831
-64.65439064
-89.5182866
-98.21017769
-102.0519774
-122.960569
-130.7346851
-135.8223239
-141.4189454
-159.8291616
-172.1100038
-171.1302554
-181.382197
-194.9705226
-190.6350719
-198.5510314
-213.2782834
21.17621104
12.51334321
13.27860036
-12.82990488
-21.20563235
-21.8420357
-45.81194492
-53.80334166
-55.7963258
-76.98887852
-84.41986881
-87.65205205
-105.6833345
-112.3993821
-116.7057554
-121.8281026
-137.8863043
-148.4514937
-147.8410879
-156.928356
-168.7434822
-165.1810722
-172.2829284
-185.2301047
17.24803304
9.903329456
10.49459158
-11.68264531
-18.80600296
-19.38573807
-39.74182696
-46.54826914
-48.26369338
-66.33557194
-72.69463315
-75.46024183
-90.95489587
-96.74580087
-100.4415496
-104.9154094
-118.8779826
-128.0520207
-127.5819212
-135.5648973
-145.9045569
-142.8478564
-149.144019
-160.5688029
14.11131932
7.87515588
8.336294482
-10.53669822
-16.60403735
-17.13801511
-34.43977227
-40.24206988
-41.74162594
-57.13353589
-62.57234999
-64.97244407
-78.22988965
-83.2101758
-86.42030654
-90.16592496
-102.2665911
-110.301057
-109.8244216
-116.7809224
-125.8871261
-123.1484573
-128.6729986
-138.7976412
11.57594549
6.284323082
6.647396109
-9.403711841
-14.56691404
-15.06208602
-29.74577763
-34.68559141
-36.01310464
-49.07997587
-53.72109387
-55.82947427
-67.10709937
-71.37426082
-74.19285681
-77.17963245
-87.62711996
-94.72329556
-94.14219079
-100.1550301
-108.2295575
-105.671469
-110.4713691
-119.4907822
9.500877958
5.024049712
5.312872256
-8.29388642
-12.67231881
-13.13355646
-25.54358982
-29.73323858
-30.92113223
-41.94977957
-45.89260948
-47.76497691
-57.28045931
-60.91672661
-63.41654614
-65.64006483
-74.61684517
-80.93693512
-80.18554797
-85.3354095
-92.54623242
-90.06700588
-94.19387877
-102.2767667
7.77931838
4.014225284
4.24682104
-7.215252707
-10.90380646
-11.33489861
-21.74577485
-25.27513261
-26.34840366
-35.57107847
-38.8964849
-40.57634919
-48.51141848
-51.58564367
-53.8247251
-55.29047997
-62.95527115
-68.63286404
-67.66449533
-72.02571608
-78.51507132
-76.03539437
-79.54021977
-86.83495028
6.328833351
3.193570037
3.383812594
-6.173136966
-9.247656172
-9.651871619
-18.28300726
-21.22420687
-22.20293074
-29.80699771
-32.58056669
-34.10305382
-40.60645113
-43.17523409
-45.20153085
-45.9078435
-52.41255626
-57.55582937
-56.33514444
-59.9716216
-65.86214069
-63.31649255
-66.24776837
-72.88376358
5.084666074
2.514451476
2.673187626
-5.170664997
-7.691803626
-8.072001416
-15.09900242
-17.50999876
-18.41040574
-24.54700585
-26.8219074
-28.21522848
-33.4080899
-35.51703317
-37.3688224
-37.32661507
-42.82593777
-47.51263933
-45.98368747
-48.95038145
-54.35080056
-51.6800558
-54.07917464
-60.17961756
3.994361516
1.938744787
2.074778094
-4.208929307
-6.224785691
-6.583823585
-12.14572835
-14.07275744
-14.90906985
-19.6984524
-21.51790051
-22.80635348
-26.78862768
-28.47729422
-30.18566603
-29.42434492
-33.96365725
-38.31979183
-36.39732518
-38.75999918
-43.76807456
-40.92388681
-42.84321248
-48.48753955
3.014823022
1.43531935
1.555893619
-3.287373538
-4.835367211
-5.176050998
-9.380583819
-10.85974234
-11.64464522
-15.17960331
-16.57777317
-17.78336935
-20.63324301
-21.93494757
-23.53098476
-22.01133562
-25.58732906
-29.70999949
-27.42509683
-29.22075837
-33.92423285
-30.82825207
-32.27161232
-37.65900323
2.10972851
0.9781394246
1.089357138
-2.40401722
-3.512217952
-3.837437489
-6.764600807
-7.822917972
-8.568111017
-10.91554472
-11.91763871
-13.06074617
-14.82946303
-15.76615272
-17.27923335
-14.97155129
-17.67110124
-21.58184203
-18.94547697
-20.19261255
-24.65427
-21.30472149
-22.26549511
-27.31495388
1.248592782
0.5457816246
0.6525209334
-1.555324864
-2.243433184
-2.55617703
-4.261169573
-4.917581359
-5.633861068
-6.837545732
-7.460783421
-8.559785166
-9.276984068
-9.863439282
-11.31969498
-8.178251846
-10.08404057
-13.82482937
-10.82268961
-11.53343729
-15.81306855
-12.16239204
-12.82281603
-17.50980019
0.4015242952
0.1123718615
0.2303409442
-0.7457613517
-1.025240889
-1.318368572
-1.843485635
-2.109828594
-2.798539333
-2.891010355
-3.145602732
-4.208833786
-3.892044432
-4.135099673
-5.550145813
-1.91981051
-3.291804881
-6.245065831
-3.557687612
-3.814192221
-7.16187722
-4.123768581
-4.518117062
-7.947788088
-1199.916657
-1190.51508
-1073.401441
280.0463157
376.2045055
409.837303
-774.1499877
-728.4395638
-731.5948174
-961.1237656
-855.3126072
-883.7795926
-1415.437
-1414.269829
-232.7123769
-303.9804073
-255.5469208
-1224.203875
-1274.526697
-1275.02708
64.82021798
13.19086178
-1130.053824
-1127.197288
-1177.940821
-39.03327377
-95.93489595
-166.2493133
152.6210593
105.0864383
-1147.371722
-1257.241528
-1282.309503
-1207.840472
-1232.209165
-1133.744776
-1088.482914
-1160.869506
-1184.012612
-1115.880673
-1138.230648
-1072.495441
-1022.110543
-1071.735539
-1093.76452
-1027.329573
-1049.628582
-1004.375794
-536.7222159
-619.9575175
-591.2348495
-674.7436802
-647.97089
-568.5924862
-813.2760843
-729.6473254
-753.6996702
-594.9317943
-713.419232
-649.2383737
-800.5191501
-764.2881604
-654.5643452
-1024.777497
-888.0441933
-912.8741737
-761.4497332
-847.6766019
-827.512276
-872.3221122
-862.2227922
-782.2288278
-1038.298603
-948.8598004
-951.9584077
-819.2148891
-883.8134815
-879.1495758
-882.7059643
-884.5180561
-825.3861874
-1007.765374
-944.3628284
-938.7725065
-828.3633971
-875.190257
-879.4871298
-861.4680346
-869.1002034
-825.396903
-959.081067
-913.7766871
-902.8458546
182.7383424
169.9247185
273.4391134
9.102572894
47.3983624
-43.34758261
-289.9497441
-344.1539933
-264.4921629
-464.6960735
-410.0139413
-353.7609503
-559.1207701
-477.7747661
-531.6103123
-493.787485
-549.2932135
-510.7527905
-609.1831743
-581.7483771
-527.6964218
-708.9830986
-642.1914283
-666.829476
-603.2339642
-651.3276143
-632.1702187
-680.013179
-667.1869978
-621.2976336
-768.9660095
-716.3727636
-726.6185951
-657.9242608
-697.5108817
-690.0070115
-705.8405522
-702.780635
-665.0897732
-782.931547
-742.3802798
-742.7177354
244.9551505
267.6405105
91.33568608
94.38168947
175.4706546
-51.52595688
19.84653903
26.30136269
-3.142149533
10.41368002
-69.8866209
-152.8514134
-177.9671758
-117.5802967
-281.7225566
-232.6239607
-203.8529064
-306.685893
-266.7166076
-317.8548093
-330.8969009
-364.4291283
-325.5296072
-429.896378
-399.0245846
-365.1990776
-479.6697425
-436.9545299
-467.743362
-448.3603813
-481.8805062
-457.4244774
-522.3378462
-503.4691816
-470.4229242
-578.7230006
-539.4887559
-557.460256
-521.5222879
-552.3849964
-538.6018534
-573.0626142
-563.773747
-533.8156445
-629.4429497
-595.6601693
-603.7114068
173.2683478
186.3566014
78.14578043
81.25059902
132.8113116
-11.98447706
35.95876661
36.17797044
30.73748042
33.91523198
-18.3900988
-89.03497674
-100.7438092
-56.97703057
-181.0346634
-142.0921867
-127.5198435
-179.6872268
-159.3185905
-200.6782804
-231.3172514
-251.5658946
-217.5264819
-312.5606498
-283.2188722
-261.7607237
-334.7911417
-307.4779723
-337.6415657
-340.7331373
-364.3369751
-339.5903752
-406.9590602
-386.7801675
-362.9619653
-440.1716631
-412.4302636
-432.4884989
-417.306828
-440.8422882
-424.9413545
-466.9972551
-454.7642086
-431.546233
-505.7142422
-479.3964868
-491.138713
133.5837518
142.5470571
65.38713088
68.65714412
103.9709311
1.789490917
35.69901675
34.69357512
37.03086929
36.62258267
-0.2429775741
-58.40784458
-64.00856838
-31.27082713
-126.440536
-95.74655915
-88.23506414
-115.1159699
-104.6216024
-137.1703495
-171.9106069
-184.0797403
-155.9187688
-236.1439066
-210.8432957
-197.4611602
-242.7475738
-225.8613002
-252.2120834
-265.997703
-282.1349252
-259.9236617
-321.7320282
-302.7396728
-285.9596277
-341.0503254
-321.0366029
-340.4914876
-337.1278615
-355.0272623
-339.1411183
-382.5790546
-369.4637145
-351.4431947
-409.5315938
-388.8044034
-401.8593061
104.8598364
111.6552358
51.73978938
55.14237613
81.24970526
3.903768801
30.02650093
28.0876511
33.61008561
31.93424627
4.054775433
-44.37214914
-46.93046372
-21.51725271
-96.30400353
-71.8821529
-67.93438341
-81.87499642
-76.48045309
-102.3171776
-135.309037
-143.0144998
-120.0498981
-186.1996421
-165.0925324
-156.2910278
-185.5018141
-174.7731379
-196.9132252
-213.7892072
-225.2682917
-206.2716515
-259.9905599
-243.1743526
-231.0257175
-270.5279805
-256.3055651
-273.6862971
-276.8426516
-290.4052065
-275.7277288
-316.707123
-304.0452175
-290.1905783
-334.5938369
-318.8234084
-331.6558705
81.39526227
86.76748334
39.25025276
42.11639632
62.73831194
1.631841581
22.13488777
20.32857582
26.12065533
24.0945432
2.388125002
-37.31631141
-38.798691
-18.61108174
-78.24378706
-58.68803464
-56.15126079
-64.5079341
-61.45557786
-82.11381979
-110.5187367
-115.9689897
-97.36004547
-151.4216003
-134.0070174
-127.6976295
-148.2345119
-140.8312058
-159.0894707
-175.7185997
-184.2186688
-168.1697412
-214.1315527
-199.5443809
-190.4469733
-219.7600659
-209.2925921
-224.424521
-230.5628111
-241.0694738
-227.9732308
-265.0577832
-253.4241211
-242.5678497
-277.1763578
-264.9438575
-276.8462951
63.89568441
67.69966043
29.93005263
31.98744656
48.84624336
-0.7869338509
15.77863339
14.49984705
18.67707707
17.16606158
-0.2624957639
-32.3876353
-33.49627547
-17.17085075
-65.52498214
-49.6236517
-47.73806309
-53.81060255
-51.6417001
-68.35713166
-92.33631565
-96.41807621
-81.13790442
-125.8106097
-111.3217824
-106.5702506
-121.8455348
-116.4011864
-131.5594703
-146.8863805
-153.4160964
-139.8511846
-179.0336488
-166.4827557
-159.4423912
-181.9393367
-173.9673961
-187.0036164
-194.2196408
-202.5423948
-191.0563714
-223.8982176
-213.4867524
-204.8186564
-232.3197281
-222.6427724
-233.3463098
51.12327532
53.98402747
23.09243338
24.61678103
38.57792308
-2.445889763
11.22121648
10.29005218
13.31912296
12.22857006
-2.091489385
-28.52504281
-29.41851679
-15.9590165
-55.87982402
-42.73192935
-41.2425015
-45.96934265
-44.30423572
-58.07440814
-78.33532236
-81.53142559
-68.82278323
-106.1316183
-93.97671021
-90.24898466
-102.1140302
-97.92418812
-110.6156596
-124.2952321
-129.4740411
-117.9712769
-151.3959374
-140.6209067
-135.010961
-152.8077238
-146.5436631
-157.7380579
-165.0448324
-171.7821501
-161.7864754
-190.5684136
-181.3747593
-174.3182896
-196.5966333
-188.793175
-198.270543
41.41660247
43.61027272
17.97528592
19.12283704
30.79336407
-3.525099176
7.897266966
7.217087412
9.429116505
8.633110537
-3.301717494
-25.30279144
-26.06292455
-14.81793138
-48.19590181
-37.19300731
-35.96149896
-39.8275705
-38.47984808
-49.97319528
-67.12662112
-69.71952496
-59.0447963
-90.46829006
-80.20031769
-77.17747366
-86.7215545
-83.3771056
-94.08139865
-106.0755035
-110.2950084
-100.505362
-129.0726522
-119.8219356
-115.2383761
-129.689043
-124.6327344
-134.2425469
-141.139091
-146.7014207
-138.035805
-163.1157619
-155.0608381
-149.2119714
-167.5938059
-161.1831376
-169.499943
33.88964042
35.6036588
14.0960437
14.96977503
24.79473654
-4.160061167
5.471191769
4.975918419
6.588494879
6.007695431
-4.036594517
-22.4950796
-23.16605981
-13.68531286
-41.83897485
-32.55327542
-31.50016291
-34.78048496
-33.64570058
-43.32777847
-57.87138481
-60.03467216
-51.00418981
-77.63605173
-68.91645373
-66.39930629
-74.29638313
-71.5460786
-80.62580697
-91.02115931
-94.53683761
-86.18031566
-110.6395907
-102.6936126
-98.86895251
-110.8656283
-106.6887062
-114.9422208
-121.1891291
-125.861167
-118.3650774
-140.1413878
-133.1197359
-128.1937342
-143.6148306
-138.2571585
-145.514982
27.94498447
29.30783455
11.12467543
11.79652992
20.10715993
-4.459809974
3.70853059
3.350430512
4.518832168
4.097219537
-4.411175009
-19.97839908
-20.58474429
-12.54356965
-36.42831654
-28.54824517
-27.62567591
-30.48330224
-29.50010227
-37.70714375
-50.04183385
-51.8868523
-44.21128949
-66.87544415
-59.44486468
-57.30392764
-63.98633673
-61.67036816
-69.40236973
-78.33169447
-81.3157636
-74.16885776
-95.13314117
-88.30682279
-85.05865605
-95.20296361
-91.68539438
-98.77604768
-104.2766615
-108.2596627
-101.7866479
-120.6426039
-114.5449356
-110.3379797
-123.4623947
-118.9174642
-125.2256864
23.16971629
24.27140829
8.826570017
9.348182602
16.39810702
-4.511724433
2.438508177
2.182358514
3.020714693
2.717370874
-4.517929925
-17.68266223
-18.23852711
-11.39558702
-31.72381254
-25.01615475
-24.19394227
-26.73054814
-25.8612086
-32.84340185
-43.2904694
-44.89174638
-38.35155088
-57.67961995
-51.33690116
-49.48457879
-55.24215634
-53.25465148
-59.85303882
-67.45610928
-70.02860309
-63.91256032
-81.88102006
-76.02046223
-73.22041192
-81.93296019
-78.92247314
-85.0115591
-89.74191166
-93.18184167
-87.60364557
-103.8860391
-98.60930775
-94.9719791
-106.2843498
-102.3783837
-107.8420272
19.2736141
20.17770631
7.032483183
7.441165741
13.42733061
-4.384386674
1.534740177
1.35441578
1.947355509
1.7319477
-4.429897685
-15.56643834
-16.08030567
-10.25180511
-27.56730824
-21.85350394
-21.11189646
-23.39354399
-22.61373941
-28.56160821
-37.3802179
-38.78910286
-33.21442089
-49.69870257
-44.28573582
-42.66116035
-47.69434142
-45.96246558
-51.59495301
-58.00496386
-60.25127604
-55.02238062
-70.4018374
-65.37966219
-62.93567384
-70.51725698
-67.90531567
-73.12640254
-77.10174046
-80.10585978
-75.3123829
-89.32543949
-84.77687574
-81.59842991
-91.45775042
-88.06220705
-92.77663647
16.04780383
16.80059602
5.618413825
5.941789993
11.01870451
-4.130497486
0.9029936388
0.7788576348
1.189759063
1.039631883
-4.203457849
-13.6029435
-14.08062465
-9.123734421
-23.84978889
-18.9905486
-18.31543137
-20.38806093
-19.68119356
-24.7427474
-32.14149026
-33.39567917
-28.65295963
-42.68270913
-38.07369849
-36.63193596
-41.08598707
-39.55763158
-44.35730153
-49.69209758
-51.6763843
-47.21836369
-60.34135385
-56.05224072
-53.89470257
-60.56908147
-58.27585167
-62.73940927
-65.9904006
-68.64156646