/*--------------------------------*- C++ -*----------------------------------*\
| =========                 |                                                 |
| \\      /  F ield         | OpenFOAM: The Open Source CFD Toolbox           |
|  \\    /   O peration     | Version:  v2012                                 |
|   \\  /    A nd           | Website:  www.openfoam.com                      |
|    \\/     M anipulation  |                                                 |
\*---------------------------------------------------------------------------*/
FoamFile
{
    version     2.0;
    format      ascii;
    class       volScalarField;
    location    "1.8";
    object      omega;
}
// * * * * * * * * * * * * * * * * * * * * * * * * * * * * * * * * * * * * * //

dimensions      [0 0 -1 0 0 0 0];


internalField   nonuniform List<scalar> 
3019
(
647.1893397
126.1927427
64.75783333
45.60336079
37.9120339
34.18591391
32.10044477
31.2849398
30.80453166
30.62023803
30.52404926
30.4765261
406.1407733
117.607213
64.22502026
46.06431184
38.20835957
34.33124258
32.14401922
31.2704582
30.74771596
30.54674918
30.43945033
30.38680632
290.8250704
109.8729138
63.26065423
46.08262645
38.31407088
34.37794623
32.14943745
31.24465905
30.69127238
30.47658003
30.35885682
30.30110336
259.5847965
106.174752
62.83359218
46.01078729
38.25052689
34.34728525
32.12700148
31.20711498
30.62893632
30.40332046
30.27814953
30.21626019
255.6772497
105.6714819
62.7216011
45.86416181
38.11701269
34.28452273
32.08244888
31.15810605
30.56258527
30.32913302
30.19672405
30.13106247
258.1523372
106.0873212
62.42462564
45.55168627
37.94694807
34.20082568
32.01871886
31.09393872
30.48635617
30.24707046
30.11044292
30.04170911
252.5195813
105.188597
61.63976976
45.17250452
37.78929234
34.10559467
31.94239871
31.01889951
30.40387796
30.16100826
30.02108005
29.95038529
237.3564891
102.8283356
60.97938703
44.88474417
37.64778972
34.00321462
31.8559122
30.93441891
30.31282677
30.06703133
29.92476281
29.85282121
224.3647846
100.8919661
60.6376157
44.68525804
37.51813484
33.89437298
31.76031984
30.84168023
30.2171621
29.97024614
29.82653115
29.75381013
213.8925916
99.32946488
60.47737213
44.57142315
37.39569462
33.77850316
31.65680372
30.74188001
30.11388903
29.86565537
29.72101429
29.64804845
205.3897108
98.08701835
60.41290764
44.52199166
37.27926265
33.65672997
31.54705401
30.63625558
30.00866973
29.76083448
29.6158937
29.54293943
198.3581067
97.13606655
60.41203487
44.50559386
37.16824411
33.53195676
31.43315142
30.5262096
29.89675315
29.64821241
29.50308294
29.43045832
193.0898666
96.52479518
60.46238968
44.49593723
37.06048032
33.40717059
31.31715496
30.41308174
29.78607008
29.53873007
29.39387363
29.32166574
189.5455104
96.1341937
60.48235287
44.45836583
36.95135646
33.28445362
31.20067144
30.29811861
29.66857828
29.42031234
29.27550026
29.20385698
185.8286925
95.50381709
60.32804308
44.35957275
36.83734125
33.16494904
31.08477566
30.18219649
29.55606605
29.30938248
29.16503119
29.09392586
179.9246569
94.23177727
59.9404103
44.1999608
36.71940787
33.04912325
30.97007873
30.06610034
29.43476714
29.18638714
29.04202474
28.97150908
171.9538914
92.39437722
59.38966708
44.00394312
36.60057001
32.93696436
30.85689428
29.95018403
29.32353818
29.07699794
28.93307023
28.86305649
163.4552772
90.32990188
58.77424689
43.79374146
36.48267605
32.82810162
30.74533159
29.83495444
29.19859211
28.94931647
28.80522273
28.73572815
155.446729
88.26394863
58.14843348
43.57967973
36.36608903
32.722022
30.63539955
29.7203867
29.0918852
28.84468059
28.70087727
28.63177934
148.1603863
86.26965195
57.52904636
43.36456506
36.25044944
32.61820088
30.52706549
29.60698151
28.96154599
28.71068519
28.56658838
28.49790862
141.5911867
84.35881681
56.91891617
43.14848855
36.13514452
32.51611595
30.42032977
29.49446468
28.86386316
28.61493158
28.47088939
28.40248024
135.6643907
82.53077764
56.31795858
42.93093635
36.01953559
32.41533314
30.31538276
29.38380835
28.72349465
28.47102299
28.32663897
28.2585481
130.2942777
80.78389432
55.72574689
42.71132863
35.90300996
32.3153958
30.21290353
29.27503334
28.64234025
28.38984971
28.24525058
28.17729254
125.4300079
79.12758486
55.14653346
42.49069536
35.78558431
32.21616771
30.11480859
29.17142397
28.46132452
28.2049754
28.05972846
27.99200752
790.2655398
676.3364409
152.28679
500.1143389
774.7831242
423.4741941
148.1549582
150.6524185
383.3787377
492.610207
280.0910124
571.4208507
586.7770268
514.5619571
248.5676612
270.5709542
1086.001838
684.717405
1188.402827
921.6869144
482.6655174
653.2465644
303.5133677
135.4782646
145.1024918
425.87607
465.3003518
866.8107455
228.6636181
241.4887965
501.2581118
458.5758712
5784.832046
1756.137357
968.199954
530.0838759
4295.712619
2910.528978
922.5192812
4466.143885
5635.187753
2872.942655
4229.495059
5974.879912
1649.456614
2495.390803
1158.548119
1467.12917
5369.825384
6009.769428
1559.160784
5712.053737
4859.547129
138.2023194
74.09083187
884.702064
2557.631761
1708.379696
3971.911933
2284.196931
1174.409275
690.6391746
5786.814063
6135.773234
6245.750001
5133.979724
5947.995566
935.4597635
1084.802352
5439.006514
4908.35467
5519.871811
5105.262845
5920.601923
5863.531026
5692.783458
3343.07316
5001.949303
4514.031034
5659.702549
5861.040121
3772.59509
4127.899449
4583.400575
5899.909325
4755.940421
3288.528418
3637.644163
5507.336955
4021.925191
4281.806606
3117.003331
3593.692399
5694.958782
64.74694261
48.68527649
45.51363694
39.18604817
37.79208298
34.82791595
576.2206603
384.5996837
412.5949824
120.0388172
72.69751017
73.90333182
64.34373733
49.1414279
48.77442192
45.98084794
39.59845145
39.33619225
38.16077214
35.04723648
34.88782684
369.075782
205.4878434
223.7586085
111.4748982
71.08582905
72.47764042
63.47410186
49.15337882
49.15178794
46.11115274
39.78534162
39.67755515
38.3145066
35.13731319
35.07452738
401.4055598
451.0848365
263.8257834
127.6819602
132.8940643
106.7141968
70.06128537
70.73600208
62.90260651
49.02989547
49.1048129
46.0199943
39.73634147
39.78027729
38.27287428
35.10813768
35.13626036
382.8009179
392.7385545
255.4124256
125.8008363
126.76209
105.6070519
69.81224143
69.94370564
62.74155039
48.92220696
49.01253737
45.91353168
39.61844253
39.71374698
38.1587085
35.03672218
35.09142981
386.939002
383.3257487
257.9004397
126.4966914
125.8971115
106.0431601
69.66654032
69.80364787
62.54541627
48.65816717
48.87631418
45.64978639
39.41023939
39.57150015
37.98876771
34.94507303
35.01537833
376.7061029
386.6036291
255.2024582
125.8284166
126.5684504
105.6006441
68.98771662
69.55493014
61.8660877
48.18865763
48.55546393
45.25867806
39.21171785
39.3580394
37.82714645
34.84276436
34.92005867
343.7653495
369.9722043
241.1099022
122.5524169
125.2395007
103.3796154
68.08028408
68.71906034
61.10938643
47.79742125
48.07881938
44.9483849
39.04201611
39.16670602
37.68182954
34.73604392
34.81645868
313.5316247
335.3675068
227.3437718
119.4381772
121.7148684
101.3383804
67.54397783
67.91976929
60.70121137
47.53722205
47.72001322
44.72684386
38.89654281
39.00371972
37.54975938
34.62516347
34.70881581
290.5665386
307.2208261
216.310877
116.8892721
118.7533119
99.68853649
67.21009853
67.44627256
60.50616049
47.40535303
47.49304968
44.59261958
38.76938452
38.8632295
37.42573702
34.50856743
34.59664097
272.8541096
285.7046858
207.3637585
114.8156646
116.3294838
98.37034901
66.99929661
67.14782212
60.42285359
47.36735005
47.38919053
44.53015484
38.6579602
38.74019164
37.30782873
34.38636706
34.47850148
258.9963616
269.0803274
199.9809744
113.1489253
114.3635372
97.34458302
66.88372961
66.96181764
60.4077151
47.37596506
47.36705557
44.50800932
38.55880428
38.63224703
37.19556809
34.26110826
34.3552351
248.9110973
256.064828
194.211752
111.9332491
112.7979435
96.64570915
66.8638308
66.87002894
60.44815524
47.400394
47.38181978
44.49946681
38.46615902
38.5353525
37.0873436
34.13577847
34.22969437
242.5065903
247.0680371
190.3505264
111.1713933
111.7110517
96.23281385
66.87430945
66.8690137
60.48468741
47.40226102
47.40458987
44.47268693
38.37088649
38.44303085
36.97903147
34.01239499
34.10470515
236.4754288
241.1278524
186.9095722
110.3631743
111.004014
95.71268292
66.73482697
66.86547667
60.38946745
47.32601588
47.3924346
44.39059695
38.26415203
38.34548722
36.86632022
33.89197855
33.98198971
227.302023
234.5650162
181.6411725
108.8254409
110.0661193
94.61415901
66.29663598
66.65479586
60.05678094
47.15641533
47.291883
44.24437569
38.14513953
38.23538644
36.74909005
33.77508614
33.86241055
214.7078709
224.3924922
174.0557507
106.4356046
108.295688
92.88798454
65.60166512
66.14188728
59.53670391
46.92112984
47.10213235
44.05493518
38.01927917
38.1140679
36.63023165
33.66191522
33.74644371
201.2590803
211.3231849
165.5537193
103.624888
105.75276
90.85162929
64.78663366
65.40410682
58.93033553
46.65707369
46.85665807
43.84687599
37.89147785
37.98737526
36.51202162
33.55221831
33.63418221
188.865445
198.032786
157.3786383
100.7792898
102.9073449
88.77479599
63.94703561
64.57680636
58.30454483
46.38491894
46.58933375
43.6333258
37.76378749
37.85950287
36.395124
33.4454536
33.52527349
177.9013649
186.0044023
149.9044701
98.04458945
100.0830558
86.76028792
63.11747033
63.73810044
57.68303404
46.1114313
46.31654657
43.41841482
37.63646838
37.73192045
36.27930067
33.3410204
33.4191469
168.2672034
175.3982582
143.1514133
95.4467088
97.38242483
84.82809309
62.30496826
62.91260547
57.07054164
45.83767023
46.04298535
43.20261656
37.50907065
37.60463547
36.16397186
33.23831319
33.31519983
159.7617402
166.0923134
137.0512303
92.98276173
94.81996107
82.97797028
61.50983634
62.10454596
56.46725784
45.56329474
45.76912128
42.98548733
37.3809746
37.4771225
36.04849878
33.13680039
33.2128369
152.159621
157.878165
131.4980048
90.64077231
92.39242347
81.20346039
60.73041102
61.31388376
55.87201761
45.28757877
45.49451111
42.76633478
37.25152014
37.34875055
35.93223546
33.03596743
33.11154173
145.2895402
150.5654661
126.3927299
88.39785673
90.09506644
79.4886177
59.96069756
60.54016351
55.2804929
45.00872695
45.21860329
42.54375357
37.11982201
37.21890107
35.81437177
32.93519726
33.01080808
138.6437662
144.0366799
121.3745715
86.10407036
87.93636346
77.71777776
59.14702843
59.78893372
54.65111151
44.70672735
44.94299618
42.30163853
36.97625969
37.08771625
35.68635116
32.82746355
32.91053223
822.8937357
963.6439615
924.9599101
572.6628464
594.3079639
712.5282296
157.8950847
250.4972543
229.8914246
523.2286636
868.12192
1515.977609
1150.107323
760.247548
335.0361881
347.5025813
461.5962526
144.3563925
205.3117835
197.4788504
223.6660943
209.8309813
145.4901616
443.5265956
497.003122
290.2433116
399.7596716
372.129095
412.400111
276.6372972
1403.141759
1021.100578
668.1770781
644.7127606
555.0592387
606.0275564
731.4920749
696.0610488
346.4374478
377.2293042
557.1473472
254.3633037
311.7656101
302.8962988
358.8035418
324.9610313
262.7160471
1563.379831
1397.669629
1023.415314
2698.338003
2960.540602
4543.773684
716.2269891
1072.691861
941.5946094
1283.806707
2043.692138
1782.231683
676.8311455
712.6996036
1091.095903
498.8805405
589.9608834
567.520803
616.2336295
518.6159727
817.2541781
765.318749
628.2993975
2120.076777
2376.414589
899.7162765
909.8062281
214.79334
222.674343
351.9656576
138.4421417
171.1130141
166.7380486
192.5513189
176.0552605
141.5947818
436.7913707
507.8720019
491.9576179
545.5062649
526.5360078
452.0226809
753.7125248
619.7729702
647.5206545
231.2372551
278.2033082
273.0925713
292.666015
285.9854358
237.5756133
474.4874651
352.7090393
367.9569255
476.7477516
645.1683269
619.8002338
2004.211045
3557.275491
3078.348769
801.1903567
833.1723868
729.4329356
750.8371894
1014.465462
544.8129363
621.8868068
608.6677838
3818.453138
2280.86043
2655.398601
1715.52144
1954.820949
3303.768685
964.6780687
1267.060269
1166.275528
1864.279766
3060.542593
2694.452386
3975.633861
3507.785399
2155.282799
1232.17801
1867.405408
1668.315091
2358.587956
2086.655008
1352.671824
2655.841683
2353.579773
1417.033306
104.3574793
105.5388541
139.8040915
74.34283755
87.10168489
86.3657063
1087.775583
1023.753097
848.2505523
2270.673838
1396.275537
1533.84085
1172.617634
1263.568102
1950.390966
913.613856
954.7684841
1280.053683
724.5091951
798.4252509
795.470728
841.2262159
737.4634264
1685.366822
1860.797261
984.1685064
1253.386636
1171.595327
1493.698009
1362.58171
1035.717017
34.13908399
32.75964647
32.06803671
31.6033648
31.28955917
31.07731697
620.2867427
534.3334375
551.9217801
124.1627393
101.5544756
102.7977107
64.604612
58.01754925
58.02039357
45.82575787
43.23357541
43.09518629
37.99017417
36.79987542
36.71978404
34.30898787
32.86581412
32.81940987
32.12658754
31.62470459
31.61483591
31.28068364
31.04551631
31.06370048
393.6247329
313.3388148
323.6098243
115.3227546
96.28740307
97.69653836
64.0408264
57.87754342
57.90710322
46.07804533
43.53579159
43.52246904
38.26598184
37.02809672
36.97312524
34.37641566
32.9129275
32.89200196
32.15174428
31.62336874
31.62594162
31.26218275
31.00894704
31.0293193
279.3073314
202.2268268
208.0937271
108.5570172
92.14251087
92.96503849
63.11885219
57.33738132
57.43333501
46.05688405
43.57141616
43.58941609
38.30504373
37.06684507
37.07331458
34.35853349
32.90710865
32.91206125
32.14371745
31.60518298
31.61671035
31.23143824
30.96602933
30.98902315
256.9972829
191.5204023
192.6975014
105.8165588
90.50859332
90.71749301
62.78758973
57.16056215
57.19195116
45.98487672
43.50101585
43.52362184
38.22554835
36.98985767
37.01553387
34.30335152
32.8691941
32.89141029
32.10820266
31.56887169
31.5866995
31.18875395
30.91478491
30.94184284
256.3109803
191.8786105
191.4221335
105.7830016
90.46183397
90.41851289
62.68818227
57.03788128
57.0823378
45.80284514
43.31705551
43.37502665
38.07419736
36.8658037
36.89938212
34.22357281
32.8111955
32.84272779
32.0524189
31.51344298
31.54255768
31.13006404
30.85298702
30.88572282
257.9818586
193.0466469
193.138308
106.0583726
90.44328863
90.5089254
62.27154655
56.62502685
56.76444643
45.44870934
43.00339861
43.08429238
37.90603474
36.72928465
36.76322301
34.13037553
32.73650258
32.77554552
31.98194998
31.44439966
31.48005121
31.05968681
30.78045228
30.81809219
249.2814736
188.469578
190.2428708
104.5762212
89.32532532
89.74512721
61.43829065
55.91481654
56.07832626
45.09221857
42.72177968
42.78593445
37.75252649
36.5977841
36.62995996
34.02948822
32.65019321
32.69459686
31.90036242
31.36422186
31.40529832
30.97927879
30.6988991
30.74092526
233.8245517
180.1689886
182.0879482
102.3057781
87.87282566
88.20404119
60.86981346
55.43508831
55.52906893
44.82666111
42.50356417
42.55260224
37.61452976
36.47306793
36.50376921
33.92226687
32.55455548
32.60348558
31.80919754
31.2746236
31.32030316
30.89013224
30.6090657
30.65515347
221.5429199
173.3737531
174.9529998
100.469307
86.72323236
86.98553392
60.58513581
55.20415473
55.24323817
44.64922871
42.34252127
42.37753429
37.48696849
36.35154983
36.38186336
33.80814071
32.45033137
32.50347118
31.70946121
31.17700714
31.22658932
30.79339708
30.51215716
30.56162832
211.6046452
167.7427909
169.0505476
98.9910199
85.8218761
86.02600627
60.45452802
55.13022378
55.13911148
44.55438983
42.23532356
42.25755136
37.36605642
36.23016906
36.260526
33.68761292
32.33875288
32.39533931
31.60258583
31.07274266
31.12551613
30.6902871
30.40904204
30.46153442
203.5050898
163.0787722
164.1693527
97.82172135
85.13396209
85.287186
60.40677737
55.13311176
55.12830251
44.51591617
42.16891746
42.18277827
37.25106365
36.10924523
36.13935276
33.5632859
32.22211605
32.28090014
31.49048769
30.96334153
31.01851106
30.58209983
30.30121889
30.35588125
196.8502877
159.2158362
160.094532
96.95024964
84.65713526
84.75413638
60.42139419
55.17908746
55.16438186
44.5037541
42.12387847
42.1341498
37.14115576
35.99012856
36.0196954
33.4382592
32.10307026
32.16274006
31.37530122
30.85046771
30.90718855
30.47022798
30.18949628
30.24604686
192.0909064
156.4410179
157.0233897
96.42042512
84.40509834
84.45224114
60.47462297
55.23893314
55.22663983
44.49077488
42.07959703
42.09200421
37.03353739
35.87296253
35.9021426
33.3148758
31.98384171
32.0433705
31.25889435
30.73564017
30.79318342
30.35595909
30.0755293
30.13300341
188.7328442
154.4828931
154.9617374
96.02089026
84.1907335
84.26071151
60.46995852
55.23828357
55.24793611
44.44003667
42.00966219
42.03086542
36.92335235
35.75626403
35.78547202
33.19449456
31.86591663
31.9246521
31.14260192
30.62004453
30.67785641
30.24035838
29.95957452
30.01805004
184.5979327
151.9530665
152.7215955
95.25214745
83.64866454
83.83148134
60.25188774
55.06575028
55.12519883
44.32462591
41.89758919
41.92951706
36.80810775
35.63929653
35.66852496
33.07772931
31.75009825
31.80771786
31.02724706
30.50449704
30.56221224
30.12422788
29.84329574
29.90171847
178.0695478
147.7689686
148.9713157
93.81277587
82.59436222
82.90151098
59.81375019
54.73138698
54.82724342
44.15329983
41.75029996
41.78947176
36.68967672
35.5231139
35.552005
32.9646706
31.6366994
31.69309495
30.91327499
30.38954039
30.44691855
30.00813997
29.72603932
29.78506837
169.8192819
142.3294229
143.7489798
91.88729148
81.1847443
81.55588742
59.23883399
54.29977364
54.41269153
43.95211724
41.58486044
41.62712746
36.57096911
35.40893504
35.43726059
32.85502624
31.52572799
31.58092896
30.80087936
30.27548357
30.33239762
29.89249164
29.60982211
29.66805861
161.3856318
136.6293504
138.0400856
89.80859453
79.65985077
80.04290736
58.61762619
53.83481968
53.95209504
43.74037679
41.41313095
41.45631295
36.45340504
35.29705478
35.32482443
32.7482987
31.41700884
31.47112952
30.69008485
30.1625019
30.21890233
29.77750979
29.49276254
29.55170955
153.5496181
131.2072464
132.5286075
87.75750083
78.14583389
78.52060287
57.99272123
53.36553842
53.48265974
43.52595794
41.23972771
41.28315528
36.33710607
35.18712563
35.21445601
32.64396306
31.31029468
31.36349431
30.58083056
30.05063741
30.10656314
29.66335863
29.37793436
29.43539677
146.4400616
126.1792978
127.402696
85.78365954
76.67744295
77.03992961
57.37558236
52.89957635
53.0156706
43.31063607
41.06551424
41.10915418
36.22161091
35.07854831
35.10560105
32.54148523
31.20531211
31.25781421
30.47294908
29.93986226
29.99548766
29.55001976
29.26152439
29.32046479
140.0258853
121.5410259
122.6754185
83.89293576
75.25932612
75.60949379
56.76775595
52.43783305
52.55289768
43.09424419
40.89014434
40.93412574
36.10628874
34.97067355
34.99760963
32.44041603
31.10169849
31.15396555
30.36613872
29.82992957
29.88576541
29.43740765
29.14870432
29.20560758
134.2123533
117.2536272
118.3201005
82.08182109
73.88991059
74.22946757
56.1687294
51.97982524
52.09412341
42.87620275
40.71301196
40.75750356
35.9905015
34.86288409
34.88985755
32.34030055
30.99869961
31.05193253
30.2597844
29.72034746
29.77771111
29.32495466
29.03196288
29.0931915
128.8953223
113.2653458
114.3034777
80.34031119
72.56285296
72.89931689
55.57640678
51.52400501
51.63887555
42.65566583
40.5333512
40.5786878
35.87358982
34.75455434
34.78175329
32.24057548
30.89456787
30.95224576
30.15243451
29.60966575
29.67203727
29.21135022
28.91949862
28.98143921
123.9741654
109.511154
110.6129737
78.63983253
71.25537235
71.62763492
54.97961997
51.06167193
51.19034299
42.4285896
40.3479779
40.3982988
35.75364194
34.6439745
34.67324065
32.1343912
30.78101483
30.85741356
30.03532521
29.48889452
29.57085491
29.08700819
28.78728463
28.87628679
153.9154943
173.5415193
171.2650998
512.08945
585.2686554
574.7711061
870.6690113
861.8232593
733.5731373
168.5823752
166.6830695
148.7412019
330.909327
292.6663679
454.03075
463.4789623
526.2219431
784.3844329
815.7475762
963.5137676
1204.308589
1266.035662
857.1889702
729.9476646
768.7301217
492.2325002
436.0388348
444.7228966
1063.026296
1126.252702
57.84179236
57.80985358
64.77233289
48.44747591
52.51220709
52.69062166
42.9469345
42.74000979
45.25877901
39.04192442
40.71250137
40.87493214
36.62709706
36.5052463
37.65781602
34.73957058
35.54275077
35.64827185
502.8048772
516.9550251
596.2252276
393.7689633
449.1236598
438.5597703
476.1528159
462.7279239
403.1315372
99.11265174
100.0333173
121.5134261
73.22263909
84.43619508
83.70136841
85.80185462
85.0068866
73.44306398
57.99095326
58.01924708
64.52525896
49.01505506
52.98854343
53.03453633
52.81395398
52.9575435
49.00471472
43.41235146
43.37579919
45.90092975
39.54947285
41.28462724
41.32346748
41.04325321
41.12814838
39.41076085
36.94367983
36.8727427
38.09589093
34.99591425
35.84984538
35.91250424
35.72191609
35.79645124
34.95180411
295.4403606
304.5491368
377.0974858
264.0172203
259.4723168
218.8774103
93.90992163
94.99610964
113.2686962
71.52879725
81.48887692
80.80441873
83.09772216
82.26406475
72.02668787
57.56051305
57.72076835
63.73228495
49.20607731
52.99275966
52.89439504
53.0051626
53.03641112
49.19295938
43.60385781
43.59284887
46.12336591
39.75346016
41.49988054
41.52531719
41.41958788
41.45852078
39.72536462
37.06931162
37.04068294
38.28134237
35.11940875
35.99964427
36.02364188
35.94193342
35.98482938
35.1068119
414.4902454
431.5293804
194.6601403
197.8639364
270.3588506
129.0312041
156.883402
154.8624086
162.7975202
159.4614665
130.7372781
91.03682569
91.50843499
107.4975869
70.23501795
79.42106791
79.1458798
80.26592166
79.79289279
70.47211955
57.23503868
57.28881611
63.00299458
49.03902442
52.72169815
52.70334435
52.81626955
52.75593195
49.0673357
43.53707447
43.55462697
46.03572589
39.75473765
41.4887824
41.47079863
41.51766759
41.50473291
39.76989702
37.03691205
37.05378352
38.29094727
35.12020531
36.00685091
35.99122056
36.02494248
36.01892554
35.13121963
383.440072
386.9915929
191.1520533
191.1276451
255.6140971
125.8046396
152.4561047
152.4923952
153.5724736
152.7365135
126.1431091
90.38903765
90.39689841
105.6122081
69.82655416
78.78618641
78.78142805
78.96188981
78.84254
69.86684156
57.11256502
57.13610698
62.75958406
48.95814253
52.62134337
52.59132731
52.67301811
52.64702441
48.98712202
43.42574495
43.46732195
45.95319487
39.65777808
41.39493351
41.35367235
41.45055639
41.42963059
39.68980126
36.9320424
36.96326083
38.19575934
35.05614849
35.92705954
35.90295609
35.97150627
35.94951509
35.07499749
386.1644227
384.6343962
192.9045436
192.4108133
257.1280168
126.2954094
153.3395725
153.6659686
152.6855041
152.9880598
126.0768431
90.52162215
90.50195053
105.9213315
69.74194031
78.7777335
78.73674273
78.78883332
78.79145333
69.78421028
56.88196421
56.97254893
62.63169559
48.7437719
52.4283513
52.33651928
52.55215788
52.49898061
48.81788105
43.16848304
43.24812857
45.73301958
39.46401051
41.18312494
41.11477484
41.30574382
41.24816838
39.51867873
36.7974143
36.83170489
38.03127239
34.96934971
35.82250809
35.79411039
35.87725146
35.85032834
34.99304535
381.4651118
384.9388407
191.6096905
192.5657913
256.9778244
126.2934484
153.4155178
152.766216
153.8186832
153.732755
126.5151942
90.07088156
90.29436435
105.909852
69.21426755
78.35673102
78.15248272
78.65532946
78.53805244
69.3985382
56.25884208
56.45242192
62.09233214
48.3067963
51.94195548
51.78983739
52.22866526
52.09724117
48.43242154
42.8542208
42.92670442
45.3507108
39.2586566
40.92405908
40.86624433
41.0484238
40.9847948
39.30742801
36.66260351
36.6957339
37.86606185
34.8688431
35.70743792
35.67844466
35.7653703
35.73641169
34.89466136
352.8200479
362.3301464
184.107288
186.2371877
245.0973612
123.4368607
149.3259988
148.0019105
151.9114852
150.7176762
124.3682571
88.5546968
88.92726027
103.9614032
68.26450185
77.28076459
77.03372699
77.85693414
77.55378539
68.4760066
55.64007935
55.76865038
61.26173994
47.88314456
51.40123691
51.29534245
51.64874927
51.5191133
47.97689861
42.60524864
42.66160411
45.01750224
39.08190649
40.70972439
40.66292581
40.81128774
40.75912945
39.12341558
36.53473939
36.5660695
37.71670974
34.76309138
35.59178371
35.56297689
35.64951843
35.62059344
34.78986217
320.298264
327.5549059
176.6075877
178.3440758
230.4883634
120.1594465
144.4035224
143.315469
146.7439368
145.5453072
120.9173411
87.26409865
87.55970697
101.8091271
67.65419784
76.40588222
76.2270033
76.80761364
76.59893276
67.77851313
55.29363786
55.35707614
60.77780331
47.5897836
51.05068893
50.99317407
51.20157717
51.12001661
47.65066796
42.41604048
42.45805679
44.77396775
38.93104465
40.5365547
40.49883438
40.61853822
40.57642749
38.96672072
36.41218336
36.44257337
37.58186451
34.65338543
35.47632494
35.44718953
35.53418196
35.50528258
34.68122636
295.7645669
301.3027486
170.4240641
171.8649074
218.857309
117.4798469
140.3402949
139.4375825
142.2776524
141.2863621
118.1003297
86.24401278
86.47630134
100.0681323
67.28027782
75.7635549
75.63094367
76.06095558
75.90663909
67.3585555
55.15349872
55.17480534
60.54171872
47.42761221
50.88322312
50.86404065
50.94671137
50.91035797
47.45657746
42.28267485
42.31094545
44.61840722
38.79963283
40.39789968
40.36830512
40.46315978
40.42950021
38.8308914
36.29088358
36.32123462
37.45615922
34.53831892
35.35839893
35.32829325
35.41785509
35.38823664
34.56765348
276.8709469
281.141034
165.307345
166.4967369
209.429293
115.2936275
136.9785776
136.236497
138.5771743
137.7578073
115.7972567
85.45286832
85.63100666
98.67126715
67.04263026
75.29037659
75.19497502
75.508122
75.39462524
67.09196339
55.1262284
55.12589833
60.43624385
47.37093104
50.84254554
50.84387113
50.8516144
50.84439921
47.37790291
42.19826337
42.21567696
44.540781
38.68449762
40.29037239
40.26762988
40.3405837
40.31463459
38.7118774
36.16955806
36.19984415
37.33675728
34.41733892
35.23660979
35.20572055
35.29794589
35.26735525
34.44805076
262.1547684
265.5113968
161.0366587
162.0335526
201.6979971
113.5289264
134.2081002
133.5980793
135.528468
134.8520977
113.9338139
84.86651166
84.99346953
97.57349018
66.90365177
74.95931941
74.89907839
75.10785776
75.02905826
66.92951323
55.15178056
55.14130971
60.40625441
47.37129094
50.86237735
50.87265431
50.84740285
50.85386138
47.36828196
42.14488076
42.15638351
44.51133982
38.58272049
40.20649875
40.18797627
40.24617376
40.22584032
38.60716799
36.04940408
36.07925963
37.22316315
34.29254204
35.11261541
35.08158488
35.17473275
35.14367347
34.32392769
251.0060938
253.3809338
157.6770401
158.4081453
195.4630585
112.1882567
132.0117178
131.5783321
133.0254606
132.4948394
112.4761956
84.50780559
84.57537746
96.78660195
66.86214515
74.77736349
74.75527499
74.84848928
74.80791848
66.8625885
55.2115032
55.19518954
60.43395262
47.3946391
50.91019344
50.92295199
50.88431741
50.89701066
47.38818134
42.10322528
42.11371095
44.50187243
38.48915246
40.13506408
40.11757436
40.17002878
40.15245964
38.51216176
35.9313768
35.96069916
37.11420855
34.16698986
34.9889237
34.95825436
35.05061009
35.01970917
34.19830026
243.9174702
245.4156093
155.4306938
155.9163469
191.1858427
111.3381255
130.5445085
130.2590986
131.1933946
130.8515753
111.5143587
84.31541172
84.36143913
96.32524647
66.87584138
74.71358314
74.69623138
74.73931295
74.72650296
66.87396337
55.2494705
55.24686671
60.48242957
47.40587223
50.94635712
50.9467234
50.93396468
50.94209553
47.40630798
42.0494186
42.06555417
44.48327401
38.39553527
40.06138795
40.04052056
40.09965192
40.08101208
38.41953321
35.81464941
35.84381064
37.00641001
34.0429966
34.8669862
34.83681341
34.92770726
34.89728019
34.0737668
238.172787
239.7023548
153.3869505
153.9668026
187.8664043
110.6117101
129.3614156
128.9895465
129.9786772
129.685315
110.8211541
83.98085413
84.09928091
95.88280927
66.79586081
74.56499084
74.48160083
74.66879484
74.62628563
66.84004264
55.17370263
55.21206291
60.43725234
47.35413526
50.90688257
50.8752815
50.94337167
50.93104916
47.3762203
41.95894788
41.9856981
44.41745228
38.29211703
39.96863374
39.94139709
40.01817513
39.9942304
38.31923438
35.69777682
35.72703018
36.8950012
33.92177149
34.74708611
34.71745863
34.80677175
34.77685819
33.95177528
229.9811118
232.4037077
150.0761469
151.0721899
183.2031578
109.2986682
127.4512
126.7780064
128.5536453
128.0428032
109.7122508
83.1818945
83.43182272
94.95524697
66.43481534
74.07845671
73.89344524
74.373253
74.23881946
66.55461094
54.91578009
54.99567393
60.16109911
47.20654862
50.73229059
50.66987352
50.83558152
50.78777092
47.25190155
41.8272783
41.86341696
44.28608133
38.17577924
39.85075708
39.81809618
39.91257659
39.88231066
38.20589725
35.58101487
35.61011868
36.7786725
33.80396178
34.62957516
34.60064479
34.68799122
34.65869221
33.83306797
218.0476709
221.2909922
145.139776
146.4861953
176.1055712
107.0925373
124.3254856
123.3989302
126.0265208
125.2053917
107.7155473
81.91719386
82.26480056
93.36283096
65.79195702
73.21503124
72.95842746
73.68579483
73.45859311
65.97285721
54.52293276
54.62953919
59.67859846
46.98387367
50.45000876
50.3689518
50.60136506
50.52777162
47.04441022
41.66890695
41.71003158
44.10483021
38.05106497
39.71525712
39.67988188
39.78450667
39.75017842
38.08268663
35.46573385
35.49435326
36.65994121
33.68986657
34.51505903
34.48693255
34.57191181
34.54338386
33.71803813
204.5695208
207.9291224
139.4641846
140.8977432
167.6827593
104.3412633
120.4575844
119.4559079
122.4380315
121.4542519
105.0525847
80.42585451
80.80717462
91.37185002
64.99513707
72.13972579
71.85828827
72.69187922
72.41822685
65.20143317
54.06892707
54.18497585
59.08543464
46.72433729
50.11320382
50.02550985
50.28538315
50.19996842
46.79096188
41.49936476
41.5422371
43.89970859
37.92345343
39.57213313
39.53590352
39.64417912
39.60824329
37.9554285
35.35272129
35.38075573
36.54145209
33.57934576
34.40373643
34.37636692
34.45900929
34.43128019
33.6066611
191.8368705
194.8824474
133.8712438
135.2401844
159.3642388
101.4827596
116.4795313
115.5073007
118.4563125
117.462857
102.1926912
78.89807645
79.27800518
89.29002773
64.1565893
71.00966326
70.72796874
71.57545916
71.29233344
64.36666313
53.59996605
53.71738569
58.46100163
46.45318788
49.75979074
49.67086447
49.93723932
49.84861774
46.52135342
41.3265359
41.36986308
43.68689789
37.79566391
39.42690133
39.39050192
39.4996096
39.46327234
37.82756891
35.24188086
35.26940981
36.42422548
33.47190228
34.29525062
34.26850261
34.34917192
34.32213541
33.49850237
180.5298741
183.2088558
128.6432432
129.9150609
151.7115101
98.71576944
112.6745372
111.7576334
114.5491648
113.6041114
99.39515351
77.40540598
77.77410265
87.25648
63.32331049
69.89227526
69.61717241
70.44772189
70.16914303
63.53023313