/*--------------------------------*- C++ -*----------------------------------*\
| =========                 |                                                 |
| \\      /  F ield         | OpenFOAM: The Open Source CFD Toolbox           |
|  \\    /   O peration     | Version:  v2012                                 |
|   \\  /    A nd           | Website:  www.openfoam.com                      |
|    \\/     M anipulation  |                                                 |
\*---------------------------------------------------------------------------*/
FoamFile
{
    version     2.0;
    format      ascii;
    class       volScalarField;
    location    "1.29";
    object      omega;
}
// * * * * * * * * * * * * * * * * * * * * * * * * * * * * * * * * * * * * * //

dimensions      [0 0 -1 0 0 0 0];


internalField   nonuniform List<scalar> 
3019
(
663.4011514
128.2697688
65.98903045
46.71664868
38.79600631
34.6863374
32.30917201
31.37873524
30.84208134
30.63875642
30.53327189
30.48240102
417.9601895
120.0554537
65.93600353
47.5029045
39.18168418
34.84459898
32.35978818
31.36994228
30.78826973
30.56777606
30.45080781
30.3944959
300.2651638
112.9250805
65.62111498
47.77402474
39.34078618
34.87547529
32.36051367
31.34613308
30.73391976
30.50010117
30.37267613
30.31106704
272.514114
111.4741525
66.15789083
47.98587302
39.26442867
34.80946187
32.32820108
31.3069937
30.67278832
30.42920143
30.29469766
30.22892517
285.5583116
114.7911968
67.25134599
48.04605307
39.04987634
34.69797683
32.26677135
31.25365952
30.60691633
30.35719728
30.21609991
30.14666982
312.3905616
119.1752475
67.74525259
47.64534273
38.75040614
34.55434516
32.18087738
31.18243552
30.5303754
30.27693939
30.13250943
30.06022475
313.2420835
118.8190228
66.62318557
46.9592245
38.4503939
34.39343488
32.07979817
31.09872451
30.44704798
30.19228191
30.04545666
29.97146047
280.2169049
113.978165
65.21902494
46.34269059
38.1620255
34.22554842
31.96852654
31.00500198
30.35474512
30.09921918
29.95091913
29.87592772
252.1723911
109.5975827
64.0601763
45.81282677
37.89083352
34.05680305
31.85048889
30.90341945
30.2575696
30.00282798
29.85385785
29.77833647
230.5027039
105.7085729
63.03900188
45.3768825
37.64143755
33.8909442
31.72834476
30.79582143
30.15265042
29.89816669
29.74894758
29.67343122
213.0341635
102.2443458
62.10965627
45.01871644
37.4180596
33.73080416
31.60427519
30.68380476
30.04578373
29.79291103
29.64394614
29.56867364
198.5636671
99.13673271
61.25277334
44.71186965
37.22093361
33.57846368
31.48004762
30.56882529
29.93228458
29.67960236
29.53089893
29.45617038
186.3621343
96.32790363
60.45616279
44.43647251
37.04611083
33.43475892
31.35689544
30.45201977
29.82014895
29.56927983
29.42118565
29.34705909
175.9023631
93.76382609
59.71041379
44.1811869
36.8882513
33.29928763
31.23547203
30.33432487
29.7013026
29.44992281
29.30214334
29.22875067
166.8049917
91.40315286
59.00819741
43.93957293
36.74267243
33.17100179
31.11603559
30.21631414
29.58757164
29.33803765
29.19092237
29.11821082
158.8165813
89.21875988
58.34241856
43.70762951
36.60585545
33.04868559
30.9985891
30.09851814
29.46508013
29.21404188
29.06710636
28.99512215
151.7165954
87.18354254
57.70678754
43.48282868
36.4752944
32.93121706
30.88303116
29.98109335
29.35278362
29.10373573
28.95738822
28.88602032
145.3332124
85.27438106
57.09666657
43.263374
36.34912252
32.81759906
30.76921022
29.86441304
29.226676
28.97504575
28.82870631
28.75797476
139.5538928
83.47542567
56.50835381
43.04771969
36.22587478
32.70697745
30.65697955
29.74836218
29.11897277
28.86957489
28.72366031
28.65341512
134.2933139
81.77425696
55.93859521
42.83449614
36.1043736
32.59862478
30.54621268
29.63339346
28.9873657
28.73450273
28.5884765
28.51875428
129.468132
80.16040659
55.38447452
42.62244106
35.98361885
32.49187892
30.43685146
29.51919037
28.88872342
28.63799843
28.49215371
28.42277522
125.0147557
78.62451218
54.84315145
42.41033639
35.86276437
32.38622405
30.32905948
29.40672223
28.74683915
28.4928481
28.34687396
28.27792354
120.8898157
77.15782344
54.31176016
42.19700944
35.74107614
32.28117205
30.22352742
29.29599863
28.66477203
28.41099929
28.26494574
28.19619571
117.0704107
75.76252211
53.79204746
41.98287684
35.61849613
32.17660341
30.12223299
29.19034182
28.48163057
28.22449276
28.07812101
28.0097668
806.8194472
692.5661404
154.8555782
514.9120942
791.3944912
435.7940621
151.3067188
153.268295
396.0230466
507.2741153
286.7906119
587.2125312
602.7086269
529.009731
254.9509259
277.1885618
1103.3993
701.3822849
1206.457792
938.3790505
494.2614505
669.7749832
312.9734749
138.9361775
148.345997
435.8847755
476.4379718
883.2234715
234.838837
247.7581728
515.456836
472.5154079
5802.230954
1777.727384
986.558772
545.3735275
4314.80428
2935.505406
939.3388367
4485.50011
5654.557167
2897.601052
4251.449747
5988.409455
1673.065481
2522.736307
1177.306715
1488.587155
5386.105488
6031.022115
1579.356314
5730.536966
4878.837714
140.4415599
75.21099906
901.5616971
2583.040769
1731.420016
3993.685741
2309.677582
1192.023015
706.0479661
5803.804023
6154.055613
6263.115965
5151.034118
5964.484785
952.7319738
1102.912747
5457.628939
4927.74262
5538.816053
5125.371501
5939.888544
5882.1557
5711.542798
3367.102846
5019.197445
4534.307809
5677.484357
5879.412415
3793.629311
4146.760516
4601.199654
5915.069367
4773.191774
3309.682493
3658.493935
5525.497198
4043.524809
4304.829654
3142.27589
3618.714791
5713.683761
65.78793863
49.78092278
46.59935706
40.10175605
38.63059033
35.40916619
591.896968
393.9575089
422.3200161
122.3857991
74.33143386
75.12191443
65.92895704
50.57327731
49.92118088
47.32838533
40.65811388
40.30587018
39.11336968
35.66055543
35.47681329
380.1615925
211.0983281
229.8411757
114.272211
73.38726216
74.26754306
65.65584819
50.94031014
50.68503468
47.75440801
40.97175091
40.77942701
39.33658401
35.74388202
35.689805
413.9019132
463.1143169
274.2657997
132.9780327
136.5457792
111.3216329
73.45066116
73.27996372
65.94579995
51.19836262
50.96704561
47.92524151
40.95363657
40.97169583
39.29582985
35.67926618
35.73929299
426.073967
408.862135
279.5245705
135.5207912
132.8944921
113.6743019
74.77689774
73.68830795
66.97736972
51.49339342
51.28071755
48.06497577
40.81058694
40.93491649
39.1203445
35.55206254
35.64998759
489.246634
441.0709776
306.4867133
141.8797914
137.0512702
118.3451794
76.08148259
75.17638519
67.76022085
51.36286372
51.52514726
47.8008351
40.46468026
40.7378647
38.82607784
35.39031199
35.51426376
507.5205331
502.5279027
317.5649483
143.6603853
143.0775691
119.4817709
75.66174864
76.20292288
67.02383984
50.59221742
51.22268043
47.12500012
40.09687784
40.37150484
38.52461504
35.20946494
35.34623112
439.630887
494.5427535
288.5693134
137.6821796
142.829201
115.1589891
73.81626025
75.18327693
65.54182483
49.80314572
50.38470323
46.48936073
39.7481599
40.00759191
38.23267594
35.02209009
35.1629199
373.378648
421.4047462
258.478351
131.2032573
135.9801479
110.6438068
72.21264226
73.39584205
64.3339373
49.138263
49.62442848
45.93638875
39.42472543
39.66474789
37.95678187
34.83505481
34.97513273
322.9407947
359.3573071
235.4591459
125.520033
129.7125536
106.6381684
70.77185475
71.83928974
63.28461094
48.60127588
48.99281909
45.47758495
39.13193437
39.34841
37.70146779
34.65264948
34.78890763
285.4958701
312.3586061
217.0835963
120.5112552
124.2091341
103.0744785
69.45882466
70.43227263
62.33462627
48.16017431
48.48362116
45.10244934
38.87489361
39.06421458
37.47136208
34.47819154
34.60818882
257.9386927
277.8602928
201.944655
116.0609561
119.3499735
99.88337452
68.25561001
69.14829418
61.46090459
47.77750806
48.06018709
44.78502452
38.65285347
38.81629031
37.26792174
34.31417568
34.43615168
236.5743278
252.1137404
189.2296129
112.0756417
115.0240459
97.00509635
67.14615564
67.96999825
60.65021812
47.42988531
47.68789425
44.50310156
38.45919661
38.60208972
37.08801857
34.16149612
34.27495372
219.3032302
231.9369475
178.3774143
108.4737153
111.1420001
94.3844555
66.11537865
66.8815206
59.8924841
47.10554247
47.34689442
44.24352414
38.28606099
38.41426284
36.92639972
34.01940921
34.12503763
205.0436842
215.4886884
168.9657686
105.1843256
107.623976
91.97575251
65.15173189
65.86847325
59.18004821
46.79812408
47.02726286
43.99894058
38.1271104
38.24518809
36.77812678
33.88635027
33.98536715
192.9802464
201.8485792
160.7220104
102.1630679
104.4049589
89.74980273
64.24543097
64.92007906
58.50582514
46.50340943
46.72335737
43.764867
37.97789917
38.08902063
36.63939072
33.76061104
33.8542925
182.5070351
190.2306132
153.4181426
99.37230662
101.4450017
87.67974126
63.38687736
64.02655096
57.86313926
46.21847977
46.43131043
43.53846098
37.83544083
37.9417291
36.50745724
33.64066402
33.73013175
173.237687
180.0883207
146.8677496
96.77630124
98.70597154
85.7407548
62.56857434
63.17868078
57.24700415
45.94132551
46.14849925
43.31781943
37.69765753
37.80061322
36.38033784
33.52522188
33.61142578
164.9571481
171.0827786
140.9446645
94.34959838
96.15436987
83.91548157
61.78498465
62.36953517
56.65355983
45.67021006
45.87301397
43.10134972
37.5629446
37.66373371
36.25647835
33.41319208
33.49693098
157.5337891
163.0319391
135.5599445
92.07290784
93.76693445
82.19087607
61.03144992
61.59387384
56.07944909
45.40354003
45.60315225
42.88764038
37.43001994
37.52957725
36.13464064
33.30366688
33.38560547
150.8234211
155.8083622
130.6268745
89.92931651
91.52523775
80.55583007
60.30390199
60.8471987
55.52166774
45.13984005
45.33735942
42.67540597
37.29779928
37.39692353
36.01378329
33.19584668
33.27657615
144.7006286
149.2699088
126.0703477
87.90339999
89.41333614
79.00024906
59.59854417
60.12560317
54.97736841
44.87768031
45.0741824
42.46342681
37.16534915
37.26472801
35.89302743
33.08908275
33.16907372
139.0721425
143.3115892
121.8292182
85.97670606
87.41728157
77.51145974
58.91060218
59.42532943
54.44305321
44.61547448
44.81218345
42.25041381
37.03181334
37.13208542
35.77159023
32.9828082
33.06248264
133.8451938
137.8614691
117.8403529
84.12228896
85.52456933
76.06945122
58.23196391
58.74261728
53.91277115
44.35078648
44.54994573
42.03450911
36.89616923
36.99819625
35.64857527
32.87638833
32.95625595
128.6459585
132.8668528
113.8257034
82.20901262
83.73569745
74.57129167
57.51296796
58.07958397
53.34758695
44.06397565
44.28815591
41.79964228
36.74843696
36.86306093
35.51503467
32.76242827
32.85029861
839.6007497
980.8045858
942.0012682
587.7898866
609.6620787
728.8485145
160.289516
255.6418414
234.8321222
538.4102265
885.6639917
1537.400889
1168.458342
776.9793421
344.321567
357.0284663
474.9938842
147.1522919
209.9673327
202.1676591
228.5266694
214.5277562
148.2576158
457.4906132
511.6709905
296.9920261
408.4828298
380.5528459
421.3193292
282.8718716
1422.130698
1037.915465
684.7588278
661.2067522
570.6839116
622.1978806
748.4814574
712.7455126
355.2920835
386.5177742
572.4859907
260.7979914
319.5938374
310.7338054
367.1711123
332.9173243
269.2629488
1583.825071
1416.956633
1040.586148
2721.137546
2984.006114
4561.163296
732.79967
1090.8105
958.753231
1302.164089
2067.381712
1804.156815
692.6003322
728.495432
1108.410081
510.9235962
604.5218552
581.8461225
631.0472665
531.1432146
834.2815064
782.1272178
644.7393592
2145.528227
2401.940025
917.1078398
927.0666727
221.2834643
229.2344314
362.7260308
141.8323171
175.4702929
171.1448649
197.2510546
180.4003973
144.9250345
447.1049914
520.9930359
504.6204562
559.4590619
540.1419928
462.7407643
769.9998667
635.3672451
663.2254724
237.3776442
285.8875399
280.7595993
300.4058872
293.7246658
243.8344288
488.1507316
362.0996724
377.6273398
491.2877429
660.8646591
635.1143202
2027.611189
3580.07562
3104.352296
818.1428302
850.1045048
746.1698845
767.6894145
1033.184799
560.313598
638.2911316
624.9871365
3840.873416
2306.481295
2682.905635
1738.984471
1981.233523
3325.190471
981.690029
1285.668179
1184.243227
1890.666908
3082.74166
2720.775668
3995.362043
3531.101838
2180.912173
1251.399172
1892.726371
1694.235372
2384.424361
2114.004233
1373.222205
2680.455173
2379.649173
1436.387839
105.7928634
106.9026485
141.8459506
75.29905076
88.20224649
87.54981724
1105.476091
1041.124483
864.8500198
2296.779157
1416.52279
1555.315015
1191.206273
1282.62197
1975.703932
929.9702129
971.1829672
1298.327749
740.118064
814.1986168
811.5300497
857.2979971
753.0271148
1710.010347
1886.931065
1001.698527
1273.640683
1190.524122
1516.740735
1383.722563
1053.857745
34.63371726
33.05626433
32.26725473
31.73873988
31.37955828
31.13812906
636.3596556
548.742512
566.7153217
126.3227908
103.1784479
104.3556188
65.92177752
59.31900258
59.23531128
47.06636789
44.39308696
44.1788192
38.87654706
37.5971818
37.50023296
34.82184347
33.17467439
33.12752657
32.336916
31.76897575
31.75515901
31.37665879
31.11210206
31.12785603
405.2443922
322.2438478
332.7976823
117.858456
98.42543729
99.71196372
65.92938683
59.66788578
59.55222354
47.55092109
44.91956585
44.84733322
39.26234591
37.88854079
37.81630434
34.87756824
33.21961964
33.20620125
32.36442337
31.77059301
31.77299401
31.3625435
31.07917689
31.09826234
288.3315931
208.648697
214.4813078
111.9935103
95.29896497
95.74273868
65.69765232
59.69952929
59.62400085
47.81674208
45.13825961
45.11801104
39.33339072
37.93352972
37.94534422
34.83047971
33.20437458
33.21554569
32.3517283
31.75072429
31.76386412
31.33249879
31.03756752
31.06028287
272.598429
202.8986428
202.1262436
111.9575014
95.84672938
95.39504138
66.41114636
60.32458386
60.13443019
48.02517679
45.23961456
45.23067687
39.23080257
37.80833539
37.8500029
34.73024279
33.14057135
33.17651276
32.30184923
31.7071373
31.72878892
31.28703557
30.98563468
31.0134345
292.266041
214.5364511
210.7876462
116.0442228
98.8347971
97.97298115
67.48589742
61.01822955
60.88828349
47.99615721
45.08724686
45.1577555
38.97632887
37.5900423
37.64907199
34.59278267
33.05057373
33.09897577
32.22614491
31.64024718
31.67554311
31.22239108
30.92128916
30.95570049
316.8499802
227.2390041
225.06136
119.7281328
101.3120797
100.9351382
67.60181073
60.84170808
61.00568566
47.46915969
44.58099152
44.72291448
38.67479154
37.34328074
37.40587259
34.43478107
32.9386658
32.99673431
32.13188838
31.55673023
31.59988294
31.14401012
30.84480217
30.8847494
306.8810883
222.4751233
225.745983
117.6244277
99.57333498
100.4440717
66.24209651
59.61541395
59.92583549
46.79789689
44.04122366
44.17168762
38.3769384
37.09301303
37.15525455
34.26782051
32.81376261
32.87740477
32.02521053
31.46080221
31.50978366
31.05449817
30.75844994
30.80313552
272.4516469
205.0132268
209.0629484
112.8326161
96.23005304
97.03227208
64.91152358
58.53528121
58.78211875
46.20146997
43.55252382
43.66942346
38.09244904
36.84909875
36.90917335
34.09883337
32.68177988
32.74838646
31.9101801
31.35598074
31.40910706
30.95620356
30.66352664
30.71233462
246.257014
190.6545541
193.993735
108.5815764
93.23241946
93.95185758
63.79455475
57.66634383
57.86892286
45.69525735
43.12478415
43.22543541
37.82623633
36.61658178
36.6734293
33.93196708
32.54645554
32.61435439
31.78978665
31.24489406
31.30093432
30.85108268
30.56171673
30.61373878
225.800124
178.6886585
181.4921491
104.8053755
90.54168478
91.18744215
62.79899155
56.92260754
57.10026746
45.28107848
42.76516088
42.84880747
37.58305307
36.39958714
36.45215974
33.77017604
32.4104884
32.4784072
31.66643147
31.12958227
31.18754953
30.74084976
30.45422633
30.50894664
209.1679727
168.5196102
170.9179277
101.4362263
88.12014834
88.70267538
61.88914147
56.25288863
56.41491335
44.93813377
42.46633187
42.53625307
37.36641725
36.20161606
36.24922802
33.61575835
32.27604619
32.34296276
31.54209078
31.01174068
31.07080994
30.62701053
30.34273715
30.39923671
195.3220401
159.7441815
161.8249084
98.40854619
85.9272328
86.45603435
61.04834619
55.63449627
55.78499273
44.64062184
42.21094553
42.27165886
37.17534067
36.02335567
36.06616288
33.469891
32.14467488
32.20991266
31.41828384
30.89275281
30.95226897
30.5108678
30.22807103
30.28608664
183.6011717
152.0755288
153.9017991
95.66575951
83.92622532
84.41050389
60.26522647
55.05635617
55.19753221
44.37106374
41.98357598
42.03842349
37.00525478
35.86250039
35.90127416
33.33243815
32.01710631
32.08040091
31.29594343
30.77359593
30.83311602
30.39343318
30.11177507
30.17041053
173.5103108
145.2884739
146.913377
93.15561314
82.08331987
82.53067102
59.53101213
54.51167338
54.64500795
44.11967621
41.77418561
41.82522964
36.85085843
35.71548326
35.75113458
33.20246377
31.89342054
31.95478965
31.17549997
30.65489609
30.71413774
30.27545697
29.99395317
30.05337007
164.7121899
139.2162253
140.6735631
90.84142026
80.37540342
80.79075095
58.83857061
53.99503765
54.12186032
43.88078589
41.57668332
41.62517987
36.70775491
35.57893714
35.61225243
33.07876292
31.77334528
31.83295813
31.05706319
30.53700439
30.59582073
30.15745985
29.87612309
29.93534049
156.9652145
133.7501588
135.0657052
88.6968873
78.78352976
79.17171899
58.18085222
53.50134441
53.6228588
43.65082306
41.38731194
41.43403674
36.57270511
35.45016011
35.48174659
32.96017436
31.65646896
31.71453904
30.94057076
30.42011226
30.47842438
30.039788
29.75749295
29.81724139
150.0577562
128.7884977
129.9867796
86.69500972
77.2887113
77.65422046
57.55197524
53.02659305
53.14368128
43.42751102
41.203704
41.24916654
36.44339685
35.32710227
35.35742495
32.84567617
31.54235552
31.59910498
30.82588391
30.30428493
30.36207494
29.92267289
29.63999247
29.69891023
143.8333335
124.2506981
125.3491756
84.81465889
75.87653333
76.22247898
56.94762356
52.56778628
52.68115076
43.20914022
41.02412528
41.06872833
36.31807755
35.20815112
35.2375812
32.73437618
31.43057297
31.486227
30.71282505
30.18954377
30.24682986
29.80623191
29.52164588
29.58128715
138.1901559
120.0814488
121.0927303
83.04125525
74.53670543
74.86540797
56.36425301
52.12232229
52.23257694
42.99422081
40.84713862
40.89121384
36.19537107
35.0920235
35.12085209
32.62552168
31.32071986
31.37550765
30.60121183
30.07583652
30.13269968
29.69056094
29.40551449
29.46367969
133.0420388
116.2325256
117.1694915
81.36271758
73.26058744
73.57410903
55.7986662
51.68780404
51.79552988
42.78140531
40.67149238
40.71534041
36.07414416
34.97765395
35.0061328
32.51842537
31.21241719
31.26661142
30.4907987
29.96307636
30.01972022
29.5755956
29.28769782
29.34740642
128.3053011
112.6579773
113.5339729
79.76873082
72.0408885
72.34110851
55.24800014
51.26203588
51.36778429
42.56945108
40.4960617
40.53995682
35.95343828
34.86414176
34.89248155
32.41254108
31.10523996
31.15933947
30.38122834
29.85097332
29.90793669
29.46121952
29.17342002
29.23111504
123.9139914
109.3168443
110.148857
78.24842308
70.87001701
71.15972117
54.70919805
50.84267697
50.94713031
42.35712304
40.31977626
40.36399149
35.83243564
34.75073408
34.77911474
32.30737281
30.99837813
31.05364204
30.27184118
29.73899796
29.79764381
29.3468325
29.05503892
29.11718622
119.8075158
106.1658891
106.9858677
76.78646511
69.73707595
70.02359684
54.1780694
50.42664707
50.53134434
42.14303415
40.14150213
40.18644295
35.71037107
34.63673682
34.66535883
32.20234425
30.88999964
30.95006015
30.16112855
29.62564975
29.68955785
29.23107526
28.94084401
29.00379957
115.9164051
103.1486863
104.0348211
75.35231396
68.6176834
68.93544079
53.64268275
50.00460222
50.12179551
41.92286173
39.95782687
40.00753624
35.58522627
34.52035984
34.55112549
32.09027465
30.77146994
30.85121594
30.04000311
29.50168403
29.58583144
29.10417722
28.8065161
28.89696664
156.4145597
176.5255482
174.2879741
527.1141876
601.3538253
590.7601866
887.458266
878.626633
750.0048337
171.6650713
169.8014942
151.4116344
337.9708764
299.1835303
466.3537416
476.0170244
540.8858231
800.5486631
832.0315098
980.259447
1224.561575
1286.668364
873.7418456
746.0117891
784.9413104
506.260647
448.0387287
456.8796829
1081.863286
1145.324736
58.88729593
58.80864101
65.78810489
49.45474171
53.50062825
53.78305912
43.99458459
43.69992046
46.24668929
39.92130793
41.64544885
41.85815296
37.38800695
37.2321587
38.46850068
35.29992916
36.18565168
36.32091707
516.3685762
530.9234499
612.1125764
403.2287629
460.500771
449.6418641
488.3331417
474.4779779
412.6994014
100.954366
101.796544
123.7702523
74.69881546
86.00725017
85.38095794
87.12695366
86.41203463
74.81215436
59.5556188
59.42536586
65.96461952
50.33485457
54.3446253
54.56782421
53.96994638
54.27368713
50.29870726
44.66834483
44.60657458
47.18658403
40.60185163
42.43289229
42.4908641
42.08548381
42.19716232
40.39232202
37.78496696
37.69010813
39.03604022
35.60088216
36.55527775
36.63705354
36.4040076
36.49616164
35.55160881
304.1116555
313.3775434
388.3172386
271.5972387
266.9781795
224.917763
96.43114561
97.30597738
115.9262815
73.63637536
83.66957495
83.22753886
84.96397918
84.30432924
73.98873402
59.61441477
59.63560416
65.75341171
50.93007473
54.81848458
54.81011117
54.58136553
54.72049326
50.76650503
45.10037986
45.00704961
47.69954708
40.8934591
42.77582442
42.86929964
42.63559303
42.72429431
40.85866798
37.93768815
37.90694402
39.28277285
35.73565119
36.73578742
36.75528178
36.66794248
36.7170593
35.72166593
424.6843949
442.8690982
202.6140644
204.6124713
279.5342419
133.5327714
162.0197852
160.9805819
167.2184524
164.1410824
134.7121199
95.14993919
95.12477526
111.4764533
73.30224649
82.76427458
82.88896122
82.9463157
82.78506604
73.25777784
59.96648711
59.83047561
65.79109884
51.09300627
55.02564036
55.14340301
54.85052351
54.90208532
51.023657
45.19210355
45.16823042
47.85990124
40.9649667
42.89560728
42.90118375
42.87840334
42.88594881
40.97024901
37.88567976
37.91227295
39.31752646
35.7029808
36.71623892
36.68790063
36.75442491
36.7393948
35.72539423
416.4495341
408.7410736
207.4744769
204.7512723
275.3825128
134.2080935
162.6576891
164.5551369
160.7556099
161.3806179
133.3400235
97.18245005
96.44112919
112.6800241
74.37407944
84.03341218
84.57603873
83.15772379
83.54601953
74.00727205
60.71555621
60.52276496
66.69089026
51.43660273
55.52677997
55.6440728
55.26657556
55.397917
51.36351084
45.20666327
45.23239939
48.05779871
40.86631852
42.86269751
42.81468746
42.90372414
42.89229208
40.91015999
37.70616316
37.76061385
39.18078287
35.58711007
36.5748089
36.53143623
36.65306426
36.61419129
35.6198533
471.3563263
453.9322168
221.9851419
218.3448577
299.3242181
140.3921516
171.5756006
173.7636632
166.7559534
169.1694462
138.7464681
100.389617
99.63140428
117.2319627
75.85917262
86.2301245
86.66207666
85.15513691
85.71292524
75.54769316
61.09913623
61.10292826
67.6616683
51.46136091
55.78960945
55.72430475
55.73359833
55.79302499
51.51483384
44.86544098
44.99115733
47.91422464
40.55824223
42.56540144
42.44990532
42.75332425
42.66932692
40.65117011
37.4680519
37.5295675
38.90151133
35.43312575
36.38809885
36.33719896
36.48560055
36.43768895
35.47470716
512.6545782
511.982553
227.7460294
228.2863744
318.6177204
144.1229109
177.4006635
176.9225189
175.6106841
176.8180443
143.8272695
101.0308876
101.3199285
119.8683484
75.97879542
87.01586224
86.750502
86.96777562
87.1261037
76.16421827
60.25188214
60.58399423
67.38594061
50.80588405
55.15619332
54.88692635
55.60024835
55.41491877
51.02392674
44.30522746
44.44170235
47.29502574
40.18738967
42.10773211
41.99712157
42.33433734
42.22019581
40.27899057
37.21780125
37.28053775
38.59946404
35.25565609
36.17969064
36.12628432
36.28534783
36.23274292
35.30131385
458.9943904
479.1881459
213.3245945
217.8120477
297.5424713
139.4409511
170.8861127
168.2304611
175.7494678
173.6254954
141.2484656
97.85700295
98.70428135
116.3754996
74.25275683
84.96839407
84.37226641
86.20874728
85.5815193
74.70775105
59.04379969
59.32138687
65.88218101
49.98972613
54.13547589
53.90705624
54.62608546
54.37536097
50.18374058
43.78995188
43.91393627
46.64119206
39.83315154
41.67757222
41.57547608
41.88847691
41.7819342
39.9196542
36.9698907
37.03120391
38.30433836
35.06913686
35.9657586
35.9124662
36.0727707
36.01919411
35.11607511
388.3069526
404.2804979
197.492003
201.1609403
265.2244821
132.7429639
160.8545755
158.5785715
165.6756433
163.218647
134.334668
94.69074887
95.44984695
111.7217414
72.59567403
82.67824387
82.14228729
83.79235286
83.22798291
72.98961485
58.0802787
58.30186921
64.61717634
49.29189747
53.2923851
53.10990951
53.6904491
53.48568109
49.45395845
43.33035756
43.43944093
46.06597238
39.50294816
41.28370628
41.19166792
41.47572999
41.37843643
39.58298556
36.73116627
36.78974893
38.02401259
34.88154762
35.75454606
35.70273011
35.85947958
35.80679306
34.92822383
334.2806437
346.3473205
184.4144895
187.4652098
240.7008948
126.8727217
152.2361727
150.271145
156.3861349
154.273191
128.2698041
91.85072627
92.53221094
107.5955581
71.11930782
80.61118081
80.12532121
81.61941802
81.10913118
71.47503028
57.28296143
57.47137245
63.53629303
48.72490582
52.61813652
52.46940188
52.93738118
52.77379447
48.85521327
42.93652922
43.02849096
45.58359978
39.20191757
40.9329903
40.85292502
41.10245484
41.01618801
39.27410378
36.50588565
36.56071806
37.76309183
34.69764648
35.55068764
35.50130335
35.65146393
35.60074235
34.74305257
293.7325507
302.6591758
173.4081976
175.9963617
221.3348738
121.7068373
144.7706412
143.0565277
148.3744402
146.5422837
122.9390559
89.30001446
89.91278466
103.9278666
69.77609749
78.73768832
78.29702702
79.65137014
79.18899774
70.10051453
56.5803339
56.74944284
62.56432364
48.26370154
52.05627832
51.92725386
52.3267015
52.18923388
48.37132691
42.609165
42.68536933
45.18975706
38.93570993
40.63156883
40.5638148
40.77602419
40.70226561
38.99880844
36.29809621
36.34822439
37.5263579
34.52091512
35.35789526
35.3118037
35.45268931
35.40485937
34.56424205
264.1369673
270.7620461
163.9780747
166.2079251
205.4766963
117.1263913
138.2329286
136.7225179
141.3973384
139.7905291
118.2225321
86.99737844
87.55185662
100.6496044
68.54697005
77.03535682
76.63359612
77.8666878
77.44630314
68.84450246
55.93811239
56.09400824
61.67296091
47.86922159
51.5594639
51.44216911
51.8017032
51.67923003
47.96335309
42.33430014
42.39910144
44.86034629
38.70538524
40.37657162
40.31885543
40.49885515
40.4365104
38.75982977
36.11011162
36.15525022
37.31638982
34.35412609
35.17912457
35.13677637
35.26664401
35.22240944
34.39478029
241.4689366
246.6407619
155.7862256
157.732498
192.2146454
113.0328122
132.4521584
131.1087559
135.2569877
133.8343183
114.0153907
84.90505694
85.41043037
97.69841373
67.41557486
75.47974986
75.11087253
76.24068029
75.8562321
67.69013926
55.34087972
55.48649428
60.84756805
47.51427395
51.1031752
50.99392553
51.3271433
51.21420676
47.60023078
42.09450166
42.15195323
44.57109829
38.50539395
40.15713896
40.10645115
40.26316826
40.20932453
38.55298497
35.94096807
35.98164329
37.13106612
34.19862728
35.01525287
34.97648529
35.09536878
35.05486562
34.23643454
223.3061877
227.5185754
148.5843849
150.3042503
180.9428671
109.3424689
127.293276
126.0862005
129.8024559
128.5314036
110.2316478
82.98669405
83.4517774
95.01832875
66.36638519
74.0468541
73.70522015
74.74932772
74.3947926
66.6217287
54.78017219
54.91726575
60.0774012
47.18484356
50.67600795
50.57296315
50.88638321
50.78045155
47.26526705
41.87708103
41.92983267
44.30678962
38.32780367
39.96201564
39.91598888
40.05712384
40.00902289
38.37050568
35.78748436
35.82459113
36.96537953
34.05402356
34.86495347
34.82922037
34.93854294
34.90137648
34.08921784
208.3732045
211.8514811
142.1702673
143.7080456
171.2003386
105.9800679
122.6386261
121.54313
124.9090227
123.760313
106.7932582
81.21364842
81.64439982
92.55983316
65.38686035
72.71670231
72.39848172
73.36982572
73.04042242
65.62575208
54.25018374
54.38008862
59.35428366
46.87364115
50.27176319
50.17371307
50.47130231
50.37093791
46.95000534
41.67422489
41.72387145
44.05895418
38.16578895
39.78297644
39.74004604
39.87086853
39.82656103
38.20512776
35.64608703
35.68048281
36.81417072
33.91886713
34.72586192
34.69254946
34.79415887
34.7597173
33.95185933
195.8271063
198.7805575
136.4141239
137.7970336
162.6866839
102.8950943
118.4066406
117.4078917
120.4732165
119.4281162
103.642331
79.56624551
79.9673386
90.29056452
64.46714735
71.47520005
71.17703942
72.08565175
71.77800092
64.69200544
53.74561409
53.86964144
58.67117114
46.57606872
49.88587092
49.79178606
50.0767623
49.98084644
46.64937573
41.48115411
41.52868649
43.82256947
38.0144692
39.61466441
39.57382368
39.69772265
39.65594958
38.05149641
35.51371992
35.5461043
36.67334263
33.7914497
34.59558605
34.56414217
34.65975743
34.62744613
33.82266473
185.0009747
187.5731819
131.2121198
132.4662296
155.1677139
100.0504092
114.5392363
113.6222111
116.4309929
115.4752114
100.7412578
78.02504016
78.40138632
88.18411829
63.59746657
70.30870118
70.0272422
70.88335785
70.59402386
63.81068025
53.26180394
53.38100396
58.02113907
46.28890482
49.51460699
49.42372952
49.69857437
49.60621092
46.35984385
41.29490401
41.34094122
43.59444809
37.87054326
39.4536604
39.41426502
39.53339903
39.49336187
37.90596363
35.38802528
35.41892795
36.53991707
33.67018365
34.47208341
34.4420629
34.53309448
34.50241788
33.69999537
175.4581789
177.7389369
126.4705708
127.6169964
148.443471
97.40850811
110.9787084
110.1309438
112.7236187
111.8427053
98.05172391
76.57301922
76.92836464
86.2142672
62.76967401
69.20506451
68.93785716
69.74958861
69.47560625
62.97304158
52.79537002
52.91049778
57.39875526
46.00997412
49.15531939
49.06709459
49.33358623
49.24414011
46.07902831
41.11350748
41.1584893
43.3725214
37.73175629
39.29771989
39.25931205
39.37516446
39.33632954
37.76606796
35.26720105
35.29703387
36.41175394
33.55372559
34.35371399
34.32475588
34.41234488
34.38290261
33.58245043
166.9460936
168.982317
122.1231022
123.1762444
142.3733545
94.94145084
107.6818053
106.8947555
109.2993176
108.4829768
95.54298318
75.19816907
75.53515928
84.36188953
61.97786465
68.15552986
67.90072311
68.67396068
68.41323341
62.17270698
52.34354506
52.45526313
56.79996665
45.73750348
48.80586538
48.71978446
48.97947589
48.89241641
45.80509885
40.93538978
40.97968455
43.15514699
37.59640591
39.14515316
39.10736478
39.22110098
39.18305728
37.62999555
35.14980495
35.17889814
36.28720517
33.44093246
34.23913004
34.21093911
34.29602088
34.2674833
33.46883599
159.325932
161.1466738
118.119977
119.0923439
136.8640776
92.6290609
104.617517
103.8838172
106.1222689
105.3630014
93.19357457
73.89116644
74.21201376
82.61328219
61.21723015
67.15316711
66.90917205
67.6488085