/*--------------------------------*- C++ -*----------------------------------*\
| =========                 |                                                 |
| \\      /  F ield         | OpenFOAM: The Open Source CFD Toolbox           |
|  \\    /   O peration     | Version:  v2012                                 |
|   \\  /    A nd           | Website:  www.openfoam.com                      |
|    \\/     M anipulation  |                                                 |
\*---------------------------------------------------------------------------*/
FoamFile
{
    version     2.0;
    format      ascii;
    class       surfaceScalarField;
    location    "0.07";
    object      meshPhi;
}
// * * * * * * * * * * * * * * * * * * * * * * * * * * * * * * * * * * * * * //

dimensions      [0 3 -1 0 0 0 0];
oriented        oriented;


internalField   nonuniform List<scalar> 
5999
(
0
0
0
0
0
0
0
0
0
0
0
0
0
0
0
0
0
0
0
0
0
0
0
0
0
0
0
0
0
0
0
0
0
0
0
0
0
0
0
0
0
0
0
0
0
0
0
0
0
0
0
0
0
0
0
0
0
0
0
0
0
0
0
0
0
0
0
0
0
0
0
-6.689149999e-09
6.023639894e-08
0
0
0
0
0
0
0
0
0
0
0
0
0
0
0
0
0
0
0
0
0
0
0
0
0
0
0
0
0
3.152443116e-08
-8.542535687e-07
-2.829515451e-06
5.430690449e-06
1.087634951e-05
-4.903403978e-05
-2.492297197e-05
6.948644803e-05
1.436610711e-05
-0.0001285891192
-2.499617826e-05
0.00014366768
0
0
0
0
0
0
0
0
0
0
0
0
0
0
0
0
0
0
0
0
0
0
0
0
0
1.514339893e-06
-1.542945891e-06
-7.562697845e-06
1.120245428e-05
5.138911043e-05
-0.0001001436902
-7.884823399e-05
0.0001436445339
9.457908354e-05
-0.0002876727276
-0.0001241264935
0.0003339734728
6.919316825e-05
-0.0004473108736
-8.628562306e-05
0.0004732554764
0
0
0
0
0
0
0
0
0
0
0
0
0
0
0
0
0
0
0
0
0
0
0
-5.027054016e-07
4.680916098e-07
5.823014247e-05
-5.899286619e-05
-8.229861458e-05
0.0001027100246
0.0001802541177
-0.0002787334065
-0.0002166491008
0.0003437056628
0.0002179507595
-0.000528154481
-0.0002476728948
0.0005805439697
0.0001362502129
-0.0006968920586
-0.0001505523415
0.0007211341009
0
0
0
0
0
0
0
0
0
0
0
0
0
0
0
0
0
0
0
0
0
1.496223019e-05
-5.460251637e-06
-2.40807701e-05
2.383691448e-05
0.0001728428832
-0.0001464422137
-0.0002016556617
0.000203897651
0.0003208692947
-0.0003987415926
-0.0003538313881
0.000462683086
0.0003236157435
-0.0006167836417
-0.0003415748224
0.0006535021886
0.0001801827799
-0.0007211399054
-0.0001853503356
0.0007310946587
0
0
0
0
0
0
0
0
0
0
0
0
0
0
0
0
0
0
-4.424109287e-07
2.910452799e-09
1.008341903e-07
5.372555505e-05
-2.061215318e-05
-6.447019905e-05
4.659994419e-05
0.0002721185453
-0.0001731404666
-0.0002913414207
0.0002280809789
0.0004288066795
-0.000391561075
-0.0004449019058
0.000439388024
0.0003748273849
-0.0005430873005
-0.0003836275818
0.0005629307591
0.0001848368134
-0.0005789403157
-7.80727221e-05
-9.914719218e-05
0.0002894507435
0.0002818726731
0
0
0
0
0
0
0
0
0
0
0
0
0
0
0
0
1.856220286e-06
0
-3.984588639e-06
7.073542387e-07
9.373705182e-07
8.645993666e-05
-2.30898161e-05
-8.910115419e-05
4.521996491e-05
0.0003330894115
-0.000143889752
-0.0003383229558
0.0001832614392
0.0004769329804
-0.0002968952498
-0.0004812110313
0.0003282511172
0.000392305532
-0.000385594958
-0.000393234744
0.0003897279628
0.0001027863167
-0.0002031531898
-0.0001026048965
0.0002029717696
0
0
0
0
0
0
0
0
0
0
0
0
0
0
0
0
5.184310516e-06
0
-6.543473424e-06
1.017181422e-06
8.9434131e-07
0.0001026144417
-1.535687923e-05
-0.0001054577969
2.83178866e-05
0.0003569581815
-8.347551064e-05
-0.0003607077696
0.0001046950407
0.000492241499
-0.0001646108213
-0.0004943600573
0.000180538497
0.0003942375263
-0.0002069919416
-0.0003943110056
0.0002077995753
0.0001035621294
-0.0001094333194
-0.0001035457513
0.0001094169414
0
0
0
0
0
0
0
0
0
0
0
0
0
0
0
0
7.856343206e-06
0
-9.654554518e-06
1.996277541e-07
-1.379230964e-07
0.0001125091281
-2.395246803e-06
-0.0001153472336
4.291212259e-06
0.0003698357888
-1.220276778e-05
-0.0003734530302
1.521100954e-05
0.0004993973956
-2.355895405e-05
-0.0005013774982
2.573288784e-05
0.0003943388576
-2.910194128e-05
-0.0003943475037
2.908920296e-05
0.0001033760672
-1.994015344e-05
-0.0001033426393
1.133889679e-05
8.567828687e-06
0
0
0
0
0
0
0
0
0
0
0
0
0
0
0
0
1.161059954e-05
0
-1.384668796e-05
-1.628914928e-06
-2.304693304e-06
0.000124183687
1.39048577e-05
-0.0001272807447
-2.403202897e-05
0.0003844758167
6.501142713e-05
-0.0003882624304
-8.028651846e-05
0.0005073255398
0.0001221309885
-0.0005093453352
-0.0001328053103
0.0003943606849
0.0001489463767
-0.0003943612903
-0.0001491285634
0.0001031173038
6.914969515e-05
-0.0001030819606
-3.319851793e-05
-3.598652044e-05
0
0
0
0
0
0
0
0
0
1.653045669e-05
0
-5.07158098e-06
-5.898118624e-06
0.0001373467148
3.447851443e-05
-0.0001412626047
-5.772692428e-05
0.000400309
0.0001494498472
-0.0004048943307
-0.0001830303464
0.000515687426
0.0002734470556
-0.0005180533457
-0.0002958917285
0.0003943831652
0.0003273366539
-0.0003944305154
-0.0003273333352
0.0001028105771
0.0001581955707
-0.0001027659113
-7.769987552e-05
-8.054036108e-05
-0.000120813819
0.0001208060282
0.0001035699201
-3.106653614e-05
0.0001034133476
1.691332594e-05
1.411592986e-05
5.800903376e-05
0.0001031469194
-2.763355685e-05
-3.040509249e-05
0.0001470222832
0.0001028278225
-7.2137116e-05
-7.490241254e-05
-0.0002145791799
0.0002146184678
0.0001027470287
-7.350146109e-05
7.362221773e-05
0.0003943387459
-0.0001158726598
0.0001159016458
-3.109552219e-05
0.0001160551545
-0.0001094379962
-0.0001160504778
0.0001043866809
-0.0001045745164
0.0003943662487
-0.0001156145135
0.0001156442864
5.797926089e-05
-1.997347157e-05
-0.0001158393417
-0.00010325412
1.346056191e-05
0.0001032901175
-5.350928004e-06
-8.145631346e-06
-3.157805851e-05
-4.38857723e-06
3.148273818e-05
8.128007817e-06
-3.644110255e-06
3.15083918e-05
5.986244636e-06
-1.129881509e-05
-3.148404909e-05
5.288227738e-06
0.0002826948203
-0.0002827091325
0.0003942910097
-0.000115325144
0.0001153590154
0.0001469884118
6.911102747e-05
-0.0001155758458
-0.0001029300179
0.0001025624421
0.0001029919716
-4.992767175e-05
-5.26967241e-05
-1.539879907e-05
-2.680370423e-05
1.54364466e-05
2.676605671e-05
3.131662463e-05
-1.630478431e-05
3.324462179e-05
-3.12908537e-05
-1.696560841e-05
0.0001581670076
-0.0001152965809
-5.288814165e-05
9.723827109e-05
-9.725864311e-05
5.290851367e-05
-1.597274203e-05
-4.880764505e-05
1.589348335e-05
4.888690373e-05
1.57569718e-05
-3.86645347e-05
3.858082167e-05
-1.567325876e-05
2.842618158e-05
-7.891730723e-05
-2.838350673e-05
3.975085169e-05
3.91237807e-05
-2.86055013e-05
-5.896638184e-05
2.8536447e-05
2.994509577e-05
2.909034038e-05
-0.0001038994727
2.645460635e-05
-2.634107615e-05
0.0001037859425
-8.195901306e-05
8.202933295e-05
2.835586169e-05
6.662612835e-06
3.153095808e-05
-1.407377751e-05
7.388598408e-06
3.358730906e-05
3.147129871e-05
-3.359801097e-05
-3.14605968e-05
0.0001034847662
-6.452838656e-05
-0.0001034597249
6.450334525e-05
2.833760725e-05
-2.828754548e-05
1.710228036e-05
1.643496694e-05
-1.466727213e-05
6.655666969e-06
1.4674218e-05
-5.606194336e-05
-2.857537377e-05
2.839988567e-05
2.763193016e-05
-3.639698407e-05
2.836307154e-05
1.853639759e-05
1.783512219e-05
-1.559229398e-05
3.135314824e-05
3.046057033e-05
-1.490479996e-05
-5.060445036e-06
1.095350174e-05
-3.160892895e-05
-5.862186267e-06
2.461965745e-05
-0.0001032187197
-1.093406505e-05
-1.372099276e-05
1.483370341e-05
-1.485295516e-05
-5.041193282e-06
-1.443305295e-05
-1.562884513e-05
1.44696041e-05
-1.464581896e-05
5.964791467e-06
-4.285667335e-06
1.473079351e-05
-3.794048773e-05
1.583172803e-05
3.78657315e-05
-2.749487916e-05
2.744702829e-05
-1.53509482e-05
0.0001136056298
-0.0001029233649
-5.544654403e-05
-5.816573871e-05
1.473745078e-05
-1.467132435e-05
-2.756100559e-05
-1.524635643e-05
-3.805129908e-05
1.535716779e-05
-1.44141183e-05
-1.632371895e-05
-2.687983177e-05
1.481357831e-05
-4.975671987e-05
4.97349616e-05
-1.595098375e-05
-0.0001000058511
1.537680009e-05
-1.529212579e-05
-4.984139417e-05
-1.512782807e-05
-3.878306306e-05
-4.872589635e-05
1.529505139e-05
-0.0002515976959
0.0002528351555
0.0003940537373
0.0001160603864
-0.0001208190508
0.0001153719915
-0.0002028092675
-0.0001157159138
-0.0001034319764
-0.0001667814693
0.000166791789
0.0001034216567
-3.149385235e-05
3.147413747e-05
-8.193929818e-05
3.083139096e-05
-0.0001041179336
-3.061293007e-05
-7.572141919e-05
7.570291403e-05
0.0001035032713
3.148930346e-05
-3.641498882e-05
3.158265646e-05
-5.606091943e-05
-3.158368039e-05
3.1561047e-05
-5.894477238e-05
-7.891832206e-05
-3.149283752e-05
-0.0001545800092
-0.0001035218482
0.000154669881
7.466676039e-06
-3.353012847e-05
-7.518864709e-06
3.358231714e-05
-5.412176478e-05
6.237626143e-06
-6.985510962e-06
5.48696496e-05
-4.717493277e-05
-7.754838248e-06
4.714809709e-05
7.781673927e-06
-0.0002579454184
4.684559679e-05
-1.895425188e-05
-2.498952679e-05
0.0001280875274
0.0001269560729
-0.0001059608609
0.0001080256403
2.4389827e-05
-4.42753054e-05
1.508908362e-05
4.420371573e-05
-1.501749394e-05
4.04322597e-05
8.884329223e-05
-4.042266158e-05
-8.885289035e-05
-4.039650316e-05
9.727374515e-05
-9.729403329e-05
4.041679131e-05
-4.199848304e-05
7.120503871e-06
-1.977957479e-05
5.465755396e-05
-3.404523975e-05
7.500033175e-06
3.401188261e-05
-2.83773191e-05
-7.035049991e-05
2.842349806e-05
3.545571662e-05
3.484860432e-05
-9.023435713e-06
9.194260315e-06
-3.421606435e-05
9.023745179e-06
-4.114903629e-05
-9.873191924e-06
-8.997502611e-06
1.148256617e-05
-2.949201869e-05
2.700695513e-05
-3.368306475e-05
-8.870499431e-06
-6.759331647e-05
-2.843694033e-05
3.421351952e-05
3.343941817e-05
-2.810751729e-05
-9.509200661e-05
9.519566383e-05
2.800386007e-05
-9.000989579e-06
9.041766086e-06
-4.721570927e-05
5.978349754e-06
-5.252322929e-05
-7.576885242e-06
4.174402638e-05
8.720643132e-06
-4.144092434e-05
4.654380023e-05
-4.645623361e-05
-9.088556199e-06
-9.147962501e-05
-2.819628967e-05
9.156839739e-05
-8.07622857e-06
4.686519055e-05
4.155138757e-05
7.313142685e-06
-1.47059661e-05
-1.22808269e-05
1.232627653e-05
1.466051647e-05
8.259243534e-06
-1.680395832e-05
-8.251414184e-06
1.679612897e-05
-1.160503319e-05
-1.471794502e-05
1.161701211e-05
-2.848283173e-05
-4.765182736e-05
2.849768404e-05
2.417806511e-05
2.345890995e-05
-8.312759473e-06
8.304717727e-06
-2.311354845e-05
2.31215902e-05
-2.813456208e-05
-8.484423656e-06
2.762148313e-05
8.269527899e-06
-1.751187371e-05
1.750158935e-05
-2.240436533e-05
-8.305790296e-06
2.239739616e-05
-4.479668807e-05
-2.844471571e-05
2.275269955e-05
2.200587251e-05
-1.471676286e-05
1.00649519e-05
-1.008108523e-05
1.473289619e-05
1.072997142e-05
-1.466484424e-05
-1.078189004e-05
-1.453400905e-05
-1.12460759e-06
1.107970645e-06
1.455064599e-05
-4.256555322e-07
-1.452204085e-05
4.136873405e-07
-1.429651251e-05
3.226103964e-05
-3.223435761e-05
1.426983048e-05
3.282933469e-05
-1.443298888e-05
-3.269285831e-05
-1.517309497e-05
2.107556952e-05
-2.097572448e-05
1.507324993e-05
2.183239734e-05
-1.519331754e-05
-2.181217478e-05
0.0001000470277
-0.0001000650183
-1.426351625e-05
4.36205202e-05
-4.373755387e-05
1.438054992e-05
-1.415726512e-05
-4.438155653e-05
8.907387945e-06
-0.0001199987265
-9.834261822e-06
-5.570199724e-05
5.577374485e-05
6.165878528e-06
1.563154442e-05
2.184485623e-05
-1.56440033e-05
4.062462392e-05
4.438125043e-05
-4.061970513e-05
-4.438616921e-05
-4.058124355e-05
5.272873253e-05
-5.274164166e-05
4.059415268e-05
4.066107014e-05
3.321559895e-05
-4.065216028e-05
-3.322450881e-05
4.158536483e-05
-4.159481403e-05
4.063407312e-05
1.557877961e-05
2.112833433e-05
4.050589621e-05
7.772797385e-05
-4.049263069e-05
-7.774123938e-05
8.615788775e-05
-8.618197077e-05
4.045634273e-05
1.516982278e-05
4.353978103e-05
3.149820722e-05
-1.146670016e-05
2.214590511e-05
-3.144744076e-05
4.069661567e-05
2.210106965e-05
-4.068826031e-05
-2.210942501e-05
3.042320154e-05
-3.042913764e-05
4.066700624e-05
-1.188127903e-05
-1.590318874e-05
1.1996972e-05
1.578749577e-05
-1.38321989e-05
1.23138804e-05
1.372923607e-05
-1.221091757e-05
1.456977625e-05
1.352668553e-05
-1.453402627e-05
-1.356243552e-05
1.516857109e-05
3.292292546e-05
-1.526216186e-05
4.052745019e-05
6.661286504e-05
-4.050260258e-05
-6.663771266e-05
7.491682711e-05
-7.493401047e-05
4.052307956e-05
5.54700502e-05
-4.056806346e-05
-5.548323029e-05
6.385093682e-05
-6.387046085e-05
4.054697422e-05
1.51526381e-05
3.227697263e-05
-1.44422678e-05
2.948841752e-05
-2.956784644e-05
1.452169672e-05
-1.208834644e-05
-2.98802103e-05
1.217277437e-05
2.979578237e-05
1.239918546e-05
-2.786140206e-05
2.778159742e-05
-1.231938082e-05
-1.107572782e-05
1.111009032e-05
3.832121121e-05
-3.83555737e-05
1.023504593e-05
3.536859425e-05
-1.125113739e-05
-3.435250279e-05
1.533290832e-05
3.557062455e-05
-1.545424425e-05
-3.544928862e-05
-1.45178745e-05
1.826125896e-05
-1.817163667e-05
1.442825222e-05
-1.151910835e-05
-1.789554065e-05
1.152949937e-05
1.788514963e-05
-1.658494135e-05
1.646975634e-05
-1.176609401e-05
-2.717126654e-05
1.247494762e-05
2.709550438e-05
-2.508634391e-05
1.271388089e-05
2.500592457e-05
-1.263346155e-05
1.503147978e-05
2.471591422e-05
-1.496078724e-05
-2.478660676e-05
-1.474342121e-05
4.08357151e-05
-4.096625912e-05
1.487396524e-05
-1.102818026e-05
1.104543249e-05
4.118439025e-05
-4.120164248e-05
3.902429046e-05
-1.108220195e-05
-3.901781633e-05
1.073212779e-05
4.572584131e-05
-1.281231027e-05
-4.364565883e-05
1.412740802e-05
4.635912117e-05
-1.447965426e-05
-4.600687493e-05
-6.302608561e-06
-3.188940128e-05
7.248190797e-06
3.094381904e-05
-3.261261202e-05
-1.983765376e-06
2.829376884e-05
-7.849674418e-06
-5.142349548e-05
5.156631369e-05
7.706856209e-06
-5.084588267e-05
-7.645303085e-06
5.064151134e-05
-7.750209826e-06
-3.698118378e-05
8.390085603e-06
3.6341308e-05
-3.607645132e-05
-7.650775403e-06
3.597701689e-05
9.834621176e-06
-3.633925974e-05
-9.571812755e-06
1.198646555e-05
-3.689867447e-05
-1.187055041e-05
3.678275932e-05
-1.147722257e-05
-3.476275361e-05
3.463189589e-05
1.160808029e-05
1.151667106e-05
-3.990237863e-05
-1.181521887e-05
4.020092644e-05
-3.771240648e-05
3.765690936e-05
1.204196268e-05
1.016638287e-05
-3.731294547e-05
8.043185847e-06
-3.271430818e-05
-7.941489685e-06
1.142960742e-05
-3.158848057e-05
-1.171482852e-05
3.187370167e-05
-1.250319676e-05
-2.92540928e-05
2.938861746e-05
1.23686721e-05
-3.415257222e-05
-1.137949809e-05
3.405484774e-05
-3.207624867e-05
3.220097656e-05
1.130487954e-05
8.405861047e-06
-3.225207648e-05
4.227311991e-05
9.770672583e-06
-4.271152296e-05
-9.33226953e-06
1.155436604e-05
-4.305406479e-05
-1.153197975e-05
4.30316785e-05
-4.072132298e-05
4.080430733e-05
1.14336867e-05
-9.150760092e-06
-4.338136268e-05
4.298805902e-05
9.544063759e-06
-8.488056652e-06
4.161041647e-05
7.972733043e-06
-1.466305555e-05
-7.271328888e-06
1.39616514e-05
1.093152136e-05
-1.477625372e-05
-1.109428526e-05
1.493901761e-05
-1.255517989e-05
-1.292457286e-05
1.335455137e-05
1.212520139e-05
1.112637856e-05
-1.704108999e-05
-1.104376972e-05
1.695848115e-05
-1.520742516e-05
1.52185432e-05
1.092040331e-05
8.149147768e-06
-1.489739859e-05
1.472098386e-05
1.24978079e-05
-8.606950217e-06
-1.240613855e-05
8.515280867e-06
-1.212774475e-05
-6.469995734e-06
6.376216859e-06
1.222152362e-05
-1.194548653e-05
-1.270390221e-05
1.209420885e-05
-9.337871609e-06
9.243884999e-06
1.259179451e-05
8.344420654e-06
-2.512329873e-05
-8.340882856e-06
2.511976093e-05
1.220898358e-05
-2.541677585e-05
-1.210730804e-05
2.531510032e-05
-1.181098686e-05
-2.337957851e-05
2.328635423e-05
1.190421113e-05
-2.838339102e-05
-1.249831876e-05
2.837851303e-05
-2.616208749e-05
2.605553868e-05
1.231553238e-05
8.3608014e-06
-2.582972315e-05
2.581334241e-05
8.266142237e-06
-1.959981004e-05
-8.257067786e-06
1.959073559e-05
1.145585026e-05
-1.985498597e-05
-1.136814647e-05
1.976728218e-05
-1.774239165e-05
1.76646041e-05
1.120416611e-05
-2.265400566e-05
-1.171656847e-05
2.255958727e-05
-2.050296471e-05
2.041839739e-05
1.154041757e-05
8.29445308e-06
-2.024830228e-05
2.021999144e-05
1.209073054e-05
8.252821159e-06
-1.200836097e-05
-8.335190736e-06
-1.177281179e-05
1.036468169e-05
-1.044442197e-05
1.185255208e-05
1.249216349e-05
4.681100463e-06
-1.248598521e-05
-4.687278741e-06
7.530396797e-06
-7.629401985e-06
1.218973573e-05
1.147163322e-05
-1.139869342e-05
-1.39051387e-05
-1.116988404e-05
-1.598718257e-05
1.125387786e-05
1.106873114e-05
-1.169535244e-05
-1.11461905e-05
1.31475107e-05
-1.322040095e-05
1.154452348e-05
1.170036277e-05
-2.988844488e-06
-1.15905839e-05
2.879065615e-06
-1.126133581e-05
-9.029976999e-07
7.922361436e-07
1.137209736e-05
-5.767832731e-06
-1.20239175e-05
5.664005479e-06
-3.685255076e-06
3.576508372e-06
1.180910948e-05
1.079395322e-05
1.859640046e-06
-1.078537067e-05
-1.868222601e-06
3.401796369e-06
-2.936482828e-06
1.202684995e-05
-2.165271425e-07
-1.11489795e-05
1.041708383e-07
1.559445367e-06
-1.67335689e-06
1.090786475e-05
-3.26210199e-05
-1.149859048e-05
1.173180834e-05
3.238780204e-05
-3.062698029e-05
3.053508025e-05
-1.19964464e-05
3.023557515e-05
-1.437680808e-05
-3.030103487e-05
1.036351688e-05
-1.03310489e-05
-3.065944827e-05
-1.006575649e-05
1.025042318e-05
-3.280568659e-05
1.037349764e-05
-1.035869957e-05
-2.787620013e-05
1.035201451e-05
-2.986870793e-05
3.290945775e-05
-9.825310226e-06
-3.314990402e-05
3.472736703e-05
-3.445482529e-05
1.506036658e-05
6.419668983e-06
3.364210028e-05
-2.982672334e-05
3.258419975e-05
-1.117333248e-05
-2.071908846e-05
-1.321336312e-05
1.321817767e-05
2.071427392e-05
-1.759254817e-05
1.803589487e-05
-1.196245506e-05
1.888629542e-05
-1.465790253e-05
-1.87462674e-05
1.037912795e-05
-1.030137041e-05
-1.767030571e-05
-1.068882118e-05
1.046473817e-05
-2.049500545e-05
-1.106912175e-05
-1.668570364e-05
-1.821079683e-05
1.069438413e-05
1.041588099e-05
-1.040344214e-05
-2.509878276e-05
1.038312879e-05
-2.71808977e-05
2.202306935e-05
-1.0548916e-05
-2.216297452e-05
2.438672769e-05
1.043260778e-05
-2.440345448e-05
2.40099266e-05
-2.407634153e-05
1.509789472e-05
1.280163464e-05
2.429897395e-05
2.185928515e-05
-1.304957892e-05
-1.098086672e-05
1.100124546e-05
4.397400229e-05
-4.399438103e-05
4.188372014e-05
-1.102065834e-05
-4.189124206e-05
4.153085595e-05
-1.462101747e-05
-4.16532597e-05
4.579680312e-05
-4.569769359e-05
1.402829849e-05
1.078642161e-05
4.603711717e-05
-4.609141099e-05
4.462903866e-05
-1.093399698e-05
-4.46759084e-05
3.142630527e-05
-2.576097569e-07
-1.828985577e-07
-3.141145249e-05
4.075576266e-05
-2.068106025e-07
-4.074767172e-05
1.987196555e-07
-4.073377873e-05
8.156530993e-06
-8.161161048e-06
4.073840879e-05
-1.132163085e-05
4.078158181e-05
-4.07769588e-05
1.131700784e-05
-2.988906028e-06
2.984141619e-06
4.076052707e-05
1.820934529e-06
3.14461684e-05
-2.965405252e-06
1.095466266e-05
-4.072915029e-05
-1.095929111e-05
1.929236052e-05
-1.930444775e-05
4.070870291e-05
-9.315772321e-06
3.15396663e-05
1.933926515e-05
-1.485674959e-05
7.286339728e-06
-7.282167735e-06
1.48525776e-05
-1.320112819e-05
1.331235795e-05
7.419167041e-06
1.333886336e-05
4.807373235e-06
-1.346513613e-05
1.292959203e-05
3.811067691e-06
1.180116883e-05
2.0028089e-06
-1.194433768e-05
1.451959538e-05
2.30546642e-06
-1.456890427e-05
-2.256157533e-06
-3.283652259e-05
-7.504159914e-06
3.28218178e-05
-1.144007486e-05
-4.047179773e-05
3.21322978e-05
2.296811207e-07
5.442787284e-05
-3.457863699e-05
7.595947762e-06
3.44827224e-05
-3.476813699e-05
9.383760321e-06
-1.009067062e-05
1.032848812e-05
-3.500595449e-05
-9.867186298e-06
-3.443954867e-05
-3.134728386e-05
1.843395122e-05
2.43958988e-05
-1.098063187e-05
1.050804869e-05
-3.087470069e-05
-1.096370867e-05
-2.950894188e-05
-9.665669173e-06
-3.388458187e-05
3.300777009e-05
-9.480155826e-06
-3.319328343e-05
-8.699251935e-06
1.141932296e-05
-4.626913032e-05
-1.151766995e-05
4.636747731e-05
-4.392463642e-05
4.391376627e-05
1.15652362e-05
1.001894295e-05
-4.362963305e-05
4.72056321e-05
-9.108918649e-06
-4.617294202e-05
6.331886659e-06
-2.02023553e-05
6.107610074e-05
4.635360989e-05
6.843467327e-06
5.375221634e-06
3.640584705e-05
-4.068495942e-05
6.523782383e-06
3.953639868e-05
7.907887121e-06
-4.127970386e-05
-2.149270974e-05
4.391639309e-06
1.710107043e-05
-1.509210596e-05
8.74420224e-06
-1.514480602e-05
-1.107166952e-05
-1.38399774e-05
9.819540964e-06
-9.539376078e-06
9.606894738e-06
-1.687147698e-05
1.610343321e-05
-9.45679342e-06
-1.618601587e-05
-8.228728742e-06
1.608074777e-05
-9.047175621e-06
9.049992103e-06
-7.033032189e-06
7.030215707e-06
-9.052476797e-06
-6.317847079e-06
6.323148255e-06
-9.543509984e-06
-1.211293482e-05
1.058477529e-05
-9.181688367e-06
-1.0810098e-05
1.044827638e-05
-2.377129985e-05
8.306363939e-06
2.376965363e-05
-1.018321722e-05
1.026162068e-05
-2.384970331e-05
-1.011332621e-05
-2.318343946e-05
-1.078854707e-05
-2.830972368e-05
2.724421839e-05
-1.062524543e-05
-2.740752003e-05
-8.371683927e-06
2.713147866e-05
-1.82370288e-05
8.272728597e-06
1.823382811e-05
-9.668126148e-06
9.727173648e-06
-1.82960763e-05
-1.757310512e-05
-1.005333325e-05
-2.246435829e-05
2.16777497e-05
-9.991049031e-06
-2.174003392e-05
-8.305436863e-06
2.167739627e-05
-1.275323127e-05
1.286596906e-05
1.02519439e-05
8.14225838e-06
-1.309056541e-05
7.919208101e-06
-1.479911777e-05
-7.976839927e-06
1.284654585e-05
-1.287478886e-05
1.459801927e-05
1.241992613e-05
1.304146497e-05
1.0954329e-05
-1.263882912e-05
-1.206916064e-05
1.216901001e-05
-1.002847062e-06
1.246955005e-05
-3.088709992e-06
-1.236968454e-05
1.460185961e-05
-3.216100137e-06
-1.458248349e-05
3.196724023e-06
-8.973976641e-06
8.982640634e-06
-1.410822781e-06
1.402158788e-06
-8.963239426e-06
-7.143960381e-07
7.036588241e-07
-9.024868012e-06
-5.586332546e-06
5.558723762e-06
-9.016632196e-06
-4.894180315e-06
4.885944498e-06
6.607990252e-06
-8.173632782e-07
-5.790626975e-06
-8.950776041e-06
-2.12115378e-08
8.748152745e-09
6.644075092e-07
-8.929372229e-06
-6.858113203e-07
1.626863236e-06
-1.614413759e-06
1.45071459e-05
1.18098724e-05
1.550741797e-06
-3.143362588e-07
-1.197135153e-05
2.909407653e-05
-2.916715928e-05
1.224585712e-05
-1.298566684e-05
2.898328929e-05
1.309645407e-05
-1.286669089e-05
2.967680643e-05
3.758356536e-05
1.120061941e-05
-3.767409445e-05
-1.359629695e-05
1.374813367e-05
3.743172865e-05
-1.347214741e-05
3.819706166e-05
-1.392448185e-05
1.394368299e-05
3.534939311e-05
-3.669051575e-05
3.651416757e-05
-3.674103373e-05
-1.181718809e-05
1.175829837e-05
5.0025676e-05
-4.996678629e-05
5.089139622e-05
-5.098962757e-05
4.048321266e-05
1.106267869e-05
-4.050045886e-05
-1.318096594e-05
1.326820637e-05
4.039597223e-05
-1.308790534e-05
4.109132964e-05
-1.336634981e-05
3.891849285e-05
-3.976420836e-05
3.966606492e-05
-3.978373162e-05
-1.004975236e-05
4.074644691e-06
4.70880132e-05
-4.111290553e-05
4.874718705e-05
-4.703864104e-05
-1.18697761e-05
1.195196926e-05
4.564364815e-05
-5.363100389e-05
4.583587248e-05
-6.644331416e-05
-3.211303159e-05
3.185706247e-05
-4.325500766e-05
4.127124229e-05
-5.375736621e-06
-5.271632073e-05
4.980953341e-06
-4.916819173e-06
-5.122123838e-05
-1.019220791e-05
1.97695197e-05
-4.875341119e-05
-5.443587439e-06
-4.648121835e-05
4.173259788e-05
-4.591351197e-06
-5.026636495e-05
6.581797236e-05
-5.063980385e-05
-3.84155528e-05
3.536556354e-05
-3.528380944e-05
3.522898179e-05
-9.680665409e-06
9.251518744e-06
-3.228516152e-05
3.276254612e-05
-3.193516284e-05
-3.240642248e-05
-9.305495821e-06
-3.258108249e-05
-3.230605355e-05
1.116572347e-05
-7.672017595e-06
3.949435315e-05
-4.539132616e-05
3.635469433e-05
-4.495618105e-05
1.078847821e-06
3.983117463e-05
6.215494856e-05
4.097883034e-05
-4.155899987e-05
6.805641042e-06
4.069697168e-05
4.074403991e-05
-8.799094446e-06
9.095041001e-06
-1.495900211e-05
1.520670892e-05
-1.526160112e-05
1.232701934e-05
-1.543460469e-05
1.535502371e-05
-9.317760887e-06
-1.557363722e-05
-1.512011847e-05
-9.056902751e-06
9.068002205e-06
-8.442884171e-06
8.431784717e-06
-7.740163046e-06
7.733252397e-06
-9.096132541e-06
-9.905134499e-06
9.819578673e-06
-9.155684788e-06
9.127554452e-06
-1.03383958e-05
1.041208997e-05
-2.519699289e-05
2.442443113e-05
-2.450120625e-05
2.438991221e-05
-2.654663972e-05
2.65357572e-05
-1.051463928e-05
-2.665724588e-05
-2.593227247e-05
-9.78305476e-06
9.850788411e-06
-1.966754369e-05
1.89477362e-05
-1.900361732e-05
1.896339701e-05
-2.095067528e-05
2.09396915e-05
-9.924436016e-06
-2.10172883e-05
-2.032194989e-05
-9.03449278e-06
-1.192938206e-05
8.95551387e-06
9.742921559e-06
-9.735347796e-06
-9.042066542e-06
9.754202714e-06
-8.34647189e-06
9.723748203e-06
-9.71494971e-06
-1.045322047e-05
9.737790007e-06
-9.7493896e-06
9.660960032e-06
-5.994526265e-06
-1.232471591e-05
5.833256964e-06
1.012169572e-05
-9.866966563e-06
-6.24925542e-06
1.076228238e-05
-5.327865404e-06
9.782138402e-06
-7.657337674e-06
6.887933565e-06
-6.972761725e-06
6.752953382e-06
-1.459067807e-05
-1.132793801e-05
1.451992266e-05
9.664763865e-06
-9.655837555e-06
-1.459960439e-05
9.675011191e-06
-1.391538603e-05
9.652966267e-06
-9.641670501e-06
-1.599847833e-05
1.527961129e-05
-1.528248257e-05
1.520555114e-05
-1.184819766e-05
-1.161597051e-05
1.176881573e-05
9.704927073e-06
-9.687450901e-06
-1.186567383e-05
-1.115621314e-05
9.679594917e-06
-1.322498468e-05
1.253542102e-05
-1.2543277e-05
1.246397399e-05
-8.990103219e-06
-2.80458167e-06
8.999907275e-06
2.794777612e-06
-2.108107299e-06
2.100644714e-06
2.183186324e-06
-1.148150748e-05
-2.292262739e-06
1.073779081e-05
-1.066271178e-05
1.081227475e-05
1.058670462e-05
-1.050886451e-05
-1.486829944e-06
-1.596240065e-06
-9.009239861e-06
-4.200893356e-06
4.193501022e-06
-3.500502188e-06
3.491169603e-06
-8.135817249e-06
2.186734763e-06
8.696112276e-06
-2.74702979e-06
1.632991778e-06
-3.160818774e-06
-1.556952859e-06
-1.122970633e-05
2.00128852e-06
9.632219293e-06
-9.556180374e-06
9.950731456e-06
1.200303007e-05
-4.177230518e-06
1.629486417e-06
2.42663004e-06
-5.658341912e-07
-1.103173656e-05
4.485912487e-07
1.042590521e-05
-1.032733189e-05
1.018448767e-05
-1.907113101e-06
1.185163271e-06
-1.3280075e-06
1.061291455e-06
-8.871232245e-06
-1.386147485e-06
-2.08223307e-06
3.188176207e-05
1.188800593e-05
-3.203795966e-05
-1.24749482e-05
1.261116868e-05
3.174554158e-05
-1.234656714e-05
3.225942099e-05
-1.274176362e-05
3.041015297e-05
-3.12500887e-05
3.111949376e-05
-3.135852917e-05
-1.030153995e-05
-3.138803812e-05
-3.208907643e-05
-1.033533181e-05
2.852657362e-05
-2.854994138e-05
-2.915047657e-05
-1.078976924e-05
3.237428862e-05
-3.14098296e-05
3.702268231e-05
-4.781245156e-05
3.235246761e-05
1.108988369e-05
-1.350456573e-05
1.274308622e-05
3.311394712e-05
3.408121754e-05
-1.232410802e-05
3.256174062e-05
-3.229083983e-05
3.270981803e-05
-1.893634778e-05
-9.042109806e-06
1.767708717e-05
8.753205467e-06
-2.768955325e-05
8.985306996e-06
-1.790240724e-05
1.897415081e-05
-1.755152245e-05
-1.735384509e-05
-1.092343638e-05
1.720815972e-05
9.613663304e-06
-9.558378092e-06
-1.74091303e-05
-1.671371084e-05
9.380858114e-06
-1.860634794e-05
1.79262827e-05
-1.810380267e-05
1.769723044e-05
-1.039295028e-05
2.578683798e-05
-2.579732984e-05
2.648074339e-05
-2.649056488e-05
-1.045797056e-05
2.292611078e-05
-2.301705622e-05
2.36785051e-05
-2.370386789e-05
4.32702278e-05
1.101190823e-05
-4.328089058e-05
-1.281093245e-05
1.29045051e-05
4.317665515e-05
-1.270542158e-05
4.386849142e-05
-1.299626293e-05
4.179207773e-05
-4.257731621e-05
4.248555838e-05
-4.258606632e-05
4.565185869e-05
1.085629915e-05
-4.572173623e-05
-1.226045027e-05
1.244788869e-05
4.546442027e-05
4.572863615e-05
-1.260023763e-05
4.452385471e-05
-4.521684292e-05
4.506449398e-05
-4.529454075e-05
0
0
0
0
0
0
0
0
0
0
0
0
0
0
0
0
0
0
0
7.250943776e-08
0
1.692624163e-05
-7.242654208e-06
8.719438055e-07
-7.704756338e-06
0
0
0
2.898966332e-05
2.496100029e-06
6.924321766e-05
-1.576411775e-05
6.630533726e-06
-5.633408885e-05
0
0
0
8.027980468e-05
6.487223072e-06
0
0
0
0
0
0
0
0
0
2.215426341e-06
0
6.087572099e-05
-3.514630837e-05
1.685730759e-05
-3.248253383e-05
0
-4.194486266e-07
9.565843839e-05
2.894464894e-05
0.0002191389556
-8.946991283e-05
6.186961959e-05
-0.0001766801986
-3.04877166e-05
-1.99405089e-05
0.0002605547442
6.756805492e-05
0.0003644768468
-8.216425619e-05
6.219864477e-05
-0.0003344137445
-0.0001105036261
-2.839287776e-05
0.0003887072549
5.291539977e-05
0
0
0
3.961652626e-05
-3.082474204e-05
1.608546089e-05
-1.398899103e-05
0
-1.170991183e-06
7.665371348e-05
3.686196141e-05
0.0002360687966
-0.0001534804156
0.0001193320803
-0.0001771145842
-6.224145577e-05
-5.903240133e-05
0.0002978057185
0.0001444310465
0.0004786785737
-0.0002205645462
0.0001868253971
-0.0004210268567
-0.0002393464837
-0.0001202044933
0.0005316504688
0.0001868082013
0.0006525726491
-0.0001658418784
0.0001458049177
-0.0006192303878
-0.0004149166033
-0.0001032322525
0.0006785567197
0.0001203998715
-2.088255923e-06
1.593182181e-05
7.665828559e-06
0.0001290452573
-0.0001251153977
9.95370582e-05
-8.086680122e-05
-2.851760187e-05
-5.03277982e-05
0.0001852937074
0.0001428173075
0.0003763225288
-0.0002945857972
0.0002600515729
-0.0003144588276
-0.0002152992969
-0.0001890201373
0.0004388130268
0.0002878030717
0.0006083559901
-0.0003406217705
0.0003126124912
-0.0005564298784
-0.0004702513592
-0.0002532754994
0.0006512988615
0.0003003519733
0.0007378806853
-0.0002245748632
0.0002136036109
-0.0007167795523
-0.0006653565556
-0.0001841535388
0.000752195734
0.0001726958035
-1.6961292e-05
4.19330588e-05
4.224180185e-05
0.0001730858359
-0.0002122856493
0.0001965399052
-0.0001224066529
-9.593933078e-05
-0.0001503448925
0.0002304605753
0.0002531326825
0.0004030925369
-0.0004074926807
0.0003857700501
-0.0003470084573
-0.0003315777641
-0.0003297319887
0.0004550998105
0.0004084240881
0.0005764984721
-0.0004075389522
0.000393032233
-0.0005423698963
-0.0005739876673
-0.0003604556002
0.0006000247665
0.000365312408
0.0006143847087
-0.0002332801172
0.0002363096422
-0.0006172069892
-0.0007051700651
-0.0002324734546
0.0006123777416
0.0001868437805
-2.43785767e-05
4.847383481e-05
8.127694606e-05
0.0001567126431
-0.0002714982542
0.0002626177263
-0.000116050501
-0.0001244782813
-0.0002326277242
0.0001997671079
0.0003236161048
0.0003263511664
-0.0004617172251
0.0004522658459
-0.0002862743566
-0.0003377316215
-0.0004229498654
0.0003624281448
0.0004679103313
0.0004307844137
-0.000433140817