/*--------------------------------*- C++ -*----------------------------------*\
| =========                 |                                                 |
| \\      /  F ield         | OpenFOAM: The Open Source CFD Toolbox           |
|  \\    /   O peration     | Version:  v2012                                 |
|   \\  /    A nd           | Website:  www.openfoam.com                      |
|    \\/     M anipulation  |                                                 |
\*---------------------------------------------------------------------------*/
FoamFile
{
    version     2.0;
    format      ascii;
    class       surfaceScalarField;
    location    "0.7";
    object      meshPhi;
}
// * * * * * * * * * * * * * * * * * * * * * * * * * * * * * * * * * * * * * //

dimensions      [0 3 -1 0 0 0 0];
oriented        oriented;


internalField   nonuniform List<scalar> 
5999
(
0
0
0
0
0
0
0
0
0
0
0
0
0
0
0
0
0
0
0
0
0
0
0
0
0
0
0
0
0
0
0
0
0
0
0
0
0
0
0
0
0
0
0
0
0
0
0
0
0
0
0
0
0
0
0
0
0
0
0
0
0
0
0
0
0
0
0
0
0
0
0
2.605615222e-09
4.356090594e-08
0
0
0
0
0
0
0
0
0
0
0
0
0
0
0
0
0
0
0
0
0
0
0
0
0
0
0
0
0
-1.210989492e-08
-7.495200605e-07
1.139040862e-06
4.715522046e-06
-4.456845137e-06
-4.107901542e-05
1.038973491e-05
5.800558402e-05
-5.201839608e-06
-0.0001079021002
8.32382839e-06
0.000121218708
0
0
0
0
0
0
0
0
0
0
0
0
0
0
0
0
0
0
0
0
0
0
0
0
0
-5.971188786e-07
-1.667463881e-06
3.176064685e-06
1.177252635e-05
-2.367148679e-05
-0.0001002005014
3.743266744e-05
0.0001426096599
-3.890100058e-05
-0.0002846728505
4.98033078e-05
0.0003319913073
-1.374022158e-05
-0.0004556469934
1.240144187e-05
0.0004870624322
0
0
0
0
0
0
0
0
0
0
0
0
0
0
0
0
0
0
0
0
0
0
0
1.959780397e-07
6.595157238e-07
-2.85149712e-05
-7.797035099e-05
4.275807562e-05
0.0001321512442
-9.005051855e-05
-0.0003442967197
0.0001088299144
0.000424097999
-7.686743444e-05
-0.0006602080257
8.238030667e-05
0.0007313691504
2.956075804e-06
-0.0009016183604
-1.069311022e-05
0.0009411760049
0
0
0
0
0
0
0
0
0
0
0
0
0
0
0
0
0
0
0
0
0
-6.550447739e-06
-9.623436632e-06
1.097739959e-05
4.114797257e-05
-9.458628192e-05
-0.0002438810356
0.0001123153717
0.0003372970237
-0.0001674344427
-0.0006621091326
0.0001757494373
0.0007743633013
-8.681002549e-05
-0.001049776443
9.597546447e-05
0.001109285951
3.258597086e-05
-0.001241068398
-3.608008038e-05
0.001260059979
0
0
0
0
0
0
0
0
0
0
0
0
0
0
0
0
0
0
1.719806491e-07
7.427890258e-09
2.83872039e-07
-2.648836205e-05
-4.959798229e-05
3.249298986e-05
0.0001110289395
-0.0001621982206
-0.0004049048346
0.000168579304
0.0005380137279
-0.0001963248449
-0.000920889316
0.0002016633798
0.001035866204
-8.314094064e-05
-0.001299443864
6.638901393e-05
0.001356736241
2.050585593e-05
-0.001406625045
1.838135879e-05
-7.260582138e-06
0.0006774238759
0.0006975745361
0
0
0
0
0
0
0
0
0
0
0
0
0
0
0
0
-7.215820946e-07
0
1.546398076e-06
2.652436599e-06
4.075286053e-06
-4.524905117e-05
-8.624294726e-05
4.68229291e-05
0.0001685449735
-0.000194721255
-0.000532842232
0.0001980070908
0.0006764859514
-0.0002066554378
-0.001093781838
0.0002064766896
0.001210477821
-4.719536983e-05
-0.00142875257
4.315930239e-05
0.0014465706
1.609149343e-05
-0.0007309712146
-1.489197599e-05
0.0007297716972
0
0
0
0
0
0
0
0
0
0
0
0
0
0
0
0
-2.007136078e-06
0
2.539358009e-06
7.453170391e-06
8.454043796e-06
-5.47747017e-05
-0.0001109039743
5.647999036e-05
0.0002041681248
-0.0002086555158
-0.0006005017081
0.0002108367436
0.0007531638798
-0.0002063571646
-0.00118581032
0.0002064617075
0.001301517506
-3.785324513e-05
-0.001496508011
3.71503769e-05
0.001503426356
1.890694321e-05
-0.0007501256339
-1.890543927e-05
0.00075012413
0
0
0
0
0
0
0
0
0
0
0
0
0
0
0
0
-3.062643064e-06
0
3.785379332e-06
1.160070777e-05
1.299658723e-05
-6.0736037e-05
-0.0001291940076
6.245970261e-05
0.0002305588006
-0.000216342781
-0.0006513655942
0.0002184745613
0.0008110599581
-0.0002070026129
-0.001257330501
0.000207096872
0.001374419915
-3.570722921e-05
-0.001563229632
3.528518764e-05
0.001567259879
1.897372279e-05
-0.0007811085542
-1.871941308e-05
0.0003897352411
0.0003911190034
0
0
0
0
0
0
0
0
0
0
0
0
0
0
0
0
-4.576935753e-06
0
5.492548273e-06
1.775103366e-05
1.957134992e-05
-6.786146659e-05
-0.0001517848251
6.976678352e-05
0.0002622566889
-0.0002249169097
-0.0007095247654
0.0002271191237
0.0008765340043
-0.0002072238646
-0.001336084196
0.0002072079825
0.001454035127
-3.39809668e-05
-0.001634251149
3.363463366e-05
0.001635993341
1.883006783e-05
-0.0008157521162
-1.875469751e-05
0.0004072703394
0.0004084064065
0
0
0
0
0
0
0
0
0
-6.61280077e-06
0
2.627703954e-05
2.736568981e-05
-7.599897031e-05
-0.0001783982762
7.843766222e-05
0.0002984724455
-0.0002340262123
-0.0007722268247
0.0002366103543
0.0009461239322
-0.0002069203734
-0.001416768188
0.0002066829187
0.001534685255
-3.283273391e-05
-0.001703257797
3.280958686e-05
0.001703412531
1.857659096e-05
-0.0008495876123
-1.858068905e-05
0.0004241078239
0.0004254838865
-0.0007469955025
0.0007470274064
1.887503935e-05
-0.0007769143977
1.91532214e-05
0.0003880556305
0.0003886792686
-0.0008114373564
1.894171199e-05
0.0004052275979
0.0004060981144
-0.0008451137539
1.872961204e-05
0.0004219899961
0.0004229707367
-0.00072644219
0.0007260974987
1.643618479e-05
-0.00154584812
0.00155046507
-3.610758885e-05
-1.422643082e-05
1.425981364e-05
-0.0007769477806
1.41796402e-05
-0.0007500556638
-1.424961029e-05
-0.001616908987
0.001619148708
-3.435682586e-05
-1.417650532e-05
1.420958896e-05
-0.0008114704401
-0.000781142867
-1.419211804e-05
-1.87903376e-05
-0.0007948071498
1.882878604e-05
0.0003967809473
0.0003979877541
-1.705123916e-05
0.0001991696525
1.699058074e-05
-0.0003980042479
0.0001988952537
1.707942906e-05
0.0001944383098
-0.0003895805946
-1.692137506e-05
0.0001949842309
-0.001685682807
0.001686226626
-3.298554761e-05
-1.407026077e-05
1.410178593e-05
-0.0008451452791
-0.0008157477217
-1.418089984e-05
-1.899127691e-05
-0.0008285120948
1.88339126e-05
0.0004138619817
0.0004148074774
-8.727468728e-06
0.0002074639623
8.792866176e-06
-0.0002075293597
1.672355392e-05
0.0002034388431
-0.0004072595209
-1.674683133e-05
0.0002038439552
-0.0008496185787
-1.403929437e-05
-8.720571733e-06
-0.0004319221103
0.0004319639527
8.678729353e-06
-1.004987914e-05
0.0002166075938
9.762377716e-06
-0.0002163200924
9.405928017e-06
0.0002114683465
-0.0002116088266
-9.265447883e-06
1.826897483e-05
-0.0003676453584
-1.798264026e-05
0.0001833304191
0.0001840286048
-1.859787926e-05
-0.0003737492568
1.851478606e-05
0.0001870673707
0.0001867649793
-0.0003671717216
1.152359403e-05
-1.074550434e-05
0.0003663936319
-0.0003675953382
0.0003678756222
1.798869084e-05
0.000194094887
1.72696772e-05
-0.0003885254095
0.0001942402744
0.000381757734
1.708897109e-05
-0.0003817980694
-1.704863568e-05
1.900772149e-05
-0.000765131076
-1.897283867e-05
0.0007650961932
1.829798378e-05
-1.802809258e-05
0.0001906518261
0.0001908360167
-9.083026813e-06
0.0001940895387
9.088375073e-06
-0.0003743144794
-1.842133071e-05
0.0001869138223
0.0001872241086
-0.0003810798674
1.825232466e-05
0.0001905468352
0.0001905786913
0.0002030656296
1.690532573e-05
-0.0004059653775
0.0002027179761
0.0001996383932
-0.0003993855105
-1.722227441e-05
0.0001999181526
-0.0007993463807
-1.897685528e-05
0.0003993099279
0.0004002229704
9.314032877e-06
-9.369157859e-06
0.0001996935182
-8.725329787e-06
0.0002030005884
8.790370963e-06
-9.033377954e-06
0.0001943886609
0.0001993146883
9.16899709e-06
0.0002112226644
9.49638883e-06
-0.0002113131252
0.0002076903675
-0.0002077201088
-8.69772748e-06
-0.0008321322512
-1.87242087e-05
0.0004155963902
0.0004162687928
9.224787568e-06
-9.052286825e-06
0.0002075178668
-1.027980351e-05
0.0002110120023
1.049046562e-05
-8.710880922e-06
0.0002034243942
0.0002073691261
9.319623695e-06
0.0002163103409
-0.0002164120103
-9.948209755e-06
0.0004328644688
1.092810834e-05
-1.073508401e-05
0.0002161173166
-1.001761974e-05
0.0002112061627
0.000216821833
1.071386908e-05
-0.001479800924
0.001488321676
-3.910084934e-05
1.411203626e-05
-0.0007469278986
1.159293577e-05
-0.0007299842964
-1.2579854e-05
-1.803941158e-05
-0.0007346801743
0.0007346124187
1.810716713e-05
-1.69373776e-05
1.688960682e-05
-0.0003675475674
1.502937815e-05
-0.0003682389765
-1.396212327e-05
-0.0007613124028
0.0007613824767
1.893764759e-05
1.710016541e-05
-0.0003810910617
1.713108417e-05
-0.0003743148687
-1.713069482e-05
1.71186833e-05
-0.0003737368559
-0.0003676658864
-1.691684969e-05
-0.0007344480338
-1.851053245e-05
0.0007349191547
9.610303965e-06
-0.0001847854168
-9.902705476e-06
0.0001850778183
-0.0001893203229
4.183816175e-06
-6.701338524e-06
0.0001918378452
-0.0001846949974
-9.042130127e-06
0.0001848472779
8.889849651e-06
-0.000740555742
2.196326609e-05
-5.230509993e-07
-8.792326233e-06
0.0003605435312
0.0003673643219
-0.0003628863488
0.000370210526
4.199416898e-06
0.0002139535603
8.134264777e-06
-0.0002140898877
-7.997937319e-06
1.319229245e-05
-0.0004283084576
-1.314896009e-05
0.0004282651252
-1.314859793e-05
-0.0004318860401
0.0004319252733
1.310936469e-05
-0.0001896458125
8.110319201e-06
-5.932325668e-05
0.00024085875
-0.0001836987182
9.828511675e-06
0.0001834805105
-1.807343999e-05
-0.0003704613398
1.82306647e-05
0.0001847464663
0.0001855576487
-1.066658211e-05
1.11648475e-05
-0.0001841969836
1.083491463e-05
-0.0001872893414
-1.319138576e-05
-1.299926784e-05
2.481079734e-05
-0.0001875531802
0.0001757416507
-0.0001851755682
-1.027643075e-05
-0.0003718501313
-1.84704861e-05
0.0001862064111
0.0001860407663
-1.71398139e-05
-0.0003703138525
0.0003705586237
1.689504271e-05
-1.024056705e-05
1.043812084e-05
-0.0001848925512
-2.500823925e-08
-0.0001836439714
-5.651343169e-06
0.0001868215222
9.960403906e-06
-0.0001859470115
0.0001848469984
-0.0001847797757
-1.030778969e-05
-0.0003684375236
-1.738078949e-05
0.0003686784992
-1.026170828e-05
0.0001860665765
0.0001864597168
8.472124609e-06
-9.142614149e-06
-0.0001925762464
0.0001926409966
9.07786395e-06
9.586124483e-06
-0.0001900696481
-9.539103185e-06
0.0001900226268
-0.000192922028
-9.15223395e-06
0.0001929316478
-1.84738351e-05
-0.0003775992672
1.832811951e-05
0.0001887137785
0.0001890312044
-1.015667824e-05
1.016017525e-05
-0.0001883438263
0.0001883403293
-0.0001864376496
-1.096938152e-05
0.0001844077632
9.69885767e-06
-0.0001899468966
0.0001898341634
-0.000188447912
-1.00765226e-05
0.0001883677564
-0.0003781740934
-1.841248165e-05
0.0001890693183
0.0001890434216
-9.120907109e-06
-0.0002010780658
0.0002010261363
9.172836572e-06
-0.0002014775569
-9.086269537e-06
0.0002014429194
-8.882706082e-06
-0.0001968659953
0.0001968178654
8.930835911e-06
-0.0001971658691
-8.873855371e-06
0.0001971570184
-8.4070342e-06
-0.0002098583112
0.0002098778035
8.387541854e-06
-0.0002102864082
-8.677341181e-06
0.0002105567152
-9.894845201e-06
-0.0002055990095
0.0002057526847
9.741170003e-06
-0.0002057474713
-9.911381571e-06
0.0002057640076
-0.0004328646629
0.0004328611949
-8.223224263e-06
-0.0002137531816
0.0002134868213
8.489584521e-06
-7.964361491e-06
0.0002136946975
3.228668934e-06
-0.000375285368
-5.098275256e-06
-0.0001919449
0.0001919819702
4.146745955e-06
9.076448124e-06
-0.0002057385494
-9.085369971e-06
1.343395031e-05
-0.0004117374803
-1.339399309e-05
0.0004116975231
-1.338542304e-05
-0.0004148434356
0.0004148406126
1.338824603e-05
1.344070946e-05
-0.0004072691028
-1.343894298e-05
0.0004072673363
-0.0004106402433
0.0004106386819
1.343551171e-05
8.961569819e-06
-0.0002054841312
1.32943375e-05
-0.0004241056222
-1.324982244e-05
0.0004240611071
-0.0004276829997
0.0004276766939
1.319859826e-05
8.276391181e-06
-0.000213895308
1.696065396e-05
0.0002018742383
-0.0004033460742
-1.696637498e-05
1.348706147e-05
-0.0004033651068
-1.348508413e-05
0.0004033631295
-0.0004060580183
0.0004060184479
1.348027985e-05
-9.035597373e-06
0.0002024719195
9.232213889e-06
-0.000202668536
0.000201869591
9.956002265e-06
-0.0002021346009
-9.69099236e-06
8.94031364e-06
-0.0002024558116
-8.875998714e-06
0.0002023914967
8.371862172e-06
-0.0002101409215
-8.51734889e-06
1.337495121e-05
-0.0004200701768
-1.341076373e-05
0.0004201059893
-0.0004228899855
0.0004228862105
1.329811245e-05
-0.0004155950195
-1.338270308e-05
0.0004155922995
-0.0004190437349
0.0004190801004
1.333858576e-05
8.27622487e-06
-0.0002097626739
-8.722341268e-06
-0.0002078234252
0.0002077252055
8.820561066e-06
-9.323829586e-06
0.0002069493565
9.601299624e-06
-0.0002072268266
1.023125838e-05
0.0002069300346
-0.0002071145253
-1.004676763e-05
-9.282747416e-06
9.399134708e-06
-0.0002104956417
0.0002103792544
2.492964434e-05
-0.00021156219
-1.17434196e-05
0.0001983759652
1.041327652e-05
-0.0002110341157
-1.063875048e-05
0.0002112595896
-8.825364879e-06
-0.000204472268
0.0002045761475
8.721485349e-06
-8.375228966e-06
0.0002051678842
8.310894054e-06
-0.0002051035493
0.0002029077457
-0.0002031827984
-8.760544718e-06
0.0002067042822
1.045499029e-05
-0.0002069280142
0.0002059099398
1.109204275e-05
-0.0002061367976
-1.086518499e-05
9.67862881e-06
-0.0002067090685
-9.54685697e-06
0.0002065772967
-9.293983134e-06
-0.0002126049287
0.0002123762553
9.52265652e-06
-8.652995935e-06
8.758106494e-06
-0.0002117071718
0.0002116020613
-0.0002105706794
-8.97081675e-06
0.0002102587488
3.423569403e-06
-0.0002177579277
1.768885694e-05
0.0001966455013
7.909403356e-06
-0.0002159694933
-8.717842167e-06
0.0002167779321
-5.612287497e-06
-0.0001857526622
8.932382381e-06
0.0001824325673
-0.0001893741561
1.314240944e-05
0.0001706194592
-9.594621383e-06
-0.000188639407
0.000189113527
9.12050138e-06
-0.0001895604604
-8.670549014e-06
0.000188636388
-1.107254243e-05
-0.0001828047352
1.344586804e-05
0.0001804314096
-0.0001825523985
-1.070998352e-05
0.0001821898395
1.304777006e-05
-0.0001833135581
-1.228661041e-05
1.115359716e-05
-0.0001846344006
-1.090091007e-05
0.0001843817135
-1.011412533e-05
-0.0001854215896
0.0001851488121
1.038690287e-05
9.665868904e-06
-0.0001837567541
-1.061480836e-05
0.0001847056936
-0.0001847370679
0.000184628383
1.126228202e-05
1.399597163e-05
-0.0001837529368
8.433278963e-06
-0.0001894002509
-8.40718412e-06
1.001146367e-05
-0.0001870367716
-1.053323776e-05
0.0001875585457
-1.197108987e-05
-0.0001869993235
0.0001872639295
1.170648384e-05
-0.0001861494344
-9.957581995e-06
0.000185992891
-0.0001860835285
0.0001862974037
9.797588456e-06
9.133479047e-06
-0.0001864528623
0.0001824702063
1.259587431e-05
-0.0001836812381
-1.138484249e-05
1.014197562e-05
-0.0001844114491
-1.016051441e-05
0.0001844299878
-0.0001841169193
0.0001841087276
9.674060626e-06
-1.384832082e-05
-0.0001830564907
0.0001818667526
1.503805889e-05
-1.176820988e-05
0.0001803900954
8.653828631e-06
-0.0001930173394
-5.997284268e-06
0.000190360795
9.238759934e-06
-0.0001929611803
-9.5162622e-06
0.0001932386826
-1.208279107e-05
-0.0001935095828
0.0001942859153
1.130645861e-05
9.562638299e-06
-0.0001905608459
-9.379137525e-06
0.0001903773451
-0.0001920664367
0.0001921169228
9.188273809e-06
8.990313378e-06
-0.0001915467736
0.0001912102888
1.20336565e-05
-0.0001937420672
-1.189782444e-05
0.0001936062351
-1.141131093e-05
-0.0001938233243
0.0001936826244
1.155201076e-05
-0.0001934332139
-1.236666357e-05
0.0001937170864
-0.0001935420418
0.000193372995
1.220270329e-05
1.047011549e-05
-0.0001870916007
-1.038917051e-05
0.0001870106557
1.141168062e-05
-0.0001877040469
-1.124555755e-05
0.0001875379238
-1.072266843e-05
-0.0001889265044
0.0001887674767
1.088169615e-05
-0.0001868782668
-1.197346018e-05
0.0001868806371
-0.0001877543068
0.0001875541369
1.161185055e-05
1.059754029e-05
-0.0001869534372
0.0001868260124
9.660847126e-06
-0.0001893971143
-9.63731303e-06
0.0001893735802
1.010119517e-05
-0.000189910058
-9.945738199e-06
0.000189754601
-0.0001904315889
0.0001903172815
9.676945659e-06
-0.0001889513631
-1.053128752e-05
0.0001887599822
-0.00018918717
0.000189066678
1.022168712e-05
9.890919865e-06
-0.0001886758351
0.0001884457623
1.16975133e-05
-0.0001997299043
-1.151167837e-05
0.0001995440694
-1.091980571e-05
-0.0002004981509
0.0002003120893
1.110586727e-05
1.253003092e-05
-0.000200342745
-1.261492819e-05
0.0002004276423
-0.000199681091
0.0001994440331
1.193457126e-05
1.011452295e-05
-9.935669003e-06
0.0002016907371
-9.267629576e-06
0.0002022417819
9.497767167e-06
-0.0002009115287
-1.069646144e-05
0.0002006881844
-0.0002017543831
0.0002015755103
1.029339574e-05
1.057824646e-05
-0.0001956979853
-1.031170479e-05
0.0001954314436
-9.653068646e-06
-0.0001964911328
0.0001962582875
9.885913946e-06
-0.0001940766638
-1.122487271e-05
0.0001938902256
-0.0001953988202
0.0001951698477
1.080721888e-05
8.696330071e-06
-0.0001990508712
-8.760750486e-06
0.0001991152916
-0.0002009133841
0.000201996755
1.144666003e-05
-0.0001967996621
-9.419025685e-06
0.0001965656192
-0.0001981146687
0.0001979020928
8.908906025e-06
0.0002090799506
-7.855890478e-06
8.411355988e-06
-0.0002096354161
0.0002075133006
-0.0002077977229
-9.039407328e-06
-0.000208475811
-8.548040663e-06
0.0002083015103
8.563020292e-06
-8.534722268e-06
0.0002074850026
-7.786744108e-06
8.160114554e-06
0.0002087065801
9.123038654e-06
-9.070935508e-06
0.0002068779314
8.900649879e-06
0.0002066117269
-0.0002102131938
-4.408173252e-06
0.000206834623
-0.0002109432499
0.000211492525
9.864001382e-06
6.324877831e-05
-0.0002134840032
0.0001751648692
-0.0002108094317
-7.259652608e-06
0.0002063711504
-1.218510064e-05
1.209943332e-05
-0.000206285483
0.0002073127553
-0.0002063683444
-9.319639824e-06
-0.0002048205793
-9.087620518e-06
0.0002050828349
7.659041369e-06
-7.742291719e-06
0.0002073960056
-1.206453093e-05
2.482617186e-05
0.0001936095094
-9.023765767e-06
0.0002026638819
0.0002045840797
8.242845851e-06
9.489947523e-06
-9.396408308e-06
0.0002058164006
9.213779644e-06
0.0002066135413
-0.0002053935755
-9.980781017e-06
0.0002033098256
-0.0002056493216
9.587268445e-06
0.0002055520006
-0.0002064085812
0.0002062803373
9.806872743e-06
1.132410104e-05
-0.0002058813798
-0.0002057001467
-1.18785295e-05
-8.114800092e-06
8.221299027e-06
-0.0002128939257
0.0002127874267
-0.0002120133747
-8.510347254e-06
0.000211870726
-0.0002128702883
-9.025541273e-06
0.0002126018465
-0.000214721187
0.0002149362987
7.694291604e-06
7.140461317e-06
-0.0002140694826
0.0002103525907
-0.0002130507682
-8.08089624e-06
0.0002130168643
1.695482477e-05
0.0001974018952
-0.0003945775799
-1.694500914e-05
1.350065204e-05
-0.0003945865279
-1.349857416e-05
0.00039458445
-1.349612528e-05
-0.0003979867442
0.0003979859276
1.349694193e-05
-0.0003896607286
1.354297081e-05
-1.354215147e-05
0.0003896599092
-0.0003935260533
0.0003934886146
1.353809072e-05
0.0001966012155
1.696788969e-05
-0.0003934802757
-0.0003993441244
-1.349530802e-05
0.0003993433071
-0.0004019696087
0.0004019664731
1.349019699e-05
0.0002006915979
1.710310277e-05
-0.0004019121125
-9.370807703e-06
-0.0002001299659
0.0002001301835
9.370590046e-06
-1.171972218e-05
1.194388456e-05
-0.0001999052534
1.196661308e-05
-0.0002000848711
-1.222448707e-05
1.117794904e-05
-0.00020012472
8.998201738e-06
-0.0001987578521
-9.291220826e-06
8.87220803e-06
-0.0001982951789
-8.943222453e-06
0.0001983661933
-0.0001847270457
-9.837757001e-06
0.0001846620972
-2.554392274e-05
-0.0001875983676
0.0001538190337
-1.417569409e-05
0.0002550344441
-0.0001826486216
1.036226789e-05
0.0001821148654
-0.0001832244717
1.17406976e-05
-1.111739932e-05
1.169987582e-05
-0.0001838069482
-1.057800102e-05
-0.0001847363819
-0.0001898777791
5.946038585e-05
0.0001552281906
-1.326669206e-05
1.219459034e-05
-0.0001888056774
-1.327562805e-05
-0.0001875442442
-1.012137882e-05
-0.0001856321904
0.0001851530926
-9.719828035e-06
-0.0001855546434
-9.850383785e-06
9.854083409e-06
-0.0001845721451
-1.016647119e-05
0.0001848845329
-0.0001848360943
0.0001847742753
1.020379465e-05
1.333404435e-05
-0.0001837946607
0.0001896044028
-1.365075387e-05
-0.0001862153572
7.953499011e-06
-5.985908805e-05
0.0002415099918
0.0001846419791
9.378096494e-06
5.368185662e-06
0.000166915837
-0.000182102228
9.379808852e-06
0.0001780906048
1.008844427e-05
-0.0001837185477
-0.000247675337
-1.286380319e-05
0.0002605391402
-6.020463809e-05
8.614649084e-06
-0.000196085348
-2.457015678e-05
-0.0001952895044
0.0001596550231
-9.784620328e-06
9.953680382e-06
-0.0001902387082
0.0001901983521
-9.600670482e-06
-0.0001903823019
-9.379206712e-06
0.0001900384556
-1.018588172e-05
1.022553111e-05
-0.0001936652498
0.0001936256004
-1.018961219e-05
-0.0001935916789
0.0001935954094
-1.252488439e-05
-0.00019386733
0.0001818220576
-1.065125915e-05
-0.0001931111629
0.0001912375377
-0.0001879393672
1.012246578e-05
0.0001879770767
-1.142443682e-05
1.161126443e-05
-0.0001881261948
-1.121934802e-05
-0.0001885489151
-1.295482707e-05
-0.0001867584505
0.0001863862971
-1.256364408e-05
-0.0001867774801
-1.057796749e-05
0.0001859948831
-0.0001899981203
9.771425947e-06
0.000189925552
-1.011611084e-05
1.027627905e-05
-0.0001901582885
-0.0001901093271
-1.108693437e-05
-0.0001885803257
0.0001884067795
-1.092232701e-05
-0.0001885713869
-1.003567891e-05
0.0001883659358
-1.083819843e-05
1.107029226e-05
-0.0002007302447
-0.0001999568976
-1.149272894e-05
-0.0002003188416
-9.257522368e-06
0.0002002055563
-0.0002022979284
0.0002022382329
9.000009115e-06
1.01834245e-05
-0.0002019818053
-0.0002011063165
-1.064341059e-05
-9.464005464e-06
9.668526943e-06
-0.0001966956543
1.020733706e-05
-0.0001958647966
-1.004052573e-05
8.966514733e-06
-0.0001960732782
-8.953264632e-06
0.0001960600281
-9.446558102e-06
9.53586279e-06
-0.0001957725898
0.0001956832851
-9.318275959e-06
-0.0001960715034
0.0001959432212
-9.836366954e-06
-0.0001936718593
0.000193318614
-9.854341559e-06
-0.0001942511925
0.0001942691671
-1.431050741e-05
-0.0002560489229
0.0002703594304
-9.261161464e-06
-0.0001963009923
0.0001962438778
-0.0001966112596
-9.121729608e-06
0.0001964718278
-0.0001979824248
0.0001980282811
8.826351766e-06
9.000562111e-06
-0.0001981170291
-0.0001969659668
-9.297700807e-06
-0.0002070154885
0.0002067925418
9.824246325e-06
-9.396392379e-06
-0.0002072914402
9.672344125e-06
-9.112987727e-06
-0.0002075102312
-0.0002104468917
9.650240121e-06
0.0002101957863
-1.118967857e-05
1.1556022e-05
-0.0002108132351
-1.092661591e-05
-0.0002107587044
-1.192077661e-05
1.189466149e-05
-0.0002115360748
0.000210655763
-0.0002110205176
0.0002085625835
-9.011295996e-06
1.126537538e-05
-0.000215696226
0.0002134421466
-0.0002154131522
0.0002151536357
-0.0002114028436
8.86347707e-06
0.000211297473
-1.000673922e-05
1.033682269e-05
-0.0002117329271
-9.71708834e-06
-0.0002119968227
-1.062943756e-05
-0.0002108678578
0.0002110227718
-0.0002113153867
0.0002109154321
-2.463589121e-05
6.368101441e-05
-0.0002188918177
0.0001798466945
-0.0002167914517
0.0002034209359
-6.322389277e-06
6.34791074e-06
-0.0002177834491
0.0002771387128
-0.0002197800876
0.0002948275697
-0.0001843785877
0.0001834732131
-0.0002425080297
0.0002556504391
-6.866718359e-06
-0.0001900579156
5.690667974e-06
-5.269981488e-06
-0.0001878319666
-2.518389029e-05
5.907713005e-05
-0.0001877103632
-8.433126728e-06
-0.0001829355246
0.0001661847611
-4.378483519e-06
-0.0001871504731
0.0002458905748
-0.0001911919283
-0.0001843722278
0.0001722741732
-0.0001823928491
0.0001820451335
-1.028824638e-05
9.290785754e-06
-0.0001884027903
0.0001914548279
-0.000189548484
-0.0001850954924
-9.34945841e-06
-0.0001854658621
-0.0001865115349
2.636047316e-05
-1.348845056e-05
0.00016899473
-0.0001864632705
0.0001529646556
-0.0001850759655
1.502255619e-05
0.0001611862961
0.000256532548
0.0001809670963
-0.000182646862
1.031418661e-05
0.0001800327186
0.0001772158314
-8.501434745e-06
8.883701512e-06
-0.0001933996061
0.0001952512679
-0.0001951380535
0.0001763901804
-0.0001905543714
0.000190165478
-9.26322006e-06
-0.0001908918218
-0.0001919262921
-1.026980907e-05
1.031867959e-05
-0.0001933997796
0.0001933509091
-0.0001936220704
0.0001935777925
-1.042016917e-05
-0.0001929811991
0.0001927501091
-0.0001931878308
0.0001930863412
-1.179690715e-05
1.197908239e-05
-0.0001872737759
0.0001873545116
-0.0001875401543
0.0001870878068
-0.0001868538849
0.0001868734577
-1.23114104e-05
-0.0001871061186
-0.0001872857652
-1.03712636e-05
1.051233139e-05
-0.0001895381821
0.0001899652549
-0.0001900602394
0.0001900993678
-0.0001883903816
0.0001882456225
-1.072191939e-05
-0.0001885907892
-0.0001888854231
0.0001996873326
-1.136663944e-05
-0.0001998323715
9.900628679e-06
-9.813744389e-06
0.0001996004483
1.002921944e-05
0.0001994154786
9.682182033e-06
-9.552904964e-06
0.0002001828122
-0.0001998644068
0.0001997328444
-0.000200125179
0.0001995316144
-1.223560086e-05
-0.0001999109417
1.237716203e-05
-1.029679292e-05
0.0001974512453
2.481928863e-05
0.0001879855157
1.017364152e-05
0.000199299611
-0.0001994914781
0.0001993683267
-0.0001997925077
0.000201803176
-9.718538146e-06
-0.0002020203069
9.221846594e-06
-9.174211521e-06
0.000201755541
9.27104114e-06
0.0002016415425
9.010646531e-06
-8.837141053e-06
0.0002020682764
-0.0002019104624
0.0002017468974
-0.0002021312334
0.0002011051669
-1.051077906e-05
-0.0002012908493
9.461539664e-06
-9.442231234e-06
0.0002010858585
0.0002005968191
9.394704615e-06
0.0002014518468
-0.0002014188793
0.0002013713526
-0.0002016362626
-9.587662582e-06
-0.0001952844378
9.713722323e-06
0.000195158378
-0.0001955110541
0.0001954592543
0.0001957306645
-1.008105367e-05
-0.0001959613156
1.054500457e-05
-1.03253942e-05
1.069201045e-05
1.010433269e-05
-9.917548578e-06
-0.0001959936513
-0.0001961887911
-9.767646006e-06
-0.0001946922542
0.0001946055586
-0.0001949500745
0.0001948961508
-5.350281743e-06
-0.0001985314366
8.500045076e-06
0.0001953816733
-0.0002012734821
0.0001816126929
0.0002012273006
-9.745066541e-06
-0.0002002429846
8.044416701e-06
-8.090598151e-06
8.628271707e-06
6.138029636e-05
0.0001654357472
-0.0002027592247
-0.0002010576313
0.0001968164477
-9.182459573e-06
-0.0001970530139
9.65292173e-06
-9.447733638e-06
9.093691952e-06
0.0001974366725
-0.0001972242611
0.0001968702194
-0.0001974978146
-8.907275703e-06
0.0001966557655
0.0001970294419
-0.0002088771943
8.742460757e-06
0.0002085460896
-8.242765819e-06
8.533272565e-06
-0.0002091677011
-8.014816302e-06
-0.0002098633656
-8.824629815e-06
-0.0002080860808
0.0002083908254
-0.0002086821826
0.0002080938788
-8.42215933e-06
0.0002079813159
0.0002082840448
-9.0982722e-06
-0.0002069606092
0.0002069879459
0.0002065949194
1.621456386e-05
-0.0002130214735
0.0001923987364
-0.0002704018247
0.0002866163885
-0.0002144452037
7.292157352e-06
-1.079120185e-05
8.990511431e-06
-0.0002126445133
-0.0002123805435
-8.025933669e-06
-0.0002107983143
0.0002129889687
-0.000212024391
0.0002635231994
-6.238575893e-05
-0.0002088797322
-1.520388106e-05
0.0002787270805
4.90469006e-06
0.0001872874345
-0.0002080468401
0.000170487253
0.0002030748691
-8.744923831e-06
-0.0002033537111
8.769700521e-06
-8.555191977e-06
0.0002028603606
0.0002025964414
8.187866591e-06
0.0002013009032
-0.000203492352
0.0002031250266
-0.00020399443
-9.304705983e-06
-0.0002062124618
0.0002061207595
-0.0002064783825
0.0002063874562
-9.776300541e-06
-0.0002052659735
0.000205061493
-0.0002054383404
0.0002052493083
-0.0002125444629
8.36661925e-06
0.0002123991427
-8.849357543e-06
9.139586892e-06
-0.0002128346922
-8.596474993e-06
-0.0002131468082
-9.428444532e-06
-0.0002123020185
0.0002122786623
-0.00021256752
0.0002121349343
-0.0002127884779
7.978228667e-06
0.0002119507106
-7.121704324e-06
7.879747203e-06
-0.0002135465208
-0.0002148432762
-8.253627571e-06
-0.0002133936156
0.0002130259987
-0.0002133998791
0.0002129233311
0
0
0
0
0
0
0
0
0
0
0
0
0
0
0
0
0
0
0
6.062523436e-08
0
1.378603487e-05
2.941748198e-06
-3.398893065e-07
-6.349212606e-06
0
0
0
2.343778323e-05
-9.940810239e-07
5.581818855e-05
5.964017774e-06
-2.558850358e-06
-4.534288897e-05
0
0
0
6.49281779e-05
-2.4734995e-06
0
0
0
0
0
0
0
0
0
2.262496772e-06
0
5.851070817e-05
1.591983354e-05
-7.28351862e-06
-3.16688357e-05
0
1.618802028e-07
9.102061302e-05
-1.284260134e-05
0.0002066437435
3.884403337e-05
-2.680117438e-05
-0.0001665661538
-2.572453915e-05
8.357559251e-06
0.0002464253474
-2.821449707e-05
0.0003521020618
2.263135164e-05
-1.929956584e-05
-0.0003202654024
-9.236272977e-05
1.030273029e-05
0.0003791741587
-1.320029508e-05
0
0
0
4.840909078e-05
1.443231085e-05
-7.078734265e-06
-1.767257758e-05
0
4.575804281e-07
9.182069592e-05
-1.723743615e-05
0.0002745712458
7.84332705e-05
-5.973123086e-05
-0.0002071689311
-6.299900183e-05
2.783006484e-05
0.0003456021653
-7.137484535e-05
0.0005611404226
8.901050366e-05
-7.763532852e-05
-0.0004907310206
-0.0002363818232
5.185225157e-05
0.0006278720099
-6.937244034e-05
0.0007921746121
1.867862041e-05
-2.244422582e-05
-0.0007445119327
-0.0004186528932
2.445917058e-05
0.0008316907715
-3.822961872e-06
-3.474373564e-06
2.573968029e-05
-3.208550686e-06
0.0002000522689
6.679229415e-05
-5.200640556e-05
-0.0001266443705
-3.876336207e-05
2.556177168e-05
0.0002853645439
-7.748060451e-05
0.0005913527642
0.0001630955533
-0.0001465670079
-0.0004877228975
-0.0002675363887
9.818803231e-05
0.0006958606025
-0.0001495888084
0.0009524088121
0.0001200089344
-0.0001119029668
-0.000870999088
-0.0005840487309
9.860331576e-05
0.001025450729
-8.743672184e-05
0.00117536761
-4.648117099e-06
-8.589391679e-07
-0.00113679769
-0.0008531059555
1.34733286e-05
0.001203597479
2.623260824e-05
-3.737663594e-05
9.130763398e-05
-2.030527322e-05
0.0003741274562
0.0001213007566
-0.0001117330223
-0.0002652059078
-0.0001612702789
8.221622444e-05
0.0004918814137
-0.0001451924317
0.0008601379599
0.000206851143
-0.000196652418
-0.0007393259974
-0.0005468026445
0.000172316234
0.0009743224187
-0.0001899652828
0.001260986863
0.000114385471
-0.000129341997
-0.001174968405
-0.0009766651121
0.0001321519626
0.001320603281
-9.34173643e-05
0.001357044576
9.225209923e-06
5.091485916e-06
-0.001370596181
-0.001212100867
-7.151373147e-06
0.001345066772
3.248365992e-05
-8.044252217e-05
0.0001593170976
-4.218417631e-05
0.0005110064045
0.0001598421369
-0.0001539327772
-0.0003791693388
-0.0002924199848
0.0001343060067
0.0006505014353
-0.0001886555367
0.001060274624
0.0002255007135
-0.0002226267666
-0.0009303673679
-0.0007992597162
0.000221058138
0.001178597755
-0.0002076485676
0.001413179541
8.840112349e-05
-9.267297038e-05
-0.001362033324
-0.001225304914
0.0001027837689