/*--------------------------------*- C++ -*----------------------------------*\
| =========                 |                                                 |
| \\      /  F ield         | OpenFOAM: The Open Source CFD Toolbox           |
|  \\    /   O peration     | Version:  v2012                                 |
|   \\  /    A nd           | Website:  www.openfoam.com                      |
|    \\/     M anipulation  |                                                 |
\*---------------------------------------------------------------------------*/
FoamFile
{
    version     2.0;
    format      ascii;
    class       surfaceScalarField;
    location    "1.77";
    object      phi;
}
// * * * * * * * * * * * * * * * * * * * * * * * * * * * * * * * * * * * * * //

dimensions      [0 3 -1 0 0 0 0];
oriented        oriented;


internalField   nonuniform List<scalar> 
6430
(
-0.006777189948
0.9299389359
-0.01372486949
0.9295912873
-0.02076132948
0.9287727768
-0.0064052233
0.927505416
-0.02180291535
-0.4592040466
0.4601353272
-0.007336503828
-0.4575990239
0.008351022783
0.4587395502
-0.009491549041
-0.4649751509
0.01061422692
0.4680463736
-0.006993114786
-0.006615508637
-0.2542157624
0.009106883931
0.2552525313
-0.010030419
-0.2625877875
0.00900079326
0.2623255619
-0.008581841
-0.2451786641
0.007211813172
0.2464278654
-0.008358616633
-0.2171092342
0.009057544422
0.2180465704
-0.004967756829
-0.005027123846
-0.05281069869
0.003227666278
0.05286897628
-0.003285943854
-0.003218139831
0.9331570758
-0.006524093903
0.9328972414
-0.01001054235
0.9322592252
-0.006811815209
0.9312788439
-0.006972155094
-0.4630810117
0.4640611121
-0.007791915612
-0.4616783639
0.008883889105
0.4628478311
-0.01005335621
-0.4713218544
0.01132042024
0.4705697865
-0.005446013377
-0.005031658097
-0.2569397823
0.004774462595
0.2566762989
-0.004391273364
-0.2632129439
0.003491329496
0.2633008091
-0.003423224194
-0.2455971848
0.004515448521
0.2466241478
-0.005449120837
-0.2215018504
0.01013468333
0.2225735408
-0.005593593273
-0.00561278047
-0.05466571692
0.007669666793
0.1097378101
-0.05460936235
-0.004054384544
-0.004078013087
-0.003373011978
0.9365300878
-0.006833438186
0.9363576677
-0.01047093319
0.9358967203
-0.007131032674
0.9351849472
-0.007246003728
-0.4651277667
0.4661788615
-0.008182127464
-0.4640387662
0.009317789737
0.4652420227
-0.0105210462
-0.4684333582
0.01181568306
0.4662061607
-0.004665456753
-0.004887478722
-0.2540764542
0.001695917772
0.2526358972
-0.0001537755849
-0.2626833623
-0.003736914499
0.2620759302
0.004492994983
-0.2507994348
-0.00411091346
0.2521390847
0.002879857108
-0.2291951069
0.00462771897
0.2329715118
-0.008381249004
-0.1128393706
0.01447209714
0.224913962
-0.01414289908
-0.1124037895
-0.003446000985
0.9399760888
-0.006972459121
0.9398841258
-0.0106597408
0.9395840019
-0.007269191779
0.939118384
-0.007323985819
-0.4672453952
0.468312828
-0.008336624672
-0.4664411135
0.009469796097
0.4676297094
-0.01065839194
-0.4655718613
0.0119256148
0.4668790096
-0.00659533419
-0.006637292037
-0.2468167622
0.002380423763
0.2444648184
3.340453008e-05
-0.258570355
-0.006948986421
0.256813334
0.008829046361
-0.2544724169
-0.01205625595
0.2544796942
0.01216409887
-0.2413482364
-0.00959345171
0.2430107047
0.007993709862
-0.2273536421
-0.0029157436
0.2286048899
0.001679820714
-0.003444360152
0.9434204489
-0.006958855805
0.9433986215
-0.01061003966
0.9432351858
-0.007244848035
0.9429780833
-0.007224890978
-0.4693542729
0.4703976837
-0.008288258848
-0.4687936515
0.009383083943
0.4699298637
-0.01051929618
-0.4681953081
0.01171660248
0.469461293
-0.006515875283
-0.006466712132
-0.2367412993
0.007148053334
0.2346885786
-0.005086944038
-0.2499888886
-0.003400014724
0.2473290767
0.006134611121
-0.2520092065
-0.01297064092
0.2504560491
0.01461667099
-0.244906391
-0.01742891662
0.2446679063
0.01773447508
-0.2318334647
-0.01751972578
0.2325934004
0.01678237637
-0.003380557519
0.9468010065
-0.00681892104
0.946836985
-0.01036561671
0.9467818815
-0.007079755313
0.9466888892
-0.00699666732
-0.4713992964
0.4723920877
-0.008072546648
-0.4710279536
0.009104922575
0.4720878673
-0.01016483626
-0.4706711681
0.01126728639
0.4718201914
-0.00624716361
-0.006169146154
-0.2351878968
0.006852098708
0.2354972849
-0.007161486832
-0.2389973658
0.006666199557
0.2363279735
-0.003983296336
-0.2443946814
-0.003804581674
0.2421396933
0.006106010543
-0.2421676247
-0.01154785714
0.2409483806
0.012810423
-0.2337525905
-0.01496021069
0.2337903274
0.014938518
-0.003267103475
0.95006811
-0.006578712266
0.9501485938
-0.009968913332
0.9501720825
-0.006803039573
0.9501970852
-0.006674069747
-0.4733370654
0.4742654754
-0.007731449683
-0.4731021039
0.008687868193
0.4740731378
-0.009658902104
-0.4729064881
0.01065587226
0.4739298956
-0.00588776951
-0.005791510192
-0.2363603686
0.006418206485
0.2366274216
-0.006685259434
-0.2361103602
0.007490042728
0.2363785411
-0.007758223668
-0.2357309151
0.008555257911
0.2357680795
-0.00859184142
-0.2369634837
0.004699758341
0.2356979016
-0.003424892379
-0.2331505018
0.0009987767781
0.232723707
-0.0005671300478
-0.003116873037
0.953184983
-0.006265270835
0.9532969916
-0.009464378353
0.95337119
-0.006449154403
0.9534716051
-0.006289743845
-0.4751433929
0.4760000296
-0.007305791073
-0.4749958284
0.008180467029
0.475874237
-0.009058875691
-0.4748924165
0.009949606074
0.4757951324
-0.005476089498
-0.00537623253
-0.237367949
0.005937153216
0.2375962603
-0.006165464474
-0.2371073738
0.006839767695
0.2373271697
-0.007059563636
-0.2364579745
0.007696900804
0.2366610068
-0.007899933085
-0.2353983022
0.00847003672
0.2355721239
-0.008643858378
-0.2316189356
0.009019851684
0.2314189825
-0.008819898591
-0.002942330572
0.9561273136
-0.005904504273
0.9562591653
-0.008892770004
0.9563594558
-0.006047756432
0.9564981911
-0.005871599625
-0.4768062454
0.4775898495
-0.006831360499
-0.4767049104
0.00762432329
0.4774930312
-0.008412444041
-0.4766395379
0.009202050805
0.4774287561
-0.00504013011
-0.004951138948
-0.2382282586
0.005444207847
0.2384230312
-0.005638980524
-0.2379249945
0.006203818654
0.2381055976
-0.006384421716
-0.2372020004
0.006897705016
0.237362278
-0.007057982653
-0.2360285002
0.007500813978
0.236161627
-0.007633940816
-0.2309023335
0.007853836965
0.2307547071
-0.007706210609
-0.002753784214
0.9588810978
-0.005517414512
0.9590227956
-0.008286611611
0.9591286529
-0.005620887676
0.9592742786
-0.005441811404
-0.4783238142
0.4790372044
-0.006334277939
-0.4782361348
0.007049200605
0.4789398196
-0.00775288536
-0.4781658689
0.008450570134
0.4788541812
-0.004607526258
-0.004531356188
-0.2389619898
0.004961493616
0.2391281839
-0.005127687678
-0.2385980956
0.005602093743
0.2387472884
-0.005751286563
-0.2377921932
0.006168373751
0.2379204403
-0.006296620805
-0.2365132254
0.006647102412
0.236616312
-0.006750189032
-0.2303715955
0.006876294095
0.2302611109
-0.006765809482
-0.002560684557
0.9614417823
-0.005123004743
0.9615851158
-0.007674915499
0.9616805636
-0.005192485645
0.9618086781
-0.005016829325
-0.4797015816
0.4803483505
-0.005839254581
-0.4796024087
0.006481802094
0.480229391
-0.007108784399
-0.4794970595
0.007724711748
0.4800976259
-0.004195195432
-0.004130082771
-0.2395885465
0.004505448063
0.2397307772
-0.004647678746
-0.2391556329
0.005048177546
0.2392798085
-0.005172353128
-0.2382670986
0.005515009801
0.2383713505
-0.005619261723
-0.2368898186
0.005901877137
0.2369703598
-0.005982418328
-0.2299724864
0.006051103328
0.2298890319
-0.005967648833
-0.002369881431
0.9638116638
-0.004734882715
0.9639501171
-0.007077575107
0.964023256
-0.004775886494
0.9641157188
-0.004608729361
-0.4809479741
0.4815330456
-0.005360958053
-0.4808195188
0.005937798616
0.4813780647
-0.006496344575
-0.4806588266
0.007040606383
0.4811836918
-0.003811951569
-0.003753520057
-0.2401254098
0.004083722212
0.2402476465
-0.004205958983
-0.2396210487
0.004546176005
0.2397252908
-0.004650418032
-0.2386554579
0.004935373214
0.2387416474
-0.005021562716
-0.2371849508
0.005253171516
0.2372484419
-0.005316662594
-0.2296717198
0.00534929284
0.229609309
-0.005286881989
-0.002186742563
0.9659984063
-0.004363593175
0.9661269677
-0.006509669245
0.9661693321
-0.004381066455
0.9662133453
-0.004226229261
-0.4820736394
0.482602566
-0.004909993065
-0.4819040185
0.005428073088
0.4824022556
-0.005926310189
-0.4816756328
0.006408453519
0.4821369503
-0.003461558687
-0.003408212322
-0.2405873362
0.003698314224
0.2406928401
-0.003803818075
-0.2400129334
0.004094701142
0.2401012292
-0.004182996906
-0.2389783509
0.004422970592
0.2390507384
-0.004495358045
-0.2374182963
0.004687706115
0.2374687818
-0.004738191676
-0.2294486152
0.004747928667
0.2294031257
-0.004702439194
-0.002014628157
0.9680130345
-0.004015627105
0.9681279666
-0.005980127792
0.9681338327
-0.004014523075
0.9681209126
-0.003873172
-0.4830902203
0.483568732
-0.004493034776
-0.4828719245
0.004959086792
0.4833174084
-0.005404570668
-0.4825700916
0.005832816442
0.4829770996
-0.003143131165
-0.003096693214
-0.2409869413
0.003350471692
0.2410785712
-0.003442101566
-0.2403460978
0.003692722608
0.2404216395
-0.003768264276
-0.2392509801
0.00397298354
0.2393126251
-0.004034628525
-0.2376044157
0.004196241039
0.2376448811
-0.004236706372
-0.2292879744
0.004232033612
0.2292560155
-0.004200074665
-0.001856454567
0.9698694891
-0.003696580324
0.9699680924
-0.005496589246
0.9699338417
-0.003680242255
0.9698587732
-0.00355420764
-0.4840092881
0.4844431283
-0.004114082448
-0.4837379579
0.004534516267
0.4841376854
-0.004934243812
-0.483360117
0.00531621733
0.4837209973
-0.00285907573
-0.00281802186
-0.2413349192
0.003041672941
0.2414150882
-0.003121842003
-0.2406323228
0.003339723956
0.2406976894
-0.003405090611
-0.2394842679
0.003582038509
0.2395374376
-0.003635208228
-0.237753996
0.003772494094
0.2377866629
-0.003805161006
-0.2291767686
0.003791554541
0.2291553637
-0.003770149712
-0.001713689858
0.9715831789
-0.003409163129
0.9716635657
-0.005062456741
0.9715871353
-0.003380376128
0.9714471099
-0.003270417316
-0.4848423638
0.4852371055
-0.00377511787
-0.4845158418
0.004155947273
0.4848761896
-0.00451629514
-0.4840615639
0.004858789975
0.4843833881
-0.002608792851
-0.002571821331
-0.2416402356
0.002770627192
0.2417109641
-0.002841355713
-0.2408810437
0.003032664826
0.2409382858
-0.003089906977
-0.2396863506
0.003244810713
0.2397327639
-0.003291223982
-0.2378750674
0.003409106736
0.2379016463
-0.00343568563
-0.2291041755
0.003416544315
0.2290910438
-0.003403412664
-0.00158724815
0.9731704271
-0.003154993673
0.9732313112
-0.004679604938
0.9731117465
-0.003115824603
0.9729056296
-0.003022300071
-0.4856004281
0.4859614022
-0.003476798784
-0.4852180344
0.00382363424
0.485544842
-0.004150441832
-0.484687835
0.004459632629
0.4849765959
-0.00239054605
-0.002357847525
-0.2419104226
0.002534572498
0.2419733628
-0.002597512723
-0.2410997646
0.002767228025
0.2411504944
-0.002817957789
-0.2398634686
0.002955227113
0.2399044547
-0.002996213197
-0.2379738582
0.003098539465
0.2379956726
-0.003120353807
-0.2290619212
0.003097803448
0.2290553089
-0.003091191114
-0.001477616423
0.9746480435
-0.002934880709
0.9746885755
-0.004348761387
0.9745256272
-0.00288708944
0.9742536583
-0.002809700612
-0.4862939077
0.4866261023
-0.003219284116
-0.4858559587
0.003537362659
0.4861545944
-0.003835998297
-0.4852511683
0.004117502417
0.4855128771
-0.002204616543
-0.002174594685
-0.242151682
0.002332590775
0.2422082176
-0.002389126305
-0.2412944909
0.00254138827
0.2413400214
-0.002586918729
-0.2400205733
0.002710120524
0.2400572155
-0.002746762696
-0.2380552333
0.002836667516
0.2380733239
-0.002854758098
-0.2290435487
0.002830129557
0.2290420662
-0.002828647028
-0.001384690801
0.9760327343
-0.002748402757
0.9760522874
-0.004068850265
0.9758460747
-0.002692120775
0.9755087532
-0.002631824357
-0.4869324263
0.4872407723
-0.003000466741
-0.4864400514
0.003294611057
0.4867153026
-0.003569862308
-0.4857629854
0.003828548113
0.4860027886
-0.002048275971
-0.002020075359
-0.2423693103
0.002162334866
0.2424206329
-0.002213657457
-0.2414701219
0.002351936773
0.2415115295
-0.002393344377
-0.2401617033
0.002505388112
0.240194887
-0.002538571841
-0.2381230072
0.002618596446
0.2381381883
-0.002633777529
-0.2290440099
0.002607964928
0.2290466002
-0.00261055531
-0.001308446848
0.9773411811
-0.002595595389
0.977339436
-0.003839476543
0.9770899558
-0.002531861977
0.9766896706
-0.002488532001
-0.4875253625
0.4878140655
-0.002820564948
-0.4869797032
0.003095147292
0.487235962
-0.003351406038
-0.4862339383
0.003591493316
0.4864569587
-0.001919806619
-0.001894707173
-0.2425678299
0.002022944787
0.2426150513
-0.002070166218
-0.2416307206
0.002197567708
0.2416689419
-0.002235789067
-0.2402901867
0.002339182262
0.2403206696
-0.002369665177
-0.2381801611
0.002441932201
0.2381930727
-0.002454843842
-0.2290595093
0.002428374138
0.2290653716
-0.002434236419
-0.0012493244
0.9785905055
-0.002476556141
0.9785666677
-0.003660751367
0.9782741511
-0.002400086349
0.9778053639
-0.002376358367
-0.4880800937
0.488356896
-0.002676888706
-0.4874834878
0.002936990499
0.4877248953
-0.003178397941
-0.4866721125
0.003403674592
0.4868806401
-0.001815597997
-0.001796604227
-0.2427516662
0.001912590546
0.2427958492
-0.001956773554
-0.2417798154
0.002076057984
0.241815658
-0.002111900569
-0.2404088526
0.002208790402
0.2404372791
-0.002237216868
-0.2382290026
0.002303482243
0.238240132
-0.002314611696
-0.2290870355
0.002287720843
0.2290954855
-0.002296170781
-0.001205076662
0.9797955822
-0.002388678282
0.9797502693
-0.003529667963
0.9794151407
-0.002311256522
0.9788862607
-0.002299308205
-0.4886110213
0.4888734688
-0.002573704027
-0.4879593131
0.002820462735
0.4881890225
-0.003050172106
-0.4870834663
0.003264450116
0.487281398
-0.001737609006
-0.001724772765
-0.2429244827
0.001829508503
0.2429663801
-0.001871405982
-0.2419203993
0.001984740171
0.2419545248
-0.002018865663
-0.240520124
0.002111057666
0.2405470471
-0.002137980798
-0.2382713282
0.002199756457
0.2382810838
-0.002209512057
-0.2291240485
0.002182373751
0.2291345521
-0.002192877365
-0.00118290134
0.9809784835
-0.002338904467
0.9809062724
-0.003454551757
0.980530788
-0.002260187223
0.9799379909
-0.00224609475
-0.4891174235
0.4893604266
-0.002503190311
-0.4884139612
0.002742761319
0.4886361668
-0.002964966901
-0.487475547
0.003171746334
0.4876660478
-0.001684012483
-0.001678234711
-0.243089268
0.001772606854
0.2431295921
-0.001812930933
-0.2420550187
0.001922222116
0.2420879972
-0.001955200632
-0.240626172
0.002044282185
0.2406520995
-0.002070209631
-0.238308791
0.002128966653
0.2383176033
-0.00213777895
-0.2291687212
0.002110789282
0.2291809473
-0.002123015422
-0.001159447183
-0.002304552368
-0.003406987992
-0.002236106165
-0.002191474425
-0.4896077113
0.4898488976
-0.002477292499
-0.4888539362
0.002706190346
0.4890706087
-0.002922862829
-0.4878554345
0.003124838496
0.4880401544
-0.001658297182
-0.001651261181
-0.2432486825
0.001741904886
0.2432880861
-0.001781308466
-0.2421858106
0.001888188374
0.2422181085
-0.001920486303
-0.2407289703
0.002007772209
0.2407543651
-0.002033167
-0.2383432662
0.002090529912
0.2383517229
-0.002098986567
-0.2292200231
0.002072838534
0.2292338589
-0.002086674283
0.003181606655
-0.003248567618
-0.05274373773
0.00377619788
-0.003884681524
-0.05455723326
0.008706741822
-0.2162109266
-0.004742625177
-0.004862424234
0.1060306034
-0.003159028278
-0.1057459709
0.006056002408
0.02581599143
-0.2202334293
-0.02157716766
-0.005507244867
0.1095124907
-0.003748119194
-0.1091248151
0.007136641438
-0.003249914331
0.006219361474
0.1062888226
0.05336207972
0.003451048478
-0.003526585631
-0.05328654257
0.0261852884
-0.0003510243664
-0.02674671027
0.0009124462441
-0.02784588666
-0.0008637624625
0.001261625924
0.0274480232
0.007584906567
-0.007837876991
-0.1125864001
-0.001399713195
-0.02808542666
0.001639253193
0.02725806085
-0.000888719969
-0.02776905407
-0.003372083295
0.04557263119
0.004472737766
-0.02491881589
-0.02175446979
-0.0002767831303
0.0007262800966
0.02573579143
0.003482945978
0.05343708373
-0.003557949991
-0.02230094817
0.02212326085
-9.909581461e-05
0.0282628338
-0.005838846085
-0.01294292826
-0.01285314275
0.02676660871
-0.0003723103244
-0.02269542859
4.345605818e-05
0.005687291099
0.0260919981
-0.02422582969
-0.001252906513
0.001687703244
0.02379103296
-0.05211675935
0.003634623405
0.05219790259
-0.003715766629
0.05239599106
0.003728099053
-0.05235451032
-0.001907266839
-0.001862312958
-0.05207868208
0.003438289463
0.05208957288
-0.003449180254
0.003577551149
-0.003601079151
-0.05209323134
-0.0008147352039
-0.02469728942
0.001286194931
-0.02511446569
-0.001172776951
0.001446532846
0.0248407098
-0.05183291716
0.003256109525
0.05187549702
-0.003298689386
0.003412504387
-0.003465047004
-0.05202613947
0.003201738769
-0.003230611218
-0.05180404471
-0.0009873828241
-0.02543824271
0.001311159838
0.02479263624
-0.0005503507603
-0.0252296683
0.02435375288
-0.000733893595
0.003753545977
0.05241165301
-0.001897553369
-0.001871654558
0.05267336117
0.01425956186
-0.05254146378
-0.005444971737
-0.008946487509
-0.01219977379
0.02498875813
-0.02433925863
0.01155027428
0.01188830122
-0.01540359864
-0.008684476352
0.02424003096
-0.02420769457
0.005230263949
-0.02481465769
-0.006021373724
0.006035655861
0.02480037556
0.02373327871
-0.0002808032563
-0.02426721066
0.02974888142
-0.02366299568
-0.0003985946405
-0.006159401165
-0.02488852788
0.00623327135
-0.007144118976
0.0141951905
0.02269780989
0.02300208196
-0.0005217097601
0.02585588681
0.02536079047
-0.02551474314
0.007422026076
-0.01101441526
-0.2255926629
0.2256353343
0.01364318198
-0.007649721737
-0.1120109599
-0.112032928
0.007255369095
0.1099267884
0.1112464
0.007818481001
-0.008336694257
-0.1107281868
-0.008280206032
0.0931607887
-0.09333951217
0.008458929504
-0.003323558418
0.004541750706
0.0443544389
-0.004792325005
-0.02631158964
0.003732187922
0.02737172673
-0.02634118615
0.002086632544
0.02664731605
-0.002392762434
0.02658760334
0.001800434827
-0.001645707057
-0.02674233111
0.03053313146
-0.00559385607
0.08895629583
-0.01156123856
-0.08567526329
0.02649800463
0.0009282564665
-0.0005319992245
-0.02689426187
-0.02482741086
0.004299513545
0.02671487999
-0.006186982678
-0.03120494711
0.0234112741
0.03278243121
0.02431922205
0.05393711686
-0.01907518372
-0.006507794006
0.004223345686
0.05416273875
-0.004335108057
-0.05405097638
0.001758864774
0.0263869077
-0.001558169128
0.0257923996
0.001884918472
-0.001725490422
-0.02595182765
-0.0005051963334
0.02428522176
-0.02477212783
0.0009921024097
0.02517364175
0.02134289194
-0.02162932795
-0.000218760322
0.02320283993
-0.004500649165
-0.01779739297
-0.0009047977956
-0.009113559333
0.05091745786
-0.05059398753
0.008790089008
0.00274583632
0.02424467896
-0.01931664587
0.02546305618
0.0005345899315
-0.0001382049411
-0.02585944117
-0.03069535564
0.02586675147
3.627916643e-05
-0.02555604746
0.001866677389
0.02557041809
-0.001881048021
0.002055219552
-0.002450501256
-0.02594590445
-0.006029099651
-0.02453954498
0.004257054992
-0.0005633492458
-0.02605572545
0.001015246268
0.02560382843
-0.02591647508
0.001721637015
0.02579673912
-0.001601901047
0.00180141813
-0.001734161389
-0.02562330419
0.0008955884402
0.02608518579
-0.0004827695991
0.003675537006
-0.004654782484
-0.02384816537
-0.00127007542
0.001711365418
0.02384393176
0.002217181058
0.0257263509
-0.002151132354
0.02657122395
0.009447298863
-0.009919756573
-0.02609876623
-0.002357489477
0.02847169617
-0.02262924388
-0.003484962811
-0.005132092615
0.009932256344
0.0184026762
0.02047144819
-0.0003986316692
-0.01899355289
0.02483433018
-0.005133677338
-0.0007070999534
0.02123400929
-0.005175165136
-0.02055949332
0.02447718605
-0.005432589181
-0.02463635189
0.005591755026
0.02507756711
-0.0001778601782
0.0151248141
-0.0008155583419
-0.02454589699
-0.006664413905
0.006491745698
0.0247185652
-0.004776107105
-0.01352814736
-0.0006892984238
-0.006912469909
-0.02451030396
0.006876876873
-0.01471845843
-0.02200599685
-0.02626861845
0.001763084711
0.02616727063
-0.001661736888
0.001660477942
-0.001585715319
-0.02599123771
-0.02651407287
0.0009929373475
-0.02580399612
0.003090660804
0.02701284886
-0.02587429011
0.001841147128
0.02601770591
-0.001984562927
0.00168197796
-0.001731729032
-0.02621886738
-0.02395141188
0.02310585749
-4.316557605e-05
0.0023676706
-0.02630324831
-1.583416726e-05
-0.0278347802
0.00243339673
0.02189021949
0.0001795739056
5.346745297e-05
-0.0001393243361
0.02629754104
0.0006083920053
-0.02279544743
0.02254755622
0.000108566875
-6.190027172e-05
-0.02358179447
0.0008785982829
7.767601346e-06
-0.02564191639
0.001637744791
0.02563459059
-0.001630418991
0.001785063959
-0.001931875481
-0.02572747858
-0.02493918254
0.002810723427
-0.02644960807
0.001229124576
0.02611607194
-0.02579196142
0.001582637787
0.02574698299
-0.001537659359
0.001614054291
-0.001586110288
-0.02566986039
-0.0248386869
0.02442757011
-0.0001392339714
0.0004818288636
-0.0001015098652
-0.02521900589
0.0009125325708
-0.02566037201
-0.001209973377
0.02395555152
0.001608174743
-0.02392372153
0.02322850001
-0.0005147518543
-0.0002300450189
0.006890520556
-0.007375658451
-0.02385412073
0.02531698104
-0.02484707995
0.006420619471
0.02623676335
0.01063049198
0.0002182831374
0.005625626339
-0.005843909482
-0.01839856474
-0.004380692348
0.005451661902
0.02439336628
0.02146997594
-0.005368059262
0.02271544521
-0.00259269326
-0.02248024143
-0.02168337956
0.02139718713
5.389171641e-06
0.000242373671
-0.02186041101
-6.534221974e-05
-0.02468568706
0.000660850079
-0.01978478332
-0.0004165808923
0.01515299932
-0.0009578088184
-0.005593202119
0.02131040223
-0.0005642007874
0.02393116789
-0.006826560116
-0.001505842605
0.02215356049
0.002354364073
-0.0208262005
0.01933369996
-1.334206128e-05
4.927687453e-05
0.02592481222
-0.02606980174
0.02267461454
0.0002240607635
-3.958039189e-05
0.02254406178
0.0001863254869
-5.577271956e-05
0.0150640696
-0.01504671556
-1.735403162e-05
-0.004841187177
0.00372128697
-0.03113443701
-9.998482425e-06
-0.02225735008
0.02001301425
0.02725087084
-0.02069266111
0.02676210446
0.001882572759
-0.001779444376
-0.02686523284
-0.0004357241859
0.02215262431
-0.02296061065
0.00124371054
0.0007113242985
-0.0002212628215
-0.02526218931
0.0254952734
-0.02598186047
0.001197911367
0.02505648469
0.001430891125
3.962872544e-05
-0.01269002431
-0.004109380246
-0.0009979884062
-0.01132316437
-0.001366859938
0.01211934703
-0.00206634421
-0.010488727
0.01969450706
-0.004954747112
-0.01957103846
0.004831278506
0.003219675497
0.004310270896
0.02094174977
-0.02234255759
0.02218589112
1.846152867e-05
8.839076303e-05
0.0001166078757
0.0005264906381
0.002426565722
-0.0001416087249
0.02207554064
-0.02222871655
5.166605043e-05
0.02190320426
3.31024054e-05
0.02238843888
0.0001210926196
3.453027859e-05
9.041245069e-05
6.930987669e-05
-0.02239083906
-0.004521293508
0.002349948446
-0.001512287488
0.002457334589
0.01958224099
-0.02110601368
1.148520515e-05
1.423191974e-05
0.02164587769
2.728155471e-05
2.511215924e-05
0.02477142893
0.001996421183
-0.003528267265
0.00345261624
-0.003538456226
0.001080837661
-0.01920581857
-0.004504262972
0.01968779731
-0.01591262523
-0.002694334421
0.01642111763
0.01166077794
-0.001728521596
-0.002692107981
-0.001559739313
-0.003495250355
-0.001465572773
-0.005726391371
0.01923755718
-0.02219097113
-0.00595354198
0.02241812174
-0.02157254036
-0.005752108108
-0.0002069091637
0.0005987892096
-0.02202822897
-3.9091198e-05
-2.019803309e-05
-0.0004927120354
-0.02015907199
0.02640120276
-0.005570626391
-0.0006715043781
-0.01431521678
-0.005180284403
-0.000663570805
-0.02031145129
-0.006037196175
0.01243916571
-0.006349414247
-0.001088981647
-0.01336248994
-0.0009527268411
0.006046602053
-0.006625738117
0.02787743172
-0.0005204274397
0.02139181865
-0.01493387349
0.000215415057
0.004434757551
-3.493107671e-05
0.004582321199
0.006017012366
-0.005717239656
-0.2544015388
-0.00693716891
0.2653171498
-0.2627804622
0.004563156626
-0.007043342412
-0.2623227419
-0.007502673526
0.2515890613
-0.2512765206
0.007314510395
-0.007742095312
-0.2448376688
0.2211157807
-0.2207274733
0.008331346652
0.02257055593
-0.02285822952
-0.256533465
-0.02319243698
0.2639913374
-0.2637817385
0.02313774513
0.01155876546
0.2629190666
-0.02321455676
-0.2630364595
-0.02345948441
0.2518788495
-0.2516131578
0.02330900953
0.00759558165
0.2513275459
-0.02373266428
-0.2452324924
0.2234322491
-0.2224334749
0.02482240906
0.008646224495
0.2215381238
0.2190220874
0.009323901109
-0.005129363004
-0.005170055143
0.1087130113
-0.005716984521
-0.1084415516
0.005445524786
-0.1076704628
-0.005440889638
0.005189941341
0.1079214111
0.05307421415
0.003326091028
-0.003403029967
-0.05299727521
0.05243742182
-0.05238737558
0.003527504916
-0.05226743316
0.003396372547
0.05230935007
0.002191390276
-0.0009226676439
-0.2552369753
0.002187449842
0.2625415779
-0.2632305865
-0.001348819339
0.003704000897
0.2639350902
0.002724181768
-0.2630683226
0.001816767971
0.2553577759
-0.2544527189
-0.002598348445
0.003893519526
0.2526177368
0.0004777895517
-0.2493561409
0.2343840475
-0.2310360747
0.004106609088
0.008436656838
0.2251369731
-0.0113318121
0.2236710931
0.01023429374
0.2231294878
-0.006288107337
-0.1110122952
-0.1108878486
-0.006273048744
-0.1102403555
-0.00618049227
0.005868696278
0.1105521515
0.1102250295
0.007770604397
-0.004121060772
-0.004136763028
0.05500103886
-0.004512843273
-0.05479129404
0.00430309843
-0.054354327
-0.004299466545
0.004171510785
0.05448228277
0.001768949681
0.0004723836606
-0.2489844878
0.006700227169
0.2571193133
-0.2588943692
-0.004801207967
-0.002653538815
0.261603427
0.008293452733
-0.2600320034
0.01047340406
0.2567975524
-0.2569062463
-0.01023879835
-0.004747730989
0.2561201964
0.01016840132
-0.2540516078
0.00611034841
0.2447522302
-0.2428477066
-0.007943125927
0.001480120221
0.237575665
0.003933147547
-0.2391151187
-0.002791984752
0.2334665967
-0.2314451402
0.0007888080684
0.01321473551
0.2268926959
-0.004100556555
-0.2260346325
0.005994555415
-0.003336346779
-0.2393780712
0.004984114259
0.2476328253
-0.2502966956
-0.002243675751
-0.004794057666
0.2550784783
0.007572563973
-0.2524886413
0.01368705127
0.2525707206
-0.2541704698
-0.01198400767
-0.0114425298
0.2563068443
0.0150055214
-0.2532264103
0.01666815527
0.2471825718
-0.2472995612
-0.01647140247
-0.0108846127
0.2461205707
0.01657659021
-0.2447456139
0.01539210697
0.2374861007
-0.2369829213
-0.01586108624
-0.004453551595
0.2350293223
0.01448584715
-0.2309048035
0.006950524849
-0.007270309967
-0.2348681117
-0.003726166645
0.2364438622
-0.2391961494
0.006493767667
-0.0005602375586
0.2448549986
-0.0009267640283
-0.2417676956
0.006939321409
0.2438172082
-0.246229828
-0.004470977256
-0.01098117004
0.2506744912
0.009184637422
-0.2465806079
0.01428383904
0.2433020535
-0.2446561526
-0.0128736729
-0.01683219629
0.2466621479
0.01540298246
-0.2432357895
0.01717893377
0.2372394405
-0.2375614148
-0.01682910884
-0.01772300749
0.2377236359
0.01699604939
-0.233551233
0.006533297511
-0.006810268088
-0.236083398
-0.007650926622
0.2362044744
-0.2359232058
0.007369657985
0.007793097245
0.2353206847
-0.00793272123
-0.2358285656
-0.007428056864
0.2356957128
-0.2366709331
0.00840655731
-0.001319403217
0.2413737752
-0.005450464069
-0.2377012123
-0.0001592475728
0.2370712889
-0.2386290187
0.001734451801
-0.01000234819
0.2418035569
0.001187173298
-0.2382921286
0.003709437778
0.2351623309
-0.2357379579
-0.003122369125
-0.01450290343
0.2368063244
0.004036446231
-0.2334698563
0.006058604819
-0.006295642514
-0.2371309113
-0.007000501428
0.2372070354
-0.2369737695
0.006767235541
0.007221513941
0.2364730032
-0.007231437064
-0.2368764382
-0.0079048867
0.2366624929
-0.2364418602
0.007684254034
0.008291508987
0.2359594617
-0.008120674882
-0.2362421863
-0.008729668165
0.2356915574
-0.2354960346
0.008534145364
0.006176207869
0.2356026306
-0.008915959324
-0.2352120111
-0.009342457904
0.2341212555
-0.2340297625
0.00925096485
0.001567405566
0.234600828
-0.009128253341
-0.2318331402
0.005566217039
-0.005768372964
-0.2380261026
-0.006358609312
0.2380381612
-0.2378447223
0.00616517041
0.006617154537
0.2374296486
-0.00654817379
-0.2377354301
-0.007089446108
0.2374282047
-0.2372527898
0.006914031193
0.007488712745
0.2368706809
-0.007259237291
-0.2370322092
-0.007730012496
0.2363549431
-0.2362049578
0.007580027232
0.008287411422
0.2358741827
-0.007872114636
-0.235886398
-0.008123854601
0.2342768034
-0.234261274
0.008108325187
0.008953622389
0.2341874848
-0.007964684497
-0.2310615036
0.005081528599
-0.005253945038
-0.2387895733
-0.005749440499
0.2387287611
-0.2385677471
0.005588426462
0.006019097237
0.2382228826
-0.005905860506
-0.2384416756
-0.006344816606
0.2380409737
-0.2378999568
0.006203799718
0.006731755577
0.2375941542
-0.006480249948
-0.2376567599
-0.006851234677
0.2368704262
-0.2367529057
0.006733714211
0.007359949658
0.2364958074
-0.006961053322
-0.2364034068
-0.007106417043
0.2342534673
-0.2342687644
0.007121714134
0.007848719243
0.2342819211
-0.006987797369
-0.2304902152
0.004618098187
-0.004765454101
-0.2394411906
-0.005183189528
0.2393053321
-0.239170585
0.005048442429
0.005448215268
0.2388826396
-0.005313128027
-0.2390256944
-0.005672740015
0.2385371177
-0.2384223603
0.005557982667
0.006034632936
0.2381747145
-0.005782389037
-0.2381574496
-0.0060802178
0.2372788021
-0.2371850678
0.005986483468
0.006536234339
0.2369812942
-0.006165836753
-0.2368041996
-0.006246464223
0.2341568804
-0.2341849372
0.006274521044
0.006895901435
0.23423386
-0.006156899193
-0.2300620514
0.004185468067
-0.004311873515
-0.2399990043
-0.004666021609
0.2397898363
-0.2396763228
0.004552508073
0.004919192081
0.2394343175
-0.004774815605
-0.2395122547
-0.005072811819
0.2389442696
-0.2388495954
0.004978137559
0.005405808095
0.2386463194
-0.005163043597
-0.2385652261
-0.005406097594
0.2376073312
-0.2375315581
0.005330324469
0.005813115382
0.2373675639
-0.00547341008
-0.2371176383
-0.005513566452
0.2340309835
-0.2340638332
0.005546416191
0.006080889108
0.2341270946
-0.005446342154
-0.2297389441
0.003790600622
-0.003899541463
-0.2404783954
-0.004201797542
0.240199966
-0.240103588
0.004105419553