/*--------------------------------*- C++ -*----------------------------------*\
| =========                 |                                                 |
| \\      /  F ield         | OpenFOAM: The Open Source CFD Toolbox           |
|  \\    /   O peration     | Version:  v2012                                 |
|   \\  /    A nd           | Website:  www.openfoam.com                      |
|    \\/     M anipulation  |                                                 |
\*---------------------------------------------------------------------------*/
FoamFile
{
    version     2.0;
    format      ascii;
    class       volVectorField;
    location    "1.85";
    object      U;
}
// * * * * * * * * * * * * * * * * * * * * * * * * * * * * * * * * * * * * * //

dimensions      [0 1 -1 0 0 0 0];


internalField   nonuniform List<vector> 
3259
(
(99.99851268 0.4299227043 0)
(100.0025129 0.425115569 1.181302608e-21)
(100.0047692 0.3836110412 -1.713041757e-21)
(100.0057827 0.3197113405 9.72812744e-22)
(100.0056014 0.2499642732 0)
(100.0050397 0.186034492 1.561452537e-21)
(100.0046728 0.1315260796 6.406581729e-21)
(100.0025015 0.09200320002 -1.788653407e-21)
(100.0099125 0.1043814286 -1.551204937e-20)
(100.0067208 0.06407180253 0)
(100.0049039 0.03400108998 -1.943757865e-21)
(100.004707 0.01066627006 -1.368222477e-20)
(99.91478891 1.945152298 9.171983892e-23)
(100.0140636 1.943949172 3.23511507e-22)
(100.0983083 1.768406807 -5.653513147e-22)
(100.1433404 1.479015534 5.000019003e-21)
(100.1493878 1.155673206 -9.65175696e-21)
(100.1294198 0.8621018657 0)
(100.1351996 0.6442983814 -2.712211488e-20)
(100.0957653 0.4370707136 5.218583582e-20)
(100.0933576 0.2979771577 1.501912958e-20)
(100.0644342 0.1822382946 3.089833254e-20)
(100.0479493 0.09712332542 -3.098986475e-20)
(100.0416977 0.03054446588 1.562661965e-20)
(99.80253777 3.817930315 0)
(100.1837237 3.822354021 0)
(100.4735327 3.433001348 0)
(100.606346 2.82379879 3.881616251e-21)
(100.603938 2.171461459 -1.036103267e-20)
(100.5174668 1.579933432 -2.421962673e-20)
(100.4475188 1.099651941 -1.628375503e-19)
(100.3254439 0.7352735057 -3.605640907e-20)
(100.2573931 0.4508437617 -1.538495395e-20)
(100.1812319 0.2732645116 3.495732196e-20)
(100.1354404 0.145864589 -3.925635129e-21)
(100.1154189 0.04562245177 0)
(99.54902846 6.067087837 7.386208894e-20)
(100.519886 6.047019612 5.116487171e-20)
(101.1980685 5.271680169 1.97524046e-19)
(101.432418 4.172312179 0)
(101.3611072 3.091570737 -9.404949073e-20)
(101.1521669 2.192073279 0)
(100.9281354 1.449168065 5.910253932e-20)
(100.6719227 0.9459058567 -4.559112411e-20)
(100.486536 0.5371878272 -3.937324658e-20)
(100.3448565 0.3219749456 1.992033712e-20)
(100.2564747 0.1695635172 -3.996127933e-21)
(100.2161346 0.05253823479 0)
(99.07069034 9.114350702 -5.53577308e-20)
(101.2738364 8.961184407 6.096185525e-21)
(102.5792237 7.362026087 -9.107376041e-21)
(102.8320142 5.439405415 -8.072182915e-19)
(102.5098444 3.82075494 1.142839826e-19)
(102.0190723 2.590616402 -4.88018547e-22)
(101.550108 1.628886933 -9.750438142e-20)
(101.1061012 1.032602148 8.104793722e-21)
(100.7524298 0.5339166422 0)
(100.5285143 0.314459413 4.071912692e-21)
(100.3882535 0.1608072328 -3.058177932e-21)
(100.3231916 0.0490380922 -1.013948581e-21)
(97.93952427 13.98844392 2.391795692e-19)
(103.1305465 13.16831121 -3.163969449e-20)
(105.2117409 9.549154364 2.353857474e-19)
(105.0219579 6.390536131 -2.101452792e-19)
(104.0785596 4.171201466 -2.840688503e-19)
(103.0902754 2.678285764 -3.397192382e-20)
(102.2548621 1.568441592 2.507388986e-20)
(101.5780233 0.954220312 -1.676113723e-20)
(101.0203368 0.426947721 0)
(100.7018392 0.2411155478 0)
(100.5053273 0.1148369918 -1.027672259e-21)
(100.4136033 0.03382721033 -3.08188262e-21)
(93.76791976 23.28804319 -1.104638649e-19)
(108.8115506 19.23396324 2.055532783e-20)
(109.9028658 11.05714948 1.940879376e-19)
(108.0434903 6.440756945 1.757758381e-19)
(105.9665384 3.839672137 2.12263955e-20)
(104.2551378 2.304153195 -3.810306969e-20)
(102.933768 1.20825929 0)
(102.0229741 0.6767803651 9.134828741e-21)
(101.2432337 0.2154232225 2.699162205e-21)
(100.8307527 0.09671671248 -3.192460295e-21)
(100.5816058 0.03120916173 -3.630403974e-21)
(100.464028 0.00693682277 8.745477487e-21)
(123.4815118 22.39984686 8.085456849e-19)
(116.5061269 9.34451523 -1.197319073e-18)
(111.3706025 4.788433407 2.414893899e-19)
(107.7883738 2.585239129 -1.999834193e-19)
(105.3017067 1.3885041 0)
(103.4650241 0.5390688934 -4.856224301e-21)
(102.3513964 0.2128904118 2.062168951e-20)
(101.3694124 -0.09482162351 -3.288984575e-21)
(100.8815562 -0.1086984077 2.690544553e-21)
(100.5913259 -0.08480860133 -5.081478298e-22)
(100.4520998 -0.03043224857 -8.212003753e-21)
(136.3505014 7.241002637 -2.413127634e-18)
(121.1890384 2.950139816 -1.453741677e-18)
(113.6374194 1.27068521 -5.592084089e-19)
(108.9753322 0.4436582156 1.074934368e-18)
(105.9413149 0.01501797893 0)
(103.7240287 -0.3601699042 -4.95799815e-21)
(102.4780378 -0.3972230339 1.158715667e-20)
(101.3601209 -0.4728276837 1.129420805e-21)
(100.8273909 -0.3563291423 0)
(100.5129013 -0.2231784835 4.141512268e-21)
(100.359794 -0.075182965 4.092699024e-21)
(133.9255467 -8.788499022 -2.212898495e-18)
(121.0436723 -4.697392578 0)
(113.7723523 -2.980419224 0)
(109.0698488 -2.089088132 0)
(105.963951 -1.577933042 -4.051591803e-19)
(103.6243137 -1.362265442 4.192899368e-20)
(102.3577946 -1.073651664 0)
(101.1922919 -0.8764812676 -1.103614504e-21)
(100.6525581 -0.6203772405 -4.572388902e-21)
(100.3337605 -0.3704808959 5.106509927e-22)
(100.1764029 -0.12295761 0)
(125.3270207 -17.70687534 8.030901652e-19)
(117.3485426 -10.36979007 4.155715811e-20)
(111.965369 -6.563751771 -4.73219798e-19)
(108.0820425 -4.381276507 -1.945363809e-19)
(105.3485244 -3.084918783 -4.493817033e-20)
(103.1582179 -2.311819863 0)
(101.990306 -1.726095191 -2.738574317e-20)
(100.8634755 -1.261539836 -1.379089126e-20)
(100.3558558 -0.8729318558 1.044385129e-21)
(100.0523032 -0.5122196053 -3.297607202e-21)
(99.90024328 -0.1691226069 4.832453742e-22)
(116.1127145 -20.97962424 0)
(112.2903382 -13.24590027 0)
(109.0810642 -8.788198278 6.059427896e-19)
(106.3607347 -6.009472562 -1.130814935e-19)
(104.2437006 -4.256904867 0)
(102.3948495 -3.083136576 2.183161927e-21)
(101.4132666 -2.276928785 -3.329328601e-20)
(100.3977057 -1.596812024 8.17065305e-21)
(99.95080148 -1.088567293 0)
(99.67743142 -0.6358204259 3.798272344e-21)
(99.53857034 -0.2096058352 0)
(138.5736084 10.38686261 1.210907502e-18)
(124.5774944 25.22414823 5.056492232e-20)
(136.808987 -7.944002552 -1.206487813e-18)
(139.1668346 7.76401429 1.225680532e-18)
(127.5676966 -18.25083899 1.784111021e-18)
(135.8625359 -9.707446279 1.974319249e-18)
(117.6660811 -22.05042041 0)
(126.3061433 -19.01715033 -8.720787206e-19)
(116.475206 -22.2005647 -1.644626832e-18)
(91.92862249 21.97529387 0)
(121.5122236 25.83805408 0)
(106.8714549 20.94083149 6.588329462e-20)
(146.8923903 29.4995741 -2.716760609e-20)
(127.0876308 43.90315891 -2.220330029e-19)
(135.7370927 9.550660926 -1.21416187e-18)
(122.9676878 5.831270947 -7.823153108e-19)
(118.1251903 11.19374469 0)
(149.8622361 -3.118729598 -1.192944035e-20)
(152.2395496 10.08901226 0)
(134.7291785 -7.151235086 0)
(124.058737 -3.338191434 -8.848820685e-19)
(123.8389672 3.559707805 8.372322744e-19)
(136.9429532 -20.33196078 0)
(143.695045 -14.10009639 0)
(126.4919679 -16.9532039 1.717073011e-18)
(120.3120823 -10.48624481 -6.922830151e-19)
(123.4544375 -5.420770551 8.064964765e-19)
(124.3345308 -26.35133708 -2.285868545e-20)
(129.7303836 -24.4772738 -1.73625516e-18)
(108.4334741 -32.25617055 -4.355278737e-19)
(112.7775407 -27.1673045 0)
(117.7387002 -27.39172621 5.162122829e-19)
(152.2613416 11.11672355 1.144090119e-18)
(147.6309621 28.33247892 3.396690497e-18)
(134.739128 18.10906734 -3.02894507e-19)
(146.0232865 26.6494535 2.446659074e-18)
(151.1756925 11.09504976 -1.151920392e-18)
(144.1111291 -13.55364137 1.034096129e-18)
(149.5928943 -3.879263184 -1.274279177e-20)
(138.4195513 -1.324206783 0)
(148.8435937 -3.546786501 -3.090037661e-18)
(143.6724013 -13.12653057 -1.976479444e-18)
(151.197662 10.08894753 -1.143088295e-18)
(149.1021756 -2.802448175 0)
(138.5834784 -0.2077148636 0)
(130.5210297 -24.1170755 -4.542371878e-19)
(136.4867952 -20.67547831 -8.456302054e-19)
(131.3012482 -15.33876379 -1.291768274e-18)
(135.9975845 -20.08119466 -2.638014952e-19)
(130.284759 -23.31220626 1.741659736e-18)
(143.2709508 -13.67002208 0)
(136.8738549 -19.47001233 0)
(132.5112935 -14.13735084 2.055393064e-18)
(118.4588009 -27.34785741 0)
(123.5826204 -26.53609618 0)
(105.9488174 -32.09109476 0)
(105.4954271 -31.94933815 8.822117568e-20)
(112.0769382 -27.12713693 3.640076695e-19)
(108.4230138 -32.25484921 0)
(151.5757982 53.41410464 1.669650522e-17)
(125.2204113 66.64677739 -8.27334303e-19)
(122.54154 -27.86403193 5.087124928e-18)
(117.2276943 -20.80582638 0)
(114.6234904 -14.27108982 1.604418835e-18)
(118.976983 -11.74520157 7.47574014e-19)
(104.1663912 -30.79186898 -3.375312105e-18)
(114.9995471 -30.4907403 -3.624066241e-19)
(117.5189714 -30.31108569 0)
(126.6283701 40.22217549 -1.858294307e-18)
(144.5859294 28.92312727 -4.327393628e-18)
(132.6921759 20.4090131 1.05451016e-18)
(117.898494 -30.24366796 -4.590462059e-19)
(120.4335608 -29.96079758 -5.155885478e-19)
(121.3222994 -21.19390783 0)
(123.4448076 -25.7625282 -6.874254905e-19)
(118.38995 -26.57839351 0)
(129.5050519 -23.6692167 0)
(124.1855241 -25.57020699 -1.428156019e-18)
(122.5591789 -20.76654733 4.736989652e-20)
(83.83166975 32.2363182 -2.473178294e-19)
(123.2452242 43.97649178 -2.141607123e-18)
(105.4788621 35.65674981 0)
(86.4745011 34.87105104 2.364296634e-19)
(152.9476474 50.14993415 4.139345625e-17)
(140.765595 38.01886877 1.23973706e-18)
(151.5212713 50.01972936 -1.74539772e-17)
(125.3454498 62.14825773 1.034684016e-18)
(149.343138 52.69207151 -2.70574886e-18)
(137.8187776 40.09782201 0)
(151.1614829 2.618436548 2.469706331e-18)
(151.3436573 3.489045925 1.032950315e-20)
(140.1409824 -17.84668623 -1.884608485e-18)
(140.599842 -17.41766553 -1.884246212e-18)
(123.1535468 -29.34917497 -2.521289253e-18)
(123.2800625 -28.03944804 2.822712365e-19)
(126.6157646 -25.68002189 -7.690697186e-19)
(125.8210765 -28.10724774 6.678689865e-19)
(123.8699705 -28.99955904 1.21817974e-18)
(126.3955056 -26.61086974 1.011586906e-17)
(125.8622073 -27.99286885 -2.299560026e-18)
(127.3859049 -25.41447724 -1.80602887e-18)
(112.0286836 -30.17670104 -2.264289112e-20)
(114.2619228 -30.45381938 4.875657337e-19)
(105.3604266 -31.05942171 5.456225707e-18)
(151.2342387 18.67151847 -2.365708302e-18)
(150.9603592 19.85318185 1.720242904e-20)
(146.7799884 -9.321439735 2.325824916e-18)
(147.1286381 -8.673393883 -1.165979486e-18)
(146.5984034 -8.343919027 2.216865745e-18)
(142.4841894 -6.112199776 -1.256214572e-18)
(143.7201589 -2.423074187 -3.78131004e-18)
(140.3037653 -10.44594939 -2.341398853e-18)
(141.991608 -7.263994734 -1.237910906e-18)
(146.2619132 -8.990641783 -1.112743089e-18)
(150.5988653 3.650975781 2.484927447e-20)
(144.7807531 4.565607047 -1.304458713e-18)
(144.6172814 9.219970579 1.332873723e-18)
(144.0382321 -1.103077344 1.273788354e-18)
(144.6841128 3.092231909 1.326811102e-18)
(150.4405281 2.786415684 -5.037577777e-20)
(133.0745181 -22.64633867 -1.034955277e-20)
(126.7139564 -26.35287009 -8.35451334e-18)
(133.48849 -22.37995604 7.530827349e-19)
(123.4995637 -29.08532259 1.171936224e-18)
(120.9779538 -29.52845581 -1.565338072e-18)
(121.3596689 -26.9863229 1.775294639e-20)
(120.7689341 -29.90426269 0)
(122.8579505 -29.45713374 0)
(101.4725411 -30.43373643 -1.742141471e-17)
(111.2829991 -30.04231644 -3.981486079e-19)
(119.6777794 88.86675572 1.025393307e-16)
(114.3959337 -31.66323231 -8.897600731e-19)
(114.7536824 -31.38195585 9.361619333e-21)
(36.71584411 8.632706011 -6.495111656e-18)
(114.5740287 -31.22472591 5.018740598e-19)
(113.8831186 -30.67594364 2.808497458e-19)
(69.22142977 43.5527971 0)
(120.3078982 65.76341203 -1.971469229e-19)
(100.3841102 52.71932938 2.246977918e-19)
(76.33419711 50.46538771 -5.782182786e-19)
(150.5014846 -0.7222967436 -2.162848359e-18)
(155.1633333 9.915992182 6.140628326e-18)
(154.53275 6.727866425 -1.609837335e-18)
(151.9762639 7.141571176 -2.434339692e-18)
(138.2968634 -19.38030785 8.471273528e-19)
(138.6241173 -20.91166848 0)
(137.3238744 -21.81644268 -1.867121583e-18)
(143.9196265 -15.59660391 -3.850902375e-18)
(142.3842803 -17.20589209 -4.496486562e-18)
(142.4028313 -15.62027025 -9.357440221e-19)
(152.0200582 14.25554183 -3.467687588e-18)
(155.1481279 14.29253767 0)
(155.3664246 11.00870677 -6.008355482e-18)
(149.8087643 19.46342736 0)
(142.41979 17.56765217 -1.286383446e-18)
(139.5802084 22.63240554 0)
(144.3890635 10.84751198 1.297960575e-18)
(143.0869573 15.85652791 0)
(150.0596454 18.35260536 1.179300669e-18)
(145.3103011 -11.82211035 2.214018608e-18)
(145.8642913 -13.16416655 -1.349143413e-18)
(144.4231264 -15.03364807 0)
(148.6226876 -6.066033357 2.097705221e-18)
(136.8461211 -22.12655551 -1.865482974e-18)
(135.4077249 -22.91937997 0)
(135.1689449 -21.43535219 0)
(133.4777843 -21.64474923 7.071152897e-19)
(131.8194671 -19.16995858 8.95887244e-19)
(134.0216471 -17.5470621 0)
(140.302594 -16.95821282 9.17716866e-19)
(137.6603319 -14.04610265 -2.598489469e-20)
(139.6774149 -11.41767803 -1.90831847e-20)
(134.7599273 -16.93267051 0)
(136.9500683 -14.83403336 4.376685163e-21)
(139.8633111 -17.38425614 0)
(120.6320441 -27.10261169 5.957198277e-19)
(120.6198825 -29.5882948 3.716740751e-21)
(118.2386164 -29.66857497 -5.947345361e-19)
(102.8834409 -31.14406989 6.115567646e-19)
(142.650614 62.69982154 2.339447549e-18)
(121.3215601 85.1822907 1.064723434e-17)
(138.6842695 65.23667928 -1.169927317e-18)
(123.7999038 -27.37862297 7.482999554e-18)
(124.0694807 -27.24453276 4.381616212e-18)
(113.6736011 -31.73979377 -1.596976984e-18)
(114.2904335 -31.66866969 -1.804965973e-18)
(103.917471 -30.3832984 0)
(49.40686106 -8.265029469 1.931075627e-18)
(43.87775323 8.35916792 0)
(52.71699977 -10.22552777 -2.512770824e-18)
(116.0696782 -30.31571189 0)
(116.6575277 -30.82520855 1.172861286e-18)
(119.3618173 -30.1065873 0)
(112.9922668 -30.34314398 0)
(112.4125628 -29.85224619 -3.986510279e-19)
(155.043605 42.08609988 3.114816705e-17)
(149.6154274 39.54915749 3.440350945e-18)
(144.8623088 44.30741249 1.109444629e-18)
(153.5464805 32.99029458 -2.405206666e-18)
(150.8471454 37.90853256 -3.5417586e-18)
(143.0103311 45.84612876 1.411071757e-20)
(136.5769365 49.82357068 -2.968274525e-18)
(140.9941016 59.17679572 0)
(153.132461 2.002282598 1.545607632e-18)
(151.9371135 -0.7013447575 8.660975016e-17)
(150.6541228 0.08902415145 2.238608022e-18)
(151.8429725 6.194752557 6.251001901e-19)
(154.2638469 5.713782884 0)
(153.4209986 2.909586819 0)
(140.644248 -19.27797118 1.098824926e-18)
(139.1159637 -20.54911661 0)
(138.7603989 -19.02788103 3.527628365e-18)
(137.8724725 -21.11277626 1.008188992e-17)
(139.7080558 -19.7949916 0)
(136.6994017 -22.22263883 1.51149513e-18)
(137.3563345 -21.47961427 0)
(140.2358549 -19.2386101 -6.685567492e-20)
(141.9587808 -16.0836861 -1.624278403e-18)
(141.8495761 -17.62687635 1.578785011e-17)
(141.1277336 -18.79578542 -5.654361303e-18)
(123.4239214 -28.97115764 -3.124805601e-19)
(123.5347582 -28.76963374 1.342559484e-18)
(125.1380342 -28.6321626 2.559652595e-18)
(125.7647019 -27.37985899 6.127401117e-19)
(126.9166017 -27.07253357 6.361645769e-19)
(126.7058598 -27.27464123 1.004191981e-19)
(128.8851656 -26.34004906 -6.859534331e-19)
(130.0740631 -25.85952202 2.160983378e-18)
(127.2989806 -26.90055701 -6.502554115e-19)
(128.4878582 -26.4949238 9.650886901e-21)
(126.5492801 -27.47109193 -9.524776458e-18)
(107.1550769 -31.88966134 3.866238005e-19)
(112.4583717 -31.67075598 7.250039995e-19)
(113.3927903 -31.72036379 1.177665759e-18)
(155.0719076 19.28904548 -1.335046826e-18)
(155.0583431 15.55882828 5.730704888e-18)
(151.8671706 15.32440483 -3.528221309e-18)
(155.9455673 15.67637918 -1.153315999e-17)
(156.2139851 19.41874825 -5.544291849e-18)
(155.7707686 14.30183628 0)
(155.2273881 26.54048445 1.316376491e-18)
(154.2234627 31.34542806 -3.669252611e-18)
(156.2731366 20.67436112 -2.27971401e-18)
(155.4369389 25.07191889 -2.862781862e-18)
(149.8707184 23.38197861 -1.172670854e-18)
(154.2183195 24.71556855 -2.549672603e-18)
(155.0400935 20.59548695 -2.324983292e-20)
(147.5872815 -10.47235891 -5.696517734e-18)
(146.3281625 -12.50024584 -9.504315374e-18)
(145.6926152 -11.21557766 0)
(148.2437834 -6.7380233 -4.328266782e-18)
(148.7923655 -7.910409702 8.319670477e-17)
(147.9424644 -9.767256624 1.431957252e-18)
(132.0085273 -24.95542183 -1.494514572e-18)
(133.2006122 -24.39133505 -8.256218193e-19)
(130.4796634 -25.68831524 -2.215831128e-18)
(131.6527769 -25.11773075 1.510685625e-18)
(127.0393059 -25.67703832 4.750900255e-17)
(134.9165685 -23.2955332 -1.755749342e-18)
(136.3023901 -22.53149448 5.103665575e-19)
(133.5814166 -24.15624721 -4.105362025e-19)
(134.5114817 -23.5403878 0)
(111.7350933 -29.61584301 -1.89005888e-17)
(121.7864812 -29.73316218 -5.691080235e-19)
(114.9870977 -29.46214839 0)
(115.2571169 -30.01182718 1.481872711e-17)
(115.1654096 -29.34830393 1.77407724e-18)
(122.0898516 -29.64088924 2.810648836e-19)
(101.6163886 -30.86456935 -4.244932932e-18)
(120.9151807 23.01698668 -1.319081987e-18)
(116.0328569 12.19021746 -1.633286446e-18)
(110.1309442 12.71080129 -7.792934546e-19)
(107.4142116 -30.53093899 6.112424342e-19)
(107.6717309 -30.45029937 2.970916369e-18)
(113.1430933 -14.72843476 -4.653787269e-19)
(106.9905142 -30.20934321 -4.25127798e-18)
(117.6841547 -26.6370743 -5.09701225e-19)
(113.1757244 -26.17003952 6.7623923e-19)
(112.9970079 -22.2778314 -8.896015892e-19)
(54.91418417 55.33638787 0)
(52.66630661 31.45869242 5.576055148e-18)
(39.47922502 18.14629623 1.556871818e-17)
(105.6645239 92.93517337 0)
(89.87991337 71.60532907 0)
(62.01015004 64.33590556 7.297900473e-19)
(113.5108486 24.80706652 0)
(108.8483244 32.92498711 0)
(123.3456741 40.36746479 1.882646413e-18)
(144.271136 33.35635518 3.255017875e-18)
(148.7935891 36.65227607 1.225046816e-18)
(151.7058736 32.09772923 0)
(111.0580607 -31.47099562 -6.637862899e-19)
(112.1111444 -31.68410819 9.138130136e-22)
(107.6413857 -31.98429591 -1.07054364e-18)
(117.4951464 -29.71933541 -2.673984824e-19)
(115.2676835 -29.69430219 0)
(115.5932111 -27.41754995 0)
(152.4716109 30.60816488 1.211346707e-18)
(153.8856391 26.12464642 -1.331545004e-18)
(149.3995989 24.55619729 2.3718013e-18)
(101.8359837 -31.35468809 1.853173212e-19)
(104.9315603 -31.84835874 0)
(99.46041278 -30.78218156 5.863447474e-18)
(100.6632397 -31.00300983 -4.87672588e-18)
(110.6858721 -31.45344964 -6.439036566e-19)
(149.6405002 56.22790859 -1.951120399e-17)
(122.9745773 -27.70284502 7.840050287e-18)
(109.4658737 -31.74030839 0)
(109.1877518 -31.52922203 4.517350909e-19)
(104.5869829 -30.69092712 0)
(116.3585463 -31.29733571 9.633068834e-19)
(115.5086118 -31.4062551 1.747937257e-18)
(116.4131496 -30.2829036 1.71333857e-18)
(138.3175043 24.25904348 -1.116329445e-18)
(133.5850538 28.56483243 -3.086307291e-18)
(138.5501731 35.27573239 1.089360317e-18)
(119.0044082 -30.19684448 0)
(116.8275419 -30.98071437 -2.62814915e-19)
(116.5328692 -31.2428199 0)
(113.4679709 40.86405851 1.11764934e-18)
(105.2670464 49.79547144 -1.758923917e-18)
(121.362564 61.63581709 1.4032862e-18)
(153.1562885 47.40314698 0)
(150.9156316 46.49054015 2.475346292e-18)
(149.1277924 48.71918133 0)
(156.1723364 33.62905447 -5.324674797e-17)
(155.8446892 35.82580888 -4.103827862e-18)
(123.3674821 -29.19420741 0)
(121.1244471 -29.16371438 1.392589424e-18)
(121.1257679 -29.35516279 2.677406607e-18)
(120.3197465 -27.83571745 5.873484145e-18)
(120.9664817 -28.12735098 -4.054353237e-18)
(123.7950005 -28.31626485 3.613299155e-19)
(124.2144105 -27.78166783 -5.831158388e-19)
(125.3669836 -27.53490868 -6.073257191e-19)
(124.8164325 -28.73432994 -2.165456721e-18)
(125.8875944 -26.87669923 -1.227818631e-17)
(128.698921 -26.80605337 7.219849117e-19)
(128.8935229 -26.55486093 -3.032588504e-18)
(106.4718228 -31.43380058 0)
(110.2366504 -31.9893555 1.587398406e-18)
(109.888091 -31.83329541 -3.942140887e-19)
(129.7817193 -25.02305868 8.831647378e-18)
(130.287484 -24.81851025 -5.27959114e-18)
(129.1825084 -26.33909168 1.592417129e-18)
(129.515435 -26.12908904 -4.29685134e-19)
(127.156947 -26.14834909 1.124025413e-18)
(130.5947269 -24.58586262 4.973477694e-18)
(130.237299 -24.30498975 -7.191269793e-18)
(134.7360401 -21.73236162 -7.914031885e-19)
(134.9673906 -23.1537907 0)
(133.727385 -23.72445677 3.976710589e-19)
(102.1539478 -30.68190293 -2.089542169e-18)
(106.6197459 -30.74155779 0)
(107.0710847 -30.62527596 -5.436624111e-19)
(111.5653948 -30.988375 -7.461439006e-19)
(111.7108927 -31.201731 7.676513407e-19)
(114.704756 -31.53405319 -9.709549914e-19)
(37.74288236 1.778169321 0)
(27.53284208 12.2369085 0)
(40.4870817 -4.555809776 0)
(114.3148913 -31.12644666 1.251427555e-20)
(109.6553352 -30.42120045 0)
(110.6945782 -30.66585538 -5.210794253e-20)
(110.1108381 -30.15518903 3.78869219e-19)
(110.1048827 -30.27666102 -3.099152013e-19)
(114.1397088 -30.9040344 -5.332652341e-19)
(109.1243886 60.97126917 4.814447943e-19)
(96.61254904 68.93571303 7.237246366e-19)
(112.7467011 84.33210483 -9.045187046e-18)
(151.5175396 -2.182107296 -5.076693209e-18)
(151.7150301 -1.375426316 -5.936973695e-19)
(150.9028173 -3.73356807 1.344408585e-18)
(151.2255662 -2.959161867 0)
(154.9578887 8.847277804 -6.124010518e-18)
(154.0952298 8.915364298 5.263029989e-18)
(154.2519248 9.965310033 -1.28312386e-18)
(153.7436373 6.866118278 -1.379886895e-18)
(153.9284893 7.88292376 2.690547554e-18)
(154.7540677 7.789184691 -1.505871401e-18)
(143.4122881 -16.17809574 -1.249441658e-18)
(143.9995552 -15.55660583 0)
(144.4552675 -14.99931058 4.326016318e-18)
(143.0595919 -16.58804871 -1.970446987e-18)
(143.5329807 -16.09637262 2.031054318e-18)
(142.8739408 -16.74206048 4.834956382e-18)
(155.3678421 13.25144298 0)
(154.359494 13.34552416 -5.88288756e-18)
(154.2306915 14.4546434 -1.220525985e-18)
(154.3759537 11.05094549 0)
(154.4163343 12.18862531 1.210765524e-18)
(155.4662446 12.1525294 -5.653797891e-18)
(145.3991251 -13.77133085 5.342955476e-18)
(145.7531469 -13.22132947 -4.63667263e-18)
(146.1666987 -12.60670718 0)
(144.9031239 -14.42936167 -4.439330458e-18)
(145.3347267 -13.83053566 -4.615708039e-18)
(144.9235657 -14.40721151 5.187031324e-18)
(150.2931074 -5.392883261 -5.307221997e-18)
(150.6095478 -4.539846744 -1.372168434e-18)
(149.4875002 -6.86935514 -6.719784981e-18)
(149.9321329 -6.168336339 3.47944802e-20)
(97.2934418 -30.49188666 -1.246738635e-19)
(98.73444981 -30.47100722 0)
(99.6626222 -30.71353906 0)
(104.2009453 -31.53396008 -1.910948542e-19)
(96.60562085 -30.27665539 0)
(145.2826413 64.37089563 0)
(148.9029978 59.90795666 0)
(146.7943684 59.52856187 1.63162388e-17)
(132.4405739 78.79850918 0)
(130.9410094 76.6957385 0)
(122.9317693 79.22590174 -3.407638332e-18)
(142.9390395 68.21602415 -4.418429437e-17)
(137.5151619 72.53604057 -2.06481831e-17)
(123.3134726 -27.53260153 -1.712294125e-18)
(123.6324394 -27.0160171 3.171611487e-17)
(104.6249709 -30.60649808 1.292584153e-18)
(108.8396711 -31.3105157 -1.410810108e-18)
(107.7795458 -30.97979121 0)
(46.50458 -4.78284922 0)
(111.963884 -30.1084969 4.286403555e-18)
(109.4103039 -29.90822876 0)
(112.3986091 -29.96929692 3.260697962e-19)
(153.7936212 41.80486688 -1.726369322e-17)
(152.4631975 44.28471468 0)
(154.3010828 44.97626941 2.189290027e-17)
(152.7502199 34.56629274 5.008638488e-18)
(154.4573227 35.38206107 -5.392357192e-18)
(155.1518939 33.40495029 1.969951183e-17)
(155.4267858 37.61869728 -3.13459494e-18)
(154.7898612 39.63652698 1.200611662e-17)
(152.8136892 1.146556246 -2.393352139e-18)
(152.3873261 1.380552817 -2.746035365e-18)
(152.6113916 2.243211611 0)
(151.8791929 -0.5136993444 -3.328159369e-17)
(152.2580432 0.553280207 0)
(152.5313296 0.3639594768 -1.850179065e-18)
(153.9731136 4.76698654 1.524256058e-18)
(153.2984735 4.937164286 -1.383090775e-18)
(153.5307416 5.880398391 -2.702381219e-18)
(152.8356101 3.120950206 1.392783373e-18)
(153.0662431 4.020635242 -1.373258456e-18)
(153.6989543 3.830071569 0)
(140.1445081 -19.7440904 -5.279148491e-18)
(140.2215986 -19.29721893 -1.004167959e-18)
(140.7176548 -18.85496614 2.056794341e-18)
(138.4753554 -20.72566253 -6.949817364e-18)
(139.0990063 -20.3122794 5.961933021e-18)
(136.8362978 -21.92853431 9.377963698e-18)
(135.0449586 -22.21481196 -3.201698988e-17)
(135.1944953 -22.5679458 0)
(136.7495153 -21.80009898 -1.613577119e-17)
(140.5906626 -18.76743642 -3.046058368e-18)
(140.532952 -18.33357493 4.416204637e-18)
(141.8370927 -17.88196529 -2.054030913e-17)
(142.1625678 -17.48400323 5.948306673e-18)
(142.6083653 -17.05039955 0)
(141.2136687 -18.40298826 -1.037975314e-18)
(141.7033183 -17.9422567 -4.135956673e-18)
(141.5608654 -18.32778519 4.458416106e-18)
(119.8019188 -28.76117002 -4.971139368e-18)
(120.5525485 -28.91846874 1.722733554e-17)
(123.4175585 -29.05331628 -3.104676664e-19)
(117.3574668 -28.66344423 1.000017398e-19)
(117.743201 -29.02161746 6.399158166e-18)
(117.9774571 -28.89590283 -9.507740601e-18)
(123.7575202 -28.56842795 -7.153882143e-19)
(120.74415 -28.35487798 0)
(120.3553712 -28.58077221 -6.025551493e-18)
(128.328381 -27.13921414 -9.302323993e-20)
(128.5363251 -26.95550729 0)
(126.4188867 -27.02926737 8.41692654e-20)
(155.0589143 18.02744543 -2.737772444e-18)
(153.9706346 17.91228725 3.945764363e-18)
(153.8991443 19.13433321 -1.260418989e-18)
(154.1049984 15.53448352 1.285079757e-18)
(154.0300788 16.71486078 1.295195094e-18)
(155.0593642 16.77058345 0)
(156.0674662 16.85145579 5.058673453e-18)
(156.124823 18.16638522 -8.176888498e-18)
(155.0409487 28.06373717 -1.361824355e-18)
(156.3749055 28.35216416 1.319402692e-17)
(156.4098337 26.81318607 1.74287967e-17)
(155.8241144 31.66967788 3.581910308e-17)
(156.2498386 29.98163911 9.159264523e-18)
(154.7364967 29.67807492 -1.278895065e-18)
(156.1428268 21.9574602 -2.546485144e-18)
(156.52034 25.42246438 3.958970171e-18)
(156.7005903 23.51042232 0)
(155.7924661 23.36598064 0)
(147.1954705 -11.17693945 1.396902186e-18)
(147.3412742 -10.65936105 1.267334112e-18)
(147.695625 -9.984557665 -2.611963208e-18)
(146.5685769 -11.96650385 3.683331112e-18)
(146.9603163 -11.3167296 1.234374758e-18)
(146.7707378 -11.8284228 5.545222321e-18)
(148.6369608 -8.458444269 1.394429083e-17)
(148.8132278 -8.001603304 -9.25060136e-18)
(149.2538404 -7.332299214 -3.198993885e-17)
(148.0360952 -9.319830919 1.305431079e-18)
(148.3996151 -8.662595252 -2.493448163e-18)
(148.3021421 -9.100832636 -1.870299749e-19)
(129.0018899 -25.42015639 2.165511006e-17)
(129.4185699 -25.21197291 -3.538368571e-18)
(127.4361821 -25.96163796 -4.261551508e-18)
(129.7230911 -25.88489127 4.290761364e-19)
(129.5116486 -25.59309144 -2.951711555e-17)
(135.3503877 -23.04137316 -1.901533053e-18)
(133.6135866 -23.39736136 8.487798517e-18)
(133.084081 -23.65900619 8.178577535e-18)
(134.764282 -22.88416666 -5.844686324e-19)
(134.1642774 -23.15533279 5.589936976e-19)
(135.8142365 -22.79725653 0)
(133.8831377 -23.94066536 7.917195484e-19)
(132.434356 -24.20887834 -3.445033324e-19)
(132.5456032 -24.44977416 -4.457587542e-19)
(132.6472848 -23.90363551 0)
(132.1105202 -24.10965886 1.664075015e-18)
(134.1739369 -23.78024647 1.199024693e-18)
(114.720229 -29.61037615 -2.593753339e-18)
(118.5141731 -30.08355702 -1.148496131e-18)
(118.6184205 -29.93262704 0)
(118.7319749 -30.37879764 0)
(118.5589191 -30.28103812 0)
(114.274777 -29.78372191 -6.533401023e-18)
(116.9270728 -29.30235429 0)
(117.4009275 -29.16267526 5.621784273e-18)
(118.5361983 -29.73582051 -1.296986241e-18)
(117.8225579 -29.47793838 7.978936855e-18)
(114.469396 -29.11856373 -2.051293319e-17)
(102.082072 -30.77775805 1.624561343e-18)
(99.78791819 3.264990308 -5.32375098e-20)
(99.95751014 1.907929999 0)
(99.84592998 3.325689504 4.957167646e-20)
(100.0740483 3.36284638 0)
(100.0578796 1.964925513 -3.235489235e-22)
(100.1339028 3.330101471 0)
(100.3200857 3.110539994 2.072659828e-21)
(100.1428552 1.833989705 0)
(100.3563891 3.004923976 2.363625493e-20)
(100.4550666 2.626226183 2.300022171e-22)
(100.1894345 1.5682056 0)
(100.4635051 2.488663821 2.035193673e-21)
(100.4777368 2.062615363 5.174207079e-21)
(100.19375 1.246266928 -4.277586016e-21)
(100.4628941 1.922416114 -2.431752102e-21)
(100.4209468 1.527375443 0)
(100.16965 0.9390014011 -1.085805735e-20)
(99.44195177 5.335147027 -1.49596274e-19)
(99.71899581 3.74618209 2.216030127e-20)
(99.6266324 5.451557272 2.269563579e-20)
(100.2236383 5.515172061 4.670890412e-20)
(100.097961 3.862154391 0)
(100.4090492 5.442968174 -1.25125506e-19)
(100.8642683 4.996108764 6.806304502e-22)
(100.4208684 3.558674422 -2.079822614e-21)
(100.9700912 4.790220738 1.198423276e-20)
(101.1584141 4.083053655 1.320111312e-19)
(100.5914501 2.985062956 -9.285358624e-21)
(101.1808576 3.835273501 -7.692357906e-20)
(101.1668639 3.107395866 -7.936303033e-21)
(100.6190644 2.332980068 -1.950602194e-20)
(101.140625 2.878197353 9.213453239e-20)
(101.0191511 2.241835969 -2.921739701e-19)
(100.5446878 1.717480352 -1.173383948e-20)
(98.79324853 8.012307411 -1.709830663e-19)
(99.3183911 5.930336855 2.233277074e-19)
(99.22500428 8.239897185 1.078432878e-19)
(100.6064416 8.313539543 2.647145692e-20)
(100.2900908 6.135891047 -5.114233279e-20)
(101.0237509 8.140404956 -4.149915802e-20)
(101.9564055 7.209431919 -1.296175582e-19)
(101.0721193 5.513424079 -1.983472939e-19)
(102.1477391 6.815735612 2.850228688e-19)
(102.4095942 5.562543535 0)
(101.4106251 4.45474372 0)
(102.4133075 5.143768541 8.382399381e-19)
(102.2679903 4.002600488 5.052892118e-20)
(101.3976042 3.350306005 -2.762503359e-21)
(102.1836718 3.664176753 1.086909894e-19)
(101.8843079 2.772363322 0)
(101.2128073 2.398205915 0)
(97.33208805 11.96160126 0)
(98.54023177 8.840052915 -5.024726497e-20)
(98.33747997 12.48845477 -7.451097311e-20)
(101.5869847 12.44256095 7.519108129e-20)
(100.7685659 9.181471653 2.460427454e-20)
(102.4811425 11.94500225 9.642584528e-20)
(104.1358468 9.804079392 1.983345583e-19)
(102.3667325 7.826945805 0)