/*--------------------------------*- C++ -*----------------------------------*\
| =========                 |                                                 |
| \\      /  F ield         | OpenFOAM: The Open Source CFD Toolbox           |
|  \\    /   O peration     | Version:  v2012                                 |
|   \\  /    A nd           | Website:  www.openfoam.com                      |
|    \\/     M anipulation  |                                                 |
\*---------------------------------------------------------------------------*/
FoamFile
{
    version     2.0;
    format      ascii;
    class       volScalarField;
    location    "2.68";
    object      nut;
}
// * * * * * * * * * * * * * * * * * * * * * * * * * * * * * * * * * * * * * //

dimensions      [0 2 -1 0 0 0 0];


internalField   nonuniform List<scalar> 
3259
(
1.147692592
1.147231324
1.147147396
1.147917615
1.149266289
1.152750914
1.159300868
1.166102768
0.8693168913
0.6672314057
0.5369774124
0.4471764612
1.147387941
1.146925654
1.146911543
1.147826679
1.149454333
1.153525623
1.160598691
1.167585913
0.9303025201
0.7166123092
0.5513644956
0.2875958948
1.14711198
1.146643541
1.146691468
1.1477577
1.149614072
1.154096075
1.161553895
1.168577776
1.037374208
0.8303941806
0.6524744654
0.07958870335
1.146920545
1.146447069
1.146540323
1.147724911
1.149771199
1.154576279
1.162322269
1.169243568
1.165044305
1.03348074
0.8928483902
0.05439453229
1.14670455
1.146217549
1.146337383
1.147636795
1.149880815
1.154923872
1.162849739
1.169535152
1.165879941
1.126100524
0.9005657082
0.08040902583
1.146538762
1.146039938
1.146166463
1.147532142
1.149909072
1.155112057
1.163086754
1.16945777
1.165484061
1.127060364
0.9143340001
0.128669943
1.146301814
1.145785374
1.145902045
1.14732491
1.149838102
1.155130471
1.16302929
1.16890404
1.163640632
1.122159822
0.902188444
0.1581980702
1.146099316
1.14557199
1.145667303
1.147095539
1.149662395
1.154983865
1.162699776
1.167899982
1.160874705
1.112498917
0.8534542797
0.132126726
1.14579728
1.145258284
1.145327149
1.14676183
1.149393496
1.154688908
1.16213219
1.166534038
1.157283399
1.099696
0.7891415434
0.1095844437
1.145533806
1.144993616
1.145036792
1.146438365
1.149048602
1.154272641
1.161367081
1.164887498
1.153077243
1.083903536
0.7190775301
0.09382169176
1.14515599
1.144615807
1.144637634
1.146025743
1.148651669
1.153766636
1.160447339
1.163013704
1.148336051
1.064690883
0.658400043
0.08398492983
1.144833324
1.14430348
1.144310357
1.145656656
1.148217638
1.153198297
1.159410175
1.160945356
1.142973029
1.040600378
0.6089468528
0.07776782693
1.144388912
1.143869439
1.143867045
1.14520031
1.147761311
1.152585785
1.158280021
1.15868955
1.136765222
1.011927726
0.5680737461
0.07369283957
1.144020377
1.14351977
1.143514867
1.144809997
1.147285374
1.151938438
1.157068093
1.156231468
1.129394574
0.9811269036
0.5336845582
0.07106854755
1.143528211
1.143044341
1.14303959
1.144324381
1.146797571
1.151260039
1.155776427
1.15353516
1.120599364
0.9503966126
0.5043720685
0.06976558318
1.143127361
1.142667282
1.142669428
1.143922395
1.146294885
1.150551914
1.15440193
1.150552617
1.110330818
0.9208725862
0.4790607688
0.06937602983
1.142611274
1.142170736
1.142178134
1.143418367
1.145784137
1.149813998
1.152938338
1.147227941
1.098756515
0.892979335
0.45691949
0.06969939279
1.142182935
1.141768679
1.141789281
1.143005994
1.145260232
1.149045933
1.151375015
1.143511969
1.086143964
0.8667907779
0.4373830019
0.07063535439
1.141673645
1.141279176
1.141307022
1.142501593
1.144730212
1.148246164
1.149697297
1.139352363
1.072761433
0.8421610824
0.4199538151
0.07203457819
1.141205462
1.140838576
1.140883148
1.142064485
1.14418787
1.147412893
1.147887354
1.134716906
1.058845299
0.8189537197
0.4043377199
0.07357732682
1.140748707
1.140399782
1.140452196
1.141597833
1.143638982
1.146542829
1.145926864
1.129598117
1.044586033
0.7970546416
0.3903440987
0.07538755537
1.14020221
1.139881946
1.139951643
1.141086486
1.143080665
1.145635662
1.143801225
1.124007377
1.03011685
0.7762987743
0.377669022
0.07749997376
1.139862115
1.139556504
1.139634022
1.140738359
1.142520437
1.144696578
1.141513692
1.117962412
1.015526685
0.7565263053
0.3660122439
0.07990993704
1.139152151
1.138880483
1.138976409
1.140045706
1.141996338
1.143758021
1.139138734
1.111518808
1.000990441
0.7378515237
0.355367046
0.08263572638
0.452672004
0.3386969845
0.5410726367
0.5238223081
0.5418794788
0.3888546819
0.51111881
0.4073133791
0.02850262447
0.04778410149
0.2697821184
0.04876936643
0.03028882238
0.00466319591
0.02817169999
0.4013347607
0.01770114743
0.009830771343
0.029942798
0.01803584172
0.01166316472
0.04272956786
0.1938636739
0.1793153456
0.2140959536
0.1997734476
0.04310763122
0.06521490123
0.2343141661
0.2193267257
0.2393086866
0.06659086363
0.04681745127
0.04579535
0.1736548287
0.1627076313
0.02235068018
0.01141117358
0.02756055948
0.0178468544
0.02846190741
0.01092139064
0.01653697855
0.01127136664
0.02848983676
0.01228927295
0.02377291252
0.6119426558
0.3799421414
0.3695651026
0.2519493506
0.008048291728
0.005305255256
0.03140517593
0.09437943068
0.08872618528
0.01055619465
0.01632678638
0.0490484549
0.03704675852
0.004386766277
0.122484079
0.1028494261
0.0867787037
0.08218842314
0.02776689766
0.02581833693
0.01747719345
0.01095406937
0.02452211181
0.03231379873
0.002877900456
0.0294405931
0.01903505567
0.1034604595
0.09642175599
0.03501764456
0.04530697218
0.1113271764
0.1054046061
0.04837492564
0.04183270618
0.02667065238
0.07939051239
0.07057234798
0.01192883078
0.01155117966
0.01667861821
0.01118905895
0.01180346777
0.02234944987
0.02932504969
0.007591440735
0.01317280026
0.01090110604
0.01205415999
0.01983989026
0.119257174
0.1132159343
0.04580620563
0.05652733885
0.1283269308
0.1213565232
0.01886402964
0.01914661942
0.03110944768
0.01766244477
0.029722183
0.01844490569
0.01860681617
0.01804492167
0.1374140799
0.130654071
0.05981705902
0.06970450665
0.1455998721
0.1394408424
0.03046845478
0.03053815496
0.04718757753
0.04545215178
0.03007199776
0.03003703138
0.02124050575
0.03356181991
0.0333730873
0.008178822031
0.01357035581
0.02469451551
0.01211129009
0.01186690987
0.0175689251
0.01781180205
0.0289081871
0.01107387505
0.007891302293
0.01093608582
0.01102240611
0.02698724762
0.01709072847
0.01766729348
0.01637796173
0.01915580475
0.01897100215
0.01492068099
0.03309885687
0.0197268008
0.02062547404
0.04000002063
0.02753154249
0.003044829654
0.02776443129
0.04263703392
0.04224679354
0.01743494693
0.01088953949
0.007998613166
0.004101010912
0.01162919666
0.01166178415
0.01823030936
0.01838031923
0.02964232438
0.01846253244
0.01854243169
0.01850131597
0.01877732505
0.01872023765
0.02849653069
0.02843075691
0.04347764949
0.01776188856
0.01876205274
0.01827871122
0.01834209383
0.04063805966
0.04000834968
0.02652107437
0.01197974949
0.01020343069
0.010313437
0.007592552815
0.01055276178
0.01158873548
0.0172562601
0.0114052403
0.01199303791
0.01174568148
0.02903285158
0.01791733887
0.01811935551
0.01077655859
0.01105786731
0.01095985748
0.01123534518
0.01139391593
0.007947628929
0.007912526908
0.01162878783
0.0110156028
0.01130265408
0.01452798913
0.01790513217
0.027067891
1.165748228
0.9250744852
0.8585043889
0.7014517469
0.6602234317
0.566621964
1.167289309
0.9741222378
0.9351008207
0.9089944766
0.7447063751
0.7102118986
0.697687656
0.5700916457
0.5663927063
0.5327199573
0.504526848
0.5273766575
0.4300134937
0.2564956728
0.2721870985
1.168362433
1.069044919
0.994956329
1.003581475
0.8399349619
0.7646068988
0.7911319288
0.6576071272
0.581320758
0.5601785915
0.5122797484
0.4938097264
0.281108294
0.1308657673
0.1510255671
1.169127052
1.168141716
1.10423468
1.164728363
1.014222686
0.8766124261
0.9742355217
0.8633081378
0.6987339786
0.8342913879
0.2389260164
0.3404949659
0.05382127871
1.169489172
1.168831779
1.168366399
1.165793863
1.141657286
1.071527913
1.125230956
0.9996422143
0.9410130732
0.8967631142
0.2495917993
0.234128243
0.07086874727
1.169521228
1.168607149
1.168865279
1.165707703
1.142942853
1.142293648
1.127259661
1.007445558
1.001697708
0.912466725
0.3029072357
0.261425949
0.1164280605
1.169087568
1.167396894
1.168388776
1.164187128
1.14035166
1.142768791
1.12408354
1.002024433
1.007913624
0.9085699518
0.3348390734
0.3150377315
0.154340347
1.168188966
1.165405131
1.166968588
1.161650944
1.13423295
1.139017916
1.115199339
0.9737021313
0.9972520363
0.8671946397
0.3049254691
0.3326537797
0.1394056174
1.166904472
1.162741868
1.164795139
1.158246066
1.125910078
1.13236216
1.103190797
0.9333002478
0.9646578005
0.8064623256
0.2628027818
0.2938458989
0.114483831
1.165322041
1.159584597
1.161992152
1.154178709
1.115548528
1.123492467
1.088125106
0.8799623087
0.9211785473
0.7360759812
0.2270328727
0.2531629394
0.09722103876
1.163501082
1.156031598
1.15873161
1.149573722
1.103325575
1.112677058
1.069899125
0.8203313395
0.86511706
0.672427373
0.1998477243
0.2193658496
0.08599692394
1.161479623
1.152071419
1.155080979
1.144383001
1.088501514
1.099909489
1.04711625
0.7653796978
0.8058917431
0.6204018088
0.1804484505
0.1943786059
0.07908753506
1.159271148
1.147622662
1.151005025
1.138413039
1.070017375
1.084246061
1.019401417
0.7182231661
0.7528733721
0.5776147485
0.1662900091
0.1764912549
0.0745571671
1.156866158
1.142512417
1.146413601
1.13136312
1.047978343
1.064799535
0.9888872044
0.6778265978
0.7075446813
0.5417592763
0.1555128716
0.1632926454
0.07158734653
1.154233731
1.136539356
1.141107768
1.122938545
1.023727492
1.04205719
0.9579940426
0.6428358773
0.6686108429
0.5112829892
0.1464060894
0.1530816056
0.07000069393
1.151327716
1.129539996
1.134889721
1.113029745
0.9987354167
1.017498096
0.9281092265
0.6122498115
0.6348085423
0.485066272
0.1389098873
0.1443865321
0.06941484308
1.148094524
1.121456434
1.127618713
1.101758207
0.9739556867
0.9924921413
0.8997904712
0.585229061
0.6051820593
0.4621885052
0.1327885141
0.1372497186
0.06957077283
1.144480851
1.112349023
1.119270156
1.089379046
0.9498532056
0.9678538083
0.8731845792
0.5611641778
0.5789542754
0.4420520854
0.1277782203
0.1314202151
0.07037827746
1.140433327
1.102342072
1.109924875
1.076165345
0.9266076703
0.9439551119
0.8481800372
0.5395066036
0.5555391426
0.4241327461
0.1237357581
0.1266953414
0.07171219482
1.135917189
1.091588202
1.099716173
1.062362788
0.9042836076
0.9209362181
0.8246277463
0.5198721581
0.5344150639
0.4080793595
0.1207394496
0.1228569398
0.07322467962
1.130921774
1.080243118
1.088800241
1.048174224
0.8829030238
0.8988488031
0.8024134564
0.502029216
0.5152494077
0.3936978071
0.1185567904
0.1200918529
0.07498162448
1.125448476
1.068441126
1.077329649
1.033748257
0.8623921895
0.8776958038
0.7813877853
0.4856916337
0.4978195631
0.3807059723
0.1169435288
0.1180700467
0.07705065021
1.119512872
1.056281978
1.065430262
1.019175485
0.8426331832
0.8573862552
0.7613527992
0.4705034704
0.4818214515
0.3687324572
0.1157481862
0.1165688686
0.07943012674
1.113133831
1.043826481
1.053200583
1.004498267
0.8235009485
0.837827638
0.7421280545
0.4562438681
0.4669705471
0.3575893398
0.1149126327
0.1154640348
0.0821248792
1.105891395
1.030316543
1.04080058
0.9888188373
0.8037805464
0.8191571409
0.7224863029
0.4419852939
0.453301958
0.3464826631
0.1146848568
0.1147969583
0.08545198516
0.2776589554
0.2936291762
0.4694704534
0.1578770024
0.1745705214
0.3484618129
0.04207937904
0.5253339226
0.5566026356
0.5448308265
0.5552672944
0.5476539631
0.5255904821
0.4885650715
0.5090805761
0.533375927
0.4450532942
0.4866479942
0.4670284999
0.5195292174
0.4940699923
0.4654096219
0.2354530731
0.2507419619
0.4243972039
0.02872354803
0.04568641382
0.04485727028
0.06985912477
0.06849976944
0.04701959232
0.009565455985
0.008886543535
0.2316276002
0.01819029131
0.0210567529
0.04740042715
0.05988326125
0.05036582102
0.07333339957
0.0713630419
0.1474524122
0.0709030938
0.4747118886
0.2989222144
0.003392921363
0.02539383485
0.01379368276
0.04397091327
0.04350734144
0.02809066663
0.38442159
0.2139402111
0.2288595934
0.01378109384
0.01300401842
0.005919365813
0.06025880373
0.05841150808
0.04089216664
0.1900081879
0.1377482182
0.1406511886
0.115835203
0.1267626592
0.1836206591
0.209488841
0.1551014858
0.1591968988
0.1464688386
0.1500874177
0.2040546143
0.04412716492
0.0628209914
0.06144625604
0.08761953881
0.08591794446
0.06410012029
0.2293277757
0.1734121512
0.1779503832
0.1640068198
0.1685664745
0.2242092557
0.2493443964
0.1911920317
0.1824287295
0.1868127744
0.2443027107
0.06751357389
0.09083265831
0.08930793859
0.1708162865
0.10629294
0.1129220458
0.09331039306
0.1029808227
0.1624867148
0.02781138387
0.01921459425
0.0198897861
0.01360082387
0.01407936926
0.01912309694
0.01527288157
0.01204975553
0.01290075107
0.01349499194
0.01817975112
0.5667427418
0.535780496
0.5810853002
0.3587458566
0.4773906442
0.5029320315
0.4615007591
0.4726808403
0.3700856367
0.1164802884
0.1439658512
0.2681423152
0.007808155712
0.03263975025
0.02620269391
0.09512469757
0.109120622
0.006499737902
0.04969643159
0.04732089958
0.02959558685
0.09241622058
0.0687194051
0.07099470564
0.06539067549
0.06669148476
0.09034389568
0.01172183078
0.03979056901
0.0281383653
0.03733243133
0.0305925644
0.01572717297
0.03109493915
0.03125896345
0.04965939308
0.00966160938
0.006862384489
0.002886849105
0.114945759
0.05890075475
0.06560436495
0.0499604845
0.056405265
0.1083234928
0.08540762756
0.06295032848
0.06386867952
0.06062299967
0.06143505337
0.08333150368
0.03101385363
0.02049374702
0.01363923367
0.01469650628
0.01253627735
0.01117046987
0.01956699429
0.005631177746
0.007555147358
0.1011916827
0.0788034765
0.08074553067
0.07382381991
0.07634717643
0.09899440479
0.03929274353
0.05609953936
0.05313431209
0.06509227197
0.06383456033
0.04454980868
0.1092686416
0.08575540906
0.08740966751
0.08249063078
0.08416847933
0.107427099
0.04790529607
0.03079008364
0.03086745383
0.07844563513
0.05749614641
0.05845375695
0.04927238712
0.05054252522
0.07039170443
0.01285404066
0.01257681793
0.0115147317
0.02046726553
0.01494822838
0.0158875541
0.01115977106
0.011644837
0.01406106069
0.1171629931
0.09231142349
0.0940911287
0.08899908289
0.09067013317
0.1152375092
0.04646411052
0.06736852751
0.06614483779
0.07870573366
0.07581049696
0.05295112357
0.1258966881
0.1004789086
0.1030298046
0.09597805617
0.09809969004
0.1235826239
0.1351782097
0.1101154425
0.1121946535
0.1055279368
0.1079347744
0.1330357528
0.0621131523
0.08387666266
0.08143283144
0.09399142902
0.09246190043
0.06872687136
0.1435583597
0.1183661919
0.1205168022
0.1142310784
0.1162718159
0.1415932838
0.01693910117
0.01786118173
0.0257028045
0.01222039354
0.0136791421
0.01322429358
0.01491996835
0.01423782774
0.01262319541
0.01473523366
0.03015334378
0.01488006071
0.02112149407
0.01363959879
0.01451567445
0.02844796265
0.002100363069
0.006563875316
0.006299445984
0.008425043733
0.006858274366
0.004054467136
0.01068786105
0.007982036708
0.009055034843
0.009877111084
0.008712763566
0.01088635365
1.149283819
1.150632425
1.152557458
1.155200921
1.158606667
1.163976017
1.149395387
1.150983275
1.150707503
1.153219242
1.15623099
1.155550831
1.160024965
1.165575502
1.164339186
1.166501343
1.107002895
1.095669176
0.88121932
0.8220549619
0.8105585935
0.6758010217
0.6358598872
0.629002801
0.441348603
0.3851209175
0.3908431997
1.149544964
1.151339329
1.151154826
1.153821412
1.157097764
1.15668169
1.161100468
1.166687481
1.165862381
1.167850813
1.166402958
1.150505693
0.9463431024
0.8875791292
0.8709226628
0.7323511033
0.6862802087
0.6706885357
1.149709828
1.151675697
1.151502664
1.154353702
1.157824833
1.157481076
1.161961541
1.1674611
1.166897456
1.168797228
1.169674676
1.169450013
1.076306625
1.01806805
0.980201538
0.8732417665
0.8292195862
0.7850391624
0.7015287029
0.6696743156
0.6114169953
0.06518190364
0.01411459423
0.01343448033
1.149848347
1.151946656
1.151810739
1.154771738
1.158374846
1.158123536
1.162620731
1.167949559
1.167601107
1.169343165
1.170252122
1.170138091
1.165366344
1.160041609
1.159590907
1.101146805
1.068821986
0.997436873
0.8922502935
0.7291269765
0.7304057272
0.0577370178
0.01590171177
0.01552774439
1.149919011
1.152115152
1.152034153
1.155041775
1.158719912
1.158573805
1.163005597
1.168126265
1.168028193
1.169557916
1.170357996
1.170371374
1.165938053
1.16102702
1.160918998
1.126617609
1.102639688
1.101837034
0.9050425318
0.7484784013
0.7412822874
0.09158345171
0.02069885042
0.01894565886
1.149897533
1.152159026
1.152142802
1.155145051
1.15884771
1.158810676
1.163093853
1.16788184
1.168103572
1.169364818
1.169969683
1.170117138
1.16510225
1.16025952
1.160715782
1.12658826
1.102900894
1.103439435
0.9150054049
0.7689454206
0.766439056
0.1394849962
0.0304007501
0.02772320438
1.149770956
1.152070958
1.152121612
1.155079259
1.158762374
1.158830589
1.162896596
1.167232379
1.167754463
1.168692439
1.169032711
1.169317928
1.163035052
1.157577908
1.158360661
1.120023001
1.09364117
1.096860769
0.8921519339
0.7423341964
0.7553056513
0.156735756
0.03732335238
0.03621269523
1.149544532
1.151857068
1.151969929
1.154855409
1.158480707
1.158644346
1.16244333
1.166242045
1.167013349
1.16758859
1.167590891
1.167992461
1.160045427
1.153703078
1.15478156
1.109597066
1.078143618
1.082430938
0.8387542184
0.6701244419
0.6887864847
0.1256715909
0.03934760997
0.03895093048
1.149231999
1.151535712
1.151700089
1.154495615
1.158028703
1.158273866
1.161771606
1.164979602
1.165949566
1.166145923
1.165762033
1.166249517
1.156282518
1.148759568
1.150080474
1.09601574
1.058051321
1.063518254
0.7713946547
0.5971000687
0.6146521602
0.1050605632
0.04056997961
0.04029283263
1.148856807
1.151132599
1.151335165
1.154030376
1.157438985
1.157748692
1.160923955
1.163500393
1.16462868
1.164438291
1.163639006
1.164194355
1.151942356
1.142991302
1.14450441
1.079474867
1.032934433
1.039757829
0.7027617331
0.5354016073
0.5495063567
0.09088742915
0.04179634942
0.04147590656
1.148437308
1.150673188
1.15090168
1.153490083
1.156745541
1.157103144
1.15994155
1.161846849
1.163102843
1.162513589
1.16126727
1.161882283
1.147059795
1.136419776
1.138148029
1.059164862
1.001351834
1.009893228
0.6450798006
0.486540359
0.497722428
0.08214820167
0.04300049813
0.04270383585
1.14799016
1.150176039
1.150422376
1.152897826
1.155975588
1.156368723
1.158855731
1.1600424
1.161410522
1.160398565
1.158659351
1.159334313
1.141510864
1.128775264
1.130811357
1.033782399
0.9641541742
0.9737623526
0.5980162762
0.4475047684
0.4564967265
0.07661569501
0.04428187297
0.04393707839
1.147521979
1.149652511
1.149911797
1.152267017
1.15514587
1.155567424
1.157683982
1.15809072
1.159569748
1.158094377
1.155795332
1.1565378
1.135043636
1.11958301
1.122053617
1.004322016
0.92555242
0.9351202224
0.55893001
0.4157883654
0.4231407783
0.07289879174
0.04590661765
0.04545930598
1.14703947
1.149107541
1.149377984
1.151603821
1.154264411
1.154711207
1.156432369
1.155979412
1.157580062
1.155581126
1.152625788
1.153450363
1.127335148
1.10842489
1.111408679
0.9733762148
0.8886542468
0.8976395041
0.5259215584
0.389609897
0.395714932
0.07064497351
0.04798791601
0.04741995793
1.146543322
1.148544123
1.148824092
1.150910497
1.153333844
1.153805027
1.155099905
1.153683641
1.155425358
1.152817771
1.149072702
1.15000055
1.118166173
1.095268692
1.098729695
0.9428752472
0.8545481715
0.8627994692
0.4977057083
0.3676187354
0.3727853947
0.06960574692
0.05057233929
0.04987333914
1.146036072
1.147962676
1.14825222
1.150187757
1.152353986
1.152849809
1.153681995
1.151173094
1.153079118
1.149754911
1.145055368
1.146108305
1.107549116
1.080478656
1.084301364
0.9137375838
0.8232895601
0.8308500039
0.4732480992
0.3487749844
0.3532352545
0.06940532559
0.05368781042
0.05285286663
1.145519728
1.147364848
1.147662253
1.149435366
1.151322732
1.151844329
1.152170313
1.148409632
1.150509211
1.146337569
1.140501367
1.14168614
1.095688955
1.064565138
1.068622215
0.8862744069
0.79462832
0.8015667442
0.451810421
0.3324427944
0.3363133947
0.06990886979
0.05734102941
0.05637207921
1.144991365
1.146749849
1.147055785
1.148652813
1.150236205
1.150785489
1.150551997
1.145350647
1.147676516
1.142513995
1.135355244
1.136699583
1.082859465
1.047975165
1.052166414
0.8604909601
0.7682456304
0.7746470614
0.4328413584
0.3181763759
0.3215711894
0.07099360416
0.061518979
0.06042351372
1.144461434
1.146119568
1.146430856
1.147838476
1.149088734
1.149668475
1.148810661
1.14195526
1.144538273
1.138232616
1.129592624
1.131091694
1.069323163
1.031038361
1.035291021
0.8362283319
0.7438208105
0.7497579715
0.4158844322
0.3055981865
0.3085936428
0.07244700271
0.06623172796
0.06497625017
1.143912142
1.145471351
1.145789813
1.146989884
1.14787212
1.148486621
1.146926761
1.138198
1.141054169
1.133480902
1.123225009
1.124871697
1.055305384
1.01398707
1.018250775
0.813359284
0.7211230917
0.7266458045
0.4006913767
0.2945435026
0.2971730839
0.07406485375
0.07149734605
0.070080994
1.143376117
1.144806526
1.145127422
1.146101577
1.146574633
1.147232348
1.144877565
1.134060766
1.137202581
1.12824326
1.116288011
1.118073257
1.040983527
0.9969801392
1.001222274
0.7917632417
0.6999563048
0.7051193664
0.3870479183
0.284823305
0.2871609364
0.07597811403
0.07722703117
0.07567594387
1.142796229
1.144114786
1.144451282
1.145163348
1.14517675
1.145900082
1.142631962
1.129534965
1.132965521
1.122535525
1.108827097
1.110739145
1.02647518
0.9800933075
0.9843024609
0.7712558517
0.6800613844
0.6849400921
0.3746076021
0.2761027147
0.2782638253
0.07820198405
0.08324326207
0.08157617532
1.142238478
1.143379107
1.143759709
1.144147239
1.143639041
1.144493822
1.140129397
1.124617175
1.128347402
1.116379571
1.100890094
1.102919395
1.011852411
0.9633495723
0.9675361489
0.7516552112
0.6611991747
0.6658928288
0.3630692504
0.2681168693
0.2701851004
0.08073345114
0.08942075739
0.08762191372
1.14155948
1.142553016
1.143097294
1.142972004
1.141808104
1.143047096
1.137108186
1.118976963
1.123360808
1.109735226
1.092440652
1.094708579
0.9970067647
0.9465738322
0.9510897994
0.7326274683
0.6430425704
0.6480699794
0.3522347432
0.2606573275
0.2628644591
0.08361366818
0.09570344872
0.09370947585
0.396603607
0.4023949503
0.45844225
0.264101357
0.2773062981
0.3332868617
0.5351976842
0.5373963481
0.5272004874
0.4097635466
0.4304179011
0.4161978405
0.5162075236
0.5042704863
0.4970147761
0.3511825298
0.3564859108
0.4129439778
0.4846696079
0.4327658807
0.3957977543
0.3403741874
0.3448900151
0.02183746737
0.4030379352
0.3984413545
0.3638880211
0.01105724943
0.01007589205
0.005574603115
0.01063558563
0.01551869162
0.01442378258
0.02763966202
0.02127002813
0.01682169731
0.02597930947
1.087954927
1.077496402
1.16462319
0.9149619677
0.9905624054
1.001065217
0.8001794775
0.7899889357
0.8484625139
0.6927993513
0.7383508089
0.7479449355
0.6238400993
0.6184865361
0.6528978569
0.5663796667
0.5896312763
0.5926815634
1.130784157
1.117257032
1.166786731
0.9599679397
1.034310196
1.048379662
1.009831333
1.022815761
0.9473920705
0.8496513997
0.8351810476
0.8944572535
0.7313861389
0.7810333713
0.7950951662
0.7578471479
0.7683684046
0.7197484574
0.6539872076
0.6433808769
0.6854015115
0.5662484245
0.6058724282
0.6136802775
0.5958986875
0.6005343295
0.5664193231
0.3737065833
0.3793836713
0.4358332199
0.2614895089
0.3205912392
0.3151445724
0.3317918148
0.3262747075
0.2670499936
1.16921426
1.168982842
1.168111748
1.037021034
1.112189722
1.145802381
1.069120923
1.084824645
1.010305011
0.9458124313
0.9139254121
0.972651055
0.8070446812
0.8584603444
0.890758753
0.8158736983
0.8325089209
0.7804318381
0.7459289545
0.7121038691
0.7580156112
0.6231939329
0.6686628681
0.7031513044
0.6283774686
0.6430912235
0.5971013015
0.2069888837
0.2021145798
0.1457217806
1.170017467
1.16985117
1.168959377
1.167854853
1.169600664
1.169801764
1.169100367
1.169360991
1.146034113
1.111763206
1.061648064
1.122827969
0.9639499308
1.01023041
1.058598081
0.9260774401
0.9662702085
0.9182016566
0.9355568908
0.879482551
0.9209651967
0.7996487514
0.8410312589
0.8986560608
0.7430107543
0.7888604581
0.7461420226
0.7347224668
0.7392640726
0.7605564786
0.2541064937
0.5262811584
0.5124357983
0.5384290934
0.5525561134
0.2918334842
0.01534436
0.01482927913
0.0561019408
0.0452630698
0.04768772637
0.03765025695
0.04118470687
1.170358444
1.170318587
1.169424117
1.168711959
1.170183554
1.170244579
1.169957568
1.170093502
1.168575481
1.160701277
1.160388166
1.165579473
1.141080308
1.152529622
1.152959017
1.116006478
1.151988617
1.138614234
1.100746994
1.099844191
1.124486621
0.9980835903
1.061365546
1.062426597
0.964614246
1.044365539
0.9970489751
0.7353907239
0.7309078384
0.8937649862
0.2403903073
0.5014135007
0.5065519464
0.5034634101
0.5005166037
0.2349150626
0.01752564142
0.01660326619
0.06319953783
0.04534358947
0.04241481417
0.04879878421
0.04787713249
1.170230515
1.17031128
1.169553459
1.168755299
1.17013869
1.170012435
1.17024666
1.170215364
1.168848236
1.160901965
1.161077271
1.165869216
1.142960781
1.153761276
1.15361804
1.153371503
1.153549203
1.142605241
1.10362073
1.103273538
1.127104636
1.005803201
1.065971574
1.066694764
1.063814023
1.065034871
1.003969718
0.7618019207
0.7553574153
0.9088741805
0.2890865431
0.5346864273
0.5445356643
0.5144403011
0.5243336976
0.2749625122
0.02520027782
0.02274858355
0.1037868873
0.03387726617
0.03253636207
0.03896049719
0.03625602114
1.169569883
1.169787182
1.169240857
1.167775827
1.169382747
1.169091372
1.169841228
1.169632502
1.168105491
1.159070075
1.15970779
1.164673839
1.141463598
1.152304284
1.151448532
1.153457201
1.152986989
1.142313447
1.099580043
1.101492666
1.12548532
1.00579106
1.064368401
1.061645691
1.066645937
1.066116423
1.007787608
0.7635403246
0.7684165936
0.9133469222
0.3313747601
0.5601542939
0.5573758959
0.5527130069
0.5580135272
0.3251227796
0.03494121964
0.03277272431
0.1486605501
0.03183054556
0.03204878013
0.03195313841
0.03179933568
1.168368066
1.168715379
1.168453322
1.1659717
1.167977338
1.167530767
1.168759113
1.168387455
1.166493473
1.155788229
1.156720565
1.162371704
1.135962364
1.148307046
1.14706303
1.150496069
1.149450511
1.137556
1.086434624
1.090167036
1.117705123
0.9821638163
1.047836704
1.042215533
1.057984841
1.053105182
0.9901189739
0.7071578651
0.725072007
0.8800769455
0.3163387104
0.5207052502
0.5037075109
0.5496007088
0.5379284084
0.327543221
0.03850210275
0.03797853241
0.1478037949
0.0333854952
0.03424217255
0.03224249383
0.03259652955
1.166717692
1.167165268
1.167256276
1.16346055
1.165997946
1.165430911
1.167050282
1.166538629
1.164146249
1.15134766
1.152556757
1.159168076
1.128197957
1.142728399
1.141092873
1.145717484
1.14427184
1.130350755
1.06868869
1.073563552
1.106493752
0.9445411526
1.022946022
1.015634418
1.036212445
1.029799038
0.9549653766
0.6328192392
0.6513876567
0.8230658529
0.2727964831
0.4562049046
0.4415914871
0.4872517051
0.4714160877
0.2831427835
0.0399950539
0.03968787133
0.119834772
0.03692453013
0.03787122349
0.03511271671
0.03600401923
1.164733666
1.165256425
1.165741844
1.160412461
1.163592677
1.162938144
1.164840033
1.164226999
1.161215535
1.145970115
1.147388649
1.155247431
1.118307351
1.135697469
1.133751023
1.13937208
1.137572287
1.120956934
1.0461948
1.052282018
1.092159682
0.8943930041
0.9905954827
0.9811131925
1.00782798
0.9994935107
0.9081837767
0.564485094
0.5803514334
0.7535987329
0.235214871
0.4011582506
0.3889551666
0.4275298073
0.4140247161
0.2439263558
0.04114377567
0.04083773567
0.1009731124
0.04097580849
0.04210318022
0.03885495719
0.03988181205
1.1624827
1.163068308
1.163976319
1.156955578
1.160861197
1.160131627
1.162264532
1.161572269
1.157855741
1.139816349
1.141429333
1.150775173
1.106579357
1.127482105
1.125235279
1.131734481
1.129646645
1.109692176
1.018014008
1.025692208
1.074817266
0.8351104442
0.9491447657
0.9375106149
0.9710216529
0.960347356
0.8501008834
0.5095572411
0.5221020111
0.6872098088
0.2058250108
0.3564108892
0.346863991
0.3774168575
0.3665923306
0.212336542
0.04240567197
0.04210382818
0.08828493245
0.04586795543
0.04726501207
0.04330122923
0.04454555811
1.159993815
1.160638002
1.162002666
1.153106931
1.157832252
1.157025601
1.159383443
1.158617101
1.154106112
1.132758857
1.134625532
1.145744258
1.092518608
1.117909837
1.115231847
1.12289843
1.120461343
1.096315783
0.9832139053
0.9924353976
1.053308222
0.7783836906
0.9013219793
0.8892472356
0.9255731509
0.913469604
0.791897359
0.4659705634
0.4759655642
0.6324303686
0.1846933853
0.3217503664
0.3144352841
0.3379421096
0.3295844464
0.1893368884
0.04361245188
0.04330174895
0.08055490513
0.05190195984
0.05361333944
0.04873505222
0.05027985636
1.157261833
1.157968735
1.159841085
1.148789953
1.154479448
1.153584441
1.156197794
1.155349831
1.149914341
1.124404464
1.126642243
1.139993175
1.075003618
1.106311381
1.103004743
1.112414483
1.109445317
1.07974907
0.9447736774
0.954469319
1.026701568
0.7293185399
0.8542516007
0.8431393257
0.8773340059
0.8656578911
0.7408630477
0.4308619409
0.4389700875
0.5875857143
0.1694432356
0.2950168229
0.2892952453
0.307559264
0.3010898713
0.1728200189
0.04504065258
0.0446483951
0.07553965422
0.05928844056
0.0613261706
0.05542180072
0.05731624732
1.154252466
1.155034438
1.157487511
1.143862884
1.150738417
1.14972757
1.152663795
1.151715513
1.145161855
1.114262944
1.116987232
1.133244988
1.05375861
1.092017077
1.088002719
1.099520988
1.095858463
1.059374296
0.9067915955
0.9161017464
0.9966304898
0.6873726348
0.8116326812
0.8017226645
0.8323330204
0.8218340038
0.697272787
0.4021004739
0.4087833
0.5501692571
0.1580101498
0.2739582027
0.2693859074
0.2838757983
0.2787757256
0.1605786654
0.04688704488
0.0463807516
0.07218801532
0.06775616279
0.06997655794
0.06342232431
0.06556790291
1.150900175
1.151775026
1.154915994
1.138124296
1.146482417
1.145330341
1.148686535
1.147609336
1.139647432
1.102080393
1.105313791
1.125183756
1.029909884
1.075033297
1.070443102
1.083826382
1.079499504
1.036027991
0.8712327779
0.8798502967
0.9656593438
0.651133197
0.773681099
0.7648622338
0.7921008271
0.7827585919
0.6597218429
0.3781598555
0.3837617981
0.518461819
0.1485294593
0.2569026162
0.2531019994
0.2650281466
0.2608790552
0.1507664337
0.04921547189
0.04858218457
0.07028174111
0.07678142119
0.07907727353
0.07222626682
0.07449816748
1.147127777
1.148115264
1.152082741