/*--------------------------------*- C++ -*----------------------------------*\
| =========                 |                                                 |
| \\      /  F ield         | OpenFOAM: The Open Source CFD Toolbox           |
|  \\    /   O peration     | Version:  v2012                                 |
|   \\  /    A nd           | Website:  www.openfoam.com                      |
|    \\/     M anipulation  |                                                 |
\*---------------------------------------------------------------------------*/
FoamFile
{
    version     2.0;
    format      ascii;
    class       volScalarField;
    location    "0.88";
    object      nut;
}
// * * * * * * * * * * * * * * * * * * * * * * * * * * * * * * * * * * * * * //

dimensions      [0 2 -1 0 0 0 0];


internalField   nonuniform List<scalar> 
3019
(
0.07669093166
0.2097986421
0.2834093989
0.3684722568
0.471909427
0.6153591075
0.8405420787
1.10565693
1.154512072
1.150105508
1.148182369
1.14775128
0.1390448032
0.3102722995
0.3946666376
0.4782054784
0.5751134035
0.7108106547
0.9169625277
1.155465786
1.155275937
1.150533436
1.148380819
1.147866573
0.1951094198
0.4763190806
0.6052181751
0.6557926701
0.7314115591
0.8498448744
1.036642565
1.163627707
1.155962315
1.150976333
1.148671412
1.148107755
0.2105286924
0.484388308
0.7406587594
0.9340476036
0.9503977451
1.033438265
1.159387864
1.164043789
1.156542903
1.151432083
1.14902775
1.148436288
0.2084460353
0.4789730943
0.7345303567
0.9315343828
1.058495886
1.126947495
1.159537198
1.16415835
1.156935193
1.151786649
1.149337999
1.148740844
0.2005431905
0.4680729006
0.7272679028
0.9285579812
1.057467294
1.126366247
1.159098592
1.163955092
1.157139823
1.152043638
1.149617525
1.149027442
0.1969748073
0.4599107132
0.7230878007
0.926343199
1.055810164
1.125223475
1.158297014
1.163486306
1.157125589
1.152133292
1.149760206
1.149186936
0.1999530778
0.4572354167
0.7188100467
0.9238228418
1.0538919
1.123768849
1.157245071
1.162815043
1.15699584
1.152166176
1.149859841
1.149300821
0.2030636667
0.4550416332
0.7134792865
0.9210384271
1.051883641
1.122157569
1.156031202
1.16200341
1.15670397
1.152046091
1.149811319
1.149267337
0.2061057225
0.4535987108
0.7085619749
0.9177950398
1.049780556
1.120463788
1.154722323
1.161104012
1.156378851
1.151921706
1.149753736
1.149215053
0.2094951619
0.453134998
0.7046885546
0.9141682619
1.047475988
1.118696192
1.153359515
1.160157075
1.155943909
1.15166704
1.14955761
1.149020997
0.2133181761
0.4535842197
0.7018061163
0.9104429401
1.044915645
1.116838814
1.151963793
1.159189943
1.15554092
1.151462774
1.149400973
1.148855369
0.2174683945
0.4547033038
0.6996764708
0.9068194214
1.042140182
1.114886069
1.150547298
1.158220558
1.155048864
1.151135793
1.149111374
1.148554384
0.2217823232
0.4562614772
0.6980695082
0.9033723773
1.039231149
1.112851914
1.149120835
1.157260288
1.154634972
1.150907323
1.148910596
1.148332887
0.2261272511
0.4581116179
0.6968139536
0.9001152883
1.03626402
1.110761612
1.147695867
1.156317196
1.154128451
1.150547879
1.148571774
1.147973558
0.2304067128
0.460153675
0.695799998
0.897042631
1.033294614
1.108641634
1.146282812
1.155396476
1.153738903
1.150329094
1.148366321
1.147739624
0.2345566526
0.4622708752
0.6949672684
0.8941511146
1.03036441
1.106515996
1.144890451
1.154501842
1.153239951
1.149963089
1.148011071
1.147358779
0.238566569
0.4644191812
0.6942959377
0.8914442012
1.027504789
1.104405108
1.143525848
1.153636379
1.152890883
1.149768483
1.147820641
1.147135281
0.2424618549
0.4665961314
0.6937854163
0.888928443
1.024740133
1.102326741
1.142194782
1.152801098
1.152418257
1.149421096
1.147479317
1.146767053
0.2462601059
0.4688177419
0.6934401305
0.8866111587
1.022090372
1.100296376
1.140901924
1.151999198
1.152103615
1.149241486
1.147299009
1.146551284
0.2499895595
0.4710924923
0.6932661378
0.8844997968
1.019571917
1.098326945
1.139651275
1.151227497
1.151694644
1.148954217
1.147015398
1.146242897
0.2536870243
0.4734330401
0.6932703723
0.8826019793
1.017199031
1.096431698
1.138449591
1.150495326
1.151362484
1.148744583
1.146804124
1.145994071
0.2573827906
0.4758551444
0.6934601212
0.8809238266
1.01498343
1.094621243
1.137315211
1.149803405
1.151116473
1.148590617
1.146650716
1.145820739
0.261090109
0.4783567219
0.6938340614
0.8794671643
1.012934128
1.092902568
1.136312655
1.149215751
1.150728508
1.148355717
1.146414843
1.145539674
0.05709674632
0.0719575434
0.1840878484
0.09936230206
0.05876768522
0.1254087785
0.2498736999
0.1873002427
0.1448235225
0.1119321333
0.1459547973
0.08387845539
0.08217406663
0.09586537822
0.1616912243
0.1494685986
0.03853486701
0.06982421102
0.03495122091
0.04678803636
0.1175872137
0.07464296526
0.1888660247
0.4005447849
0.2818979522
0.1232402809
0.1223962195
0.0506885205
0.2015013168
0.1679576835
0.0993111643
0.1205612182
0.00679703115
0.02367101617
0.04036088106
0.08906365257
0.01090123136
0.01463559253
0.04651320808
0.0107720241
0.01011927882
0.01483844944
0.01088023602
0.01049412679
0.02540714424
0.01694517659
0.03605623675
0.02847852045
0.01039898001
0.006947326629
0.02658807602
0.009958667413
0.01053680908
0.1916725612
0.2464588874
0.04910213384
0.01648073523
0.02439856482
0.01120747962
0.01837553867
0.03552711249
0.0720429338
0.01035423012
0.007165954802
0.007243352175
0.01059734489
0.01021100298
0.04578858001
0.0386076298
0.01005204516
0.01023628232
0.0100305006
0.01021284764
0.006900882546
0.01016908955
0.01016549103
0.01289981741
0.01064742421
0.0106680477
0.0103330035
0.01011029437
0.0117621041
0.01124565911
0.01073420613
0.0104367751
0.01077299426
0.01324783263
0.0122245485
0.01015413343
0.01113806606
0.01092107067
0.01367144037
0.01211905479
0.009936785368
0.2648471266
0.3259879552
0.3482906261
0.4231398142
0.4515452421
0.5494384198
0.09050784888
0.1233498291
0.1234023437
0.2757079848
0.3407148373
0.2644726047
0.3604022111
0.4233681234
0.3455667481
0.4446570141
0.5187182008
0.4435684337
0.5459422171
0.6350769384
0.5697748495
0.1564342863
0.2815753396
0.2171766062
0.4715552805
0.5277980452
0.3764439365
0.5409251156
0.5860899298
0.4571455538
0.6036947192
0.6629878823
0.5491818876
0.6868409471
0.7669311787
0.6651347511
0.1318764327
0.1182193523
0.2086501619
0.4149686964
0.4057635451
0.4839229732
0.6814121403
0.5965573568
0.7412885279
0.8491168012
0.6408728482
0.8487974589
0.8746702014
0.709400959
0.8891709683
0.9514517439
0.8098171117
0.1356116627
0.1342271528
0.2099264201
0.4134821583
0.4159784429
0.4812367206
0.6766244892
0.6809833234
0.7363676828
0.8902443067
0.8931339747
0.9324100672
1.033032657
0.9396519665
1.058595346
1.114260951
1.007972525
0.1309131473
0.1348201266
0.2023924743
0.4031748885
0.4111810261
0.4709105837
0.6685741101
0.6746698355
0.7289278565
0.8858856619
0.8890769399
0.929139417
1.032018088
1.032814613
1.057802459
1.113770697
1.114219031
0.1278594238
0.1296507547
0.1971173697
0.3945928437
0.400487798
0.4613733566
0.6621583836
0.6666611203
0.7238548321
0.8832246326
0.8850174831
0.9269375421
1.030343085
1.031650383
1.056259489
1.112630577
1.113531255
0.1322292897
0.1283214735
0.1990836134
0.3923016811
0.3933709741
0.4578569956
0.6575886567
0.6611735573
0.7200394018
0.8805787443
0.8825959266
0.9244706179
1.028336455
1.02985776
1.054383335
1.111131324
1.112279623
0.1378388737
0.1337083963
0.2023173117
0.3912092499
0.3920125391
0.4555324929
0.6521610798
0.6562313541
0.714820098
0.8774658281
0.8798517467
0.9217715397
1.026231498
1.027814391
1.052391395
1.109452017
1.110722656
0.1429486836
0.1391398841
0.2053207712
0.3905231001
0.3909797915
0.4538716989
0.6474331104
0.6508739287
0.7097012352
0.8737428378
0.8765871139
0.9186509918
1.024027244
1.025693493
1.050320785
1.107683428
1.10901636
0.1480086541
0.1442053565
0.2086078542
0.3905950628
0.3904566751
0.4531575927
0.6439415223
0.6464396099
0.7055557876
0.8697010528
0.8727421938
0.9150951497
1.021582537
1.023443159
1.048075761
1.105833112
1.107229453
0.153211602
0.1492953204
0.2123245164
0.3915445713
0.3907525432
0.4533981457
0.6415847034
0.6432550733
0.7024462031
0.8657605645
0.8686935348
0.9113698376
1.018829809
1.020921885
1.045578614
1.10387193
1.105354378
0.1584453655
0.1545240837
0.2164097102
0.3932254687
0.3919026379
0.4543754908
0.6400802841
0.6411389942
0.7001515604
0.8621158132
0.8648184283
0.9077100799
1.015833562
1.018098947
1.042849838
1.101786163
1.103362218
0.1635899051
0.1597419379
0.2206966744
0.3954405065
0.3937398481
0.4558393774
0.6391635126
0.6398047541
0.6984327363
0.8587837466
0.8612542903
0.9042162415
1.012703952
1.015059206
1.039966414
1.099591304
1.101246807
0.1686061165
0.1648577726
0.2250443717
0.3979698635
0.3960493848
0.4576281644
0.6386303279
0.6390004389
0.6971017531
0.8557252895
0.8579949667
0.9009119499
1.009533613
1.011912093
1.03700787
1.097319524
1.099029449
0.17346549
0.1698366458
0.2293476375
0.4006508227
0.398633309
0.459632489
0.6383430102
0.6385396379
0.6960349665
0.8528998357
0.8549982818
0.8977938687
1.006384296
1.008742291
1.034034768
1.095004826
1.096743847
0.1781482647
0.17465371
0.2335338435
0.4033622959
0.4013287409
0.4617380202
0.6382182628
0.6382987049
0.6951600676
0.8502809466
0.8522262696
0.8948569118
1.00329771
1.005605258
1.031091427
1.092677453
1.094423271
0.1826479424
0.1792886857
0.237577453
0.4060633196
0.4040396798
0.4638805491
0.6382258715
0.6382082682
0.6944488261
0.84785958
0.8496572054
0.8921032828
1.00030489
1.002539672
1.028211645
1.090363159
1.092096991
0.1869897724
0.1837448371
0.2415010567
0.4087580908
0.4067373249
0.4660482175
0.6383641429
0.6382483162
0.6938978034
0.8456364488
0.8472852076
0.8895390654
0.9974291849
0.99957423
1.025421229
1.088083516
1.089789466
0.1911821263
0.1880456108
0.2453255735
0.4114647133
0.4094330579
0.4682585859
0.6386397427
0.6384201976
0.6935107108
0.8436158036
0.8451122968
0.8871714956
0.9946893656
0.9967309226
1.022741111
1.085857234
1.087521534
0.1952477471
0.1921950281
0.2490773008
0.4142026939
0.412145169
0.470519961
0.6390597871
0.6387314256
0.6932934205
0.8418030856
0.8431431304
0.8850079274
0.9921008497
0.9940276239
1.020188409
1.083699828
1.085311123
0.1992407511
0.1962224255
0.2527993542
0.4169859566
0.4148900125
0.4728475107
0.6396323967
0.639188078
0.6932529832
0.8402049324
0.8413834374
0.8830561702
0.9896770973
0.9914791561
1.017777967
1.081625904
1.083173226
0.2032178464
0.2001761255
0.2565381198
0.4198388624
0.4176777244
0.4752675339
0.6403742141
0.6397996894
0.6934008683
0.8388285472
0.8398397801
0.8813237589
0.9874294088
0.9890984104
1.015522345
1.079648396
1.081122314
0.2072310145
0.2040972166
0.2603420157
0.4228036443
0.4205201417
0.47781905
0.6413120453
0.6405760526
0.6937568398
0.8376875507
0.8385175309
0.8798231666
0.9853707491
0.9868957827
1.013435258
1.077780862
1.079170429
0.2115883275
0.2080051044
0.264504764
0.4261228644
0.4234189315
0.4807158195
0.6425622003
0.641521205
0.6943885401
0.8367492539
0.8374165522
0.8785004663
0.9834206091
0.9848791068
1.011436853
1.075961745
1.077325916
0.05406624521
0.0439427532
0.04611946399
0.09270087521
0.08807724279
0.0668254909
0.1680871906
0.1482782617
0.1564832724
0.09159644474
0.03995131425
0.02742720106
0.03612304506
0.06020787371
0.1537648926
0.14253751
0.109505058
0.2171877439
0.1828379715
0.2207038622
0.1603347423
0.1753114711
0.2097922655
0.1247931011
0.1100142899
0.1429491445
0.1317329869
0.1286182712
0.1284976495
0.1421971512
0.02962315835
0.0417265052
0.06790374076
0.0696604381
0.08574426083
0.08096895367
0.06322557762
0.06607411596
0.1281084507
0.1261354082
0.09345829913
0.1569774831
0.1410122835
0.1452239157
0.1337987846
0.1365592493
0.1530714885
0.02648426871
0.02959929028
0.04106941036
0.01586323001
0.01449859979
0.01073936557
0.06538360761
0.03892783811
0.0448983631
0.03227434066
0.02040205751
0.0232894468
0.07349352223
0.06833823978
0.03849915191
0.1131180634
0.0905451183
0.09526762021
0.08551453411
0.1081070221
0.05424910801
0.05914734882
0.07902272513
0.02021757206
0.01799609649
0.04833497816
0.04739033794
0.267291797
0.2599295818
0.1635819489
0.3907950406
0.3294546008
0.335748223
0.243980803
0.3030085596
0.3283620777
0.1234474208
0.1095986189
0.1139042947
0.1002126752
0.1048079119
0.1229674172
0.06175087465
0.08315912329
0.07822964891
0.1871856189
0.1664073276
0.1781698226
0.1502864274
0.1574705987
0.1759251015
0.1041842394
0.1360174084
0.1301096201
0.1155427705
0.07693539678
0.08081990368
0.02083291423
0.01216798571
0.01381069965
0.05324509262
0.05167623951
0.05589811329
0.05450730311
0.0385203872
0.08714799848
0.07168568885
0.07258079024
0.01166043228
0.01841961697
0.01585583995
0.02424384852
0.02138633149
0.01305117753
0.0440125088
0.03264840269
0.03553366427
0.02261101826
0.0140452729
0.01580442852
0.01148495199
0.01246469537
0.01962291343
0.03387885991
0.02277507179
0.02540448212
0.01803659019
0.02031175731
0.03085017274
0.01581337192
0.01780798703
0.02923188643
0.2129037623
0.1998472444
0.1793976369
0.2311248142
0.2129723584
0.2270444206
0.0383079941
0.04094132483
0.05183059884
0.01857623206
0.0296562738
0.0270292226
0.03536349685
0.03276874309
0.02148252671
0.04769679348
0.04525265709
0.03250535928
0.06719362495
0.05775482902
0.0578792381
0.05374640596
0.06546539899
0.02554617396
0.02301886071
0.04309067044
0.03358695296
0.03593896372
0.02824035575
0.03090081182
0.040742599
0.5851071775
0.6955414892
0.8126827335
0.938113943
1.074941097
1.159008067
0.08147534538
0.1017066115
0.09738049685
0.2266614293
0.2471963523
0.2280360213
0.3049095856
0.3260497688
0.3035298175
0.390692558
0.4142391371
0.3920414208
0.4939285208
0.5241788731
0.50238225
0.6717265046
0.7770328681
0.729954163
0.8742032528
0.989785852
0.9623047799
1.107033255
1.159971371
1.159484641
0.1468822967
0.1872359729
0.1698009841
0.3543971889
0.3742671482
0.3302375792
0.4361382053
0.4556637378
0.4154001977
0.5151768666
0.537110673
0.5007240167
0.609008591
0.6371028912
0.6044713875
0.7944756286
0.8887338465
0.8299472795
0.9709321105
1.076388327
1.029156757
1.163161505
1.160789233
1.160415296
0.2008558649
0.2785718653
0.2733448346
0.4799199718
0.5495033916
0.5465481036
0.681097776
0.6847078296
0.6161515577
0.713886348
0.7272666811
0.6721393277
0.7795868869
0.8012065062
0.7548502913
0.9635709398
1.034545757
0.9559265528
1.11525224
1.1634034
1.135727541
1.163799106
1.161424972
1.161164352
0.2112175516
0.2849146583
0.2852752118
0.4840092798
0.5517313632
0.5523790864
0.7394966019
0.7950864884
0.7961387442
0.9340178728
0.9712618226
0.9306793988
1.018118184
1.027630095
0.9638660419
1.126969369
1.150047916
1.127536373
1.159554156
1.16379456
1.163719536
1.164155538
1.161831167
1.161681378
0.20652886
0.2770813996
0.2795818256
0.4764651348
0.5440336514
0.5463812394
0.7326191903
0.7888219456
0.7905241464
0.930682407
0.968940011
0.9695517515
1.0583254
1.080259099
1.080409752
1.12657897
1.149884265
1.150087586
1.159371863
1.163655358
1.163773817
1.164105886
1.1619632
1.161957989
0.1989630008
0.2676876256
0.2697640738
0.4654197334
0.5338119369
0.5362686618
0.7259174264
0.7830533125
0.7842253641
0.9280483843
0.9669684044
0.9674423594
1.057092891
1.079139873
1.079481022
1.125548289
1.149095322
1.149544693
1.158735605
1.16314927
1.163439505
1.163759403
1.1618294
1.161950796
0.197203976
0.26372368
0.2639921168
0.4591424885
0.526959068
0.5280375097
0.7221929551
0.7800788285
0.7808412213
0.9257299088
0.9647892133
0.9653620446
1.055344451
1.077524237
1.077956699
1.124152734
1.147954017
1.148558653
1.157796537
1.162372084
1.162786696
1.163179019
1.161477918
1.161705271
0.2007712641
0.2650118431
0.2647092498
0.4566335018
0.5229284577
0.5238875791
0.7175094745
0.7761703675
0.7772733767
0.9231583947
0.9624216975
0.9630231053
1.05339484
1.075690395
1.076160107
1.122569423
1.146603141
1.147297751
1.156653697
1.161411985
1.161908446
1.162428571
1.160963514
1.161267227
0.203805248
0.2662478219
0.2659188958
0.4545957242
0.5196250598
0.5203606713
0.7121675205
0.7712806527
0.772536631
0.9202733223
0.959894822
0.9605525957
1.051369835
1.073766719
1.074254239
1.120892386
1.145135542
1.145879987
1.155385526
1.160338403
1.160884676
1.161566085
1.160334065
1.160691556
0.206911393
0.2678403647
0.26738739
0.4533869245
0.5173888724
0.5178384631
0.7074897644
0.7664842968
0.7676265893
0.9169130486
0.9570114159
0.9577725663
1.049226823
1.071750069
1.072267062
1.119143727
1.143599805
1.144374546
1.154046032
1.159199551
1.159773911
1.160637755
1.159637536
1.160023433
0.2104102161
0.2701020427
0.2694688126
0.4531689137
0.5162897105
0.5164662828
0.703882843
0.7624196315
0.7633586484
0.9132352323
0.9537412735
0.9545866612
1.046859321
1.069565837
1.070130964
1.117309745
1.142013919
1.142812692
1.152664922
1.158026366
1.15861511
1.159677247
1.158902579
1.159305008
0.2143326792
0.2730354247
0.2722489831
0.453812699
0.5161257926
0.5160941872
0.7012123021
0.759134569
0.7598903813
0.9095225806
0.950262687
0.9511408804
1.044238741
1.067176053
1.067792175
1.115380254
1.14038374
1.141204004
1.151257468
1.156838077
1.15743268
1.158706355
1.158156668
1.158560141
0.2185375512
0.2764162787
0.2755445494
0.4550579673
0.5166235173
0.5164511161
0.699233335
0.7564698736
0.7570880346
0.9059397546
0.9467533451
0.9476267961
1.041422022
1.064608173
1.065263788
1.113364499
1.138717109
1.139554272
1.149834587
1.155647629
1.15624206
1.157739825
1.157408617
1.157811771
0.2228705197
0.2800199933
0.2791046139
0.4567014657
0.5175506624
0.5172882306
0.6977277282
0.7542505907
0.7547715865
0.902540248
0.9433149486
0.9441647062
1.038492193
1.061921404
1.06260086
1.11128594
1.137027082
1.137874043
1.148407507
1.154465241
1.155054587
1.156786627
1.156674222
1.157066419
0.2272070052
0.2837367603
0.2828015053
0.4586091321
0.5187430529
0.5184285678
0.6965409605
0.7523482761
0.7527992476
0.8993300169
0.9399935984
0.9408116657
1.035519994
1.059174354
1.059864021
1.109171278
1.135328634
1.13617796
1.146987355
1.153299303
1.153879515
1.155854003
1.155952349
1.156337926
0.2314587841
0.2874672301
0.28653899
0.4606791667
0.5200689737
0.51972912
0.6955762033
0.750682266
0.7510794605
0.8963027031
0.9368093752
0.937591753
1.032556971
1.056414028
1.057103169
1.107045159
1.133635572
1.134480527
1.14558386
1.152156459
1.152724376
1.154945492
1.155254556
1.155623952
0.2355728512
0.2911276182
0.2902202173
0.4628058425
0.5214720883
0.521114575
0.6947845796
0.7492115659
0.7495619015
0.8934568484
0.9337767007
0.9345199157
1.02964181
1.053677605
1.054357781
1.104928998
1.131959792
1.132794578
1.144205035
1.151041914
1.151594754
1.154065742
1.154576616
1.154936407
0.2395529654
0.2947080619
0.2938184082
0.4649601984
0.5229573958
0.5225759459
0.694153243
0.7479241717
0.7482289134
0.8907970502
0.9309088051
0.9316097124
1.026803819
1.05099415
1.051658747
1.102841077
1.130311251
1.131130921
1.142857542
1.149959951
1.150495374
1.153215618
1.153926323
1.154267732
0.2434249179
0.2982269304
0.2973502008
0.4671481421
0.5245401035
0.5241358904
0.6936835853
0.7468204584
0.7470789832
0.8883303156
0.9282176337
0.9288732847
1.024066265
1.048387374
1.049030777
1.100797514
1.128698839
1.129498422
1.141547214
1.148914189
1.149429253
1.152399972
1.153304124
1.153631217
0.2472082104
0.3016999244
0.3008299897
0.4693821878
0.5262117627
0.5257849002
0.6933806363
0.7459041377
0.7461153397
0.8860638362
0.9257135884
0.9263215119
1.021447924
1.045876675
1.046494414
1.098811676
1.127132105
1.127905761
1.140278986
1.147907836
1.148399541
1.151617232
1.152705281
1.153014403
0.2509395277
0.3051529657
0.3042776993
0.4716746139
0.5279693094
0.5275198237
0.6932507043
0.7451808288
0.7453430821
0.884005223
0.9234064406
0.9239642373
1.018964632
1.043478434
1.044066622
1.096896735
1.125618782
1.126362261
1.139056631
1.146942773
1.147407221
1.150874284
1.152152385
1.152432639
0.2546638817
0.3086204625
0.3077190265
0.4740440544
0.5298292258
0.5293478229
0.693302658
0.7446579309
0.7447685687
0.8821621595
0.9213052397
0.9218106861
1.016630142
1.041207193
1.041762387
1.095063918
1.124159917
1.124875218
1.137879374
1.146017271
1.146457887
1.150162347
1.151600587
1.151870816
0.2584291383
0.3121452256
0.3111767513
0.4765239786
0.5318152182
0.5312784896
0.6935515576
0.744347361
0.7443975244
0.8805433445
0.9194191262
0.9198682003
1.014456731
1.039075914
1.039594288
1.093324293
1.122732798
1.123463164
1.136721568
1.145107068
1.145563886
1.149467906
1.151111399
1.151352795
0.2622851401
0.3157804811
0.3146606673
0.4791621931
0.5339733451
0.5333112897
0.6940181574
0.7442699079
0.7442292455
0.8791633936
0.9177603
0.9181408801
1.01245655
1.037097785
1.037571897
1.091629131
1.121282171
1.12220428
1.135558701
1.144204413
1.144783108
1.148786727
1.150591241
1.150910605
0.1765085232
0.1684712554
0.1730734351
0.09799051432
0.07553813825
0.08256327916
0.04983207818
0.05024720612
0.06358110363
0.1829907838
0.1845228731
0.194139088
0.1365435743
0.1428291925
0.1116056557
0.1084359895
0.09487632263
0.05853578951
0.05548388474
0.04439014776
0.0354353228
0.03368061423
0.05112185914
0.06507207739
0.06029950685
0.100082693
0.1120534683
0.1122153407
0.03905902466
0.03794235864
0.2844054081
0.2675767039
0.2489083352
0.3082472425
0.2875375393
0.3051128742
0.3718137418
0.3538588124
0.3302819895
0.4053796143
0.3787480516
0.3965722877
0.4822056119
0.4647158186
0.4339293049
0.5334575948
0.4977720552
0.5150380572
0.1055173647
0.1050544915
0.08620296586
0.1240973558
0.1179717664
0.115481008
0.114044912
0.1150210591
0.1257113777
0.2959568164
0.2694191275
0.2485720498
0.3106064079
0.2870243683
0.3165133582
0.243607387
0.262974483
0.285306923
0.3810520109
0.3510670585
0.3302929253
0.3946611713
0.3722662386
0.402280629
0.3242875496
0.3471009917
0.3686470145
0.4688075792
0.4404156075
0.4168449995
0.4906570083
0.4648790539
0.4929353776
0.4169725855
0.4397892524
0.4657730678
0.5754631257
0.5479406843
0.518598687
0.6113504335
0.579265756
0.6060652351
0.5347487384
0.5558600436
0.5876157027
0.1978129811
0.1923696222
0.1532695566
0.1944588665
0.2158428607
0.2397857022
0.4954413845
0.4288293034
0.4108716626
0.4692155754
0.450714769
0.5131144508
0.3529804222
0.397407783
0.4188098661
0.5556658638
0.5021580139
0.484577534
0.5373693321
0.5200394869
0.5706989906
0.4364881927
0.475240696
0.4941687456
0.6223774655
0.5771705916
0.5568832378
0.6208920857
0.5986546744
0.642046188
0.5240042436
0.5599382506
0.5835455592
0.711888092
0.6729707281
0.6460991321
0.7307932433
0.7009585103
0.7389326844
0.6346501508
0.6661325653
0.6951970252
0.1283288124
0.1234688607
0.2843824043
0.2822068929
0.2055236186
0.4129251139
0.3486154693
0.3506910564
0.341099895
0.3455072844
0.4099544634
0.5523546525
0.5514482629
0.4824225987
0.6812152687
0.6182839863
0.6186908408
0.5881567072
0.6170352018
0.6800727371
0.796863246
0.76684108
0.741348332
0.7697584641
0.7657191199
0.8476158998
0.628158864
0.6920538218
0.7019123583
0.8542591344
0.7878186953
0.7774002558
0.8150965332
0.8004264062
0.8629577554
0.6899383375
0.7425400406
0.7597676942
0.9056888132
0.8513640751
0.8323254165
0.9019669465
0.8735587526
0.9264184456
0.7801257019
0.8254406339
0.8526785508
0.1359754143
0.1355218923
0.2819402102
0.2837706912
0.2109269391
0.4152262626
0.3503726835
0.3483642272
0.3516315983
0.3513855301
0.415917858
0.5485526241
0.5504701211
0.483078232
0.6784111305
0.6159100835
0.6139998901
0.6183700022
0.6174701894
0.679955636
0.7922116906
0.793758618
0.738039666
0.8913462414
0.8448865917
0.8435044072
0.8470271208
0.8460854118
0.8923499049
0.9701537757
0.9707398154
0.9332501675
1.03323701
1.003994382
1.003646102
0.9322516267
1.004306574
1.013795206
1.08048936
1.080488582
1.058656844
1.114233944
1.098907211
1.098916522
0.98204559
1.043623842
1.064719992
0.1323778514
0.1336998114
0.2720767457
0.2745428597
0.2044496141
0.4059379312
0.3406583974
0.3379426188
0.3459615489
0.3433663726
0.4086447659
0.5389068695
0.5415239265
0.4737481392
0.6705622018
0.6073967064
0.6051125669
0.6119135698
0.6096895623
0.6726170452
0.7855606601
0.7871274767
0.7307446142
0.8868534297
0.8392368644
0.8379912485
0.8420878471
0.8406295277
0.8879269928
0.9678779179
0.9683613644
0.9298804132
1.032334049
1.002483192
1.002131518
1.003236437
1.002842582
1.032593521
1.079786008
1.080047818
1.058091742
1.113967631
1.098542125
1.098310193
1.098853415
1.098726324
1.114121127
0.1280606815
0.1285995763
0.2647451139
0.2659716688
0.1978436816
0.3960686545
0.3312716693
0.3299029635
0.3354223027
0.3331774076
0.3981576284
0.5296019212
0.5315224448
0.4631218727
0.6634572473
0.5988400211
0.5970904788
0.6029014084
0.6007634213
0.664941181
0.7815244417
0.7821626766
0.7246878327
0.8838203666
0.835336193
0.8347244983
0.8368950538
0.8359768502
0.8843857737
0.9659204137
0.9664580551
0.9275089998
1.030806833
1.000818523
1.000316602
1.001733408
1.001293458
1.031245429
1.078372827
1.078768576
1.056688936
1.112957649
1.097394998
1.097033228
1.098037883
1.097731588
1.113260336
0.130673082
0.1291175885
0.2643940803
0.2640586059
0.1981558105
0.392580867
0.3283714132
0.3283284115
0.3288570078
0.3284046198
0.3928564339
0.5248856334
0.5259129366
0.458495193
0.6588868298
0.5933113268
0.5920256356
0.5957686646
0.5945692211
0.6600948099
0.7782962005
0.7792314669
0.7211747456
0.8812748836
0.8326435415
0.8318538143
0.8340736531
0.8333819219
0.8819477829
0.9636178882
0.9642067141
0.9251063593
1.028851945
0.9987189118
0.9981683811
0.9997960934
0.999262601
1.029360536
1.076623493
1.07707884
1.0548684
1.111528075
1.095837971
1.095411952
1.09665096
1.096251823
1.111912136
0.1365039978
0.1351318734
0.265610103
0.2653091859
0.2015576312
0.3914602154
0.3281606706
0.3281149082
0.3282736313
0.3282151565
0.3917323098
0.5211594689
0.5220167653
0.4560656566
0.6534941332
0.5882869117
0.5871341461
0.5907457713
0.5894949507
0.6548597079
0.7737833679
0.7750009772
0.7161720039
0.8783009042
0.8291453779
0.8281271345
0.831009798
0.8301077718
0.8790958722
0.9611901738
0.961811693
0.9224770396
1.026762922
0.996495269
0.9959266278
0.9976143699
0.9970573025
1.027290707
1.074737069
1.075215753
1.052895047
1.109882108
1.09408522
1.093630545
1.094976871
1.094534302
1.110306215
0.1416876539
0.140422298
0.266974882
0.2665974899
0.2045570319
0.390635496
0.3281418162
0.3282387864
0.328094815
0.3280969094
0.3907905912
0.5183614744
0.5189573776
0.4542057597
0.6485044334
0.5841001386
0.583243302
0.5860484846
0.5850362342
0.6496539629
0.7688125313
0.7700341287
0.7109055988
0.8747213683
0.8248450882
0.8237144676
0.8270636144
0.8259657983
0.8756720695
0.9585067192
0.9592136046
0.9194779893
1.024594796
0.9941568368
0.9935329741
0.9953498715
0.9947614035
1.025149517
1.072774499
1.073273864
1.050849922
1.108132512
1.092240561
1.09176684
1.093171753
1.092708564
1.108576595
0.1467334355
0.1454685139
0.268880407
0.2683374527
0.2077475389
0.3904922041
0.3288656377
0.3291859152
0.3283913503
0.3286006181
0.390447038
0.5167056649
0.5170118582
0.4532411932
0.6446978249
0.5811623536
0.5806223092
0.5824692944
0.5817769348
0.6455299323
0.7643487535
0.7653906609
0.7064888127
0.8707151339
0.8203811961
0.8193141487
0.8225876629
0.8214743491
0.8717313979
0.9554156663
0.9562248491
0.916011815
1.022222494
0.9915294423
0.9908144924
0.9928882366
0.9922208429
1.022842628
1.070682959
1.071222367
1.048659195
1.10630522
1.09030676
1.089803298
1.091287466
1.090801091
1.106770085
0.1518999644
0.1505930366
0.2714953212
0.2707783932
0.2113541813
0.3912313073
0.3304656235
0.3309875758
0.3295612522
0.3299890377
0.390966513
0.5161081084
0.5161716277
0.4532585838
0.6420824035
0.5794142523
0.5791312411
0.5801544869
0.5797537833
0.6426379395
0.7606878823
0.7615299089
0.7031371308
0.8667211983
0.8163081626
0.8153736521
0.8182786279
0.8172766081
0.8676998655
0.9520151727
0.9528828613
0.9123015028
1.019544729
0.9885465331
0.9877557946
0.9900779544
0.9893214603
1.020242719
1.068396155
1.068987465
1.046226802
1.104374267
1.088235768
1.087692469
1.089290856
1.088768441
1.104867879
0.1571432169
0.1558352495
0.2746887103
0.2738511227
0.2153632159
0.392743905
0.3327883173
0.3334484219
0.3315519059
0.3321552882
0.3923009158
0.5163082562
0.5161984264
0.4540777252
0.6403916353
0.5785807946
0.5784812476
0.5789012443
0.578719419
0.6407433272
0.7577363001
0.7584174159
0.7006623329
0.8629965521
0.812768961
0.8119611146
0.8144733567
0.8136058214
0.8638974773
0.9485037893
0.9493829191
0.9086114193
1.016599328
0.985315283
0.9844859833
0.9869522205
0.9861380846
1.017355141
1.06591093
1.066548665
1.043549826
1.102319253
1.086003626
1.08542176
1.087139355
1.086576213
1.102844168
0.1623145396
0.1610313381
0.2781980944
0.2773012032
0.2196139236
0.3948509328
0.3355660616
0.3363094492
0.3341333094
0.3348399861
0.394283017
0.5170447027
0.5168222218
0.4554375884
0.6393499726
0.5783822729
0.5784039214
0.578417575
0.5783858154
0.6395627624
0.7553138074
0.7558791879
0.6988198854
0.8595893586
0.8096968802
0.8089887505
0.8111811784
0.8104271313
0.8604126669
0.9450214044
0.9458845529
0.9050721261
1.013493242
0.9819794992
0.9811422933
0.983652579
0.982816675
1.014278808
1.063275704
1.063945171
1.040697149
1.10014902
1.083630033
1.083019184
1.084831933
1.084234387
1.100700495
0.1673661721
0.1661162169
0.2818692416
0.2809417133
0.2239578104
0.3973160736
0.3386267241
0.3394218206
0.3370685794
0.3378414033
0.3966752641
0.5181231719
0.5178294905
0.4571582165
0.6387361349
0.5785953391
0.5786933234
0.5784483817
0.578512995
0.6388588435
0.7532658043
0.753749113
0.6974058293
0.8564666102
0.8069855186
0.8063535742
0.8083018506
0.8076345786
0.8572229938
0.9416380787
0.9424725784
0.9017202315
1.010326162
0.9786433969
0.9778170313
0.9803067136
0.9794735351
1.011119318
1.060552204
1.061238248
1.037750873
1.097893115
1.081157978
1.0805298
1.082403288
1.081782593
1.0984628
0.1722662163
0.1710564601
0.2856070942
0.2846724217
0.2282800233
0.3999750506
0.3418380301
0.3426470995
0.3402235645
0.3410295594
0.3993018754
0.519394324
0.5190653189
0.4591168793
0.6383973342
0.57906193
0.5792040903
0.5788050648
0.5789284596
0.6384624402
0.7514891698
0.7519118459
0.6962816763
0.8535860921
0.8045521253
0.8039803521
0.8057379971
0.8051377922
0.8542854634
0.9383834617
0.9391841008
0.8985562955
1.007167115
0.9753675066
0.9745623231
0.9769952897
0.9761786526
1.00795334
1.057793358
1.058483926
1.034776743
1.095586086
1.078632112
1.07799674
1.079899169
1.079266349
1.096165499
0.1769945989
0.1758304009
0.2893082066
0.2883902006
0.2325000559
0.4026846277