/*--------------------------------*- C++ -*----------------------------------*\
| =========                 |                                                 |
| \\      /  F ield         | OpenFOAM: The Open Source CFD Toolbox           |
|  \\    /   O peration     | Version:  v2012                                 |
|   \\  /    A nd           | Website:  www.openfoam.com                      |
|    \\/     M anipulation  |                                                 |
\*---------------------------------------------------------------------------*/
FoamFile
{
    version     2.0;
    format      ascii;
    class       volVectorField;
    location    "0.54";
    object      U;
}
// * * * * * * * * * * * * * * * * * * * * * * * * * * * * * * * * * * * * * //

dimensions      [0 1 -1 0 0 0 0];


internalField   nonuniform List<vector> 
3259
(
(99.99919932 0.4189942916 0)
(100.0024685 0.4106001343 1.142458946e-21)
(100.0047608 0.3670124304 -1.65754119e-21)
(100.005625 0.3039818973 9.391407618e-22)
(100.0053618 0.2366811584 0)
(100.004783 0.1757805122 1.501248462e-21)
(100.0044148 0.124212299 6.158213458e-21)
(100.0023532 0.08692667618 -1.717801725e-21)
(100.009351 0.09880173225 -1.4896568e-20)
(100.0063843 0.06083291237 0)
(100.0046671 0.03232038277 -1.866664141e-21)
(100.004478 0.0101648765 -1.313955733e-20)
(99.92744285 1.897667476 -1.141189066e-21)
(100.0234592 1.877276342 3.184359351e-22)
(100.1022369 1.692166088 -5.487598409e-22)
(100.1406065 1.403934199 4.82838529e-21)
(100.1433324 1.092051717 -9.297910118e-21)
(100.1227758 0.8127597549 0)
(100.1273966 0.6069224489 -2.605898368e-20)
(100.0900922 0.4119018413 5.01272124e-20)
(100.0877774 0.2813315247 1.442321158e-20)
(100.0609722 0.1726421946 2.96725642e-20)
(100.0454399 0.09206133136 -2.976048765e-20)
(100.0395985 0.02901695245 1.500691134e-20)
(99.84500167 3.720188784 5.418499413e-21)
(100.2113769 3.685856411 4.167324335e-21)
(100.4792879 3.275688701 0)
(100.5928134 2.674042373 2.86664276e-21)
(100.576878 2.044152911 -9.980968797e-21)
(100.4890859 1.484438525 -2.327773146e-20)
(100.4206932 1.032607402 -1.564276577e-19)
(100.305651 0.691487325 -3.461930584e-20)
(100.2419786 0.4247014966 -1.477497704e-20)
(100.1709591 0.2585568867 3.356585295e-20)
(100.1281238 0.1379774752 -3.76976064e-21)
(100.1094998 0.04329163649 0)
(99.61741813 5.899224497 -1.89514233e-20)
(100.5569871 5.830454537 5.933602634e-21)
(101.1936306 5.029368897 -2.876878655e-20)
(101.3885571 3.936825923 0)
(101.2980463 2.900617802 0)
(101.0854752 2.050637136 0)
(100.8697139 1.356062919 5.672304475e-20)
(100.6291986 0.8872616127 -4.374782047e-20)
(100.4568184 0.5056359042 -3.779824666e-20)
(100.3245653 0.3042032046 1.912524663e-20)
(100.2423632 0.1603450125 -3.837199229e-21)
(100.2048791 0.0498807247 0)
(99.12506312 8.835456008 -6.374843484e-20)
(101.2682582 8.657638581 7.836502172e-20)
(102.5248454 7.050293245 0)
(102.7260526 5.137831811 2.168510529e-20)
(102.3766221 3.568972533 -6.570534329e-21)
(101.8993067 2.417869651 -4.569023024e-22)
(101.4479923 1.51871497 -9.344474538e-20)
(101.0333348 0.9659915644 7.771125881e-21)
(100.7050298 0.5023610757 0)
(100.4967503 0.2970929017 3.909971292e-21)
(100.3666865 0.1523466555 -2.936323354e-21)
(100.3062723 0.04668336751 -9.738362261e-22)
(97.94418998 13.5169739 -2.265119474e-19)
(102.9940429 12.77189261 0)
(105.045824 9.209923551 -3.138003866e-21)
(104.8165336 6.067929451 0)
(103.8480958 3.89578489 -1.271619474e-19)
(102.8873142 2.486250378 6.355029147e-20)
(102.104514 1.4616705 2.401442058e-20)
(101.4705912 0.891347904 -1.606635286e-20)
(100.9543844 0.4024627794 0)
(100.6591546 0.2286964966 0)
(100.477256 0.1096334636 -9.87238147e-22)
(100.392179 0.03252719988 -2.961818332e-21)
(93.80035503 22.45004678 -1.90391265e-19)
(108.4343523 18.71447701 1.250961149e-22)
(109.579936 10.75303743 -3.424100941e-19)
(107.7116437 6.154390915 0)
(105.6189735 3.591946131 -3.081586322e-19)
(103.9572406 2.133938002 -8.08161415e-21)
(102.7341479 1.127725394 0)
(101.8822061 0.6326668745 8.74735059e-21)
(101.1615959 0.205662605 2.590633823e-21)
(100.7801083 0.0943377381 -3.065449621e-21)
(100.5497849 0.03186487939 -3.490100976e-21)
(100.4408755 0.007477469498 8.406050568e-21)
(122.6990792 21.97134126 0)
(116.0313038 9.159550012 6.474139751e-19)
(110.9268497 4.609604592 1.075332703e-18)
(107.3336016 2.426851474 -1.607579373e-19)
(104.9177374 1.287056871 0)
(103.2210277 0.5091712852 -4.640167863e-21)
(102.1895067 0.2043138143 1.97541e-20)
(101.2790211 -0.08225875049 -3.157646115e-21)
(100.8284678 -0.09666661014 2.584644554e-21)
(100.5603858 -0.07602177434 -4.915206562e-22)
(100.4315664 -0.02731395613 -7.898543196e-21)
(135.4782789 7.256830027 0)
(120.6601799 2.936720643 1.534931238e-18)
(113.1400076 1.24664649 -3.587739759e-20)
(108.4603005 0.4258323266 3.849676567e-19)
(105.5065495 0.02033639371 7.446794101e-19)
(103.4572495 -0.3216066327 -4.740663526e-21)
(102.311852 -0.3590571283 1.110582538e-20)
(101.2712097 -0.4334300379 1.084337148e-21)
(100.7794872 -0.3269823122 0)
(100.4890535 -0.2047997647 3.983969347e-21)
(100.3474614 -0.06899602392 3.93801958e-21)
(133.2288272 -8.550082746 9.53757313e-20)
(120.5567427 -4.574744343 -1.398044328e-18)
(113.2865625 -2.856546981 0)
(108.5552736 -1.953392413 9.632336751e-19)
(105.5278473 -1.452104485 -3.212110484e-21)
(103.3652204 -1.249311577 4.016265029e-20)
(102.2058208 -0.9868957699 0)
(101.1170996 -0.8095378022 -1.061981893e-21)
(100.6185304 -0.5730496504 -4.407538517e-21)
(100.3240265 -0.3421891986 4.919595415e-22)
(100.1785203 -0.1135717278 0)
(124.787854 -17.40143249 0)
(116.9333197 -10.16332229 -1.266842018e-18)
(111.5350718 -6.315621138 2.209081471e-19)
(107.6221957 -4.111873622 -7.311683656e-19)
(104.9593994 -2.848302259 6.308668578e-19)
(102.9375879 -2.132424708 0)
(101.8699152 -1.594063942 -2.631589565e-20)
(100.8144557 -1.169097936 -1.33207696e-20)
(100.34402 -0.8093075485 1.004495527e-21)
(100.0635681 -0.4748454214 -3.186080655e-21)
(99.92297947 -0.1567706361 4.664218948e-22)
(115.6912366 -20.66705346 1.049149164e-18)
(111.9480522 -12.98619938 -9.491313044e-19)
(108.7321046 -8.453093001 3.557626431e-19)
(105.9928984 -5.644785215 1.186007066e-18)
(103.937736 -3.942566749 -1.848170006e-20)
(102.2343285 -2.855632797 2.107783234e-21)
(101.3391175 -2.110860114 -3.210717966e-20)
(100.3831294 -1.481777147 7.8816339e-21)
(99.96784727 -1.012651701 0)
(99.71561756 -0.5910050949 3.669120048e-21)
(99.5873046 -0.1948107364 0)
(137.6274351 10.37187486 -3.21217141e-19)
(123.7330765 24.74148241 0)
(136.075707 -7.70100331 2.278398844e-18)
(138.243277 7.799995628 -3.267089125e-19)
(127.0027404 -17.93167304 -4.490318507e-19)
(135.1528077 -9.449097981 -1.639563066e-18)
(117.2248608 -21.72366966 0)
(125.7590059 -18.69419996 8.26121249e-19)
(116.0469909 -21.87468421 -5.542485086e-19)
(92.0413236 21.15151814 6.198606513e-19)
(120.7315414 25.29941001 0)
(106.5470426 20.35150892 -4.768835278e-22)
(145.5003511 29.24339229 0)
(125.8870415 42.98405555 0)
(134.8494105 9.52040672 -1.095276679e-18)
(122.379859 5.773368336 1.525596486e-18)
(117.6013345 10.98742408 -6.001497248e-19)
(148.9138941 -2.807712361 -2.070086298e-18)
(151.1348101 10.26461657 7.277520137e-20)
(134.0102898 -6.926713935 2.10254445e-18)
(123.5077569 -3.224295173 1.658693938e-18)
(123.2496149 3.550553133 9.504480038e-20)
(136.304641 -19.94714596 1.677120034e-18)
(142.9308654 -13.73727758 -1.984572985e-18)
(125.9353498 -16.65203734 0)
(119.8466492 -10.2805196 -9.02860092e-20)
(122.924714 -5.276313339 -1.700561966e-18)
(123.8703104 -25.96792819 1.403301117e-18)
(129.1965499 -24.08310244 -8.714269071e-19)
(108.2626687 -31.8894216 1.775449631e-19)
(112.401965 -26.81535625 -3.830861982e-19)
(117.3349925 -27.02327409 1.577224157e-18)
(151.1393624 11.27584335 -1.725848169e-18)
(146.2453332 28.11701051 -2.210713547e-18)
(133.7626294 17.90372832 -2.161513435e-18)
(144.6970117 26.43931326 -2.376557548e-18)
(150.0436016 11.23298085 1.112077363e-18)
(143.3384959 -13.19283939 4.047859842e-18)
(148.6518175 -3.56677177 3.105567183e-18)
(137.6028094 -1.154106895 2.207126405e-18)
(147.9734634 -3.248892822 1.00999192e-18)
(142.94347 -12.77684572 1.792776862e-20)
(150.0839928 10.24393896 -3.391981835e-18)
(148.2208418 -2.509123806 1.025195685e-20)
(137.7541994 -0.05495562652 0)
(129.9748454 -23.72203395 1.770954286e-18)
(135.8552158 -20.28780394 8.306359292e-19)
(130.6786837 -15.03744841 -2.472945288e-18)
(135.3828595 -19.70802078 5.002312081e-20)
(129.7472717 -22.9305779 8.351762452e-19)
(142.5484191 -13.31766642 1.814771833e-20)
(136.2473381 -19.09896966 -4.129820296e-18)
(131.867815 -13.84450248 0)
(118.0504497 -26.9775158 1.64172144e-18)
(123.1267319 -26.15412542 0)
(105.9937589 -31.77215169 -6.959760125e-19)
(105.6208496 -31.64418509 8.858273368e-20)
(111.7048331 -26.77771917 3.632083802e-19)
(108.2079167 -31.88213188 6.721795198e-19)
(149.5313133 52.58248903 0)
(123.6515876 65.11767556 0)
(122.4675831 -27.4899902 0)
(116.7927965 -20.49267251 2.270249367e-18)
(114.2431858 -14.02257759 -5.751353845e-19)
(118.5337545 -11.52530235 1.285811299e-18)
(104.6163485 -30.54779202 -6.600505138e-18)
(114.5870543 -30.09371769 2.518371323e-19)
(117.0745413 -29.89926987 -4.456457415e-19)
(125.5006053 39.39212099 0)
(143.247689 28.64260817 0)
(131.7280823 20.1315648 2.1655801e-18)
(117.4473386 -29.83074236 9.214635202e-19)
(119.9346741 -29.53360819 0)
(120.8387736 -20.86565872 0)
(122.9789081 -25.38637159 -1.999860835e-18)
(117.9667789 -26.2111871 -1.626479875e-18)
(128.9785532 -23.28765776 0)
(123.7130076 -25.1927392 -1.399637321e-18)
(122.0609048 -20.43848314 0)
(84.06078344 30.94039963 -3.612933128e-20)
(122.1410839 42.97701298 1.121328933e-20)
(104.9945075 34.61456385 -2.21941168e-20)
(86.55879393 33.53346115 0)
(150.9033987 49.44998021 3.985106027e-17)
(139.3518894 37.47191743 -2.396692283e-18)
(149.602994 49.37271406 -1.476762379e-17)
(123.8782858 60.75660757 -7.660277674e-19)
(147.4325489 51.92945061 -2.504881513e-18)
(136.4338546 39.4531941 2.108497463e-18)
(150.1796785 2.878217057 2.999332199e-20)
(150.3501893 3.74094868 -1.209625529e-18)
(139.4495644 -17.4691268 -9.01072077e-19)
(139.8999213 -17.04192768 1.243156535e-20)
(122.6736771 -28.90953405 0)
(123.1012856 -27.64840248 0)
(126.1265095 -25.29202915 0)
(125.3277314 -27.6680606 -1.703554118e-20)
(123.3217723 -28.56120579 -1.207218836e-18)
(126.1944728 -26.22308512 -1.678236872e-18)
(125.4063685 -27.55331598 1.296695257e-18)
(126.8866686 -25.02497971 1.572498099e-18)
(111.6585401 -29.79858747 0)
(113.8605728 -30.06214768 9.440308769e-19)
(105.718979 -30.79570501 5.892778497e-18)
(149.9623808 18.69537912 -2.325842263e-18)
(149.6713082 19.85153846 -1.135142677e-18)
(145.9450907 -8.982267172 -8.464897618e-21)
(146.2831081 -8.337321085 1.150094334e-18)
(145.8054365 -8.017700544 0)
(141.6577006 -5.845606251 -2.392402282e-18)
(142.8400745 -2.193256174 0)
(139.538215 -10.14917818 6.866717962e-18)
(141.1800295 -6.989218258 0)
(145.4783042 -8.661307177 -2.144864378e-18)
(149.6174696 3.885885125 1.154850165e-18)
(143.8102402 4.715042505 -1.246503109e-18)
(143.5893153 9.298991107 0)
(143.1412969 -0.8867333942 0)
(143.7326045 3.260894302 1.028436364e-20)
(149.4749011 3.03002578 2.342722917e-18)
(132.4948908 -22.25477505 -1.678208394e-20)
(126.5071016 -25.96972137 1.760375705e-18)
(132.9028705 -21.99045871 0)
(122.9576719 -28.64796962 0)
(120.4873025 -29.10906278 -1.02404309e-18)
(120.9297011 -26.60885973 1.255176654e-18)
(120.2654544 -29.47456423 0)
(122.3689572 -29.01585965 0)
(102.0348204 -30.2134795 0)
(110.9220198 -29.66935669 3.945386198e-19)
(117.5529079 86.70929887 2.643353188e-18)
(114.0920028 -31.2555012 -8.591093456e-19)
(114.5477543 -30.99392327 -5.028855864e-19)
(39.20532865 7.00571086 0)
(114.4284264 -30.84520805 -2.631339009e-21)
(113.9200173 -30.33340084 -5.572652124e-19)
(69.70179318 41.62604192 -2.00296491e-19)
(118.9011734 64.15275666 -3.648622806e-19)
(99.75510392 51.11434727 0)
(76.44252766 48.47380095 8.50689495e-20)
(149.5358875 -0.4302528839 8.56149999e-18)
(153.7962548 10.08930619 1.454255051e-18)
(153.2215628 6.920845639 2.979656483e-18)
(150.9254807 7.352131255 1.880493385e-20)
(137.636493 -18.99822198 0)
(137.8412436 -20.48902845 0)
(136.5528477 -21.39222934 -9.102107315e-19)
(143.0950272 -15.19401593 1.003809483e-17)
(141.6089686 -16.78898482 -2.219704582e-18)
(141.6648834 -15.25205213 0)
(150.8341253 14.37079611 -2.251077713e-18)
(153.7404223 14.4503792 -1.672219393e-17)
(153.9830395 11.18117616 0)
(148.5400876 19.45219059 3.408926821e-18)
(141.3103663 17.47717333 1.190473169e-18)
(138.4477352 22.40329043 0)
(143.3425065 10.89826622 0)
(141.9907174 15.80601029 0)
(148.804185 18.36312024 0)
(144.5117302 -11.46902381 4.313884116e-18)
(144.9736161 -12.77352661 0)
(143.5879078 -14.62794294 0)
(147.7163726 -5.744863634 0)
(136.0856999 -21.69899595 9.332501561e-19)
(134.6839655 -22.49099408 -3.329262525e-18)
(134.5580939 -21.04731838 1.585325745e-18)
(132.8969066 -21.26622562 -9.393376838e-19)
(131.2095236 -18.82347552 0)
(133.3763904 -17.20797099 0)
(139.6270949 -16.59103119 -8.887122675e-19)
(136.9505791 -13.72627136 -2.115294518e-18)
(138.9263743 -11.11435408 -4.492377281e-18)
(134.102281 -16.5966369 0)
(136.2536712 -14.5096675 2.120264583e-18)
(139.1944249 -17.01540994 2.643338699e-20)
(120.2080873 -26.72656985 0)
(120.1362883 -29.17108269 0)
(117.8074245 -29.26634807 0)
(103.3049303 -30.90320889 -5.620361707e-18)
(140.7184502 61.58414617 2.33833351e-18)
(119.3571836 83.14083571 0)
(136.8234489 64.00361349 0)
(123.7024472 -27.01144835 7.433274396e-18)
(123.9733895 -26.87750079 0)
(113.2829446 -31.32344557 -8.045261187e-19)
(113.9553904 -31.26012939 8.549157249e-19)
(104.4251496 -30.14549301 3.415767074e-17)
(51.80958588 -8.957259174 0)
(46.05155296 6.96717819 0)
(55.1141085 -10.7206616 0)
(116.0367328 -29.95596281 1.753321466e-18)
(116.4411971 -30.43270829 -2.004490149e-21)
(118.8830187 -29.68583991 -9.759269554e-19)
(113.1438228 -30.0286654 -7.02984278e-18)
(112.6807428 -29.55385156 -1.598935783e-18)
(153.0782246 41.58651419 0)
(147.9773064 39.11882719 0)
(143.2427142 43.689868 -1.097963184e-18)
(151.9635684 32.81277107 3.57161568e-20)
(149.2163076 37.54018639 0)
(141.4065044 45.16008069 0)
(135.0547336 48.93464647 0)
(139.1792129 58.11179164 -2.029793436e-18)
(151.9061098 2.25324071 -1.139022178e-18)
(150.7945139 -0.4026449842 1.068012298e-17)
(149.6880877 0.3713142244 0)
(150.807452 6.417144112 1.807501433e-18)
(152.9691201 5.921138807 0)
(152.1791704 3.146097827 0)
(139.8356738 -18.85321486 0)
(138.3251052 -20.12825163 3.765818202e-18)
(138.0923737 -18.64692461 0)
(137.2601579 -20.68768195 -3.30054411e-18)
(139.0388906 -19.38629814 9.865205489e-18)
(136.0033494 -21.7876835 0)
(136.7520114 -21.05604638 6.091110485e-18)
(139.5465145 -18.83049107 -1.036022695e-17)
(141.230487 -15.71409302 -1.373649849e-18)
(141.0909591 -17.21070918 0)
(140.3085069 -18.37179772 0)
(123.0491771 -28.54355838 0)
(123.1945766 -28.35122297 0)
(124.5980717 -28.18548855 0)
(125.2452899 -26.96680391 -1.450531332e-20)
(126.3734074 -26.65422099 -1.909349675e-18)
(126.331289 -26.85222833 1.19817871e-18)
(128.2983815 -25.91706058 -6.631318812e-21)
(129.4581254 -25.43110903 0)
(126.7484648 -26.48256943 3.180968836e-18)
(127.9101539 -26.07236115 0)
(126.1455308 -27.0412611 -7.113229545e-18)
(107.2761359 -31.57125762 2.64348571e-20)
(112.0499958 -31.26163145 7.240561126e-19)
(112.9940545 -31.30565063 3.788067058e-19)
(153.6845689 19.3794566 0)
(153.7014165 15.70879003 0)
(150.6577399 15.41675652 -2.927627737e-20)
(154.4501625 15.75743039 0)
(154.6544915 19.44565281 0)
(154.2596642 14.42291104 0)
(153.7214378 26.52123917 -5.655558703e-18)
(152.6535586 31.20106207 0)
(154.7001144 20.69426543 -5.03987564e-18)
(153.935553 25.07145044 0)
(148.5315336 23.29980911 -4.607246331e-18)
(152.8068625 24.70085974 0)
(153.6355524 20.6617248 -6.293028982e-19)
(146.6383708 -10.09881195 0)
(145.422518 -12.11980342 0)
(144.8850841 -10.86519069 1.102500145e-18)
(147.3544131 -6.413896318 4.302933128e-18)
(147.8331701 -7.546264613 -1.029341388e-17)
(146.9739056 -9.407851226 4.235508765e-18)
(131.3403311 -24.52050588 7.869910615e-19)
(132.5026455 -23.95001815 1.651345598e-18)
(129.8523123 -25.25784766 -1.468535544e-18)
(130.9931451 -24.68701091 -7.459459648e-19)
(126.9035829 -25.28456322 0)
(134.2287556 -22.85943126 -3.509076425e-18)
(135.5995902 -22.0914393 4.030256353e-18)
(132.8778895 -23.71677684 0)
(133.8249623 -23.10389866 0)
(112.0625484 -29.32001074 0)
(121.2708863 -29.29540068 -2.242633056e-18)
(115.1685948 -29.14603284 -9.351752208e-20)
(115.3375773 -29.67182745 7.421687204e-18)
(115.3480626 -29.03219462 1.096947549e-19)
(121.5755316 -29.20371653 1.683008265e-18)
(102.1319937 -30.6393905 9.066885192e-18)
(120.1865469 22.54233592 1.261670851e-18)
(115.5472872 11.93921782 -1.599109281e-18)
(109.7936694 12.38500273 0)
(107.8064953 -30.26647032 4.893506679e-18)
(108.0675857 -30.18408286 4.570662739e-20)
(112.7820132 -14.47259138 -1.958322243e-20)
(107.4364751 -29.94440632 0)
(117.2667823 -26.27172737 -5.331280624e-19)
(112.7863455 -25.82405992 1.383856951e-18)
(112.6021479 -21.95782671 1.314541066e-18)
(55.51948196 52.73868594 -1.165327998e-18)
(53.9898068 29.45218785 0)
(41.62367788 16.2502372 0)
(104.0564572 90.46438813 -1.557556158e-18)
(89.18158695 69.26862849 0)
(62.23239883 61.62361102 1.321304695e-18)
(112.9444152 24.18590439 0)
(108.2979199 32.01519329 0)
(122.2973843 39.47657364 3.782948274e-19)
(142.8592699 32.98013422 2.129363453e-18)
(147.226144 36.27430382 0)
(150.1805665 31.88214846 2.332550802e-18)
(110.6583533 -31.07514834 3.335666538e-19)
(111.7045322 -31.27729279 0)
(107.6788576 -31.65294685 1.443998514e-18)
(117.074631 -29.32021152 0)
(114.8780439 -29.30833006 0)
(115.2028336 -27.05293727 -4.759970207e-19)
(150.9691545 30.44294011 0)
(152.453397 26.07614056 0)
(148.0463526 24.4410038 2.291358724e-18)
(102.2225433 -31.11730293 9.447311258e-20)
(105.1426505 -31.55539732 0)
(100.0269682 -30.5819821 4.389528846e-18)
(101.1519752 -30.79043278 -4.878818189e-18)
(110.2903591 -31.05973802 9.539434229e-19)
(147.580429 55.39445374 6.160966808e-19)
(122.8988806 -27.33208936 0)
(109.5213997 -31.40125089 8.347422498e-19)
(109.3051398 -31.20594794 4.723664192e-19)
(105.0391518 -30.45279877 -2.315355313e-18)
(115.9639119 -30.87658541 -9.510181224e-19)
(115.0856637 -30.98391462 0)
(115.9883494 -29.88027937 1.274853795e-18)
(137.1858522 23.97770823 0)
(132.47729 28.11524726 0)
(137.2257345 34.75352985 2.380529352e-18)
(118.5320049 -29.77654648 0)
(116.5532121 -30.57733354 0)
(116.1599679 -30.82336173 -4.916564019e-19)
(112.6775849 39.80176308 0)
(104.5503751 48.36246443 0)
(120.0230658 60.17115866 -3.546397351e-19)
(151.2220268 46.818877 1.262879602e-18)
(149.1007798 45.93244381 -1.257434301e-18)
(147.3225287 48.08912135 -2.424944244e-18)
(154.2932198 33.34670279 0)
(153.9997681 35.51716493 -1.875592417e-17)
(122.9077382 -28.75961436 0)
(120.9343623 -28.77082591 0)
(120.8932081 -28.95138826 0)
(120.4069098 -27.48320463 -2.926254301e-17)
(120.9829907 -27.76601138 4.030443051e-18)
(123.5178463 -27.91135339 9.075182577e-20)
(123.7238963 -27.37435488 2.28666444e-18)
(124.8553575 -27.12183961 -1.216673821e-18)
(124.2728019 -28.2902319 0)
(125.6983701 -26.48536279 -1.147861389e-17)
(128.1658637 -26.36081223 0)
(128.3833962 -26.11387234 0)
(106.7230205 -31.14345264 -1.742251543e-18)
(110.1391588 -31.62662125 -1.199135617e-18)
(109.86572 -31.48271852 3.902974452e-19)
(129.4631829 -24.62481201 3.865112634e-18)
(129.9493975 -24.41856145 0)
(128.6802028 -25.89870858 -7.188095616e-18)
(129.0174196 -25.69262962 -3.379262516e-18)
(126.9362704 -25.76156651 0)
(130.2543394 -24.18602515 4.930155931e-18)
(129.972592 -23.90878696 -7.112804439e-18)
(134.1316569 -21.34222217 0)
(134.2540928 -22.72568632 -1.577748159e-18)
(133.0486648 -23.30280128 -1.961209795e-18)
(102.6791861 -30.46411599 7.155271136e-18)
(107.0105738 -30.47417106 4.47467262e-19)
(107.4657215 -30.36026188 -4.304489574e-18)
(111.6800113 -30.66879664 -5.378636183e-19)
(111.7755964 -30.86900144 -3.65217986e-18)
(114.4580661 -31.13675995 -9.670141096e-19)
(40.35811146 0.4668757246 2.327151135e-18)
(30.42762836 10.52843538 0)
(43.12825272 -5.507151576 -3.287598123e-17)
(114.2352441 -30.75253136 -5.059520156e-19)
(109.9677215 -30.13611866 2.359266473e-18)
(110.9148855 -30.36544265 -6.78892927e-18)
(110.4283684 -29.87553717 3.774521903e-19)
(110.4108237 -29.99568462 2.110754559e-18)
(114.116234 -30.54464087 5.433689427e-19)
(108.1143008 59.29268784 -5.905450415e-20)
(95.79175041 66.80315783 0)
(111.1709512 82.06513247 0)
(150.3890424 -1.869489819 -1.258011054e-18)
(150.5682145 -1.06452078 0)
(149.81129 -3.422146783 1.332210934e-18)
(150.1181132 -2.645889454 2.658484014e-18)
(153.6086606 9.024944724 4.535926802e-18)
(152.8722549 9.149971336 -1.254972911e-18)
(153.0130853 10.18571474 -5.058070673e-18)
(152.5504234 7.125569587 -2.62800112e-20)
(152.7217474 8.131091737 -2.621506194e-18)
(153.425215 7.971855212 2.975465627e-18)
(142.6075957 -15.77220942 0)
(143.1064093 -15.1574463 -6.251634831e-18)
(143.5519777 -14.60338793 -3.423806299e-20)
(142.1857432 -16.18822402 -1.923380642e-18)
(142.6491848 -15.69665344 0)
(142.0911058 -16.32727132 2.35831306e-18)
(153.9571622 13.40467694 2.410192665e-17)
(153.0990774 13.5131757 -4.709058712e-18)
(152.964541 14.60615726 0)
(153.1284624 11.25710746 1.508078748e-19)
(153.1683723 12.37799619 -1.130739951e-18)
(154.0678382 12.31644322 1.378076055e-18)
(144.520871 -13.38336143 5.199342839e-18)
(144.824359 -12.83032755 1.081205841e-18)
(145.2290119 -12.22121335 -1.173210926e-18)
(143.9910436 -14.03621604 -4.42034469e-18)
(144.4146489 -13.43695255 -2.306373039e-18)
(144.0696545 -14.01261888 5.125839783e-18)
(149.2357075 -5.067363518 0)
(149.5348542 -4.224258471 -1.340469281e-18)
(148.4613428 -6.529370424 1.789984362e-17)
(148.8866049 -5.838202826 0)
(97.93762665 -30.3051688 6.077468373e-18)
(99.35986365 -30.26545262 0)
(100.2363064 -30.51475904 2.027553945e-18)
(104.5007843 -31.26372942 0)
(97.28068096 -30.0897542 -2.949707426e-18)
(143.1981998 63.31127851 0)
(146.7483283 59.04098678 0)
(144.7800427 58.58679131 -1.023615014e-20)
(130.2326302 77.07210577 0)
(128.9426303 75.06576087 0)
(121.2035174 77.33810564 1.69325104e-18)
(140.7229291 66.95933804 0)
(135.359493 71.07969423 0)
(123.2365648 -27.16365627 0)
(123.6113903 -26.64764042 0)
(105.0877974 -30.36922095 -7.434412531e-18)
(109.0198267 -31.00211469 -9.356417382e-19)
(108.072121 -30.69551381 3.669613498e-19)
(48.84717764 -5.653304551 1.285345093e-17)
(112.214029 -29.80492103 0)
(109.7869689 -29.6302446 -1.805432535e-17)
(112.6451733 -29.66986702 2.56442948e-18)
(151.9792567 41.38755152 -3.958106453e-18)
(150.6627925 43.78960323 0)
(152.3728303 44.37968972 1.42165043e-17)
(151.1573766 34.32975083 3.942232478e-20)
(152.7777475 35.14223547 -2.575267066e-18)
(153.4275817 33.19306887 1.652258691e-17)
(153.578827 37.29530649 6.044559266e-18)
(152.9655832 39.27013243 7.877719834e-18)
(151.6036176 1.40659858 0)
(151.254731 1.683343383 1.383059647e-18)
(151.4727572 2.541727237 6.93856616e-19)
(150.7321492 -0.2088124242 0)
(151.1121155 0.853560674 -1.2005764e-17)
(151.3357734 0.6358720254 -7.239798727e-18)
(152.6957412 4.983664622 -3.031011629e-18)
(152.1284878 5.215990721 -2.673449711e-18)
(152.3490526 6.149878792 0)
(151.6891242 3.415583275 0)
(151.9081263 4.307733262 2.705996986e-18)
(152.4380214 4.058352441 -1.134650807e-20)
(139.3427492 -19.32132502 4.128292697e-18)
(139.4289528 -18.89146153 -3.97075028e-18)
(139.9134578 -18.44918296 1.020720015e-18)
(137.8469432 -20.30056343 -1.536162126e-20)
(138.453296 -19.89253815 1.075594469e-17)
(136.1856518 -21.50279355 -1.231831223e-17)
(134.616275 -21.80772447 0)
(134.6948501 -22.15597457 0)
(136.1642754 -21.37505851 8.827274905e-18)
(139.9079639 -18.35724158 6.028025926e-18)
(139.9140789 -17.92281055 1.758809771e-17)
(141.0346367 -17.46706365 0)
(141.314419 -17.08317893 -9.603731102e-19)
(141.7458241 -16.64748633 1.903438157e-18)
(140.3951588 -17.99768998 -1.024157046e-18)
(140.8695011 -17.53977618 -1.834239176e-20)
(140.7381539 -17.9080349 2.203409326e-18)
(119.8166793 -28.40495154 0)
(120.4631328 -28.546602 0)
(122.9971339 -28.62368377 0)
(117.5268901 -28.33261996 0)
(117.8431755 -28.68900517 -1.00116003e-19)
(118.0782142 -28.5638969 -7.451368374e-18)
(123.4387121 -28.15466337 0)
(120.7535932 -27.99460732 6.803466297e-18)
(120.3655605 -28.22495405 0)
(127.7446669 -26.69516958 3.651142472e-19)
(127.9743758 -26.51356205 0)
(126.1304202 -26.62545918 9.611835691e-18)
(153.7004801 18.15405291 -1.333100965e-18)
(152.7026421 18.0105032 9.689112382e-19)
(152.5981937 19.20974138 -2.528392439e-18)
(152.8477305 15.66395498 -2.502167745e-18)
(152.772254 16.82516389 2.557155751e-18)
(153.7147541 16.91336 -2.825676509e-18)
(154.5742426 16.89948107 -3.420885442e-18)
(154.6067095 18.19517129 0)
(153.5105163 28.0014337 0)
(154.6830003 28.16930553 0)
(154.7340649 26.67207353 2.027243028e-17)
(154.0861318 31.46511337 -2.979898225e-17)
(154.5271419 29.78516146 1.457753562e-17)
(153.1763053 29.58235635 -2.527673004e-18)
(154.5741324 21.97501455 -2.48108881e-17)
(154.8613032 25.30630592 1.555425484e-17)
(155.0057166 23.44438628 0)
(154.2431279 23.38066282 2.519697897e-17)
(146.2570812 -10.79386655 -5.54546793e-18)
(146.3757696 -10.28305587 0)
(146.7250395 -9.609501564 0)
(145.6215088 -11.58223151 4.754467032e-18)
(146.0030945 -10.93508951 0)
(145.8435483 -11.4522846 0)
(147.6563443 -8.094034753 0)
(147.7980975 -7.643533114 0)
(148.2244429 -6.9853778 -1.57447867e-17)
(147.0539137 -8.946653355 -1.321398493e-18)
(147.4003295 -8.297605733 0)
(147.3217525 -8.735623378 1.515654874e-18)
(128.6942425 -25.01484194 9.119559765e-18)
(129.1015488 -24.81229993 -3.51157446e-18)
(127.2248995 -25.57026407 0)
(129.2492579 -25.45501181 8.519325861e-19)
(129.1126106 -25.17647592 -1.055005831e-17)
(134.6586815 -22.60520224 -3.628858161e-18)
(133.155928 -22.98093841 0)
(132.6449671 -23.24156807 1.003643599e-17)
(134.2672103 -22.47032532 -1.403916032e-17)
(133.6900213 -22.73779634 0)
(135.117339 -22.35928961 0)
(133.1836359 -23.50234664 -3.167290581e-18)
(131.928643 -23.78423151 3.415080263e-18)
(131.9763573 -24.00989436 -9.538626836e-21)
(132.2127872 -23.4844855 -1.864313235e-18)
(131.6873378 -23.69208158 0)
(133.4819621 -23.33885724 -1.949517406e-19)
(114.9036727 -29.29205213 0)
(118.3328684 -29.68798466 0)
(118.4654549 -29.54343267 0)
(118.4457136 -29.96841812 -1.069240445e-18)
(118.3329307 -29.87514875 1.065920535e-18)
(114.4599888 -29.46089509 -8.734440603e-18)
(117.0345149 -28.9632313 9.39734327e-18)
(117.5051745 -28.82672139 8.371136141e-18)
(118.4292943 -29.35971793 0)
(117.8239826 -29.1249274 -8.028554922e-18)
(114.7185876 -28.80654828 0)
(102.6013205 -30.55946864 0)
(99.82115551 3.192693293 -2.277145956e-20)
(99.96806243 1.867307385 0)
(99.87979159 3.241484627 5.152624498e-21)
(100.0991783 3.252846668 0)
(100.0650432 1.903000403 -8.655552595e-23)
(100.1562008 3.212116567 -8.106702278e-22)
(100.3291857 2.976890943 -2.489976149e-21)
(100.145354 1.759208678 0)
(100.3618014 2.869157 0)
(100.4484328 2.493910259 -3.543184719e-21)
(100.1855801 1.491139218 0)
(100.4534407 2.35895551 1.961728518e-21)
(100.4583415 1.945470936 4.98653717e-21)
(100.1860882 1.178843437 -4.124667157e-21)
(100.4425243 1.811601901 -2.344284043e-21)
(100.3991504 1.436764748 0)
(100.161177 0.885635449 -1.044617453e-20)
(99.50803931 5.203406279 -4.609306192e-21)
(99.76083771 3.661564318 -1.465399e-20)
(99.69084255 5.304230821 -1.386174791e-20)
(100.2692722 5.329903411 -1.020349652e-21)
(100.1295522 3.734571305 -3.513906477e-21)
(100.4468844 5.247211382 -1.646611865e-20)
(100.8744494 4.778212606 0)
(100.4318185 3.404070711 2.144694092e-22)
(100.9707865 4.568465999 2.347070357e-20)
(101.1318915 3.86309993 3.91631362e-21)
(100.5818059 2.831111801 7.345016357e-21)
(101.1470017 3.620580846 -2.857455096e-22)
(101.1184498 2.921504647 -1.157588736e-20)
(100.5938879 2.198444398 -1.880858623e-20)
(101.0898615 2.704531946 8.852233805e-20)
(100.9629677 2.099792606 -2.807544267e-19)
(100.5160187 1.613928268 -1.128273335e-20)
(98.86721444 7.780654907 -8.050323431e-20)
(99.38998506 5.778424398 7.040062437e-20)
(99.28821585 7.994219702 5.536272827e-20)
(100.6311704 8.037788242 -4.487149382e-21)
(100.3362271 5.929564549 1.908139072e-20)
(101.0361083 7.859077128 -1.627947124e-20)
(101.9324049 6.915449376 2.924391121e-20)
(101.0783727 5.275047865 -2.319512988e-20)
(102.111184 6.518957072 1.369548962e-19)
(102.3345436 5.267372715 7.904261797e-20)
(101.3753036 4.213925308 0)
(102.3264747 4.854638347 -2.199795681e-20)
(102.1578196 3.74754782 -1.95196824e-19)
(101.3367389 3.145253755 2.200981738e-20)
(102.0706419 3.425002 0)
(101.7767914 2.58976623 0)
(101.1458441 2.245048358 0)
(97.38504181 11.55522926 0)
(98.60991774 8.573403525 9.484651791e-20)
(98.35283101 12.07489083 0)
(101.5098199 12.05469113 0)
(100.7763063 8.88022302 7.362481929e-20)
(102.3865906 11.57329832 8.492895306e-20)
(104.0127435 9.463089061 -9.406956927e-20)
(102.324792 7.517132208 -2.924700507e-20)
(104.2538367 8.678552776 -8.858584204e-20)
(104.341272 6.516736102 1.033323125e-19)
(102.7460814 5.59977547 -8.89464205e-20)
(104.2188953 5.886126828 0)
(103.6582807 4.295370554 4.955162289e-19)
(102.4899244 3.920826114 1.074534302e-19)
(103.4456824 3.859806007 0)
(102.8182442 2.791700716 7.707932145e-21)
(102.0161417 2.670520141 -5.59282545e-20)
(93.21213489 19.56901926 -3.775779062e-19)
(96.72745595 12.84472623 2.269263577e-19)
(94.60140462 20.66124834 4.640017528e-19)
(104.6969689 18.88764382 0)
(101.9392996 13.41274417 4.609380445e-20)
(106.3579669 17.17415462 0)
(108.2584026 11.97622035 1.523253408e-18)
(104.8112876 10.13054422 1.843105731e-19)
(108.2283256 10.53287579 5.21008404e-20)
(107.3472416 7.130688248 2.726531829e-19)
(104.9922146 6.76193179 1.17730814e-19)
(106.9220816 6.261228759 -3.115721531e-19)
(105.588548 4.248226454 1.453831941e-19)
(104.1062219 4.355689583 -3.674656733e-19)
(105.1619486 3.741686293 -1.461797131e-19)
(104.0208335 2.565845082 -5.63415255e-19)
(103.1095494 2.780959413 -6.327425525e-20)
(89.70610434 30.783236 0)