/*--------------------------------*- C++ -*----------------------------------*\
| =========                 |                                                 |
| \\      /  F ield         | OpenFOAM: The Open Source CFD Toolbox           |
|  \\    /   O peration     | Version:  v2012                                 |
|   \\  /    A nd           | Website:  www.openfoam.com                      |
|    \\/     M anipulation  |                                                 |
\*---------------------------------------------------------------------------*/
FoamFile
{
    version     2.0;
    format      ascii;
    class       volScalarField;
    location    "2.3";
    object      omega;
}
// * * * * * * * * * * * * * * * * * * * * * * * * * * * * * * * * * * * * * //

dimensions      [0 0 -1 0 0 0 0];


internalField   nonuniform List<scalar> 
3259
(
31.99139854
31.99118062
31.98707032
31.98113758
31.97573629
31.97134113
31.96936812
31.96780019
31.93414774
31.93299445
31.93192783
31.93093502
31.96785466
31.9688813
31.95191697
31.92450434
31.89797935
31.87831618
31.85003652
31.84184876
31.8047791
31.80111731
31.79789817
31.79498289
31.98299572
31.98590061
31.94883776
31.88948256
31.83137391
31.78602108
31.73927795
31.72119271
31.67866102
31.67235173
31.66672146
31.66185226
32.13649294
32.13141215
32.0403282
31.92305296
31.80994337
31.72170642
31.64479642
31.61009765
31.55746831
31.546736
31.53820458
31.53120777
32.72290401
32.67099945
32.39457152
32.11011395
31.87060355
31.70279519
31.57559775
31.51176912
31.44151675
31.42460159
31.41233684
31.40286981
35.11391942
34.60904919
33.44293359
32.62631657
32.0861857
31.74864691
31.53466825
31.42947816
31.33287523
31.30504393
31.28785975
31.27558552
46.73053926
43.65439349
36.33225292
33.76682253
32.54027422
31.89644418
31.5298025
31.36534286
31.23083287
31.18893341
31.16507786
31.14941444
72.76371822
43.02901055
35.83144356
33.29395587
32.15882314
31.55958268
31.31660483
31.13654059
31.07608078
31.0436694
31.02415798
137.4652005
52.86658431
38.68933005
34.30618161
32.51772117
31.62766357
31.28174478
31.05004108
30.96824801
30.92550561
30.90148667
171.6676385
61.43649718
41.61151627
35.40153779
32.92176953
31.71918141
31.25867361
30.97152549
30.86633299
30.81191672
30.7829391
171.5293123
66.37326975
43.91285554
36.37147762
33.31200763
31.81564698
31.24453551
30.9008397
30.77242353
30.70572025
30.67115396
158.5063886
68.12568594
45.33814275
37.08569159
33.63160444
31.89975556
31.23357651
30.83750007
30.68563063
30.60697245
30.56679522
161.7222916
82.00442029
206.1598209
167.8580138
203.1595438
207.6472139
183.3794396
200.733762
180.5603185
46.3900002
74.74797809
43.4167014
478.8419466
167.8078756
130.1606013
57.71690137
46.95451034
1615.272718
1143.385719
169.7261638
70.46476246
61.29677266
913.4461808
1257.774456
172.7178781
77.44649831
72.77360294
517.5762276
684.887632
1965.251422
336.0052891
391.6667499
1112.226713
504.5424627
127.0341327
406.8539147
779.9338678
1272.376352
1616.87814
189.6252913
1129.425918
980.0790899
806.5684676
1126.422185
187.1005646
715.7506162
893.6485122
207.5958389
683.5166385
539.405006
969.8215859
707.9102671
208.4766292
403.3507108
498.795143
2889.800156
3323.713725
330.2648559
1728.410482
2844.340694
492.1298705
5436.16312
160.5826679
79.50433695
78.32929931
5638.778018
741.8965543
824.1927123
140.902543
360.6776247
117.3425929
841.9528808
1072.328019
190.7615884
412.9093693
350.9884304
521.7411249
424.4131176
193.5799334
72.6394775
146.5297435
71.40127589
75.25232361
3903.877379
336.759703
2769.837308
369.4422897
2032.89388
303.6574997
1314.865136
1297.921734
1053.289167
1077.287862
2032.702506
4576.593222
580.4513173
2440.559226
1342.334992
5128.809269
2899.093983
604.8897728
623.7226408
707.5313755
5032.339774
780.9771931
740.1569935
1350.578191
1364.541069
1040.6972
358.2206938
349.3219278
359.9734134
359.5763235
1033.073009
956.2923723
318.9745159
292.5633342
344.8780242
326.7041782
974.2395379
759.7351937
5311.760389
773.7416379
1268.660887
932.7414273
451.8169343
1135.439783
1883.45867
5869.737021
598.6722346
3509.391977
1895.711442
2586.745062
1122.218109
2983.88202
4220.669504
144.9349041
391.3107627
130.6548229
153.7626626
1519.808981
3734.997105
3899.264747
1221.85059
974.76249
2690.939816
1976.587223
4533.631997
4458.707449
1200.346853
964.9830181
3374.407447
3726.043977
542.7959882
235.7964816
198.3858744
281.8516914
248.5388853
567.7105843
1308.511124
4490.202894
4543.312171
1537.50765
1869.725149
1719.366614
842.2768297
617.5518714
322.7897057
335.16368
867.2629165
352.8986532
358.9443621
339.5025402
349.7224076
851.3589491
437.6114738
899.1008246
728.5262377
4898.292123
1727.759051
2111.248862
1556.121696
5387.764703
5458.606466
1291.267671
1686.004551
5851.06731
1316.928698
538.5869371
1311.540878
4152.011957
2858.828788
948.661237
4894.640252
5717.928089
3958.609451
1148.158301
706.2903726
1866.339668
1264.017947
636.5562391
402.3105376
1148.083804
4074.590796
5132.532075
1445.55169
1240.054311
3944.520536
4083.30183
2951.149362
2792.664551
998.0831758
4837.552311
4748.429934
3481.28063
4704.036036
4709.900557
1168.369826
4608.841679
3035.883346
3027.282364
3408.275977
1833.409471
867.9789314
937.2638608
3865.704943
1092.876827
1235.857565
965.5885317
1051.155288
3616.650838
3633.111047
1007.410728
1189.152274
2414.984583
2518.854777
914.4652054
3593.614347
3621.880286
4584.637001
2473.506678
2068.932294
3497.61461
2444.514284
623.3901925
1737.731298
2306.753582
4400.989045
4455.158373
1319.724793
1475.781186
4659.188203
4383.68039
1612.930582
1885.743057
1287.093768
1501.151734
5548.010919
2977.323124
3257.356297
2014.246688
2862.529291
5794.884412
1347.860015
5657.823291
4859.799852
5635.66111
1443.536691
5801.527473
67.19298499
43.89430169
37.38662191
5758.664522
5734.684846
79.47583907
6002.79008
342.0406343
285.7104984
173.6534397
331.3152724
236.3716823
514.9409147
1870.17407
326.1140942
355.9921594
55.66529347
65.64850731
128.3323975
418.2280108
818.7807989
1205.498288
865.0142758
961.824499
3131.729374
695.6699712
611.9714973
365.8537355
1310.136245
1671.03571
587.4696876
4551.582228
3826.768578
5779.701314
5160.123791
843.604497
3047.964835
5259.385498
3594.800516
4023.291028
5568.705139
1552.502357
1251.82137
751.7661421
185.1119499
146.8194813
259.3841327
916.9292739
2426.103054
1716.368961
98.59426032
125.1382974
311.73679
3177.041579
2081.918226
1607.036366
4080.236266
3206.191424
2230.487552
4065.802495
3708.743697
5767.7011
5467.073525
3968.568924
787.9072363
848.083645
1686.595976
5287.351012
2824.364805
3159.89351
4362.750726
2630.025655
3058.990007
5217.74462
5160.077297
3302.539755
3507.045044
5275.627383
5204.771487
5408.537454
825.7855348
1657.507929
1385.52939
5812.670286
5657.27736
5561.662959
4321.671391
4002.585653
2320.464549
1354.599878
1635.226869
1497.860801
3454.939997
5683.99653
4839.521924
5743.80889
5494.916238
3926.869531
207.945401
296.4155585
983.983352
3915.735695
3830.377297
4002.553357
3988.814749
3821.750376
2470.667102
2449.613351
2490.398467
2473.604204
3825.084585
4566.153769
2595.411874
2616.101702
2489.494026
2563.26814
4642.613767
3526.440338
2243.201513
2021.771597
2432.388987
2367.175014
3616.588109
4467.469058
2665.300336
2684.762943
2638.164099
2649.579567
4510.722406
4097.816304
4025.558377
4194.79983
4000.054755
5914.838236
6137.972896
5723.852678
4341.727665
5963.21995
2616.655286
3700.616611
2594.427787
3472.00117
2592.251328
1040.467705
3558.965603
2635.959768
5444.020507
5645.772939
5800.635923
4370.449794
4986.346979
1163.551108
5553.828668
5821.394105
5462.120415
2983.975633
2152.570075
3020.461368
1587.028056
2304.976539
3075.285182
3376.614647
3129.545075
4228.686292
2658.889517
2520.055438
3616.241542
2622.531594
3951.491877
3988.621089
2510.038816
2494.170548
2535.965026
2507.395388
4013.330244
2898.525404
1745.964861
1776.059016
4781.962467
4774.552247
4069.186284
5198.923811
5014.604707
4843.983487
4794.03318
5013.716524
3813.647793
2084.811639
2324.458657
1822.910594
1913.226539
3257.561544
5497.971695
4645.869544
2555.583384
5841.167876
5591.448497
5570.791596
3609.963373
5489.442491
5314.176458
2135.179487
2406.692691
4522.487878
2414.720818
1656.012576
1630.004187
1819.142175
1760.726579
2551.192912
3804.813515
3557.824795
2317.356283
3413.236357
3580.478237
3208.960623
3380.595829
2277.76819
3420.294994
3350.700797
4328.646638
3198.645249
4432.565795
2732.898873
2749.534482
2696.616498
2712.233576
4413.851377
4427.994326
3022.3079
3498.536102
2783.213899
2851.835444
4404.914015
5169.338487
5029.801485
5354.782856
3746.329709
4398.255614
3072.827666
5013.954166
5078.1948
5001.35463
5012.838566
3138.742588
2245.194766
4274.790464
3619.598354
4918.374384
5051.763428
2593.52215
5437.009225
3545.069572
3789.336394
2658.360135
3177.577914
5528.386306
5576.769103
5400.202691
4126.714316
4725.583918
5923.010201
5592.681701
31.96630079
31.96341006
31.97190531
31.97728398
31.97074496
31.97484526
31.95390022
31.95872371
31.944407
31.90525944
31.93262082
31.89381058
31.85559035
31.90481324
31.84478706
31.81446698
31.88293941
32.05535307
31.97663307
32.06670164
32.08254474
31.98786088
32.06852823
32.02722724
31.96000532
32.00576303
31.93073445
31.90531938
31.90541684
31.83237654
31.84453444
31.80887044
31.75074721
31.79500518
32.43943197
32.12130604
32.46493131
32.50131402
32.13129659
32.44368746
32.33457872
32.06559092
32.27735946
32.10184616
31.95341091
32.0449247
31.88887344
31.83662177
31.84368526
31.73278447
31.74051264
33.95627301
32.67754779
34.02283376
34.02981193
32.67094449
33.75483958
33.28467387
32.46086575
33.09109748
32.59986207
32.18064038
32.45882805
32.10808369
31.92408504
32.0133829
31.79026048
31.73807036
43.93218583
34.90569594
44.08202433
41.41595461
34.70803
39.17501253
36.12908153
33.6811151
35.35571563
33.78043343
32.80479619
33.41219217
32.59898352
32.19868888
32.40021876
31.95803833
31.81947122
64.32011879
61.95947893
46.63752979
49.78662266
43.73144492
40.91939256
40.94358679
36.14367064
34.23338017
35.23678905
33.46344739
32.77610308
33.07526079
32.26685511
32.02100064
97.41374582
68.91509854
57.44700941
50.3649034
39.74506815
36.93542811
37.95702217
34.70521609
33.74301498
34.03972694
32.71006069
32.36606959
155.3995664
95.83084045
86.1856833
59.61258975
43.63043729
40.72067335
40.94008003
36.10720958
35.0460743
35.13493842
33.22709529
32.83473042
174.4134526
110.3126491
106.5399057
65.47624586
46.72820968
44.49237015
43.41979347
37.37974487
36.44309818
36.15142263
33.73544016
33.35603589
167.5179876
112.6421601
112.8111783
67.90009431
48.65081636
47.31741496
45.05960988
38.33276608
37.65011314
36.93576692
34.1594477
33.84913197
153.4556775
115.2585499
116.4391848
48.95149627
38.51157869
34.24413066
148.995746
203.1309232
229.1771759
93.48984085
109.8380317
92.81706614
203.3918134
293.2347943
295.3785222
237.2910389
258.3742881
179.2076277
204.5935362
272.7612008
270.0086286
295.2255115
292.9622157
208.815554
185.6071889
217.2544401
213.1323273
246.352369
241.2927287
198.5872451
208.7137092
205.0040448
178.3898415
1553.676458
1554.410718
1468.383078
64.51280607
2042.915867
1468.121229
66.28475697
71.70930314
83.39765194
45.39735914
59.75450392
52.68441408
456.237518
525.6978681
562.9404711
213.7112482
253.5451649
206.2405754
83.34390027
71.55637452
105.5412546
54.01462689
63.61204124
69.0008179
53.1234324
58.24894317
50.39832047
1603.744918
2474.048733
2479.676308
1637.612108
1668.028517
1173.829973
104.9004533
98.21601705
159.8695184
67.74313988
82.86266492
86.35370937
74.09869922
78.77826899
64.68196249
933.7961841
1145.4263
1110.362668
1698.677115
1682.695605
1242.948127
112.5784899
111.1425544
174.3471812
76.2434633
93.02924648
94.16170015
89.17769222
91.40352435
74.70452098
536.6548342
693.9021763
662.7678454
1001.199546
925.9219114
657.2054248
1301.987905
1415.72763
2272.416034
357.780706
586.3608863
521.5294078
462.3217737
447.8635642
383.6850642
1069.554289
1549.092972
1606.406318
618.5770904
658.7633125
528.5583507
164.560021
193.4164583
140.8286945
431.2875587
328.4664697
301.7153763
469.739917
447.8055994
684.3220547
1284.665472
1726.235714
1715.315594
2471.245477
2458.001424
1608.60357
283.2066967
291.5522768
191.4625498
1105.77581
561.1396467
575.0497075
600.5000162
606.215139
1005.893316
878.9539907
508.4452112
488.7963998
574.3754302
572.5176749
1077.372006
180.6151641
264.3402014
279.4495417
746.8589075
1135.258115
1030.208868
1080.304986
1055.697274
876.0746825
283.26839
276.098115
206.5913817
661.5571157
498.7249879
510.352011
304.9913133
317.7536515
595.7748024
933.2128522
585.7899432
594.3228626
522.2410771
534.0975295
794.0345953
208.786681
291.2447713
285.8471432
413.0452645
496.1815874
479.0326658
634.7009777
607.8012349
482.2477975
501.8533567
1197.472553
681.9209324
1341.236846
792.9655507
117.9591713
112.3693231
165.656291
79.3099063
95.11365955
94.91125252
94.82044423
95.14762444
78.94166641
776.6917252
1171.064687
998.340544
924.4455453
904.4564767
800.5139041
220.5833889
134.0250271
104.1609194
276.8683639
252.4997981
334.2995587
103.3933866
125.1775014
153.885362
866.0930596
1000.291237
964.9055086
1437.231479
1333.481347
1028.954668
226.7924489
222.1388339
188.48418
383.614644
275.8204972
269.6753452
259.3853418
266.8100547
374.2565416
475.3794709
288.4328509
300.7653543
272.4056012
284.7221149
461.0191043
195.8519593
236.4529716
231.3539794
113.5576221
125.0405466
142.401084
165.2408997
72.09635404
102.7229456
87.1004641
116.5090974
111.2705286
73.92199731
490.1555576
749.8746572
407.5665579
930.0970572
369.3830223
271.8942432
1384.313623
1180.831875
1962.049496
237.818516
343.6937375
449.9348123
1784.390315
1849.070521
1344.302966
1277.005196
1751.478742
1783.331934
1324.016494
1299.056782
1035.767732
1102.523311
1402.826056
1356.719278
760.2963872
725.8386301
558.2827083
2147.104639
1406.006692
1513.763368
1042.643527
1079.310964
1426.655649
1646.417982
1770.447098
3253.638562
628.8925168
898.7783928
859.5852235
649.8979573
784.0834351
747.2714733
949.6434324
876.0847025
678.7609934
1097.781021
1147.185833
823.210398
698.3728643
971.8307459
1030.406663
1785.157617
1776.324343
1340.221449
1385.580188
1835.842838
1801.806542
612.7390266
613.4980288
1084.972776
355.9299368
453.735852
455.538441
446.42794
450.6909043
353.117642
360.3917113
455.1725067
453.3483851
456.3249885
456.0434486
360.4838094
1013.636646
609.7869927
611.7442926
542.618212
525.1071196
899.4267317
311.045789
393.448915
402.6017874
367.9389112
379.5049121
301.741945
339.4896666
432.7344278
440.1936828
415.1279738
421.8569122
333.42551
1048.154564
573.5478575
556.8664265
1321.000724
1182.791847
690.2966034
791.9595758
937.5822359
917.1815825
1083.696934
771.7086461
775.2492131
703.9101479
736.2148503
1037.449529
465.9324388
582.0772552
558.4138526
1199.099383
1739.949974
1575.789506
3502.363851
3111.16143
1725.412846
712.3853984
2112.093662
3798.818707
3411.580082
129.0632174
183.3094537
251.088163
177.1608582
119.647698
374.1554629
201.6358032
294.6955916
350.214236
495.6004464
143.2907767
217.8604534
179.8806775
256.1917139
247.7525441
151.0563134
2309.765409
2427.909104
1574.488609
1196.481793
1684.725574
1710.175054
1219.83287
1183.541513
955.4436099
2468.091508
1562.798015
1636.931371
1399.504907
1474.807652
2174.015804
1223.53007
1655.551705
1616.774874
1365.569012
1471.073013
1021.628277
379.1801038
349.9669961
481.72176
223.9579724
272.1585836
288.8625302
236.9600271
254.9074149
210.7608724
271.569547
338.7615853
352.5319955
306.5090196
321.9928653
259.6721372
652.7977128
426.3537588
402.7351085
1749.085481
1738.817396
1297.269135
1585.81949
2403.00896
2275.976103
1810.361683
1307.388364
1344.937849
1244.002217
1273.843557
1763.929339
859.010062
1032.144666
1010.729927
475.6038646
487.0041681
638.7879965
326.6718154
394.059424
387.354016
407.6146118
401.055159
331.3766219
565.7742386
576.7656898
916.1480746
355.2078608
442.6862835
437.7980471
450.5873234
447.0416441
357.5484851
342.9485883
420.5638952
414.3374474
432.3561075
426.7736208
346.7931487
815.1129906
544.5025997
555.8583696
536.0116348
515.6334652
425.8243043
847.5730187
643.5260066
672.2132643
590.0043793
616.0986272
762.1617234
983.3660573
1578.683458
2726.760451
1388.562436
2196.645654
1956.667417
2918.240494
2492.541997
1522.096433
660.7927064
3810.831915
2039.424268
2285.691096
1643.022899
1829.917556
3355.052159
979.4467673
1243.376679
1165.723238
949.9821031
1425.290121
1771.458343
1029.712144
1294.474236
859.9655612
1968.151294
2300.424848
1488.524149
524.07314
730.5113975
912.8920636
513.405633
626.8815529
472.6610789
1429.765474
910.7407363
777.4558398
1386.639765
1900.67811
2089.120635
1721.298691
1745.890637
1262.217603
1684.756366
1718.178511
2855.558399
1014.637127
1274.945614
1249.8723
1547.39629
1469.855752
1135.751073
1258.440475
1322.119844
1964.775153
889.4545104
1034.586631
1001.763702
1123.651993
1076.116185
913.2134072
1133.923695
1516.512144
1418.412408
1751.019059
1639.53162
1187.755315
989.3642853
1232.056229
1178.398505
1342.516744
1287.228571
1024.275113
3407.446343
1872.987244
1979.925154
2023.852537
2305.2151
4097.898955
1050.634699
1419.145361
1305.11973
1725.937396
1555.302723
1125.022926
864.3449444
1209.959282
1280.627804
836.4577503
890.7245971
655.5941664
1933.231659
1306.806647
1225.905922
1526.023549
1453.880458
2197.60894
1329.674395
1766.937508
1758.909602
2069.616588
1912.414561
1421.944461
1716.280831
3072.426149
2740.215719
3395.432362
3198.32096
1798.7731
1338.774982
1944.745171
1847.075786
2348.104711
2091.516192
1408.195015
2070.801962
1910.437618
1273.778133
1569.010398
2628.969296
2284.564511
55.36041553
49.56990322
52.17279013
41.25340286
44.14297978
48.48505022
38.72037954
41.32455018
39.1520753
94.52848593
93.9204748
79.36144379
328.8532594
244.8721832
251.2733407
232.0321548
238.0402836
295.5533949
286.5428568
423.1748277
511.9479382
287.7269635
355.6950871
251.7265816
996.1614881
480.6671943
433.9398065
817.9774894
1458.246083
2984.215259
349.8742326
536.7408725
454.2842112
591.2373137
588.4103904
360.653296
79.73609646
70.73531582
62.69388769
97.13930137
81.60990127
88.45807812
450.4019444
483.8794606
435.7899368
959.9974435
666.8815303
587.0014648
809.7868633
719.3617062
1037.636738
895.1055818
1060.756692
1008.786159
1207.906098
1127.468769
926.8224844
2660.583518
1573.87633
1771.777235
666.93633
543.2592352
565.6665986
502.6715445
521.6613066
638.1940451
1477.767698
971.3002015
885.2203175
1121.49585
1051.564017
1531.34048
559.1060479
722.0128563
763.8439877
958.3688996
1439.275183
1076.780946
1123.880695
983.8109279
1018.618067
1342.2551
787.7695581
863.2866008
865.1255868
172.3501371
201.9045378
219.859253
286.3476824
225.6421036
205.3716504
1100.087462
1048.322381
889.8314414
2154.369959
1377.766617
1488.670155
1200.655379
1276.87202
1914.369271
104.273978
116.88348
109.8523636
148.7896156
137.5113257
111.7845084
217.7528302
162.9148912
208.573702
810.1187403
910.0893927
893.4632186
967.566126
941.7804207
826.759814
1547.963277
1137.168402
1191.950759
986.6299395
964.2172487
808.1470205
1572.120131
1168.337457
1206.864289
1088.723986
1123.226219
1469.161727
222.3437404
284.2465807
251.5639779
383.5575733
335.2908607
254.1450684
679.3077783
441.4440809
571.3671497
31.97655655
31.9782521
31.99181619
31.97589318
31.97004072
31.98969382
31.96289595
31.95407563
31.98413012
31.94483434
31.93613138
31.97827871
31.92841409
31.92206724
31.97350595
31.9177972
31.91261853
31.97040256
31.90926989
31.90680395
31.96858239
31.96589916
31.96906334
31.96947385
31.96818972
31.96433083
31.96714318
31.94594969
31.9379203
31.94610562
31.91210443
31.90280697
31.91818001
31.87847561
31.871002
31.89299774
31.807825
31.80198527
31.85541554
31.79350229
31.78668498
31.84559766
31.78196772
31.7796649
31.8389394
31.99915144
32.00530862
31.98705018
32.00240411
31.99418037
31.97945054
31.95930829
31.94208567
31.9347151
31.89056693
31.87126015
31.87295741
31.82061937
31.80496245
31.81779821
31.73560853
31.70852173
31.75201068
31.68983583
31.67576403
31.72934523
31.6657499
31.65993184
31.71519731
32.2031855
32.21797356
32.14409395
32.19913173
32.17717122
32.11795404
32.10173792
32.0645856
32.01284782
31.95290099
31.91581595
31.89273692
31.8144295
31.78525004
31.78379028
31.70207621
31.64349461
31.67078429
31.607195
31.58004417
31.62554051
31.56065059
31.54828892
31.59883285
32.97430784
33.00880278
32.73246603
32.89673529
32.82095037
32.6258821
32.57937497
32.47862053
32.32521915
32.20361185
32.1209957
32.04373183
31.90716036
31.84847154
31.82160906
31.7328041
31.61397008
31.62155142
31.55208924
31.50420791
31.53930107
31.46969063
31.44653637
31.49223096
36.39919621
36.52917044
35.06273681
35.47626992
35.039764
34.35180874
33.95045578
33.62047297
33.21400814
32.84668903
32.64654822
32.46790349
32.17353052
32.05360104
31.98588244
31.85453871
31.63294244
31.61850212
31.52702725
31.45164856
31.47507508
31.39590915
31.35582904
31.3972443
50.91959553
50.94141787
47.64596904
37.59327356
36.42644224
35.48093873
34.20293786
33.71951371
33.37910119
32.69942
32.46263899
32.33935585
32.08679755
31.71030314
31.66308617
31.53943394
31.42321295
31.4347483
31.33957659
31.27805567
31.31374012
80.57696128
72.74980437
67.13304427
45.36826464
41.97745932
40.32380833
36.51431228
35.49414024
34.97387803
33.5290996
33.10683228
32.9250207
32.42250862
31.85142797
31.7730598
31.58993386
31.41776444
31.41696612
31.29794284
31.21206753
31.24320328
143.6277304
120.2409166
115.1491716
55.29031347
49.0802802
47.30889421
39.46522427
37.75378759
37.15669296
34.58303919
33.92617309
33.71057013
32.82119621
32.03792444
31.94054221
31.67159778
31.42986808
31.42131426
31.26973738
31.15667327
31.18395081
173.0478788
145.1512545
143.6365389
63.02622667
55.03500066
53.75710111
42.2758783
39.96185017
39.4350086
35.66231205
34.77497906
34.56828434
33.22287416
32.23660895
32.13740719
31.76764222
31.45690366
31.44135003
31.25230967
31.11026625
31.13435557
170.4311666
146.4366933
146.9591114
67.05139504
58.57554104
57.91856636
44.35436455
41.66557399
41.29469293
36.57874763
35.51353359
35.34527759
33.56505772
32.41668623
32.33076741
31.85955535
31.48764648
31.47132969
31.24112604
31.07122817
31.09239603
156.9688441
138.0287395
139.3576582
68.1983411
59.99139956
59.81119342
45.55999005
42.71499607
42.51489311
37.21888283
36.04657535
35.93458475
32.49246757
31.50001897
31.05528695
51.08553649
109.5699773
103.7632701
122.4511064
141.6075642
139.2515142
167.2369324
147.4880571
147.7387898
173.5001112
343.3680709
388.4483701
380.156948
615.4316759
596.5738855
749.52067
1128.760256
842.831348
841.5464693
792.0064191
797.9460076
989.0892638
832.7215373
647.5424964
629.3436681
836.9392644
830.7376548
1117.084552
432.5208838
442.5149574
557.6333145
959.3761401
778.8605225
785.8662438
369.8690168
140.4070725
141.613584
162.1598609
166.1968098
140.3350698
128.0667903
402.7881367
345.9439002
352.1172292
308.0209588
314.035568
357.5706056
505.4886429
412.7273493
422.0271171
361.1438794
367.8666957
435.5314456
72.08749451
80.50726724
82.8950413
82.87972558
83.46884281
76.13616736
531.3491811
375.8960148
308.9256433
824.1515435
826.4848333
1050.379368
1027.062833
819.0143051
821.0170511
735.7753051
720.6337788
938.0147112
994.6847304
763.5003686
748.5940369
890.9262284
876.6135834
741.1651138
1201.042992
970.8194106
998.0421787
822.5593586
844.3469121
961.7553937
498.6841325
487.2283809
517.7565821
594.8121992
523.1618797
507.1129091
724.4698241
734.2870998
881.5623528
840.271058
705.7086166
715.5204631
881.1064741
783.4591829
805.8750135
62.37903383
57.77499639
60.80139884
337.1257874
296.5524499
302.9932072
175.7000818
201.0802537
197.7874905
58.27501
65.96835104
61.95405133
113.4507864
103.0726732
109.1603571
372.9709296
433.758858
421.339334
168.3259414
184.9112943
159.2686834
276.3994401
233.1788512
249.247695
31.96203219
31.96091852
31.97582101
31.9707515
31.96724608
31.97183644
31.97197433
31.97743315
31.97095353
31.97017418
31.96999544
31.96961693
31.96544738
31.96986249
31.95173847
31.95995269
31.96325093
31.9624705
31.95920078
31.95253021
31.93195138
31.93173658
31.94316181
31.91183981
31.92287341
31.91979365
31.93855424
31.92978783
31.92057028
31.88038978
31.89003247
31.9018413
31.8694421
31.88045625
31.86855055
31.91053758
31.89449106
31.8859062
31.83320424
31.85097001
31.86061865
31.83526259
31.8433536
31.8238742
31.8872388
31.86465374
31.85846766
32.02273829
31.99174145
32.07646122
32.0374845
32.03217951
32.03411794
32.03569799
32.08588915
31.98833757
32.01063166
32.00923679
32.05523293
32.02395302
32.03289579
31.99186318
32.00951011
32.04368192
31.97084659
31.9856757
31.97349953
31.98118577
31.95561262
31.97488735
31.91536422
31.93627901
31.95668665
31.92119228
31.92603518
31.90806038
31.87982619
31.87345012
31.89502516
31.83131684
31.85309743
31.85626149
31.85955111
31.85286366
31.83595847
31.78734
31.79490818
31.8126733
31.76293702
31.7785377
31.76861228
31.80626401
31.79124002
31.77824048
32.31175394
32.18495462
32.48741223
32.3488685
32.33793881
32.31837934
32.32816609
32.51545554
32.13539669
32.23449405
32.22772264
32.40473079
32.29678211
32.3197729
32.20671369
32.25277596
32.37515348
32.09332585
32.15983935
32.13568421
32.21791276
32.12520991
32.16720157
32.03547753
32.08117347
32.15966866
31.98412367
32.02758464
31.9898961
31.98962421
31.94609277
31.99025327
31.86265411
31.90342273
31.93759617
31.86428177
31.88016654
31.84575151
31.80232371
31.79072114
31.82496243
31.73103863
31.76004597
31.76566893
31.76056785
31.75823062
31.73347329
33.39488018
32.9389699
34.08702906
33.48147086
33.48873159
33.34598964
33.4077277
34.12251628
32.69417413
33.05227946
33.01901246
33.58719424
33.22489091
33.33000398
32.90387349
33.05016675
33.45658685
32.54098787
32.76208749
32.6819555
32.91412358
32.65810068
32.7817799
32.42200087
32.53762957
32.75152663
32.25340816
32.38248572
32.29101093
32.33119086
32.21032187
32.31157816
32.03154372
32.11763407
32.21487156
31.98218509
32.04446653
31.97230503
31.92940603
31.88429084
31.95426204
31.7659155
31.82174905
31.85531375
31.77743979
31.79605891
31.74938903
38.59898511
36.21966057
43.93727097
38.83399467
39.01243498
37.71701689
38.34094583
42.42564185
34.89026176
36.46089422
36.14943846
37.9167229
36.5094586
37.2402839
35.04469907
35.63650662
37.06133611
33.96656411
34.72013086
34.32726037
34.73238344
34.10209381
34.54641864
33.38508034
33.7178664
34.21454568
33.00053001
33.33062751
33.07461591
33.0995195
32.84603187
33.09520237
32.44173888
32.62989553
32.83084005
32.32607132
32.46922933
32.31135996
32.22982694
32.13542645
32.27827486
31.90315507
32.01121959
32.08355643
31.89738724
31.94913739
31.8582676
64.16963995
57.04956258
56.50062426
55.14426566
56.17385498
64.14725621
47.31898981
51.14010581
50.59653304
38.8508434
37.53033571
39.11156495
35.41108608
36.33676691
37.30657931
34.79491248
35.51477652
34.79099679
34.51704539
34.08501581
34.67416568
33.20806864
33.60452225
33.93589549
33.0529545
33.31690612
32.98111155
32.75478716
32.60207902
32.87787416
32.17551483
32.37028559
32.488868
32.16771815
32.26297203
32.09399027
85.02551286
78.69525701
88.01359407
64.17090193
69.94652614
74.80008128
45.51339688
43.70445521
47.82392575
38.75068959
40.82861695
42.15277201
38.37695005
39.57799917
37.83301206
36.59549686
36.01591935
37.19841302
34.36327774
35.09451385
35.53814928
34.29272922
34.68967017
34.04782531
33.50288173
33.29824724
33.77523751
32.58841882
32.90825778
33.06621739
32.61947555
32.76028575
32.47439916
129.2360175
124.9395383
149.8925476
92.63219123
106.0471451
109.6239557
98.12396282
102.274159
89.96108142
52.33360504
50.75763322
57.54578439
42.68122382
46.05414879
47.26707557
43.47042654
44.7913676
41.72744667
38.90417227
38.31640398
40.19164243
35.75058094
36.87676377
37.33446727
35.97501524
36.43438139
35.40212621
34.35759544
34.14189691
34.8579892
33.09581036
33.56332706
33.73179901
33.22743785
33.39510272
32.96517309
147.1623254
146.3882072
173.9503225
109.2696206
125.0350319
126.0949667
122.2090632
123.8309384
108.0319041
57.10691877
56.15413959
64.37131623
46.05715077
50.3185911
51.1238851
48.37778682
49.40238427
45.31974684
40.89053662
40.43816175
42.86840631
37.08268163
38.55779025
38.92536767
37.75801887
38.17248973
36.77182753
35.16685956
34.97568929
35.9128197
33.61190309
34.22069589
34.373786
33.89740134
34.06113164
33.48660942
144.7620771
145.4251494
168.826071
59.50063517
59.10537179
67.56599084
48.27553032
52.91618646
53.32140911
51.82534122
52.42618003
47.84250558
42.269963
41.98827991
44.73476902
38.12976262
39.83593292
40.0763966
39.25598884
39.56390347
37.90324368
35.80814931
35.66793498
36.76596276
34.06176729
34.77980687
34.89558544
34.51742606
34.6535964
33.96092781
53.63721692
53.87656911
49.1939092
40.28759421
40.46644096
38.66646302
35.00071352
35.09485651
34.32535351
211.9363276
183.0373124
175.0207299
195.6029457
188.562798
220.9225047
294.4030469
247.9313047
246.2176325
250.0562095
249.0201312
295.1599591
244.7596682
207.2678843
200.9953487
217.626954
212.3852165
251.8805292
270.8191179
239.1647201
241.1303655
294.8208731
250.9523171
250.5689962
250.7651652
250.8876978
293.8276487
55.4878817
49.49951767
48.54729309
45.07646447
56.81739808
51.75480035
52.77810797
48.3239351
49.49830999
54.54828516
79.05877425
89.18498784
93.79229428
79.60168004
84.48036618
76.21733382
114.4857454
97.61185012
91.3294616
102.8671212
118.1393802
120.4060833
112.7425001
115.6714215
100.8312404
164.0674055
136.3807143
133.0757652
112.2895742
127.5808682
127.6653399
126.7554087
127.3102028
111.7918865
174.088199
147.8359511
147.6845607
975.7536717
844.8320386
864.6941665
805.9250716
826.1748499
947.2948629
409.3824958
398.9731477
350.224227
563.6571249
468.0357367
483.8828095
439.0521815
451.800499
541.0238521
173.9328158
155.4691573
146.0527862
169.4639849
160.86908
184.1940824
718.0159849
582.4272284
563.5914372
286.5594111
240.1526028
237.1926582
244.5242567
242.2500238
289.225087
838.708188
842.11354
1120.640766
576.1433541
643.6408937
665.0540299
632.1701346
640.0679784
576.1768526
997.9529234
803.1120875
807.8495682
678.4885179
661.0018513
855.8387195
573.3330678
615.4863414
625.338602
593.3146004
605.6413341
572.6939313
1101.682125
821.149188