/*--------------------------------*- C++ -*----------------------------------*\
| =========                 |                                                 |
| \\      /  F ield         | OpenFOAM: The Open Source CFD Toolbox           |
|  \\    /   O peration     | Version:  v2012                                 |
|   \\  /    A nd           | Website:  www.openfoam.com                      |
|    \\/     M anipulation  |                                                 |
\*---------------------------------------------------------------------------*/
FoamFile
{
    version     2.0;
    format      ascii;
    class       volScalarField;
    location    "0.01";
    object      nut;
}
// * * * * * * * * * * * * * * * * * * * * * * * * * * * * * * * * * * * * * //

dimensions      [0 2 -1 0 0 0 0];


internalField   nonuniform List<scalar> 
3259
(
1.156445264
1.156452783
1.156383226
1.156279945
1.156181636
1.156116165
1.156065465
1.15604574
1.155829869
1.155843459
1.155867259
1.155893565
1.157266719
1.157337739
1.157062357
1.156574334
1.156087616
1.155706262
1.155352091
1.155212277
1.154946865
1.15498589
1.155058413
1.155139098
1.032415621
1.02947041
1.107647748
1.157490785
1.156381798
1.15554159
1.154834284
1.154506634
1.154102497
1.154123413
1.154230997
1.154369129
0.7039129121
0.7146329422
0.7951336761
0.9452307673
1.157619445
1.155899867
1.154567082
1.153910984
1.153302238
1.153292532
1.153410548
1.153588064
0.419573697
0.4395034552
0.5270178978
0.6683771193
0.8794423248
1.157175989
1.154809929
1.153566873
1.152645408
1.152481689
1.152574623
1.152786439
0.2082298228
0.2384223599
0.3325025554
0.4698533123
0.6612202716
0.9451868928
1.155753778
1.153575717
1.152109809
1.151691397
1.151718318
1.151939228
0.07385579811
0.1142465571
0.2110682301
0.3412995606
0.5169598187
0.7650545904
1.155744189
1.153950169
1.151674789
1.150945226
1.150852787
1.151061284
0.06150358599
0.1523600545
0.2709687024
0.4311947967
0.6560645963
1.02569766
1.15467669
1.151404137
1.150275123
1.150015055
1.15018668
0.06974671871
0.1439715714
0.2459679683
0.3912040069
0.5960818081
0.9450828062
1.155747419
1.15131747
1.149710042
1.149231117
1.14934344
0.09478804493
0.1590649922
0.2512430644
0.3855365077
0.5752789238
0.9029776228
1.157034856
1.151423375
1.149287051
1.148557023
1.148589953
0.128589928
0.1886376365
0.2775435838
0.4061464629
0.5858578242
0.8964873352
1.158434522
1.151701608
1.149023991
1.148021225
1.147963837
0.1662507867
0.2310124581
0.323327058
0.4512711688
0.6255044935
0.9212414193
1.159838458
1.152162722
1.148939377
1.147675531
1.147523184
0.06158421059
0.053688594
0.08558939525
0.0642981948
0.1204510748
0.08968380247
0.1526550154
0.1256643506
0.1566629754
0.07603952523
0.05577473563
0.1079118455
0.03120620407
0.02265793219
0.06746902018
0.1220053283
0.1305122936
0.05499868211
0.04961018759
0.09145905486
0.1353054402
0.1234618415
0.0877270418
0.06638606979
0.1242707341
0.1633299361
0.1412334362
0.1298985492
0.1138459519
0.02802179199
0.1436106014
0.1372728878
0.04810744299
0.03250756392
0.0545656354
0.03434620973
0.04656863205
0.06586224464
0.05475480611
0.07553897355
0.07175877871
0.08428341248
0.04758880088
0.0701438041
0.07404704584
0.1093047354
0.08949790584
0.1073465701
0.09903310398
0.1169512395
0.08492200111
0.0959066932
0.1026972934
0.1363721395
0.1306554788
0.01894994078
0.01602237587
0.1449551312
0.03178436488
0.01467430962
0.009633118906
0.01035482983
0.1589813226
0.2007043129
0.171871802
0.009882781412
0.09546812162
0.08406302179
0.02607596974
0.03262682173
0.0533988918
0.08162060488
0.06044937761
0.1409948121
0.1293676445
0.1381934688
0.11819312
0.1280791532
0.1375638443
0.02995272795
0.02316244247
0.03738136712
0.02848664616
0.01350026401
0.02538251041
0.02227794844
0.01155945799
0.01822427505
0.0240839046
0.06466011236
0.06284718553
0.0774983112
0.0760137665
0.02925404017
0.01265320139
0.1278170339
0.0247810052
0.04743251621
0.0114153778
0.02090858093
0.1260112438
0.1180780757
0.1013577229
0.01058108579
0.03969377902
0.03951549569
0.06357840918
0.06315147762
0.07959566609
0.07125978417
0.06653646843
0.07796511151
0.07284072691
0.08051837872
0.05706152038
0.05910564652
0.05410837515
0.06484539394
0.06046896777
0.05866140151
0.1038118028
0.01108865256
0.1019721211
0.05071235466
0.07343252719
0.134374958
0.05645419988
0.03166055673
0.006810870927
0.1236738401
0.003818494018
0.02939486647
0.02164526702
0.006373767841
0.01858725469
0.01270031766
0.01178620225
0.0100294713
0.01542840308
0.01103587587
0.05898256079
0.02670084422
0.02523637591
0.05490848364
0.08284896843
0.02646072183
0.03623073991
0.0167161054
0.01643154163
0.06892832148
0.04435586365
0.02994824144
0.02695618197
0.0395244611
0.04658602266
0.04256002004
0.05259026533
0.04796557716
0.04053751779
0.06469949887
0.0176309724
0.01682889898
0.0568996806
0.03840432388
0.04171560943
0.09438351974
0.1085402309
0.1069212748
0.09879620693
0.09096881684
0.08594895062
0.07992935954
0.09582401015
0.08832763674
0.09265226032
0.1355292132
0.07671524365
0.1004096062
0.01098855313
0.0133876349
0.006760662491
0.01293580027
0.01060197462
0.01045597333
0.04461846316
0.03321585617
0.006866471673
0.01186653312
0.008371110578
0.01225922631
0.01303551525
0.01980131916
0.07035310077
0.01092667286
0.009663446535
0.02359784686
0.02275990045
0.01999116845
0.03092603894
0.02410994857
0.01950381637
0.01762044211
0.01364730841
0.02343512091
0.01833262293
0.06205602783
0.05688444571
0.02485788324
0.02350482937
0.02453344973
0.02554455343
0.08110445877
0.01427798693
0.01492650376
0.01961379999
0.01448377912
0.01523159255
0.07060080817
0.0158472551
0.02392239079
0.01955179325
0.01717243557
0.03332168474
0.08544200118
0.07840494885
0.01561568077
0.0660794776
0.0574613814
0.07584380124
0.06895366909
0.0167500299
0.01449830239
0.06029419337
0.04909338729
0.04141486893
0.0393199659
0.04329718955
0.02847124178
0.02864952645
0.02275900477
0.04119070521
0.03250141482
0.02972301206
0.04169086885
0.0362844184
0.03760858296
0.04338362329
0.01898525933
0.01805383474
0.06438615037
0.05902956274
0.01901536192
0.0192883208
0.04262706219
0.03605312133
0.05496459182
0.04619166546
0.01066466728
0.02258408996
0.02101010157
0.03361246923
0.02359885571
0.007545417342
0.04594371771
0.009768462256
0.01115664272
0.009787848097
0.04245207021
0.00960628633
0.06398316097
0.1388259586
0.1836283813
0.009663157372
0.009662516953
0.2121581315
0.007049583307
0.142714272
0.1485020605
0.1667058016
0.005625895859
0.009077929297
0.006495045739
0.005155662402
0.006829328234
0.005348356297
0.06928704761
0.04421073935
0.02665403512
0.02834827172
0.02470775606
0.02780850942
0.07360859584
0.06394591065
0.01718194724
0.10605209
0.1224030088
0.1397119889
0.02923588274
0.03485293946
0.03486897155
0.01142673637
0.01367074002
0.009750110456
0.01039404865
0.07638618267
0.0131937983
0.0108406518
0.01475688246
0.01307868707
0.00995930663
0.03677551293
0.04699916356
0.09456411957
0.04134552855
0.03772906243
0.0279101363
0.07340084764
0.02326861345
0.03298443803
0.02810351961
0.01770347953
0.01172782684
0.01974079112
0.02042634795
0.01900851267
0.02704755557
0.03357075367
0.02664487109
0.01395259919
0.0153731977
0.009606161208
0.01021965072
0.01474343368
0.09522862549
0.08782254574
0.03647365904
0.01092673862
0.02220692632
0.01987210143
0.01197226514
0.02103519217
0.01779286303
0.0117461903
0.01193767658
0.01889429611
0.01795577414
0.01118975676
0.01189031093
0.01146730049
0.09614388074
0.04330502052
0.05276482986
0.009676951801
0.009820990935
0.009940699043
0.01224604134
0.01313469144
0.02409301385
0.007112074007
0.004935880766
0.008725582242
0.01568729156
0.00966159778
0.0110228472
0.009612699991
0.009974011539
0.01365199752
0.01188252026
0.007923950296
0.005589904678
0.02326186289
0.0240086076
0.02238471512
0.02272481642
0.02604724876
0.03901628646
0.03951636979
0.03832630793
0.03879464421
0.02582641116
0.01634875065
0.03006568965
0.03001429607
0.03098513299
0.03022929288
0.01599874317
0.02859674878
0.04345817427
0.04797773736
0.03996520992
0.04115260664
0.02774103708
0.01753009655
0.03008360399
0.03005794364
0.02997971088
0.03004350232
0.01720630689
0.02150883054
0.02204243654
0.02073738598
0.02169060461
0.009661455325
0.006840970939
0.009786217716
0.01195739082
0.006654157424
0.008594475894
0.007564357651
0.01565392778
0.004178750708
0.009847715967
0.007521919725
0.005100163774
0.006301417481
0.01047740966
0.01010160019
0.009626415772
0.01207998526
0.01064629337
0.009746315593
0.009904803739
0.00724115117
0.01004649403
0.02857571212
0.02237323006
0.02214415168
0.02775876403
0.03187074622
0.03457678563
0.0322196047
0.02875499432
0.02234711753
0.03474823317
0.03679887441
0.02555727511
0.03488590437
0.02368930381
0.02438438857
0.03761589277
0.03810636194
0.03679347566
0.03745933323
0.02412748321
0.02483859976
0.04379492788
0.04321347931
0.01452189131
0.01470353228
0.01672379884
0.01289857638
0.01326389975
0.01392824429
0.01524335918
0.01469365311
0.0190436846
0.03685943598
0.03306131828
0.04222677236
0.04024568533
0.0223271311
0.01005905849
0.01209964041
0.02329604212
0.008663302547
0.009905310361
0.009927026758
0.01624946465
0.01018692197
0.01049935493
0.0293500487
0.02598966496
0.01319586882
0.04129297266
0.0445362975
0.04256810689
0.05233714705
0.04752278865
0.03899168692
0.02715017864
0.02889043045
0.03794415328
0.03117783078
0.02963643204
0.0331777544
0.03155076096
0.03493371212
0.03046942603
0.03126408969
0.02479020651
0.03249328259
0.01852943603
0.03011836619
0.03011659726
0.03013402563
0.0301500807
0.01839128364
0.01956010518
0.02786321761
0.02428016939
0.02993017484
0.02936223484
0.01940819027
0.01162616725
0.01213318295
0.01103013854
0.01672025978
0.01410926964
0.02209246526
0.01294332407
0.01271862418
0.01316774893
0.01306608203
0.02163329268
0.02999680783
0.0151374901
0.01795576496
0.0129960605
0.01246554714
0.02594019386
0.01010988727
0.01556229477
0.0146953594
0.02147051398
0.01774841375
0.009894828141
0.00983896513
0.01023245364
0.01335169677
0.01165739394
0.007954765544
0.009985608763
1.122689176
1.15719616
1.111000371
1.097757651
1.157352399
1.103238684
1.157116712
1.157159138
1.158093482
1.157386469
1.156697458
1.157159633
1.156454383
1.156196603
1.156242973
1.155677794
1.155789059
0.7948488978
1.045242336
0.7842221026
0.7833281925
1.022677481
0.7922105406
0.8457572179
1.082805276
0.8720314007
0.9800207408
1.15780505
1.025796182
1.157653869
1.156641352
1.15719839
1.156054055
1.155710798
0.4928440515
0.7138365472
0.4842860617
0.4904442924
0.7050895773
0.5018603688
0.5601346382
0.7689328082
0.5866436822
0.6890590375
0.9005419899
0.730256656
0.8857259018
1.112852106
0.948590846
1.157334925
1.156276075
0.2609677881
0.4279314364
0.2539283223
0.2670304984
0.4271970727
0.281168295
0.3467121012
0.5001348936
0.3739798778
0.4736256399
0.6272658271
0.5127293052
0.6525972136
0.819299279
0.7080056054
0.9088520714
1.094506735
0.0916574502
0.2151727981
0.08913982242
0.1225161628
0.2228835483
0.1386961087
0.2074820611
0.3050447306
0.2350747478
0.3307581436
0.4312566656
0.3674717848
0.496271118
0.6071012549
0.5471110541
0.7299537091
0.8579334381
0.03650233462
0.04623736698
0.07904126129
0.08693358811
0.1142473433
0.1350355217
0.161932618
0.2500655655
0.3051254376
0.2838558481
0.4019462129
0.4675218774
0.4480076318
0.6123859062
0.6944081399
0.06061692748
0.08659825488
0.09176884761
0.1432449859
0.2187611998
0.2380676177
0.2488570954
0.3556017376
0.3862126424
0.3975685408
0.5482525273
0.5914757216
0.07886237879
0.09816782842
0.09248886364
0.1537374939
0.2206713634
0.2168007343
0.2477271301
0.3454906896
0.3501304407
0.3842787901
0.5235797872
0.5383369375
0.1069690132
0.1243027755
0.1138453719
0.1801052653
0.243524134
0.2246706023
0.2692272028
0.3619944477
0.3473725321
0.3987580603
0.5297940906
0.5225352913
0.1413141798
0.1596783304
0.1459932576
0.2188861385
0.2839476413
0.2519442873
0.3098071654
0.4016556754
0.3697123173
0.4375591463
0.5630664821
0.5360420381
0.174027435
0.1926825825
0.180849622
0.2972190029
0.415455812
0.5764536096
0.05885832509
0.05134712828
0.05545727157
0.04431393867
0.04376724682
0.05276302574
0.08215125966
0.07625927503
0.08193024746
0.05705949783
0.06252911326
0.06646630525
0.1163171725
0.1126422548
0.1177405378
0.08401570233
0.08914966068
0.09380332899
0.1493299329
0.1449094734
0.1475496295
0.121692364
0.1260995748
0.130036225
0.1499160004
0.1521186282
0.1593405622
0.003381582895
0.003833068527
0.003117363013
0.03878622445
0.003331904405
0.003100099024
0.05881614179
0.04988909591
0.04589080881
0.08357032522
0.05176381594
0.07684790619
0.03043595476
0.0297763787
0.03031650506
0.01936782671
0.01912768852
0.02279475945
0.0898505846
0.08790239142
0.06170239913
0.1222729036
0.10319581
0.1038273374
0.1074239628
0.1044788151
0.1248435741
0.05560441481
0.03632276346
0.03599452442
0.05479407384
0.0563084483
0.05129644936
0.1097820538
0.1016149754
0.08046410036
0.130323873
0.1146131716
0.1202293023
0.1061739426
0.1098702508
0.1263275601
0.08599498137
0.06957089199
0.07175526382
0.04798790158
0.04827713852
0.06697217714
0.1412847447
0.1288601877
0.1112509912
0.1553612521
0.1415005564
0.1497392294
0.126589146
0.1337032038
0.1479597647
0.1290836178
0.1109134208
0.1160192786
0.07487454372
0.08155252389
0.1183717682
0.04307497608
0.03922692132
0.02434307917
0.1409127329
0.1280446773
0.1321363511
0.1367035796
0.1369113218
0.1368561376
0.04670763179
0.05086925906
0.0525721206
0.03135537213
0.03195292018
0.03306170894
0.04616463301
0.04965106198
0.0565901524
0.03595136591
0.03798381125
0.03628520093
0.04836601559
0.04679555584
0.04443066002
0.06544216725
0.04763572365
0.04775037291
0.03590304173
0.03587066987
0.05481792932
0.06970390275
0.07356205492
0.08382307271
0.07368179732
0.06650519361
0.06164322167
0.07423273758
0.07232083592
0.08283879175
0.05108268319
0.05172587512
0.05000038505
0.06117305688
0.05748866223
0.06686987663
0.06701959943
0.06332337857
0.06775910387
0.1049667034
0.06541010939
0.07265371248
0.07366615628
0.07531597465
0.09109684886
0.1019990765
0.1086177055
0.1120188835
0.1026076575
0.09904101456
0.09614243958
0.1148342499
0.109761961
0.1107300172
0.08750440454
0.078229366
0.0762195898
0.09304589302
0.08863250182
0.09634969352
0.09812769941
0.09191433575
0.09838103781
0.1365844362
0.1360753743
0.1365275281
0.1210237779
0.1261446094
0.131934363
0.1321252758
0.0474193557
0.008117772319
0.009990875214
0.009841687787
0.1704894325
0.1679936681
0.145244252
0.1903646181
0.1764288673
0.1865813898
0.1583763296
0.1669944986
0.1809770701
0.08990674386
0.05092878041
0.06207446162
0.0710721229
0.07316424519
0.08708607623
0.02694669593
0.03696064155
0.03790488937
0.03475374885
0.03350319324
0.03103070414
0.052214796
0.04399482865
0.04445016405
0.07888183458
0.06442441595
0.06746642996
0.04164671653
0.04543410303
0.06369272675
0.1381800281
0.1419035999
0.1448552418
0.1342270969
0.1358988337
0.136841983
0.1430026001
0.1396692114
0.1380349538
0.122255663
0.1238853246
0.1190706342
0.1325013615
0.1261227877
0.1236773492
0.1338338058
0.130486806
0.1342475517
0.01533234471
0.02422857241
0.02062381183
0.01959337564
0.03281251479
0.02064456307
0.03165127818
0.01455181298
0.01840045506
0.02959884721
0.02187496288
0.02402016485
0.0268076108
0.01199521171
0.01714166957
0.01555503583
0.01772414997
0.01609964199
0.01678809717
0.02314347811
0.02005483907
0.02111885992
0.05144970622
0.04952592083
0.06688312729
0.06098317692
0.05277981725
0.05166166355
0.06074311041
0.06176735267
0.07860499129
0.0744500672
0.05746854003
0.05938227521
0.1010853538
0.1059870786
0.1284825349
0.02822707549
0.04635034776
0.0425252499
0.06594464827
0.06320760977
0.0441388334
0.038693739
0.03572859677
0.0185665324
0.1232141406
0.08415418844
0.08840364385
0.1125128658
0.08610875593
0.09196651409
0.0661170528
0.07343479485
0.1067785544
0.03885843477
0.04063729318
0.04090028085
0.03918142792
0.03669889977
0.03752424579
0.04744943483
0.04744191913
0.06384999025
0.06240504411
0.04663608133
0.04728171073
0.06678252323
0.06510979227
0.07604688156
0.0700081283
0.06745977297
0.06895387013
0.06382252344
0.06434473722
0.06828913738
0.07626284508
0.07350371179
0.07521968799
0.0702605132
0.07182487904
0.07451766955
0.08194502176
0.07047420345
0.06867559802
0.0551021245
0.05340122616
0.05248594555
0.05741834122
0.05515938937
0.05684712922
0.05177926848
0.05347349699
0.05578556473
0.06340642716
0.06241026111
0.06317344276
0.05839480245
0.06028800035
0.06194509658
0.06595362283
0.05755859501
0.05674224594
0.05556226572
0.06257345606
0.1132544859
0.09991528304
0.08425533744
0.08613838212
0.06124154785
0.09667504677
0.09705584048
0.1071304077
0.1019329251
0.06455761862
0.1338948186
0.1314225764
0.1352549086
0.05279043501
0.03367285039
0.03754634383
0.0162242729
0.01852485463
0.03475311443
0.09791427929
0.02641659524
0.01394641606
0.01555817496
0.01365029487
0.01019801435
0.006954677888
0.01203676385
0.01670403105
0.008499817528
0.0108924374
0.01049902908
0.008823837322
0.008313596409
0.01314162759
0.009290281504
0.01283868777
0.006783808329
0.008020484238
0.0115029313
0.0393123957
0.03719570036
0.05679854758
0.05306656533
0.05556486125
0.05459069747
0.06541052913
0.06736786938
0.08423229783
0.02878388513
0.04868722885
0.04639629934
0.05478127065
0.05178372136
0.03276068415
0.06779992878
0.04886236126
0.04991863562
0.04750022944
0.04950470636
0.04555075047
0.04189092206
0.03948849695
0.03784256663
0.0451703478
0.0419979683
0.04361382425
0.03910243474
0.04056967634
0.04392238513
0.05102470577
0.04851856908
0.05015102422
0.04519757237
0.0468816598
0.04956022127
0.04355753935
0.04524422848
0.04390424542
0.04745264078
0.04752851845
0.06504505362
0.05539104289
0.03645267264
0.03824984468
0.03966569449
0.0587142427
0.05705649984
0.06161051527
0.06016805678
0.04067228439
0.09275474764
0.07689513728
0.07845266546
0.1045173521
0.1018266524
0.1058243206
0.1044235881
0.1015548954
0.1044200271
0.09572492675
0.0986351381
0.1014241545
0.08209615033
0.08018530789
0.08883664058
0.08393891509
0.08084819808
0.08287040183
0.07703315456
0.07890870878
0.08181484371
0.09330360628
0.0900151065
0.09283291223
0.0850578411
0.08748934186
0.09060838529
0.09449348515
0.08635829647
0.08417188017
0.135552947
0.1356493184
0.1355420892
0.08262281327
0.1177665291
0.1125392228
0.1285867765
0.1231176003
0.09503442913
0.01133120935
0.01152023796
0.01337598208
0.04102602718
0.0250534959
0.0281399694
0.01895734779
0.02213617055
0.03706565941
0.008621626239
0.01431952968
0.02795740492
0.02494168339
0.03509537463
0.03126863348
0.01628988168
0.06757191405
0.04939395356
0.05333959403
0.02158637914
0.02154588193
0.02401217529
0.01838838947
0.01999970094
0.02083044998
0.02571378184
0.02861341689
0.0258495036
0.01840365544
0.01655924866
0.01765743676
0.0159746611
0.01603990215
0.0177763447
0.015181432
0.01457935085
0.01403428983
0.06481517142
0.04803488677
0.04352188326
0.05404698411
0.05311409488
0.0589901457
0.04513672996
0.04436554345
0.02512014245
0.08000217274
0.06280206887
0.0639269504
0.05205120033
0.05482190772
0.07247726837
0.0527649624
0.04976329698
0.03095101771
0.08319378527
0.06823941493
0.07086038862
0.06205032532
0.06524933424
0.08070433244
0.06331922753
0.04395990387
0.04749692427
0.03747670191
0.04028918086
0.06013121872
0.07379081725
0.05577396234
0.05872081062
0.05056902485
0.05306802699
0.07102692379
0.01765432143
0.03365120494
0.03175156705
0.02712928443
0.02388765673
0.01266740891
0.05716181643
0.03948598454
0.04336914492
0.03196565421
0.03569837245
0.05259226634
0.04215236177
0.04267834872
0.04494342043
0.03490496824
0.035892085
0.03683493234
0.0423286954
0.03619880503
0.034433269
0.04048284326
0.03830517544
0.04465778646
0.06412155674
0.04743864065
0.0474309816
0.04179522005
0.04501237984
0.06102957145
0.03982291691
0.02124356562
0.02369498148
0.01927656385
0.02022823366
0.03788438736
0.05257797611
0.03355168574
0.03542224098
0.02760588545
0.03109723983
0.04969133678
0.0281207213
0.03052777773
0.04916027631
0.03859413205
0.02221708429
0.02551034047
0.09479252624
0.1023889563
0.0804779568
0.1493936744
0.1252289836
0.112252735
0.158078887
0.1389954964
0.1647165669
0.1966155584
0.20679583
0.2247485598
0.1387617075
0.1493034335
0.1457462599
0.1534167997
0.1515777745
0.1449482056
0.006439042321
0.004807973718
0.004340316812
0.008062558397
0.006456501696
0.007427052039
0.004672530305
0.004972016708
0.007380915401
0.004658173062
0.003979362373
0.003514980972
0.00592869555
0.004517924527
0.005825697393
0.004117648126
0.004094654818
0.005337580179
0.03739075775
0.04549879277
0.05124400199
0.03875283509
0.04005271767
0.03366751237
0.02791521477
0.02863351783
0.02863041201
0.02558960022
0.02758510987
0.02669111248
0.0289273969
0.02808398417
0.02657859063
0.07046029535
0.0556198965
0.05924227269
0.04748228505
0.05151718171
0.06716622566
0.02069378211
0.03499565267
0.03099062545
0.1113260599
0.1344356234
0.1340130215
0.1354832117
0.1348841421
0.1169380843
0.03076596292
0.03059000687
0.02965330003
0.03309782799
0.03164722835
0.03245964678
0.03432982273
0.03302950236
0.03383213916
0.06329681473
0.04001857326
0.05758188344
0.05453899193
0.06443813852
0.06162077205
0.04335745885
0.08904912318
0.07756081409
0.07737780971
0.04009164982
0.03652270748
0.03777194191
0.02917499052
0.03231365033
0.03123559666
0.05726355445
0.06079627833
0.07613205863
0.02617029587
0.04278939822
0.03914503056
0.05037488216
0.04672760005
0.02943644094
0.02453700148
0.02212340803
0.02592351458
0.01556856375
0.01874678773
0.0209082291
0.01602797111
0.01723141654
0.01373655482
0.09249247335
0.07916303784
0.08095755715
0.07370203699
0.07613546399
0.09024250759
0.04019271241
0.05948050899
0.05618361359
0.08022421018
0.08206712957
0.09798907327
0.04586332816
0.06566885092
0.06343689198
0.07071771233
0.06836895059
0.04940662744
0.01111082979
0.009788820789
0.01159627751
0.006923474536
0.008176675241
0.009269178279
0.006912085924
0.007426017774
0.006041886157
1.156870767
1.156917624
1.15645856
1.156892188
1.156808506
1.156426648
1.156687431
1.156534259
1.156333049
1.156370906
1.156212582
1.156228289
1.156069553
1.155947876
1.156142473
1.155842702
1.155760385
1.156086929
1.155697788
1.155650575
1.156051876
1.157581959
1.157667767
1.157317257
1.157691652
1.157624895
1.15730275
1.157331942
1.157183798
1.156942559
1.156721902
1.156546352
1.15644095
1.156104827
1.155958235
1.155977474
1.155537337
1.155221257
1.155455751
1.155067684
1.154938593
1.155268689
1.154844994
1.154796049
1.155189546
0.9501156917
0.9423805401
1.022891808
0.9513303963
0.9642197441
1.042401219
1.030731464
1.064107472
1.142049112
1.157917444
1.15757936
1.157188128
1.156577868
1.156287028
1.15613543
1.155740475
1.155052547
1.155090953
1.154670794
1.154398305
1.154644721
1.154203389
1.154093126
1.154426502
0.6267770442
0.6227951153
0.6993334592
0.6399308714
0.6543124146
0.728517046
0.7215449941
0.7518372402
0.8257818525
0.8686522787
0.9183530694
0.9959919257
1.097383374
1.157562152
1.157141811
1.156727794
1.155343278
1.155099687
1.154627186
1.154092793
1.154190196
1.153708321
1.153465031
1.153713423
0.3596909198
0.3574219492
0.4169467991
0.3821564572
0.3992943854
0.456028303
0.470946354
0.5014661959
0.5574717269
0.6124932964
0.6565616709
0.7143402608
0.816707763
0.8808114708
0.9451321161
0.9848177843
1.15650072
1.155774896
1.155228385
1.154240664
1.154090694
1.153540645
1.153047134
1.153207448
0.165962102
0.1675010657
0.2074917104
0.2004301434
0.2199975213
0.2579511435
0.2957818517
0.3259789735
0.3630688517
0.4316222589
0.4728086253
0.5116613243
0.6187907256
0.6766999728
0.720775109
0.7922403932
1.039439775
1.132503402
1.156509403
1.154899307
1.154505938
1.153723079
1.152846126
1.152899848
0.06005110346
0.05973653992
0.07292840984
0.1910641436
0.2195797725
0.2402739742
0.3189368919
0.3569070286
0.3801160452
0.4905450904
0.5429211457
0.5706671133
0.6723635506
0.8977953969
0.9633099757
1.083650605
1.156058248
1.155466193
1.154268326
1.152931608
1.152814414
0.06050391042
0.07000703517
0.07162510685
0.1466406182
0.1724056811
0.1790331114
0.2610446135
0.2955939417
0.3064523337
0.4172940635
0.4651402236
0.4799917675
0.6058488152
0.7986987145
0.8415274655
0.9804529581
1.157605877
1.156827882
1.155172086
1.153303068
1.153040089
0.0727913897
0.07947829007
0.07690353553
0.1460542957
0.1671581727
0.1659313926
0.2449415467
0.2759575803
0.2777470314
0.3869597825
0.4310481688
0.4361649924
0.5774277565
0.7488720112
0.7681635308
0.919300578
1.115045775
1.145618682
1.156354284
1.153948746
1.153561523
0.09862763297
0.1037955417
0.1001843856
0.1652810082
0.1846128689
0.1786699394
0.2560368765
0.2848122405
0.2804578266
0.3883977957
0.4295202528
0.4272451885
0.5791755107
0.7374000604
0.7388274623
0.895615175
1.07706542
1.09214278
1.157694529
1.154809456
1.154337551
0.1329315836
0.1383000548
0.1339960668
0.197901173
0.2171576639
0.207764594
0.2870533025
0.3150693562
0.305595461
0.415066178
0.4544757827
0.4458777207
0.6084077425
0.7579501633
0.7440146599
0.9050464199
1.070965596
1.070763499
1.159088675
1.155821184
1.155297986
0.1659943426
0.1739165859
0.1688610367
0.2442196415
0.2648975936
0.2511211025
0.3384643392
0.3670757067
0.3517029198
0.466769822
0.5053650312
0.4900148436
0.7785775715
1.08073628
1.156361057
0.06236176961
0.07488619202
0.07294803429
0.06521128834
0.09706462053
0.09420744173
0.08795662011
0.129354643
0.1251025713
0.1200479364
0.1416847482
0.1413181058
0.1382351604
0.04678890531
0.04635855255
0.04577199237
0.07263871112
0.06704931947
0.06610650531
0.07745603301
0.07726593022
0.08375258432
0.04865153602
0.04850788386
0.0479333401
0.06482065119
0.06360830783
0.06812695619
0.1135323635
0.1113993994
0.1156020756
0.08560924431
0.07944643116
0.07923485349
0.1422913117
0.1650513763
0.1608454061
0.1581344477
0.02602524205
0.03004686872
0.03051227449
0.131353576
0.1316422118
0.130567545
0.1423953145
0.1400433657
0.1402290018
0.119526509
0.1178529661
0.1160855623
0.1286280069
0.1273282249
0.1265579405
0.0309584527
0.02648561882
0.02406024217
0.02336277518
0.02291571137
0.02785535584
0.01112114917
0.0129686826
0.01324712089
0.07088560227
0.07050625815
0.07904851869
0.08064519206
0.0724528659
0.07246762835
0.05429374565
0.05349414214
0.05549245013
0.06051220776
0.05652863989
0.0555721889
0.08849621687
0.0899120725
0.1060730588
0.05409835867
0.07173024048
0.06931317503
0.08731835223
0.08474472844
0.07067564016
0.03934483939
0.03838795824
0.03888863991
0.04149554203
0.04186961729
0.04121111598
0.08455949832
0.08459413134
0.09175174179
0.09213207004
0.08640793157
0.08624627377
0.0787448356
0.09265201859
0.08972541349
0.07429632707
0.07704670164
0.06745477125
0.1406183388
0.1460255813
0.1434753976
0.1634509385
0.1556958388
0.1598119256
0.05967554889
0.05405821587
0.06353172703
0.030950269
0.03172773253
0.02780512689
0.1381703471
0.136836031
0.1378202737
0.03442069646
0.03543049747
0.03915761306
0.01355791321
0.01390446588
0.01290305452
1.157918925
1.157487433
1.099090664
1.158097064
1.158021472
1.158144338
1.158135476
1.096811763
1.157345388
1.157706588
1.157715815
1.116617684
1.158064764
1.158122038
1.157831994
1.157982113
1.130476128
1.157247542
1.157544062
1.157433826
1.157892038
1.15746734
1.157665378
1.157102614
1.157301219
1.157647326
1.156827543
1.15704492
1.156869432
1.156918845
1.156703113
1.156915276
1.156321873
1.156520385
1.15668763
1.15632121
1.156402023
1.156237041
1.156034077
1.155976265
1.156153597
1.155681424
1.155829013
1.155850036
1.155882819
1.155842086
1.155718155
0.8782189533
0.9624422683
0.7788720536
0.860361169
0.8667362987
0.8633594766
0.8595944185
0.778819121
1.020634682
0.9408372936
0.9437820122
0.8056188857
0.8846696138
0.8715849085
0.9247922011
0.9020851038
0.8233619207
1.058462359
0.9811550257
1.004444805
0.9032992073
0.9833302404
0.9511731998
1.061937957
1.019479846
0.9389222888
1.158070847
1.099721309
1.142647283
1.078058422
1.15799838
1.107163845
1.157223668
1.157638093
1.131752446
1.156916081
1.157205616
1.156885017
1.156774541
1.156500518
1.156843521
1.155892191
1.156179481
1.156396474
1.155911719
1.156019372
1.155780048
0.5623355569
0.6361279217
0.4812112156
0.5498915738
0.5533765156
0.5579697206
0.5515568622
0.4834218556
0.6999088734
0.6239566727
0.629771453
0.5174099709
0.5838315445
0.5688189911
0.6255039997
0.6027602194
0.5369322288
0.7465989988
0.6728020382
0.6952992303
0.6166712
0.6819613149
0.6518637059
0.7546695548
0.7159239452
0.6507743681
0.8607203684
0.7861599059
0.8248989697
0.7761440632
0.8469239176
0.7991900456
0.9559303417
0.8981592563
0.827608817
1.05222884
0.9736964131
1.032730058
1.0158768
1.091423979
1.022276962
1.156943779
1.157478679
1.088556493
1.156676611
1.157064138
1.156560214
0.3121161319
0.3676108139
0.2527729166
0.3026263063
0.3043298434
0.3155110494
0.3064287873
0.2572623533
0.419590554
0.3607178352
0.369132578
0.2993710419
0.3470456066
0.3294066316
0.3925073205
0.3680226789
0.321524923
0.4763193614
0.4198702962
0.4436950605
0.4040806133
0.4500727797
0.4201832647
0.5200220167
0.4830854404
0.4375781657
0.5912379878
0.5343258085
0.570803608
0.5549745636
0.603179076
0.5604515975
0.7029873051
0.6503407396
0.601508978
0.762953564
0.704054214
0.7584487668
0.7692628044
0.82225761
0.7597510035
0.9639410537
0.8906619203
0.8364315628
1.01786311
0.9515940893
1.025014287
0.1382021492
0.1721452689
0.09344381126
0.1302143707
0.1310095582
0.1490826093
0.1381333219
0.1082458536
0.2125180672
0.1729784428
0.1844947549
0.1566500752
0.1869589729
0.1663660395
0.2353109025
0.2095657955
0.1813093567
0.2802640911
0.2425467239
0.2677894294
0.2646371021
0.2930781292
0.2632952488
0.360111932
0.3252700717
0.296525085
0.3959509691
0.3583245205
0.3934539568
0.4070151607
0.4379992008
0.3976411219
0.5289214894
0.4816959516
0.4500095537
0.5573273898
0.5175649059
0.565971757
0.6022428281
0.6373822012
0.5808702318
0.7693159756
0.6998982528
0.6628777225
0.7860855963
0.7410533103
0.8112337407
0.03682927893
0.04825922769
0.04714952784
0.05545619722
0.05061018724
0.04075360298
0.07632183514
0.0625280226
0.06789898277
0.1890371157
0.2026585962
0.1748443734
0.2651224842
0.2329917976
0.2187723207
0.271563695
0.250432909
0.28337654
0.3202346228
0.3369651528
0.2997865497
0.4205331958
0.377182201
0.3595242925
0.4223216261
0.3980746001
0.4423286292
0.4979147586
0.5187601425
0.4676685493