/*--------------------------------*- C++ -*----------------------------------*\
| =========                 |                                                 |
| \\      /  F ield         | OpenFOAM: The Open Source CFD Toolbox           |
|  \\    /   O peration     | Version:  v2012                                 |
|   \\  /    A nd           | Website:  www.openfoam.com                      |
|    \\/     M anipulation  |                                                 |
\*---------------------------------------------------------------------------*/
FoamFile
{
    version     2.0;
    format      ascii;
    class       surfaceScalarField;
    location    "2.37";
    object      phi;
}
// * * * * * * * * * * * * * * * * * * * * * * * * * * * * * * * * * * * * * //

dimensions      [0 3 -1 0 0 0 0];
oriented        oriented;


internalField   nonuniform List<scalar> 
5999
(
0.000478740035
0.91617126
0.0006343130513
0.916544427
0.00080114517
0.9164831679
0.0003955478554
0.9164747533
0.0005808440247
0.4583363934
0.0004091544279
0.4582833774
0.0005233768809
-0.0005067542398
-0.0006560060312
0.458249261
0.0007567449985
-0.0008561105414
0.4581920281
0.0009990824348
-0.001153423358
0.4581658289
0.001317594436
-0.001497305476
0.4581506578
0.001681647718
-0.001857459235
0.4581728008
0.002019658427
-0.002163877394
0.458233279
0.002262098345
0.001320251359
0.9148510086
0.002169221715
0.9156954566
0.002638162601
0.916014227
0.0009693209286
0.9166715122
0.001472082765
0.4579291842
0.001165356098
-0.4581252194
-0.4580800663
-0.001434183647
0.4577470848
0.001767165113
-0.4578939175
-0.002173153856
0.4574124677
0.001243148087
0.001411455572
-0.228870384
-0.001489700767
0.2287474437
0.001612641123
-0.002115874661
-0.2288013172
0.2286435759
0.002273615966
-0.002869769696
-0.2287669268
0.2285774243
0.003059272188
-0.003669208662
-0.2288095157
0.2286222856
0.003856438769
-0.004328640205
-0.2289422924
0.2287950052
0.004475957795
0.001696467619
0.913154541
0.004462813275
0.912929111
0.00757822223
0.912898818
0.003366308265
0.9140068426
0.006876583541
-0.4577668678
0.4574485437
0.003684632325
-0.4573933632
-0.003847586485
0.4578269023
0.003414047454
-0.4567522288
-0.003751868455
0.456222072
0.002067686792
0.002214338415
-0.2281481401
-0.002531907516
0.2278853243
0.002794723246
-0.2278681245
-0.003716331085
0.2275200203
0.004064435287
-0.2276938565
-0.005237513999
0.2271538913
0.005781723924
-0.2276489731
-0.007774718505
0.2269784776
0.008464579758
-0.2280789975
-0.01035406061
0.227598497
0.01084843665
0.0007152795658
0.9124392614
0.001581024406
0.9120633661
0.003162912503
0.9113169299
0.003827296814
0.910522919
0.002819539278
-0.456507588
0.4558822294
0.004452655467
-0.4591200817
-0.005896079095
0.4557925135
0.009223647263
-0.4573286578
-0.01081521866
0.4584878065
0.003139553525
0.006516516406
-0.2269105742
-0.003353476684
0.2265750812
0.003688969731
-0.2260269669
-0.00519735225
0.2248784933
0.006356574664
-0.2239987135
-0.01061465399
0.2224764956
0.01218437509
-0.2237469128
-0.01692899133
0.2222885522
0.0184362813
-0.2253358882
-0.02238802848
0.2243161874
0.02343249648
0.0002983258111
0.9121409356
0.0007098477032
0.9116518442
0.001408419025
0.9106183586
0.001969021755
0.9088780834
0.001084232911
-0.4554064131
0.4544245596
0.002950875209
-0.4540590902
-0.003628351015
0.4531110283
0.004576412918
-0.4519426663
-0.005836182485
0.4506861447
0.003682674179
0.003410029949
-0.2267641866
-0.005827586085
0.2246295088
0.007963049197
-0.220831862
-0.01479812019
0.2210416699
0.01464621649
-0.2168108846
-0.01764907144
0.2147343206
0.01980870667
-0.2170867354
-0.02619415594
0.2151774053
0.02816748127
-0.2205376853
-0.03343896661
0.2190630454
0.03493937563
-6.675203998e-05
0.9122076877
2.379171974e-05
0.9115613005
0.0004722275848
0.9101699228
0.0007256617785
0.9079905065
0.0006341426847
-0.4533546399
0.4528309378
0.001249363856
-0.4522814351
-0.002458111024
0.4512083038
0.003531242337
-0.4493665346
-0.004475091999
0.4478567914
0.002996357605
0.002988477554
-0.220115556
-0.004685497209
0.2184724005
0.006359329429
-0.2111170087
-0.01275369597
0.2088028639
0.01516253371
-0.2101382577
-0.02466372816
0.2063301518
0.02857418024
-0.2114992687
-0.03526121881
0.2110782373
0.03573989073
-0.2144550571
-0.03965605729
0.2140807285
0.04004303637
-0.0006164722186
0.9128241599
-0.001055305962
0.9120001342
-0.001248964929
0.9103635817
8.824070665e-05
0.9074492002
-0.0007958992692
-0.4525577609
0.4520964532
0.0005495483691
-0.4498855483
-0.0009656389593
0.4492832435
0.001567943818
-0.4470572172
-0.002823420974
0.4462261323
0.001783036851
0.001871963688
-0.2135674878
-0.004411909888
0.2118937713
0.006143622333
-0.2014144452
-0.01244913303
0.2005152027
0.01346729469
-0.1996083571
-0.01989902342
0.1979312626
0.02167825012
-0.2033451162
-0.02713920776
0.2010798706
0.02943867019
-0.2060331966
-0.04542762251
0.1043756634
0.09853056923
0.02210462168
0.02644996485
-0.00122478734
0.9140489472
-0.002365548813
0.9131408957
-0.003255877225
0.9112539102
-0.001615386136
0.9081710441
-0.002362335036
-0.4520114193
0.4519499445
-0.001553911387
-0.4489506241
0.001539588937
0.4487610884
-0.001350053202
-0.4444031826
0.001080578573
0.443491389
-0.0001126558106
-4.915746354e-05
-0.2076913315
-0.001711726506
0.2066900813
0.002785005093
-0.1950109264
-0.00688582662
0.1937371437
0.00828573494
-0.1940055593
-0.0126381991
0.1927950849
0.01394860639
-0.197891853
-0.01673044237
0.1974841671
0.01714993598
-0.08977820094
-0.01102905291
0.08953563446
0.0112716194
-0.001848651251
0.9158975985
-0.003616330263
0.9149085747
-0.005443816677
0.9130813966
-0.003170638092
0.909828678
-0.003930812501
-0.452204667
0.4524516328
-0.003417603962
-0.4488347221
0.003718751698
0.4491300422
-0.004014071778
-0.4430273712
0.004316265119
0.4428882156
-0.00189555737
-0.00226672523
-0.2039018161
0.0008526461167
0.2030800638
5.325259586e-05
-0.1900941389
-0.003424369028
0.1890630912
0.004592359909
-0.190767548
-0.007414156458
0.1903465524
0.007937364293
-0.1986312723
-0.007589954381
0.1994821644
0.006744546052
-0.09329971154
-0.00130178062
0.09398607104
0.0006154211189
-0.002437380735
0.9183349792
-0.004997211144
0.9174684051
-0.007525661735
0.9156098472
-0.004732585418
0.912534082
-0.005498480269
-0.4530199021
0.4535882951
-0.005300978392
-0.4495975096
0.005973005067
0.4503760087
-0.006751504129
-0.4430073718
0.007555833138
0.4433122537
-0.003692166224
-0.004145151138
-0.2009713134
0.002879829598
0.2002951556
-0.002109745196
-0.1864089024
-0.0006942639034
0.185644509
0.001605869982
-0.1896603258
-0.003452829118
0.1896354399
0.003584130994
-0.2025785516
-0.001949726425
0.2037101745
0.000821383436
-0.09758200595
0.001461849698
0.09797810385
-0.0009091039738
-0.0009488436314
-0.003092904981
0.9214278842
-0.006204129258
0.9205796294
-0.009519865234
0.9189255831
-0.006215122954
0.9161737547
-0.006944415004
-0.4544504676
0.4553135569
-0.007078212213
-0.451302768
0.008131248753
0.452359103
-0.009187583807
-0.4439500199
0.01041858647
0.4447418391
-0.005448077751
-0.005726223599
-0.1984122919
0.004500301204
0.1978137782
-0.003796752523
-0.1836150676
0.001309820401
0.18301047
-0.0005472971402
-0.1899279964
-0.0007030982054
0.1901320093
0.0006089790457
-0.2071239124
0.001654928388
0.2082561953
-0.002785905491
-0.1003282588
0.002981125159
0.1006066273
-0.001614242126
-0.001645251528
-0.003672939747
-0.007405501799
-0.01134589569
-0.007515965884
-0.456406593
-0.00859790471
-0.4536704616
0.009869858898
-0.01126739925
-0.4453274378
0.01281890117
-0.006527359596
-0.007565936069
-0.1960326934
0.005449889792
0.1954110093
-0.004710934483
-0.1813667159
0.002287126275
0.1808697669
-0.001621509767
-0.1910455397
0.000844846556
0.1914712611
-0.001158286393
-0.2116839254
0.004185919782
0.2128535372
-0.005355403232
-0.1024490067
0.004338082811
0.1027212264
-0.002285094082
-0.002325208367
-0.001915959763
0.001187319428
-0.09257107121
0.001223926784
-0.09716686697
-0.0007991306984
-0.0008399350571
0.002816596277
-0.1000352466
-0.001542501612
-0.001567106884
0.004162458941
-0.1021827559
-0.002195573933
-0.002233135868
-0.01292492916
0.01360439686
-0.09045766865
-0.003083156437
0.001995669589
-0.2014872625
0.09806946695
-0.09766802168
0.0008224815173
-0.09418846433
-0.001883431633
0.09477011535
0.0008800569898
-0.002008111704
-0.205994127
0.1007600883
-0.1004633734
0.002519881374
0.001081115774
0.09845020087
0.09906992834
0.002101730078
-0.09872592551
-0.001209920666
-0.001235812244
0.04912209567
-0.0009812613278
-0.04885727382
0.001770048237
-0.001053608757
-0.04812288976
-0.0007455177227
0.001404452713
0.04819958944
-0.0007356346767
0.003591507024
-0.004788216416
-0.2104868393
0.1029329717
-0.102659747
0.003889234237
0.002698306754
0.1010429067
0.101408574
0.003474940482
-0.1011449641
-0.001852374797
-0.001886175638
0.02514833519
-0.0009837766453
-0.02520853223
0.001043973688
-0.04933489916
-0.0009500597948
0.001944959306
0.0493694254
-0.001029425752
0.004055327309
0.1032157272
0.05186464886
0.002454259969
-0.002538121455
-0.05178078738
0.02705118542
-0.002008710392
-0.0267990207
0.001756545671
-0.02616647885
-0.0009941742509
0.001148572712
0.02601208039
-0.04182215513
3.44448899e-05
0.04247716717
-0.0003347393795
-0.0003547175516
0.04578961529
0.001065762857
-0.04535187144
-0.0008116148037
-0.0006918918951
-0.006818224675
-0.03854300957
0.03843864435
0.006922589891
-0.0003568145038
-0.000299129296
-0.04116621133
-0.0007092254028
-0.04803904364
0.001355736472
-0.0007303571896
-0.001198434572
-0.04710800265
0.001074795273
0.04723164195
-0.09574779693
0.0003665603565
0.09625257243
-0.0008713358488
-0.04691988312
0.04699992046
-0.0006070429961
-0.0006714289186
0.0241371901
-0.0007246862214
-0.02412172928
0.001058369372
0.04606909907
-0.0007405230333
-0.0005973301229
0.001156069456
-0.04683823111
-0.0006023538509
-0.0006353676159
-0.0009540092861
-0.04934333447
0.001889912703
-0.0009274681124
-0.001041968771
0.00176186999
0.04928228407
-0.0008800896156
0.002290037332
0.0994094858
-0.001301482373
-0.00132811242
-0.02489692832
0.02496410494
-0.001109145388
0.02448056459
-0.0009012954999
-0.02453327837
0.02412883864
-0.0007371662625
-0.001194586159
-0.02468360349
-0.001034121805
-0.02629169951
0.00115934247
-0.0009933873435
0.001061877722
0.02507984481
0.003643322407
0.1016677922
-0.001932238408
-0.001970302217
-0.02533974327
0.0252016459
-0.0008552899759
0.02677241197
-0.0008041597136
-0.02700237406
0.02446070439
-0.0009301995976
-0.0008471626333
-0.02547635728
-0.001448039119
0.001495040741
0.0270041838
-0.002582493617
-0.02757307422
0.02738676861
-0.00126173351
0.02651155361
-0.0007333158932
-0.002257480194
-0.02732430442
-0.009541455588
0.00887378805
-0.1979572316
-0.0935954909
-0.002508933199
-0.09179038546
-0.01070063801
0.09146197055
0.09041803239
-0.005866536936
0.005292566726
-0.08984406218
0.04227436344
-0.0417298135
-0.0009013644531
-0.03960545392
-0.006735941862
0.03952317111
2.963492816e-05
-0.0005706396848
-0.09520679218
-0.04699222166
0.001040288462
-0.0456726646
0.0007775622416
0.04595347173
-0.04533239448
0.0007254927331
-0.0004894949989
0.04279830333
-0.004528014225
0.09108834766
0.003857698957
-0.01959935101
-0.0001062475615
0.01952473513
0.0001808634401
-0.00453598986
-0.01518918232
0.0149397293
0.004785442877
0.0007159544907
0.01739326593
-0.0009833368591
-0.01712588357
-0.03314333076
-0.09343241855
0.04553362059
0.04404739585
0.01844024437
0.0185544885
-0.007921903844
0.008876963006
-0.03949806873
-0.001117614809
-0.02485239329
0.001261032354
0.02470897575
-0.05095631197
0.002606092577
0.05101254848
-0.002662329092
0.05122822418
0.002757174099
-0.002828138789
-0.05115725949
0.004617073982
-0.01862997676
0.02634694684
-0.01233404405
-0.0001784648998
-0.01964988812
0.0002290020121
0.0439972033
0.0006682188904
-0.04355219635
-0.0005559724309
-0.0005572534006
0.02166832335
-0.02194001438
9.32261281e-05
-0.02043711108
0.002997698926
0.02205648614
0.02214435801
-0.02412541838
0.001956000791
2.505958105e-05
0.0001731264489
0.02138894934
0.0008008309902
0.04440985367
-0.000590636399
-0.0006228449612
0.03920617596
-0.003280111178
0.002730290358
-0.03865635513
0.01794553662
-0.01749247151
0.0002628893788
-0.01640990466
-0.003996158256
0.01587007305
-0.003103270596
-0.01968379231
0.002349951827
-0.001428396768
0.000772510724
0.01860142266
-0.002254601525
0.03984188334
0.00161889414
0.01799994163
-0.002035072461
-0.003102928743
-0.01863031862
0.02398149674
0.0006746718269
-0.0007797370744
-0.02387643149
-0.02057255938
5.15035304e-05
0.02051580482
5.251027586e-06
0.0007125140745
0.0240309535
-0.0007619708332
0.04653571203
0.001080897902
-0.04640671841
-0.0006287005223
-0.000581190995
0.02094073845
-0.02096316426
3.625879623e-05
-1.383298366e-05
0.0005980764082
0.02147289451
7.338709708e-05
-0.02062133311
5.161349129e-05
-2.839757327e-06
4.271172069e-05
0.02089536989
2.656840045e-06
0.001096866648
0.0466518945
-0.0006209349659
-0.0005921141506
0.02486913279
0.0008529717809
-0.0008396925119
-0.02488241205
0.000923394204
0.02479704021
-0.0008513016301
0.02413313424
0.0008139341364
-0.0008145593234
-0.02413250905
0.0008226606075
0.02413802093
-0.0008275473065
0.02451245998
0.00130420434
-0.001369346007
-0.02444731831
0.001554259141
0.02482846318
-0.001870262338
0.02609079539
0.001210484153
-0.00142842688
-0.02587285267
0.001104596533
0.02614811667
-0.001161917803
0.002800089719
-0.002863288419
0.02458616798
0.001063570643
-0.0007902900551
-0.02485944856
0.02433235732
-0.0008638041515
-0.04200633486
-0.02047647006
0.03777100272
-0.005799838435
0.006037164044
-0.01542650792
-0.02546427134
0.001064990029
0.02550387785
-0.05006184972
0.001891448219
0.05012364847
-0.001953246965
0.05029008637
0.002008381376
-0.002063132348
-0.0502353354
-0.04979818742
0.001750836682
0.0498666085
-0.001819257762
0.001861079796
-0.001924552218
-0.0499983773
-0.02534352943
0.001089742241
-0.05076405429
0.00240425293
0.05081348348
-0.002453682121
0.002549210344
-0.002595892936
-0.05090962938
-0.02501166169
0.001222839042
-0.04935125171
-0.0008759051969
0.001800484329
0.04935006678
-0.04950956732
0.001606845211
0.04958593446
-0.00168321235
0.001712508434
-0.00178264602
-0.04972804983
0.023647722
-0.0003146524635
-0.02391405033
0.0005809807923
-0.000302094953
-0.02467373203
0.0005523166056
0.02442351037
-0.02467375735
0.0009252014902
0.02462130325
-0.0008727473917
-0.02481816091
0.001353329411
0.02501909064
-0.05050974086
0.002245456793
0.05056143701
-0.00229715294
0.002359353518
-0.002412886444
-0.05071052136
0.002049867314
0.05034451547
-0.00210429641
0.002181120943
-0.002236931496
-0.0504539303
-0.02475373207
0.001239775499
0.02477702518
0.001018994713
-0.000875199219
-0.02492082068
0.02424296863
-7.253148532e-05
-0.02450833949
0.0003379023487
-0.02520673823
-0.0001212160731
0.0003556003179
0.02497235398
0.02270176483
-0.02284619197
0.0001499923495
-5.565203591e-06
-0.02617181776
0.00222458693
0.02391941079
2.782003544e-05
-0.02686963093
0.001596841602
0.02716272406
-0.001889934725
0.02471376474
0.001210894118
-0.00140153665
-0.02452312221
0.02291304446
-0.002127673502
-0.02286180063
0.002076429675
-0.0003722784693
0.0006472144412
0.02337278603
-0.0001134625984
-0.0254425257
0.0003492500737
-9.778856417e-05
-0.02615383126
0.0003379274717
0.02591369236
-0.02587876312
0.0009637382341
0.0257466584
-0.0008316335131
0.02569004407
0.0009949725201
-0.0007192931253
-0.02596572346
0.02223478733
-0.02234587588
8.658772125e-05
2.450082335e-05
8.419130669e-05
0.02256664022
5.093330015e-05
-0.01940467464
0.004404319738
0.0149443719
5.59829994e-05
-0.02431558773
0.002541659758
0.02520351539
-0.003429587414
0.01776611283
0.001151058651
-0.01906143388
0.0001442623926
0.003897800726
0.01373431774
0.0001339943654
0.01542416107
-0.001765983597
0.001462107807
-0.01512028528
-0.001000643631
0.0159327672
0.0004920375008
0.0199067946
0.0003739769892
-0.02051585406
0.0002350824654
-2.266260896e-05
0.01974043281
0.0001890244026
-0.02282347879
0.0003155299504
0.02248528623
-0.02212192231
0.0006910545784
0.02212561457
-0.0006947468416
0.02194047703
0.0006820809562
-0.0006109632442
-0.02201159474
-0.0209521441
0.0008196499285
0.02139554665
-0.001263052485
0.0007382201444
-0.0008373927242
-0.02202274972
-0.02318064398
0.0007311421837
-0.01994455897
0.003864732804
0.01997762689
-0.02231432354
0.001343639936
0.02292134604
-0.001950662438
0.02465726537
0.001132477398
-0.001470497031
-0.02431924574
0.0007132269627
0.02188640603
-0.0006591559612
0.001125346824
-0.001452011656
-0.02198765871
-0.02057967533
0.001786175006
-0.000374352049
-0.02028173395
0.0005901936315
0.02006589237
-0.01985184683
0.0002648197148
0.02002220488
-0.0004351777644
0.0006766581435
-0.001115719906
-0.02051308233
0.02028295412
0.0009354002898
-0.0009133770261
-0.02030497738
0.01983972826
6.887380778e-05
-0.01983179783
0.001361246841
0.01845151831
1.903267164e-05
-0.02234662202
0.00144524401
0.0227422192
-0.001840841196
0.02607461333
0.002039799368
-0.003046540676
-0.02506787202
-0.02263408924
0.0005444240849
0.02249566953
-0.0004060043825
0.0009706809995
-0.001027561402
-0.02228974161
-0.02027307093
0.0003818224599
5.945064862e-05
-0.02611347004
0.0004554468727
0.02591949219
-0.0002614690272
0.02532779038
0.0004353430014
-0.0002338091458
-0.02552932423
0.001500474645
0.02647045505
-0.001896316363
0.0005122413979
-0.0003227459717
-0.02630296546
-0.02111499373
1.739846911e-05
0.02108557598
1.201928381e-05
-0.02438724976
0.0005314624015
0.02423654108
-0.0003807537263
0.02378613222
0.0005198142486
-0.0003743289151
-0.02393161755
0.0008743549897
0.02472995254
-0.0009470421608
0.0005486470138
-0.0004035525621
-0.02453234421
-0.02116218773
1.787896606e-05
2.931503456e-05
-0.02076308204
1.765336505e-07
0.02069717644
6.572906279e-05
-0.0232093504
0.0005136661751
0.02306129008
-0.0003656058563
0.0005287985726
-0.0003880678905
-0.02277481992
0.0005210814999
0.02364306142
-0.0003780106989
0.0005141954142
-0.0003669318126
-0.023356614
-0.02082253744
6.185246577e-06
5.327015112e-05
-0.0261448738
0.0003156904358
0.02592402664
-9.484327802e-05
0.02527749753
0.000267422717
-5.036329685e-05
-0.02549455695
-0.02696468566
0.002011701953
0.02706473303
-0.002111749323
0.0003864121433
-0.0001310882501
-0.02640019769
-0.02442204977
0.02421155894
-9.160411776e-05
0.02353981491
-7.436610784e-05
-0.02378010126
0.0002686173697
0.02505965019
-5.077003024e-05
0.0002977594145
-8.846096099e-05
-0.02463134823
-0.02442366243
0.0004478816071
0.02419015211
-0.0002143712926
0.02347616389
0.0004768431664
-0.0002354497056
-0.02371755735
0.0004283277958
0.02510743031
-0.0002079677308
0.0004402036704
-0.0002096171582
-0.02465424894
-0.02250221505
0.00198367638
0.02256707552
-0.002048536845
0.003214422176
-0.004472410246
-0.02570669759
0.0005030448086
0.02323081069
-0.0002576915991
0.001159654401
-0.0009446120235
-0.02271725743
-0.0004763826514
0.02266331589
-0.02325298906
0.001066055823
-7.008446038e-05
0.000348201461
0.02396485163
0.001035118973
0.02463779857
-0.000895892357
-0.02180107561
0.02168969935
4.129180051e-05
0.02085415912
-0.02134677942
1.623765116e-05
-0.0221770145
0.02208192107
-2.612264464e-05
-0.02191957342
4.596633005e-05
0.00147577297
0.01937600446
2.381687877e-06
0.001854450869
-0.002487184859
-0.02623689694
-0.03083017029
0.004668089537
-9.737001906e-06
0.002203566134
0.02193552273
-0.002183939254
0.02741216876
-0.02732448082
0.002096251309
-0.004407364498
0.003262282861
0.02405812609
0.00134592253
0.02501725424
-0.001649412028
-0.02166961329
0.02168218754
-0.004419938751
0.02382164952
-0.02601625878
1.067000736e-05
0.02326625456
-9.871812098e-05
-0.001441678473
-0.02235560832
-0.0225521914
0.02245672881
-2.325974694e-06
-0.02227114388
-1.933321347e-05
0.0007511262659
0.02306384057
6.682678525e-06
0.0001041102031
-0.02265559372
-7.078819272e-07
0.0009643626776
-0.0008417603302
-0.02600136547
-0.02640630762
0.0003565865583
0.001116245887
0.02704704914
0.02176390391
-0.02189014194
0.0001362638717
-1.002584385e-05
9.752614012e-05
0.02212543116
1.183003791e-05
0.001006477973
0.02541287868
-0.0007293125824
0.001996170837
-0.00225627722
-0.02405548135
-0.02091609995
0.001429859941
8.156537818e-05
0.0001743499485
0.02161642466
-2.687069764e-05
-0.04843531177
-0.0008503236598
0.001587533888
0.04852076215
-0.04880172393
0.001300173016
0.04889682394
-0.001395273021
0.04918325165
0.001424916819
-0.001518381444
-0.04908978702
0.001103404171
-0.04839938788
0.04850327413
-0.001207290426
0.001250185572
-0.001351433439
-0.04870047607
-0.0008063579679
-0.04835708438
0.00154206471
0.001463866647
0.04927420425
-0.001554819244
0.001576047357
-0.001650468038
-0.04943514664
-0.0009255954042
-0.0493459854
0.001773300879
0.02504414746
0.0008289466445
-0.0008572990322
-0.02501579507
0.02668469562
-0.02692358
0.0006252965273
-0.02683999052
0.001658647559
0.02719304491
-0.02585369291
0.002228124563
-0.02320796569
0.001624053498
0.02356758857
-0.02421952544
0.0009478528813
0.02433383854
-0.001062165979
6.055761951e-05
0.01945125602
1.292149023e-05
0.02240008826
0.003701464259
0.0002453943193
-0.0128391053
0.0005050612458
-0.00018980622
-0.01971338068
0.0002532987748
8.574953963e-05
-0.02221557014
0.02213017253
-0.02244242455
0.0003980015608
0.02182005735
0.0004033413116
0.004168532122
-0.02832095694
2.700643776e-05
0.02513008849
-0.02391430396
0.002952747592
0.0252617187
0.00182437058
0.02152207833
0.0004711054754
-0.0003686513185
0.02124562024
0.0006451094032
0.02108085564
-0.01870400581
-0.0004502118598
0.01896997
0.0001842476722
5.346578842e-05
-0.0003308506752
-0.01957446194
-0.02014155106
0.0007952174019
-0.003337684654
0.01933921233
0.001998413955
-0.01649809135
0.02326469286
-0.01010428616
-0.002022971226
-0.01651019258
-0.01631371744
0.0003716833941
0.0006334881018
-0.01736447329
0.0004172677541
-0.01927018899
0.001273358474
0.01424137579
-0.01420634752
-3.502827335e-05
0.02937138183
-0.02069827857
0.005568272529
0.02503883319
0.004324925815
7.622828731e-06
0.02218761286
-0.02235450379
0.0002183944586
-6.73519588e-05
0.02198842156
0.0002665432562
0.02044693164
1.521223508e-06
0.02177007039
-0.0218224638
8.214944625e-05
-2.97560352e-05
0.02173594809
7.341662858e-05
-3.929432823e-05
0.02298440641
0.00205052441
3.902370306e-06
0.02229448947
0.0006905451792
-6.282414349e-07
-1.338483578e-05
-0.02103339827
8.36188433e-05
0.02374061659
-0.02391879033
0.0001647889004
0.02359110328
0.0001857721163
0.02495742489
0.0009023702192
-0.0001402638627
0.02466109223
0.0004365965273
0.02125445668
7.817396337e-05
5.380076996e-05
-0.02065857201
-1.656187318e-05
0.02250750554
-0.02265348419
0.000199779416
0.0002046152466
0.02344059011
0.0001932248897
-4.72127351e-05
0.02329289224
0.0001949106047
0.02085679477
-8.63761063e-06
0.02568498856
-0.02594007774
0.000522511896
0.000560066501
0.02644031956
0.0009348445531
0.0249613302
-0.0008520272952
0.0009017669144
-0.0008650116993
-0.02471051257
-0.0249230422
0.000547069589
0.0005245188303
0.0254290871
0.02366951049
-0.02385842513
0.0006657578115
-0.02441926449
0.0006331052848
0.02423404081
-0.0241382596
0.0007882768169
0.02413179966
-0.0007818168792
0.0212833451
-0.02134645404
2.862100953e-05
3.44879316e-05
0.0212145109
3.150897094e-05
3.732522682e-05
0.02164668339
1.188356641e-05
7.738112571e-05
0.02158537189
1.279485972e-05
4.851664066e-05
-0.01462808089
0.01457779738
5.028351117e-05
0.0211406648
4.17938518e-05
3.205224481e-05
6.85439813e-05
0.02104497127
2.714955551e-05
0.000906362492
-0.0009590186813
-0.02416686925
-0.02318998297
0.001141671676
0.0006887373757
0.02348381792
0.000355858737
-0.0001243561906
-0.02473984203
0.02476228005
0.0006387387726
-0.02504516009
0.02446320472
0.0006369776825
0.0002846761021
-0.02313286574
1.997663269e-06
0.02679046938
-0.02718991407
0.0006841207861
0.02646225237
0.0004782093628
0.02760521376
-0.02757000033
0.002189373507
-0.0007723100473
0.001187609736
1.423500677e-05
0.02302663832
-0.02384294649
0.0008004804826
1.582769653e-05
0.0003198773921
-6.40260249e-06
7.935162073e-05
-0.02245469918
2.947168539e-05
0.02556572836
-0.02585678188
0.0003704051371
0.02527538786
0.0003769282277
0.02615235751
0.0003940861648
-7.618319249e-05
0.0003717588266
3.575785177e-05
0.02612307365
-0.03082874252
0.00468679481
1.887406548e-05
0.002258624192
2.150296417e-05
0.02188446684
-0.02194369717
0.004463550065
-0.01489461125
0.005950335573
4.97606465e-05
0.0002809675945
0.0001088545537
0.0136374695
9.684824041e-05
0.01321508779
-0.002079203594
-0.01272418486
0.01358922828
-0.001080736168
0.01640731057
-0.01919152822
0.001410753373
0.01448619835
0.0008162047787
0.001104907441
0.01377620354
1.823395873e-05
-0.006744843419
0.00132951874
0.001628409967
0.0002558242357
-0.0001168895172
0.0001439416512
0.02205457997
-0.02103263635
0.002842789189
-0.005294139456
0.003434415465
0.0007821479119
0.02100976037
0.001018007784
0.001763299023
-0.0199206638
0.01823314274
0.0007741440305
0.002744522658
0.0005995064013
0.00177875761
0.0114525986
0.001010628523
0.001348312438
0.0001161190812
0.0004534201925
-0.01769085693
0.0004425027194
0.0006111596252
0.02060522157
-0.02120263307
0.001958658346
-0.004270724599
0.004177667595
-2.555379964e-05
0.0001152021523
5.865855541e-05
0.0216850389
0.0004185848113
0.0008642282887
0.02188505808
-0.02195642781
8.064990368e-05
-9.280177697e-06
7.815165413e-05
-1.555736625e-05
0.02206267522
0.0002272423353
4.57192172e-06
0.0001081302452
-1.882838271e-06
0.02409196648
-0.02425503332
0.0001804653133
7.25340782e-06
0.0001659227386
5.943111551e-05
3.049535375e-05
6.177359512e-05
0.02443592238
0.0002556652018
0.0001987680234
0.02280544289
-0.02297638464
0.0001711182761
-3.483553267e-05
0.0001867942387
3.768901547e-06
3.913941894e-05
-4.882088341e-06
0.02314364332
0.0001883883333
0.0001734439338
-7.671892217e-05
0.02571304899
0.00028769657
-0.02236406605
0.0222913098
-3.962671176e-06
-0.02244952437
-9.384957326e-06
-0.02220615349
0.02212842993
2.736026132e-05
5.278659002e-05
3.236972097e-05
0.0002712786318
-0.0007106134797
0.02672137951
0.001053967004
-0.02355338331
0.02281361841
2.915142036e-05
-0.02570892496
4.379232662e-05
-0.02257214989
-8.462728048e-06
0.0002569425195
-1.547399932e-05
0.0005781243365
-9.258399426e-05
0.02399959611
0.0003045468235
-0.021738408
0.02166263452
-1.681051467e-05
-0.02181797167
-1.204044292e-05
-0.02158188421
0.02148243612
2.508198128e-05
8.477389313e-05
-4.023580431e-06
0.0003042687379
-5.609313247e-05
0.02484032944
0.0002754138832
-0.02205126405
0.02196540208
2.97688389e-05
2.639584624e-05
-0.02189504478
-1.138785514e-05
8.034379687e-05
-9.986495479e-06
0.0002893250154
0.02140616766
2.056424701e-05
-0.02146810035
4.136843768e-05
2.68563393e-05
3.285728666e-05
-0.0002209344325
0.02395527391
0.0004558126332
-0.02395057726
0.02375649917
-0.02414438431
-0.02355840152
0.02335446078
0.0002267186616
0.0004644352185
0.0215311514
1.910199224e-05
3.511850343e-05
1.602965042e-05
4.702140075e-05
0.01898841386
0.001388760668
-0.02040932715
3.215262155e-05
0.004327938815
3.23941567e-05
-0.004296159482
0.02371003191
0.003153203085
-0.02136020532
0.02139198465
-0.02201998149
-0.03021467693
3.334172225e-05
0.005755105104
0.003758439426
-0.0003180040697
0.02297710276
0.0005717119909
-0.02313856304
0.02288910295
-0.02254601862
-0.0004185748998
0.0004878645318
-0.0001447801997
0.0007477098669
0.0208626792
3.751187156e-05
3.477714633e-05
0.00059032387
-0.02365480127
-0.0001885116625
0.02351390547
-0.02383561115
0.0009120295447
0.02323897529
0.001340986005
0.02415366555
0.0006577406283
-0.0004098630014
0.0007279174062
-9.981264299e-05
0.02156062494
2.92617673e-05
2.533385869e-05
0.02199202404
0.0001268267592
-3.69297318e-05
-5.190557182e-05
0.01489587741
0.004477629105
2.497946103e-06
0.01492569935
-2.982194079e-05
0.006003769348
-0.02190824029
0.02634643488
-0.02435852571
0.004015860184
0.003444524083
0.0232498289
0.002192712527
-0.004504911543
0.003396214729
-0.01479531925
0.03060141411
0.005876092688
-0.01480397623
8.656978797e-06
-0.01924345193
1.953695098e-05
0.004577081412
8.073915562e-06
-0.0001831924105
0.02290397091
0.0005454760577
-0.02136758227
0.02117141228
1.297758168e-05
1.613573153e-05
-0.02070024068
1.511027278e-05
0.0004611911698
9.980431524e-06
0.001009553769
0.02236403607
0.0001003908527
-7.698111686e-06
0.0001079825495
-1.509035831e-05
0.02279499134
0.0002665420848
2.307146863e-06
0.0001383389363
1.058680884e-06
0.0001145726461
-0.02201091927
6.204690804e-06
0.02439493229
-0.02469294331
0.0004125836699
0.02408846576
0.0004427304001
0.02498543977
0.0003874742246
-0.0001049990088
0.0003974954725
9.512874275e-06
0.0005267165265
-0.02139258978
-5.022670015e-05
0.02272220735
-0.02332814511
0.001132654284
0.002208370129
0.02375106145
0.0005117542596
-0.0002618687402
0.0006847850781
-3.803385702e-05
-0.002283852785
0.002519062981
-0.2283833503
0.003337213058
0.2279505515
-0.2282453831
-0.00304238142
-0.2289038479
-0.001923790562
0.2287117638
0.003639524944
-0.2281704364
0.004645093248
0.2277369003
-0.2280938092
-0.00428818435
-0.2288530208
-0.002660616621
0.2286438677
0.004986394364
-0.2280351004
0.006289552794
0.2276423473
-0.2281166392
-0.005806754164
-0.2288565291
-0.003467489852
0.2286548103
0.006755213342
-0.228103515
0.00812466434
0.2279534787
-0.2283706586
-0.007695714945
-0.228928848
-0.004197195372
0.2287974031
0.008482052441
-0.2284263488
-0.003136908439
0.003489277606
-0.2272629434
0.004739665647
0.2263964202
-0.2268396805
-0.004296405355
-0.003388775748
0.2276229961
0.00541688838
-0.2267017417
0.008914714707
0.224357289
-0.2255968095
-0.007645147923
-0.004812189165
0.2273123098
0.01024254539
-0.2252898602
0.01435657726
0.2236394265
-0.2249647995
-0.01298722614
-0.007083543957
0.2269687734
0.01567350823
-0.2250213338
0.01914729921
0.2247714829
-0.2257972483
-0.01809219211
-0.009770469448
0.2273866908
0.02006309239
-0.2262287963
-0.01063859535
0.01201050133
-0.2281360926
0.009179474699
0.2240221339
-0.2234751463
-0.009694199453
-0.004538809658
0.2257397291
0.01032465546
-0.2219307441
0.01597367825
0.2173055616
-0.2193152208
-0.01389130835
-0.009098369694
0.2228825712
0.01809227158
-0.2188538264
0.02424033026
0.2167147535
-0.2186366767
-0.02224985627
-0.01537107824
0.222133142