/*--------------------------------*- C++ -*----------------------------------*\
| =========                 |                                                 |
| \\      /  F ield         | OpenFOAM: The Open Source CFD Toolbox           |
|  \\    /   O peration     | Version:  v2012                                 |
|   \\  /    A nd           | Website:  www.openfoam.com                      |
|    \\/     M anipulation  |                                                 |
\*---------------------------------------------------------------------------*/
FoamFile
{
    version     2.0;
    format      ascii;
    class       surfaceScalarField;
    location    "0.79";
    object      phi;
}
// * * * * * * * * * * * * * * * * * * * * * * * * * * * * * * * * * * * * * //

dimensions      [0 3 -1 0 0 0 0];
oriented        oriented;


internalField   nonuniform List<scalar> 
6464
(
0.4582623761
0.00211377811
-0.002140148079
0.4583525544
0.002122593727
-0.002062478005
0.4584319458
0.001960532222
-0.001836467625
0.4584772798
0.001694187785
-0.001532327538
0.4584879878
0.001379339695
-0.00122576078
0.4584932344
0.0010475264
-0.0009674257574
0.4584645102
0.0008529155396
-0.0007055542569
0.4584697883
0.0005857659679
-0.001587780556
0.9187112905
6.312411343e-05
-0.0005366340084
-0.0009947020114
0.9187569215
3.827545142e-05
0.9158170225
0.9138382755
-0.003470973203
-0.2289958337
0.2287992619
0.003667479696
-0.004297510448
-0.2291914011
0.229154429
0.004334482499
-0.004142196338
-0.2293299233
0.2294056697
0.00406644988
-0.003661661857
-0.2294185227
0.2295737299
0.003506454698
-0.002999809686
-0.2294378617
0.2296200413
0.002817630048
-0.002330213102
-0.2294063369
0.2295745501
0.002161999916
-0.4589122807
-0.003347902537
0.4603898957
0.001870287533
-0.0005202022766
0.461010585
-0.001201894886
-0.4592884878
-0.001332109059
0.918391501
0.0001972845719
0.001454613972
-0.0008193935981
0.918244206
0.0004342409845
0.914563388
0.9142725164
-0.2275173925
0.02990345813
0.2270491646
-0.02943661559
-0.2218011127
0.02492917548
0.2192909992
-0.02242221051
-0.2232042967
0.01200008459
0.2188673821
-0.007665924001
-0.2302972529
-0.006031703917
0.2297391082
0.006589561693
-0.2304151506
-0.005558025666
0.2307691169
0.005204059305
-0.003902283671
-0.2303488834
0.2310465235
0.003204643591
-0.4630811605
-0.0005971874694
0.4620063892
0.001671958711
-0.4601673114
-0.001723102323
0.4602371797
0.001653233954
0.0006432276969
0.9204265486
-0.001531032384
-0.00114724291
0.001902737669
0.916984696
0.0008858615889
0.9155802641
0.915158378
-0.22568316
0.03783009548
0.2252781471
-0.03742974444
-0.2132608918
0.035226529
0.2120466377
-0.03402052991
-0.2073712181
0.0280789785
0.2044533616
-0.02517029488
-0.2144660565
0.01358920185
0.2098118967
-0.008941337217
-0.234442779
-0.001499996402
0.2367704271
-0.0008276781613
-0.00429581682
-0.2320125757
0.2320693163
0.004239076225
-0.4621289716
-0.00650589309
0.4635001
0.005134764618
-0.4610639059
-0.003782669176
0.4621778469
0.002668728172
0.00359229667
0.9207541383
-0.002067669173
-0.001852217215
0.002439450716
0.918137542
0.001126266051
0.9168934487
0.9162846441
-0.2243467346
0.01279985309
0.2241354007
-0.01259428122
-0.211899321
0.01502780457
0.2134047342
-0.01654381706
-0.199907639
0.02066446053
0.2001501167
-0.02092108343
-0.2098645886
0.02922462042
0.2015650064
-0.02093173049
-0.2161429947
0.006784273791
0.2120390112
-0.002685019951
-0.006201560038
-0.233627832
0.2342532915
0.005576100504
-0.4653427473
-0.007613190499
0.4671314169
0.005824520881
-0.4632568414
-0.004498474529
0.4643804505
0.003374865505
0.004404784995
0.9230515937
-0.003722491736
-0.002979748602
0.002437337519
0.9201049895
0.001105717021
0.9182250692
0.9173903611
-0.2231705114
-0.03304804054
0.2228662259
0.03335130481
-0.2249441301
-0.02156523095
0.2294428435
0.01706108183
-0.2128413807
0.003178263754
0.2146175287
-0.004966060735
-0.194869534
0.007875290506
0.1953327858
-0.008351246843
-0.2030650931
0.005936293377
0.2012927947
-0.004173422742
-0.003384649823
-0.2328937445
0.2311520067
0.005124455924
-0.4687463332
-0.007870567335
0.4703952114
0.006221689088
-0.4651169898
-0.004996018267
0.4658078183
0.004305189782
0.003684812749
0.9257371137
-0.003068074699
-0.003302258044
0.00201625264
0.9217735496
0.0008421457524
0.9193991761
0.9182325069
-0.02850771312
-0.1088092366
0.1082297642
0.02908718548
-0.02315565993
-0.2495552081
0.04396377229
-0.02355342201
0.1257325916
0.1265679262
-0.0256218718
-0.2263953233
0.2324700519
0.01954048711
-0.2004129874
-0.008111117168
0.2045652847
0.00394547427
-0.2000993329
0.002258907677
0.1997760688
-0.001941789877
-0.001038987824
-0.2238899507
0.2224500792
0.002476628055
-0.472050016
-0.006683708635
0.4731586825
0.005575042125
-0.466932222
-0.004228002785
0.4680274271
0.003132797589
0.002130344253
0.9276524078
-0.001870033355
-0.002175605039
0.001001377783
0.922902516
0.0003724010709
0.9200281528
0.9186049079
-0.03035132637
-0.1386585529
0.1414495154
0.02756036386
-0.03061861642
-0.2518539418
0.257162291
0.02530846371
-0.2121548553
-0.01451466944
0.2146412955
0.01202142065
-0.2015925506
-0.006677652825
0.2028185746
0.005444121136
-0.0002441492941
-0.2208496259
0.2203956002
0.0006996717449
-0.474601074
-0.003922685288
0.4757680214
0.002755737883
-0.4688858587
-0.001949931187
0.4695833592
0.001252430751
-0.0003455133645
0.9285092459
8.203629296e-05
-0.0005933610227
-0.0005073688476
0.9230643715
-0.0003211861921
0.9198419702
0.9182837217
-0.01353344132
-0.154491099
0.1550837402
0.01294080007
-0.01730832113
-0.2691858733
0.2713402296
0.01515453538
-0.2221192514
-0.009239487115
0.2238728065
0.007490783826
-0.2063487714
-0.003061931948
0.2073978443
0.002020051732
-0.0001133611908
-0.2209510734
0.2211302813
-6.121675933e-05
-0.4770946335
2.005419455e-05
0.478081252
-0.001006672686
-0.4699154369
0.001438302669
0.4700520139
-0.001574879647
-0.003322699101
0.9277653816
0.002347118658
0.001719444718
-0.002341418252
0.9220830907
-0.00121524683
0.9187157987
0.9170684749
0.004305007946
-0.1528564567
0.1519036513
-0.003352202618
0.0001392969352
-0.2712616753
0.2697091713
0.001415449972
-0.2259924751
-0.002902203719
0.2262173136
0.002691402938
-0.2102525621
-0.001039594739
0.210972897
0.0003360347407
0.001561769986
-0.2229230574
0.2233996887
-0.002029408038
-0.4779804433
0.00529995024
0.4773031457
-0.004622652632
-0.4697621039
0.004325673755
0.4699336669
-0.004497236676
-0.006580153949
0.9253583391
0.004877513192
0.004109683243
-0.004312363762
0.9198153005
-0.002173559669
0.9165769946
0.9148949152
0.01404265215
-0.1434751937
0.1421425191
-0.01270997755
0.01227838904
-0.2615219902
0.2577729314
-0.008522669282
-0.224399678
0.0009307217775
0.2254112443
-0.001919578235
-0.2126659688
0.002252368874
0.2131719065
-0.002731055731
0.00448405701
-0.2258294042
0.2263516473
-0.004993263361
-0.4761825947
0.01023525162
0.4746779588
-0.008730615782
-0.4699070925
0.007410572989
0.4687208312
-0.006224311733
-0.009574895933
0.9215625339
0.006963135786
0.006407565382
-0.006201800639
0.9164422052
-0.003046799689
0.9134219937
0.9118481156
0.01747784013
-0.1331250426
0.1318286116
-0.01618140916
0.01742289769
-0.2468765126
0.243162559
-0.0136925614
-0.2224221917
0.008848514435
0.218944766
-0.005333018483
-0.2140317827
0.003065498786
0.2140623171
-0.003064399595
0.006880294743
-0.2282955669
0.2288353791
-0.007406835692
-0.4728606979
0.01417303876
-0.01207877594
-0.4674299643
0.01026592283
-0.008709668639
-0.01218654415
0.007453447025
-0.00782442919
-0.00379965666
0.157599496
0.01615224854
-0.1566914075
-0.008249152755
-0.008811184243
-0.1396464749
-0.03360712084
0.1429022694
0.1550371882
-0.002462252081
-0.1560694227
0.001933234148
0.001561252417
0.158140927
-0.006771340855
-0.007303531512
0.1445878528
-0.013320511
-0.1459954435
0.007434496125
0.007293605627
0.1539259898
0.002891098831
0.002525107496
0.1335674823
-0.01725499357
-0.1348438313
0.01853134249
0.01546345731
0.1431670476
0.0189951567
0.1320501658
-0.1054663265
0.1041562204
0.03072052714
-0.1362068446
-0.03416015747
-0.122834043
-0.0247296665
0.1244080496
0.04215046759
0.009266556165
-0.04183506875
-0.009581955008
0.02484644355
-0.07070152742
-0.02701370273
0.07286878659
0.01527506899
-0.1536139194
0.2810527912
0.02166241334
-0.2784412242
-0.02427395389
-0.2642435022
-0.0362600217
0.2698847144
0.04838014011
0.0008190379107
-0.04847069494
-0.0007284830809
-0.04518720299
0.003538391091
-0.002926386551
0.04457519845
-0.001640931474
-0.1536777773
0.2822917999
0.004025947802
-0.2832356699
-0.003082079654
-0.01896253859
0.282707027
0.03900310934
-0.004239027295
-0.03935666397
0.004592581924
-0.04207789209
-0.001681775838
0.001229180869
0.04253048706
-0.01198730936
-0.1448083953
0.272334264
-0.009845182404
-0.2756658497
0.0131772277
0.001738095849
0.2806930124
0.07026586192
-0.01101579583
-0.07076208591
0.01151201982
-0.0739677403
-0.01010776599
0.07350294432
0.005357674653
0.005214887318
0.008110178173
0.03074563092
-0.007824850972
-0.03103095812
0.06381405644
-0.01139748545
-0.0642440111
0.01182744011
-0.06694003237
-0.01161937657
0.01198980466
0.06656960427
0.004096029302
-0.04555391214
-0.003729320153
0.008895372523
-0.009110001468
0.04236509654
-0.1516204144
0.02371325917
0.1537266082
-0.01267304776
-0.01314640519
-0.08242420342
-0.008505373705
0.08315424028
0.01667070938
0.04404100422
0.004259407478
-0.0442043824
-0.001499395063
-0.04161038764
0.001031890612
0.0001646764881
-1.91531281e-05
0.04823461675
-0.07865442954
0.00207955139
-0.00204113847
0.07861601663
-0.04695712851
0.04677070392
0.0003511010831
0.04148021081
-0.00173559703
-0.04124400884
0.04371894808
0.003860447235
0.0008268683913
-0.04696495899
0.002790182467
-0.07878786966
-0.002656742348
-0.009918240394
-0.07446220731
0.005226560545
0.005186146861
-0.004107902424
0.004287037882
0.03882397388
-0.1501479546
-0.01019342024
0.1487691091
0.005904085216
0.005668180513
-0.07758793159
0.004093234319
0.07706899013
-0.007682195284
0.07375768711
-0.009462298428
-0.07421362907
0.04170051031
-0.001902075343
0.004081649735
-0.007411487697
-0.03937014134
-0.03912697958
-0.008972727697
-0.1514091615
0.005235647837
0.004998286811
-0.01153146
-0.06739222502
0.01198365265
-0.01125087301
0.01164357247
0.06987316245
-0.02934470746
-0.007442862693
0.006995179186
-0.02968836757
0.008453838287
0.01164263763
-0.007430046352
0.03075325834
0.01297255826
-0.04367517737
-5.063923197e-05
0.01948104865
-0.03581408619
-0.02149431039
0.03782734793
0.04535031738
-0.007702016646
-0.03747779507
-0.0001705056544
-0.01604516014
-0.134334876
0.2557228527
-0.01680593693
-0.2602647911
0.02135317978
0.01601573883
0.2685979284
0.03866348736
-0.00740406826
-0.03106230487
-0.0001971142343
0.06489399579
-0.01324759461
-0.06548094887
0.006949770021
0.006884777668
-0.03335962101
-0.006632218254
0.00672426964
0.03326756963
-0.07069264043
0.07245400706
0.02308507692
-0.00955201044
0.01783331144
-0.08143894826
0.02591330041
-0.149047478
-0.01406130247
-0.01442493439
-0.006678685402
-0.03350425417
0.006823318562
-0.03548402916
-0.006853224203
0.007305503593
0.03503174977
-0.1390006565
-0.01640210316
0.01780676271
0.1375959969
-0.07030590919
0.06983459309
-0.01077955691
0.06698432651
-0.01110430831
-0.0674114782
0.07332166524
-0.00967174412
-0.01064017003
-0.07068153499
-0.01594177733
-0.140408788
0.01734990886
0.0199814723
-0.0522685217
-0.01870845218
0.05099550157
0.02480451853
-0.06864198264
-0.02686406331
0.03745074498
-0.1221218202
-0.01946348217
-0.02072074213
0.06184807121
0.06300722828
-0.05592876283
0.05495140926
0.02095882586
0.03126456009
-0.0005113017471
-0.07882033559
0.02237161863
0.08062824427
-0.01196609935
-0.01221342797
-0.04192813316
0.05721245635
0.0159802369
-0.03561636557
0.03723548935
0.01786192486
0.01478907478
-0.04374464969
0.02335023012
-0.07695318223
-0.01249957798
-0.0127178055
-0.04073541587
0.002572140908
-0.002561840321
0.04072511528
0.002258370168
-0.04104368768
-0.001950098356
-0.03965710011
-0.003214983541
0.003127339875
0.03974474377
-0.003449734211
-0.03996184044
0.003754474545
-0.006169548144
0.03641494754
-0.03546643768
0.005221038279
-0.009689741576
0.02203116272
0.03300889623
-0.07209034093
-0.01073983772
0.01112759998
0.07170257867
-0.03829730985
0.03645510463
-0.007847536356
0.03639104971
-0.006376201066
-0.03618439679
-0.03410393853
0.03813948335
-0.003805905262
-0.0002296395627
-0.006884586197
-0.0391147403
-0.01058488181
-0.07251892692
0.005540952641
0.005472515154
0.06294162409
-0.01294331711
-0.06344077299
0.01344246602
-0.01320944636
0.06435329166
0.00688405038
0.006866100106
0.01889727482
0.02877403255
-0.009007820001
-0.04346113596
0.006192397078
-0.005971847386
0.04324058627
0.00660983954
-0.0434933818
-0.006577593697
-0.03936440105
-0.0009661331477
0.0008558188387
0.03947471535
-0.00131893906
-0.0395432222
0.001497760211
0.04020361133
-0.00103850698
-0.04048404341
0.08072521533
-0.0003288008065
-0.08101251577
0.0006161012463
-0.08171428497
0.001617890613
-0.001426933095
0.08152332745
0.07951380749
-0.002584695448
-0.07983812903
0.002909016991
-0.0009247758198
0.001210442802
0.08043954835
0.04018945628
-0.0009519780989
0.04145899239
0.002402874836
-0.04160349706
0.08206770366
0.005273496466
-0.08209529237
-0.005245907761
-0.08193393376
0.007671077947
-0.007776833843
0.08203968965
0.002313267827
-0.08186901799
-0.002158534804
0.004514062242
-0.004475102426
0.08202874385
0.04158148411
0.002449649187
-0.03805681417
-0.004638605411
0.00481897491
0.03787644467
-0.001872829563
-0.03215850168
-7.26072843e-05
-0.004665971448
-0.03827830471
0.004887461992
0.006161819069
0.03655272851
-0.006323497865
0.006946888496
0.03496267102
-0.006635174628
-0.03527438489
0.06860202243
-0.01141184405
-0.06902618098
0.0118360026
-0.03598006814
0.00744292748
0.005490411909
0.0370863547
0.0191275877
-0.0002303128783
-0.01285514057
0.01321067395
0.03574891753
-0.03855247625
0.00280355872
0.03446924715
-0.007000696333
-0.03453423989
0.00706568908
-0.0320944093
-0.006964569067
0.006624941258
0.0324340371
-0.00461515149
-0.01207691992
0.01268413784
0.004007933575
-0.007673706394
-0.0330435065
0.008622803595
-0.0302372932
-0.00768146391
0.00640810665
0.03151065046
0.02622119235
-0.04787323138
-0.02450728971
0.02268902164
0.02347030711
0.01886036045
-0.03405232183
-0.02062212481
0.02748669527
-0.05812289469
-0.02915643615
0.05979263557
-0.05234378515
0.02883723111
0.02412146602
0.02560628038
-0.04559162317
0.003865401816
-0.005771892272
0.04749811363
-0.04091296125
0.04017542569
0.0008859871649
-0.0001484516048
0.03908757442
0.0005986758468
-0.03933076821
-0.0003554820574
0.04260353534
0.002663124232
-0.04322544191
-0.002041217663
-0.04041456261
-0.00368364437
0.003825376247
0.04027283073
-0.04242427124
0.003512177485
0.04280900535
-0.003896911601
0.03768815195
0.006922224614
-0.005982975235
-0.03862740133
-0.03730647699
0.03743223802
-9.001821994e-07
-0.000124860848
0.04306386848
-0.003534079086
-0.03930912985
-0.0002206595466
0.04271822496
-0.002965628231
-0.043048002
0.003295405271
-0.04380652869
0.005981663612
-0.006904395828
0.04472926091
-0.03974188379
-0.02776831121
0.05608068474
0.01142951026
0.001853808208
-0.04257208619
-0.000194683265
0.04275965769
0.006536980712
-0.04268679886
0.08086145715
0.01197354923
-0.08043756976
-0.01239743662
-0.0786495627
0.01450966933
-0.01518904271
0.07932893608
0.008514307204
-0.08176709062
-0.008681150334
0.01109258731
-0.01145702292
0.08122589276
0.04273414944
0.00621790533
-0.04036691402
-0.001125621507
0.0007419039425
0.04075063159
-0.03685304182
0.03694152029
0.0001676414318
-0.0002561199037
0.000133748279
-0.03716440226
-0.0002758230079
0.04486063344
-0.002715892768
-0.04689181801
0.004747077338
0.003662835
0.03835917815
-0.004333861196
0.002566644224
0.04158168692
-0.003501246
-0.04064708514
0.03888568422
-0.004234252876
-0.03884344699
0.004192015644
0.07561155459
0.004555768214
-0.008593938801
-0.07623935545
-0.007274794704
0.0747169197
-0.07513102459
0.007688899588
-0.0763667934
-0.00638878925
0.006796945821
0.07595863683
0.03972970909
-0.003194229082
-0.03998521421
0.07799824453
-0.004514624478
-0.07842307796
0.00493945791
-0.003103355164
0.003438434009
0.07917872864
-0.00602856213
-0.07679310042
0.006454869143
-0.004926068139
0.005312050687
0.07761226198
0.03968855871
-0.003173833169
-0.01145459629
0.01181741813
0.06823920059
0.03469875384
-0.006589307024
0.06668020448
0.006673023771
-0.01287998229
-0.06715193136
-0.03794925447
-0.009442345054
0.01901548638
0.02837611315
-0.04124261902
0.01909297376
-0.01952383744
0.0416734827
-0.03154225688
0.04128470993
0.02600646448
0.01937297377
-0.04045828082
-0.02015731196
-0.02893736764
-0.00228055288
0.03140018117
-0.0001822606501
-0.00613986804
-0.02257417307
-0.0002233265265
0.03352052012
-0.007311074033
-0.03369139715
0.007481951059
-0.007496817825
0.00804350719
0.03392255778
0.01963649969
-0.01937364353
-0.0002628561606
0.01419229942
-0.0170239752
0.002565433413
-0.013500598
0.0128242069
0.002151684328
0.006636115361
-0.03149915595
0.03279815129
-0.007935110701
0.009303674541
0.033277712
-0.00816421383
-0.03441717271
0.03415448943
-0.006774858988
-0.03447467533
0.007095044889
-0.04115519809
0.02022157943
-0.02106161043
0.02786747829
-0.0001697524907
0.03135087869
-0.03075429947
-0.0005965792204
0.0454626428
0.01270689895
-0.0443958252
-0.01377371655
-0.04203580775
0.01348115473
-0.01426182614
0.04281647916
0.04714279175
0.01168898008
-0.04515661307
-0.01367515876
0.01190041481
-0.0121950282
0.04575725619
0.01369978716
-0.04136023216
-0.01437536274
-0.03878746943
0.01457282125
-0.01543408659
0.03964873477
-0.04150860856
0.04274711264
0.01785446968
-0.03770231124
0.03683700684
0.001180117841
-0.0003148134504
0.02627760944
-0.02619117357
-8.64358677e-05
0.004391820728
-0.04319381746
-0.006789626437
0.002478530644
-0.001897266571
0.04202227127
0.03878641709
0.0005287587756
-0.0002276014457
0.0006462265066
-0.03817702888
-0.0001715088594
0.0004196347967
-0.03765035659
0.03904309719
-0.001812375394
0.001062287066
-0.002188541495
-0.04129801681
-0.003439848202
-0.04026785136
0.003293136956
0.03767855743
-0.03626529645
-0.0003509739202
-0.03424015224
0.03521564997
-0.0005558629245
0.03562890278
-0.03521942889
0.006512750721
0.04158154375
-0.0003908088322
-0.00216120466
-0.03194471293
-0.000134234655
-0.00351813614
0.004388511971
0.04184784913
0.05092901425
-0.00765200329
-0.0002131424812
-0.003575225126
-0.03623633613
-0.03769364647
-0.007024351526
0.007599771471
0.03711822652
-0.005464029329
-0.03625941611
0.004029798979
0.03771011997
-0.00607354665
-0.03710060265
0.03600230924
-0.005982811919
-0.03610485478
0.00608535746
-0.03698856235
-0.005855264346
0.006284244945
0.03655958175
0.03397996675
-0.006915517363
-0.03320431742
0.03708277555
-0.005855241907
-0.0374293291
0.006201795461
-0.03817558349
-0.005352421942
0.005210870207
0.03831713522
-0.005806634675
-0.03722459874
0.006042671066
-0.005656331032
0.00565117312
0.03708793346
0.03604826364
-0.004348849778
0.007382721809
0.03238031396
-0.007600347196
-0.03216268857
0.03246628561
-0.007120400581
-0.03271547418
0.007369589147
-0.007354098503
0.007704732147
0.03316988648
-0.002249534885
-0.04612784961
0.04425126397
0.004126120521
-0.008276985807
0.008725449085
-0.04019034707
0.006085363542
-0.04318601248
-0.00670587975
0.02771706535
-0.0357506245
-0.000243426655
-0.04224854457
0.04015733872
-0.0001583290336
-5.124585655e-05
0.0411405427
0.006169324858
-0.04381033988
-0.003499527676
0.01005938537
-0.01085160695
0.04793501333
0.005069395882
-0.04711681927
-0.0002011211878
0.009154341497
-0.00822228941
0.04020849061
-0.04258905771
0.007708143855
-0.007984410155
0.04286532401
-0.04284304383
0.04320088591
0.008796499418
0.005949956078
-0.0470084098
-0.03625279726
0.03655604638
1.537648213e-05
-0.0003186256005
0.0002392673866
-0.03667551526
-0.0004167939409
-0.001007086231
-0.04002038523
0.000660557436
-0.003212620092
0.005746860776
0.04232639276
0.02552692381
-0.02521219169
-0.000314732118
-0.0005665082667
-0.03562082347
-6.546552393e-05
0.03927066173
-0.005879604578
-0.03999486946
0.006603812311
-0.03790490616
-0.00514954639
0.004361243085
0.03869320947
-0.005184071944
-0.03776451732
0.004773005775
-0.006263247746
0.007411633802
0.03812227567
0.02307308803
-0.02268968702
-0.0003834010112
0.04165655227
-0.04028706912
0.001197161074
0.00197051241
0.03732122537
-0.006565361962
-0.03859433347
0.007254789265
-0.004264648534
0.00365108657
0.04227011424
-0.02077996322
-0.0002816472192
-0.03576414423
-0.006540178361
0.006287554623
0.03601676797
-0.02739574633
0.03053263354
-0.003019868431
-0.0001170187773
-0.009630521217
-0.04264859794
-0.006019278341
-0.02122483948
-0.000151628511
-0.006934729494
-0.03604946472
0.007220049988
-0.03034465951
-0.0002218731553
0.02782441884
-0.1357624446
0.03060753516
-0.2568673441
-0.03798434889
-0.2344838345
-0.03274573211
0.241603523
-0.02535626326
0.02827917891
-0.002697351233
-0.0002255644121
-0.01975300209
-0.005424784261
-0.000178476913
0.0218833415
0.2512700639
-0.01944888818
-0.0003041139064
0.06661468895
-0.01124973901
-0.02135279301
-0.1294515479
0.01139308706
-0.01742528058
-0.1294690319
0.01868489231
0.0178172811
-0.02019841186
-0.01687890554
0.01926003631
-0.01990941051
-0.01008582679
0.01815728443
0.01183795287
-0.006998580331
0.007967388211
-0.01304572779
0.02478721352
-0.02935049505
-0.03398919473
0.01953964628
-0.02686726992
-0.0203476624
0.02767528605
-0.02280031614
0.0213938749
0.01922372234
-0.1283777425
0.02968397421
-0.0317481093
0.1304418776
-0.1250187135
0.1266324016
0.03583705696
0.02300312016
-0.06889124206
0.01015814815
-0.04089975369
-0.01045558121
0.04119718675
-0.04398397916
0.0444635611
0.01142083287
0.04621460843
0.01064441843
-0.04517004677
0.03132647491
-0.007013587969
-0.03154175352
0.00722886658
-0.007063376961
0.007457882583
0.03207177999
0.0314604643
-0.008522495389
0.006607426357
0.06619955566
-0.01275899579
0.06495335114
-0.01276962974
-0.06543131601
0.06537382693
-0.01156062578
-0.06579648175
0.0119832806
0.04664331626
0.009630677531
0.007498115299
-0.04417183427
0.007933709274
-0.04250372112
-0.008019045868
-0.02641702668
0.005495737425
0.007941382378
-0.02940021014
-0.008229539806
0.03563548338
-0.02742605328
-0.0002680477198
0.01767229499
-0.006935150276
0.007064267411
-0.05797168387
0.01492014968
-0.0006236431745
-0.03342934252
-0.003813797581
-0.0002346549689
-0.0328080606
0.032949118
-0.007545125657
0.004827345715
-0.03100755388
-0.006627852441
-0.02598167999
-0.0002532791631
-0.03329196877
0.03330170076
-0.006974301058
0.03407412627
-0.006932342089
-0.03414248051
0.0329803933
-0.006608813751
-0.03308008114
0.00670850159
0.01531636137
-0.07787032807
-0.016095596
-0.07501490319
0.01744668186
-0.01849207271
0.07606029404
-0.07757470446
0.07905349418
0.02089282892
-0.006685832016
0.006998215972
0.03384210547
0.0332988541
-0.007702606014
-0.007270677352
-0.03369499781
-0.06412662087
0.02310060372
-0.02410517042
0.06513118757
-0.06056480022
0.06145942681
0.02659206868
0.01751972497
-0.03427573009
0.01407459377
0.0436960028
-0.000558140228
-0.04433628342
0.04404968356
0.01436119363
-0.04340001892
0.0150439724
-0.02948534402
0.02964417018
-0.0001588261585
0.009749004277
-0.03902568021
-0.000208668088
0.00718250617
-0.03551685781
-0.007132086031
0.03328501577
-0.03220789997
0.006105390372
0.002986136658
0.03551991739
0.0221677623
-0.0001365995793
-0.006400261703
0.02862899564
-6.097163797e-05
0.03401934722
-0.007410712689
-0.006037573691
0.03530457154
-0.03543022925
0.006163231401
-0.005936584224
0.006136124711
0.03580276875
0.03732178796
-0.006636019518
-0.007554854607
0.04604035787
-0.0003460199102
-0.03932460178
0.03837230466
-0.006602557488
-0.03837688549
-0.004753621558
-0.007435726289
0.005905393091
0.03030436574
-0.03211319014
0.03240590633
-0.007728442475
-0.008171892142
-0.03309999296
0.03513109777
-0.00180117994
-0.0002299248684
-0.0304483028
-0.002339338225
-0.000312351939
-0.03653385919
-0.003715855862
0.002382691716
-0.03454170452
-0.004374846378
-0.02962744564
-0.0001483643278
-0.02359858453
-0.006563824821
-0.0002858934492
-0.02339554563
-0.0002030388957
-0.004281841614
0.004425540767
0.03874198507
0.04179098856
-0.004473950174
0.03882520622
-0.005855247016
-0.03953532117
0.02534236112
-0.0003093803348
-0.03237406416
0.03982058604
-0.007208210486
-0.0002383113944
-0.003789417144
-0.0003054681057
0.03027881782
-0.02907866082
-0.004960322589
0.03254178917
0.03363849928
-0.006164784764
0.009820698459
-0.001837640419
0.004701079808
-0.00932692863
0.01333486221
0.003715317522
0.006105380938
0.007418845253
-0.0331414842
-0.007320867548
0.03990474541
-0.03220123211
-0.0002846680412
0.02704613
-0.02048127827
-0.0001567450883
-0.004996100354
-0.0001590017539
-0.00662693409
-0.03082760365
0.01673169364
-0.01743483997
0.03153074998
-0.029002854
0.02976449642
0.01877800385
0.02418527331
-0.03094031668
-0.04600299398
0.04223077371
0.003954536982
-0.0001823167143
-0.05389135573
0.008213747906
-0.0003253861624
-0.04099909146
0.04063210029
0.0004467890392
-7.979786359e-05
0.001409797255
-0.0001781150038
0.000639053442
0.03974280446
-0.0002064322123
-0.04508695941
0.04417686444
0.001549148412
-0.04619521778
0.00199424553
-0.0433713869
0.04270606193
0.001264000812
-0.0005390641441
0.001344541688
-0.0001270278971
-9.086697543e-05
0.03797598009
-0.0004528750888
-0.04272838771
0.0435597401
-0.0009222193592
-0.04214133062
-0.000587957271
-0.04441398946
0.04447454627
-0.003594635904
0.0009689215623
-0.00182317092
-0.0003642281977
0.009144021319
0.04695466457
-1.800115617e-05
-0.04597607141
0.04771770521
0.007402387521
-0.04309297745
0.0085464163
-0.04736407644
0.003022666865
-0.004633244296
0.004986873069
-0.0002506659142
9.274429278e-05
0.03694437405
-9.559805406e-05
-0.04066188495
0.04105965884
-0.0003050296012
-0.0402514767
-0.0002427668196
-0.0415990195
-0.0004085628471
-0.0002297445303
-0.0003096161234
-0.0004497727422
-0.04073015694
0.04185164713
-0.0007523801778
-0.0003691100109
2.416668125e-05
-0.0001222233325
-0.04526035309
0.05284048578
-0.007267470703
-0.0003126619863
-0.003260856716
-0.0001478492516
-0.01800106806
-0.0002165000236
0.01940786543
-0.0003923790525
-0.007723536173
-0.000294651678
-0.008747633167
-0.0003287730705
0.03450309
-0.05353883396
-0.0004880934871
0.03537798283
-0.0008748928278
0.01907978166
0.04113822582
0.0001464841104
-0.0362582814
0.05360833426
0.02378817296
0.02385254693
-0.03410436385
-0.034099002
0.03400181198
9.719002083e-05
0.01976146467
-0.0002521324107
-0.00177420161
-0.0002549597473
-0.02217649979
-0.0003976732756
-0.006097689212
-0.0002474910823
-0.02956385661
-0.007541386482
-0.009116914099
-0.0130374554
-0.0331989391
-0.00770052592
-0.0002557330702
-0.0002596988353
-0.005150843158
-0.000180617654
-0.04272181647
0.05858049139
0.01549220376
-0.01308975652
0.01441762361
-0.0001480531886
-0.01150939981
-0.04509129935
0.01144408609
0.04240505223
-0.04416544776
0.05837406365
-0.04680842376
0.008144455907
-0.0003617123583
0.01227988582
-0.0005078181867
0.002863587868
0.03414388214
-0.0001704631645
-0.03911387036
0.03792665777
0.004050800464
-0.0400865459
0.002152793379
-0.03805289763
0.01043915135
-0.008160537368
0.008034297505
-0.000207828796
0.0004829862341
0.03846303966
-0.0001596088046
-0.04206312382
0.04143417182
0.001111938229
0.001171696891
-0.04082425238
0.001383932983
-0.0005425715571
0.001152491
-0.0002565607765
-0.001262807058
0.0001171848912
0.04018871936
-0.03947488721
-0.002274826137
0.04048690629
-0.03855913666
-0.00272812595
-0.03571367711
-0.0002929870414
-0.0002586322936
-0.0003808422554
0.0238281208
-0.04947784679
-0.009569702898
0.02407808355
-0.0002499627437
0.03102794037
-0.0004371061002
-0.007637734365
-0.0002585686765
-0.02483742928
-0.006992970462
-0.0001143131909
-0.02447511039
-0.0003623188868
-0.009662011489
0.03611591535
-0.04257038228
0.03959685331
-0.006688482522
-0.005747839294
-0.03820243731
-0.003931924476
0.007113391241
-0.005718975238
0.04419411026
-0.0363317757
-0.0002625630827
-0.009400536755
0.02138674704
-0.007799168049
0.02169556861
-0.0003088215741
-0.0279834456
0.03116922786
-0.0001996456022
-0.0001824866172
0.00302822124
-0.005268290136
0.03194366053
-0.0002864436496
-0.0003583161919
-0.03646184981
-0.006613439709
0.03615977216
0.009340459345
-0.007430004491
0.00379941787
0.0421311571
-0.001679310998
-0.04415663322
0.04279715383
0.005158897261
0.005353361794
-0.0453838745
-0.04201875645
0.007651228082
-0.00524330238
0.006021699762
-0.003302492345
-0.03848448849
-0.0005686283579
-6.460762958e-06
-0.003078332296
-0.04639526968
0.005663262097
0.03962785409
-0.04231910389
-0.0003870824948
0.03630855118
-0.0001802247669
0.04777087267
-0.0002484159703
0.00578379013
-0.0003320213517
0.007323533777
-0.0567162724
0.009893673747
-0.0002942206105
0.02815642157
-7.015979888e-05
0.02852711608
-0.0003706945127
0.01201933429
0.0001342155876
0.03668734349
-0.0002655126976
-0.03911031648
0.03950344002
-0.0002589079508
-0.03858563762
-0.0005093023751
-0.03982318445
-0.000189024865
-0.0001014100874
-0.0002183343429
-8.958186208e-05
-0.007425319888
0.03315930235
-0.0002070586547
-0.03716818488
0.03687321906
-0.007130354067
-0.009539890787
-0.03784814681
-0.00130399908
0.002216773555
-0.003191701304
-0.0002447475691
-0.03916095034
0.04702024287
-0.007765320122
-9.397240797e-05
-0.003875907425
-0.0001539451407
-0.006353149985
-0.0002012076232
-0.0338360241
-0.007058830406
-0.009505468254
0.0005232629944
-0.03887849128
-0.001931840841
0.03506249195
-0.03432855843
-0.0002106705336
0.03659589555
-0.0003362425175
0.03339041768
-0.0003919649019
-0.0006454260836
-0.0002927146622
-0.002202691992
0.00985511243
-0.04097168446
-0.007477761433
0.03498939237
-0.04852982557
0.03568035681
0.04054783569
-0.0003008535701
-0.007770114563
-0.0002118753225
-0.00647168479
-0.004072052778
0.03481669626
-0.0002120099488
-0.03505555925
0.0365825399
-0.005599033429
-0.03279068322
-0.00528474446
-0.03624974759
-0.008213015434
0.03483224181
0.007569408228
-0.007236615918
-0.0002624934532
-0.03549273638
0.04327454387
-0.007556077026
-0.0002257304689
-0.004023810084
-0.0002996984323
-0.03164750331
-0.007162458253
0.02098128252
-0.009354241958