/*--------------------------------*- C++ -*----------------------------------*\
| =========                 |                                                 |
| \\      /  F ield         | OpenFOAM: The Open Source CFD Toolbox           |
|  \\    /   O peration     | Version:  v2012                                 |
|   \\  /    A nd           | Website:  www.openfoam.com                      |
|    \\/     M anipulation  |                                                 |
\*---------------------------------------------------------------------------*/
FoamFile
{
    version     2.0;
    format      ascii;
    class       volScalarField;
    location    "2.2";
    object      omega;
}
// * * * * * * * * * * * * * * * * * * * * * * * * * * * * * * * * * * * * * //

dimensions      [0 0 -1 0 0 0 0];


internalField   nonuniform List<scalar> 
3259
(
30.4252525
30.44703314
30.47469494
30.51058202
30.57849334
30.67122954
30.86215635
31.19832972
32.1590204
34.58209986
41.87533663
98.42953525
30.32024798
30.34407989
30.37525703
30.41633866
30.49174958
30.60375864
30.8241412
31.20523572
32.30338519
35.05406281
44.13817193
148.394804
30.21967983
30.24561773
30.2801585
30.32577295
30.40589478
30.53220613
30.77201983
31.18143264
32.32101536
35.22713537
46.51905477
492.6147408
30.11979275
30.14770955
30.18556212
30.23622358
30.32210107
30.46085781
30.71902387
31.14397801
32.27207763
35.15438932
47.53828852
639.753324
30.02314079
30.05307197
30.09393666
30.1486458
30.23904363
30.38848193
30.66410986
31.10799291
32.20204595
34.93581507
46.3040845
414.5024016
29.924883
29.95659073
30.00040647
30.0597921
30.15579697
30.31424884
30.60552588
31.08001171
32.17509426
34.78002665
45.04462473
265.8430219
29.82907249
29.86246679
29.90887397
29.97173504
30.07154111
30.23770411
30.54311313
31.04669483
32.20664709
34.91685098
45.55628459
225.9007989
29.72972881
29.76443617
29.81336128
29.88060905
29.98582809
30.15873379
30.47720038
31.00828471
32.23563776
35.21364429
48.3877296
268.1404107
29.63311419
29.6689219
29.71984548
29.78992829
29.89820364
30.07737094
30.40829598
30.96593143
32.26266946
35.54960289
52.3186447
307.7296279
29.53142273
29.5679149
29.62076433
29.69484765
29.80856297
29.99369277
30.33691322
30.92079299
32.29087798
35.94384052
56.81507216
330.7608779
29.43390925
29.47086262
29.52499609
29.60098979
29.71676358
29.90784597
30.2634965
30.87393044
32.32384661
36.44799625
61.10798974
340.4215108
29.3296755
29.36675963
29.42225627
29.5018475
29.62315357
29.82010882
30.18855197
30.8265499
32.36722315
37.13090573
65.00842559
341.9910093
29.23215925
29.26922621
29.32541223
29.40596
29.52788975
29.73092599
30.11281417
30.78034871
32.43035331
37.99102845
68.55486469
338.4325102
29.12550544
29.1623518
29.21954237
29.30360476
29.43164809
29.64082498
30.03711908
30.73730707
32.52425059
38.95307005
71.78716066
329.7664808
29.02937757
29.06594061
29.12344862
29.20767205
29.33455029
29.55033419
29.96223638
30.69913335
32.65657628
39.94589763
74.73411157
318.1484043
28.92020948
28.95638405
29.01473335
29.10276185
29.23738013
29.45991137
29.88882862
30.66759965
32.82932198
40.93227358
77.419226
305.0681055
28.82715183
28.8629423
28.92143471
29.00897377
29.13995743
29.36995962
29.81752357
30.64461719
33.03927896
41.89808513
79.87994686
291.4676284
28.71480119
28.75015523
28.80943711
28.90130267
29.04321853
29.28083767
29.74895232
30.63198259
33.28026538
42.83785706
82.12817048
277.9536676
28.6268927
28.66187001
28.72128172
28.81220715
28.9465716
29.19286624
29.68375794
30.63101713
33.54549113
43.74833367
84.15668595
265.6451488
28.50988377
28.54444425
28.60462951
28.70032918
28.85133511
29.10636718
29.62258573
30.64242386
33.82913485
44.62926826
85.96586503
253.9810067
28.42988709
28.46414456
28.52458228
28.61944242
28.75637268
29.02168436
29.56607159
30.66657306
34.1273605
45.48632297
87.60204141
242.7924706
28.3056564
28.33954433
28.4007479
28.50003366
28.66390413
28.93931867
29.51492158
30.7033933
34.43745966
46.32435816
89.1046894
232.0478565
28.23719933
28.27091481
28.33255571
28.43272264
28.57233296
28.8600451
29.46994969
30.75239957
34.75645086
47.13957317
90.46413265
221.618663
28.07919412
28.11259674
28.17541439
28.28067081
28.48628495
28.78537709
29.43247815
30.81259614
35.07925537
47.92039436
91.68725479
211.4882739
97.32627401
127.2793492
41.5788555
81.89550193
43.74770949
103.5192084
83.48405303
107.2362211
1141.185716
735.6700613
155.3203259
723.971603
1096.185872
8534.00286
1152.484728
108.7197641
1809.668655
7636.861818
1105.980093
1776.321764
4063.387936
800.0144323
215.1002589
229.7216279
197.7986671
209.6438841
796.449428
569.0179551
183.2260251
193.7730746
179.9649007
559.5036502
756.7386382
770.7192821
236.1080389
249.1235452
1437.768952
2909.677963
1297.494474
2240.838332
1148.629718
6224.826619
2522.496821
5307.302426
1144.753453
3661.910626
1643.543595
45.93639518
114.0907639
106.8182301
167.6872312
4190.844273
7764.736207
1047.990612
404.2061116
425.1088498
6396.442516
3096.868322
731.793854
919.6412189
8849.512158
319.887977
373.5765853
433.0581806
452.2929085
1164.844148
1497.66914
1832.553402
7838.459224
1397.563976
1225.417231
16106.0797
1118.809539
1687.60045
374.606095
396.955996
949.9229866
765.4375536
352.9456016
368.9850598
739.4907164
828.7128387
1210.562757
465.8354169
514.3477753
5737.25548
6542.841702
1916.63882
7120.300713
5043.810623
1726.246913
1120.91733
6201.820451
3414.574068
6883.322136
3884.945598
1625.183765
333.7553734
348.1754203
759.7124968
639.4849772
314.2869655
329.0244853
1718.358596
1694.874105
1071.588817
1812.743288
1112.11788
1755.148248
1741.281413
1776.327211
297.1713023
309.6782922
610.0386724
540.401527
283.58129
293.6613882
1099.34682
1099.087037
753.2182932
773.4742105
1108.109437
1112.515727
1517.580673
986.128698
972.7410757
12619.40804
2390.407681
1550.288165
4479.922858
3599.190964
1829.730073
1806.572529
1132.575537
6000.014361
6537.485925
6240.435181
4860.809092
1206.645322
1878.273475
1818.225661
2555.793997
1713.310838
1727.8853
2182.262351
1014.833537
1647.328206
1581.893268
860.7547215
1222.022105
12922.68722
1166.187704
796.126088
800.0675264
1835.3437
7450.814933
7697.694455
9204.148242
5788.409663
5330.086093
1771.887152
1759.768147
1113.305872
1737.890643
1760.976705
1762.023511
1743.354724
1746.810302
1155.630228
1167.796456
803.8171553
1825.253371
1725.291412
1780.521908
1770.875877
829.783389
835.713086
1214.642728
5563.217755
8570.115921
8940.676211
8325.061566
8373.949861
6193.407302
1864.895427
6142.999671
4303.21834
4701.026524
1129.969625
1797.268573
1780.282453
6167.061016
6775.551926
6515.621131
5282.526488
5774.597348
7179.265879
6805.892546
4290.311313
6455.723309
5529.573737
2228.286097
1789.10692
1195.185226
31.1982207
31.80428402
32.13454071
33.70111011
34.50834431
38.75377399
31.20747561
31.91065125
31.8236949
32.28351567
34.05281269
33.75183393
34.97330833
40.06098553
38.9563071
42.36933992
50.05218548
48.64761893
102.0340283
166.7739203
158.4432786
31.18936882
31.93051229
31.92236216
32.32405197
34.20778451
34.11134134
35.20888403
41.21434805
40.35334155
44.7170594
52.58054259
53.85841942
151.482802
301.3328876
266.0133118
31.15419434
31.89858336
31.92641728
32.28857231
34.17441509
34.21466915
35.19371421
41.78333679
41.45631445
47.54300127
175.7346081
126.5571099
666.4750424
31.115826
31.84382412
31.88493166
32.21828343
34.0187964
34.14143017
34.99483194
41.34179851
41.7735798
46.72434478
158.6288141
176.3751285
471.3197101
31.08752493
31.81305876
31.8314126
32.17312816
33.88317705
33.97708377
34.80156665
40.6007702
41.12566
45.25342251
127.3478066
149.8482741
290.415962
31.05560629
31.82411325
31.81495759
32.19867629
33.93051054
33.87059673
34.85010352
40.64807572
40.49494562
45.23291303
116.4449413
122.3021261
227.5900066
31.01835398
31.83088908
31.82636523
32.22870965
34.10753292
33.97350141
35.13626674
41.91030919
40.84511496
47.57087505
130.4579288
117.967289
255.5168484
30.97685187
31.83351234
31.83184377
32.25592388
34.30130324
34.1541463
35.46121494
43.7077689
42.31454572
51.24822012
150.5344662
135.6283784
299.2867854
30.93229671
31.83449722
31.83383818
32.2835453
34.52007706
34.35331088
35.83780452
46.14317411
44.25075576
55.68950127
168.1049558
155.2145843
326.5672934
30.88575685
31.83628105
31.83478206
32.3149066
34.78043556
34.58024063
36.30736908
49.05722346
46.84722436
60.07149118
181.9594312
171.9452649
338.9577547
30.83836795
31.84200206
31.83721035
32.35496389
35.12025777
34.85609052
36.94174692
51.97516931
49.80016736
64.06905378
192.2394635
184.8445666
342.1401265
30.79168048
31.85654248
31.84458577
32.41209467
35.5812396
35.22320143
37.76302812
54.70066883
52.67629806
67.69874192
199.494364
194.2918649
339.8234549
30.74767527
31.88662629
31.86236919
32.49738324
36.16420961
35.71678095
38.70752332
57.22600687
55.35071188
71.00718606
205.4209814
201.0375374
332.2736488
30.70813736
31.93852021
31.89736696
32.61968689
36.82958896
36.32473039
39.69736881
59.56366404
57.82778437
74.02298292
210.2456317
206.769548
321.2005978
30.67473778
32.01712965
31.95555406
32.78245246
37.536003
37.00374027
40.68730544
61.72759117
60.12075165
76.77067153
213.5234331
211.2267027
308.3696891
30.64947635
32.1247037
32.04132055
32.98361918
38.25729817
37.71574481
41.65892863
63.74045764
62.24434618
79.284662
215.3273122
214.0835101
294.8122968
30.63407829
32.26037644
32.15610761
33.21749466
38.97926214
38.43822953
42.60558993
65.61875817
64.22296901
81.58631815
215.8603685
215.6086926
281.1095521
30.63028506
32.42119956
32.29840351
33.47726961
39.69360992
39.15891455
43.52359845
67.36320576
66.06799662
83.67068926
214.7274636
215.7583049
268.5179869
30.63838026
32.60338785
32.46492805
33.75674928
40.39593878
39.87050781
44.41160861
68.9736968
67.77862074
85.53200863
212.3414261
214.2990354
256.6748423
30.65936908
32.80361775
32.65190416
34.05159868
41.08687834
40.56974013
45.27395891
70.47165044
69.35787844
87.20579643
209.2265575
211.7146446
245.2982511
30.69305722
33.01928383
32.85622712
34.35899173
41.76906492
41.25832358
46.11689499
71.88694032
70.83282924
88.74581664
205.6760651
208.5049671
234.3461004
30.73907069
33.24789059
33.07536049
34.67621258
42.44140859
41.93821996
46.93973114
73.21572256
72.22574703
90.14916842
201.4882813
204.918847
223.7152852
30.79709934
33.48769288
33.30666383
35.00153505
43.10331904
42.60645109
47.74189137
74.46082621
73.52335725
91.43531187
196.6536545
200.5926765
213.3225133
30.87168616
33.75409184
33.54608063
35.35582595
43.79812274
43.25369853
48.57612954
75.70919249
74.71549941
92.69469997
191.0984395
195.7543185
202.5183044
155.722189
148.3365305
94.10253929
255.467612
234.1746709
124.1856949
889.2021415
48.17968068
46.75208169
41.18235812
77.70024726
51.48917148
53.08466122
53.37567251
50.53672367
42.6214126
90.91311329
56.1415145
60.10015481
53.65728684
55.50713404
88.56007002
179.5458531
170.1048155
103.2745718
1134.805903
752.6069379
763.3517393
530.8115837
539.2246099
744.9458927
2967.538175
3700.865824
181.6571092
2622.623223
2043.965042
836.0684362
758.2736133
705.0751994
510.3194986
521.8577816
280.7353319
533.1847549
93.14585367
146.0430785
11990.61852
1315.23527
2386.659612
776.345591
781.9108423
1154.296187
113.1266544
195.1131636
184.1099304
5301.9281
5400.84032
9224.357122
596.1688717
611.8998948
831.9918079
218.6875379
291.3255069
286.204422
336.7946041
312.1175513
225.2332935
201.4243537
264.0015545
258.4586989
276.7514601
271.3239798
205.9924576
780.5572603
576.7462321
587.3375637
440.9725353
447.8923099
576.3992904
186.5969022
240.7797455
235.712638
252.1379052
246.5153494
190.213816
173.7597018
222.1487017
230.9242986
226.4475979
176.8235885
553.9179552
428.5700982
434.2910524
239.2698502
361.9149799
344.2014887
404.2586939
371.884571
249.8358747
1365.554887
1931.878627
1858.957544
3306.153264
2989.039287
2079.328695
2756.966448
4061.554121
3627.61373
3223.015072
2280.456116
54.92199988
53.70311205
45.30821275
120.500328
70.19770799
72.81814565
60.89554593
61.90041774
117.0462449
341.5886792
278.3214682
158.0885797
4583.583273
1097.842921
1360.004833
400.9868227
345.1511219
6469.022418
701.1241939
730.5568633
1105.33804
411.2156514
530.2186649
516.1429632
552.2620325
543.7729871
419.0619646
4820.309142
929.079225
1282.007221
1164.478662
1280.692504
3550.240348
1085.489222
1082.073079
725.3093777
3505.367335
4999.378336
13130.52584
338.2959759
611.1134643
553.9250357
708.6828164
634.6635644
356.7714316
438.408465
569.376308
563.3727997
586.7252651
581.5699934
447.616237
1232.900437
1548.171253
3053.362809
2678.837293
3684.886185
4170.389497
1697.025487
16324.07688
14046.83062
381.4220246
473.2182838
463.9702914
499.4103456
485.8241498
388.4434079
858.2308738
632.4970346
662.0896308
561.0035579
569.8802648
775.9043663
358.3400601
442.0638238
435.3275469
456.0287176
448.6806514
363.3107833
744.3969274
1092.23039
1091.365116
470.1515322
611.9083623
606.5811515
686.091918
691.5564575
516.5616332
3594.066829
3839.840211
5491.893492
1838.202755
2740.42475
2495.392166
5034.675344
4488.633479
3112.744271
338.6093281
416.7486958
410.3630637
429.1390661
422.7644948
343.1992387
751.3796174
546.2029218
554.2313443
481.209513
496.475747
676.0966217
319.2578707
388.9165393
380.9571129
403.8194282
396.6580705
324.1718306
301.1754821
360.7408371
355.293474
373.5275818
366.6697914
305.1262834
591.5473046
456.688318
467.9143909
417.1310283
422.5327583
546.1310896
286.8206154
340.1012438
335.1091429
350.128346
345.1159059
290.0306604
2303.389032
2103.808338
1437.249055
4219.133213
3077.433035
3209.825266
2683.281391
2786.038253
3925.584874
2884.594205
1124.360779
2246.758872
1589.313526
2419.691367
2293.591216
1186.860945
13364.68971
5196.694627
5381.268257
10413.81751
12758.36718
8344.710884
6429.371746
8876.523823
8386.668554
8416.159998
9734.154442
6429.17054
30.62530993
30.66190718
30.71471718
30.79043175
30.89600818
31.08615858
30.53473372
30.57853017
30.61455505
30.64026283
30.72735117
30.75029453
30.84907519
31.07413726
31.081142
31.19619045
31.3559629
31.35230884
32.19190333
32.62427887
32.57693725
34.68986465
35.78167363
35.64494534
99.62599051
113.8191559
112.3070361
30.44777344
30.49837198
30.53642972
30.56813868
30.6656077
30.69646625
30.79822372
31.0440953
31.06741813
31.20142764
31.38235341
31.38303525
32.31570918
32.79715315
32.77760631
35.12203682
36.38223934
36.28099741
30.36326141
30.41987505
30.45717088
30.49686023
30.60350914
30.63473118
30.74540945
31.00447983
31.03411945
31.17316703
31.36244822
31.36965312
32.31390629
32.80738622
32.814143
35.23064214
36.59837875
36.580416
47.02545669
57.47601349
56.21413277
588.621484
1954.781989
2173.140184
30.28005619
30.34178583
30.37911827
30.4250943
30.53954421
30.57181841
30.69198825
30.9649096
30.99347257
31.13414541
31.32440695
31.33438461
32.25454915
32.73367253
32.75670879
35.10733735
36.47437507
36.53110322
47.38269157
58.63344612
58.88005178
591.4117281
1412.113461
1522.750776
30.19708837
30.26302997
30.30096369
30.35184058
30.47291815
30.50659489
30.63529847
30.92780853
30.95549958
31.10130408
31.29117694
31.29735142
32.18838593
32.64350142
32.66380925
34.8822711
36.16447459
36.23992905
45.91403752
55.66994761
56.5121448
364.5123912
1005.971509
1101.712258
30.11341466
30.1829025
30.22179091
30.27645113
30.40328906
30.4384826
30.57478378
30.88564797
30.91734471
31.07229386
31.27381704
31.27846991
32.18168078
32.62614086
32.61914802
34.78306497
36.00978852
36.00991796
44.9524984
53.48376336
53.76162347
247.100529
719.7682298
777.2890522
30.02853467
30.10099794
30.14102112
30.19866253
30.33069714
30.36735082
30.51056122
30.83867516
30.87402413
31.03759276
31.25120947
31.25740938
32.21428327
32.68742786
32.67193059
34.98805646
36.31224735
36.19582933
46.11971074
55.60802883
54.5308357
227.8243536
608.817842
622.4085608
29.94187714
30.01709984
30.05835342
30.11846174
30.25540505
30.29336702
30.44308816
30.78769627
30.82604451
30.99806022
31.22327131
31.23066766
32.24246432
32.74869788
32.73333008
35.29350154
36.82204857
36.68767541
49.27417436
62.15732963
60.40769035
279.6951692
573.2750387
583.1938919
29.85331728
29.93106849
29.97359468
30.03590059
30.17772402
30.21684816
30.37288327
30.73365327
30.77427427
30.95489238
31.19158236
31.19977368
32.26950501
32.81224402
32.79592005
35.64152016
37.41957952
37.25946492
53.42707881
69.23052704
67.49331359
315.134929
530.8985279
541.9137794
29.76253459
29.84288563
29.88666044
29.95109431
30.09788096
30.13806266
30.30043108
30.67743885
30.71964995
30.90921535
31.15761671
31.16624792
32.2985174
32.88229276
32.86389037
36.05662731
38.17397001
37.96407128
57.92392136
75.74954621
74.1875718
334.2359192
491.7922769
500.9466969
29.66988421
29.75266303
29.79757002
29.86423962
30.01609948
30.05721378
30.22617428
30.61996106
30.6630568
30.86209264
31.12279642
31.13149759
32.3334358
32.96520536
32.94274052
36.60029377
39.19616198
38.91271639
62.11969387
81.57663056
80.180137
341.4354349
457.628366
465.9035662
29.5752978
29.66070709
29.70655172
29.77570334
29.93278021
29.97460017
30.15072854
30.56241985
30.60545492
30.81482365
31.08888695
31.09715314
32.38072739
33.07297798
33.04277116
37.33164667
40.47250815
40.13700106
65.92624375
86.77890318
85.53512034
341.571338
425.6089426
433.470391
29.4796412
29.56744062
29.61395992
29.68598297
29.84850325
29.89072353
30.07490977
30.50629315
30.54814315
30.76922999
31.05841491
31.06556979
32.45057089
33.22331445
33.18080129
38.22539832
41.86137603
41.51095966
69.39180463
91.39747389
90.29524569
336.6687134
395.1681899
402.6403547
29.38274478
29.47334008
29.52029206
29.59561711
29.76391343
29.80621053
29.99953191
30.4529
30.49259715
30.72725868
31.03418154
31.03954947
32.55356903
33.42990525
33.37269439
39.20045111
43.25160784
42.90728858
72.54998437
95.49500466
94.51417323
327.0463646
366.2943358
373.3665984
29.2858194
29.3788426
29.42597457
29.50509449
29.6796005
29.72169491
29.92530582
30.40341151
30.44007196
30.69056414
31.01860149
31.02153445
32.69604334
33.69405557
33.6229875
40.19400542
44.59671213
44.26568413
75.42906816
99.14907303
98.27624931
314.9303431
339.1121901
345.7519981
29.18816924
29.28433801
29.33149348
29.41484561
29.59607196
29.63772027
29.85286734
30.3591581
30.39176259
30.66103488
31.01465455
31.0144069
32.87855651
34.00719401
33.92496609
41.17600939
45.88482316
45.56809004
78.05457871
102.3942141
101.6180477
301.6271487
313.7445412
319.9178079
29.091468
29.19014871
29.23712155
29.32523371
29.51378049
29.55477028
29.78284113
30.32148093
30.34902713
30.64044027
31.02413644
31.02028647
33.09691198
34.35735339
34.26699182
42.13572269
47.11800425
46.81472388
80.46236444
105.2779307
104.5913443
287.9264805
290.3233337
295.9987712
28.99415137
29.09654587
29.143301
29.23657981
29.43313087
29.47328387
29.71585048
30.2917592
30.31321834
30.63054574
31.04937889
31.04158061
33.34458824
34.73330896
34.63742942
43.06843326
48.29769835
48.00776855
82.65652375
107.7961964
107.203883
274.6842431
268.759004
274.0537878
28.89877751
29.00374649
29.05014435
29.1491405
29.35450338
29.39367949
29.65252779
30.27089248
30.28562373
30.63263985
31.09081434
31.07897036
33.61489142
35.12611645
35.02671625
43.97132093
49.42385447
49.14725459
84.62864582
109.9233982
109.4313298
262.534977
248.857559
253.7293058
28.80236633
28.91189025
28.95814992
29.06312844
29.27822794
29.31637468
29.59346122
30.25977611
30.26712689
30.64729258
31.14813295
31.13233683
33.90246671
35.52992413
35.42813011
44.84558703
50.500683
50.23547608
86.38894084
111.6785172
111.2720378
250.9297462
230.8796167
235.2904276
28.70897934
28.82100454
28.86732168
28.9786247
29.20456701
29.24183248
29.53916512
30.25881919
30.25846638
30.67464088
31.22077065
31.20121958
34.20391557
35.94199215
35.83829955
45.69778754
51.53997208
51.2829887
87.99287545
113.1721643
112.8174442
239.7684525
214.9729644
218.9281268
28.61306583
28.73087968
28.77850357
28.89555236
29.13360189
29.17064015
29.48998019
30.26824984
30.26010737
30.71455187
31.30780683
31.28475974
34.51657559
36.36026684
36.25523451
46.53118744
52.54739619
52.2981789
89.46424372
114.4470237
114.1413269
229.0028286
201.0363861
204.6205987
28.52071119
28.64077404
28.69195242
28.81329952
29.06498463
29.10364666
29.44585075
30.28807144
30.272143
30.76659491
31.40810048
31.3817683
34.83779178
36.78220142
36.67597692
47.34286734
53.51853041
53.27515331
90.80523205
115.5685047
115.2845944
218.4848034
188.8125608
192.1532282
28.4137033
28.54329805
28.60981622
28.72578444
28.9945515
29.04231358
29.40564888
30.32070618
30.29424152
30.83114215
31.52209264
31.49028377
35.17012442
37.21212932
37.0943485
48.14301845
54.46547317
54.19995808
92.0460913
116.5561965
116.2735051
208.2352594
178.0211244
181.2784688
110.8237646
109.3702247
96.19474017
160.7441173
153.6283726
129.3439282
80.4274092
67.98660801
69.02783411
101.4692303
81.4577975
83.21403156
70.13433186
71.2508358
85.08964427
123.6979123
122.0536656
105.9014834
91.38037341
102.2837121
110.1026878
127.2173563
125.7598273
1825.068025
84.95209688
86.71694773
110.057749
2987.884187
3292.624542
7377.350923
5815.957969
4308.591038
4838.660738
1383.410745
1600.706653
2105.596308
1197.710669
31.34593029
31.34669414
31.20296438
31.792423
31.54112323
31.54354436
32.54491438
32.50506196
32.10838319
33.62326512
33.00102819
33.05804106
35.53841568
35.41521623
34.41058069
38.50288024
36.72232953
36.89095827
31.3826342
31.36084816
31.19664759
31.86126842
31.5788407
31.61307647
31.55742268
31.56877617
31.84479389
32.74750939
32.65772572
32.21604133
33.89740937
33.20822458
33.326292
33.09839398
33.16337395
33.83834641
36.16261977
35.88375438
34.76724065
39.44338597
37.36218278
37.76017367
37.03505311
37.22322292
39.24145922
116.9591666
115.3770881
100.7841818
164.0406935
135.5162299
137.5803286
131.4509274
133.4177226
161.0650351
31.37570758
31.37980775
31.19561545
31.93113492
31.6207097
31.6182995
31.61850204
31.62064092
31.9289362
32.81440004
32.80973485
32.322381
34.18788904
33.41910746
33.42943783
33.36935355
33.39877533
34.15615571
36.53673984
36.47109032
35.17318324
40.94122617
38.26180018
38.39571091
37.94098652
38.10826655
40.64677107
200.5278963
204.6412309
274.2915024
31.34460245
31.35378747
31.16379919
31.90981727
31.5981359
31.58840028
31.61341724
31.60693324
31.91936427
32.77624208
32.79443877
32.30214073
34.1981998
33.41298583
33.39075612
33.43199056
33.42579516
34.21221385
36.57417839
36.59891291
35.21958816
41.7436955
38.58420786
38.57261681
38.49480756
38.5561679
41.63078071
58.84015904
58.39755294
47.38490108
167.6358616
82.83334755
84.68138618
75.58690876
79.4018848
147.7700332
1634.689018
1771.852912
657.9536005
975.6592252
909.8108973
1220.405686
1085.865644
31.30542843
31.31441807
31.12444899
31.85669863
31.55427379
31.54401237
31.57702949
31.56585176
31.87130237
32.68542671
32.71012911
32.23602511
34.06323484
33.30527532
33.27165302
33.36555273
33.3356036
34.10345893
36.32376351
36.40258057
35.053502
41.52471751
38.37192549
38.25985593
38.53948643
38.47185946
41.6840446
57.35569287
58.07809156
47.08169983
166.8496347
83.97844465
82.29409233
85.24487267
85.04986458
173.2099148
1201.041325
1306.077446
532.5142615
872.9867649
883.904641
874.1659533
866.6437322
31.28269382
31.2865933
31.09448233
31.81528214
31.52276292
31.52095569
31.53467158
31.52755136
31.82239
32.61911709
32.6296725
32.17879913
33.90569571
33.19243859
33.17652028
33.24218531
33.21333114
33.9379649
36.04524827
36.09362227
34.83426297
40.73806796
37.908938
37.83371456
38.13335358
38.02003844
40.9314267
54.22542943
54.88675135
45.54069364
133.6992441
76.20636381
74.48676775
80.27636744
78.15665174
141.3242542
842.4967022
920.1684939
323.5082929
871.8666551
840.9946444
892.0163801
886.7294722
31.26326186
31.26873217
31.06405236
31.82145724
31.51807118
31.51626285
31.52036475
31.51945172
31.8183411
32.65620861
32.64030068
32.19030882
33.89499278
33.19495738
33.22077576
33.1714409
33.17857068
33.87697318
36.09797003
36.04382211
34.80721217
40.51467247
37.81041806
37.89308122
37.77409882
37.7668838
40.46373999
53.90080292
53.5178509
45.0080018
116.7466179
72.2924747
72.84318029
73.28258821
72.43341812
118.9793881
642.6529672
677.0023119
235.6249214
756.2238643
731.0053993
811.7852496
782.463178
31.23781002
31.24466421
31.02806381
31.82969869
31.50846646
31.50517771
31.51404446
31.51143204
31.82820118
32.71804563
32.70277481
32.22160934
34.06200739
33.3012452
33.32845546
33.2475216
33.2743009
34.01736577
36.55815366
36.43313259
35.06112916
41.52892654
38.42682821
38.63983067
38.02959322
38.22244428
41.16768191
58.71788067
57.10956685
46.81698628
125.249817
78.87019655
81.83116755
74.08027243
75.97916465
120.2966083
592.3725581
600.7495575
241.5754705
666.7074194
644.8011285
709.4237354
689.1958491
31.20779904
31.21564134
30.98752706
31.83310659
31.49370188
31.48945846
31.50159706
31.4977554
31.83255704
32.77993055
32.76421376
32.24920241
34.25088483
33.41262287
33.44184882
33.35602266
33.38403697
34.20185707
37.10723102
36.96171418
35.37592931
43.207685
39.33951304
39.59815461
38.86218478
39.09486456
42.74510296
65.72496101
63.93903264
50.22953651
145.7210013
90.49037868
93.23960811
84.7719611
87.66533014
140.7384559
552.7549407
563.0696115
290.0607097
584.4218027
565.797608
623.8360058
603.7797405
31.17479749
31.18325393
30.94364573
31.83428239
31.47584785
31.47112317
31.48504895
31.48049591
31.83406894
32.84614696
32.82896426
32.27643761
34.4624489
33.5341435
33.5668204
33.47177957
33.50249965
34.40692986
37.76982966
37.58907369
35.73732789
45.47131235
40.48863922
40.83500601
39.8735707
40.16916281
44.83877043
72.58029656
70.92848831
54.55591661
164.0419768
101.0949197
103.5759729
95.91984799
98.5362127
159.7123343
510.4667525
520.4303288
321.4217876
514.6242407
498.6389029
548.0874026
531.1067881
31.14021625
31.14893663
30.89751218
31.83561424
31.45675433
31.45201751
31.46634526
31.46153813
31.83512439
32.92156162
32.90147293
32.30649162
34.70976861
33.67270079
33.7114559
33.60066528
33.63586302
34.6432414
38.64754257
38.40140465
36.1773254
48.31286382
42.04605211
42.5016253
41.21020609
41.61438441
47.57334151
78.74336928
77.2665198
59.00972823
178.8384758
110.5485753
112.7130385
105.9852206
108.3119481
175.5345323
474.3187776
482.9234982
336.7953614
452.8545416
438.5375956
483.0167539
467.7069676
31.10558789
31.11415148
30.85021572
31.83998144
31.43843595
31.43428432
31.44735797
31.44280957
31.83840535
33.01494344
32.98919047
32.34375253
35.0252105
33.84294785
33.89340631
33.7524622
33.79612067
34.93736811
39.81072179
39.49628689
36.76478929
51.26158715
43.96269918
44.46507295
42.97634397
43.46493333
50.53576903
84.25475177
82.93582145
63.1064014
189.9879798
118.7113786
120.5472688
114.7938609
116.78622
187.4785869
441.4202128
449.4761911
342.1220848
397.8621399
385.1738383
424.6028387
411.0214567
31.07303743
31.08084063
30.80317917
31.85173746
31.42370187
31.4210207
31.43039597
31.4268395
31.8477795
33.14172079
33.10586967
32.39561442
35.45364208
34.0713046
34.14080653
33.94797698
34.00712282
35.33423472
41.16155656
40.81478753
37.54275431
54.03859263
45.96960335
46.46415435
44.96857826
45.47060757
53.36376765
89.15871053
87.98681954
66.82248349
197.9706187
125.5901247
127.1177791
122.3000427
123.9832513
196.2439435
410.1965145
417.85469
340.8126656
350.16061
339.5189905
372.9857275
361.3184598
31.04539147
31.05167093
30.75831587
31.87725974
31.41656105
31.41665423
31.41893699
31.41733713
31.86920887
33.3191938
33.26941592
32.47285713
36.00891151
34.38231065
34.47367726
34.21578389
34.2962856
35.85950681
42.56042449
42.21153965
38.46459276
56.6129232
47.91233578
48.38199581
46.95317587
47.43595356
55.98777672
93.50510843
92.46732465
70.20878878
204.0296813
131.3277316
132.6250094
128.5778747
129.9774842
202.5484191
380.5301533
387.8064757
334.6124793
310.6178361
301.9481161
329.395019
319.7651149
31.02513783
31.02936454
30.71751233
31.92320197
31.42106812
31.42451895
31.41722154
31.41859856
31.90950312
33.55517129
33.49077222
32.58535842
36.65803057
34.77674082
34.88631612
34.57007479
34.67119114
36.48950878
43.93106441
43.59299669
39.44871949
58.99615373
49.7486009
50.19028437
48.84455309
49.29999028
58.41743724
97.37571138
96.44871841
73.2948051
209.1757817
136.2580059
137.3844189
133.8809843
135.0904719
208.0152805
352.4863227
359.348517
324.1993117
278.4353442
271.3527709
293.7140766
285.8823574
31.01486107
31.01642
30.6824288
31.99480756
31.44125743
31.44914198
31.42898762
31.43453617
31.97428256
33.84523181
33.76820824
32.73800996
37.35727759
35.23519457
35.35708993
34.99948708
35.11587316
37.17971316
45.24785271
44.92412502
40.44117452
61.20203416
51.47371956
51.88853538
50.62491407
51.05255398
60.6663913
100.8196464
99.99760186
76.10743537
212.8536062
140.4864461
141.4275496
138.4661577
139.4939022
212.0635545
326.1890568
332.6123503
311.7006341
252.1550025
246.3790034
264.6227918
258.227916
31.01738969
31.01551978
30.6549558
32.09510547
31.48046636
31.49350366
31.45830753
31.4687537
32.06729881
34.17839527
34.09174319
32.9300131
38.07651913
35.73504943
35.8643377
35.48121311
35.60725293
37.89591308
46.50811116
46.19818223
41.4182126
63.25022084
53.09687848
53.4885749
52.29716524
52.6997409
62.75135989
103.8809697
103.1501397
78.67616015
215.0512617
144.0054593
144.7723126
142.3220719
143.1803941
214.6031809
301.7722232
307.728425
298.2610029
230.7078629
225.9864219
240.8895116
235.6669149
31.03476257
31.02895639
30.63690315
32.22396886
31.54065284
31.55906724
31.50787486
31.52358413
32.18918978
34.54272592
34.44932781
33.15634448
38.7992589
36.25881139
36.39200622
35.99483881
36.12635933
38.61885079
47.71452863
47.41797308
42.37152903
65.16181801
54.63084921
55.00104629
53.87474794
54.25537132
64.69631698
106.5844426
105.9440073
81.03096491
215.894698
146.8618107
147.4638819
145.510151
146.2032801
215.8450104
279.3591412
284.8325607
284.5423959
213.1525839
209.2628905
221.5011686
217.220879
31.06812513
31.05824182
30.63008358
32.37885131
31.62212524
31.64571532
31.57879331
31.5998076
32.33789441
34.92805758
34.83023175
33.41027629
39.51608525
36.79438509
36.92915077
36.5257304
36.65987375
39.33781333
48.8674078
48.58426483
43.29696132
66.93996071
56.07917226
56.42799583
55.36580041
55.72506938
66.50796049
108.9103267
108.3673543
83.17058179