/*--------------------------------*- C++ -*----------------------------------*\
| =========                 |                                                 |
| \\      /  F ield         | OpenFOAM: The Open Source CFD Toolbox           |
|  \\    /   O peration     | Version:  v2012                                 |
|   \\  /    A nd           | Website:  www.openfoam.com                      |
|    \\/     M anipulation  |                                                 |
\*---------------------------------------------------------------------------*/
FoamFile
{
    version     2.0;
    format      ascii;
    class       volScalarField;
    location    "1.89";
    object      p;
}
// * * * * * * * * * * * * * * * * * * * * * * * * * * * * * * * * * * * * * //

dimensions      [0 2 -2 0 0 0 0];


internalField   nonuniform List<scalar> 
3259
(
89.13059765
-105.1824217
-283.8597224
-434.967822
-554.5242722
-644.178321
-708.5084109
-752.4504228
-788.310504
-804.1109671
-813.0637382
-817.1290942
116.9702802
-87.06860051
-276.43029
-434.744317
-557.7778791
-648.5951761
-719.4220986
-760.0982965
-794.9685847
-808.5214103
-816.2488612
-819.7417901
123.1003358
-108.5799011
-315.3681798
-479.7616117
-599.9280173
-682.949131
-749.1732119
-781.6840205
-810.1916735
-818.9968132
-823.9769562
-826.1316776
140.8722425
-152.6376169
-396.6548985
-566.6234206
-676.3362484
-744.5586955
-794.7082419
-813.9540453
-831.6135143
-834.1818859
-835.0695518
-835.2604609
179.7331606
-243.2214168
-548.1690832
-715.5578009
-793.8472284
-829.5285987
-853.1719348
-854.238258
-856.2603882
-851.1086411
-847.0428274
-844.9158484
253.4047637
-472.2638724
-840.4462199
-946.0170764
-951.9478037
-934.3979551
-919.7359684
-897.5432452
-880.5613164
-866.8086194
-857.354475
-852.7950517
481.7277629
-1188.008637
-1366.367105
-1263.996012
-1140.71919
-1046.947299
-985.1527555
-937.6285659
-900.77097
-877.9989203
-863.4915052
-856.6754823
-3029.123802
-2107.085521
-1614.617887
-1322.212627
-1147.502057
-1036.611971
-967.0400996
-911.1040068
-881.3494495
-863.0348992
-854.3300034
-4430.280632
-2615.508347
-1850.351829
-1439.88231
-1209.007872
-1062.169352
-977.8037258
-908.0568968
-874.318074
-853.8404256
-844.051946
-4032.924809
-2575.445693
-1858.516543
-1448.007475
-1211.524779
-1053.436807
-965.8402092
-889.5870393
-855.4315443
-834.7217324
-824.7948434
-3000.779338
-2154.615637
-1665.297621
-1350.456764
-1154.440296
-1009.914468
-930.5858492
-855.6517836
-824.6191764
-805.5984906
-796.4244847
-1947.812295
-1599.617695
-1365.974829
-1183.451609
-1051.894054
-937.9644273
-875.455095
-808.0873695
-783.2829715
-767.4192599
-759.7118529
-4759.205536
-3224.4468
-4397.965651
-4803.429849
-3265.164267
-4277.365823
-2121.402843
-3116.206976
-1986.382855
727.1929168
-2851.126029
-991.0353343
-6431.698994
-4249.293911
-4378.746154
-2813.776465
-2280.927134
-6269.988772
-6696.760168
-4135.03033
-2900.76563
-2903.334444
-4547.547489
-5428.888943
-3136.432088
-2460.790184
-2825.923733
-2973.904867
-3637.489439
-1637.757827
-1602.500154
-2183.302022
-6715.49719
-6483.329588
-4383.597305
-6192.217662
-6542.346593
-5482.735781
-6230.9832
-4625.927562
-6096.555583
-5390.483537
-6526.990111
-6133.771966
-4665.335476
-3736.262251
-4485.693927
-3711.833961
-4378.304779
-3663.534625
-5337.69283
-4490.783856
-3859.176486
-2268.705512
-2882.853942
-1591.070754
-1633.253838
-1522.564169
-1586.306094
-8275.783588
-5446.373562
-3556.52628
-2074.695162
-1826.877245
-2310.179661
-2054.024093
-2002.809596
-2308.255672
-4024.737588
-6059.329643
-4162.319297
-2358.406518
-2688.650801
-2538.295935
-2838.653622
-2243.010446
-3568.466559
-2926.871425
-2680.554076
1121.406893
-3748.333368
-1213.479819
779.2595417
-8374.167181
-5868.122949
-8055.213803
-5168.741268
-7904.406258
-5534.978406
-6470.695268
-6501.621502
-4962.93783
-5022.772454
-3138.516013
-3480.43441
-3251.824197
-3460.387679
-3110.505694
-3898.666579
-3513.266907
-3346.772541
-1630.844664
-1909.961926
-1971.798463
-6722.914139
-6715.009369
-5831.816346
-5878.539666
-5777.321709
-5169.588616
-5350.540031
-4875.308284
-5101.095291
-5731.364098
-6366.725721
-5553.306229
-5591.021996
-5401.493206
-5524.679093
-6337.325767
-4045.130204
-3941.404243
-4099.440884
-3057.503127
-2715.540478
-2615.264068
-2735.263191
-3079.335468
-1978.781231
-1538.902581
-6959.678467
-2210.421992
-2370.496338
4758.358883
-2404.716401
-2580.8346
1713.065807
-4788.455362
-1535.385351
785.1005607
-6366.363247
-7238.552185
-7106.090925
-6622.551995
-4723.445238
-4920.480652
-4713.286946
-5701.301639
-5519.929724
-5260.784186
-6730.274139
-7271.915041
-7290.609007
-6523.13121
-5439.803358
-5167.230783
-5584.707753
-5496.075403
-6525.712489
-5638.564167
-5924.93622
-5762.073905
-6092.543953
-4648.558733
-4457.465247
-4316.309546
-4059.332675
-3808.289141
-4079.158994
-4949.292593
-4534.599236
-4793.515799
-4170.630818
-4444.820768
-4891.986794
-2527.899276
-2668.828859
-2352.700965
-1772.02461
-7617.326076
-6696.788392
-7256.532902
-3701.312316
-3769.369262
-2018.44939
-2161.880829
-2171.50551
4350.231509
4496.582103
4183.061269
-2764.10972
-2586.410758
-2543.781675
-2587.617186
-2782.760082
-8309.740873
-7227.192551
-6786.778224
-7523.57876
-7327.912342
-6603.200235
-5882.374991
-7092.540719
-6861.968708
-6750.975989
-6390.738755
-6594.157468
-7055.330864
-6908.900694
-5182.688782
-4988.102846
-4783.853387
-5045.80776
-5251.347433
-4775.734835
-4984.239449
-5315.92733
-5202.192433
-5463.714241
-5250.239438
-3282.712211
-3347.07389
-3315.800722
-3232.203685
-3377.374452
-3742.294119
-3631.382974
-3786.882234
-3425.855829
-3580.100449
-3684.598393
-1841.361469
-1820.448529
-1966.825701
-7362.985436
-7284.231457
-6732.497844
-7463.711792
-7591.821445
-7419.788205
-7583.905845
-7584.85665
-7646.110086
-7573.642524
-6652.664408
-7336.900322
-7392.851168
-6126.119056
-5977.406159
-5688.532414
-6036.992049
-6346.228499
-6167.841933
-4046.507417
-4217.635922
-3840.642575
-3996.161102
-4091.548155
-4508.564168
-4704.454564
-4272.303222
-4449.406638
-2787.21191
-2885.206875
-2951.434076
-2775.643232
-3004.961607
-2931.241119
-1858.91559
-2721.934529
-2043.583862
-1369.731689
-2354.741273
-2410.251921
-1664.487281
-2417.136342
-2160.032751
-1630.480629
-1592.881327
1928.663695
3385.050442
4471.009049
-5660.407144
-1934.76885
847.8723187
-1849.820151
-1511.054551
-3606.43984
-6180.971698
-6990.010645
-7213.302234
-1625.212153
-1770.933048
-1778.718393
-2260.179787
-1984.704952
-1929.872319
-7268.411235
-7331.327494
-6633.927157
-1604.01249
-1705.746959
-1716.979607
-1616.173444
-1575.890106
-8183.6475
-3593.362322
-2035.457138
-2106.668764
-2112.40317
-2352.458656
-2201.492003
-2167.973122
-5035.460845
-4512.511964
-5436.355992
-2497.553025
-2552.08212
-2397.309109
-2390.398312
-1892.773225
-4623.292379
-8207.95884
-7770.333194
-7621.739952
-8092.719795
-8090.440349
-3186.996596
-3220.042362
-3169.11729
-3496.565391
-3492.347649
-3464.401415
-3036.965012
-3180.943953
-3258.077239
-3861.157961
-3806.387351
-3859.963044
-1965.985626
-1943.343563
-1976.387273
-4223.601521
-4293.033647
-3913.888231
-3977.308546
-4002.56378
-4359.560194
-4377.028637
-4258.626345
-4398.98158
-4228.132122
-1979.126814
-2246.253115
-2291.435036
-2395.915879
-2347.060174
-2325.320963
4856.14046
5039.819234
4738.239844
-2462.594183
-2488.317717
-2404.92064
-2599.407953
-2542.538553
-2530.912954
-3101.022092
-2349.668878
-5368.225879
-6627.039607
-6636.927667
-6546.916002
-6591.548055
-7191.940068
-7016.852877
-7055.324363
-6941.549171
-6979.941606
-7149.975426
-5645.548112
-5560.548782
-5617.814889
-5437.571395
-5501.731593
-5586.486614
-7320.283162
-7119.818843
-7102.328333
-7092.31701
-7116.129466
-7327.347716
-5868.838759
-5782.193358
-5835.07052
-5674.782069
-5729.71942
-5817.065478
-6469.28643
-6507.854825
-6358.522497
-6415.931307
-1613.361478
-1777.576248
-1772.767769
-1762.27845
-1616.420696
-8013.100453
-8321.373607
-7933.809247
-7496.610969
-7100.991905
-6252.29293
-7888.727601
-7558.11149
-3640.271036
-3791.978401
-2170.957418
-2158.90965
-2166.45103
4462.07384
-2670.130403
-2600.365096
-2724.357809
-7987.863717
-7886.135776
-8263.211584
-7462.112018
-7787.432962
-7833.111587
-8111.664664
-8092.644783
-6813.047908
-6697.046765
-6733.617546
-6651.178898
-6665.386017
-6769.37655
-7002.255823
-6856.166786
-6899.968767
-6773.273634
-6813.665123
-6954.533488
-5119.73078
-5044.191138
-5106.747771
-5109.984988
-5183.698678
-4827.78999
-4857.102645
-4823.684502
-4921.976726
-5386.994304
-5429.508544
-5385.967102
-5300.351621
-5370.110093
-5171.705275
-5237.352526
-5322.125818
-3322.343627
-3235.118568
-3225.110757
-3249.296603
-3182.677172
-3240.197461
-3414.108737
-3440.150501
-3375.416306
-3701.199827
-3746.743601
-3773.228042
-7329.465571
-7125.114473
-7140.444701
-7105.291141
-7111.819473
-7303.35546
-7504.387946
-7542.510303
-7612.765242
-7894.37032
-7838.046317
-7922.557522
-7938.918097
-7613.078663
-7654.494187
-7807.428625
-7811.845039
-7594.233847
-6080.619764
-5986.83768
-6032.072668
-5887.118131
-5937.368927
-6027.888275
-6284.511023
-6195.077984
-6283.111476
-6076.136284
-6127.352722
-6219.962901
-4136.03602
-4171.944703
-4070.471214
-4036.475149
-4066.782879
-4565.154002
-4597.062524
-4547.700828
-4744.1488
-4661.177489
-4629.26827
-4320.683446
-4355.251532
-4322.631623
-4494.338647
-4440.834278
-4385.044606
-2893.46365
-2876.146249
-2939.70241
-2767.548315
-2818.848049
-2854.272735
-3074.459028
-3119.953782
-2987.229098
-2994.524139
-3006.213458
-1919.986577
176.6218855
166.231578
120.5342914
-46.64110585
-38.20443713
-101.6084204
-254.8601632
-232.0969779
-302.2534035
-427.9507068
-398.3258168
-465.1211747
-559.2706859
-529.7008487
-586.198434
-652.9242752
-627.8769624
203.497497
181.3362122
134.9094617
-72.28791811
-51.65703519
-138.6937906
-318.8758748
-267.1323372
-371.2647012
-503.661211
-442.6808094
-540.0712721
-629.3919921
-573.6383071
-653.5377271
-711.6646805
-665.0008935
262.7543722
214.3925565
167.3348863
-123.2441727
-81.72266796
-213.3943429
-441.069183
-342.4976896
-500.997299
-637.0972359
-530.6598912
-670.6357296
-743.8076739
-653.1394992
-760.8607905
-797.4047701
-730.8392623
389.5597643
285.9329221
231.3346898
-253.2330867
-144.1252923
-390.8790095
-684.9216374
-486.5357053
-748.3429866
-862.0831322
-683.4746845
-880.4417221
-906.2705909
-779.9019967
-908.5211068
-908.1910244
-822.8844486
654.719679
440.5483025
453.8057017
-718.769798
-318.3806664
-921.7950507
-1188.552584
-779.3636408
-1209.91135
-1195.439218
-934.2342125
-1177.225021
-1113.330105
-954.7793874
-1092.097891
-1035.482023
-939.0447619
573.871301
-851.9374642
-292.6471827
-1642.212808
-1596.56087
-1297.835822
-1919.578118
-1613.543397
-1295.739226
-1531.22535
-1332.714067
-1169.407868
-1280.522375
-1157.212534
-1067.486209
-3819.805026
-3098.861555
-2581.548696
-2538.398411
-1951.178571
-1714.303472
-1810.974515
-1497.468062
-1381.890521
-1419.923406
-1243.305096
-1183.334918
-4426.966553
-3626.999464
-3563.545204
-2631.862114
-2027.850153
-1998.016434
-1878.641681
-1539.31374
-1521.057915
-1455.178794
-1264.142042
-1255.443167
-3670.657435
-3174.161419
-3405.647583
-2280.691234
-1842.927843
-2002.230151
-1727.443615
-1454.06399
-1530.330371
-1383.24612
-1216.934514
-1259.37654
-2596.420847
-2361.04264
-2674.334161
-1740.761706
-1511.657612
-1768.923266
-1445.290589
-1276.02485
-1415.909679
-1229.075711
-1112.502493
-1195.136954
-1577.025524
-1588.971943
-1793.779117
-1419.915225
-1224.05322
-1080.586423
-4677.259743
-5229.125148
-5334.771448
-3448.644623
-3890.54843
-3576.801874
-4508.125206
-4930.319486
-4724.123328
-5344.647854
-5328.981602
-4815.441411
-3414.02528
-3642.387902
-3390.52938
-4648.152762
-4408.741823
-4144.324298
-2258.227428
-2315.265717
-2170.218089
-3238.861026
-3078.108476
-2969.208436
-2026.793331
-1884.725555
-1852.757854
2283.228688
3599.660364
4389.454959
1084.914245
-2073.211727
160.2200312
-2487.340616
-2545.412864
-2987.736442
-510.0549321
-1142.898905
-1582.226073
-6336.325487
-6580.254577
-6661.535823
-4514.74962
-5098.264621
-4724.703047
-3523.071702
-3222.171329
-4016.337714
-2676.613044
-2990.267608
-3156.654772
-2487.745178
-2763.7161
-2495.992415
-6306.748779
-6455.611712
-6413.731706
-6873.94554
-6844.167717
-6673.630228
-3482.804898
-3598.338877
-4377.909392
-2942.498567
-3282.562467
-3219.53035
-3258.473685
-3298.278179
-2945.142872
-4602.863552
-4662.652396
-4600.948113
-5519.709527
-5463.35552
-5373.849297
-2783.168077
-3074.356598
-3540.039852
-2600.17321
-2832.158993
-2661.929612
-3118.698545
-2986.875639
-2723.785061
-3065.840025
-3116.460124
-3021.325571
-3751.048533
-3597.530369
-3539.57637
-1634.398203
-1686.928949
-1695.885944
-1848.924216
-1893.779817
-1622.262179
-2208.403686
-2120.675936
-2098.434816
-6725.364581
-6911.623308
-6898.755498
-6725.387641
-6779.569415
-6551.572237
-4895.66883
-5171.952939
-4553.271699
-6292.02235
-5913.54485
-5806.361952
-6145.421151
-6143.508586
-6553.073881
-5535.603001
-5628.690085
-5574.850343
-6372.858425
-6331.078367
-6189.884155
-5156.617975
-4992.627352
-4539.881186
-5968.759517
-5649.871584
-5732.979325
-5196.288689
-5289.28111
-5542.531746
-6470.205942
-6114.636347
-6135.75794
-5773.072398
-5833.44315
-6227.405971
-4689.260047
-5304.237771
-5200.561561
-3836.733746
-3957.679696
-3802.946452
-4540.505492
-4479.901107
-4429.962072
-3982.896631
-3726.513908
-3563.05924
-4269.428823
-4173.394058
-4275.371697
-3457.008302
-3719.728779
-3957.785431
-5175.408403
-5001.854041
-5100.319797
-4379.245569
-4484.568603
-4662.050728
-4003.805958
-4324.945707
-4068.850558
-2354.580752
-2385.344069
-2296.628468
-2927.288393
-2834.567497
-2792.753772
-1532.804637
-1582.38833
-5797.075199
-6668.970275
-6118.266982
-2009.392003
-2252.255246
-2463.676475
-1990.113823
-2105.199628
-1915.409571
-2481.403594
-2294.732017
-2152.131204
-2096.519193
-2152.110864
-2006.864071
-2321.152909
-2273.607799
-2263.921556
-5140.718467
-4306.235051
-3537.251078
-5672.410295
-5507.59144
-5887.866167
-3887.773065
-4299.003125
-4769.666681
-2403.769424
-2418.764946
-2369.195479
-2709.874442
-2663.023684
-2641.596247
-2613.561268
-2462.945456
-2397.687595
-2579.767412
-2530.934149
-2714.547426
-2216.459358
-2371.60474
-2495.014977
-3288.171423
-3123.065706
-3372.634969
-2797.386373
-3038.328323
-3196.648287
-2824.288277
-2921.252427
-2766.376738
1499.318634
-3258.34633
-3297.401034
-3894.944548
-577.0713243
-1400.355151
-2009.630109
822.1160935
-1038.740824
-334.0895812
-6452.165136
-6891.048947
-6135.713555
-6662.160914
-5606.504244
-4820.150629
-7436.135715
-7206.457666
-7722.93309
-5158.450377
-5615.088085
-6286.549884
-6603.625722
-6572.055821
-6441.243669
-6532.806532
-6674.039496
-6638.298721
-5035.246955
-4973.752998
-4903.301046
-5082.67387
-5160.013784
-5097.670225
-3309.761145
-3212.654515
-3158.429566
-3423.065875
-3389.712922
-3436.039377
-3083.862084
-3132.96501
-3159.353541
-3484.197973
-3535.21657
-3566.217914
-3442.728858
-3547.602248
-3397.28356
-1723.341389
-1734.626402
-1639.250744
-1957.299673
-1813.422574
-1816.26007
-6929.204201
-6925.772198
-6730.35766
-6708.232795
-6916.230167
-6926.33182
-5929.832111
-5883.270163
-5785.392153
-5928.071018
-6026.714846
-5976.190298
-5545.596213
-5625.12991
-5920.569402
-5234.315345
-5422.872381
-5352.242659
-5557.459688
-5493.116665
-5294.609503
-4954.349982
-5118.119878
-5032.38291
-5278.481346
-5200.287816
-5029.602251
-5591.874609
-5378.940037
-5464.578911
-6046.253863
-6084.168674
-6445.44328
-5574.403819
-5821.422402
-5792.526829
-5853.722827
-5842.215996
-5587.376499
-5447.423039
-5664.382693
-5616.201682
-5756.259379
-5712.985727
-5488.892683
-6256.136466
-5953.091621
-6001.890896
-4173.632097
-4009.198576
-3896.835427
-4150.379584
-4195.424953
-4140.986535
-2908.506249
-2877.070685
-2987.193892
-2690.184559
-2782.912398
-2861.694137
-2703.264105
-2743.366085
-2653.210742
-2783.382085
-2800.489186
-2753.677029
-3102.568184
-3042.176078
-3023.546538
-1544.810189
-2266.942208
-2281.843178
-2220.789422
2328.124545
3073.772553
1765.884901
3214.157337
2661.910113
4321.614306
3488.436552
-4142.134415
-4209.330702
-4969.923835
-1004.704392
-1765.661664
-2235.394175
963.5371351
-1355.772155
-222.875973
-6510.859568
-6490.586527
-6339.047793
-6648.838249
-6813.54983
-6781.465618
-4787.908261
-4725.38593
-4662.428899
-4848.72396
-4785.568359
-4850.99536
-4656.959269
-4720.168635
-4774.354142
-5318.01785
-5405.917028
-5346.064257
-6915.229236
-6914.690755
-6727.936867
-6057.483241
-5996.210622
-6366.477074
-5367.309482
-5666.426078
-5735.4263
-5467.410388
-5577.704102
-5277.457761
-5567.19366
-5843.588026
-5854.244018
-5786.903015
-5821.743815
-5538.384287
-6554.243173
-6131.567054
-6106.237339
-5733.319456
-5681.449911
-5587.535603
-6144.183136
-6280.757739
-6220.155596
-4580.729672
-4531.44231
-4594.651644
-4411.007882
-4469.940011
-4516.880806
-4370.179648
-4420.829633
-4362.783324
-3974.072438
-4072.927881
-4163.200619
-3897.813863
-3985.053449
-3890.869018
-4176.994536
-4080.457771
-3988.039332
-4798.850126
-4901.287133
-5119.437343
-4622.978481
-4759.512697
-4664.477226
-4943.720471
-4852.60601
-4709.209557
-4262.41043
-4372.244245
-4274.412523
-4567.857139
-4470.204257
-4353.799477
-4719.787855
-4589.962916
-4694.885407
-2563.468537
-2474.157959
-2440.983427
-2527.059508
-2506.19913
-2597.960705
-2325.01068
-2415.479595
-2446.2279
-6747.316921
-7261.620832
-7679.553963
-2070.959532
-2086.910479
-2027.372942
-2168.185346
-2134.476179
-2118.026942
4546.523481
-2711.7241
-2685.321032
-2732.877238
-2576.313396
-2627.794707
-2643.290019
-2592.803067
-2611.787064
-2561.534593
-7102.661709
-7483.503744
-7609.746124
-7167.761057
-7336.992196
-6955.769989
-7706.103599
-7762.582259
-7404.268695
-6395.855479
-6754.467164
-6978.687593
-6204.287952
-6499.074955
-6168.781436
-7461.296616
-6921.126373
-6593.571005
-6414.102093
-6544.955131
-6528.377028
-6747.076625
-6710.674901
-6563.975912
-4916.151772
-4980.859415
-5054.284915
-4843.823998
-4912.362928
-4850.316618
-5284.258202
-5221.982062
-5142.549002
-3287.721639
-3341.097008
-3374.99842
-3280.200102
-3309.554455
-3258.380653
-3407.23755
-3358.276291
-3330.614074
-3683.152411
-3717.278136
-3666.170332
-3821.290455
-3769.088572
-3734.780451
-3476.702245
-3507.315254
-3456.600671
-3614.439827
-3560.488585
-3528.353752
-3621.372188
-3590.709208
-3649.016718
-1835.22821
-1896.299779
-1914.394898
-1870.70276
-1882.496072
-1829.080287
-1974.362294
-1929.508532
-1918.560134
-6733.076896
-6920.501184
-6918.1087
-6874.634217
-6900.259993
-6695.733221
-7362.614856
-7126.161365
-7103.883553
-7149.329916
-7143.951671
-7393.376346
-5737.696897
-5834.539337
-5784.31417
-6152.033742
-6085.948962
-5981.355674
-4099.284571
-4138.525622
-4085.138069
-4263.639011
-4196.838539
-4156.983673
-3895.058339
-3935.105727
-3876.644018
-4031.32746
-3987.840084
-3946.605681
-2910.84573
-2854.210277
-2834.302854
-2975.350356
-2990.418989
-2956.17635
-2406.579128
-1945.403026
-1877.820781
-1804.290372
-1879.679287
-2180.994125
-1351.704194
-1597.544072
-1575.856058
-1729.83322
-1549.723403
-1505.435114
-1914.294481
-1912.969942
-2063.826501
-1619.360794
-1765.056355
-1785.605419
2683.133624
3109.273398
2162.600771
3743.929205
3543.175995
3137.101044
4535.410127
4035.475537
4110.485059
-3943.615467
-3898.14034
-5370.964361
-1253.675721
-2132.565365
-2764.616343
651.7329497
-909.3757144
-281.7658353
-2009.983162
-2099.795023
-1685.387311
-3272.554598
-2588.002025
-2450.998374
-6448.658908
-6515.819404
-6265.480548
-7076.133352
-6779.626152
-6697.874623
-6925.800606
-6855.189948
-7148.913891
-1673.742632
-1678.914191
-1628.490744
-1775.947472
-1726.350344
-1722.806533
-1743.16557
-1733.729015
-1779.598918
-2167.54739
-2144.775977
-2234.852803
-1965.300992
-2054.948
-2075.900544
-7307.082239
-7032.050546
-6985.622151
-7085.622669
-7063.602501
-7324.500469
-6581.882466
-6816.623146
-6850.730571
-1578.664772
-2306.345316
-2288.968721
-2336.178412
-2188.969388
-2239.400078
-2254.123234
-2213.485791
-2225.364509
-2177.056227
-4880.37784
-5174.640062
-5333.678244
-5684.533384
-5310.190145
-5078.610197
-2514.074659
-2467.322271
-2453.818784
-2506.656614
-2486.136673
-2531.622014
-2384.218831
-2435.147937
-2449.408914
-2296.509399
-2766.50903
-2809.54468
-2533.921447
-2682.164295
-2135.640122
-4039.125058
-3316.823299
-3338.276558
-3083.190991
-3107.669768
-3058.840005
-3207.234359
-3156.547824
-3133.522603
-3206.707839
-3182.477418
-3233.8896
-4306.431813
-4250.286213
-4206.290456
-4340.203286
-4296.50227
-4353.638096
-4184.321135
-4239.877669
-4282.833291
-2885.529709
-3520.781401
-3582.577173
-3108.992592
-3379.069558
-2664.694813
-5164.170528
-4220.495088
-4048.130955
89.52574068
-9.676549729
-8.898323616
-107.0531171
-200.4504087
-197.4493813
-287.778583
-367.6479872
-363.2550493
-439.544201
-503.234701
-498.698658
-558.8441447
-606.8240015
-602.8261488
-647.870602
-682.8152442
-679.3109895
-711.5202361
-735.141394
-732.6154574
117.7397493
64.39759216
63.82032714
-90.58706881
-141.5910079
-137.6245916
-282.4562794
-326.2951084
-319.47851
-441.978885
-476.2765687
-468.3779407
-564.5535684
-589.9176112
-582.6470271
-671.569564
-706.6007506
-691.9965682
-732.1886394
-752.7558624
-741.8850386
-769.3864154
-782.2462877
-775.0865605
126.2230658
64.84430156
64.76453481
-116.9598435
-174.2914741
-163.4512109
-331.0173013
-377.0977531
-360.4943706
-496.8639243
-530.6706737
-513.6917357
-615.6430873
-638.7315988
-623.6376621
-726.9154803
-750.8875152
-726.2784214
-770.1028382
-784.9862859
-767.2685137
-796.5248154
-804.6867162
-793.0378867
148.1259559
67.27066989
66.29331421
-169.2358721
-241.3300242
-220.1319201
-426.2469679
-476.6369487
-445.9410572
-596.8397512
-627.9390668
-598.7211189
-701.9800167
-721.0159696
-696.8933936
-805.9553591
-813.8146556
-780.2293557
-822.585723
-829.0394998
-805.6794474
-833.435982
-836.1855894
-820.0418739
194.3176921
70.14635065
70.41121504
-280.5926786
-379.4101429
-333.9295615
-603.9887963
-656.6357059
-600.781192
-765.7648219
-788.1080879
-741.8136805
-829.4872463
-837.9023736
-805.3162819
-906.9718355
-889.8448275
-850.3509586
-885.9290767
-881.2273998
-854.4626518
-875.995809
-871.378987
-853.430381
278.1274819
34.99498018
55.55585082
-579.6997135
-714.2160626
-598.7266095
-948.0963712
-982.7532568
-884.9897589
-1017.54011
-1017.521352
-952.2641717
-996.8877388
-988.3036243
-948.0828279
-1019.293547
-973.362699
-931.2805704
-953.3026626
-934.7986349
-908.3556891
-918.5386344
-905.0714555
-888.5070339
518.6514901
189.4567534
217.0523022
-1539.742742
-1496.485439
-1350.001848
-1353.482933
-1307.995534
-1231.654361
-1188.918256
-1155.749449
-1114.118699
-1125.464754
-1052.109037
-1014.766805
-1013.449529
-981.0644256
-959.4162949
-954.5096132
-932.8505949
-918.5820288
-3320.902006
-3107.249802
-2860.972396
-2278.881371
-2096.212566
-1957.640382
-1690.737637
-1590.190119
-1526.912274
-1359.864752
-1301.78352
-1269.831592
-1199.155693
-1105.735855
-1082.926715
-1053.264239
-1010.287289
-998.3804072
-975.2659378
-947.5621666
-940.433851
-4451.769876
-4135.891413
-4106.394325
-2655.563891
-2411.030309
-2374.413075
-1875.127867
-1745.085272
-1723.76869
-1453.170928
-1380.809107
-1369.552183
-1216.522438
-1121.237804
-1118.966807
-1062.310111
-1014.16421
-1015.72824
-975.0296314
-944.1087127
-946.4050414
-3919.23785
-3711.36281
-3809.699397
-2495.234661
-2293.765951
-2357.143703
-1826.064944
-1707.32813
-1733.521753
-1433.507001
-1364.043682
-1376.342144
-1173.982198
-1092.021378
-1112.068291
-1035.774516
-989.4377007
-1005.351784
-951.0973325
-920.6926993
-933.1703792
-2865.244305
-2763.238701
-2888.07896
-2020.547011
-1899.200917
-2012.74197
-1596.26511
-1513.960903
-1572.344414
-1313.650689
-1260.417658
-1292.378508
-1080.627364
-1023.062791
-1061.84011
-976.8647779
-938.0517588
-966.7705751
-905.1858458
-878.7809217
-900.385725
-1821.648366
-1800.468111
-1912.653267
-1460.768712
-1416.152212
-1537.160212
-1285.960208
-1245.371752
-1315.349892
-1136.041452
-1104.1558
-1146.163281
-977.3956396
-904.3030499
-851.2320432
819.7407279
-4051.64616
-3968.479642
-4294.315369
-3898.359894
-3976.01008
-4226.308447
-3012.306366
-3135.769776
-3271.951402
-1684.484478
-1691.119725
-1606.264219
-6382.856957
-6377.857748
-6549.193417
-6056.842725
-5930.165704
-5967.525034
-5304.365274
-5348.931282
-5441.841769
-6511.073615
-6360.277062
-6362.679225
-6002.105167
-6033.874818
-6167.657477
-3594.063834
-3687.158367
-3759.914875
-5284.493368
-5201.752652
-5248.170821
-1524.438095
-2038.298943
-2149.94303
-2202.815497
-4427.711074
-4188.55939
-3841.992187
-2751.431508
-2710.970034
-2796.319827
-2225.559731
-2301.310024
-2326.537498
-3474.17105
-3410.993132
-3501.844927
-2881.919774
-2968.266852
-3016.026093
1418.481293
1559.965046
1202.898394
795.1752925
329.932994
354.4191759
-5700.807338
-5390.197649
-4943.903644
-5680.204715
-5717.985467
-5823.724708
-5686.484703
-5592.087278
-5629.915333
-6237.089725
-6252.868245
-6393.293907
-6310.403589
-6184.68506
-6202.10858
-4088.094382
-4035.257327
-3995.543025
-3005.069418
-2982.579798
-3033.388276
-2699.994815
-2744.997639
-2763.746535
-6333.756089
-6298.872165
-6520.414784
-6541.838453
-6374.134663
-6345.571499
-4879.814839
-4930.236738
-5006.213983
-4834.650537
-4769.266313
-4820.5302
-2621.920094
-2606.809185
-2650.961509
-2604.418422
-2343.764915
-2415.99337
-2077.458263
-2063.948183
-2139.791784
-1721.493465
-1744.770009
-1607.001078
-1789.717918
-2142.578391
-2150.619953
-3482.733088
-3118.655864
-3194.011391
-2014.048291
-2033.468766
-1946.891144
-4773.171499
-4987.341988
-4706.09978
-4477.100333
-4066.822322
-4081.437317
172.7869048
168.9642191
64.92539567
65.11381294
118.5117734
-42.50455326
10.42557046
8.409896289
14.45457184
12.81785571
-40.10195427
-154.256651
-146.6876041
-95.82665617
-244.7489808
-197.2162544
-206.0211502
-184.7534699
-189.7513259
-237.6457642
-346.4114589
-334.769502
-291.4055676
-415.5059214
-376.9327079
-388.8679757
-360.0250211
-366.9416629
-406.0195243
-498.8398224
-486.0550423
-452.5199345
-546.9424789
-518.1092649
-530.614729
-500.5943201
-507.7450119
-537.4355426
-610.3162547
-598.8278941
-574.3560163
-642.4595712
-621.9637074
-632.8669084
-606.8298983
-612.980889
-634.3491441
194.5516528
187.2477395
65.49570443
65.0574822
130.0906934
-64.28952098
-0.154553842
-3.990091252
6.029489518
3.176121171
-57.4785079
-202.246761
-187.1063667
-126.9153529
-298.7366062
-244.5945079
-262.5055308
-216.6695115
-229.4326637
-281.6240243
-419.4327518
-396.6180351
-349.5282183
-480.1913535
-440.2173632
-463.5622407
-403.1652637
-420.1846113
-459.9606453
-572.9270265
-550.3017129
-516.8897843
-608.4815852
-580.844143
-602.632861
-545.158259
-561.807136
-589.9859617
-675.0766893
-655.8100048
-633.468842
-694.1992677
-676.0155199
-694.4147774
-645.4492431
-659.7561599
-678.6338321
243.5344267
227.5937163
69.56462121
68.44017229
156.8793098
-106.5535113
-20.17171114
-28.27422459
-8.431836079
-13.72280577
-92.96659951
-297.0090306
-266.6111022
-189.1724771
-402.7238361
-337.9849687
-373.082133
-283.6112369
-308.5070278
-370.1925862
-553.1747556
-512.1326866
-460.7386284
-596.7843152
-557.3162336
-598.2530918
-490.5619532
-521.6404337
-561.5471221
-699.1415529
-661.0842575
-631.1854235
-710.3853931
-687.3536762
-723.2359819
-627.4241871
-655.5140084
-680.1148413
-775.0382905
-747.0291579
-730.2708835
-773.5862379
-761.3104356
-787.1085867
-714.9616824
-737.3336808
-751.4525711
347.9648421
313.9456504
65.5043248
69.32352295
211.5392294
-205.8379018
-71.59841124
-98.94616849
-38.7392606
-52.65175108
-170.8157058
-508.3979003
-436.4343417
-328.4699186
-606.5490637
-529.0256611
-605.7343739
-415.2024438
-466.3345849
-541.0176696
-798.089644
-722.1942069
-670.2441128
-796.3702341
-763.8964887
-835.5290946
-645.4679689
-700.453227
-736.5725555
-892.885649
-838.2277981
-820.6003168
-860.9543969
-851.2905155
-901.163589
-762.7397936
-805.2652181
-818.8469168
-909.3923276
-872.6590728
-867.7752825
-878.3998655
-876.1339147
-909.4014601
-814.8861267
-844.6098259
-849.9656997
586.3939845
504.9260986
-200.8624284
-3.022884482
304.3151486
-535.8800566
-293.2565896
-437.9229368
-139.6620944
-200.7522209
-408.5554208
-1055.85178
-864.1768938
-724.3973929
-1030.483058
-963.7221072
-1141.281395
-699.7565185
-817.1275936
-893.8615864
-1214.819333
-1092.238974
-1070.93242
-1102.141767
-1100.343082
-1208.86816
-914.9755957
-1002.940707
-1013.771527
-1156.655584
-1084.821439
-1095.165398
-1058.147004
-1072.032538
-1135.083023
-954.770281
-1012.000235
-1004.944342
-1071.908722
-1029.762886
-1043.902096
-1003.125497
-1016.069773
-1052.978563
-943.6713336
-979.4713693
-970.8882213
23.89824004
134.7133404
554.2097325
-601.5615091
-264.3878718
-466.7765575
-50.29881698
-136.781857
-424.8647115
-1806.906591
-1650.80822
-1726.879188
-1507.991874
-1577.430675
-1705.222878
-1325.390603
-1449.354127
-1400.971088
-1457.407561
-1383.816317
-1443.349975
-1280.226489
-1329.473938
-1391.464027
-1199.850065
-1265.123218
-1225.37713
-1234.286955
-1196.075377
-1235.857203
-1128.869759
-1160.522712
-1193.357487
-1089.708337
-1125.761931
-1098.845495
-3536.853185
-3333.788264
-3586.085013
-2932.305465
-3119.631393
-3299.597095
-2308.763969
-2215.014297
-2425.050361
-1886.60049
-2037.627259
-2115.330395
-1827.90711
-1940.489547
-1806.531256
-1690.635458
-1645.662583
-1757.177849
-1465.695516
-1549.26291
-1586.99975
-1449.759302
-1502.698564
-1426.431558
-1352.649332
-1329.935774
-1393.08452
-1226.969777
-1274.93319
-1294.180806
-1223.824785
-1251.211572
-1206.870439
-4125.874586
-4141.566007
-4447.476757
-3614.837901
-3865.237647
-3860.310066
-3820.180262
-3855.826419
-3611.901293
-2400.025937
-2418.934346
-2659.932076
-2036.41598
-2213.066128
-2200.429613
-2170.897571
-2203.567091
-2026.630385
-1749.276112
-1753.735047
-1884.521916
-1543.557781
-1641.063408
-1636.840317
-1614.939401
-1633.227381
-1536.663155
-1382.213073
-1385.897018
-1459.173142
-1266.93516
-1322.237648
-1319.014699
-1308.52133
-1318.00957
-1263.443218
-3493.411667
-3605.361963
-3797.523341
-3252.582098
-3424.220487
-3326.39178
-3600.818186
-3517.023286
-3342.107143
-2118.222654