/*--------------------------------*- C++ -*----------------------------------*\
| =========                 |                                                 |
| \\      /  F ield         | OpenFOAM: The Open Source CFD Toolbox           |
|  \\    /   O peration     | Version:  v2012                                 |
|   \\  /    A nd           | Website:  www.openfoam.com                      |
|    \\/     M anipulation  |                                                 |
\*---------------------------------------------------------------------------*/
FoamFile
{
    version     2.0;
    format      ascii;
    class       surfaceVectorField;
    location    "0.31";
    object      Uf;
}
// * * * * * * * * * * * * * * * * * * * * * * * * * * * * * * * * * * * * * //

dimensions      [0 1 -1 0 0 0 0];


internalField   nonuniform List<vector> 
5999
(
(99.9988489 0.004629069678 -2.130969419e-21)
(99.99566485 0.004018169512 6.309900385e-21)
(99.99807936 0.01185240811 -2.104727291e-21)
(99.99323859 0.01437151709 2.12766977e-21)
(99.99653382 0.02462468182 -4.199353007e-21)
(99.98804708 0.03231893817 1.267076196e-20)
(99.99830563 0.02962129769 1.307758603e-21)
(99.97826543 0.06418557844 -8.358133882e-21)
(99.99053588 0.06608957204 -1.396462193e-21)
(99.99710402 0.05432358768 2.02831769e-21)
(99.99907866 0.03271289157 1.005780135e-21)
(99.98871743 0.09340817513 2.01732205e-21)
(99.99740968 0.05340676628 9.879530145e-22)
(99.9980858 0.04133999677 -1.016849334e-21)
(99.99676828 0.06861357751 9.879126636e-22)
(99.98231746 0.1551981943 1.96702732e-21)
(99.99642921 0.08752335124 0)
(99.99619368 0.1084967238 -3.624062493e-21)
(99.97661656 0.2407520168 -3.624043631e-21)
(99.99563474 0.1335091575 -9.431521521e-22)
(99.99499478 0.1625104245 3.158939002e-21)
(99.96919638 0.3567567177 3.450895245e-21)
(99.99438416 0.1954897275 4.261202537e-22)
(99.99387306 0.2320525775 -2.84501777e-21)
(99.96319413 0.5027936556 4.049768587e-22)
(99.99352857 0.2714401782 -2.918753168e-21)
(99.99345918 0.3124038318 2.839193926e-22)
(99.9621503 0.6657662629 -1.954774793e-21)
(99.99379548 0.352905057 2.597436258e-21)
(99.99439077 0.390529052 2.228658203e-21)
(99.96981942 0.815002698 -9.893269384e-22)
(99.9951678 0.4228933387 0)
(99.98928401 0.01260395468 1.053782477e-20)
(99.9838205 0.006025561695 2.746469141e-22)
(99.98175813 0.03266805499 1.684421318e-20)
(99.97443616 0.02256034365 -1.472910629e-20)
(99.96777119 0.06839368504 8.829819869e-21)
(99.95461729 0.053161992 -2.286615391e-20)
(99.96008172 0.1162630907 -1.48152261e-21)
(99.92170654 0.1084535756 4.401713141e-20)
(99.93107346 0.141518146 -9.708202915e-21)
(99.94017884 0.1501553711 -2.082582607e-21)
(99.95375876 0.150394942 4.112562982e-21)
(99.97211821 0.1061330173 2.041921115e-21)
(99.95435912 0.1825214628 1.997540545e-21)
(99.93963598 0.1981316452 2.031572895e-21)
(99.89817071 0.2631388515 -4.101168171e-21)
(99.92402446 0.2581994738 -1.858136236e-23)
(99.92870976 0.3024378886 1.967336021e-21)
(99.90553613 0.3326744417 -1.730974356e-23)
(99.84461388 0.4368000737 0)
(99.89596658 0.3941997802 0)
(99.86742981 0.4509883458 -2.460147191e-21)
(99.9010859 0.459447346 -4.841090943e-21)
(99.8890499 0.4831678111 -6.228766285e-23)
(99.85686924 0.5594208451 -1.089130631e-20)
(99.87973111 0.5303828448 -3.743315043e-21)
(99.84890792 0.7255271534 2.738596101e-23)
(99.86824764 0.6858982439 -2.474765135e-21)
(99.80718012 0.8400269037 -1.352367471e-20)
(99.84056595 0.7907454211 -3.293291277e-21)
(99.81385361 1.041032578 -6.204886309e-21)
(99.84078844 0.9754165702 -5.843321911e-21)
(99.76505971 1.201524902 5.782513178e-22)
(99.80891086 1.121897583 -7.446909609e-21)
(99.79904958 1.408578187 -7.906645007e-23)
(99.83374438 1.30559828 -4.902055145e-21)
(99.75075947 1.618565165 -7.560717644e-21)
(99.80269444 1.49717374 -3.689587526e-21)
(99.82810244 1.766392381 -3.579829749e-21)
(99.86616146 1.615368482 -5.101369887e-21)
(99.7936702 2.015185198 5.761901462e-20)
(99.84534928 1.843693197 -1.980577472e-21)
(99.97176496 0.0146775744 -2.528755868e-20)
(99.9699704 0.004129892558 -1.263852183e-20)
(99.95085622 0.04063416853 -5.479190697e-20)
(99.95001309 0.01852186826 1.179349456e-20)
(99.91311232 0.09046076139 1.18638361e-20)
(99.90788182 0.05223540945 -4.638838759e-20)
(99.87056409 0.1708373992 2.801465234e-20)
(99.83956004 0.1164480719 5.046333449e-20)
(99.82696202 0.1859194509 -4.594681628e-20)
(99.88744407 0.1853939258 -8.380534849e-21)
(99.82791419 0.2073751451 -6.180260907e-20)
(99.842408 0.2345329803 -4.175030889e-21)
(99.8219464 0.3308785163 -8.186869334e-21)
(99.80152415 0.3154620553 -4.080666967e-21)
(99.72784913 0.3815890966 2.860837567e-20)
(99.75302969 0.4162499338 8.057036812e-21)
(99.7301314 0.5556723675 -7.093799607e-21)
(99.69625232 0.5407081849 5.225276234e-21)
(99.58718177 0.652837047 -4.03532419e-20)
(99.6613425 0.6698333845 2.868254373e-21)
(99.60632124 0.7173470119 -1.761906908e-20)
(99.64171818 0.8453331983 -7.319210625e-21)
(99.6144966 0.8410190684 0)
(99.54816971 0.9288974887 7.557203392e-21)
(99.58131917 0.9410142412 -7.299799803e-21)
(99.51619874 1.292941523 3.579809622e-21)
(99.47504432 1.297912767 1.404572071e-20)
(99.38807026 1.430991354 6.964950809e-21)
(99.43967191 1.434898861 1.745862434e-20)
(99.40290728 1.882621865 -1.284981105e-20)
(99.34304278 1.9075281 8.555611345e-23)
(99.24124718 2.10076387 -1.283769091e-20)
(99.31769884 2.081843926 4.800230483e-20)
(99.36446055 2.583611995 -1.586594876e-19)
(99.2835586 2.648530276 1.809553882e-19)
(99.19059605 2.913351709 -3.700376737e-19)
(99.28996096 2.844387104 -9.871824157e-21)
(99.46922274 3.295122689 -8.310592705e-23)
(99.37473864 3.430159931 1.207213581e-20)
(99.32117306 3.757370134 -8.569066663e-20)
(99.4306549 3.605385933 1.682325991e-20)
(99.95323934 0.007024725319 2.538409113e-20)
(99.96336359 -0.003170415984 -4.233050851e-21)
(99.91348867 0.02802769571 2.134896923e-20)
(99.93025768 -0.002633779054 2.964324571e-20)
(99.84223552 0.07804906243 -8.487102038e-21)
(99.86081891 0.02065745608 -4.210069252e-21)
(99.74959443 0.1830843234 0)
(99.74607929 0.07776436588 6.466043666e-21)
(99.70015122 0.172177935 1.972327191e-20)
(99.76038735 0.2156614579 -5.772140432e-20)
(99.6868221 0.2076081633 1.482873342e-20)
(99.68837847 0.2614212512 0)
(99.61908264 0.4112091825 3.333555591e-22)
(99.60681617 0.3627690708 -3.283699147e-20)
(99.49880556 0.4165407035 -3.281490111e-20)
(99.50955917 0.4914925014 6.662124316e-20)
(99.42134031 0.720984778 -9.908162596e-20)
(99.39542606 0.6528139685 3.549635852e-20)
(99.23601776 0.7513807074 -6.622691526e-20)
(99.29981822 0.8456687904 -3.29243392e-20)
(99.22458509 0.8607285274 -5.418966053e-20)
(99.20689244 1.127894132 7.860930683e-21)
(99.17907893 1.086385832 1.563151576e-20)
(99.07492188 1.173734407 3.947994017e-20)
(99.10497577 1.227488441 7.796299664e-21)
(98.91077191 1.786011641 -1.555014809e-21)
(98.86254289 1.738169584 -2.173780652e-20)
(98.7224716 1.881265354 -2.956774507e-20)
(98.77894759 1.942836468 -8.677712505e-20)
(98.63439699 2.717877783 -8.524843025e-19)
(98.55049983 2.676471806 -7.472879263e-19)
(98.3856304 2.911559034 -1.392536367e-18)
(98.48607599 2.964950033 -8.483772878e-19)
(98.5016258 3.951298001 7.697901977e-19)
(98.36861693 3.952662944 -6.645017597e-19)
(98.20686819 4.31474229 8.099654176e-19)
(98.36969742 4.30990869 7.349295485e-19)
(98.74714626 5.283858882 -9.49689748e-19)
(98.54259129 5.373224003 7.743483674e-20)
(98.49504561 5.847037247 -5.809929083e-19)
(98.66824726 5.699799889 -2.273406033e-20)
(99.94590774 -0.01315150228 0)
(99.97578795 -0.01667441213 0)
(99.88455707 -0.01113861625 4.265185961e-21)
(99.92843325 -0.04330601609 0)
(99.77411545 0.02135437683 1.075766682e-20)
(99.83030217 -0.04659822306 -3.626009136e-21)
(99.61910747 0.1234062134 1.886162368e-20)
(99.6661013 -0.01494862145 2.384130532e-20)
(99.57016527 0.08960453265 -7.196992172e-21)
(99.61531951 0.1816245972 2.55450507e-20)
(99.53477175 0.1368012368 2.075455519e-21)
(99.51514274 0.2093824804 -1.017608081e-20)
(99.37207604 0.3946615482 0)
(99.3815006 0.3163554578 -2.137806867e-20)
(99.2437559 0.3433548496 -1.754041823e-20)
(99.22217282 0.4534530253 4.362675902e-21)
(99.03480683 0.7399942409 0)
(99.03432628 0.629516614 4.36220882e-21)
(98.82651652 0.685995513 -4.494958757e-21)
(98.85119986 0.8612092331 2.192081699e-20)
(98.76725792 0.8423064706 5.646314624e-21)
(98.63826993 1.226499263 3.176791536e-19)
(98.62575152 1.144511667 6.489596618e-20)
(98.48131834 1.214684272 1.664092851e-19)
(98.49321714 1.311514173 3.382628677e-21)
(98.08703672 2.072274561 -1.145917754e-19)
(98.05099769 1.959531163 -1.510088677e-20)
(97.85355755 2.094846701 -2.372945055e-19)
(97.89105548 2.234735513 -3.518294066e-19)
(97.47456386 3.429067375 2.185176587e-19)
(97.38475069 3.293868059 -2.355019757e-19)
(97.11239138 3.565844067 -7.061959451e-19)
(97.22206349 3.733195354 2.237114022e-19)
(97.06161558 5.429740608 0)
(96.86324642 5.317730256 -7.067912041e-21)
(96.57084134 5.790953756 4.429845568e-19)
(96.82557518 5.923158292 0)
(97.48132881 7.779425465 1.551640512e-19)
(97.15025387 7.832418519 -3.295045458e-19)
(97.01031594 8.518684754 2.125551778e-19)
(97.44544117 8.438840761 -1.548058857e-19)
(99.96356863 -0.04663580164 0)
(100.0198035 -0.03638339687 2.08636292e-21)
(99.880627 -0.078727671 -8.554059728e-21)
(99.9588002 -0.1033328941 -2.101773193e-21)
(99.73063481 -0.0821924931 8.829045143e-21)
(99.83375853 -0.1497039411 -4.265164079e-21)
(99.50386795 -0.00407880486 1.159010982e-20)
(99.62211587 -0.163932622 3.310481452e-21)
(99.46797225 -0.06603947935 -1.417385294e-23)
(99.47393897 0.07092028984 -8.632261683e-21)
(99.40433517 -0.01404617985 -8.692081933e-21)
(99.35220166 0.06995541349 0)
(99.12020258 0.2610074427 -1.753998523e-20)
(99.16409788 0.1606427253 0)
(99.00716378 0.1474642435 -1.012230542e-22)
(98.93712826 0.2814797967 -6.685620487e-23)
(98.61705394 0.5877847667 9.023588848e-21)
(98.66473178 0.4411860683 1.356873719e-20)
(98.42039697 0.4442148302 1.825950884e-20)
(98.38084445 0.6787674531 -2.602873684e-20)
(98.3005172 0.6236964297 -3.116637581e-21)
(98.00625488 1.084297027 1.373494689e-19)
(98.02870092 0.9679324531 1.355377123e-19)
(97.85199792 1.005178229 2.754451651e-19)
(97.82447025 1.14089123 -2.588417241e-19)
(97.08836752 2.027909058 -7.978545475e-19)
(97.09761871 1.848891839 -5.382327435e-19)
(96.82419548 1.953652992 2.645928807e-19)
(96.80624446 2.169415408 -5.446740069e-19)
(95.85184433 3.744940729 -2.446543091e-19)
(95.80248474 3.470934694 2.628574662e-19)
(95.38175236 3.712559958 2.608852447e-19)
(95.44376221 4.040771998 1.193372163e-21)
(94.66845003 6.663504781 0)
(94.43136317 6.311658317 2.012497277e-19)
(93.87098673 6.81364712 0)
(94.18364394 7.262532316 0)
(94.83928999 10.93787284 2.171123819e-19)
(94.1897704 10.71375306 -1.553120612e-20)
(93.71700606 11.75291006 2.233299308e-19)
(94.61483907 11.9918964 4.172277322e-19)
(100.0195885 -0.09246041338 -1.47456865e-23)
(100.1070366 -0.0615010978 7.041617501e-23)
(99.91756643 -0.1728447696 2.183897716e-21)
(100.0346938 -0.1801075322 -8.563382285e-23)
(99.73272056 -0.230045885 -1.145527235e-20)
(99.88787879 -0.2837642021 1.727281154e-21)
(99.43655477 -0.2032498172 -1.036736924e-20)
(99.63815111 -0.3623435328 -1.740109183e-20)
(99.42428061 -0.2901018474 -1.480458169e-20)
(99.37120579 -0.1204197473 -8.113389382e-21)
(99.32946205 -0.2432540524 -3.22549314e-21)
(99.23824557 -0.1587978631 4.143032962e-23)
(98.91114817 0.003828042517 1.318564517e-20)
(98.99937999 -0.1064166178 1.340229371e-20)
(98.83776258 -0.1678561596 6.625081237e-21)
(98.7106671 -0.02846437026 2.279172838e-20)
(98.24712748 0.2542645667 -1.824357187e-20)
(98.3603095 0.08248693923 -1.364077815e-20)
(98.10534436 0.01957304943 -2.302538569e-20)
(97.96980003 0.2793268784 -1.49461408e-20)
(97.91153839 0.1904405796 1.761599805e-19)
(97.4314279 0.6588348071 -2.877120823e-21)
(97.50043672 0.5215688847 2.625751396e-19)
(97.31035073 0.5089116562 7.800772581e-19)
(97.2227789 0.6659346431 2.844726169e-19)
(96.05571398 1.53271001 -1.433249705e-19)
(96.15062416 1.29988777 5.028885691e-19)
(95.82406064 1.325422318 5.698211278e-19)
(95.69857736 1.597977688 6.06936894e-19)
(93.94029395 3.235137492 2.059604658e-19)
(94.02566219 2.842165656 1.988661637e-21)
(93.48673398 2.927015368 -3.616526521e-19)
(93.35543082 3.404331592 -3.387885869e-20)
(91.05166716 6.444332901 0)
(90.99656446 5.755606997 -5.554932537e-19)
(90.07209953 5.958543966 4.14251412e-19)
(90.10468596 6.861824784 4.260462826e-19)
(88.23915071 13.37810735 0)
(87.42227107 12.11261549 0)
(85.47735132 13.64708625 0)
(85.72440452 12.76201573 0)
(87.33106822 14.99123211 0)
(86.26720007 15.0469502 5.75652205e-19)
(100.1255375 -0.1482135469 1.550258324e-23)
(100.2468514 -0.09052585941 -3.09074841e-21)
(100.0092363 -0.2882844001 -5.636390187e-22)
(100.1668478 -0.2689507384 1.347302501e-21)
(99.79875449 -0.4135944709 -4.43956907e-21)
(100.0061548 -0.4397866535 -2.924013887e-21)
(99.44477855 -0.4590368513 9.163647877e-21)
(99.73204039 -0.595350175 -1.008466456e-21)
(99.46530063 -0.5670083398 9.485479204e-22)
(99.33818521 -0.3831769982 4.464457494e-21)
(99.34167816 -0.5329211434 9.259687497e-21)
(99.20872746 -0.4626249163 6.522910246e-21)
(98.79328988 -0.3625059606 -2.234243608e-21)
(98.93131754 -0.4657937491 3.446008334e-21)
(98.7814849 -0.5757551846 2.278327309e-21)
(98.59525163 -0.4531114495 6.898776349e-21)
(98.00566517 -0.2531915503 -2.354248656e-21)
(98.18986333 -0.4196861198 -1.095875896e-23)
(97.95511845 -0.5551173528 -2.2656602e-20)
(97.72342056 -0.3046707909 1.794748441e-19)
(97.70152781 -0.4244705328 -1.104521142e-21)
(97.03215143 -0.03534884716 0)
(97.15988212 -0.1714076597 9.068035594e-21)
(96.97405332 -0.2406673452 0)
(96.81815848 -0.09051800576 0)
(95.2697093 0.5231132605 7.541481982e-20)
(95.47172845 0.2881009723 -6.029694101e-19)
(95.1484178 0.2087654544 1.149616339e-19)
(94.8973274 0.4669747358 7.557470085e-20)
(92.40317964 1.58892885 9.141315458e-20)
(92.70214398 1.18530795 -7.732604248e-20)
(92.178108 1.046474816 -9.246857394e-22)
(91.78247734 1.488787248 9.063196645e-20)
(87.78167213 3.325525418 3.073374756e-21)
(88.24285964 2.582942598 9.201479637e-19)
(87.41919269 2.20339538 4.785132446e-19)
(86.71270942 2.994968488 1.008580105e-18)
(79.07400814 6.152057255 2.019611959e-20)
(79.70573833 5.166087153 6.370247145e-19)
(78.75437073 4.491892681 -1.308820118e-18)
(77.805459 5.526942644 7.01835646e-19)
(100.289917 -0.2101576425 -1.758909396e-21)
(100.4450946 -0.1214414007 9.752017356e-22)
(100.1658529 -0.4169148475 -1.024809582e-21)
(100.3619103 -0.3636121128 -7.21555002e-22)
(99.94199062 -0.6188197809 5.231918544e-22)
(100.1966555 -0.6061144282 -2.585569573e-22)
(99.54925485 -0.7522246585 5.9839894e-22)
(99.91455538 -0.8447110497 8.747735928e-22)
(99.60690193 -0.8722485357 5.212189451e-22)
(99.4015787 -0.6944220822 1.526088953e-21)
(99.45920898 -0.8588394294 -1.47278816e-23)
(99.28854835 -0.813213374 -1.472997636e-23)
(98.80577402 -0.8024805889 -2.270895106e-21)
(98.99044597 -0.8834198567 0)
(98.86778132 -1.036946592 -1.111791437e-21)
(98.63094053 -0.9490029865 -1.177221772e-21)
(97.95858706 -0.8769352681 -5.910694045e-23)
(98.20471957 -1.009846123 1.907480627e-20)
(98.01739445 -1.208260979 1.965456724e-20)
(97.70013108 -1.003166503 1.374034533e-20)
(97.71997266 -1.139130589 -3.727741757e-19)
(96.90841763 -0.9000385652 -3.717257117e-21)
(97.08626814 -1.009959574 -8.780569249e-19)
(96.92578265 -1.128413971 -1.193661422e-18)
(96.7131536 -1.013843976 -2.89631771e-21)
(94.98051844 -0.8000954314 -8.708219971e-19)
(95.2587251 -0.9804591639 -8.567347969e-19)
(94.99244034 -1.142518922 -2.396008355e-19)
(94.6487152 -0.9596374629 7.479171603e-19)
(91.93931869 -0.6526717191 -7.131831076e-19)
(92.38318129 -0.92354796 -4.042002408e-19)
(91.99404129 -1.197472525 -8.065725274e-19)
(91.46807534 -0.9471552615 -4.542167561e-19)
(87.49974631 -0.9581645543 -5.059816137e-19)
(88.21094546 -1.299480291 -5.11400963e-19)
(87.78255766 -1.82466972 -5.052153799e-19)
(86.96906168 -1.58188905 1.457598696e-21)
(81.89618281 -3.312880159 -5.513140329e-19)
(82.55909458 -3.323350257 -5.099519507e-19)
(82.48722024 -3.835789631 5.896285701e-19)
(81.87891174 -3.938921408 -1.418889098e-18)
(100.5169436 -0.2737834272 2.009264666e-21)
(100.7033595 -0.1520686883 9.85838411e-22)
(100.3923264 -0.548969427 3.038367337e-23)
(100.6215041 -0.4572745365 1.037410814e-21)
(100.1685667 -0.8291971342 1.014981828e-22)
(100.4610197 -0.7700421856 9.576622455e-22)
(99.75901778 -1.058010897 -1.470311813e-21)
(100.1880162 -1.09107794 -8.349883914e-22)
(99.85385643 -1.180076847 6.822563697e-22)
(99.57469597 -1.027871293 -1.046074156e-21)
(99.68937015 -1.192607086 -5.283376943e-22)
(99.48906933 -1.179504228 -1.046008323e-21)
(98.96786323 -1.27297862 3.225986543e-24)
(99.19023596 -1.318924612 1.111729595e-21)
(99.10525196 -1.505100914 1.111739447e-21)
(98.83364143 -1.464492623 1.111718837e-21)
(98.12995931 -1.539130076 -6.006847711e-22)
(98.41987422 -1.620312475 0)
(98.29320817 -1.861205972 1.165792157e-21)
(97.91552337 -1.725147347 -7.561847629e-19)
(97.97441355 -1.85993274 3.794905317e-19)
(97.08969939 -1.803618668 -3.145918195e-21)
(97.30218202 -1.871215809 -8.754968681e-19)
(97.17892818 -2.021508297 -8.702795681e-21)
(96.93653209 -1.956293395 3.723472101e-20)
(95.20783161 -2.133186619 4.770082484e-21)
(95.53636662 -2.238033942 -7.607359674e-20)
(95.33142707 -2.443275194 1.595865456e-19)
(94.96287362 -2.350273195 -6.575478635e-19)
(92.43825249 -2.678512868 -7.677684627e-19)
(92.91634584 -2.806929098 -2.275082408e-19)
(92.65490929 -3.112878238 -3.990783856e-19)
(92.13285751 -3.020487393 -6.085063383e-19)
(88.92584661 -3.862699335 -4.601890111e-19)
(89.57120368 -3.947676082 -3.180756082e-20)
(89.34573253 -4.393584474 -1.299454635e-20)
(88.69547011 -4.377214484 4.599579302e-19)
(85.64510054 -6.081089207 -4.691877869e-19)
(86.00985734 -6.00901766 3.58496453e-22)
(85.99624068 -6.302969328 1.324915914e-19)
(85.58974159 -6.33725646 5.813201939e-21)
(85.7098455 -6.409082189 5.387697555e-19)
(100.8060699 -0.3346325295 8.061206128e-24)
(101.0190458 -0.1803810144 2.60100151e-21)
(100.6875394 -0.6749138698 1.940301459e-21)
(100.9425567 -0.5435067262 9.831198484e-22)
(100.4770576 -1.028044113 6.292112604e-23)
(100.794245 -0.9189763977 -5.23899595e-23)
(100.0713845 -1.351919035 -1.970573841e-21)
(100.5476256 -1.31917867 -8.954214799e-22)
(100.1991163 -1.46632981 -4.929872584e-22)
(99.85756219 -1.355156754 -5.129292874e-22)
(100.0251824 -1.507442639 -1.024048166e-21)
(99.80639916 -1.529562907 8.801038187e-23)
(99.2777858 -1.728261326 0)
(99.52516567 -1.732185881 1.029819974e-21)
(99.48313532 -1.938174986 2.042721086e-21)
(99.19429166 -1.949825969 1.10464061e-21)
(98.50297921 -2.16770599 -1.060716157e-21)
(98.81778581 -2.188916613 -1.132329439e-21)
(98.75446664 -2.452671776 6.699128884e-20)
(98.34225521 -2.394119654 3.377651259e-21)
(98.43346509 -2.516375953 3.710594054e-19)
(97.53970989 -2.636313611 -4.710860571e-20)
(97.76884922 -2.658870235 -5.986398506e-19)
(97.68752756 -2.825087428 -5.029578996e-20)
(97.43263347 -2.809868769 -4.985044241e-19)
(95.8275969 -3.293225587 -3.10240942e-19)
(96.16690345 -3.327196393 -7.429852889e-19)
(96.02804401 -3.54697038 -1.539887318e-19)
(95.65934168 -3.529705231 7.855144046e-19)
(93.43807723 -4.245016032 -3.687198728e-19)
(93.89948902 -4.271377542 -1.907770231e-19)
(93.73223595 -4.569749055 -6.879334842e-19)
(93.24556186 -4.573583323 -3.655408055e-19)
(90.6110542 -5.687192195 0)
(91.1699468 -5.669039735 -3.839197578e-19)
(91.02956979 -6.046646542 0)
(90.47562634 -6.096420814 0)
(88.10216779 -7.515828499 5.117990705e-19)
(88.37612832 -7.451554996 -4.802546e-21)
(88.35672285 -7.660260466 0)
(88.05439949 -7.68886598 -4.554361453e-19)
(88.13979957 -7.737081069 0)
(101.1524047 -0.3885415509 3.576871731e-21)
(101.0453399 -0.7861634887 -9.557903236e-22)
(100.8574986 -1.201562309 -9.557591593e-22)
(100.4707268 -1.614697144 0)
(100.2373383 -1.651870461 6.54370313e-24)
(100.2237905 -1.835385204 1.946698357e-21)
(99.7176349 -2.131145905 -1.029340927e-21)
(99.97648435 -2.090975848 -1.112934155e-21)
(99.68746763 -2.367157664 1.09906126e-21)
(99.04221166 -2.711315599 -4.245195667e-22)
(99.36431301 -2.67133792 -6.470795846e-20)
(98.9377414 -2.958693782 3.027196459e-19)
(99.05312851 -3.060323716 -4.649860981e-20)
(98.19896645 -3.333011219 -1.650031249e-20)
(98.42985314 -3.313104525 1.63525061e-22)
(98.38873983 -3.481122759 -5.942837811e-19)
(98.13627392 -3.511311895 -5.590407078e-19)
(96.71085218 -4.213756232 -2.874747728e-19)
(97.04177276 -4.187821961 -7.482961302e-20)
(96.96088576 -4.403695298 -1.4387494e-19)
(96.60802544 -4.447560977 -2.952190318e-19)
(94.6867387 -5.403525498 5.410178443e-23)
(95.12134177 -5.357282332 -2.964974832e-19)
(95.02571673 -5.637237343 -2.956624982e-19)
(94.57193484 -5.708643473 1.713567555e-19)
(92.29168736 -6.982240925 -3.732175578e-19)
(92.8092739 -6.907162448 -7.147078818e-19)
(92.72608463 -7.255658262 -3.620049797e-19)
(92.1975413 -7.350984199 -2.725638359e-19)
(90.00471001 -8.724285218 3.535607276e-19)
(90.25887919 -8.683607426 9.600183338e-20)
(90.2430504 -8.88689513 9.018735868e-20)
(89.94220674 -8.89621598 -1.156426545e-19)
(90.02087369 -8.961389773 7.050057534e-19)
(82.00287911 -2.74387542 -1.155098773e-18)
(81.20554186 -3.389925354 3.06896796e-20)
(81.27479948 -2.684562193 -5.790931424e-19)
(85.6592828 -5.77251401 -3.326655805e-21)
(85.27763104 -5.841986799 -4.776823167e-19)
(85.22245034 -6.115850133 2.318972763e-19)
(85.3481238 -6.192732376 -8.668108733e-19)
(88.11949553 -7.298823912 5.059784505e-19)
(87.83749912 -7.368523599 8.234762183e-19)
(87.79161393 -7.547427068 -1.206997748e-19)
(87.88068273 -7.594448335 3.391869623e-19)
(90.0235071 -8.523542199 6.268742848e-19)
(89.76984317 -8.563575189 -1.83644323e-19)
(89.70746587 -8.733021741 3.570607552e-19)
(89.78482541 -8.797237195 3.488061459e-19)
(80.18018844 6.676017365 0)
(78.35198103 7.396255651 0)
(79.73860915 7.743432826 0)
(89.18738233 -3.395381537 -4.196876881e-19)
(88.23996067 -3.81300338 3.664640191e-19)
(88.51719706 -3.265552377 0)
(86.02300903 -5.706052893 4.662109852e-19)
(85.67258441 -5.452125397 4.746572492e-19)
(86.06547179 -5.409417186 4.745986636e-19)
(82.67152715 -2.74459165 -1.115695861e-18)
(83.28743033 -2.812554401 -5.361244511e-19)
(83.16390954 -3.292663947 5.532460251e-19)
(90.76711093 -5.296505279 0)
(90.04111897 -5.725929713 5.421632514e-19)
(90.19070315 -5.296607332 0)
(88.39270142 -7.242667262 -1.429362997e-20)
(88.13426737 -7.081960052 -9.157078119e-21)
(88.42481056 -7.033380783 -4.246560315e-19)
(86.39845384 -5.661144953 4.515095566e-19)
(86.35915322 -5.942130547 -4.717236085e-19)
(86.97289743 -6.884458115 -6.498907925e-19)
(86.9840539 -6.628222259 0)
(86.65929813 -6.703119895 2.29259119e-19)
(86.61228287 -6.925045664 4.503082525e-21)
(86.72083963 -6.979022316 4.942222387e-19)
(86.01086733 -7.975228467 -5.059398991e-19)
(85.85909028 -8.035266003 -7.062285126e-20)
(85.83529191 -7.916112307 4.03526564e-19)
(86.0065086 -7.850780537 -1.049750122e-19)
(85.79914412 -8.025015256 -7.047708169e-20)
(84.50667972 -7.33020447 -1.013794664e-19)
(84.45360214 -7.454868241 8.035878143e-20)
(84.70005704 -7.279247807 -1.142600013e-19)
(84.69652641 -7.427745716 -1.067289882e-18)
(84.51678645 -7.491964389 -3.597416948e-19)
(92.39130658 -6.630195222 -1.445036157e-20)
(91.7617051 -7.063792758 -1.074554486e-19)
(91.86701621 -6.691157933 3.636067494e-19)
(90.2776275 -8.483160056 3.69347463e-19)
(90.04458648 -8.325600265 -5.74023829e-21)
(90.30461211 -8.283774464 7.157372523e-19)
(88.67571684 -7.195176981 -8.082294891e-19)
(88.64246789 -7.399921424 -4.80561814e-21)
(89.07453463 -8.097639965 -3.831488428e-19)
(89.0987966 -7.901709178 -3.802912307e-19)
(88.84060488 -7.949232924 -3.83401125e-19)
(88.78605031 -8.11350335 -1.128451909e-18)
(88.86286426 -8.17004132 1.762226533e-19)
(87.978621 -8.834339969 2.822500196e-19)
(87.88564353 -8.835773061 -5.831269798e-21)
(87.93478185 -8.800245674 -2.794826729e-19)
(88.01670817 -8.795166634 2.81515546e-19)
(87.17914391 -8.373664021 2.860472277e-19)
(87.11430493 -8.447586306 -2.212976487e-19)
(87.32698192 -8.332099147 2.881778981e-19)
(87.30334919 -8.425739166 2.861949149e-19)
(87.15506271 -8.46095474 1.903921058e-19)
(90.53731889 -8.440183533 -1.047038364e-18)
(90.51405012 -8.641391479 3.432081629e-19)
(91.05622709 -9.321565246 5.523146509e-19)
(91.03417044 -9.199691557 1.035304121e-18)
(90.91847693 -9.348558289 2.75593884e-19)
(90.91300931 -9.243804819 2.770838529e-19)
(89.48963869 -10.22350048 -5.1054784e-19)
(89.29843902 -10.21507609 0)
(89.4438928 -10.17039049 -3.240193046e-19)
(89.58528576 -10.17190058 0)
(88.73372718 -9.501123132 -8.179290223e-19)
(88.65422125 -9.545816538 -4.959861977e-21)
(88.84301125 -9.496750916 -1.072634568e-18)
(88.78770551 -9.543943935 -1.084396618e-18)
(73.30986412 -4.427098345 -6.86237913e-19)
(74.25807205 -4.274389532 -6.708898548e-19)
(74.39601897 -5.068528427 -3.105817731e-20)
(73.3255416 -5.320545032 -2.057844527e-18)
(73.72347564 -5.499326896 3.192807231e-19)
(79.86821623 -6.682666057 0)
(79.67467821 -6.350272012 0)
(79.2973297 -6.606154283 -7.022747136e-19)
(79.46707913 -6.944020078 0)
(79.65091033 -6.95913466 0)
(68.47083429 7.736023344 0)
(67.55620335 9.094498863 0)
(67.26257249 6.688319258 0)
(65.89626999 8.125168184 -8.310040755e-19)
(73.2418535 -3.555610208 0)
(72.32470513 -4.718411462 -4.180120405e-21)
(72.19109082 -3.625254138 0)
(84.32838932 -7.392068333 7.319623356e-19)
(84.31890411 -7.233795986 1.110423608e-19)
(84.51198018 -7.18168946 4.343043054e-19)
(84.26716021 -7.355665669 -1.486887351e-19)
(82.89591925 -6.843095648 0)
(82.86519659 -6.687917847 0)
(83.07804781 -6.59809169 0)
(83.10409969 -6.749805245 0)
(84.02843796 -4.994406626 1.056327381e-18)
(84.49035614 -4.940815344 -5.00051394e-19)
(84.47001474 -5.298649796 1.028353484e-18)
(84.06045889 -5.401145494 -5.238836167e-19)
(82.68183741 -6.949032087 4.784894275e-19)
(82.91655193 -6.997669902 0)
(82.66335564 -7.079487116 1.002658602e-18)
(82.74059862 -7.083624217 -1.062401959e-21)
(84.33531098 -7.472659359 6.609830101e-19)
(84.22198431 -7.493283506 6.667255034e-19)
(84.23724205 -7.422299922 1.620809397e-21)
(80.2008205 -6.441075127 -5.320572044e-19)
(80.37257497 -6.735636971 -5.10378099e-19)
(80.00152698 -6.969007015 0)
(80.15743106 -6.974521875 5.200918707e-19)
(82.65175302 -6.790640784 4.793465798e-19)
(82.43141819 -6.905299805 1.788238942e-21)
(82.42224993 -7.043896244 3.185024433e-19)
(82.50448246 -7.047132493 3.180261054e-19)
(87.03208602 -8.410217723 0)
(87.05190017 -8.322289849 0)
(87.2001825 -8.277991693 2.899019797e-21)
(86.99112454 -8.397024076 4.121740658e-19)
(85.9741896 -8.078239204 -2.697066142e-19)
(86.17751168 -7.910109667 -4.001941101e-19)
(86.17979318 -8.029375239 -5.001406645e-19)
(86.03147549 -8.086294774 -1.088994096e-18)
(87.28572176 -6.809373185 -6.48311312e-19)
(87.27390003 -7.055168594 -6.497548719e-19)
(86.92883857 -7.095277059 -4.319084899e-19)
(87.0325785 -7.144272031 4.834150008e-20)
(85.87198707 -8.105715845 0)
(85.95107684 -8.129878362 -6.169487928e-19)
(85.85673891 -8.158672973 6.109795609e-19)
(87.02273199 -8.461403789 -3.086040997e-19)
(86.92515854 -8.474413208 0)
(86.95652315 -8.436135721 3.088170096e-19)
(84.42422045 -7.522862958 3.291952107e-19)
(84.31496526 -7.544422632 3.309752983e-19)
(85.77009082 -8.134123304 0)
(85.7769267 -8.079482129 -7.560221008e-22)
(88.60150438 -9.502583935 2.042576697e-21)
(88.68083723 -9.457431222 5.3804504e-19)
(88.78920516 -9.453897796 -2.789092129e-19)
(87.92711594 -8.870657371 0)
(88.06182685 -8.830294801 0)
(88.02242517 -8.870593766 -2.829847578e-19)
(89.33025696 -8.053780603 3.792865682e-19)
(89.30604774 -8.249575327 0)
(89.01707527 -8.261870431 4.328351799e-19)
(89.09274038 -8.321497035 4.307235775e-19)
(87.83326465 -8.872220231 -2.909781204e-19)
(87.87275439 -8.908305009 2.934388243e-19)
(87.75697928 -8.903850118 -3.009141996e-19)
(88.51910615 -9.548248438 8.338989447e-19)
(88.33653322 -9.544113784 -2.779076344e-19)
(88.46773185 -9.504436986 5.448512212e-19)
(87.07854205 -8.486203729 -3.086947301e-19)
(86.98531611 -8.499483845 1.316401773e-20)
(87.72054549 -8.869714509 -5.919679359e-19)
(87.79345843 -8.839073051 5.770073288e-19)
(89.34045518 -10.26785214 -5.157517618e-19)
(89.6355517 -10.22482486 -5.037483914e-19)
(89.54026134 -10.27561812 -5.071931795e-19)
(91.04855395 -9.427660909 -5.529945991e-21)
(89.14633438 -10.25846465 0)
(89.18849898 -10.30775362 0)
(88.8656069 -10.28919073 -1.092804745e-18)
(88.57192492 -9.590895705 1.103898914e-18)
(88.38740679 -9.587363779 5.458407654e-19)
(88.83881931 -10.24238874 5.33675995e-19)
(89.11399693 -10.20585971 6.57525317e-20)
(88.01088147 -0.4287138222 -4.464292942e-19)
(86.65446503 -0.6038234652 0)
(87.31701019 0.01233254851 0)
(82.17047604 -2.104481582 -5.91170767e-19)
(82.83089061 -2.225080994 5.314040044e-19)
(80.8118841 5.685078337 6.174013743e-19)
(81.31450662 4.818514865 1.176985395e-18)
(80.49928773 4.306987778 6.28074525e-19)
(79.4641772 0.08999657141 -1.270501362e-18)
(79.9168663 0.8849300727 -1.257601014e-18)
(78.38632467 0.433341924 -6.448699068e-19)
(79.01973824 1.392102173 -1.342611824e-20)
(74.19844502 -3.390819904 1.25174154e-20)
(73.27692221 -2.568690677 0)
(74.20068476 -2.60020263 0)
(69.88586288 8.563664369 -1.468253913e-18)
(70.65111132 7.359121977 0)
(69.56704359 6.562495771 0)
(84.05423109 -4.608941388 1.06160618e-18)
(83.58514571 -5.105228106 1.062755011e-18)
(83.55223169 -4.658751906 -2.285458176e-21)
(82.61036647 -6.63005091 0)
(82.83036417 -6.529090845 0)
(80.00660541 -6.111856631 -5.311689554e-19)
(80.3562382 -5.924194173 -1.061053024e-18)
(80.49876747 -6.222645847 -5.212902448e-21)
(79.46672657 -5.977696566 5.653842384e-19)
(79.8563561 -5.784052784 5.536112579e-19)
(75.04209908 -3.339838506 2.735403837e-20)
(75.09589575 -4.054555969 -6.393582759e-19)
(80.35012258 -0.2589085321 -6.256536178e-19)
(80.02201628 -1.008207796 7.40255081e-21)
(79.03390687 -0.8350133062 -6.256149325e-19)
(76.60350113 -9.598653964 2.989827987e-18)
(76.91411582 -9.362496568 0)
(77.06231177 -9.39668856 5.876128419e-19)
(76.67086513 -9.750301451 0)
(53.51604335 11.2853478 -1.709816559e-18)