/*--------------------------------*- C++ -*----------------------------------*\
| =========                 |                                                 |
| \\      /  F ield         | OpenFOAM: The Open Source CFD Toolbox           |
|  \\    /   O peration     | Version:  v2012                                 |
|   \\  /    A nd           | Website:  www.openfoam.com                      |
|    \\/     M anipulation  |                                                 |
\*---------------------------------------------------------------------------*/
FoamFile
{
    version     2.0;
    format      ascii;
    class       volScalarField;
    location    "1.19";
    object      omega;
}
// * * * * * * * * * * * * * * * * * * * * * * * * * * * * * * * * * * * * * //

dimensions      [0 0 -1 0 0 0 0];


internalField   nonuniform List<scalar> 
3019
(
789.3929467
145.7948109
72.17329341
48.42088966
38.99415669
34.62524641
32.28564868
31.37346418
30.84246566
30.64089315
30.53508513
30.48333052
490.461139
136.2201966
71.45464738
48.68650924
39.17791748
34.72955842
32.3204471
31.35983806
30.78872957
30.5714723
30.45472702
30.39734643
351.4819051
127.4153693
69.9054463
48.35461606
39.08934517
34.71893359
32.30895221
31.33072836
30.73423735
30.50477046
30.37784376
30.31571814
308.3897521
121.1186395
68.17957718
47.72252369
38.81489886
34.61569025
32.26217471
31.28593014
30.67269591
30.43486642
30.30112503
30.23495813
275.4224901
115.0473302
66.01363518
46.87485981
38.47991047
34.4719237
32.18606468
31.22721871
30.60585515
30.36299481
30.2230361
30.15341513
241.167833
108.1485283
63.53688949
45.97240059
38.12318812
34.29966289
32.08785854
31.15058988
30.52793135
30.28232376
30.13945604
30.06720333
212.2613234
101.7216918
61.45052313
45.19241927
37.7723692
34.11193503
31.97467136
31.06121745
30.44255327
30.19653501
30.05180698
29.978116
194.1406985
97.29090985
59.89484428
44.50143932
37.43810459
33.91867159
31.85153795
30.96144012
30.3475677
30.10177427
29.95621448
29.88186933
180.305462
93.5234392
58.63697985
43.8984915
37.12476811
33.72586589
31.72180809
30.85340564
30.24709577
30.00312908
29.85762215
29.78314423
168.8361504
90.24157596
57.57065103
43.3846853
36.83522305
33.53704641
31.58800129
30.73899685
30.13838561
29.89579597
29.75080206
29.67673953
159.1075642
87.34800358
56.62917272
42.94994353
36.57175277
33.35451518
31.4521525
30.61982386
30.02736541
29.78756277
29.64359796
29.57017872
150.7196008
84.7743857
55.78116482
42.57504914
36.33397052
33.17971621
31.31586204
30.49734704
29.90935525
29.67096967
29.52805397
29.45556734
143.4050572
82.47204452
55.01087113
42.24261762
36.1185175
33.01305485
31.18020469
30.37269084
29.79257231
29.55729342
29.41576833
29.34424387
136.9805563
80.40600744
54.30845409
41.94090244
35.92082717
32.85395991
31.04572065
30.2467792
29.66867904
29.43421827
29.29382495
29.22340759
131.3199891
78.54817344
53.66513423
41.66199782
35.7365833
32.70134402
30.91260165
30.12015517
29.54993676
29.3187389
29.17978426
29.11038547
126.3111011
76.86797112
53.07028376
41.39960199
35.56208938
32.55393673
30.78078326
29.99330949
29.42177067
29.19053899
29.05264688
28.98436501
121.8357241
75.33054087
52.51212043
41.1484013
35.39431588
32.41048343
30.65005167
29.86630598
29.30408109
29.07642338
28.93991435
28.87257788
117.7777915
73.90136741
51.97951917
40.90391339
35.23068821
32.26971998
30.5200583
29.73941215
29.17140471
28.94293978
28.80749945
28.74125898
114.0405026
72.55166089
51.46328441
40.66232939
35.06885488
32.13033668
30.39035863
29.61232601
29.0579017
28.83352563
28.69938686
28.63399207
110.5523439
71.26023055
50.95637475
40.42029178
34.90652714
31.99094711
30.26044834
29.48534142
28.91841367
28.69295448
28.56010795
28.49583693
107.2641973
70.01243563
50.45321181
40.17456647
34.74138377
31.8501087
30.12989578
29.35791864
28.81359845
28.59245585
28.46080428
28.39729845
104.1472163
68.79785757
49.9486215
39.92178354
34.5711547
31.70655711
29.99863705
29.2309925
28.66193783
28.44085062
28.31092238
28.24862378
101.1846073
67.60725862
49.43678779
39.65836738
34.3938181
31.55930059
29.86749678
29.10459436
28.57361106
28.35502602
28.22615924
28.16453945
98.37049723
66.43863741
48.91537516
39.38269317
34.20880457
31.40835465
29.73925855
28.98266466
28.37609336
28.15913393
28.03263082
27.97253338
965.3590319
824.1244305
176.8650428
605.5259305
945.9346017
512.0929654
172.5419795
174.97001
459.5161481
596.5471353
337.4586097
693.66203
712.4381824
626.1650481
298.93032
325.8833526
1352.087334
835.7995903
1488.351959
1132.417462
590.9002198
795.6941297
366.8529294
158.3266215
169.0990472
516.1289523
568.3601067
1063.399439
274.1331945
290.1607202
609.4037405
553.1567693
6142.802347
2258.282715
1280.004271
642.5321487
4775.214543
3481.933996
1138.33339
4921.810944
6011.916816
3440.504291
4688.922935
6376.147497
2230.572703
3088.598728
1525.858606
1984.329819
5735.988001
6345.516423
1987.526641
6087.391004
5306.414099
160.2287727
83.64039398
1087.318348
3151.218309
2271.650892
4517.008155
2880.051993
1461.327354
843.6683915
6158.866572
6487.241302
6621.58482
5515.364619
6324.599379
1183.466661
1401.976101
5879.291453
5384.801494
5950.678208
5509.356065
6254.379061
6209.081575
6075.465622
3864.958416
5393.132881
4938.989045
6026.980896
6229.604547
4272.421919
4560.229804
4994.984161
6283.129428
5168.19193
3795.424843
4111.685643
5909.283356
4548.882776
4799.710596
3693.258239
4141.275872
6082.960373
72.17746944
52.26445363
48.33749621
40.57747247
38.88306804
35.37486909
702.558989
462.7077397
498.9858796
138.9439498
82.03979102
83.43601753
71.60113676
52.56938308
52.35754509
48.68535757
40.88049406
40.70384969
39.15283613
35.5429957
35.42594359
445.7714748
244.6821798
268.0982257
129.3214326
79.94628066
81.77413102
70.29515891
52.25803904
52.54041921
48.48688874
40.85325619
40.91124608
39.13832876
35.56241744
35.55838723
483.900633
546.9911625
317.1677846
148.3242335
155.4131302
122.5858913
77.61240089
79.39043734
68.64861634
51.5245451
52.08925226
47.8900246
40.53749923
40.7873006
38.89151875
35.44688916
35.54065646
417.9022617
466.8753496
283.7780134
140.2911511
146.2880038
116.639095
74.94944475
76.99422343
66.59956142
50.52473091
51.30682234
47.10191502
40.13138972
40.44283502
38.56756903
35.27764272
35.40631498
349.7347019
401.1130133
249.595101
131.1265653
138.1520371
109.9210995
71.78713232
74.19418337
64.15550261
49.36016984
50.23837195
46.18722694
39.68606365
40.0191537
38.21246366
35.081261
35.23073256
289.9119167
333.302191
218.4520607
121.6584898
128.657222
103.1624357
68.8283239
70.98323253
61.89781376
48.33291617
49.0794389
45.37885938
39.25700263
39.57670052
37.85878767
34.86812639
35.0288575
252.9253417
278.4430054
198.0774587
114.8139628
119.603036
98.3239737
66.78002516
68.26505321
60.25146051
47.45718246
48.10224869
44.66602912
38.85444475
39.15363119
37.51982322
34.65056165
34.81379593
228.7194955
246.184116
183.5107145
109.4372563
113.3851519
94.41508932
65.12122462
66.33642084
58.92978214
46.70615529
47.25759692
44.04079233
38.4822122
38.75843478
37.20097999
34.43530996
34.59636987
210.0948047
223.6355748
171.5201005
104.828955
108.2206962
91.0223534
63.69734159
64.7470732
57.82369424
46.07730111
46.53789113
43.5050787
38.14288685
38.39415692
36.90522045
34.22619567
34.38235115
195.0831468
206.0556295
161.4009048
100.8157297
103.7749542
88.0390639
62.43430402
63.36811107
56.85491867
45.55055038
45.93713511
43.05222408
37.8389393
38.0635224
36.63513399
34.02588232
34.17521588
182.5924151
191.7532482
152.7068161
97.27868077
99.89021539
85.39066873
61.29825301
62.1391665
55.98539499
45.09690622
45.43129091
42.66420349
37.56928562
37.76844257
36.3911514
33.83605388
33.97740713
171.9733869
179.7804839
145.1441131
94.13598193
96.4583471
83.02425799
60.27011199
61.03157236
55.19673536
44.69395101
44.99202725
42.32246995
37.3287348
37.5066572
36.17053256
33.65708685
33.79031107
162.8118688
169.5571201
138.5104269
91.32998621
93.40446179
80.90186583
59.3368195
60.02822347
54.47813725
44.32821089
44.59936485
42.01391596
37.11074492
37.27234988
35.96882684
33.48809504
33.61395596
154.8543956
160.7170238
132.6693983
88.81876355
90.67579791
78.99466122
58.48737016
59.11695465
53.82095907
43.99127551
44.24151529
41.72994291
36.90951837
37.05905077
35.78159516
33.32754367
33.44722992
147.901066
153.028719
127.508518
86.56232252
88.23221838
77.27323594
57.70882743
58.28656428
53.21509735
43.67626158
43.91068248
41.46396021
36.72031568
36.86123371
35.60497567
33.17371405
33.28851812
141.7623754
146.2966929
122.9109724
84.51530134
86.0325455
75.70344714
56.98595806
57.52340097
52.6488492
43.37685356
43.60013057
41.21040594
36.53933537
36.67440555
35.43577322
33.02495584
33.13610214
136.2599329
140.3332199
118.7585837
82.63119597
84.03055502
74.2501834
56.30368448
56.81205489
52.11080354
43.0875123
43.30373243
40.96461825
36.3634967
36.49498246
35.27133368
32.87972246
32.98837118
131.2470631
134.9658147
114.9485961
80.86933334
82.18049187
72.88288683
55.64911985
56.13780336
51.59121379
42.803517
43.01613833
40.72263498
36.19010057
36.31999728
35.10926589
32.73646456
32.84377717
126.6162151
130.0578944
111.402912
79.19880234
80.44398314
71.5784763
55.0124587
55.48851705
51.08253939
42.5208867
42.73283299
40.48101443
36.0166218
36.14681296
34.94727865
32.59358799
32.70076509
122.2908754
125.5117217
108.0661358
77.59795628
78.79263664
70.32076564
54.38638785
54.85511221
50.57891057
42.23601379
42.44997174
40.23651502
35.84053479
35.97291832
34.78305472
32.44942715
32.55772185
118.2210024
121.2594701
104.9019064
76.05195416
77.20701504
69.09829022
53.76486424
54.23074762
50.0751647
41.9452708
42.16398144
39.98582838
35.65930599
35.79578102
34.61430325
32.30243093
32.41298741
114.3693217
117.2625099
101.8816869
74.54653392
75.67407251
67.89941735
53.14092495
53.60946911
49.56525977
41.64454557
41.87115725
39.72532145
35.47046743
35.6128707
34.43888149
32.15129167
32.26505951
110.6834798
113.498445
98.96383816
73.05758653
74.18337785
66.70413386
52.50323495
52.98475124
49.03981265
41.32862404
41.56743601
39.45072835
35.27171092
35.42182931
34.25492586
31.99508933
32.11274374
106.8882202
109.9533494
95.92782543
71.46416954
72.7331342
65.41310129
51.79648316
52.35418142
48.45310038
40.97056282
41.25094758
39.13909412
35.04795057
35.2218478
34.04898607
31.82347089
31.95600127
1007.846073
1199.032544
1142.329947
700.0877716
726.1567416
869.6436247
183.3515494
301.4079809
274.8388222
634.2454504
1122.683797
2020.487293
1482.393524
928.3980994
402.2759334
417.6111153
559.5289609
167.7314253
243.1057926
233.2999247
266.8018239
248.9100978
169.0268642
533.4713915
600.8353377
349.5693686
482.004104
446.6290667
498.6976601
333.792091
1762.780126
1258.456989
815.228278
784.1395443
673.0729781
737.0041362
898.5816412
852.0895311
415.8620842
453.5714565
678.8774561
306.0930637
374.0657809
363.677072
430.1234268
389.8004844
316.336963
2022.5149
1791.093306
1270.971961
3261.106017
3497.932847
4948.407681
871.6904477
1373.015126
1173.772597
1613.759687
2625.702493
2314.525924
826.5327363
870.5685984
1353.028383
611.7753647
723.2241803
695.8824255
755.3939676
637.005247
1008.430094
937.8191816
764.8463901
2731.646618
2961.755451
1141.419334
1142.975591
257.4723963
266.8223023
425.4461324
161.5946211
200.9061793
195.8918883
227.2269446
206.6438616
165.2203614
530.8740581
621.7738418
601.6314047
668.7122913
645.2233355
550.8145481
920.2460471
757.4811245
790.9876356
277.390327
334.2962355
328.3376244
351.451307
343.6343179
285.2388557
575.8691765
423.7049852
442.5745165
574.8817901
800.6035581
767.7735864
2562.702367
4126.450285
3672.165895
1002.676565
1044.445053
905.2369302
934.2481338
1352.751547
660.7950405
754.0670296
736.9560893
4332.573366
2887.548004
3264.75463
2256.028561
2549.790299
3846.95088
1190.475069
1607.171831
1468.386468
2470.383249
3590.353552
3262.772124
4428.762869
4006.938364
2767.418254
1640.480855
2468.750304
2268.65707
2950.558656
2699.377183
1825.319288
3269.257865
2956.027067
1792.603026
119.462414
120.7207559
161.98949
83.90251947
99.04813587
98.29975429
1364.45734
1276.207296
1040.436706
2875.285296
1816.940358
2016.702966
1497.20509
1625.298997
2550.744298
1120.822298
1173.684727
1600.307833
885.2507425
975.8737438
971.6816902
1029.694745
900.7495106
2294.811724
2470.362031
1247.985693
1705.617534
1569.02438
2054.616423
1866.671708
1336.924482
34.5858066
33.0294191
32.25351844
31.731243
31.37576185
31.1369861
756.1801977
652.9609534
674.5704831
143.5382124
116.3833548
117.6961616
71.98149477
63.75806558
63.78203921
48.60488413
45.43321458
45.30214745
39.04520921
37.62842819
37.57173919
34.71903102
33.12252545
33.08766776
32.30783989
31.75250853
31.74368173
31.3697259
31.1090658
31.12585611
475.3828779
376.0283928
388.6048702
133.7079798
110.6288604
112.1930059
71.11724917
63.3618613
63.50509822
48.64828348
45.52170881
45.54871615
39.17977541
37.74023433
37.73655114
34.73176379
33.14158621
33.1426098
32.31818903
31.74611095
31.75150922
31.3506517
31.07406547
31.09434455
338.1518084
243.0186307
249.6394326
125.6879414
105.5323553
106.689783
69.52450256
62.23394516
62.51848016
48.21119694
45.20492902
45.32070213
39.02914678
37.63601693
37.68109079
34.64610833
33.10618931
33.13016563
32.29289428
31.71714682
31.73395317
31.31496604
31.0292034
31.05363123
300.1009726
223.9645541
228.2485128
119.65642
101.2215149
102.3071924
67.68338935
60.84798312
61.23520373
47.53046673
44.65258845
44.79960875
38.7339123
37.40183558
37.46588471
34.50969746
33.02091996
33.06834174
32.22743446
31.66382271
31.68990083
31.26366762
30.97423058
31.00341739
266.8725016
205.6116342
210.4858586
113.3920481
96.41001659
97.68816761
65.40518798
59.06698646
59.54100784
46.64373622
43.94777634
44.12979832
38.39118838
37.12790625
37.19938481
34.34516899
32.91159698
32.96880165
32.13925102
31.58853954
31.62794496
31.1936318
30.90666571
30.94247215
233.042663
185.3350867
190.3409084
106.4087361
91.15177793
92.44537839
62.94625472
57.17554042
57.62835413
45.76870595
43.26138557
43.42507211
38.03433556
36.83450768
36.90835542
34.15994122
32.78247659
32.84909583
32.03279686
31.49673243
31.54397129
31.10968769
30.82669024
30.86819822
206.7357552
168.3468882
171.9783231
100.5196112
86.91011167
87.77449973
61.02782428
55.68084086
56.02247448
45.01148969
42.64598642
42.79396753
37.68700641
36.54161508
36.61416866
33.96721134
32.64081548
32.71277558
31.91411883
31.39237753
31.44555276
31.01426165
30.73631962
30.78286196
190.4120332
157.0916953
159.6951606
96.29650273
83.8130021
84.543272
59.55686756
54.47543311
54.75346561
44.34229727
42.09262347
42.22517761
37.35768289
36.25858245
36.32813761
33.77383131
32.49260611
32.56726108
31.78733434
31.27888812
31.33634203
30.90965149
30.63681727
30.68779638
177.2445636
147.7802732
149.9595238
92.66158822
81.13064053
81.7685264
58.35577971
53.49562226
53.72300455
43.76178748
41.60222496
41.71874455
37.05002085
35.9897949
36.05550037
33.58375008
32.34152376
32.41725319
31.65527947
31.15894504
31.21940908
30.79784844
30.52991278
30.58439968
166.2586837
139.885003
141.7467193
89.48467293
78.7675516
79.33203285
57.32515647
52.67439419
52.86835887
43.26925236
41.17712573
41.27737944
36.76685575
35.73815779
35.7993257
33.39947297
32.19004174
32.26570633
31.520223
31.03458978
31.09708761
30.68059421
30.41688311
30.47432564
156.8963803
133.0715458
134.6873204
86.67662994
76.66483518
77.16858225
56.40912966
51.95633265
52.12816746
42.85136024
40.81235636
40.89851508
36.50998116
35.50572822
35.56199267
33.22265573
32.04001314
32.11475193
31.38398255
30.90744997
30.97119231
30.55940076
30.29949286
30.35892304
148.7982014
127.1146618
128.5330349
84.17477773
74.78145679
75.23354188
55.58169334
51.31144315
51.46677747
42.48849002
40.49546238
40.57094776
36.27817798
35.29252207
35.34411227
33.05397619
31.89268351
31.9659624
31.24790902
30.77882493
30.84319808
30.43556508
30.17859334
30.23973167
141.7205674
121.8605001
123.1146343
81.93438269
73.08750804
73.49456276
54.82918221
50.72483972
50.86655315
42.16464173
40.21358305
40.28135697
36.06759943
35.09638415
35.1439876
32.89307039
31.74857639
31.82022144
31.11279622
30.64961344
30.71421044
30.31008366
30.05578344
30.11769816
135.4976902
117.204551
118.3169019
79.92300554
71.56061374
71.92776067
54.14241346
50.18777976
50.31780683
41.8692819
39.95703743
40.01921211
35.87365221
34.91414556
34.95857966
32.73894526
31.60766281
31.67773588
30.9789883
30.52038574
30.58494869
30.18368484
29.93112418
29.99400449
130.0107882
113.0694939
114.0585591
78.11266686
70.18029748
70.51289792
53.51229001
49.69251131
49.81288039
41.59505572
39.71882095
39.77697884
35.6921656
34.74263754
34.78467114
32.59035291
31.46960351
31.5383073
30.84653432
30.39144152
30.45585037
30.05685495
29.8061664
29.8690033
125.1466267
109.3781066
110.2639352
76.47153524
68.92231029
69.22680027
52.92772174
49.23017758
49.3431773
41.33592149
39.49340467
39.54881631
35.51961278
34.57902869
34.61932707
32.44602139
31.33389302
31.40149485
30.71528716
30.26289667
30.32711507
29.92987368
29.67998069
29.74359299
120.7859066
106.0463474
106.8502456
74.96424584
67.75990734
68.04299776
52.376928
48.79169292
48.89955097
41.08678781
39.27633004
39.33002939
35.35310334
34.42091087
34.46004619
32.30470256
31.19991824
31.26674315
30.58495638
30.13468826
30.19877027
29.80287345
29.55453879
29.61752197
116.8160591
102.993693
103.7347371
73.55732096
66.66803294
66.93561592
51.84918178
48.36887545
48.47351124
40.84335538
39.06388932
39.11675016
35.19013619
34.26612421
34.30462426
32.16509907
31.06693615
31.13338573
30.45511269
30.00664285
30.07071615
29.67582065
29.42759311
29.49167802
113.1465034
100.1545607
100.8474794
72.2239107
65.62668405
65.88318086
51.33587701
47.95508013
48.05799496
40.60196702
38.85287741
38.90566166
35.02839763
34.11261275
34.15098425
32.02584607
30.9340957
31.00064581
30.32521912
29.87844254
29.94273606
29.54862926
29.30231386
29.3652028
109.7109713
97.48050393
98.13616186
70.94451257
64.62132008
64.86992458
50.83038867
47.54499322
47.64742203
40.35931123
38.64030217
38.6937526
34.86558344
33.95828962
33.99706079
31.88549313
30.80046901
30.86769987
30.19460285
29.74969478
29.81459443
29.42101404
29.17433501
29.23936291
106.4640546
94.93833871
95.56473063
69.70571053
63.64162251
63.88468453
50.32735775
47.13405283
47.23711583
40.11214619
38.42318176
38.47805343
34.69937534
33.80105899
33.84074872
31.74272443
30.66503397
30.73382062
30.06248229
29.6198025
29.68606945
29.29266121
29.04919364
29.11258047
103.3756998
92.50489859
93.11093121
68.49674631
62.6788107
62.91896327
49.8213996
46.71750111
46.82250219
39.8570214
38.19839849
38.25549215
34.52753513
33.63895553
33.68003591
31.59644563
30.52647206
30.59857233
29.92783305
29.4879925
29.55731113
29.16278338
28.91851853
28.98732343
100.4136457
90.15391241
90.76059251
67.30332282
61.72098922
61.96451235
49.30539061
46.28925908
46.39840317
39.59013813
37.96271025
38.02293758
34.34809908
33.47034371
33.51320754
31.44592255
30.38242418
30.46261506
29.78884964
29.35255263
29.42915397
29.02987454
28.79132202
28.86163143
97.51958781
87.83426831
88.51070215
66.09249366
60.74022593
61.01908679
48.7629649
45.83574607
45.96263476
39.30440014
37.71039679
37.7790397
34.15798424
33.29268243
33.33990687
31.28141161
30.22153896
30.32984777
29.63425007
29.20250684
29.30439527
28.8827268
28.64072943
28.74215587
178.725849
202.1479653
199.4439141
620.710166
708.3216695
694.9122039
1072.913613
1057.70204
893.8105553
196.3137097
194.0913511
172.7570503
397.1547924
353.1534746
551.1027069
563.5015324
640.4481666
957.9432792
998.3450927
1188.584838
1640.015877
1745.552247
1048.719761
890.0916844
938.6949934
598.2443923
528.0585939
539.3768301
1413.294904
1507.058382
63.64735294
63.58162316
72.20460447
52.03646923
57.06207463
57.23237232
45.18923358
44.97231094
48.09070761
40.44132887
42.47857007
42.64720696
37.4884842
37.38201405
38.76799429
35.29526757
36.23743506
36.33136353
613.5189855
631.3657368
727.0298997
474.3658113
546.0350591
532.2746298
581.2098791
563.9328667
486.2471081
113.7623328
114.6843493
140.5037844
82.66501299
96.2038679
95.4420132
97.66778442
96.85741292
82.92450685
63.65606892
63.73366185
71.86526994
52.54117075
57.45879681
57.45030956
57.36147967
57.46404647
52.52868355
45.53483555
45.50575855
48.63950053
40.85806572
42.95164555
42.97787155
42.77746712
42.86061452
40.76333399
37.71765102
37.68472513
39.12712366
35.51041286
36.49205504
36.52636727
36.39525147
36.4518366
35.47793569
354.8583534
365.7988485
455.2545387
317.3671041
311.907343
261.8277125
107.9332695
109.2363593
131.4407726
80.54861771
92.86342153
92.04128534
94.72589507
93.78752295
81.17796928
62.8059698
63.09202821
70.70174248
52.41505754
57.14481309
56.93462125
57.34769989
57.31102288
52.51769037
45.42576262
45.50344251
48.59801467
40.8955453
42.97675173
42.92004489
43.00036468
42.99083238
40.90647374
37.71790709
37.73025264
39.16510696
35.56570885
36.54842682
36.54062828
36.54403533
36.55150533
35.56815753
502.4256853
523.3891026
232.6711537
237.482245
326.8879757
150.4799808
184.3564076
181.4502935
191.4683783
187.6509162
152.8209477
103.3697957
104.4355122
124.0939764
78.21215188
89.63688432
88.85576495
91.2244631
90.42070126
78.80448743
61.59807059
61.93919459
69.09550374
51.71971271
56.26255647
56.01363303
56.71801317
56.49197003
51.91121285
44.94182153
45.07785788
48.05685563
40.62759095
42.63824027
42.52768799
42.83646925
42.74276746
40.71125556
37.5275341
37.58432783
38.96347901
35.48138897
36.43879782
36.39398287
36.51408762
36.47971075
35.51507218
434.3443699
450.5301477
215.1630252
219.6373686
291.9751891
142.3292174
173.560687
170.81106
178.7748747
176.1890339
144.3119886
98.91760821
100.0955994
118.1701128
75.66776393
86.36943956
85.45503183
88.0605553
87.23541061
76.3483445
59.99882898
60.43556505
67.1568381
50.80009239
55.09273131
54.74677055
55.72722661
55.42011954
51.061474
44.30983755
44.48480934
47.32142761
40.24188477
42.16011031
42.02054654
42.40987371
42.28887855
40.34097172
37.269535
37.33463344
38.65170648
35.32123
36.23924212
36.18550294
36.34459038
36.29354592
35.36603625
366.7974357
383.9920112
195.4560247
200.5754224
258.2350538
133.5493346
161.5176005
158.1556203
167.8833757
164.7832435
135.9068474
93.76769125
95.09870516
111.6751293
72.60084663
82.46252838
81.42018251
84.49423566
83.49124043
73.4081802
58.10096335
58.58423929
64.78143712
49.65050994
53.63697317
53.2626877
54.38551754
54.01358474
49.94541741
43.59260368
43.76734193
46.41307251
39.79642702
41.59390797
41.45681523
41.87785754
41.73469243
39.90742205
36.98205343
37.05535071
38.3019145
35.13239102
36.01113977
35.95035967
36.1289587
36.0707846
35.18251434
303.180611
317.5744982
176.0555867
180.5444004
225.4737074
123.8555486
148.0878402
145.0266184
154.7360949
151.3683847
126.2298853
88.78514383
89.92520145
104.7213105
69.48457758
78.46332977
77.59799516
80.39362005
79.39377702
70.20928262
56.38069203
56.75738726
62.38875265
48.57146677
52.23913053
51.94077418
52.89913865
52.55390604
48.81827305
42.94585365
43.10164278
45.57091393
39.36202652
41.0592544
40.93182225
41.32184288
41.18928955
39.46864487
36.68725249
36.76075413
37.94615533
34.9221559
35.76417138
35.70153936
35.88877149
35.82662259
34.97585498
260.2420411
268.2750182
162.4276904
165.3009377
202.2484833
116.3055122
137.5856934
135.5512354
142.1881353
139.7226143
117.868399
85.30106544
86.08892108
99.3989322
67.2471587
75.58069803
74.98486941
76.86460601
76.2055802
67.74116567
55.04665583
55.35563642
60.62861673
47.66447408
51.11366707
50.86035073
51.65382615
51.37817033
47.8795154
42.36160091
42.50186737
44.83605558
38.9523251
40.56562542
40.44896416
40.80704928
40.68499232
39.05207454
36.39852623
36.46971457
37.60281109
34.7049426
35.51436252
35.45251259
35.63896737
35.57651282
34.75936601
234.1405201
239.9464008
152.2326605
154.6072549
186.8754048
110.7009469
129.9580632
128.2440839
133.6059447
131.7436564
112.0158858
82.42726349
83.10823609
95.33882812
65.50948093
73.33958267
72.83039293
74.41462214
73.86703978
65.91387521
53.96130228
54.21172035
59.23584927
46.88210769
50.16740418
49.95803301
50.61827167
50.38737441
47.06593484
41.83934598
41.96398985
44.18874465
38.57229513
40.11549395
40.00992855
40.33504218
40.22388252
38.66438964
36.12221962
36.1899329
37.27863505
34.48869271
35.26988813
35.2101088
35.39114129
35.33022485
34.54236941
214.353155
218.8589107
143.6797723
145.689102
174.3204872
105.9193899
123.48765
122.0172619
126.5972079
125.0130748
107.0492597
79.91344294
80.51264506
91.82860772
64.03628028
71.39904117
70.95035877
72.33806358
71.86130782
64.38590157
53.06931602
53.27808294
58.08510961
46.22383185
49.38820358
49.21533665
49.75881265
49.56910941
46.37724354
41.38158494
41.48984493
43.63071629
38.22445739
39.71082044
39.61711624
39.907263
39.80754409
38.30823098
35.86167272
35.92517794
36.97683389
34.27775463
35.03489782
34.97796071
35.1510138
35.0925754
34.32979263
198.5669668
202.2204541
136.359166
138.0904896
163.7832114
101.7703783
117.9061034
116.6262032
120.598861
119.2295266
102.7563797
77.68652326
78.21927577
88.7510079
62.73716792
69.67947918
69.27881449
70.51464625
70.09125952
63.04832717
52.30483539
52.48674153
57.08678226
45.67427904
48.73797877
48.59036559
49.04981793
48.89093586
45.80299375
40.98788507
41.08068464
43.15855222
37.91157917
39.35416174
39.27236085
39.52646207
39.43883562
37.98643622
35.619481
35.67820617
36.7001649
34.07503562
34.81220149
34.75868573
34.92186204
34.86658881
34.12480387
185.5178939
188.5696915
129.997013
131.508905
154.7647399
98.12311528
113.0268898
111.9005406
115.387795
114.1888408
98.99344584
75.69780699
76.17470306
86.02452565
61.57150096
68.13965958
67.77942432
68.8889344
68.50940941
61.85177006
51.62589022
51.78898114
56.19463745
45.20484912
48.17503346
48.04441821
48.44763727
48.30934391
45.31621949
40.64878629
40.72917798
42.75621437
37.63371423
39.04312019
38.97159955
39.19334793
39.11699239
37.70007788
35.39681458
35.45067375
36.44979872
33.88248953
34.60367083
34.55381392
34.70610242
34.65442661
33.92959923
174.4785554
177.0797739
124.4072981
125.7400351
146.941289
94.88808489
108.7199955
107.7211282
110.8082698
109.7486631
95.66206552
73.91234117
74.34117023
83.59170217
60.51778341
66.75292216
66.42769778
67.42845066
67.08642471
60.77157141
51.01147213
51.15971642
55.38696332
44.79078636
47.6723744
47.55422416
47.91726397
47.79333317
44.89009138
40.35083009
40.42214321
42.4043697
37.38650219
38.76967499
38.7060615
38.9022905
38.83503895
37.44577817
35.19250918
35.24200365
36.22372742
33.70084832
34.40957142
34.36315424
34.50486959
34.45679424
33.74524152
164.9807128
167.2285428
119.4628408
120.643699
140.0902427
92.00232172
104.8938721
104.0043576
106.751177
105.8091812
92.69370676
72.30439766
72.69089035
81.4112545
59.56183558
65.49990805
65.20565666
66.11063143
65.80148569
59.79226654
50.45057317
50.58621476
54.65168081
44.41665946
47.21549554
47.10733699
47.43879196
47.32593977
44.50700786
40.08262145
40.14737634
42.08846068
37.16346402
38.52456481
38.46676081
38.64409091
38.58363768
37.21730355
35.0037284
35.04964926
36.01773124
33.52949421
34.22852008
34.18503152
34.31753793
34.27267075
33.57142991
156.7418064
158.6955519
115.076585
116.1248256
134.0616443
89.42096644
101.4844505
100.6908898
103.1402401
102.3006382
90.03987617
70.85354962
71.2026492
79.45280235
58.69250572
64.3653916
64.09843329
64.91869059
64.63872476
58.90232144
49.93545074
50.06036397
53.97999376
44.07318684
46.79582692
46.69585249
47.00143286
46.89764991
44.15657123
39.83600995
39.89599687
41.79900305
36.95852644
38.30016448
38.24657022
38.41016359
38.35466828
37.00834895
34.82723662
34.8703789
35.82726457
33.36698874
34.05831702
34.01717898
34.14220218
34.09997623
33.40686793
149.5554188
151.2640623
111.1735933
112.1082765
128.7413023
87.10486809
98.43828022
97.72669771
99.91931748
99.16884628
87.66134946
69.53769681
69.85536054
77.68795407
57.89760442
63.33340902
63.08917083
63.83767586
63.58280721
58.09012308
49.45781141
49.57419607
53.36236265
43.75330675
46.40609695
46.31244094
46.59766348
46.50113318
43.83142019
39.60481477
39.66145366
41.52907875
36.76670694
38.09059543
38.03993967
38.1938321
38.1418713
36.81366256
34.6600061
34.70109414
35.64831556
33.21163694
33.89664273
33.85729013
33.97654937
33.93638257
33.24988957
143.2306808
144.7414224
107.6726099
108.5147871
124.0142383
85.00994342
95.69680155
95.05161957
97.03321874
96.35702217
85.51553135
68.33082569
68.62378147
76.08361887
57.16228096
62.38461015
62.15796137
62.84983932
62.61513569
57.34137057
49.00849702
49.11865525
52.78732347
43.45054948
46.03883753
45.94966736
46.22008996
46.12894442
43.52495248
39.38406939
39.4385048
41.27288658
36.58398199
37.8911966
37.84247297
37.98986155
37.94030886
36.62899178
34.49942121
34.53906946
35.47752365
33.06175784
33.74133676
33.70326872
33.81831043
33.77967231
33.09879192
137.5846779
138.9416458
104.4897094
105.2599154
119.7611216
83.08926534
93.19776965
92.60390922
94.42068684
93.80309257
83.55558902
67.20656024
67.48120242
74.60435033
56.47118074
61.49873372
61.28485758
61.93497561
61.71535715
56.64059269
48.57878227
48.68480031
52.24322452
43.15916669
45.68701021
45.60070052
45.86138162
45.77387573
43.23122187
39.16973993
39.22291272
41.02555338
36.40712163
37.69825442
37.65063885
37.79411356
37.7460645
36.45093836
34.34323084
34.38198073
35.31212417
32.91578761
33.59047739
33.55323437
33.66546061
33.62787509
32.95198927
132.4615374
133.6998279
101.5509058
102.2661775
115.8740269
81.30013657
90.88431455
90.32931127
92.02090273
91.44792953
81.73708346
66.14208114
66.40361002
73.21802464
55.81072436
60.65774305
60.45274128
61.07356994
60.86461688
55.97358368
48.16120919
48.26480116
51.71980878
42.87423097
45.34450461
45.25970367
45.51491199
45.42954796
42.94508745
38.95839306
39.01111626
40.78295576
36.23335399
37.50863488
37.46140271
37.60320071
37.55588528
36.27663994
34.18933742
34.22770467
35.14967823
32.77218039
33.44223961
33.40537044
33.51613896
33.47915023
32.80793571
127.7446829
128.8892211
98.7993169
99.47239207
112.2687942
79.60917805
88.71168799
88.18629684
89.78261574
89.24354219
80.02416703
65.12022888
65.3724241
71.89967294
55.17035824
59.84767854
59.64869102