/*--------------------------------*- C++ -*----------------------------------*\
| =========                 |                                                 |
| \\      /  F ield         | OpenFOAM: The Open Source CFD Toolbox           |
|  \\    /   O peration     | Version:  v2012                                 |
|   \\  /    A nd           | Website:  www.openfoam.com                      |
|    \\/     M anipulation  |                                                 |
\*---------------------------------------------------------------------------*/
FoamFile
{
    version     2.0;
    format      ascii;
    class       volScalarField;
    location    "1.35";
    object      p;
}
// * * * * * * * * * * * * * * * * * * * * * * * * * * * * * * * * * * * * * //

dimensions      [0 2 -2 0 0 0 0];


internalField   nonuniform List<scalar> 
3259
(
633.0705724
636.5241143
643.6678354
653.8742303
677.0050788
697.1966798
722.6004572
762.0225297
808.7595165
863.9498904
929.5728576
1035.598123
597.0940203
599.5036948
604.651901
611.6899707
630.9757515
644.5399097
659.861642
687.2834555
712.8592545
737.4962414
759.1732751
816.9634611
558.643946
559.927227
562.76383
566.3679208
581.9276488
588.1021679
593.7999866
607.8917137
612.2324633
605.5104848
574.6766365
484.1428009
518.6738709
518.8971527
519.4767983
519.8236846
531.6549185
531.3934661
528.6680914
531.1262981
518.6228857
489.9181342
431.0426203
316.6889175
478.1319096
477.4513882
476.0915622
473.6564132
481.9665731
476.370596
466.9401478
460.4624335
436.3904916
395.9966985
330.4351543
229.309891
437.8786353
436.4705491
433.5492541
428.9082357
434.1037627
424.4773485
410.1762729
397.7098323
367.3831849
322.9600078
260.2842876
177.7089904
398.6082148
396.6462428
392.5346666
386.2633367
388.9621095
376.566775
359.1920382
343.1224615
310.3281424
266.0871098
209.1378022
141.0700738
360.8497562
358.5036499
353.5635908
346.201469
347.0235096
332.9673317
313.905709
296.2280241
263.3206872
221.3418916
170.4319858
111.9577309
324.9815112
322.4074533
316.9713033
308.9855206
308.5046386
293.6723501
273.993787
256.0573984
224.4423233
185.7414806
140.6853142
90.20705277
291.2458721
288.5747726
282.9259811
274.7046051
273.3755069
258.450751
239.0074874
221.5896441
192.0365918
156.9601197
117.3054432
73.82779218
259.7630772
257.0974413
251.4603183
243.3134234
241.477781
226.9662726
208.3465918
191.8922704
164.7783068
133.3442952
98.54860815
61.01583166
230.553181
227.9700774
222.5107582
214.6677618
212.598436
198.839725
181.4646622
166.1707309
141.6324165
113.6980716
83.23692605
50.77348396
203.5622722
201.1176315
195.9536485
188.5733168
186.4776168
173.6876256
157.7460941
143.7804859
121.7992814
97.14268532
70.54387767
42.44853932
178.684734
176.4171965
171.6281418
164.8139527
162.8448876
151.1499516
136.7237681
124.164412
104.6481322
83.01786494
59.8697047
35.60056117
155.7771755
153.7115905
149.3480913
143.1623425
141.4338621
130.8942481
118.0024121
106.8619752
89.68127
70.82536565
50.77388584
29.91175629
134.6702137
132.8209142
128.9118557
123.3871345
121.9818163
112.614548
101.235463
91.48858712
76.50064563
60.18430776
42.92785144
25.13274597
115.1797665
113.5535921
110.1122724
105.2603273
104.2404113
96.03550947
86.13041712
77.72198332
64.78838612
50.8037985
36.08768294
21.055886
97.11462226
95.7132236
92.7423019
88.56097107
87.97395796
80.90495637
72.45470255
65.29103946
54.28588371
42.45409264
30.06420205
17.51203284
80.27619276
79.09872177
76.5947652
73.07052997
72.96752871
66.99155053
59.94756083
53.9757217
44.77926392
34.94488764
24.69780185
14.3760037
64.4858679
63.52807955
61.48434825
58.60106786
59.00474741
54.08299943
48.36987634
43.58824423
36.08466081
28.1117731
19.84918232
11.55797173
49.48917581
48.75367596
47.16837917
44.90220851
45.92329968
41.98358054
37.47590388
33.94187761
28.03417171
21.80890772
15.39908043
8.983804751
35.32738348
34.79385465
33.65450192
32.03591416
33.35097818
30.5114905
27.19253003
24.8564957
20.47671875
15.90793777
11.2442561
6.587091198
20.98904328
20.72396507
20.04562639
19.06858158
21.34858422
19.50394964
17.32639872
16.1847812
13.28030074
10.29490515
7.289698989
4.302953338
9.877117775
9.649136617
9.309255378
8.78493795
9.595059744
8.693514764
7.63406943
7.790230758
6.33188148
4.8708244
3.440109772
2.053093074
1046.548375
845.8701446
967.1247544
1038.450667
803.3652671
841.2851723
1018.410605
958.1868084
1031.93886
1108.501336
551.2069725
1113.437411
1118.799355
1028.624665
1027.028722
944.6987863
1033.471625
923.2717959
1113.894357
1037.523438
-340.1967727
1069.337354
1031.670405
997.2907519
1072.822032
1042.340039
1073.863286
1141.780572
1110.498587
1082.403522
1119.708528
1147.496683
1151.915605
1145.714766
984.4390901
944.1162806
943.290451
961.9128668
461.8404097
157.3144383
1080.182919
-329.4666282
112.2740153
-245.0277066
1076.369621
-276.6493195
79.6153344
618.3213393
578.6712323
805.9742378
692.822679
706.0155571
962.3975807
1047.693909
1030.911544
1013.047377
866.3566939
620.8944934
1173.663755
1122.789387
825.1142579
931.2263725
890.7884751
1006.638285
984.2230362
1004.537844
123.9036188
1013.868945
427.2703386
681.8840193
497.9737796
605.3674438
1094.744936
1054.642262
1052.390848
1036.69991
1049.69208
1085.519265
1072.227519
1057.957148
1169.515248
1129.414718
992.8866013
975.6072708
952.7511647
625.5108001
527.7793099
1004.433459
241.499237
401.6081746
294.0424705
1088.086871
-484.7913843
-44.29953564
184.0735441
-90.67310813
1049.261251
1092.0726
1077.716441
1091.320062
1121.702957
1109.831034
1097.169006
1123.891435
1129.94076
1122.695906
1028.516407
1109.081643
1115.840265
1119.36759
1039.349411
1128.624327
1114.78619
1126.225621
1163.519633
1147.50499
1133.913924
1156.061807
1163.79357
1158.392348
1140.021615
1143.725869
1149.291461
947.6427161
953.3437162
944.4670366
694.6581474
957.5132656
336.7761831
470.6266762
597.1865227
1086.332245
1086.781395
1082.56827
-393.3214297
-237.9231927
-213.3999519
-228.0993608
1070.527338
1077.362516
1083.319036
-124.0508718
1186.956523
1185.885017
1125.373717
1123.203207
1130.437373
1120.881497
942.4398005
987.8676461
1123.279733
1013.623238
1005.231187
996.1330933
1022.603759
368.4552512
351.0410016
1098.953603
971.9845236
731.7918807
1096.378368
1108.033905
1102.738162
1046.851733
1168.881927
1159.224993
1183.744046
1178.13565
1134.37771
1138.261471
1134.361303
1141.095087
1137.374211
1151.715265
1146.186856
984.973357
972.875799
980.0841753
580.1877302
599.5113842
665.2694773
536.2330532
544.2843924
525.1908663
994.0523425
339.192576
285.6057365
217.0193477
1084.510013
1086.303153
1088.20503
-461.2145515
48.87113588
-11.78087819
165.2186632
151.1929384
164.9421404
-32.1982913
-166.4604242
-147.7903205
-45.19238979
1060.516081
1072.275392
1065.235708
779.8668854
817.7485515
831.7195287
877.2853283
893.6740636
947.0601016
705.9150247
728.6595147
796.2007974
736.6197065
760.9090715
849.3952836
769.0688029
794.8810838
911.6462445
889.7611402
903.2197279
966.3109101
1005.004924
1032.464702
1063.322461
627.5677583
635.0195404
706.3860397
636.8763334
638.3661226
731.6042352
637.3637691
625.945556
754.4492843
711.7850045
712.1746646
781.5028457
775.2593221
774.0174611
852.423312
549.8235374
544.223595
611.7851796
541.0709297
524.9151995
608.7670979
516.6856415
479.8306227
585.9022598
462.3694192
389.7467868
516.0390524
348.4185692
477.4073178
462.3150784
522.767005
455.7087076
429.1797483
499.3127737
417.5030266
371.4365173
449.5018573
352.1841309
283.1364635
357.2437829
246.5998852
412.6176936
391.8951852
443.6027993
383.44151
352.1945556
408.1307293
339.4990978
293.6395843
349.4661476
275.6782815
215.4521038
263.7539016
188.7888206
356.0095109
332.7112331
376.094786
323.5746045
291.4542651
335.6609915
279.0499145
236.5208986
277.7739604
220.5876112
168.3277223
202.1293418
149.3404721
307.2685933
283.3541597
319.5116221
274.2387348
243.1824974
278.331031
231.5607762
193.0731357
224.5470723
179.1411865
133.403275
158.6109206
118.5394427
265.5144886
242.196203
272.3600463
233.4960508
204.5262475
232.721031
193.9248864
159.6110493
183.9028359
147.4397725
107.7819088
126.2721064
95.0280343
229.7124429
207.6929902
233.0018058
199.6088539
173.1425617
196.0750026
163.6156123
133.2851075
152.4489637
122.6606517
88.4157886
102.4582319
77.53780531
198.9035565
178.5520039
199.9499595
171.1713809
147.315085
166.2208116
138.8356723
112.157544
127.5765463
102.8760143
73.2851445
84.2921391
63.94630522
172.2538014
153.7342864
171.9776817
147.0802253
125.7835325
141.5706581
118.289741
94.89579794
107.5216327
86.79155054
61.19850608
70.01378203
53.13323227
149.0880503
132.4260164
148.1061632
126.4839896
107.6170965
120.9572973
101.0310034
80.57152294
91.06911648
73.50757639
51.36981429
58.55440678
44.37677463
128.8259355
113.9767238
127.5680888
108.71349
92.11104903
103.5147279
86.35064058
68.51561399
77.36672645
62.37511486
43.25539262
49.19767483
37.19288991
110.9849575
97.86740056
109.7480231
93.24146834
78.72755681
88.58431504
73.71488559
58.23538767
65.79541714
52.91949961
36.4725639
41.44729222
31.239778
95.16283444
83.67948936
94.15475706
79.64715552
67.05127272
75.66237394
62.71652214
49.36130299
55.89721046
44.78681378
30.73548031
34.94991093
26.25428386
81.02271486
71.07437775
80.39127431
67.59383925
56.76122405
64.3593655
53.04414932
41.61719036
47.32825069
37.71423025
25.81908487
29.43707711
22.01930123
68.28090658
59.77684503
68.13705264
56.81037071
47.60603316
54.37473688
44.45578458
34.79308635
39.83223471
31.50253221
21.54292546
24.69592225
18.3557278
56.7068737
49.55960007
57.12934021
47.07292191
39.37926972
45.46963697
36.75268977
28.71498288
33.20986282
25.98575731
17.76369526
20.55639295
15.12703911
46.10464992
40.22981535
47.15100222
38.19155466
31.90506683
37.44658397
29.76494085
23.23207253
27.29394124
21.01963765
14.37365307
16.88339713
12.23687389
36.29242616
31.61219284
38.01536069
29.99499892
25.02730744
30.13543936
23.34215983
18.21274071
21.93850249
16.48006141
11.28448777
13.57631523
9.608177172
27.08093906
23.54425908
29.54950946
22.32738104
18.60784754
23.38453583
17.35198132
13.54328409
17.01673545
12.26058184
8.419425389
10.5500774
7.173108503
18.3193972
15.8847993
21.59623874
15.05200313
12.52432217
17.05990887
11.67679374
9.121193218
12.41837732
8.264601093
5.705719004
7.729703077
4.867115624
9.871365578
8.511566196
14.01902644
8.052075419
6.672446553
11.04324971
6.214868728
4.850661076
8.043036724
4.399220419
3.066462848
5.042254054
2.621112477
1.914431211
1.58702594
6.69863355
1.484474358
1.171190502
5.233905233
1.062951821
0.7308449143
3.793627535
0.627397011
0.5089211721
2.405227564
0.5786930318
1073.063406
1101.33901
1074.177683
875.5682731
918.9301665
888.3631818
589.8095744
985.6923525
1039.522945
1002.554255
1093.596294
1052.003886
997.727
808.1135244
880.3999543
846.8037304
926.1186918
889.8783938
814.6031212
977.976786
913.4569384
951.4012112
986.5100856
1021.602094
992.9611463
1036.542651
1031.548902
1025.679148
1102.72409
1097.659208
1103.247553
425.0312346
618.8194152
652.5625145
570.2152389
397.4365108
570.1129101
541.2801102
1117.052933
1111.418407
1107.469085
1152.379814
1167.846412
1084.336621
1110.48392
964.8808241
970.7632238
924.8793693
1019.682348
1012.960894
1020.876702
904.9941243
932.8265509
973.7904745
899.8731341
899.5049886
1032.240486
1063.382072
1057.888785
1063.515243
1020.579499
1031.272415
1042.07673
1007.261149
1026.67333
1009.076857
1062.92827
1072.698455
1082.500832
1052.462752
1062.611603
1052.738208
1077.530194
1072.532906
1068.200068
1137.615313
1132.429149
1136.303873
1101.166302
1110.255569
1119.671866
1091.874444
1101.011382
1091.810936
1137.338444
1146.967955
1129.067103
1138.186868
1128.670945
1153.245869
1148.220574
1142.932798
971.0416223
979.3016686
1000.85489
952.0882283
971.5093391
957.3621974
416.3520895
463.3936827
502.7473153
189.1746574
243.0394527
204.710632
61.79548286
99.99885453
144.2314394
-236.1829638
-71.48738404
608.3123474
659.5448811
664.292101
655.6775091
653.815548
595.6051698
786.2057765
699.6974856
692.4198404
683.8576538
727.4250852
733.4637314
783.1357516
728.3096679
665.9035647
867.536802
790.2552081
703.3210358
1041.992301
1037.307915
1042.976274
1024.859689
1031.019489
1036.271604
1019.199036
1025.297086
1019.02875
662.888198
621.7297063
657.3345231
553.5597418
586.6990908
660.9621391
1179.943463
1182.764083
1177.423633
929.9842569
965.3103307
746.4455582
928.304154
952.914208
944.9245077
902.1889664
933.3690786
913.1691664
999.7420035
1005.955171
1012.833659
989.6543377
998.2842897
992.2887
251.243919
707.5825397
832.8088894
776.9912377
644.3208292
877.5941436
642.1940048
774.5048238
707.7757144
1047.580444
1052.595511
1057.909562
1041.611292
1047.128527
1041.665867
1057.465659
1052.264536
1046.61161
1081.602447
1076.831804
1081.059104
1067.725568
1072.271621
1077.151984
1062.89566
1067.576199
1062.371466
1164.446078
1171.0407
1176.383094
966.9301025
969.7179614
979.9013207
950.8772424
957.8495953
957.9743587
370.3140489
327.1255448
350.5370327
250.980344
290.5530957
333.8711755
-28.11158862
27.35718612
3.901302101
1087.700934
1092.489478
1097.362793
1082.289452
1087.438987
1082.309224
1097.557364
1092.410424
1086.942048
1118.412304
1114.70823
1119.045521
1105.896291
1110.204106
1114.344999
1102.011505
1106.210743
1101.118821
1124.205963
1128.307261
1133.270686
1118.800213
1123.435892
1119.01126
1130.99912
1127.419201
1122.770788
1157.998399
1153.284805
1158.668815
1143.432747
1148.146412
1152.731384
1138.321313
1143.29641
1138.286494
380.087172
425.1901093
384.0141901
499.6350638
463.9296486
423.2869727
545.6910545
510.3312736
551.8824388
-184.7569692
953.2051474
956.5053125
938.6252435
1018.23072
1008.122237
976.5783649
1389.475279
1123.932495
1062.669654
1055.808194
1082.000123
1187.621796
950.5458749
1078.755188
1046.882743
763.5307632
799.4765744
721.0216149
700.1384416
709.4712881
721.943119
736.1597031
752.388373
768.9038627
655.442796
662.0336643
686.3559053
671.0225806
680.7295759
709.1869028
691.0013724
699.2328439
752.2184629
743.7698686
753.3990839
772.7582323
785.2624553
796.6796398
821.8079847
833.2371393
846.3104702
879.1025404
1026.342715
1034.740291
1044.883958
607.0356737
611.3178911
637.3638595
616.5883139
622.0224043
652.2007573
627.0716339
624.8933485
681.4793801
667.4093756
672.3699939
693.4456181
687.4765807
692.1371199
719.2541857
703.9452175
706.7849624
743.1208742
556.7872578
558.1744097
585.0096946
559.6021885
560.6244362
591.2279506
560.9056319
550.7413814
606.3239255
588.3211898
588.8283016
609.4125432
587.7366006
586.1853078
611.756315
574.6428618
567.826824
600.8232992
533.9540816
516.708858
560.3779491
429.7905688
405.4984512
458.1254528
506.455116
505.3313582
531.8464759
503.5536083
500.8658722
530.4483736
497.2767466
481.1624345
533.0046219
512.7714551
509.7640514
528.8823397
496.8768261
490.8330203
513.4620915
464.5685686
452.3755853
478.6689527
402.3333216
380.4298007
409.4569705
289.6906172
264.6802709
289.4224482
457.5673521
454.2779144
479.7338334
449.944349
444.3615613
472.1003474
437.8661664
418.1761598
464.9141623
443.9955568
438.5734574
455.5199767
417.9200909
409.2214086
428.1710933
375.9115619
361.9780947
382.2437256
310.578118
290.5041409
309.699686
214.2233653
192.1970683
207.165262
410.9993974
406.1227081
430.0087659
399.9752545
392.4034216
417.7686446
383.9476077
362.5306435
403.7100995
383.2937555
376.536709
391.1893732
352.0716086
342.3302825
357.7951732
307.4230039
293.7054442
309.0889554
246.0563887
228.5273673
242.1621552
167.5204351
145.2531636
155.3603138
367.4349119
361.5047926
383.559479
354.2039837
345.4409841
368.2909417
335.8722622
314.1743493
349.9045189
330.6994939
323.3675085
335.8664634
297.711998
287.8384466
300.4256967
253.8844802
241.0821409
253.0295657
198.4392708
183.1308891
193.2933085
133.1748385
112.752602
119.7822246
327.2083593
320.6761976
340.8092155
312.7755994
303.4631636
323.8343864
293.2951884
272.3762253
303.2816921
285.5841921
278.1762465
288.7895803
252.9093185
243.4274261
253.7086178
211.6895197
200.0353204
209.3876606
162.2745224
148.891802
156.612058
105.8401246
90.41158049
95.47564075
290.3906469
283.6249104
301.8706873
275.5554125
266.2098773
284.2736933
255.9237079
236.2746278
263.0088316
246.9312711
239.7671431
248.7975501
215.7905308
206.9602656
215.4343763
177.9802908
167.540344
174.9988571
134.3237349
122.5940507
128.5563892
85.7031034
73.12495919
77.03349046
256.8927602
250.1785223
266.639885
242.2494603
233.2057145
249.20573
223.1721024
205.0243989
228.2123874
213.7395365
207.0039729
214.721587
184.7844793
176.716556
183.7729611
150.6251708
141.3621182
147.4092379
112.2364429
101.9935862
106.7071883
70.33729617
59.74414582
62.78497922
226.5330553
220.070943
234.8873483
212.4939537
203.9679293
218.1449434
194.4728304
177.8620966
198.0552194
185.1042221
178.8967311
185.5336317
158.6411013
151.3649681
157.3042903
128.0995327
119.933369
124.9126972
94.43494622
85.50841087
89.30824754
58.24437391
49.22847574
51.63440667
199.0682496
192.9916351
206.3221385
185.9022908
178.0041619
190.6050849
169.2423019
154.1721568
171.8022342
160.2739884
154.634784
160.3764547
136.3907876
129.8918976
134.9421168
109.2984993
102.1312517
106.2906205
79.84487365
72.07769793
75.19352681
48.53253995
40.82685019
42.76086512
174.2300062
168.6196767
180.6244246
162.1019297
154.887161
166.1125597
146.9238798
133.3850092
148.8708865
138.6265823
133.560112
138.5610867
117.2815925
111.5225109
115.8594357
93.40554677
87.13760649
90.65887612
67.705514
60.96058816
63.55506355
40.61209675
34.01516186
35.59117012
151.7475307
146.6481581
157.4784708
140.7463691
134.2439744
144.2776614
127.0986985
115.032386
128.7176574
119.6297512
115.1217746
119.5094058
100.718739
95.65217998
99.41312877
79.80524897
74.34570009
77.36413822
57.46233058
51.62345911
53.81400256
34.08033155
28.42448733
29.72375467
131.3539535
126.785494
136.5867617
121.5156843
115.7294992
124.7397134
109.3944186
98.72029916
110.8950968
102.8438636
98.87003629
102.7488174
86.23233434
81.80800473
85.10107118
68.03239215
63.30153665
65.91919556
48.70595517
43.67774559
45.55103868
28.64044074
23.78598038
24.86837708
112.7927972
108.7591115
117.6658074
104.1198877
99.03895756
107.1728999
93.49119451
84.11504517
95.02576684
87.90128366
84.43284796
87.88907203
73.44595954
69.61515186
72.52580497
57.73086389
53.66017881
55.95441464
41.13146402
36.83413627
38.4544299
24.05504757
19.89182135
20.80549887
95.82185426
92.31669113
100.4537667
88.29624121
83.90379193
91.29198786
79.13114848
70.93165977
80.78831485
74.49228641
71.50153744
74.60755505
62.05831687
58.77687417
61.37343822
48.62769548
45.15944523
47.18980267
34.51194802
30.87785937
32.29363825
20.12560807
16.57090206
17.35542682
80.21431455
77.22303613
84.70710574
73.80208617
70.0672816
76.83746033
66.06961264
58.94572668
67.9063842
62.36081598
59.82076382
62.63535113
51.82322583
49.05210927
51.39059358
40.50460813
37.59035511
39.40544869
28.66671626
25.63395712
26.88621305
16.69359314
13.68874476
14.37422958
65.75406474
63.25782829
70.19926179
60.41719472
57.30425677
63.56416337
54.05977694
47.95788027
56.16656833
51.29523104
49.17998529
51.75249881
42.53625089
40.24057313
42.36779107
33.17922995
30.77756431
32.41863097
23.44209167
20.95772126
22.08089617
13.64474896
11.14511901
11.75370485
52.24785717
50.21852836
56.71652609
47.93729697
45.4119332
51.25958611
42.836144
37.77931162
45.38376448
41.11336746
39.39508872
41.77020502
34.01797209
32.16674997
34.12495937
26.49167341
24.56708226
26.07091458
18.70356349
16.72286019
17.74623215
10.89425929
8.864137434
9.413385616
39.43315007
37.88668324
44.05987583
36.17220767
34.23939238
39.746455
32.2709904
28.20509188
35.37007547
31.62119771
30.28195156
32.50632501
26.10405007
24.67203635
26.4993908
20.30069118
18.82369336
20.2224551
14.33651661
12.8239714
13.77235225
8.370474278
6.781632288
7.286862651
27.21322883
26.16406955
32.02619665
24.9624427
23.60243755
28.86272113
22.22241374
19.09390554
25.92364804
22.65289206
21.67782563
23.78860305
18.64854583
17.61590201
19.3458402
14.48183665
13.42841905
14.75062397
10.24048171
9.168509779
10.06435596
6.008092241
4.839482507
5.314967135
15.56505607
14.83996796
20.52222896
14.15331647
13.36395764
18.42302955
12.54614652
10.30695243
16.90288098
14.06234445
13.44192313
15.47317394
11.52404585
10.87558926
12.53694543
8.924832269
8.274719579
9.545778099
6.321594871
5.668380193
6.533640469
3.741352438
2.979176081
3.43986014
5.043994721
4.638480178
9.161830675
4.315095724
4.031971297
8.18652325
3.702222356
2.025428616
8.172860319
5.718450216
5.451898009
7.427814082
4.631413652
4.357780712
5.964989878
3.543006242
3.274679191
4.509709483
2.486400059
2.231870513
3.088384125
1.50341636
1.145111015
1.592275062
1054.843521
1064.507421
1055.303811
851.3906718
871.9182656
862.3530892
1057.606236
1042.906603
1023.741318
870.5700504
857.9075729
830.5821411
1003.691876
982.6664024
997.3395652
966.8011273
979.1016444
969.637473
1102.061716
1110.013898
932.2087079
940.8377128
954.0980104
28.4235806
798.0226177
763.5029879
768.5819425
882.4419567
843.1605928
870.2622585
806.66525
811.7053198
861.2013781
170.0554509
550.3794224
537.9874689
548.7426384
791.7679156
809.9972994
796.9799924
838.4611037
823.8593471
804.4349198
846.305506
869.9116596
853.8212406
904.1628482
886.7027055
861.4994149
910.7149411
941.0418638
922.2741517
980.7474788
960.4790363
928.4706693
713.1857836
733.2901084
724.8355307
751.4602136
742.2316779
720.8327458
784.1701575
763.6030174
774.2284439
744.6709675
770.7023278
760.9587697
790.844149
780.6673725
752.7751035
835.3532385
808.4682199
820.6304791
777.2767123
811.958272
801.2554194
835.0780002
823.1918643
785.8210124
894.9625619
860.0209342
874.5125397
1013.496314
1024.23811
1014.869137
1043.021568
1033.4975
1022.824849
1053.994709
1043.901601
1053.322557
630.1860238
651.1368355
647.3972233
658.5908863
654.9221999
632.7093945
699.8862686
677.4899398
682.5733643
638.1794752
664.8747171
661.9342121
669.0738844
667.3059286
638.8161136
725.5156493
696.4750126
700.413703
635.0444209
670.2665159
670.3587447
667.8418567
669.6191186
631.298005
748.7229376
709.2140229
711.2234389
841.5568641
820.8818953
828.2421656
548.4257505
568.3577174
568.8678359
566.1901482
567.5147195
546.584482
610.7607673
589.0378701
588.6251618
536.910358
561.1892333
564.132272
551.7899433
557.1359002
531.5902358
610.7608967
583.6001736
579.827528
506.6226785
536.3642734
544.9600406
512.6494978
525.6982936
494.4269266
594.372223
559.0654651
548.0264745
441.7268044
477.3580521
496.550361
426.3446299
455.7409778
418.7146403
542.5657828
496.4780312
466.9563738
318.5060066
355.8787538
385.7992585
309.098149
276.31206
390.5983767
348.4515486
473.0484088
491.1346988
494.8681063
481.76465
486.8087492
468.0535364
526.1290227
506.1811017
501.9264109
448.0941221
469.0078827
475.8826322
451.4898149
460.9500361
439.3122562
507.091891
483.5716334
474.8853195
404.0813236
427.5128016
440.4194425
395.4206087
412.5611866
388.7503344
465.2769102
438.064346
421.4389182
330.8760369
354.3494063
376.0820546
304.7237709
330.0217542
306.6697718
385.4943161
356.1062952
329.1349728
223.9251106
242.9614508
266.5541069
209.2896785
192.6512062
250.1304588
228.2841856
406.411342
422.2006691
428.0618455
408.4010497
415.6777928
399.5248079
449.9398174
432.48052
425.6328474
374.072326
391.201863
400.2783463
369.734199
381.0586283
363.6890691
418.8022229
399.4084925
388.3487202
325.5293044
343.1228276
357.1200218
310.7704252
327.6830924
310.2463124
366.7516256
346.4622543
329.3178658
256.9375165
272.9942528
292.3881183
230.091772
250.1503764
234.9700507
285.7210061
266.9627649
246.15436
166.4431667
178.6796068
200.8656063
153.8886235
143.6946043
178.0930341
165.2743447
348.8882689
362.4370911
369.4104249
346.5253986
354.828356
341.1347548
384.0079201
369.1148475
360.9789249
313.6812587
327.6367893
337.4788853
305.3527605
316.9462107
302.9876482
347.2484535
331.6848602
320.0687263
265.7525556
279.287748
292.8105
249.3228473
264.78099
251.563943
294.0242149
278.9036755
263.0405144
204.1953879
215.9091277
232.8620519
178.7432392
196.7465419
185.9044351
221.1370651
208.4472657
189.9560329
127.5167756
135.9895669
158.1150931
118.3726847
111.274093
134.4847965
126.0835422
299.8477109
311.3648571
318.7667306
294.8600531
303.4085398
291.8827067
328.0120967
315.4448699
306.9038683
264.5154486
275.8805363
285.692488
254.24105
265.4019303
254.1669425
289.7700458
277.2555498
265.9419138
219.312576
229.8598741
242.3916591
202.8668923
216.6692315
206.466324
239.1701267
227.5528366
213.3404472
164.8558124
173.6694275
188.4573702
141.0847869
157.7060076
149.6160094
175.821847
166.4321375
149.5351197
100.8078865
106.4657051
125.5615677
92.99976903
87.54923598
104.7191005
98.64929171
258.1983588
267.9835271
275.3670433
251.8053609
260.1367419
250.4267216
280.8433302
270.2689173
261.8520406
224.3188548
233.6406173
242.9766214
213.4290581
223.7912852
214.661267
243.5108481
233.3971157
222.8157671
182.8781032
191.2117047
202.5628273
167.2155726
179.4109543
171.4222841
196.8900505
187.8869896
175.299558
134.9008625
141.6659476
154.6234822
113.4876121
128.174455
121.9113957
142.0173204
134.8695154
119.6352289
81.20128807
85.6525823
100.2145942
73.47405254
69.40481472
82.49610032
77.82910817
222.7457898
231.0876497
238.1712888
215.7699524
223.6244201
215.4042669
241.1175961
232.1892706
224.1992135
191.1521672
198.8741789
207.5202001
180.4093092
189.8344631
182.326916
205.9769192
197.7093477
188.0445909
153.7722616
160.4742871
170.6142112
139.3156331
150.0275781
143.6502047
163.884411
156.7626193
145.6938229
111.6961194
116.9834365
128.3250644
92.80149944
105.3509366
100.4760214
116.0421451
110.5309808
97.47378854
66.0178593
69.45878629
81.48829843
58.78144737
55.69943799
65.61217707
62.07843674
192.4233894
199.5745557
206.1982857
185.3956142
192.64249
185.6364406
207.5112433
199.9292359
192.522944
163.4990334
169.9644014
177.8349726
153.3265042
161.7908938
155.5426999
175.1642163
168.3253435
159.6221661
130.1326104
135.6097703
144.5900892
117.0332164
126.4184766
121.2360886
137.6049121
131.8681574
122.1663724
93.31184849
97.53471349
107.4329334
76.74488927
87.45672184
83.58612479
95.88302322
91.54980266
80.40831917
54.18152261
56.88071577
67.04875282
47.57541465
45.19291883
52.81484433
50.11158255
166.328414
172.4967337
178.576347
159.5810227
166.1661401
160.1517066
178.897037
172.4113056
165.658492
140.1963858
145.6662945
152.745548
130.8189343
138.3526775
133.0926192
149.5639852
143.8390372
136.0771054
110.6357448
115.1787439
123.0856483
98.90478995
107.118654
102.8387515
116.3029471
111.6023915
103.1091794
78.46302558
81.89728123
90.5200147
63.98229514
73.15488312
70.02589925
79.92210157
76.4497402
66.91697915
44.80043598
46.9533793
55.62020382
38.85372872
36.97751325
42.95228787
40.84251154
143.7360595
149.0898353
154.5964996
137.4621186
143.3791497
138.1785717
154.3559148
148.7684942
142.6855078
120.360512
125.0347734
131.344669
111.8849634
118.5431565
114.0665085
128.0454529
123.1993468
116.3282053
94.32545758
98.14633731
105.0796505
83.91726917
91.09431418
87.50782911
98.74917591
94.83804469
87.41318849
66.26736317
69.10537936
76.60491405
53.64835507
61.52237355
58.950337
67.05096991
64.21964877
56.04054636
37.24810915
38.99139941
46.40262698
31.94538964
30.44494504
35.2053806
33.53023018
124.0413046
128.7217841
133.6567377
118.3517764
123.6204408
119.0880867
133.1574879
128.3075587
122.8793905
103.30691
107.341168
112.9224873
95.77026918
101.6189592
97.76809545
109.7595957
105.61329
99.56867128
80.49758042
83.75323244
89.81098937
71.34652135
77.6005221
74.55459851
84.06910394
80.76938785
74.29434803
56.09639322
58.47669476
64.98503232
45.14648155
51.9083391
49.76242301
56.49547148
54.15050318
47.12528855
31.08591494
32.51505553
38.8619519
26.3970715
25.18356524
29.02327817
27.67552641
106.7474899
110.8688913
115.2496891
101.6998482
106.3522503
102.3715806
114.7040736
110.4610404
105.6578901
88.50230521
92.01736208
96.91865336
81.89899857
87.00665393
83.66036722
94.05401562
90.4690949
85.18250541
68.62894558
71.43594822
76.70629238
60.66100744
66.08926102
63.4707586
71.625258
68.80551587
63.17918014
47.49681891
49.51940885
55.14735522
38.06029402
43.84944727
42.03638631
47.70759915
45.73827119
39.71711671
26.00017118
27.18444301
32.62806347
21.89414812
20.90252078
24.03120322
22.93590349
91.44537506
95.10304892
98.9556987
87.06604963
91.13958933
87.61436909
98.51293585
94.77077925
90.55604654
75.52543252
78.61780832
82.88934265
69.8291966
74.26102563
71.32358514
80.42433275
77.29295749
72.69795596
58.32362853
60.77118313
65.33100295
51.46441978
56.15032398
53.87311782
60.94469147
58.50607737
53.64168712
40.13309028
41.87298792
46.7115451
32.0848632
37.00945983
35.45848846
40.29472818
38.62034242
33.48854057
21.75743069
22.7499588
27.42240801
18.19841781
17.37807923
19.95795681
19.05748435
77.7963042
81.06921262
84.42285372
74.09320228
77.6256545
74.47721227
84.1896673
80.8617792
77.19740546
64.04289291
66.7888531
70.47839952
59.21839576
63.0327984
60.42944984
68.47566983
65.71357132
61.74985441
49.2812576
51.43694547
55.3520183
43.45947198
47.47368419
45.47307611
51.67018889
49.53829847
45.36213836
33.75644148
35.26904797
39.39448072
26.98188461
31.13449163
29.79282439
33.96410565
32.52388344
28.18692575
18.16907006
19.01380047
23.01814876
15.12519166
14.43617956
16.59391237
15.84373994
65.51882401
68.47222474
71.35376423
62.49176917
65.51785204
62.68155339
71.41221071
68.42702601
65.27734594
53.78869325
56.24972496
59.40010475
49.80032867
53.04762057
50.71851649
57.89979297
55.44030999
52.05552931
41.27008986
43.18716333
46.5126876
36.42286975
39.82438799
38.04959982
43.5333107
41.65137944
38.10171696
28.17604301
29.50605155
32.9843472
22.55987511
26.02974412
24.85444053
28.49646245
27.24296805
23.61007408
15.08201106
15.81367252
19.22626658
12.52681227
11.93711455
13.77465573
13.13878887
54.3824391
57.0700604
59.50632375
52.02356681
54.5755055
51.99788436
59.91447567
57.21338528
54.5457105
44.54365177
46.770842
49.41998004
41.35888012
44.08205219
41.97743813
48.44989093
46.2385196
43.38801854
34.09953034
35.82262962
38.60509092
30.17310904
33.01218896
31.42047058
36.32437271
34.64594414
31.67055999
23.23337656