/*--------------------------------*- C++ -*----------------------------------*\
| =========                 |                                                 |
| \\      /  F ield         | OpenFOAM: The Open Source CFD Toolbox           |
|  \\    /   O peration     | Version:  v2012                                 |
|   \\  /    A nd           | Website:  www.openfoam.com                      |
|    \\/     M anipulation  |                                                 |
\*---------------------------------------------------------------------------*/
FoamFile
{
    version     2.0;
    format      ascii;
    class       volScalarField;
    location    "0.37";
    object      k;
}
// * * * * * * * * * * * * * * * * * * * * * * * * * * * * * * * * * * * * * //

dimensions      [0 2 -2 0 0 0 0];


internalField   nonuniform List<scalar> 
3019
(
36.90869769
36.90874535
36.90881329
36.90888934
36.95440077
36.95482572
36.95559347
36.95737793
36.96098795
36.96741794
36.97712423
36.98812953
36.72745054
36.72764701
36.72785425
36.72827427
36.77383852
36.77604605
36.7807332
36.81014797
36.82711903
36.85734039
36.90319446
36.95820651
36.54737052
36.54785679
36.54843477
36.54939148
36.59584341
36.60154389
36.61300808
36.65373509
36.69561869
36.76851969
36.87672246
36.98103095
36.36866227
36.36915883
36.37008604
36.37239651
36.42037756
36.43245878
36.4569086
36.52050126
36.60883749
36.76139314
36.93620491
37.09184726
36.19190241
36.19259315
36.19434711
36.19888095
36.250117
36.27187891
36.31931754
36.41843923
36.5948614
36.83576843
37.10988003
37.36020879
36.01672333
36.01769453
36.02065193
36.02864638
36.08607819
36.12332413
36.20630911
36.36413777
36.63628502
37.00009553
37.45625476
37.94850315
35.84407941
35.84578661
35.85102556
35.86398298
35.92934401
35.98772549
36.1203436
36.35659212
36.7309563
37.27204653
38.05657253
39.28643047
35.67459822
35.67725928
35.68533895
35.70486388
35.78267503
35.86759876
36.06278179
36.37316478
36.86372555
37.61921538
38.88613528
41.60560248
35.51032752
35.51466442
35.5271552
35.55674936
35.64658841
35.76447025
36.02798197
36.40598532
37.01869437
37.97918466
39.65125213
43.65703605
35.35228917
35.35842875
35.37570428
35.41666069
35.52087074
35.67752566
36.00869052
36.45121133
37.17662553
38.30205216
40.21608238
44.62125846
35.20265046
35.21143519
35.23518871
35.29046573
35.40691076
35.60495358
36.00014951
36.50548106
37.33354245
38.59340359
40.68474369
44.7712939
35.06128481
35.07244985
35.10216752
35.171309
35.30432434
35.54365607
36.00031939
36.56614378
37.48794186
38.86984344
41.13487296
44.40390887
43.49086421
44.54183435
44.79497131
44.4664992
41.25033561
40.08839909
43.59267285
42.74730992
40.57313225
44.13828642
43.6913693
44.7818279
46.5807101
47.52129441
41.03421437
44.1582767
44.1605533
44.6641956
43.04160093
44.98528443
44.14552385
44.17498002
38.30208078
40.73033421
47.76101434
49.57338022
43.74566633
47.35644517
47.63597482
48.32070859
44.19791493
48.97838049
47.72292611
49.67841935
49.12074793
45.17091562
46.42115833
44.80530603
46.08901014
44.30011303
47.6414831
46.1993867
40.86490144
42.91999195
44.62060285
41.97358819
39.46507638
44.1795221
42.11142679
38.12631059
44.14173381
36.20636816
39.32024747
36.41455319
39.48164005
42.59235512
40.94291541
42.5831995
46.36077423
43.33186588
44.08678341
48.3966136
48.37759295
48.21363584
46.67301136
42.85192336
55.10631113
45.78402426
53.10292787
41.22567183
43.27604818
39.62213227
43.72522914
43.37014531
59.29678016
55.5587269
48.67732751
55.86583178
56.86107494
51.59957182
55.54131034
48.92536017
45.41417113
50.77441103
45.16700488
56.12098107
51.53055811
45.97833333
53.79638844
59.11025974
48.38831749
44.46496535
48.30870235
49.57932372
47.83525952
51.05881802
44.85765946
47.41164995
49.48501851
45.27705642
45.161643
47.01698994
46.92606447
40.98428321
40.81348465
43.20915583
43.06908991
43.24603109
38.30501263
38.16105169
42.8814868
45.35271823
43.91246258
45.26203983
45.01120611
45.57197367
45.34221334
44.05418698
44.16128746
43.83669993
39.76320702
45.73333529
45.83935378
45.64347437
40.65982435
41.1721498
44.67665365
41.90794236
44.55912749
44.26410268
44.92430757
44.65335093
42.04571176
41.56014806
36.15283972
36.4909669
33.59140961
33.82577467
39.95909517
43.77548348
39.84410848
40.51568964
36.62637164
37.00661233
42.52255632
38.88851194
33.26114883
33.51342846
32.7182212
37.38707195
53.12230363
53.0223154
48.62997276
49.52333118
57.94270697
57.38820459
56.93344804
51.68573743
52.26161926
50.65187901
51.45370789
57.23668076
54.00812836
52.47539098
52.30217504
52.38432882
52.49225361
54.28481354
54.48246257
49.42190734
50.38271963
57.50394107
57.95328206
43.0686692
48.49093828
47.61840284
49.30928347
48.7266589
43.64911114
46.40498361
45.80184749
47.31417105
46.61235769
49.1276002
51.53383155
51.00163143
52.17396104
51.70403752
49.58919595
45.88256735
50.07706201
49.50554658
50.81963355
50.26492455
46.25534966
40.17827902
39.67805304
41.04588758
40.3536861
38.88284216
38.39558901
39.52009226
39.0277389
44.83443513
44.26303623
45.60683507
45.03041816
43.12164302
41.49479923
44.05412331
43.48088777
35.6944364
36.01928815
41.42108443
34.0049362
33.78302012
34.31494292
34.09657917
33.67110366
40.1697211
33.91741731
35.3913481
37.8549525
39.55097213
43.63883883
37.47546825
35.28123578
38.2963493
37.54896766
34.69368725
34.41618156
35.12810179
34.80195386
42.65879307
37.14266457
37.60002432
32.95904141
33.18714447
38.7448424
37.6350683
32.7382317
32.90130445
47.01702571
46.19872747
46.09484113
46.27872243
46.22492374
47.15024227
46.05140769
45.89764099
45.91168615
45.74286522
42.72125362
43.36239592
43.67371465
44.6290873
46.52939842
54.36696783
59.00003587
59.78202568
56.21007801
56.24401216
55.13667762
54.97395332
52.16716033
53.17846551
52.79997805
54.79979996
54.58376896
55.11099469
47.95811411
49.11036068
53.9565589
55.29167842
60.69300419
57.07949231
60.88823397
61.23392875
58.50494251
41.42586126
43.62035133
43.09065234
47.29438085
47.05938091
44.22625749
40.97855082
40.73685705
42.65201324
42.30212456
48.26010676
50.45333751
50.12567658
52.44830531
52.11129168
50.54996003
45.15551933
47.90659416
47.62921378
49.79542995
49.4735451
47.01798521
42.02202986
42.54217165
45.63074468
44.79543394
41.33680202
41.85233388
45.57369398
46.07983995
47.29405597
39.32191325
39.17328687
40.52431092
40.3332572
37.01821217
38.94872723
38.82500021
46.62852891
44.8653722
45.3978375
36.24421463
38.54107321
38.40999253
33.68461535
35.18292666
35.08345109
35.49890827
35.30157475
33.76076794
32.76209214
32.71470074
33.35082586
34.83079323
34.7378782
35.000309
34.91373615
33.42775013
32.88989157
32.81760354
33.60996706
33.05334782
32.8140978
54.00869346
51.2456908
50.49003705
53.58730846
60.18451148
61.71209511
54.49675305
59.01442761
62.70790226
58.52518811
56.74471103
53.95119923
53.57501528
52.71148857
54.80517743
54.40100382
54.13877648
61.90928984
61.58695514
56.60676539
62.19388877
64.31261025
58.3591555
61.71658068
61.88655801
45.91269736
45.75446221
43.01588695
43.80698852
46.67838286
46.51173421
41.4727818
41.21613559
42.00839029
41.73165737
51.11201802
50.78019599
48.67708806
50.06495417
51.77867396
51.44525421
48.52663042
48.23105061
45.55240934
46.6131833
49.14962516
48.84156892
40.00578552
37.17048641
37.32496737
36.89128888
37.03538785
39.84317851
40.75941297
37.83221845
38.06084602
37.47615274
37.64772526
40.54423309
38.70819401
36.07290342
36.22176444
35.83144504
35.97716012
38.58121364
39.35400214
36.61336901
36.75996755
36.33409228
36.48698054
39.1993055
39.71182298
39.54137786
44.64586067
42.56465641
42.75522642
42.16973449
42.34333844
44.44602231
40.11474446
39.9279781
38.16311542
38.03817242
42.84904993
40.81601244
40.88407955
38.39776172
38.87425919
42.14279463
43.88272341
41.78810396
41.93165415
41.39965126
41.50362864
43.64411121
38.58423188
38.48656704
35.76883874
37.9580905
37.82206807
38.25810503
38.13501728
35.94296449
33.94702773
33.84116668
34.24605614
34.15129375
33.63851586
33.61293715
34.09784588
36.59495186
35.8842124
37.5418953
37.26517036
35.10211289
35.88518948
34.72131398
35.21582589
35.5101015
38.07056333
35.59419715
35.75195734
35.33156129
35.52156886
37.99091327
34.60328821
34.49763551
35.01384151
34.89989788
33.03611577
34.4686959
34.3685022
34.65175044
34.55407607
33.10229655
32.79327053
34.07389647
33.91981406
34.28283819
34.17742167
32.84049135
36.69110517
36.71489201
36.8215846
36.72511226
36.76778604
36.84788963
36.78468049
36.84975459
36.88980953
36.87443012
36.94811935
36.94348474
36.96858887
36.55118518
36.60193244
36.68287328
36.62480097
36.71799393
36.7474264
36.75572663
36.87327762
36.84919333
36.91246304
37.02202923
36.95801828
37.05316918
36.44091948
36.54489688
36.58122499
36.59259074
36.75111829
36.71987855
36.80897122
36.99161784
36.89259554
37.05288769
37.22467459
37.05738424
37.27275793
36.37262831
36.55135604
36.54069457
36.62020998
36.85886902
36.77116489
36.94891429
37.24618435
37.04062055
37.34979497
37.66601259
37.30345658
37.75863067
36.35550486
36.60449176
36.56078221
36.70337478
37.05685258
36.90000569
37.19489463
37.68614881
37.33519445
37.87846481
38.57627166
37.82398675
38.83514595
36.36803483
36.69572508
36.62417823
36.82971719
37.32572955
37.11758056
37.53016358
38.31935173
37.82939334
38.6704509
40.64373761
38.90159966
39.94718793
40.57617889
39.57824474
36.39640171
36.80887145
36.72068979
36.97938857
37.62123887
37.39714558
37.89204531
38.97828364
38.49221513
39.09762672
39.6322564
39.37093007
41.95242898
42.61958601
42.18132449
36.43898896
36.93342238
36.83957811
37.13711196
37.90270339
37.69395489
38.22485324
39.50512538
39.12285263
39.80785968
40.49363696
40.31024432
43.81206344
44.91239776
44.73896372
36.49131697
37.0613909
36.96527566
37.29430208
38.16154067
37.96935042
38.5224869
39.9346827
39.61848636
40.33892165
41.10025998
40.96077253
44.68868974
45.81049916
45.81799053
36.55010769
37.18981824
37.09380242
37.44909542
38.40616773
38.22388354
38.80103919
40.33483705
40.03430867
40.80225116
41.63219398
41.49624721
44.74020072
45.25198917
45.41076622
37.22239823
38.46659795
40.43426193
41.26777055
42.34682588
41.9793746
44.33719145
44.15051755
44.38876071
44.54996152
44.32766422
43.30188507
45.81137278
45.75669104
44.4484352
45.45877123
45.58920606
44.8075334
44.46430354
44.68016961
44.52241314
42.93246852
41.01569333
40.23825345
39.75056927
40.83313263
40.81554464
40.66067972
39.95271914
43.26090687
41.32516509
41.57944392
40.93198854
41.23554158
43.14601559
41.36827521
41.23426197
40.45621422
44.00862515
41.96542489
42.18463078
41.65886737
41.8904063
43.94202224
45.74717405
45.79977618
44.74350561
46.73317409
46.68986581
46.58703068
47.17919596
47.11035137
47.39913324
41.90001971
41.74946064
40.90963662
44.18223575
42.52264801
42.70223905
42.25600479
42.45824228
44.18409554
45.00968104
45.19449833
44.70432623
43.40743224
44.58087977
44.42170248
45.47543037
45.32891686
44.76780328
42.75571128
42.88525597
44.08991
43.80876997
44.06794668
44.27506914
38.95537783
41.66701302
41.60840862
42.84168093
42.64705086
40.32252771
48.10410282
50.16679118
49.33806229
51.53187894
51.57284136
49.38127581
44.23108319
44.7346626
44.1499289
48.76203726
48.18853494
46.95024548
47.96043206
46.29981332
46.28991274
46.28981786
46.29765164
48.05852597
44.33844004
45.71329382
45.30760635
48.83232185
49.00878529
49.46264353
46.90888916
47.40992179
47.97690602
49.6793217
51.19654974
51.46926428
49.6108145
50.0488937
49.25334692
45.36451329
45.74809948
45.61155254
46.47983032
46.36814169
46.25602254
44.81186759
45.62715243
45.72252137
45.97196513
45.47067433
45.61525899
43.49021449
43.63674286
44.42959763
47.38503257
46.24798337
46.74394942
45.76294964
45.91144918
46.31466855
41.28776058
43.21481057
43.02871271
44.25963814
44.09530338
42.55203742
44.57360916
44.74834234
44.94631083
41.83602299
40.5013615
40.64745638
37.53927696
37.69000286
39.6156214
44.04836841
43.19457882
43.34601386
40.79619544
40.94328972
42.24881159
41.53043975
43.71832871
36.04555867
33.77649934
33.88255811
39.17645684
37.26697059
37.40179575
34.05392773
34.37647717
36.7004366
40.10642736
39.8806327
39.29738627
42.01397551
40.43317071
40.82114325
39.81842012
40.29338316
41.77914722
43.43214685
43.04518621
42.28265695
45.21315023
43.71221682
44.40207697
42.75457076
43.46485986
44.74266439
45.22589755
45.05789839
43.9468688
48.56068541
46.04667543
46.25997075
45.68693809
45.96448568
48.5771368
47.66412649
45.23050892
45.59021634
44.59062296
45.09780839
47.45175266
43.09106537
44.07164856
43.77414829
46.67347852
47.50313596
46.28252243
56.74956048
54.71119816
51.75187918
41.47941322
42.45086852
41.91197449
42.23126882
41.37348577
44.4043552
42.66319007
42.20431377
42.05931517
41.80449615
39.14956158
43.60727402
42.93989208
43.10810195
42.6186768
42.79549239
43.49153867
50.98730439
50.39001221
48.4061423
54.12814786
54.69895938
57.42481487
49.15544333
51.52255228
51.15335868
46.25784266
45.47917132
44.80730188
48.08793476
46.4968664
47.58807101
44.74674868
45.36893982
47.22918254
55.4552153
53.04262469
53.55640023
49.96198333
50.56638557
52.37994609
46.48395793
47.64060676
46.9563124
48.30390051
48.84629992
48.66286595
48.05570035
47.57932086
48.11187578
50.72999719
51.0887541
49.64936116
49.375519
50.19061257
50.6010552
44.63444181
44.77437656
45.39799834
45.03856125
44.35269511
44.49454886
46.80303377
46.91917707
47.11297368
46.82656145
46.56639997
46.68586753
39.58950152
39.75261725
41.1358001
40.61801769
39.11306475
39.37354658
42.02886118
42.23386714
43.34924029
42.93122202
41.68687586
41.84869168
42.45298163
36.46965187
36.60946582
38.45435356
38.00258563
36.19259473
36.34824377
43.41535275
43.88758364
44.88935368
44.73702164
43.52963634
45.18018322
45.08162461
45.19376005
44.85064278
44.96719474
45.0965131
45.49752578
45.51577457
45.61845716
45.30363097
45.41141673
45.42068028
44.5988352
45.18806912
45.03823878
44.0557832
43.5508735
43.69445009
43.25360123
43.40686325
43.9483372
40.18521138
42.45494852
42.24386417
46.00802067
45.8794738
45.54964175
45.77751511
45.90725048
45.99863708
45.71700736
45.81367684
45.71219754
40.84050813
42.48480679
42.31958727
42.80658806
42.64304596
40.99666128
44.54990883
43.77973949
43.92463677
43.5816303
43.39933082
41.44315558
44.46298848
44.10376231
44.23525224
43.83317074
43.96985958
44.36465584
44.83572093
44.61155391
44.73206493
44.36358115
44.48880648
44.74549168
42.42901565
43.92823344
43.7576129
40.20874988
40.35247698
41.69778745
38.83142947
38.69130497
36.38108946
39.77688131
37.86282108
38.08688684
42.86671571
43.04096028
43.92028365
40.16202558
41.81525561
41.58983756
42.16265385
41.98668146
40.30930619
36.74595063
39.12685213
38.98161976
39.42608809
39.27758971
36.88109461
42.38601454
41.09141741
41.23845445
37.00140158
37.13588404
39.03347652
37.05725685
34.95628927
35.57742835
50.41704202
48.43921953
47.30408977
47.17142592
48.91327949
50.90315835
53.54802282
51.37856009
55.25937284
55.22792953
56.57758487
51.90369072
53.51844624
53.35815957
53.65261028
53.61973535
52.09332317
50.93157956
52.48869823
52.07590186
53.13453873
52.84583714
51.19777264
57.42655604
55.04954795
55.23154765
52.44968265
53.25415667
53.3569908
52.84104786
53.0662392
52.39609028
52.46278913
53.58946018
53.63767364
53.42162004
53.51213321
52.4968231
52.14726915
52.61198173
55.01815161
49.76421845
50.88988744
50.4728821
51.66719608
51.26534677
50.05011629
48.26159381
47.34677454
47.625905
46.01281352
46.65644579
47.95522672
49.12085301
48.48675184
48.71031443
47.99999928
48.20717017
48.91625588
46.20129215
44.24145359
44.4706987
43.79638873
44.01748099
46.00020451
47.05560891
45.21161575
45.54179576
44.70349903
44.94646087
46.82667988
51.35959901
51.4262118
51.66777907
50.93742645
51.18260273
51.18187284
52.02689905
52.37870939
52.6108023
51.90760428
52.14465924
51.8691682
49.88860832
49.45822981
49.70095912
48.96802889
49.20601652
49.69605674
50.63592934
50.44200384
50.68946578
49.94860743
50.19352791
50.45077164
45.41540272
43.38148158
43.5837523
42.96971479
43.16940904
45.22142509
41.28149249
39.91466412
40.05882572
38.39384116
38.77368103
40.39899642
38.27986208
40.61860909
40.31464119
41.32491328
40.98389583
38.91904634
43.47765456
42.45611808
42.67439294
41.3860355
41.53438371
42.79478195
37.27642968
39.73321632
39.57866426
40.08349047
39.89818293
37.42613925
38.59790258
36.73550775
36.87179991
35.81914854
36.06211328
37.8435221
46.87640292
46.78625583
46.87833461
46.16853187
46.51694314
46.57048835
46.39520021
46.45859859
46.13372558
46.26452755
46.70460282
46.74144031
46.61963732
46.6642091
46.24659645
47.27815361
47.0381005
46.96023132
46.00382464
46.2510872
46.32582255
46.08706358
46.17129363
45.95247025
46.08616107
46.25222376
46.13202431
45.19022417
45.32976477
45.86062401
42.90976725
44.42204873
44.25584443
44.78416185
44.59609028
43.11636658
44.03838712
45.20785462
44.99103584
45.59735055
45.41370639
44.37830685
46.420308
46.0545705
46.19107119
48.37509323
49.09985651
48.5517129
50.06215085
49.57504605
48.72490021
53.21264794
51.13009871
51.68434854
42.19414778
43.77240131
43.61222903
44.09335115
43.93234893
42.36619245
45.51170928
44.91298847
45.05190437
44.06730392
44.21108559
44.92095076
41.51118514
43.12989464
42.96700191
43.45217353
43.29071636
41.67992745
45.74144093
46.50277581
46.36086518
46.78333052
46.6441127
45.91264407
47.20166948
47.03332003
47.14645727
46.32054135
46.4450314
46.73199913
45.04170377
45.91971675
45.76730653
46.21581341
46.07096169
45.23029441
36.86508028
36.86608461
36.95513106
36.86772882
36.87055439
36.9561606
36.87327216
36.87792099
36.95890399
36.88444503
36.89319943
36.96379003
36.90447633
36.91836023
36.97189236
36.93450571
36.9521588
36.98276772
36.97047196
36.98660715
36.99294739
36.68538889
36.68627431
36.77473538
36.6882045
36.69128476
36.77798209
36.69554734
36.68623397
36.80740087
36.76931326
36.7736593
36.81326906
36.79098318
36.79922679
36.83292643
36.82945117
36.84294662
36.86688199
36.88750018
36.90540555
36.91600729
36.95810027
36.97361891
36.97106068
36.50911575
36.51158318
36.59819147
36.51634638
36.52354521
36.60637357
36.53292417
36.53974602
36.64718321
36.61799663
36.62781005
36.66198007
36.66876825
36.6872027
36.71098912
36.75752312
36.78796838
36.79310058
36.88317258
36.91482389
36.9052295
36.99872681
37.0225634
37.00298349
36.33624156
36.34150703
36.4252028
36.35077749
36.36496354
36.44290373
36.3852462
36.41708711
36.50617562
36.49221175
36.51227205
36.53749438
36.59787046
36.63715983
36.64123318
36.77216393
36.82024438
36.80464567
36.96701004
37.01459686
36.97887067
37.14035497
37.17372407
37.12237059
36.16963547
36.17941958
36.2589584
36.1960811
36.22122187
36.29093478
36.25976716
36.32954048
36.39039531
36.39978695
36.43899024
36.45223422
36.59926425
36.66117928
36.65078958
36.86847285
36.94325683
36.90274288
37.1777401
37.25581031
37.17774392
37.46924568
37.52396623
37.41104589
36.00961674
36.02604533
36.10109401
36.05394164
36.09602672
36.15614032
36.1597125
36.28571604
36.3140828
36.35876221
36.42505811
36.42391612
36.65561738
36.74564208
36.71800811
37.05868563
37.17795003
37.10667409
37.57963034
37.72670538
37.57956163
38.18585597
38.32163331
38.06563949
35.85728571
35.882773
35.95251804
35.92561688
35.9908311
36.04068603
36.08819744
36.27573396
36.28038864
36.35913486
36.44682363
36.4390032
36.76217934
36.8895132
36.84808475
37.35350732
37.54201675
37.44063656
38.24974055
38.55118182
38.30524207
35.71429764
35.75272588
35.81566393
35.81423454
35.90730765
35.94635583
36.04302327
36.28556302
36.27638169
36.38028529
36.49011773
36.47670295
36.90271638
37.07235874
37.02263707
37.71253757
37.98443025
37.87075539
35.58192814
35.63659813
35.69224288
35.71967721
35.84311707
35.87279828
36.01685839
36.30855975
36.2904671
36.41631293
36.55097168
36.53451659
37.05810499
37.26723455
37.21844164
38.06359284
38.40455629
38.30519031
35.46175214
35.53459542
35.58242293
35.64097906
35.79488069
35.81674216
36.00368196
36.34026937
36.31559985
36.46418263
36.62267352
36.60390329
37.21604664
37.45922765
37.41181542
38.37725605
38.76603039
38.68028674
35.35476385
35.44604459
35.48580839
35.57633911
35.75919165
35.77446167
35.99980099
36.37933626
36.34930854
36.51997213
36.70082068
36.68111317
37.37176373
37.64442187
37.59914334
38.6629498
39.08931828
39.01057711
35.40038775
35.74235452
36.3903267
36.58023968
36.7820021
36.76293922
37.52525491
37.82516729
37.78106732
38.938039
39.40133164
39.32344405
41.67532118
41.23298889
40.89478118
40.01754634
40.29004021
43.48637131
42.70027941
42.79959888
42.01451692
42.14683871
42.89068682
44.10626054
43.38367661
43.44692009
42.89427966
42.98691144
43.78291049
44.16862981
43.71231597
43.73356328
43.5023367
43.55273682
44.17544289
43.16376957
43.80028069
43.69378198
43.75139104
43.76679742
44.12901198
38.50731665
39.91805641
39.77604499
41.76072025
41.63894334
40.59550243
47.74774003
47.30848982
47.24456516
47.62597747
47.58579113
48.23836986
47.68811997
47.79425433
47.80989958
47.55483603
47.47492758
47.58214837
41.00125828
41.99812257
41.8773114
43.59188561
43.4840172
42.79739118
39.63397316
39.49344598
37.97102549
44.11312165
42.41875613
41.72006841
41.87429031
40.54131159
40.75816101
41.23914625
46.01848622
45.27999852
45.57184017
43.10096087
43.47582458
43.76065865
48.46352963
47.68283861
47.66002036
47.29787091
47.42790407
48.49583414
48.03970286
47.01555432
47.16168916
45.83557727
46.08140505
46.95865999
43.56934409
43.12149457
42.8834935
40.77104285
40.63824785
39.47424754
49.86874229
48.73088154
49.37352101
45.02736427
45.49670121
45.78488344
48.51874259
48.60734072
48.48036794
48.22143609
48.31624566
48.41914134
45.70743097
44.87881849
44.68131669
44.40277339
44.30481556
43.7802134
44.21288002
44.56040512
44.49125325
39.90614834
41.02550812
40.89301661
42.72625259
42.60509906
41.75969122
42.176959
42.95177583
42.83756607
36.69784866
36.7351041
36.72949103
36.74885816
36.74104098
36.70534793
36.81729236
36.77839951
36.78450647
36.73788909
36.76743044
36.75692843
36.79169027
36.77804484
36.75128943
36.84029728
36.80778598
36.81854832
36.80517802
36.82213286
36.80513157
36.85853458
36.8383797
36.82552554
36.87846492
36.85617245
36.87224132
36.90098919
36.90010702
36.87697291
36.94303053
36.92112067
36.92395446
36.93057384
36.92163899
36.9413523
36.98891141
36.97941003
36.96107178
36.9939955
37.00503119
36.98606993
36.98813176
36.56533488
36.59548013
36.58354351
36.62603634
36.60943575
36.582099
36.67135223
36.63928987
36.6531379
36.65153035
36.66713198
36.64499116
36.72106484
36.69216156
36.68209675
36.72764484
36.70764112
36.73151257
36.794221
36.78923113
36.75393015
36.85976176
36.82390977
36.83344248
36.81909871
36.8196914
36.85207104
36.95099398
36.92983854
36.89498974
36.99410662
36.96255422
36.98739111
36.93142207
36.94422763
36.97312571
37.08117776
37.04816731
37.02239056
37.06927073
37.10438636
37.02084277
37.04223361
36.46963998
36.48980209
36.46575505
36.55218185
36.51829596
36.50410821
36.55755769
36.53614399
36.56446316
36.64264004
36.63827959
36.59225513
36.73599399
36.68590395
36.69553829
36.67899208
36.68066773
36.72553391
36.86878643
36.84152224
36.78791424
36.95109448
36.89605874
36.92988546
36.84836146
36.86904858
36.91832849
37.11294098
37.0586842
37.00556361
37.15637005
37.10913688
37.17055891
37.01925721
37.05984296
37.10231205
37.31409558
37.23722785
37.19944612
37.26621409
37.35109811
37.14688267
37.20196801
36.42508927
36.43025356
36.38440203
36.54455218
36.48469407
36.48616403
36.49283782
36.4858808
36.54099822
36.69449767
36.67521743
36.60763968
36.82512331
36.74764538
36.77396317
36.70950698
36.72713457
36.79644943
37.04428507
36.99172674
36.90699733
37.16743078
37.07849473
37.14395125
36.97122012
37.02048802
37.09906462
37.45542409
37.34740643
37.25769862
37.51708455
37.43441807
37.56169994
37.24263083
37.33207066
37.40483512
37.83864507
37.67154365
37.59735829
37.72340173
37.92067876
37.4482981
37.57689653
36.43256481
36.42755104
36.35543844
36.58795876
36.50469366
36.51471425
36.49012742
36.49663427
36.57284985
36.81171463
36.77641347
36.67819108
36.99904785
36.88311188
36.92926194
36.8057928
36.84268059
36.9471995
37.34571557
37.25795242
37.12379328
37.55517685
37.40151757
37.5094113
37.2185447
37.30484528
37.43880057
38.08691318
37.89312844
37.71916087
38.2641128
38.07479589
38.3200267
37.70300202
37.88055864
38.03954894
39.09871434
38.67939379
38.47352904
38.83287379
39.50245973
38.1459285
38.4625512
36.46612361
36.45556467
36.36305262
36.66975049
36.55708877
36.57482193
36.52713492
36.54161405
36.64647091
36.97807843
36.93212359
36.7944245
37.25245137
37.08409547
37.14255402
36.97625022
37.02947167
37.18373497
37.7599723
37.64755674
37.43908194
38.14782104
37.88216985
38.02068304
37.62569929
37.7515113
37.98462752
39.10105927
38.81473225
38.45703352
39.75751878
39.22874664
39.63624331
38.57932219
38.91112713
39.33761616
40.24427568
40.10338553
40.40254987
36.51862349
36.50362082
36.38769405
36.77873639
36.63358045
36.65573418
36.5920398
36.6130338
36.75018723
37.16946461
37.12028914
36.94032121
37.54724309
37.32135148
37.38208211
37.19943224
37.26151988
37.47355049
38.20158264
38.0942082
37.80266315
38.82448607
38.43073397
38.55940608
38.1587137
38.29726291
38.662184
36.58567566
36.56803242
36.42728864
36.90192043
36.72591263
36.75017636
36.67868
36.70203641
36.87055965
37.36397978
37.31589594
37.09769661
37.83475339
37.56009805
37.61767561
37.44213379
37.50143309
37.76505129
38.59174889
38.5000591
38.14554201
39.38535577
38.90862396
39.01367352
38.68201466
38.79823991
39.25831498
36.66121339
36.64179515
36.47743454
37.029432
36.82552242
36.85099054
36.77496009
36.8000973
36.99728588
37.55264748
37.5062995
37.25539574
38.09876274
37.78589242
37.84019753
37.67453927
37.73057086
38.03464057
38.9306309
38.84933131
38.45071075
39.83190007
39.30469104
39.39615878
39.11418246
39.21107912
39.72741305
45.81672771
45.37341346
45.38005678
45.34609882
45.35982311
45.818637
36.74158881
36.72174848
36.53524277
37.15843121
36.92922122
36.95464472
36.87696481
36.90240882
37.12541696
37.73551327
37.69089041
37.4113192
38.34623062
38.00097059
38.05296712
37.89439027
37.94722089
38.28479535
39.24543305
39.1676335
38.73253609
40.23304262
39.66223199
39.75052074
39.48563703
39.57443877
40.13513296
45.30752147
45.11275516
45.07283228
45.18181807
45.14599554
45.36022656
36.98131763
37.00638692
37.25331329
38.10568973
38.15714572
38.52607638
39.83891747
39.9280074
40.53671021
44.23265767
44.35023805
44.28780952
44.46261071
44.40804549
44.31185507
45.50474973
45.24227722
45.21093637
45.29368041
45.26677753
45.5482472
44.5381112
44.57087095
44.51530518
44.6743063
44.62033576
44.60985462
41.91863127
41.66687624
42.16901925
40.79857586
41.18972418
41.44946086
40.5483251
40.81028603
40.43993814
40.09744644
40.15521026
39.87428354
40.90927223
40.58237075
40.39613538
40.71979149
41.09344904
42.49381548
42.59950097
43.37510743
42.13953542
42.04935548
41.49691541
43.02037449
42.26843196
42.38506514
43.23908238
43.31507719
44.06423117
42.03927221
42.63414514
42.55670189
42.78200774
42.70990185
42.11290511
41.73749497
42.31187365
42.22643185
42.47677552
42.3952116
41.81434877
43.86650696
43.07455561
43.15953041
45.76793488
45.38277028
45.37550783
45.38589211
45.3850018
45.78567749
43.66159681
43.68911658
44.17740857
42.58113334
43.14134043
43.09204662
43.23346253
43.18927164
42.64422674
42.32405044
42.91715566
42.85194134
43.03723409
42.97997656
42.3933465
44.18283852
43.59460683
43.63093858
45.07316684
44.95396302
44.90811274
45.03621172
44.99320634
45.13445698
44.0062459
43.90107404
43.28529045
42.80823523
43.31359518
43.27542785
43.38054263
43.34860533
42.84149536
44.10970274
43.78045436
43.79131983
43.89612063
44.10899906
44.04801737
44.23132904
44.16569243
43.98166584
40.21522367
40.04505434
38.73368218
40.97378336
41.16760232
41.65041925
40.4599683
41.52059465
41.39516269
49.91098171
49.16194045
49.3386872
48.85359131
49.0033436
49.64282879
51.57251916
50.76088862
50.75938787
50.65190627
50.72356113
51.58595396
47.42980159
47.37050571
47.85625241
46.29977019
46.83634286
46.86438969
46.77531414
46.80678388
46.29677365
46.30300695
46.93765739
46.94805128
46.89110739
46.91627831
46.29645574
48.14632678
47.53801119
47.48590013
49.16095634
49.14044075
49.01675411
49.37291965
49.25101537
49.31321635
47.07485127
47.59404865
47.4607235
47.86063234
47.72736923
47.24193667
47.88988903
47.89926924
48.00481052
51.29833381
50.6587986
50.59214755
50.74541876
50.70615711
51.39019729
49.75844162
49.59816436
49.48067116
49.81260029
49.70169819
49.90381087
45.66226816
45.3356309
45.31362896
45.36662104
45.35075841
45.69411448
47.25772011
47.3666317
47.47028721
46.41382855
47.05772922
46.92149128
47.32713995
47.19306684
46.57953338
42.23860863
42.11574683
41.14110539
42.6752947
43.38148058
43.27249174
44.81587755
44.77310091
44.72066015
44.8663973
44.81678469
44.88119954
41.4362492
40.65837968
40.80837575
43.98330163
41.37558916
41.5553919
42.22726812
41.52062447
40.97678888
41.18373832
44.62801725
44.96883811
45.63498807
43.96023084
44.36004841
44.04457241
44.91303097
44.63995121
44.18016597
43.71703976
43.3428117
43.17295291
44.23636886
43.87685259
44.26432986
47.67807653
47.69190727
48.52024302
46.12840007
46.89171664
46.8249724
46.95004587
46.9309821
46.20184732
45.78557998
46.53670692
46.42709762
46.7382055
46.63883022
45.87315482
48.5656927
47.54464373
47.63054244
46.69010311
46.86207887
47.85869101
45.36440577
46.0609145
45.90959685
46.31610373
46.19032982
45.47659667
44.77962408
45.37508829
45.1486854
45.75300982
45.56748869
44.93825648
47.21700762
46.30155443
46.50712087
41.76116932
42.05897508
41.94678332
41.85681166
42.09179739
43.69411423
43.48443549
43.89328037
42.55301357
42.85758298
43.1002198
42.51264064
42.68445085
42.321273
39.32331401
40.50668062
40.353934
50.79813549
49.81550352
49.97828247
49.49529126
49.6652071
50.60630213
51.4350031
50.41030017
50.54208144
50.12188275
50.2750324
51.30902091
47.34786158
48.08770456
49.06589177
48.02728517
47.41439779
47.13255809
46.41645114
46.06794662
46.64646666
48.49693304
48.64596821
48.52064943
48.89849339
48.76762066
48.67832543
48.10885337
48.21361082
48.14302883
47.75119056
48.12638487
47.99363755
48.39072269
48.25873337
47.9277215
50.85537239