/*--------------------------------*- C++ -*----------------------------------*\
| =========                 |                                                 |
| \\      /  F ield         | OpenFOAM: The Open Source CFD Toolbox           |
|  \\    /   O peration     | Version:  v2012                                 |
|   \\  /    A nd           | Website:  www.openfoam.com                      |
|    \\/     M anipulation  |                                                 |
\*---------------------------------------------------------------------------*/
FoamFile
{
    version     2.0;
    format      ascii;
    class       surfaceVectorField;
    location    "1.39";
    object      Uf;
}
// * * * * * * * * * * * * * * * * * * * * * * * * * * * * * * * * * * * * * //

dimensions      [0 1 -1 0 0 0 0];


internalField   nonuniform List<vector> 
6430
(
(101.2949369 -0.3862047749 5.730992677e-20)
(101.5158072 -0.1995372049 3.41371189e-21)
(101.2093978 -0.7839229374 -5.248746315e-20)
(101.4631719 -0.6037475856 5.394152161e-20)
(101.0604413 -1.203970816 -1.003955881e-19)
(101.3611392 -1.022166696 -1.087219333e-19)
(100.7487857 -1.634777556 -1.534594781e-21)
(101.1927092 -1.487365763 -2.94023865e-22)
(100.9085429 -1.682857971 3.183445877e-19)
(100.5317901 -1.698945022 -8.572035968e-22)
(100.7512615 -1.792163716 2.181803474e-19)
(100.548696 -1.865731905 -8.602197279e-22)
(100.1106699 -2.209268879 0)
(100.3528236 -2.134032028 0)
(100.3877462 -2.332962445 0)
(100.1252908 -2.424997438 0)
(99.58104068 -2.835296603 3.268394235e-20)
(99.87538041 -2.743774738 3.772957207e-21)
(99.91818987 -2.99560873 -2.256199142e-19)
(99.54233298 -3.069995487 -7.949912191e-21)
(99.66611486 -3.123525607 -7.240860671e-21)
(99.00888146 -3.494754295 1.2176629e-19)
(99.19710932 -3.443785841 2.449774747e-19)
(99.20994481 -3.586663454 1.421162714e-21)
(99.00687568 -3.649525323 -3.926232857e-20)
(98.0422791 -4.40234356 -1.993418267e-19)
(98.30232882 -4.337659717 2.226697991e-21)
(98.29852727 -4.514736669 -2.983566759e-22)
(98.02447724 -4.595441132 -1.30758595e-19)
(96.71650588 -5.562903101 -2.657991007e-19)
(97.05730844 -5.476156143 -1.405543472e-19)
(97.04477759 -5.702978661 -5.555674294e-21)
(96.68642899 -5.811140923 2.097397369e-19)
(94.97120818 -7.082123953 -2.889983478e-19)
(95.40861683 -6.966193473 -5.779888228e-21)
(95.38896235 -7.285022828 -2.479544406e-19)
(94.84661922 -7.368287559 -6.41077133e-21)
(94.99277139 -7.440702258 -1.925417562e-19)
(93.20755506 -8.765623716 -1.22599057e-19)
(93.33678822 -8.753533716 -4.132759627e-20)
(93.31910321 -8.849240015 -1.226709562e-19)
(93.20341038 -8.870360228 -1.237416152e-19)
(101.6800362 -0.4162334934 0)
(101.9068165 -0.2114143668 0)
(101.6110647 -0.8450279577 0)
(101.865959 -0.6406772667 0)
(101.4911249 -1.299598918 0)
(101.7881627 -1.08333041 0)
(101.2249735 -1.775210659 0)
(101.6584651 -1.570364105 0)
(101.3967414 -1.815591341 0)
(101.0098819 -1.870580328 2.183574776e-19)
(101.2551084 -1.929439606 0)
(101.0550605 -2.036271068 0)
(100.663932 -2.435387325 0)
(100.8950679 -2.32818374 0)
(100.959964 -2.511889449 0)
(100.7140423 -2.643295682 0)
(100.24792 -3.125082444 -2.288295373e-19)
(100.5209575 -2.987629387 0)
(100.6029527 -3.211706569 2.022104974e-20)
(100.2605318 -3.349410635 1.461490061e-19)
(100.3894629 -3.375417278 0)
(99.82248634 -3.819414176 -2.510684407e-19)
(99.9956252 -3.743283684 9.547107229e-20)
(100.0365868 -3.872311047 9.107515061e-20)
(99.85037262 -3.961609101 1.231136791e-19)
(99.07114045 -4.7878363 1.182963523e-19)
(99.307539 -4.6887342 -2.631447215e-19)
(99.34120706 -4.84341578 -1.054314488e-19)
(99.09348421 -4.960495823 -1.794464835e-19)
(98.04409776 -6.032125083 1.179728929e-19)
(98.35394654 -5.894215512 -1.921733619e-19)
(98.39605519 -6.089032221 -1.752499568e-19)
(98.07373217 -6.254729994 1.027422055e-19)
(96.72270866 -7.766137037 -6.444654248e-20)
(97.13138804 -7.546899686 9.578461226e-20)
(97.21727145 -7.825846434 9.230792995e-20)
(96.70729448 -8.057409348 2.157351852e-19)
(96.89608844 -8.078083367 6.152965921e-20)
(95.51317023 -10.1347929 1.18332092e-19)
(95.74873153 -10.06285455 -2.949450822e-20)
(95.87951848 -10.31562914 1.391760097e-19)
(95.4279896 -10.28456169 -1.966885465e-20)
(95.4539269 -10.48252019 -1.966372048e-20)
(95.60664359 -10.5091788 2.596072122e-19)
(102.0884569 -0.4348164219 0)
(102.3152825 -0.2175741093 0)
(102.0375606 -0.8819307752 0)
(102.2859548 -0.6598832967 0)
(101.9483102 -1.353908342 0)
(102.2315379 -1.114591347 0)
(101.7294959 -1.850531424 0)
(102.1376059 -1.606261874 0)
(101.9051961 -1.877386175 0)
(101.5192539 -1.972221701 0)
(101.7802324 -1.999108476 0)
(101.5923086 -2.128360908 0)
(101.2598204 -2.564156405 0)
(101.4732958 -2.42919784 0)
(101.5610312 -2.594039345 0)
(101.3414446 -2.749822476 0)
(100.9583272 -3.262913053 5.259306644e-22)
(101.2039775 -3.096640954 -1.919588743e-20)
(101.3113066 -3.284133776 -2.222493281e-20)
(101.0085602 -3.46263971 1.019740307e-19)
(101.1353034 -3.479241294 -5.810957492e-20)
(100.6755808 -3.962307603 -2.36343565e-20)
(100.8243612 -3.866386135 -1.959566715e-19)
(100.8840515 -3.973380333 -1.457147462e-19)
(100.7279257 -4.079774435 -9.76678157e-20)
(100.1434747 -4.913905622 -2.224690719e-22)
(100.3468714 -4.789462101 7.624064394e-20)
(100.402097 -4.909446965 2.404757479e-19)
(100.1961996 -5.049929958 2.461955309e-20)
(99.43315756 -6.109083673 -1.932421627e-20)
(99.69034879 -5.933726692 6.815717194e-23)
(99.76248391 -6.07268029 -3.378957641e-20)
(99.50917498 -6.269322697 -2.433230404e-20)
(98.67516167 -7.717333635 0)
(98.98227729 -7.444602382 0)
(99.12040372 -7.60263317 2.13455461e-20)
(98.854444 -7.910064269 8.631659682e-20)
(98.65542638 -9.983996081 -2.666909627e-19)
(98.71046409 -9.561946217 -1.588494072e-19)
(98.43696914 -9.708539563 -1.653997321e-19)
(93.33617331 -9.351642805 -1.423560088e-19)
(98.38052597 -10.21859721 6.069099941e-20)
(102.5086171 -0.4419654299 0)
(102.7304885 -0.2185016066 0)
(102.4748745 -0.8950460572 0)
(102.7115797 -0.6626182965 0)
(102.4146231 -1.37023552 0)
(102.6779563 -1.118071578 0)
(102.2406531 -1.875241894 0)
(102.6160263 -1.601256583 0)
(102.4136286 -1.883736459 0)
(102.0419044 -2.011858633 0)
(102.3041851 -2.011520583 0)
(102.1338948 -2.154457689 0)
(101.8593681 -2.603469598 0)
(102.0512023 -2.451428511 0)
(102.1532045 -2.594446808 0)
(101.9619054 -2.764203343 0)
(101.6576442 -3.277932106 -3.005861598e-21)
(101.8722384 -3.098673805 0)
(101.993728 -3.247300388 0)
(101.7322216 -3.462326485 -4.177116391e-20)
(101.8506092 -3.450567446 -1.380173959e-21)
(101.486118 -3.955430675 4.15716475e-20)
(101.6104891 -3.848144743 7.097770316e-22)
(101.6785666 -3.932875888 8.075553924e-20)
(101.5512139 -4.047627434 1.231436035e-19)
(101.1415957 -4.824814796 1.723252058e-19)
(101.3079712 -4.689053798 0)
(101.3715291 -4.776774375 7.76590462e-20)
(101.2063545 -4.922077019 -1.642603796e-19)
(100.6714326 -5.864644132 8.726927667e-20)
(100.8699801 -5.684338836 9.526460663e-20)
(100.9447419 -5.769975857 5.676103086e-20)
(100.7555251 -5.961786177 -1.958545237e-20)
(100.2640157 -7.122667607 -3.614253434e-20)
(100.4654114 -6.870278934 5.321775036e-20)
(100.5767371 -6.930949844 2.845275701e-20)
(100.4133896 -7.190971634 -6.928991333e-20)
(97.95075465 -8.340322512 -5.959735528e-20)
(99.10650127 -8.064553296 -3.009886739e-20)
(97.6513798 -7.898630985 4.411749997e-21)
(94.11978343 -7.770041619 0)
(102.9298393 -0.4389796771 0)
(103.1428655 -0.2149928535 0)
(102.910785 -0.8874625197 0)
(103.132861 -0.65139472 0)
(102.8752404 -1.354391969 0)
(103.1165893 -1.097966333 0)
(102.7408079 -1.855549445 0)
(103.0812344 -1.562323191 0)
(102.9062519 -1.843672419 0)
(102.5577184 -1.998788954 0)
(102.8110131 -1.975547125 0)
(102.6604205 -2.125199125 0)
(102.4390402 -2.568887521 0)
(102.6076498 -2.408612041 0)
(102.7160684 -2.528881172 0)
(102.5522718 -2.703495359 0)
(102.3168768 -3.195859415 0)
(102.4996586 -3.014426067 0)
(102.6248651 -3.127142534 0)
(102.402288 -3.360015372 0)
(102.5088092 -3.324590248 0)
(102.2240781 -3.82220528 -1.76079664e-20)
(102.3259861 -3.709888464 4.46561214e-22)
(102.3943627 -3.772970311 4.662148415e-21)
(102.2912117 -3.89044667 5.302924269e-20)
(102.001682 -4.588245076 -2.109680812e-19)
(102.1325892 -4.454504208 -3.502310791e-20)
(102.1922966 -4.511322372 -1.676660142e-19)
(102.0624212 -4.651127834 -1.349876449e-19)
(101.6666901 -5.43407231 7.468672019e-21)
(101.8177989 -5.267450225 -1.211897502e-19)
(101.874089 -5.310062172 -3.861255739e-20)
(101.7305034 -5.480366723 -1.666356958e-20)
(101.3528969 -6.335698106 -9.749573981e-20)
(101.4933009 -6.128841473 -1.148358983e-19)
(101.5673134 -6.140194741 -2.039484937e-19)
(101.4647976 -6.347908429 -2.637266895e-20)
(96.55693056 -6.7369413 7.558972016e-20)
(98.41313721 -6.706826285 -1.465113117e-19)
(96.19953875 -6.409924013 -1.930312956e-20)
(94.38969277 -6.52179674 -3.730417499e-20)
(103.3430606 -0.427675696 0)
(103.5446236 -0.207935366 0)
(103.3357818 -0.8630100515 0)
(103.5417914 -0.6290778722 0)
(103.3197872 -1.312602638 0)
(103.5389361 -1.059178636 0)
(103.2179588 -1.798138175 0)
(103.5239837 -1.497225918 0)
(103.372692 -1.769689708 0)
(103.0521405 -1.942152556 0)
(103.2902549 -1.901236123 0)
(103.1586208 -2.051627197 0)
(102.9818356 -2.476664881 0)
(103.1281962 -2.315388815 0)
(103.2364488 -2.414394536 0)
(103.0971674 -2.58641253 0)
(102.9162796 -3.044445317 0)
(103.0699762 -2.867875532 0)
(103.1903888 -2.950843454 0)
(103.0019112 -3.184162465 0)
(103.0952107 -3.13521023 0)
(102.8683466 -3.598818329 0)
(102.9520388 -3.490058685 0)
(103.0144616 -3.534324139 0)
(102.9300626 -3.645622731 0)
(102.7066145 -4.250676741 -5.753894959e-20)
(102.8121011 -4.123742923 -3.633994658e-21)
(102.8598438 -4.156816487 -6.546015799e-21)
(102.7539688 -4.285998873 0)
(102.4093382 -4.920821767 1.051509134e-19)
(102.5310167 -4.773942021 -6.403769683e-20)
(102.5622985 -4.788579968 -9.232996314e-20)
(102.4440177 -4.935035699 -1.022827471e-19)
(102.1015367 -5.574214267 -6.43395917e-21)
(102.2037941 -5.406822523 8.33754873e-20)
(102.2465302 -5.393537607 -1.124947492e-21)
(102.1522231 -5.558875237 6.713012092e-20)
(95.44100771 -5.614971251 1.256424714e-19)
(97.40903935 -5.627062014 -1.59495144e-20)
(95.327656 -5.403965058 5.738897615e-20)
(94.9915589 -5.653314584 6.441175648e-20)
(103.741247 -0.4099385878 0)
(103.9297194 -0.1982132353 0)
(103.7428129 -0.825609847 0)
(103.9322512 -0.5985103254 0)
(103.7411536 -1.251291935 0)
(103.9388214 -1.00662317 0)
(103.664094 -1.71209018 0)
(103.9381039 -1.413894102 0)
(103.8064176 -1.67216417 0)
(103.5150252 -1.852798676 0)
(103.7349607 -1.799760779 0)
(103.6201154 -1.946226628 0)
(103.4782656 -2.344124906 0)
(103.6047089 -2.187330204 0)
(103.7080496 -2.267685405 0)
(103.5891371 -2.431924341 0)
(103.44717 -2.849225486 0)
(103.5767238 -2.682275936 0)
(103.6872836 -2.742357063 0)
(103.5257697 -2.965638696 0)
(103.6057731 -2.910141627 0)
(103.4175101 -3.32880037 0)
(103.4875748 -3.22798035 0)
(103.5408577 -3.257654095 0)
(103.4696516 -3.359274225 0)
(103.2713284 -3.867024848 0)
(103.3603924 -3.753020653 0)
(103.3939185 -3.769981546 0)
(103.302918 -3.883505392 0)
(102.9608646 -4.394096527 -5.328497278e-21)
(103.0674553 -4.266855548 3.169562898e-22)
(103.0768361 -4.265581361 3.168757224e-22)
(102.9710748 -4.390289383 -3.038473022e-21)
(102.5942535 -4.876810167 6.131540289e-20)
(102.6855044 -4.740642295 2.979002594e-20)
(102.6857747 -4.713544919 3.489545612e-20)
(102.533986 -4.840041929 6.597135754e-22)
(95.35255992 -4.875769557 3.936099158e-20)
(96.96909914 -4.844406431 -3.72445171e-22)
(95.43942616 -4.720479267 0)
(95.88200481 -4.965673935 0)
(104.1192729 -0.38761864 0)
(104.293848 -0.1866739048 0)
(104.1268682 -0.7791531478 0)
(104.3000382 -0.5623940394 0)
(104.1346357 -1.176817637 0)
(104.3123869 -0.9449059313 0)
(104.0748911 -1.607212338 0)
(104.3203868 -1.319479595 0)
(104.2041703 -1.560311267 0)
(103.9411882 -1.741663645 0)
(104.1416627 -1.681421426 0)
(104.0410997 -1.820631221 0)
(103.9247581 -2.186782547 0)
(104.0343667 -2.038203376 0)
(104.1295597 -2.102920822 0)
(104.0268253 -2.256204962 0)
(103.9107879 -2.632513878 0)
(104.020964 -2.476086906 0)
(104.1183498 -2.521287921 0)
(103.9772372 -2.722826309 0)
(104.0457094 -2.671269287 0)
(103.8796756 -3.041057788 0)
(103.9402406 -2.949605938 0)
(103.9832173 -2.96875079 0)
(103.9208011 -3.059817872 0)
(103.7234245 -3.482944618 0)
(103.8023014 -3.383068697 0)
(103.8217629 -3.389442134 0)
(103.7395114 -3.487740021 0)
(103.3818988 -3.896094921 0)
(103.4795273 -3.788443498 0)
(103.471067 -3.778801141 0)
(103.3725946 -3.883354006 0)
(102.9107316 -4.254210532 0)
(103.0148395 -4.143391729 0)
(102.9711377 -4.111316029 0)
(102.7626208 -4.207689285 0)
(95.76728765 -4.278181657 0)
(97.10668726 -4.217218163 0)
(95.8773768 -4.139973855 0)
(96.55111542 -4.334396899 0)
(104.473771 -0.3624299164 0)
(104.634334 -0.1740769046 0)
(104.4848579 -0.7271901386 0)
(104.6426948 -0.5231405296 0)
(104.4977228 -1.094752608 0)
(104.6576948 -0.8780801046 0)
(104.4488723 -1.491293162 0)
(104.6696192 -1.219835169 0)
(104.5654383 -1.44168919 0)
(104.3286115 -1.618178229 0)
(104.5100875 -1.554686675 0)
(104.420977 -1.684464307 0)
(104.3218486 -2.017439002 0)
(104.4178326 -1.879198582 0)
(104.5030356 -1.931414747 0)
(104.4125082 -2.072041212 0)
(104.3109239 -2.409920494 0)
(104.4066932 -2.264069525 0)
(104.4894658 -2.299428927 0)
(104.3641513 -2.476497233 0)
(104.4225086 -2.431737725 0)
(104.2672811 -2.754507758 0)
(104.3216459 -2.672721802 0)
(104.3541216 -2.684517335 0)
(104.2972316 -2.765156674 0)
(104.0868543 -3.11804314 0)
(104.1597264 -3.031218644 0)
(104.1662651 -3.030979002 0)
(104.0889531 -3.115743295 0)
(103.7072561 -3.445495357 0)
(103.8000648 -3.354419604 0)
(103.7768644 -3.340573855 0)
(103.6817196 -3.428510567 0)
(103.1198573 -3.713837916 0)
(103.2433579 -3.624444936 0)
(103.1604912 -3.591010555 0)
(102.9040594 -3.667696579 0)
(96.19594006 -3.751681471 0)
(97.31988551 -3.680432444 0)
(96.29749136 -3.631593231 0)
(97.05194195 -3.788523505 0)
(104.8028967 -0.3358393193 0)
(104.9498211 -0.1610546362 0)
(104.8153562 -0.6726912405 0)
(104.9591158 -0.4827518896 0)
(104.8297325 -1.009699877 0)
(104.9742803 -0.8095140524 0)
(104.7867071 -1.371673642 0)
(104.986313 -1.119479692 0)
(104.8911874 -1.321973855 0)
(104.6781004 -1.489818223 0)
(104.8413449 -1.426078966 0)
(104.7613776 -1.545458616 0)
(104.672691 -1.845790366 0)
(104.7579665 -1.71881813 0)
(104.8322726 -1.761280119 0)
(104.7507928 -1.8886851 0)
(104.654919 -2.190673857 0)
(104.740537 -2.055935861 0)
(104.8082245 -2.08427208 0)
(104.6947715 -2.238115498 0)
(104.7445253 -2.200169151 0)
(104.5924927 -2.480499419 0)
(104.6430087 -2.40799495 0)
(104.6654794 -2.414788072 0)
(104.6118205 -2.485701635 0)
(104.3812676 -2.78109522 0)
(104.4508409 -2.705870315 0)
(104.4459579 -2.701712571 0)
(104.3712316 -2.774742653 0)
(103.9628102 -3.044055544 0)
(104.0533533 -2.966719274 0)
(104.0180669 -2.951154397 0)
(103.9237939 -3.025548096 0)
(103.2613478 -3.248997176 0)
(103.405742 -3.175925788 0)
(103.2890583 -3.143245918 0)
(102.9929418 -3.205428285 0)
(96.58655357 -3.29773606 0)
(97.53995362 -3.225353969 0)
(96.67751634 -3.194653818 0)
(97.44955016 -3.322197096 0)
(105.1060741 -0.3090206707 0)
(105.2401148 -0.1480997376 0)
(105.1182537 -0.6180021069 0)
(105.2493568 -0.4427672632 0)
(105.1313723 -0.9251482641 0)
(105.2628131 -0.7418007376 0)
(105.0902085 -1.253394114 0)
(105.2720898 -1.021754841 0)
(105.1835372 -1.205327177 0)
(104.9915627 -1.362169039 0)
(105.1378054 -1.300321084 0)
(105.064981 -1.409079549 0)
(104.9815323 -1.678507481 0)
(105.058618 -1.562960564 0)
(105.1218692 -1.597915245 0)
(105.0468718 -1.712342558 0)
(104.9501726 -1.98064261 0)
(105.0291997 -1.858063708 0)
(105.0820459 -1.880237359 0)
(104.9774737 -2.015391507 0)
(105.019931 -1.9815161 0)
(104.8661472 -2.225372324 0)
(104.914475 -2.16149967 0)
(104.927693 -2.164948995 0)
(104.8757235 -2.227025574 0)
(104.6219709 -2.47547224 0)
(104.6899525 -2.410359367 0)
(104.6751867 -2.404050208 0)
(104.6016197 -2.467015259 0)
(104.1668932 -2.689402711 0)
(104.2566856 -2.623454363 0)
(104.2114701 -2.607624572 0)
(104.1165762 -2.670913035 0)
(103.3582988 -2.848475761 0)
(103.5228516 -2.788054353 0)
(103.3774825 -2.757275713 0)
(103.0498927 -2.808478613 0)
(96.93428839 -2.90752724 0)
(97.75654311 -2.837152432 0)
(97.01459244 -2.818702373 0)
(97.76793291 -2.922647799 0)
(105.3837104 -0.2828584702 0)
(105.5058317 -0.1355823419 0)
(105.3943835 -0.5648678626 0)
(105.5142617 -0.4043155501 0)
(105.4042377 -0.8436130094 0)
(105.524666 -0.6768243376 0)
(105.3619797 -1.139896873 0)
(105.5291484 -0.9290256681 0)
(105.4452009 -1.094612349 0)
(105.2717299 -1.239170692 0)
(105.4024235 -1.180671583 0)
(105.3351144 -1.279029159 0)
(105.2530944 -1.519862071 0)
(105.3240426 -1.415469367 0)
(105.3764897 -1.444600411 0)
(105.3060851 -1.546817803 0)
(105.2045828 -1.783556272 0)
(105.2795083 -1.673866224 0)
(105.3185 -1.690934172 0)
(105.2194691 -1.810682897 0)
(105.2558002 -1.779591218 0)
(105.0971843 -1.992012464 0)
(105.1443868 -1.935936523 0)
(105.1493292 -1.93718454 0)
(105.0980359 -1.991440707 0)
(104.8206573 -2.201514909 0)
(104.8880803 -2.145149162 0)
(104.8648648 -2.137851001 0)
(104.7916228 -2.192203498 0)
(104.3323677 -2.377734287 0)
(104.4223216 -2.321281787 0)
(104.3688281 -2.306044614 0)
(104.2723379 -2.360090183 0)
(103.425903 -2.502977051 0)
(103.6087579 -2.452548569 0)
(103.439487 -2.424267388 0)
(103.0879012 -2.467007689 0)
(97.24051779 -2.570881384 0)
(97.96487438 -2.50405567 0)
(97.31106797 -2.49409978 0)
(98.02503476 -2.579149177 0)
(105.6368982 -0.2579879284 0)
(105.7481994 -0.1237683254 0)
(105.645189 -0.5145257185 0)
(105.7552538 -0.3681855011 0)
(105.6504021 -0.7668289425 0)
(105.7616931 -0.615877204 0)
(105.6049296 -1.033460051 0)
(105.7600173 -0.8428569683 0)
(105.6791092 -0.9916965752 0)
(105.5216758 -1.123461846 0)
(105.6383512 -1.069240016 0)
(105.575242 -1.157669083 0)
(105.4918989 -1.372367285 0)
(105.5583634 -1.278646557 0)
(105.6004999 -1.303305708 0)
(105.5331583 -1.394247216 0)
(105.4245043 -1.602571654 0)
(105.4970074 -1.505184563 0)
(105.5232137 -1.518575562 0)
(105.4276287 -1.624309789 0)
(105.4588748 -1.596221979 0)
(105.2932699 -1.781257937 0)
(105.3401427 -1.732153176 0)
(105.3376957 -1.732097272 0)
(105.2864044 -1.779440965 0)
(104.9862586 -1.958088475 0)
(105.0537332 -1.909286712 0)
(105.0233383 -1.901796025 0)
(104.9499539 -1.948754198 0)
(104.468248 -2.104961694 0)
(104.5589629 -2.056517205 0)
(104.4983988 -2.042372936 0)
(104.3996843 -2.088609715 0)
(103.4742222 -2.204887542 0)
(103.6730394 -2.1625126 0)
(103.4841154 -2.137002309 0)
(103.114968 -2.173043068 0)
(97.50953558 -2.279799725 0)
(98.16299842 -2.217237082 0)
(97.57159977 -2.213380555 0)
(98.23480769 -2.283298121 0)
(105.8671877 -0.2348441865 0)
(105.9688117 -0.112840804 0)
(105.8724992 -0.4678093144 0)
(105.9740891 -0.3349053502 0)
(105.8721826 -0.6959263328 0)
(105.975986 -0.5598056542 0)
(105.8220446 -0.935486904 0)
(105.9673107 -0.7642142616 0)
(105.8882153 -0.8976977032 0)
(105.7445598 -1.016682953 0)
(105.8487563 -0.9672730499 0)
(105.7887629 -1.046411229 0)
(105.7021674 -1.237533409 0)
(105.7654608 -1.153807813 0)
(105.7979451 -1.175112752 0)
(105.7324569 -1.255758632 0)
(105.6152379 -1.438980445 0)
(105.6865066 -1.352908707 0)
(105.7010868 -1.363802588 0)
(105.6074746 -1.456814296 0)
(105.6344843 -1.4317901 0)
(105.4606883 -1.592992817 0)
(105.5077699 -1.55007956 0)
(105.4987619 -1.549369577 0)
(105.4470337 -1.590615421 0)
(105.1256685 -1.743414362 0)
(105.1935403 -1.701164706 0)
(105.1570745 -1.694016045 0)
(105.0832905 -1.734600916 0)
(104.5810266 -1.867160727 0)
(104.6729236 -1.825542799 0)
(104.6062003 -1.812763223 0)
(104.5048938 -1.852343886 0)
(103.5098048 -1.947901299 0)
(103.7221824 -1.912137842 0)
(103.5172428 -1.889460573 0)
(103.1358512 -1.920056808 0)
(97.74666358 -2.028049842 0)
(98.35067968 -1.969970442 0)
(97.80158252 -1.970671551 0)
(98.4081942 -2.02843966 0)
(106.0764345 -0.2137050484 0)
(106.169566 -0.1029135828 0)
(106.0783864 -0.4252379902 0)
(106.1727921 -0.3047913129 0)
(106.0720187 -0.6315762319 0)
(106.1698199 -0.5091020108 0)
(106.0162472 -0.846762117 0)
(106.1536864 -0.693597743 0)
(106.0754038 -0.8131879879 0)
(105.9434498 -0.9197677634 0)
(106.0366606 -0.8754286404 0)
(105.9788901 -0.9459914622 0)
(105.8877175 -1.116082569 0)
(105.9488837 -1.041560189 0)
(105.9724486 -1.060430158 0)
(105.9078908 -1.131752387 0)
(105.7812887 -1.292996144 0)
(105.852229 -1.217163755 0)
(105.8562991 -1.226499319 0)
(105.7636007 -1.308021788 0)
(105.7870772 -1.286015632 0)
(105.6045214 -1.426500051 0)
(105.6521769 -1.389061223 0)
(105.6373762 -1.388157855 0)
(105.584928 -1.424040702 0)
(105.244196 -1.555511672 0)
(105.3126552 -1.518943494 0)
(105.2710698 -1.51248127 0)
(105.1967323 -1.547554505 0)
(104.6755232 -1.660823444 0)
(104.7688924 -1.625067705 0)
(104.6967424 -1.613783386 0)
(104.5926564 -1.647658584 0)
(103.5368857 -1.726855779 0)
(103.7605732 -1.696603894 0)
(103.5426752 -1.676692449 0)
(103.1533285 -1.702767747 0)
(97.95719135 -1.810732847 0)
(98.52855725 -1.757054316 0)
(98.00624404 -1.761295103 0)
(98.55370894 -1.809278053 0)
(106.2666906 -0.1947282182 0)
(106.3524935 -0.09405072923 0)
(106.2650637 -0.387093727 0)
(106.3534902 -0.278009601 0)
(106.2523885 -0.5741077923 0)
(106.3455007 -0.464012798 0)
(106.1903692 -0.7676077957 0)
(106.3217203 -0.6312018406 0)
(106.2434392 -0.7383556771 0)
(106.1213086 -0.833119623 0)
(106.2049511 -0.7939192964 0)
(106.1486606 -0.85665092 0)
(106.0520166 -1.008151531 0)
(106.1118905 -0.9420037353 0)
(106.1272914 -0.9591984614 0)
(106.0629491 -1.022130273 0)
(105.9265618 -1.164232221 0)
(105.9978537 -1.097589801 0)
(105.9924661 -1.106101176 0)
(105.8998936 -1.177296552 0)
(105.9204292 -1.158200229 0)
(105.7289575 -1.280699204 0)
(105.7774211 -1.248093169 0)
(105.7575267 -1.247334819 0)
(105.7041888 -1.278502824 0)
(105.3459861 -1.392323144 0)
(105.4151343 -1.360700954 0)
(105.3692173 -1.35515032 0)
(105.2942246 -1.385428234 0)
(104.7554374 -1.482809095 0)
(104.8504642 -1.452127389 0)
(104.7734899 -1.442397109 0)
(104.6665567 -1.47134245 0)
(103.5582328 -1.537435319 0)
(103.7912196 -1.511853459 0)
(103.5629038 -1.494584167 0)
(103.1690062 -1.516825357 0)
(98.14598532 -1.623764411 0)
(98.69764146 -1.574246983 0)
(98.19031331 -1.581346565 0)
(98.67799576 -1.621429638 0)
(106.4400741 -0.1779874006 0)
(106.5196947 -0.08628004703 0)
(106.4347648 -0.3534949069 0)
(106.5183527 -0.2546190402 0)
(106.415709 -0.5236237558 0)
(106.5053195 -0.4246119 0)
(106.3470711 -0.6980574429 0)
(106.4738828 -0.5770141607 0)
(106.3949181 -0.6731470896 0)
(106.2809053 -0.7568061188 0)
(106.3563108 -0.7226962175 0)
(106.3008709 -0.7783316922 0)
(106.198156 -0.9135381479 0)
(106.257417 -0.8549440473 0)
(106.2653988 -0.8711065433 0)
(106.2007005 -0.9265207902 0)
(106.0543901 -1.051998682 0)
(106.126543 -0.9935823779 0)
(106.1126455 -1.001792591 0)
(106.0196449 -1.063773749 0)
(106.0377609 -1.047422988 0)
(105.8374642 -1.154378566 0)
(105.8868811 -1.126040138 0)
(105.8625184 -1.125694268 0)
(105.8081938 -1.152708369 0)
(105.4342824 -1.251886981 0)
(105.5041767 -1.224598183 0)
(105.4545647 -1.220114122 0)
(105.3788419 -1.246186574 0)
(104.8236324 -1.330378362 0)
(104.9204274 -1.304129079 0)
(104.8391265 -1.295978299 0)
(104.7293519 -1.320620989 0)
(103.5756802 -1.376073838 0)
(103.8162146 -1.354516859 0)
(103.5795903 -1.33975717 0)
(103.1838038 -1.358678776 0)
(98.31740435 -1.463737213 0)
(98.85898908 -1.418086185 0)
(98.35801589 -1.427592995 0)
(98.78633939 -1.461313051 0)
(106.5987777 -0.1634962272 0)
(106.6732917 -0.07960684951 0)
(106.5897548 -0.3244467795 0)
(106.66955 -0.2346102627 0)
(106.564365 -0.4800703023 0)
(106.6515206 -0.3908566708 0)
(106.4888639 -0.6379918451 0)
(106.6125575 -0.5309167314 0)
(106.5322795 -0.6173717736 0)
(106.4248245 -0.6906876394 0)
(106.4932226 -0.6615428003 0)
(106.4381006 -0.7107978795 0)
(106.3289101 -0.8318575758 0)
(106.3881276 -0.780018436 0)
(106.3894199 -0.7957089182 0)
(106.3238811 -0.844420739 0)
(106.1675134 -0.9553189785 0)
(106.241001 -0.9045112571 0)
(106.2193931 -0.9124444272 0)
(106.1257104 -0.9669949135 0)
(106.1418452 -0.9524735943 0)
(105.9329555 -1.046357802 0)
(105.9834249 -1.021805876 0)
(105.955129 -1.022074959 0)
(105.8997647 -1.045407805 0)
(105.5116613 -1.132401765 0)
(105.582348 -1.108927495 0)
(105.5295537 -1.105607833 0)
(105.4530331 -1.127972173 0)
(104.8823591 -1.201156588 0)
(104.9809921 -1.178802901 0)
(104.8957819 -1.172229 0)
(104.7832074 -1.193090138 0)
(103.5904925 -1.23983136 0)
(103.8370737 -1.221780913 0)
(103.5938969 -1.209397834 0)
(103.1982626 -1.225404653 0)
(98.47531935 -1.327821185 0)
(99.01357236 -1.285747828 0)
(98.5130847 -1.297322933 0)
(98.88301757 -1.32594521 0)
(106.7447855 -0.151240286 0)
(106.8153667 -0.07401771771 0)
(106.7320735 -0.2998943025 0)
(106.8091878 -0.2179278326 0)
(106.7004749 -0.4433100783 0)
(106.7862452 -0.3626366402 0)
(106.6180297 -0.5870408122 0)
(106.7399069 -0.4926769514 0)
(106.6577729 -0.5707088856 0)
(106.5554354 -0.6344903471 0)
(106.6180222 -0.6101662404 0)
(106.562725 -0.6536687549 0)
(106.4468102 -0.7625993063 0)
(106.5064582 -0.7167635149 0)
(106.5017472 -0.7324406802 0)
(106.4350042 -0.7752413831 0)
(106.2685734 -0.8731113957 0)
(106.3438125 -0.8296297402 0)
(106.3153405 -0.8372676849 0)
(106.2204135 -0.8862901307 0)
(106.2348908 -0.8725443173 0)
(106.0177794 -0.955497336 0)
(106.0693281 -0.9343133368 0)
(106.0375925 -0.9353282273 0)
(105.9811728 -0.9554077851 0)
(105.5801972 -1.032246907 0)
(105.6517149 -1.012149489 0)
(105.5961538 -1.010061668 0)
(105.5187725 -1.029137625 0)
(104.9334234 -1.093108287 0)
(105.0339387 -1.074206205 0)
(104.94517 -1.069203994 0)
(104.8298562 -1.086712188 0)
(103.6035789 -1.126278531 0)
(103.8549332 -1.111322012 0)
(103.6066609 -1.101201515 0)
(103.2127127 -1.114603313 0)
(98.62295082 -1.213689022 0)
(99.16211504 -1.174966887 0)
(98.65855421 -1.188341469 0)
(98.97141022 -1.21287189 0)
(106.8807277 -0.141159547 0)
(106.9479718 -0.06951108007 0)
(106.8643289 -0.2797239478 0)
(106.939348 -0.2045330785 0)
(106.8266436 -0.4131215989 0)
(106.9115588 -0.3398280477 0)
(106.736913 -0.5450823238 0)
(106.8581844 -0.4622360947 0)
(106.7736039 -0.5329762793 0)
(106.6750177 -0.5879006369 0)
(106.7327893 -0.5681809229 0)
(106.676953 -0.6065841528 0)
(106.5541225 -0.7051652926 0)
(106.6146191 -0.66466463 0)
(106.6045407 -0.6806913274 0)
(106.5362851 -0.7183323674 0)
(106.3599994 -0.8049028349 0)
(106.4373107 -0.7681266992 0)
(106.4029379 -0.7760808294 0)
(106.3059418 -0.8203786818 0)
(106.3189656 -0.8072981205 0)
(106.0939306 -0.8806731457 0)
(106.1465807 -0.8624796491 0)
(106.1118466 -0.8643358013 0)
(106.054362 -0.8815542786 0)
(105.6416084 -0.9500049018 0)
(105.7140076 -0.9328995517 0)
(105.6560277 -0.9320959492 0)
(105.5777118 -0.9482510803 0)
(104.9783153 -1.00454757 0)
(105.0807509 -0.9887174106 0)
(104.9887281 -0.9852832812 0)
(104.870734 -0.9998033593 0)
(103.6155873 -1.033460092 0)
(103.8706535 -1.021261077 0)
(103.6184789 -1.013302742 0)
(103.2273313 -1.024339691 0)
(98.76281558 -1.119531841 0)
(99.30513036 -1.083979453 0)
(98.79680704 -1.098942816 0)
(99.05413263 -1.120168323 0)
(107.0065824 -0.133282373 0)
(107.0731771 -0.06602066393 0)
(106.9866242 -0.2639076418 0)
(107.0620505 -0.1942802857 0)
(106.9430656 -0.3894471288 0)
(107.0294905 -0.3222509879 0)
(106.8469534 -0.5106457541 0)
(106.9686135 -0.4385958967 0)
(106.8816222 -0.5033542989 0)
(106.7853766 -0.5504843953 0)
(106.8400761 -0.5353122649 0)
(106.7828553 -0.5688770705 0)
(106.6528987 -0.6589719081 0)
(106.7146608 -0.6231944873 0)
(106.6997654 -0.6400159074 0)
(106.6296393 -0.6730819087 0)
(106.4441253 -0.7507864525 0)
(106.5234204 -0.7191300074 0)
(106.483731 -0.7288564132 0)
(106.3843067 -0.7661842837 0)
(106.3964339 -0.7564005576 0)
(106.1632673 -0.8207689824 0)
(106.2171128 -0.8051643988 0)
(106.1797891 -0.8080457668 0)
(106.121153 -0.8227506132 0)
(105.6974139 -0.8844486596 0)
(105.770766 -0.8700023888 0)
(105.7106533 -0.8705465482 0)
(105.6313123 -0.8840943506 0)
(105.0183297 -0.934067204 0)
(105.1227248 -0.9209877984 0)
(105.0277086 -0.9191323995 0)
(104.9070844 -0.9309707206 0)
(103.6269919 -0.9597763366 0)
(103.8849099 -0.9500642713 0)
(103.6297939 -0.944187545 0)
(103.2422187 -0.9530467771 0)
(98.89687512 -1.043931517 0)
(99.44302911 -1.011408648 0)
(98.92966019 -1.027791689 0)
(99.13316589 -1.046305034 0)
(107.1320521 -0.127330443 0)
(107.1927982 -0.06369683998 0)
(107.1082364 -0.2520888263 0)
(107.1792488 -0.1874036131 0)
(107.0583424 -0.3718511965 0)
(107.1420017 -0.3102315512 0)
(106.952522 -0.4867190326 0)
(107.0745335 -0.4232755831 0)
(106.9853767 -0.4824763515 0)
(106.8896974 -0.5221100018 0)
(106.9409731 -0.5109150094 0)
(106.8825375 -0.5413055594 0)
(106.7449887 -0.6238122486 0)
(106.8083175 -0.5922626499 0)
(106.789075 -0.6102289035 0)
(106.7167886 -0.6391903728 0)
(106.5220135 -0.710142258 0)
(106.603546 -0.6824748781 0)
(106.5591618 -0.6945407254 0)
(106.4573146 -0.7253556793 0)
(106.4686938 -0.7186871701 0)
(106.2275618 -0.77515044 0)
(106.2826844 -0.7618651937 0)
(106.2430321 -0.7659040059 0)
(106.1831922 -0.7783321265 0)
(105.7489607 -0.8346087847 0)
(105.823348 -0.8225500433 0)
(105.7613232 -0.8245091162 0)
(105.6808636 -0.835708674 0)
(105.0546058 -0.8805363053 0)
(105.1610026 -0.8699400545 0)
(105.0632139 -0.8696912885 0)
(104.9399972 -0.8791025241 0)
(103.638161 -0.9039613512 0)
(103.8982532 -0.8965234764 0)
(103.6409546 -0.8926809671 0)
(103.2574471 -0.8994970919 0)
(99.02650905 -0.9857751341 0)
(99.57606012 -0.9561843115 0)
(99.05834247 -0.9738575495 0)
(99.20992137 -0.9900677515 0)
(107.2289561 -0.1241179659 0)
(107.3093944 -0.06202581294 0)
(107.2023615 -0.2451190933 0)
(107.2929109 -0.1828627523 0)
(107.1481831 -0.3613589618 0)
(107.2511973 -0.3022253125 0)
(107.0457467 -0.4718663956 0)
(107.1766249 -0.4122337276 0)
(107.0774166 -0.4682062677 0)
(106.9881155 -0.501856008 0)
(107.0353244 -0.4963437673 0)
(106.9764155 -0.5221235183 0)
(106.8320295 -0.599206649 0)
(106.8970411 -0.5711907177 0)
(106.8743026 -0.5907600236 0)
(106.7992812 -0.6161884847 0)
(106.5954244 -0.6820166819 0)