/*--------------------------------*- C++ -*----------------------------------*\
| =========                 |                                                 |
| \\      /  F ield         | OpenFOAM: The Open Source CFD Toolbox           |
|  \\    /   O peration     | Version:  v2012                                 |
|   \\  /    A nd           | Website:  www.openfoam.com                      |
|    \\/     M anipulation  |                                                 |
\*---------------------------------------------------------------------------*/
FoamFile
{
    version     2.0;
    format      ascii;
    class       volScalarField;
    location    "2.92";
    object      nut;
}
// * * * * * * * * * * * * * * * * * * * * * * * * * * * * * * * * * * * * * //

dimensions      [0 2 -1 0 0 0 0];


internalField   nonuniform List<scalar> 
3019
(
0.05282457978
0.2067098972
0.2765288417
0.3641501299
0.479870818
0.6374613033
0.8662172878
1.119151679
1.154686692
1.150454566
1.148772397
1.148492543
0.1057164654
0.3075911365
0.3886110732
0.4720110294
0.5804562
0.7232715027
0.9274819459
1.154045163
1.155640665
1.151012434
1.149102107
1.148760139
0.149407123
0.4077445446
0.590526217
0.6345689798
0.7163545895
0.8433236476
1.024240568
1.165903478
1.156568449
1.151657449
1.149581222
1.149175822
0.1748936407
0.4461709652
0.746604321
0.8613180073
0.8989116303
0.9971210129
1.162259941
1.166890422
1.157407151
1.152319531
1.150142697
1.149717428
0.2369962939
0.5116300693
0.7993357207
1.003613271
1.107154833
1.152124508
1.169318189
1.167585471
1.158093501
1.152930239
1.150700445
1.150246187
0.3097551151
0.586859599
0.8448443297
1.016841116
1.109705931
1.153318353
1.16978549
1.167923027
1.158598885
1.153455331
1.151236794
1.150781318
0.3670520865
0.6354487157
0.8640173299
1.020906187
1.110757375
1.153515834
1.16972454
1.167944803
1.158892265
1.153826154
1.151649794
1.151200345
0.3872146115
0.6462903959
0.8710694769
1.023263655
1.110736646
1.15300236
1.169252751
1.167700484
1.159053793
1.154125685
1.152008068
1.15156443
0.4003108172
0.6541966713
0.8754587917
1.024215385
1.109940041
1.15200473
1.168478789
1.167250974
1.159036939
1.154261632
1.15220936
1.151773458
0.4111349039
0.6598186803
0.8770260873
1.023770204
1.108551702
1.150686466
1.167491258
1.1666538
1.158950802
1.154358345
1.152369847
1.151935331
0.4188166624
0.6624565687
0.8758376725
1.021887041
1.106674213
1.149144743
1.166357467
1.165955402
1.158727069
1.154302217
1.152371147
1.151936913
0.4226665825
0.6618226577
0.8723871012
1.018824333
1.104394473
1.147428568
1.16512376
1.165189109
1.158492521
1.154253967
1.152373243
1.15193236
0.4232490355
0.6588021435
0.8676429958
1.015034486
1.101795587
1.145566294
1.163820565
1.164377928
1.158141573
1.15406086
1.152222248
1.151774642
0.4221885546
0.6548066958
0.8624466946
1.010846305
1.098941881
1.143579589
1.162467848
1.163536655
1.15782685
1.153923576
1.152121182
1.15166104
0.4206074765
0.6506135822
0.8571425433
1.006418004
1.095883847
1.141488205
1.161079433
1.162675308
1.157398011
1.153639187
1.151866999
1.151395508
0.4188273792
0.6463993156
0.8518030613
1.001827426
1.092663591
1.139309778
1.159664789
1.16180037
1.157045079
1.153453093
1.15170698
1.151218918
0.4168920659
0.6421842618
0.8464445595
0.9971207229
1.089314427
1.137059251
1.158230566
1.160916152
1.156568584
1.153112063
1.151389279
1.150887176
0.4148560683
0.6379770728
0.8410788522
0.9923281218
1.085860883
1.134748141
1.156781158
1.160026172
1.15619839
1.152897936
1.151195197
1.150674406
0.4127506795
0.6337888164
0.8357215692
0.9874746
1.08232256
1.132385697
1.155319346
1.159131065
1.15569997
1.152533878
1.150851534
1.150316431
0.4106002492
0.6296374762
0.8303952198
0.9825852067
1.078717131
1.129979315
1.153846874
1.158234159
1.155308176
1.152286537
1.150623037
1.150068765
0.4084471158
0.6255508508
0.8251264658
0.9776846965
1.075060903
1.127535513
1.152365561
1.157331483
1.154832437
1.151948724
1.150304406
1.149737957
0.4063420714
0.6215595273
0.8199429268
0.9727972668
1.0713703
1.125062417
1.150880574
1.156433211
1.154364529
1.151624351
1.150003099
1.149417837
0.4043278263
0.6176929186
0.814868944
0.9679450245
1.067661074
1.122566682
1.149410451
1.155539989
1.154018488
1.151391358
1.149786951
1.149193295
0.4024605492
0.6140104778
0.8099512732
0.9631623343
1.063953583
1.120054921
1.148028642
1.154723669
1.153378898
1.150951712
1.149385323
1.148772755
0.03960807176
0.0495450356
0.1818999414
0.07727612435
0.04067308758
0.1003519873
0.2487222124
0.1851018156
0.106830154
0.07908687424
0.1428715742
0.06274945333
0.06018140864
0.07524038919
0.1595543628
0.1467323334
0.0275167529
0.04771254703
0.02498822294
0.03304524193
0.08656782421
0.05103216183
0.1441443471
0.3355601996
0.2799105184
0.1023314611
0.0908535652
0.03536505835
0.1983212663
0.1660188421
0.07833156764
0.0855400197
0.007958521071
0.01690127912
0.02903140223
0.07079975334
0.01164080755
0.01252330686
0.03274156054
0.01186180054
0.0117892884
0.01276340644
0.01171532053
0.01234696564
0.01713758414
0.01356515633
0.02402204307
0.01891974031
0.01235685676
0.008311952891
0.01889958678
0.0114911002
0.01176632787
0.1887043958
0.240059959
0.03448918429
0.01328952546
0.01681261673
0.0111452802
0.0138998878
0.02557501796
0.05007371432
0.01208584406
0.008679459352
0.008811474855
0.01232709406
0.01221826314
0.03138686939
0.02629584528
0.01167549797
0.01141927728
0.01175628144
0.01182314172
0.008262710627
0.01177761156
0.01203683401
0.01209677324
0.01219864368
0.0119614483
0.0121708502
0.01209244815
0.01191526769
0.01225759876
0.01228573239
0.01224956621
0.01248711347
0.01264102922
0.01245138331
0.01189184631
0.01131009766
0.01148870729
0.01198264312
0.01159053094
0.01184718585
0.2575805019
0.3190846187
0.3431268417
0.4281665242
0.4609144362
0.5718088738
0.06295092186
0.1167334361
0.1066337334
0.2735416421
0.3355164857
0.2580903598
0.354637641
0.4182286228
0.3402505604
0.4416403806
0.5201631806
0.4476955908
0.550152951
0.6492697411
0.5900003152
0.1174948887
0.2266738437
0.208130003
0.4013140435
0.519361339
0.3712488158
0.5295910435
0.5703114854
0.4499607513
0.5878447979
0.6537941368
0.5507678307
0.6798591951
0.7634837593
0.6747343112
0.09676763203
0.08281241561
0.1649704819
0.3624835444
0.3405680307
0.4340593459
0.6589194199
0.5870035465
0.7345764741
0.7952386529
0.6197908855
0.7986741017
0.8316263745
0.6914644868
0.8490222537
0.9195904553
0.8004234686
0.1508928386
0.1060756092
0.2190293932
0.4167549658
0.373179454
0.4931574148
0.7157548764
0.6718006305
0.7859942599
0.9558989219
0.8658298113
0.9984154703
1.066058447
0.8844034076
1.0703497
1.116477386
0.9663029699
0.235371186
0.1706996099
0.2922259409
0.4928023764
0.4346344282
0.5690811383
0.7746050168
0.7312488418
0.835286664
0.9792977479
0.9628857183
1.014953064
1.091422826
1.088688423
1.109229372
1.14547251
1.144314289
0.3019447074
0.2554079624
0.3558968615
0.5571780283
0.5117644319
0.627413099
0.8103389018
0.7866578972
0.8618257987
0.9873980083
0.9827325532
1.020070596
1.093343205
1.092049364
1.110609047
1.146017942
1.145704382
0.3272115741
0.3120970087
0.3836289979
0.5783780579
0.5671301854
0.6439947863
0.8196563168
0.81316789
0.8695468078
0.9911901127
0.9885130654
1.022812229
1.093956962
1.09360325
1.110824198
1.145714072
1.146009818
0.3396525883
0.3304198747
0.3972268051
0.5886371379
0.5811612853
0.6524134387
0.8256099108
0.8214352619
0.8746229991
0.9933233378
0.9918741875
1.024104689
1.093606018
1.09394891
1.110199889
1.144817847
1.145536515
0.3507204091
0.3425791094
0.4086842624
0.5965167215
0.5908457483
0.6586642544
0.8285508669
0.8266218138
0.8769001532
0.9937778906
0.9936010111
1.02401804
1.092494523
1.093394172
1.108947904
1.143520853
1.144525222
0.3594202088
0.3531660665
0.4172425446
0.6014105303
0.5980519
0.6621100161
0.8286053898
0.8288312207
0.8763762068
0.9924185814
0.9936081252
1.022484526
1.090720028
1.092109456
1.107184707
1.141944236
1.143149614
0.3646698935
0.3610849473
0.422060129
0.6027651735
0.6020844935
0.6622594494
0.8260339526
0.8281865346
0.8734126359
0.9894599569
0.9918087041
1.019675403
1.088385234
1.090183244
1.104997228
1.140151976
1.141514812
0.366395537
0.365396746
0.4233211214
0.6011077481
0.6025809151
0.6596982034
0.8216841044
0.8250670331
0.8688954659
0.9854883378
0.9885366147
1.016028453
1.085623958
1.087729412
1.102471319
1.138178954
1.139674694
0.3659623564
0.3664182553
0.4225287634
0.5979348619
0.6003956446
0.6558397298
0.81661406
0.8204501742
0.8637619485
0.9810189771
0.9844030045
1.011919922
1.082545207
1.084880206
1.099676206
1.136050463
1.137660583
0.3647874793
0.3657025342
0.4210251125
0.5943629583
0.5970546728
0.6516654488
0.8113861203
0.8153110391
0.858472721
0.9763014827
0.9798567408
1.007542499
1.079223281
1.081734636
1.096665003
1.133789695
1.135496865
0.3633838866
0.3644507073
0.4192883236
0.5907255038
0.593454885
0.6474531689
0.8061344182
0.8100729457
0.8531401423
0.9714339126
0.9750954896
1.002987395
1.075713862
1.078361133
1.093481881
1.13141836
1.133206469
0.3618231296
0.3630055169
0.4173871015
0.587064188
0.5898104361
0.643237416
0.8008769761
0.8048188979
0.8477852009
0.966463618
0.970198705
0.9983063811
1.072059185
1.074811878
1.090162285
1.128955295
1.130810503
0.3601523616
0.3614115229
0.4153721444
0.5833897269
0.586144847
0.6390273913
0.7956232882
0.7995616068
0.8424200441
0.9614199637
0.9652078368
0.9935328188
1.06828993
1.071126142
1.086732856
1.126415644
1.12832706
0.3584351933
0.359723873
0.4132821833
0.5797141698
0.5824690373
0.6348330516
0.7903857386
0.7943105892
0.8370587877
0.9563262389
0.9601495245
0.9886921919
1.06442937
1.067332045
1.083214006
1.123811259
1.125770188
0.356691501
0.3579992151
0.4111405627
0.57604981
0.5787945034
0.6306702912
0.7851842415
0.7890798967
0.8317223425
0.9512069279
0.9550470204
0.9838094451
1.060498317
1.063451957
1.079623805
1.121152015
1.123151184
0.3549439377
0.3562501351
0.4089839444
0.5724291169
0.575137724
0.6265645439
0.7800445033
0.7838912678
0.8264365207
0.9460875204
0.9499252698
0.978909367
1.056515962
1.059506312
1.07597872
1.118446516
1.120479569
0.3532372338
0.3545063222
0.4068650453
0.5688897323
0.5715333552
0.6225472604
0.7749951102
0.7787714639
0.8212293211
0.9409937683
0.9448099169
0.9740165622
1.052501224
1.055514099
1.072295236
1.11570469
1.117764046
0.3516153677
0.3528138265
0.4048246472
0.5654754465
0.5680217541
0.6186448019
0.770060789
0.7737487709
0.8161250637
0.9359487145
0.9397262805
0.9691532954
1.048471973
1.051494069
1.068589181
1.112935583
1.115014542
0.3501035725
0.3512194233
0.4028852049
0.5621844753
0.5646432204
0.6148686897
0.7652506133
0.7688480991
0.8111351073
0.9309690175
0.9346972495
0.964337049
1.04444483
1.047463995
1.064875963
1.110149505
1.112239941
0.3486453906
0.3497759533
0.4009600266
0.5588217706
0.561441108
0.6110034003
0.7602746045
0.7641193366
0.8059595752
0.9257682902
0.9297603571
0.9592966627
1.040209991
1.043447877
1.060967784
1.107221294
1.109449905
0.03761714965
0.03095056136
0.03256469064
0.0652927974
0.06176782891
0.04599397439
0.1652110631
0.1452103134
0.1546183049
0.07224846781
0.02895712722
0.01857492803
0.02481752928
0.04156073877
0.1360421335
0.1306686851
0.08851009585
0.2153680616
0.1821325909
0.2190569595
0.158837534
0.1745759581
0.2083761105
0.08944782181
0.07714109226
0.139694075
0.1118305169
0.1222078613
0.1075033979
0.1380863351
0.02127584542
0.02980951433
0.04862666494
0.05124397191
0.06578465239
0.05712335689
0.04290164974
0.04577311812
0.1272188354
0.1195898973
0.06639210177
0.1547338724
0.138897671
0.1432630588
0.1273953772
0.1341187577
0.1506566351
0.0185386898
0.02074591088
0.02919144014
0.01351224632
0.01312253326
0.01244279549
0.04501755178
0.02683704126
0.03159846493
0.02308890592
0.01488764739
0.01650708696
0.05092890598
0.04724297136
0.02758319158
0.08279129881
0.0641275124
0.06781784245
0.06022536639
0.07859041052
0.03738439827
0.04061410712
0.05407324604
0.01498300416
0.01420860916
0.03269234935
0.03259427211
0.2119901152
0.2065154197
0.1229366072
0.330562588
0.2727503695
0.2778761847
0.2419809735
0.2667559363
0.3247695053
0.09885320263
0.07938950772
0.0830147178
0.07174884367
0.07544541136
0.09450360164
0.04262612712
0.05801218317
0.05439772507
0.1847699267
0.1642351448
0.1697665769
0.1486257485
0.1556801188
0.1739172941
0.08508009894
0.1286106379
0.1224884087
0.08180058595
0.05087905757
0.05351695755
0.01519606225
0.01137280928
0.01189875102
0.03768059114
0.03596426562
0.04247583543
0.04085995598
0.02693233935
0.06775272128
0.05420456259
0.05611194343
0.01162322157
0.01392510263
0.01287250538
0.01684114809
0.01528442721
0.01200112157
0.0312727214
0.02307778125
0.02523948232
0.01585620807
0.01268583803
0.01324508234
0.01207512666
0.01212610696
0.01456720783
0.02249462234
0.01596781924
0.01698148897
0.01410071198
0.01489146282
0.0203344243
0.0127503138
0.01362164568
0.02083787608
0.208561145
0.1951694276
0.1756256058
0.2239996225
0.2077118704
0.2222357612
0.02716010795
0.02905134808
0.03618982356
0.01410030209
0.02036144721
0.01861789742
0.02466235822
0.02274113471
0.01537931748
0.03357470484
0.03202245368
0.02338556339
0.04643067358
0.03984594835
0.03982139562
0.03726269718
0.04521126085
0.01700671716
0.01604862502
0.02972397268
0.02179509968
0.02350312536
0.01845440205
0.02001239237
0.02763563127
0.609551751
0.7254472972
0.8431469129
0.9646391571
1.095687377
1.159215086
0.05625703958
0.07244366814
0.06899081262
0.2240335352
0.2439782049
0.2243947515
0.2985063635
0.3187250324
0.2967808377
0.3874597209
0.4137833864
0.3899648847
0.5017542592
0.5359142145
0.5145673289
0.6883833884
0.7945847293
0.7541851879
0.8931664549
1.003577656
0.9825692119
1.113180708
1.160509567
1.159892575
0.109738268
0.1457519344
0.1410589974
0.351479004
0.3705986938
0.3272706303
0.4298740137
0.4481715791
0.4082094627
0.5066411306
0.5304205447
0.4967179206
0.6092775515
0.6406284498
0.6112299304
0.7944126104
0.8908946246
0.8410658121
0.9711555028
1.072063176
1.035221875
1.161635762
1.161712669
1.161164717
0.1531416064
0.2200797241
0.2166135747
0.4150920435
0.4877297822
0.4794307812
0.6614626106
0.6604338159
0.5978449896
0.6850638903
0.699349568
0.6515868653
0.7578523148
0.7817946166
0.7434832346
0.9367507139
1.011400365
0.9473067756
1.087376119
1.168177637
1.119173733
1.16636401
1.162763892
1.162289973
0.1874294531
0.2525851314
0.2411249035
0.4601373458
0.5351129249
0.5209057609
0.7593333061
0.8263164701
0.8151068805
0.9317122802
0.9277079792
0.8647855435
0.9517961507
0.9676253315
0.9161143894
1.11462323
1.1646761
1.08588472
1.168827921
1.169367692
1.168887381
1.167302857
1.163603785
1.163233997
0.2554957428
0.3162559315
0.2982647972
0.5308450875
0.6033537563
0.5852713478
0.8122305061
0.8709554805
0.8603476086
1.008190223
1.040868723
1.03775189
1.107964224
1.122900731
1.122240897
1.153128333
1.165767818
1.165353584
1.169625279
1.169968746
1.169725135
1.167810605
1.164170448
1.163948689
0.3265414609
0.3916383679
0.3734670425
0.6028594663
0.669181826
0.6546963862
0.8525494967
0.9023705103
0.8966134109
1.018061018
1.046916218
1.045994224
1.110089775
1.124555457
1.124273986
1.153544614
1.166038972
1.165988801
1.169813989
1.170117269
1.170092267
1.167983159
1.164459064
1.164371197
0.3756537713
0.4413873157
0.4336930184
0.6389613078
0.7003961011
0.6972100967
0.8660178968
0.9117335066
0.9100684232
1.021637897
1.049528969
1.049022404
1.11083905
1.124977983
1.124966335
1.153184581
1.165712401
1.165939741
1.1695331
1.169886595
1.170041248
1.167862765
1.164502968
1.164535534
0.3906763804
0.4543416694
0.4512850795
0.6484581513
0.7099728779
0.7079073767
0.8724258734
0.9169984594
0.9158925695
1.023628547
1.050727289
1.050543294
1.11060087
1.124526098
1.124705586
1.152288946
1.164951863
1.165376982
1.168897656
1.169364493
1.169654145
1.167506602
1.164345358
1.164473682
0.4032581993
0.4655899489
0.4629471713
0.6558412644
0.716417293
0.7150643649
0.8761173622
0.9199319153
0.9194302589
1.024238969
1.050754923
1.050853021
1.109643304
1.123454533
1.123770165
1.151038566
1.163893254
1.164452844
1.168007094
1.168634618
1.169018992
1.166975366
1.164029197
1.164232531
0.4133892903
0.4745909061
0.4726125426
0.6607850495
0.7200691976
0.7194315605
0.8769776278
0.9203238613
0.9204686719
1.023430211
1.049652907
1.050035167
1.108124602
1.121926076
1.122345202
1.149546282
1.162631926
1.163283569
1.166939381
1.167763592
1.168211895
1.166321314
1.163600333
1.163854456
0.4201441129
0.4802710161
0.4792073276
0.662591453
0.7206591367
0.7208065392
0.8751542409
0.9182516286
0.9189755982
1.021214274
1.047464489
1.048102999
1.106138252
1.120034534
1.120537683
1.147870397
1.161226793
1.161944645
1.165750928
1.166797902
1.167289102
1.165584365
1.16308852
1.163381021
0.4230568637
0.4822075316
0.4820438965
0.6612326878
0.718371772
0.7191624297
0.8712808727
0.9143483269
0.9154443825
1.017928161
1.044437326
1.045254612
1.103771545
1.117844768
1.118417172
1.146042472
1.159714855
1.160482411
1.164479423
1.165768868
1.166288874
1.164792043
1.162523014
1.162837893
0.4230760382
0.4813783809
0.4817506264
0.6578483295
0.7143448596
0.7154396053
0.8663643362
0.9095249076
0.9107758032
1.014015988
1.040878543
1.041805171
1.101103677
1.115408134
1.116038083
1.144085024
1.158120998
1.158926918
1.163149417
1.164697088
1.165236627
1.163963404
1.161915803
1.162250106
0.4218185991
0.4793913588
0.4799337241
0.6537630656
0.7097507005
0.7109155049
0.8611250094
0.9043832107
0.9056826522
1.00975747
1.036985657
1.037983452
1.098194498
1.112765922
1.113443683
1.142018156
1.156463449
1.157299195
1.161777457
1.163596147
1.164149072
1.163110039
1.161284587
1.161627097
0.4201769249
0.4770985877
0.4776853145
0.6495596452
0.7050701585
0.7062414354
0.8558094655
0.8991323015
0.9004515117
1.005282985
1.032864235
1.033912037
1.095092295
1.109954791
1.110671565
1.139860099
1.154756008
1.155615213
1.160374984
1.162475155
1.163037259
1.162240755
1.16063134
1.160984627
0.4183549039
0.4746974953
0.4753030549
0.6453443494
0.7003864923
0.7015570035
0.8504641054
0.8938235977
0.8951548868
1.00065987
1.028578446
1.029662662
1.091837066
1.107006705
1.107755026
1.137626415
1.15300896
1.153886807
1.158950031
1.161340384
1.161908784
1.161359994
1.159968139
1.160322787
0.4163895765
0.4722387061
0.4728592397
0.6411304504
0.6957114818
0.6968790482
0.845102626
0.8884776873
0.8898168084
0.99592919
1.024170525
1.025282216
1.088459755
1.103947312
1.104721458
1.135329557
1.151229792
1.152122789
1.157508147
1.160196163
1.160768577
1.16047293
1.159293683
1.159654434
0.4143342483
0.4697246513
0.470357979
0.6369266532
0.69105404
0.6922163211
0.839737195
0.8831103858
0.8844533609
0.9911189557
1.01966969
1.020802287
1.08498321
1.10079593
1.101591535
1.132979241
1.149423313
1.150329167
1.156053088
1.159045539
1.159620348
1.159580324
1.158614124
1.158973607
0.4122155254
0.4671635472
0.467808347
0.632745735
0.6864279762
0.6875806136
0.8343854445
0.8777412275
0.8790824614
0.9862542225
1.015101105
1.01624828
1.081426598
1.097568787
1.098381874
1.130583231
1.147594079
1.148510062
1.154587517
1.157890634
1.158465779
1.15868691
1.157933644
1.158293439
0.410059814
0.4645749914
0.4652217439
0.6286077056
0.6818545723
0.6829915928
0.8290709073
0.872394297
0.8737274776
0.9813597525
1.010488609
1.011644531
1.077806962
1.094280066
1.095107262
1.128147957
1.145746933
1.14666995
1.153113422
1.156733088
1.157306676
1.157790374
1.157243037
1.157602757
0.4079164018
0.4619994178
0.4626387214
0.6245426134
0.677361992
0.6784758512
0.8238209667
0.8670965767
0.8684148666
0.9764603047
1.005855472
1.007014388
1.074140602
1.090943428
1.091781268
1.125681471
1.143883377
1.144812782
1.151631856
1.155573122
1.156142778
1.156897381
1.156571642
1.156916192
0.4058322504
0.4594806256
0.4601003768
0.6205792651
0.6729795535
0.6740634167
0.8186625589
0.861874357
0.8631715636
0.9715796274
1.00122407
1.002380588
1.07044388
1.087572968
1.088417988
1.123190259
1.142000127
1.142942639
1.15013768
1.154406335
1.154979151
1.155996902
1.155864191
1.156220417
0.4038419432
0.4570539309
0.4576503573
0.616742517
0.6687278833
0.6697809763
0.8136166451
0.8567489562
0.8580214588
0.9667388747
0.9966147944
0.9977641379
1.066732599
1.084182437
1.085031002
1.120681413
1.14006457
1.141078101
1.148596572
1.15320224
1.153828768
1.155071869
1.155193059
1.155538312
0.4019419498
0.454711855
0.4553522523
0.6129905229
0.6645578308
0.6656848793
0.8086444617
0.8516878499
0.8530082674
0.9619234805
0.9920179362
0.9931960879
1.063007216
1.080774325
1.081637048
1.118051713
1.137949459
1.139307665
1.146932794
1.151915261
1.152756557
1.154087512
1.154417542
1.154910094
0.1740938967
0.1661552681
0.1710665383
0.07456276417
0.05966217829
0.06141085044
0.03477813879
0.03517878912
0.04388018247
0.1813343947
0.183016599
0.1923061649
0.1331204845
0.1387116113
0.09192535105
0.08932184644
0.07266775953
0.04047928265
0.03841933404
0.03142011154
0.02277331605
0.02148930036
0.03568669008
0.0449574896
0.04164266182
0.08054039018
0.09739512777
0.09474812147
0.02638229854
0.02469403311
0.2766624534
0.2591976849
0.2407674562
0.30129564
0.279411725
0.2971966294
0.3695428481
0.3508656618
0.3252039344
0.4090732912
0.3785623945
0.3975930664
0.4961621603
0.4774831571
0.4419732889
0.5553588944
0.5151246335
0.5334653879
0.07930747814
0.07606266737
0.05973123456
0.1133651387
0.09427295575
0.09752081885
0.08693200952
0.09045171659
0.109916763
0.2930577719
0.2663472888
0.2463211842
0.3053067926
0.2828952483
0.3125098087
0.2388905419
0.2587223767
0.2797606151
0.3744278155
0.3452298956
0.3246465109
0.3884856693
0.3665319648
0.3956210638
0.3178795429
0.3400065123
0.3628053171
0.466011275
0.4372200349
0.4116103276
0.4944922639
0.4652530156
0.4923327629
0.4174042683
0.4409033334
0.4702805583
0.5834692809
0.5601251368
0.5261782188
0.6287276445
0.5938982839
0.6177239275
0.5511080777
0.5715977481
0.6073316447
0.1539501094
0.1496789033
0.1149562509
0.1755023899
0.1783585802
0.2128667775
0.4720555707
0.4249906797
0.3953123209
0.4625574854
0.4451714908
0.5074787993
0.3490028037
0.3929049639
0.413315199
0.5422055696
0.4920263207
0.4762226772
0.5271319157
0.5089159893
0.5559569077
0.4289749758
0.4665690507
0.4854029301
0.6079750263
0.5675730417
0.5468844918
0.6142980413
0.5900557767
0.6298186782
0.5228399793
0.5551440214
0.5807314818
0.7065637594
0.6721094409
0.6417459392
0.7324241688
0.7019288277
0.7343021918
0.6433574914
0.672505992
0.7016738852
0.09062473495
0.0867238823
0.231917016
0.2249610183
0.1577945434
0.3536386697
0.2921218979
0.2997310045
0.2819131557
0.2863059022
0.3464375937
0.5082949786
0.497274396
0.4237592177
0.6471684003
0.5717350038
0.5832087858
0.5526277232
0.5615924117
0.6365495826
0.8043234244
0.7319244716
0.7233843588
0.7323005855
0.7284348644
0.7995679252
0.6078985249
0.6654006986
0.6736722293
0.8060728651
0.7508076526
0.7399062747
0.7820544615
0.7649109628
0.8170879944
0.6706263144
0.7161607822
0.7355769729
0.8682928371
0.8235921653
0.8020504491
0.8782309531
0.8481340796
0.8923678497
0.7701163961
0.8074905597
0.8362934331
0.1332211647
0.1182714264
0.2814469045
0.2661118839
0.2023286453
0.400393441
0.3348138466
0.3503931862
0.3093608076
0.3210709515
0.3858217711
0.5676076522
0.5507609301
0.4758649942
0.7004603125
0.6257003254
0.6420298887
0.5960784895
0.6102924769
0.6857115963
0.8491913434
0.837755688
0.7725523328
0.9484487436
0.8967386013
0.9061495972
0.8775884342
0.8871494061
0.9407127044
1.034062663
0.9988135732
0.9927313191
0.9994961481
0.99542363
1.063379736
0.8727539138
0.9313689835
0.9400525656
1.080266923
1.021617249
1.008219142
1.064376514
1.039645418
1.096499256
0.9382124752
0.9879843176
1.011863332
0.213642638
0.1920214132
0.3543047066
0.3350705532
0.2740989327
0.4732475236
0.4051522958
0.4244620333
0.3675799938
0.385960329
0.4536251843
0.6386371489
0.6212839293
0.5501907941
0.7611194625
0.6925698737
0.708368005
0.6589181502
0.6759291152
0.7464994807
0.8893723394
0.880705557
0.8243387516
0.9747582165
0.9310856846
0.9375411644
0.9151647132
0.923546488
0.969228053
1.044918779
1.043282893
1.012010135
1.090684033
1.069164618
1.070120197
1.06587394
1.067796495
1.089814525
1.12390949
1.123454391
1.108651903
1.145165942
1.135489695
1.135856971
1.134484852
1.135034473
1.1447824
0.2887322921
0.2733244846
0.422472524
0.4082780621
0.3420401851
0.5447559145
0.4769658998
0.4900870614
0.4433992027
0.4609947237
0.5291485809
0.6908984389
0.6812485475
0.6166826213
0.8048167182
0.7454175426
0.7533319686
0.7227143584
0.7353414365
0.7967710449
0.9082568893
0.9061509799
0.858526694
0.9861619906
0.9485966974
0.950177879
0.9427570853
0.9465101169
0.9847733617
1.048422466
1.047722829
1.019124772
1.093001952
1.072233871
1.072733524
1.070935409
1.071637121
1.092573201
1.124895627
1.124760542
1.110388611
1.145972187
1.136497072
1.136576651
1.136142935
1.136354531
1.145870192
0.3239352167
0.3200947252
0.4481467781
0.44492699
0.3799024251
0.5754375006
0.5102113518
0.5132422577
0.5006209414
0.5069603962
0.5722554693
0.7056353725
0.7031388093
0.6415622927
0.817685256
0.7626416037
0.7648671696
0.7574979108
0.7601996181
0.8155233014
0.9146452091
0.9132587009
0.8678616429
0.9904040452
0.9541142413
0.9551849219
0.951614538
0.9529250867
0.9895131403
1.050284715
1.049948046
1.022271645
1.093904958
1.073716636
1.073891338
1.07314311
1.073468974
1.093788841
1.124843296
1.124935447
1.110859828
1.14585424
1.13648746
1.136363083
1.136598381
1.136567317
1.145954515
0.3366452542
0.3335646134
0.4601826072
0.4573104555
0.3940131521
0.5862860126
0.521731177
0.524347461
0.5161736922
0.5190042095
0.583793939
0.7135419303
0.7118472737
0.6504988193
0.8244100858
0.7702913466
0.7717082509
0.7668791527
0.768684288
0.823019083
0.9187714691
0.9179594977
0.8736112696
0.9929413516
0.9576886265
0.9582812886
0.9561379824
0.9569731839
0.9924579634
1.050881091
1.050839355
1.023908856
1.093770462
1.074020699
1.073942555
1.073997767
1.074039936
1.093885842
1.124055503
1.124308365
1.110421059
1.145085724
1.135761174
1.135494812
1.136198284
1.13599661
1.145326276
0.3481285131
0.3454086535
0.4704406249
0.4680937458
0.4060532378
0.5947956466
0.5314118968
0.5334587724
0.5268414473
0.5292009723
0.5929012437
0.7186059828
0.7175992765
0.6573340842
0.828089893
0.7748674813
0.7755643874
0.7729404963
0.7739928773
0.8274475456
0.9204523403
0.9202732794
0.8765976526
0.9938315894
0.959280187
0.9593404073
0.9587469125
0.9590813644
0.9937718213
1.050346482
1.050586273
1.024173945
1.092837442
1.073369031
1.073066577
1.073807351
1.073616122
1.093137826
1.122740497
1.123110745
1.109312238
1.143875093
1.134537515
1.134171811
1.135200774
1.134880979
1.144210224
0.3575341744
0.3554435457
0.4779012038
0.4763588672
0.4154297483
0.6005089095
0.5384439277
0.5396732963
0.5353233336
0.5369899363
0.5993863821
0.7207591249
0.7205131661
0.6615514614
0.8288556291
0.7765637935
0.7765283765
0.7760807327
0.7764145902
0.8289323344
0.9195696137
0.9200220363
0.8767590656
0.9929254342
0.9586835328
0.9581951711
0.9592602468
0.9590404839
0.9933236423
1.048683543
1.049201403
1.023000646
1.091220967
1.071836391
1.071323437
1.072709621
1.072299213
1.091684804
1.121021264
1.121484386
1.107668631
1.142360642
1.132958172
1.13251776
1.133786059
1.133381132
1.142762341
0.3637119208
0.3625180312
0.4816794299
0.4810930053
0.4212244205
0.6027536266
0.5419493471
0.5422471095
0.5406682182
0.5414262233
0.6025309625
0.7198210685
0.7203260715
0.6625218055
0.8268870378
0.7753590378
0.7746503292
0.7763105668
0.7759175081
0.8276101303
0.916470579
0.9174114808
0.8743407317
0.9903196326
0.9560356276
0.9551235356
0.9575838241
0.956860216
0.9911063064
1.046034888
1.046773195
1.020474587
1.089013962
1.069515712
1.068834358
1.070763567
1.070160038
1.089614188
1.118973398
1.119512757
1.105578888
1.140618392
1.131102834
1.130601503
1.132061477
1.131589603
1.141072419
0.3662363507
0.3659141536
0.4820315906
0.4821937377
0.4232670177
0.6017261096
0.5419749233
0.5415800768
0.5423350747
0.5422361081
0.6022268842
0.7164883059
0.7174726801
0.6605165305
0.8228746765
0.7718173297
0.7707052041
0.7738100553
0.772859085
0.8240084564
0.9120025368
0.9131967657
0.8701123006
0.9865430689
0.9519956194
0.950859864
0.9541379296
0.9530917012
0.9875618885
1.042709052
1.043587448
1.016994526
1.086347462
1.066603432
1.065806297
1.068119904
1.067375488
1.087049894
1.116654546
1.117256974
1.103130264
1.138688022
1.129018621
1.128465658
1.130086897
1.129559068
1.139186264
0.3661788059
0.3663391073
0.4804531289
0.4809394512
0.4228302867
0.5987924519
0.539866858
0.5391910907
0.5410805063
0.540502597
0.5996185148
0.7120732858
0.7132189651
0.6568570142
0.8179078667
0.7671192337
0.7658791293
0.7695420389
0.7683431648
0.8191891372
0.9069743222
0.9082561267
0.8650691563
0.9821654807
0.9472943352
0.9460689248
0.9496937611
0.9485038582
0.9832946116
1.038965817
1.039931395
1.012977182
1.083340153
1.063287597
1.062410233
1.06498687
1.064146936
1.084118872
1.114110299
1.114765338
1.100397078
1.136596225
1.126739563
1.126142521
1.127901407
1.127325865
1.137132578
0.3651093382
0.3654173305
0.4782640114
0.4788333348
0.421430243
0.5952658962
0.5370423728
0.5363043318
0.5384897907
0.5377721325
0.5961647099
0.707412277
0.7085821961
0.6527157944
0.8126966025
0.7621212465
0.7608628054
0.7646307033
0.7633777134
0.8140055218
0.9017667374
0.9030774167
0.8598003384
0.9774972926
0.942327842
0.9410629557
0.9448317334
0.9435845028
0.9786828976
1.034948823
1.035973629
1.008655941
1.080073196
1.059686171
1.058750256
1.061516962
1.060608754
1.080910646
1.111379311
1.112077579
1.097435392
1.134366347
1.124295083
1.123661184
1.125536045
1.124920072
1.134935093
0.3637498432
0.3641069109
0.4759052188
0.4765047951
0.4197381773
0.5916369542
0.534062651
0.5333063606
0.5355613033
0.53481437
0.5925473947
0.702727899
0.7038987886
0.6485066961
0.8074479054
0.7570877316
0.7558284396
0.7596044834
0.7583464952
0.8087610377
0.8964837021
0.8978094329
0.8544755499
0.9726616599
0.9372317452
0.9359432336
0.9397917516
0.938514774
0.9738825
1.030738857
1.031806152
1.00413934
1.076606153
1.05587428
1.0548947
1.057802559
1.056843813
1.077488829
1.108496111
1.109229448
1.094291532
1.132020713
1.121712987
1.121048682
1.12301947
1.122369941
1.13261645
0.3622253153
0.3626209014
0.4734758541
0.4740884389
0.4178754026
0.5879807351
0.5310144061
0.5302432291
0.5325458572
0.5317822035
0.5888967593
0.6980474122
0.6992164511