/*--------------------------------*- C++ -*----------------------------------*\
| =========                 |                                                 |
| \\      /  F ield         | OpenFOAM: The Open Source CFD Toolbox           |
|  \\    /   O peration     | Version:  v2012                                 |
|   \\  /    A nd           | Website:  www.openfoam.com                      |
|    \\/     M anipulation  |                                                 |
\*---------------------------------------------------------------------------*/
FoamFile
{
    version     2.0;
    format      ascii;
    class       pointVectorField;
    location    "2.92";
    object      pointDisplacement;
}
// * * * * * * * * * * * * * * * * * * * * * * * * * * * * * * * * * * * * * //

dimensions      [0 1 0 0 0 0 0];


internalField   nonuniform List<vector> 
6426
(
(0 0 0)
(0 0 0)
(0 0 0)
(0 0 0)
(0 0 0)
(0 0 0)
(0 0 0)
(0 0 0)
(0 0 0)
(0 0 0)
(-0.001121079383 -0.08285706413 0)
(-0.001138096319 -0.08317696425 0)
(-0.001152962572 -0.08349698843 0)
(-0.0004909764248 -0.08350924245 0)
(-0.0004580862293 -0.08286982648 0)
(0.009655019578 -0.08312116519 0)
(0.009595720584 -0.08440114731 0)
(0.009535894782 -0.08568075502 0)
(0.01225331756 -0.08575522084 0)
(0.01236955335 -0.08319428933 0)
(0.01101279055 -0.08315786188 0)
(0.01967762472 -0.07966700516 3.433364704e-13)
(0.01931836965 -0.08094342294 3.384514891e-13)
(0.02064397073 -0.07613130718 3.181899189e-13)
(0.02120520765 -0.07564484954 3.258227022e-13)
(0.02146466919 -0.05622097883 2.421673972e-13)
(0.02068656211 -0.05591297731 2.337019467e-13)
(0.01921136051 -0.04763183858 1.992017662e-13)
(0.02002478342 -0.04812701799 2.074174166e-13)
(0.01221347423 -0.02348864259 1.015160178e-13)
(0.01147799448 -0.02276006531 9.545142454e-14)
(0.008401785161 -0.01561798963 6.557254739e-14)
(0.009049674314 -0.01631611375 7.059630658e-14)
(0.0012882281 -0.001958742344 8.493206138e-15)
(0.001047229024 -0.001641889752 6.911138328e-15)
(8.303969863e-05 -0.0001238777616 5.273559367e-16)
(0.0001586512226 -0.000229505755 9.992007222e-16)
(0 0 0)
(0 0 0)
(0 0 0)
(0 0 0)
(0 0 0)
(0 0 0)
(0 0 0)
(0 0 0)
(0 0 0)
(0 0 0)
(0 0 0)
(0 0 0)
(0 0 0)
(0 0 0)
(-0.001826316303 -0.09300519676 0)
(-0.001845522781 -0.09364783129 0)
(-0.001864747681 -0.09429106304 0)
(-0.0004960613966 -0.09433197153 0)
(-0.0004576283018 -0.09304610531 0)
(0.009123138129 -0.09333246364 0)
(0.00904628979 -0.09590359884 0)
(0.01174434891 -0.09561706559 3.580469254e-13)
(0.01185229158 -0.09334014329 3.591293929e-13)
(0.01827038731 -0.08443939416 3.241712454e-13)
(0.01780611732 -0.08488045369 3.172462293e-13)
(0.01874314371 -0.07833994954 2.927241782e-13)
(0.01929869337 -0.0782857795 3.00454106e-13)
(0.01800234699 -0.05315161209 2.040867475e-13)
(0.01727285365 -0.05244840202 1.960653861e-13)
(0.01541986099 -0.04287046787 1.603439603e-13)
(0.01647451699 -0.04457720354 1.712519015e-13)
(0.008664086393 -0.01872047408 7.210898545e-14)
(0.007551597851 -0.01675937215 6.283862319e-14)
(0.005134054298 -0.01068379904 4.009292898e-14)
(0.005849902178 -0.01184841769 4.565792189e-14)
(0.0002156251519 -0.0003686983889 1.415534356e-15)
(9.739740117e-05 -0.0001711761769 6.383782392e-16)
(0 0 0)
(0 0 0)
(0 0 0)
(0 0 0)
(0 0 0)
(0 0 0)
(0 0 0)
(0 0 0)
(0 0 0)
(0 0 0)
(0 0 0)
(0 0 0)
(0 0 0)
(0 0 0)
(0 0 0)
(0 0 0)
(-0.002133743397 -0.1032909321 0)
(-0.002210609586 -0.1058626645 0)
(0.0005267565171 -0.1059444813 0)
(0.0006036227068 -0.1033727489 0)
(0.008752371385 -0.102692178 3.562150575e-13)
(0.008569031534 -0.1036002896 3.506778201e-13)
(0.01094652713 -0.100491409 3.399225346e-13)
(0.01124100204 -0.1004131872 3.480549182e-13)
(0.01629260077 -0.08419188243 2.91433544e-13)
(0.01558936339 -0.08253276428 2.788325126e-13)
(0.01598418068 -0.07401118088 2.500222251e-13)
(0.01680912422 -0.07599790489 2.630257123e-13)
(0.01429390721 -0.04683284372 1.622174617e-13)
(0.01328218737 -0.04455106737 1.506156311e-13)
(0.01128735976 -0.03465983521 1.172395514e-13)
(0.0122814609 -0.03683637391 1.2766177e-13)
(0.004834610105 -0.01157737158 4.021782907e-14)
(0.00415433247 -0.01018907779 3.454181385e-14)
(0.002126638567 -0.00489275803 1.659783422e-14)
(0.002888366462 -0.006488848008 2.255140519e-14)
(0 0 0)
(0 0 0)
(0 0 0)
(0 0 0)
(0 0 0)
(0 0 0)
(0 0 0)
(0 0 0)
(0 0 0)
(0 0 0)
(0 0 0)
(0 0 0)
(0 0 0)
(0 0 0)
(0 0 0)
(0 0 0)
(0 0 0)
(0 0 0)
(-0.002266281282 -0.1090471562 3.450711938e-13)
(-0.002141726513 -0.1063081601 3.289452044e-13)
(0.0003865434924 -0.1046071802 3.23477356e-13)
(0.0003806896064 -0.1077420026 3.406996907e-13)
(0.007604666282 -0.09862085938 3.112787805e-13)
(0.007134348478 -0.09398319084 2.901290319e-13)
(0.008860931463 -0.08837659236 2.726985304e-13)
(0.009524731624 -0.09345127768 2.948197242e-13)
(0.0126730597 -0.07145893924 2.252642517e-13)
(0.01145517079 -0.06575439867 2.027683577e-13)
(0.01130711975 -0.05678733327 1.751238043e-13)
(0.01265825948 -0.06242154185 1.967731533e-13)
(0.00946127017 -0.03384240712 1.067756994e-13)
(0.008022328609 -0.02926487682 9.033052084e-14)
(0.006273322606 -0.02097587407 6.478151349e-14)
(0.00761571955 -0.02495709569 7.878420138e-14)
(0.001914532319 -0.005024845719 1.589006704e-14)
(0.001233254659 -0.003307191973 1.022792961e-14)
(0.0002764425048 -0.0006963843521 2.15105711e-15)
(0.0006389992268 -0.001574732556 4.982125823e-15)
(0 0 0)
(0 0 0)
(0 0 0)
(0 0 0)
(0 0 0)
(0 0 0)
(0 0 0)
(0 0 0)
(0 0 0)
(0 0 0)
(0 0 0)
(0 0 0)
(0 0 0)
(0 0 0)
(0 0 0)
(0 0 0)
(0 0 0)
(0 0 0)
(-0.001431947237 -0.08662455769 2.512989816e-13)
(-0.001146248851 -0.0769640023 2.187278136e-13)
(0.0005307757719 -0.07463691062 2.120248421e-13)
(0.0004995545558 -0.08432119409 2.445127434e-13)
(0.005310249604 -0.07171437996 2.077227279e-13)
(0.004592781247 -0.06217976654 1.764699498e-13)
(0.00543497935 -0.05641441483 1.600802824e-13)
(0.006377623766 -0.06574797586 1.903893709e-13)
(0.007341026502 -0.04410327252 1.276895256e-13)
(0.005926190228 -0.03607919078 1.023625629e-13)
(0.005412964573 -0.02895059084 8.215650382e-14)
(0.006882887065 -0.03627881061 1.050409759e-13)
(0.003778828162 -0.01456717267 4.221623051e-14)
(0.002555308419 -0.01002605042 2.847722058e-14)
(0.001507558074 -0.005437230938 1.543210004e-14)
(0.00250586527 -0.008872195302 2.571554081e-14)
(2.108218633e-05 -6.019096106e-05 1.665334537e-16)
(0 0 0)
(0 0 0)
(0 0 0)
(0 0 0)
(0 0 0)
(0 0 0)
(0 0 0)
(0 0 0)
(0 0 0)
(0 0 0)
(0 0 0)
(0 0 0)
(0 0 0)
(0 0 0)
(0 0 0)
(0 0 0)
(0 0 0)
(0 0 0)
(0 0 0)
(0 0 0)
(0 0 0)
(-0.0004166378199 -0.04374087628 1.171562847e-13)
(-0.0002563823298 -0.03279320412 8.61671845e-14)
(0.0003870522355 -0.03107946786 8.165690346e-14)
(0.000466668868 -0.04178450259 1.118827253e-13)
(0.00235083403 -0.03185036708 8.52512505e-14)
(0.001662198004 -0.02254183426 5.920264279e-14)
(0.001783791445 -0.0189205012 4.969635814e-14)
(0.002610432282 -0.02752642376 7.367717547e-14)
(0.002161064015 -0.01367191266 3.659572645e-14)
(0.001228907271 -0.007880265878 2.070565941e-14)
(0.0008423518682 -0.004774386517 1.254552018e-14)
(0.0016868964 -0.009418447677 2.521594045e-14)
(0.0001940629081 -0.0008030816146 2.15105711e-15)
(5.449075942e-07 -2.296976188e-06 0)
(0 0 0)
(2.269114538e-06 -8.654728302e-06 2.775557562e-17)
(0 0 0)
(0 0 0)
(0 0 0)
(0 0 0)
(0 0 0)
(0 0 0)
(0 0 0)
(0 0 0)
(0 0 0)
(0 0 0)
(0 0 0)
(0 0 0)
(0 0 0)
(0 0 0)
(0 0 0)
(0 0 0)
(0 0 0)
(0 0 0)
(0 0 0)
(0 0 0)
(0 0 0)
(0 0 0)
(-2.765487339e-05 -0.007097738351 1.765254609e-14)
(-7.528591967e-06 -0.002370821359 5.787037516e-15)
(3.010219334e-05 -0.001941192722 4.74620343e-15)
(9.590350832e-05 -0.006323188579 1.572353359e-14)
(0.0002114949047 -0.002916875134 7.258083023e-15)
(2.62230735e-05 -0.0003662712409 8.881784197e-16)
(4.833544524e-06 -5.355040055e-05 1.387778781e-16)
(0.0001606506661 -0.001753326849 4.371503159e-15)
(0 0 0)
(0 0 0)
(0 0 0)
(0 0 0)
(0 0 0)
(0 0 0)
(0 0 0)
(0 0 0)
(0 0 0)
(0 0 0)
(0 0 0)
(0 0 0)
(0 0 0)
(0 0 0)
(0 0 0)
(0 0 0)
(0 0 0)
(0 0 0)
(0 0 0)
(0 0 0)
(0 0 0)
(0 0 0)
(0 0 0)
(0 0 0)
(0 0 0)
(0 0 0)
(0 0 0)
(0 0 0)
(0 0 0)
(0 0 0)
(0 0 0)
(0 0 0)
(0 0 0)
(0 0 0)
(0 0 0)
(0 0 0)
(0 0 0)
(0 0 0)
(0 0 0)
(0 0 0)
(0 0 0)
(0 0 0)
(0 0 0)
(0 0 0)
(0 0 0)
(0 0 0)
(0 0 0)
(0 0 0)
(0 0 0)
(0 0 0)
(0 0 0)
(0 0 0)
(0 0 0)
(0 0 0)
(0 0 0)
(0 0 0)
(0 0 0)
(0 0 0)
(0 0 0)
(0 0 0)
(0 0 0)
(0 0 0)
(0 0 0)
(0 0 0)
(0 0 0)
(0 0 0)
(0 0 0)
(0 0 0)
(0 0 0)
(0 0 0)
(0 0 0)
(0 0 0)
(0 0 0)
(0 0 0)
(0 0 0)
(0 0 0)
(0 0 0)
(0 0 0)
(0 0 0)
(0 0 0)
(0 0 0)
(0 0 0)
(0 0 0)
(0 0 0)
(0 0 0)
(0 0 0)
(0 0 0)
(0 0 0)
(0 0 0)
(0 0 0)
(0 0 0)
(0 0 0)
(0 0 0)
(0 0 0)
(0 0 0)
(0 0 0)
(0 0 0)
(0 0 0)
(0 0 0)
(0 0 0)
(0 0 0)
(0 0 0)
(0 0 0)
(0 0 0)
(0 0 0)
(0 0 0)
(0 0 0)
(0 0 0)
(0 0 0)
(0 0 0)
(0 0 0)
(0 0 0)
(0 0 0)
(0 0 0)
(0 0 0)
(0 0 0)
(0 0 0)
(0 0 0)
(0 0 0)
(0 0 0)
(0 0 0)
(0 0 0)
(0 0 0)
(0 0 0)
(0 0 0)
(0 0 0)
(0 0 0)
(0 0 0)
(0 0 0)
(0 0 0)
(0 0 0)
(0 0 0)
(0 0 0)
(0 0 0)
(0 0 0)
(0 0 0)
(0 0 0)
(0 0 0)
(0 0 0)
(0 0 0)
(0 0 0)
(0 0 0)
(0 0 0)
(0 0 0)
(0 0 0)
(0 0 0)
(0 0 0)
(0 0 0)
(0 0 0)
(0 0 0)
(0 0 0)
(0 0 0)
(0 0 0)
(0 0 0)
(0 0 0)
(0 0 0)
(0 0 0)
(0 0 0)
(0 0 0)
(0 0 0)
(0 0 0)
(0 0 0)
(0 0 0)
(0 0 0)
(0 0 0)
(0 0 0)
(0 0 0)
(0 0 0)
(0 0 0)
(0 0 0)
(0 0 0)
(0 0 0)
(0 0 0)
(0 0 0)
(0 0 0)
(0 0 0)
(0 0 0)
(0 0 0)
(0 0 0)
(0 0 0)
(0 0 0)
(0 0 0)
(0 0 0)
(0 0 0)
(0 0 0)
(0 0 0)
(0 0 0)
(0 0 0)
(0 0 0)
(0 0 0)
(0 0 0)
(0 0 0)
(0 0 0)
(0 0 0)
(0 0 0)
(0 0 0)
(0 0 0)
(0 0 0)
(0 0 0)
(0 0 0)
(0 0 0)
(0 0 0)
(0 0 0)
(0 0 0)
(0 0 0)
(0 0 0)
(0 0 0)
(0 0 0)
(0 0 0)
(0 0 0)
(0 0 0)
(0 0 0)
(0 0 0)
(0 0 0)
(0 0 0)
(0 0 0)
(0 0 0)
(0 0 0)
(0 0 0)
(0 0 0)
(0 0 0)
(0 0 0)
(0 0 0)
(0 0 0)
(0 0 0)
(0 0 0)
(0 0 0)
(0 0 0)
(0 0 0)
(0 0 0)
(0 0 0)
(0 0 0)
(0 0 0)
(0 0 0)
(0 0 0)
(0 0 0)
(0 0 0)
(0 0 0)
(0 0 0)
(0 0 0)
(0 0 0)
(0 0 0)
(0 0 0)
(0 0 0)
(0 0 0)
(0 0 0)
(0 0 0)
(0 0 0)
(0 0 0)
(0 0 0)
(0 0 0)
(0 0 0)
(0 0 0)
(0 0 0)
(0 0 0)
(0 0 0)
(0 0 0)
(0 0 0)
(0 0 0)
(0 0 0)
(0 0 0)
(0 0 0)
(0 0 0)
(0 0 0)
(0 0 0)
(0 0 0)
(0 0 0)
(0 0 0)
(0 0 0)
(0 0 0)
(0 0 0)
(0 0 0)
(0 0 0)
(0 0 0)
(0 0 0)
(0 0 0)
(0 0 0)
(0 0 0)
(0 0 0)
(0 0 0)
(0 0 0)
(0 0 0)
(0 0 0)
(0 0 0)
(0 0 0)
(0 0 0)
(0 0 0)
(0 0 0)
(0 0 0)
(0 0 0)
(0 0 0)
(0 0 0)
(0 0 0)
(0 0 0)
(0 0 0)
(0 0 0)
(0 0 0)
(0 0 0)
(0 0 0)
(0 0 0)
(0 0 0)
(0 0 0)
(0 0 0)
(0 0 0)
(0 0 0)
(0 0 0)
(0 0 0)
(0 0 0)
(0 0 0)
(0 0 0)
(0 0 0)
(0 0 0)
(0 0 0)
(0 0 0)
(0 0 0)
(0 0 0)
(0 0 0)
(0 0 0)
(0 0 0)
(0 0 0)
(0 0 0)
(0 0 0)
(0 0 0)
(0 0 0)
(0 0 0)
(0 0 0)
(0 0 0)
(0 0 0)
(0 0 0)
(0 0 0)
(0 0 0)
(0 0 0)
(0 0 0)
(0 0 0)
(0 0 0)
(0 0 0)
(0 0 0)
(0 0 0)
(0 0 0)
(0 0 0)
(0 0 0)
(0 0 0)
(0 0 0)
(0 0 0)
(0 0 0)
(0 0 0)
(0 0 0)
(0 0 0)
(0 0 0)
(0 0 0)
(0 0 0)
(0 0 0)
(0 0 0)
(0 0 0)
(0 0 0)
(0 0 0)
(0 0 0)
(0 0 0)
(0 0 0)
(0 0 0)
(0 0 0)
(0 0 0)
(0 0 0)
(0 0 0)
(0 0 0)
(0 0 0)
(0 0 0)
(0 0 0)
(0 0 0)
(0 0 0)
(0 0 0)
(0 0 0)
(0 0 0)
(0 0 0)
(0 0 0)
(0 0 0)
(0 0 0)
(0 0 0)
(0 0 0)
(0 0 0)
(0 0 0)
(0 0 0)
(0 0 0)
(0 0 0)
(0 0 0)
(0 0 0)
(0 0 0)
(0 0 0)
(0 0 0)
(0 0 0)
(0 0 0)
(0 0 0)
(0 0 0)
(0 0 0)
(0 0 0)
(0 0 0)
(0 0 0)
(0 0 0)
(0 0 0)
(0 0 0)
(0 0 0)
(0 0 0)
(0 0 0)
(0 0 0)
(0 0 0)
(0 0 0)
(0 0 0)
(0 0 0)
(0 0 0)
(0 0 0)
(0 0 0)
(0 0 0)
(0 0 0)
(0 0 0)
(0 0 0)
(0 0 0)
(0 0 0)
(0 0 0)
(0 0 0)
(0 0 0)
(0 0 0)
(0 0 0)
(0 0 0)
(0 0 0)
(0 0 0)
(0 0 0)
(0 0 0)
(0 0 0)
(0 0 0)
(0 0 0)
(0 0 0)
(0 0 0)
(0 0 0)
(0 0 0)
(0 0 0)
(0 0 0)
(0 0 0)
(0 0 0)
(0 0 0)
(0 0 0)
(0 0 0)
(0 0 0)
(0 0 0)
(0 0 0)
(0 0 0)
(0 0 0)
(0 0 0)
(0 0 0)
(0 0 0)
(0 0 0)
(0 0 0)
(0 0 0)
(0 0 0)
(0 0 0)
(0 0 0)
(0 0 0)
(0 0 0)
(0 0 0)
(0 0 0)
(0 0 0)
(0 0 0)
(0 0 0)
(0 0 0)
(0 0 0)
(0 0 0)
(0 0 0)
(0 0 0)
(0 0 0)
(0 0 0)
(0 0 0)
(0 0 0)
(0 0 0)
(0 0 0)
(0 0 0)
(0 0 0)
(0 0 0)
(0 0 0)
(0 0 0)
(0 0 0)
(0 0 0)
(0 0 0)
(0 0 0)
(0 0 0)
(0 0 0)
(0 0 0)
(0 0 0)
(0 0 0)
(0 0 0)
(0 0 0)
(0 0 0)
(0 0 0)
(0 0 0)
(0 0 0)
(0 0 0)
(0 0 0)
(0 0 0)
(0 0 0)
(0 0 0)
(0 0 0)
(0 0 0)
(0 0 0)
(0 0 0)
(0 0 0)
(0 0 0)
(0 0 0)
(0 0 0)
(0 0 0)
(0 0 0)
(0 0 0)
(0 0 0)
(0 0 0)
(0 0 0)
(0 0 0)
(0 0 0)
(0 0 0)
(0 0 0)
(0 0 0)
(0 0 0)
(0 0 0)
(0 0 0)
(0 0 0)
(0 0 0)
(0 0 0)
(0 0 0)
(0 0 0)
(0 0 0)
(0 0 0)
(0 0 0)
(0 0 0)
(0 0 0)
(0 0 0)
(0 0 0)
(0 0 0)
(0 0 0)
(0 0 0)
(0 0 0)
(0 0 0)
(0 0 0)
(0 0 0)
(0 0 0)
(0 0 0)
(0 0 0)
(0 0 0)
(0 0 0)
(0 0 0)
(0 0 0)
(0 0 0)
(0 0 0)
(0 0 0)
(0 0 0)
(0 0 0)
(0 0 0)
(0 0 0)
(0 0 0)
(0 0 0)
(0 0 0)
(0 0 0)
(0 0 0)
(0 0 0)
(0 0 0)
(0 0 0)
(0 0 0)
(0 0 0)
(0 0 0)
(0 0 0)
(0 0 0)
(0 0 0)
(0 0 0)
(0 0 0)
(0 0 0)
(0 0 0)
(0 0 0)
(0 0 0)
(0 0 0)
(0 0 0)
(0 0 0)
(0 0 0)
(0 0 0)
(0 0 0)
(0 0 0)
(0 0 0)
(0 0 0)
(0 0 0)
(0 0 0)
(0 0 0)
(0 0 0)
(0 0 0)
(0 0 0)
(0 0 0)
(0 0 0)
(0 0 0)
(0 0 0)
(0 0 0)
(0 0 0)
(0 0 0)
(0 0 0)
(0 0 0)
(0 0 0)
(0 0 0)
(0 0 0)
(0 0 0)
(0 0 0)
(0 0 0)
(0 0 0)
(0 0 0)
(0 0 0)
(0 0 0)
(0 0 0)
(0 0 0)
(0 0 0)
(0 0 0)
(0 0 0)
(0 0 0)
(0 0 0)
(0 0 0)
(0 0 0)
(0 0 0)
(0 0 0)
(0 0 0)
(0 0 0)
(0 0 0)
(0 0 0)
(0 0 0)
(0 0 0)
(0 0 0)
(0 0 0)
(0 0 0)
(0 0 0)
(0 0 0)
(0 0 0)
(0 0 0)
(0 0 0)
(0 0 0)
(0 0 0)
(0 0 0)
(0 0 0)
(0 0 0)
(0 0 0)
(0 0 0)
(0 0 0)
(0 0 0)
(0 0 0)
(0 0 0)
(0 0 0)
(0 0 0)
(0 0 0)
(0 0 0)
(0 0 0)
(0 0 0)
(0 0 0)
(0 0 0)
(0 0 0)
(0 0 0)
(0 0 0)
(0 0 0)
(0 0 0)
(0 0 0)
(0 0 0)
(0 0 0)
(0 0 0)
(0 0 0)
(0 0 0)
(0 0 0)
(0 0 0)
(0 0 0)
(0 0 0)
(0 0 0)
(0 0 0)
(0 0 0)
(0 0 0)
(0 0 0)
(0 0 0)
(0 0 0)
(0 0 0)
(0 0 0)
(0 0 0)
(-0.001105860211 -0.08253657228 0)
(-0.001438896802 -0.08252996574 0)
(-0.001453447053 -0.08285053737 0)
(-0.0004266163729 -0.08222953116 0)
(-0.001090392586 -0.08221608785 0)
(0.009711311899 -0.0818397781 0)
(0.008357752797 -0.08180416373 0)
(0.008300926526 -0.08308541532 0)
(-0.001807094012 -0.09236196494 0)
(-0.002491452789 -0.09234151022 0)
(-0.002510666317 -0.09298474231 0)
(-0.001469035945 -0.08317077906 0)
(-0.0004191952069 -0.09176023909 0)
(-0.001054815794 -0.09176156554 0)
(-0.001696406498 -0.09177287577 0)
(0.009271847311 -0.09078906116 0)
(0.00791778639 -0.09075223625 0)
(0.006555629729 -0.09071427269 0)
(0.006486595811 -0.09198995874 0)
(0.006426374992 -0.09327278264 0)
(0.008241453714 -0.08436521291 0)
(0.004465513664 -0.07784944003 0)
(-0.002095310302 -0.1020050659 0)
(-0.00346399634 -0.1019641574 0)
(-0.003502429434 -0.1032500236 0)
(-0.002529867967 -0.09362737698 0)
(-0.001247929618 -0.07803518613 0)
(-0.0009138979194 -0.07804271907 0)
(0.004234639179 -0.08297726878 0)
(0.004295123051 -0.08169684385 0)
(0.002947031332 -0.08166330579 0)
(0.00291610737 -0.08230373698 0)
(0.002884597425 -0.08294337354 0)
(0.003764509983 -0.07847450595 0)
(0.004437887238 -0.07849134466 0)
(-0.0005775243414 -0.07805109913 0)
(-0.001421263843 -0.08795759507 0)
(-0.002075334935 -0.08794898495 0)
(-0.002118561558 -0.08858336954 0)
(-0.001465396518 -0.08859165369 0)
(-0.001376532184 -0.08732307613 0)
(-0.002032378956 -0.08731375538 0)
(-0.0007603283802 -0.08796862214 0)
(-0.0007157155402 -0.08733439854 0)
(0.00397228938 -0.08808837544 0)
(0.004040583883 -0.08681242818 0)
(0.00268016465 -0.086774935 0)
(0.002604418063 -0.08804820864 0)
(0.002852615657 -0.08358299601 0)
(0.002820351334 -0.08422207202 0)
(0.004172220103 -0.08425644031 0)
(-0.001009071319 -0.08029212071 0)
(-0.001350181779 -0.08028234374 0)
(-0.001359286134 -0.08060511058 0)
(-0.001021187092 -0.08061378132 0)
(-0.003594222492 -0.08536416855 0)
(-0.003573032984 -0.08504642558 0)
(-0.003919739818 -0.08503468802 0)
(-0.001258612173 -0.0854130551 0)
(-0.001221542882 -0.08477537803 0)
(-0.001880224286 -0.08476495633 0)
(-0.001898405317 -0.08508422388 0)
(-0.001916271679 -0.0854027835 0)
(-0.0009972643154 -0.07997051065 0)
(-0.001340848048 -0.07995988265 0)
(-0.0006719404494 -0.08030040384 0)
(-0.0006588224418 -0.07997931118 0)
(0.001665283815 -0.08035107218 0)
(0.00169468886 -0.07970945982 0)
(0.001026236047 -0.07969426274 0)
(0.0009966446887 -0.08033610864 0)
(0.001081505031 -0.07841051372 0)
(0.001750829269 -0.07842615529 0)
(-0.00417779937 -0.09047625475 0)
(-0.004163036407 -0.09015652638 0)
(-0.001953802049 -0.08604038701 0)
(-0.001296107909 -0.08605059987 0)
(-0.003605653737 -0.08568662673 0)
(-0.003700023764 -0.08793138971 0)
(-0.003683556187 -0.08761242961 0)
(0.0006804710455 -0.1008016137 0)
(-0.0006882090199 -0.1007607054 0)
(-0.002056895058 -0.1007197969 0)
(0.008880830921 -0.1008831061 3.588240816e-13)
(0.006155209225 -0.1009652475 0)
(0.0060773121 -0.1035114078 3.593236819e-13)
(0.006347356848 -0.0945365136 0)
(0.006308941604 -0.09582178258 0)
(0.001542687379 -0.08291181358 0)
(0.001574387274 -0.0822724218 0)
(0.000906113084 -0.0822576485 0)
(0.0008745529574 -0.08289716401 0)
(0.0009672174729 -0.08097706279 0)
(0.001635715046 -0.08099196232 0)
(-0.0006854090459 -0.08062142623 0)
(0.003648423839 -0.09316883059 0)
(0.003740229043 -0.09190607959 0)
(0.002376847195 -0.09187130742 0)
(0.002279737802 -0.0931279221 0)
(0.002524353202 -0.08931955987 0)
(0.00390378042 -0.08936389784 0)
(-0.0008060139235 -0.08860233546 0)
(-0.001980028874 -0.09814806446 0)
(-0.001941595795 -0.09686219824 0)
(-0.003310281811 -0.09682128975 0)
(-0.003348714906 -0.09810715597 0)
(-0.002188319882 -0.07902551244 0)
(-0.001951632332 -0.07898751434 0)
(-0.002041276279 -0.07857583562 0)
(-0.0009559305284 -0.0790063952 0)
(-0.0009436792544 -0.07868408108 0)
(-0.001286739111 -0.07867430563 0)
(-0.001296459212 -0.07899717362 0)
(-0.003717289863 -0.08825026616 0)
(-0.003539780152 -0.09048127666 0)
(-0.00349114861 -0.08984579828 0)
(-0.004131684913 -0.08984339114 0)
(-0.001611115409 -0.09048864919 0)
(-0.001562420227 -0.08985616161 0)
(-0.002210572293 -0.08985077706 0)
(-0.002252766209 -0.09048585007 0)
(-0.004220939491 -0.0907870052 0)
(-0.002362575947 -0.08025764375 0)
(-0.002374486288 -0.08057913117 0)
(-0.002040078365 -0.08058631669 0)
(-0.002037731414 -0.0802616741 0)
(-0.002406618397 -0.08154298365 0)
(-0.002069281451 -0.08155151205 0)
(-0.002055067979 -0.08123152814 0)
(-0.002387515122 -0.08122464033 0)
(-0.001060970056 -0.08157597046 0)
(-0.001047404015 -0.08125578786 0)
(-0.001381365226 -0.08124837658 0)
(-0.001395101487 -0.08156849431 0)
(-0.002701473942 -0.08122404378 0)
(-0.002736791136 -0.08153706049 0)
(-0.002607606212 -0.08029168628 0)
(-0.002697469517 -0.08055626668 0)
(-0.002464852796 -0.08282574736 0)
(-0.002457905135 -0.08250249762 0)
(-0.002800620395 -0.08249261291 0)
(-0.002805181417 -0.08281641221 0)
(-0.002782867978 -0.0818470656 0)
(-0.002433969259 -0.08185886868 0)
(-0.003897219482 -0.08401381917 0)
(-0.003501890526 -0.08409599352 0)
(-0.003486275422 -0.08377515483 0)
(-0.003804469173 -0.0837540475 0)
(-0.002507785892 -0.0841135713 0)
(-0.00249434599 -0.08379230894 0)
(-0.002827320487 -0.08378552493 0)
(-0.002839791619 -0.08410717491 0)
(-0.002813214343 -0.08313897196 0)
(-0.002473632895 -0.08314810545 0)
(-0.002575597596 -0.08539156543 0)
(-0.00255782439 -0.08507312258 0)
(-0.002891511459 -0.08506577927 0)
(-0.002909182516 -0.08538440451 0)
(-0.002854454086 -0.08442834096 0)
(-0.002523050408 -0.08443448024 0)
(-0.003825183515 -0.08441929272 0)
(-0.003514542617 -0.08441769787 0)
(-0.002458609972 -0.0798442796 0)
(-0.0013103327 -0.07931854258 0)
(-0.0009694569712 -0.07932819297 0)
(-0.002278112792 -0.07930013761 0)
(-0.001983435707 -0.07930272829 0)
(-0.002042531348 -0.07993442679 0)
(-0.004096857046 -0.08920594597 0)
(0.01106819415 -0.08187620911 0)
(0.01997430952 -0.07805192402 3.470279619e-13)
(0.01779288048 -0.08016142248 3.566869022e-13)
(0.01758644394 -0.08220200242 3.545219673e-13)
(-0.001409644028 -0.08188858794 0)
(-0.001076412689 -0.08189561874 0)
(-0.002087756976 -0.08187029257 0)
(-0.002124836528 -0.08283513296 0)
(-0.002114176279 -0.08251307018 0)
(0.005815052014 -0.07788397777 0)
(0.009876742852 -0.07799091092 0)
(0.00852360539 -0.07795518961 0)
(-0.001574786392 -0.07802995986 0)
(-0.001615382632 -0.078342759 0)
(-0.001271361159 -0.07835304141 0)
(-0.0009295913558 -0.07836271853 0)
(-0.0006173011069 -0.07901532089 0)
(-0.0006041366204 -0.07869327319 0)
(0.0003873274302 -0.07903739767 0)
(0.0004012475299 -0.07871626921 0)
(6.734964084e-05 -0.07870897938 0)
(5.319901833e-05 -0.0790302205 0)
(9.359945246e-05 -0.07806733248 0)
(0.0004282875549 -0.07807518394 0)
(-0.003140352052 -0.082808905 0)
(-0.003125361585 -0.08248876498 0)
(-0.00337081823 -0.08252327298 0)
(-0.003462675911 -0.08278617978 0)
(-0.003215482697 -0.08207737089 0)
(-0.003710648344 -0.08349125916 0)
(-0.003467779066 -0.08345571738 0)
(-0.003553509134 -0.08304541097 0)
(-0.003151608658 -0.08345632025 0)
(-0.003151164632 -0.08313066434 0)
(-0.004114473117 -0.08952493151 0)
(-0.003868161961 -0.08472843399 0)
(-0.003640257752 -0.08665118243 0)
(-0.003628881912 -0.08632997793 0)
(-0.002646169801 -0.08666911839 0)
(-0.002628645102 -0.08635018989 0)
(-0.002957693722 -0.08634525677 0)
(-0.002974628935 -0.08666426267 0)
(-0.002925609321 -0.08570480049 0)
(-0.002594184155 -0.08571082086 0)
(-0.00186756306 -0.07802730642 0)
(-0.001956828185 -0.07831109336 0)
(-0.001633407266 -0.07898943395 0)
(-0.001630864498 -0.07866407989 0)
(-0.002383727498 -0.0809011168 0)
(-0.002785655715 -0.08081593566 0)
(-0.002937313944 -0.08126260521 0)
(-0.00302969497 -0.0815348217 0)
(-0.002450821342 -0.08217889328 0)
(-0.002801814669 -0.08216637004 0)
(-0.003124927491 -0.08181544139 0)
(-0.003172145533 -0.08410082789 0)
(-0.003159024572 -0.08377943644 0)
(-0.003540334672 -0.08473362949 0)
(-0.003206475637 -0.08474061928 0)
(-0.003186198194 -0.0844221915 0)
(-0.002371135444 -0.07958142113 0)
(-0.002026725676 -0.07961401225 0)
(-0.001675815957 -0.07962659277 0)
(-0.001650738949 -0.07930932467 0)
(-0.001694863259 -0.08027156338 0)
(-0.001690337501 -0.07994752392 0)
(0.01123211771 -0.07802777511 0)
(0.01530320119 -0.07813845611 0)
(0.01258767174 -0.07806464465 0)
(0.02158954704 -0.07440401732 3.306244167e-13)
(0.0220371083 -0.05586454178 2.482181127e-13)
(0.02267567969 -0.06309424739 2.802758026e-13)
(0.02215023077 -0.06371149755 2.74363865e-13)
(0.02086907081 -0.04857177161 2.159245005e-13)
(0.01321344453 -0.02462723646 1.098010571e-13)
(0.01623113215 -0.03241129464 1.443289932e-13)
(0.01523931852 -0.03140393481 1.355859869e-13)
(0.01000618567 -0.01748495208 7.804867863e-14)
(0.001759995248 -0.002593115371 1.16157084e-14)
(0.004010415552 -0.006232350432 2.788047571e-14)
(0.003317259068 -0.005319307905 2.306488334e-14)
(-0.0005962933676 -0.08542525929 0)
(-0.0005596338129 -0.08478733086 0)
(0.001405691478 -0.08546752171 0)
(0.001441769304 -0.08482945634 0)
(0.0007724977165 -0.08481465323 0)
(0.0007371396029 -0.085453039 0)
(0.000841838365 -0.08353670479 0)
(0.001510036699 -0.08355141605 0)
(0.01199977965 -0.09086790599 0)
(0.01861941315 -0.08333143651 3.288896933e-13)
(0.01687571724 -0.08760218625 3.459454945e-13)
(0.01661253375 -0.08907931401 3.421429806e-13)
(0.01737145563 -0.08416762834 3.521766212e-13)
(0.01979814232 -0.07787177045 3.072264665e-13)
(0.01904275225 -0.05465389814 2.156885781e-13)
(0.0200548178 -0.06328980766 2.496752805e-13)
(0.01917385138 -0.0622776359 2.390171394e-13)
(0.02143603387 -0.06365379637 2.659816811e-13)
(0.01733708171 -0.04560221829 1.800781746e-13)
(0.009382294003 -0.01971289399 7.804867863e-14)
(0.01231880202 -0.02773995729 1.097177904e-13)
(0.0115186095 -0.02667536334 1.026262408e-13)
(0.01444355306 -0.03069033527 1.28577704e-13)
(0.006456123634 -0.01271551499 5.040412532e-14)
(0.0004997372624 -0.0008308212127 3.302913498e-15)
(0.001931903981 -0.003385830375 1.34336986e-14)
(0.001369343723 -0.002467821984 9.520162436e-15)
(0.002920300766 -0.004828143664 2.030320356e-14)
(-0.0006113428302 -0.09818897294 0)
(-0.0005729097354 -0.09690310672 0)
(0.003494709311 -0.09831169822 0)
(0.003533142406 -0.097025832 0)
(0.002164456368 -0.09698492352 0)
(0.002126023273 -0.09827078974 0)
(0.002241304707 -0.09441378832 0)
(0.003609990745 -0.09445469681 0)
(0.01146159201 -0.09942137806 3.53370111e-13)
(0.01686236122 -0.0849223927 3.0137004e-13)
(0.01558429327 -0.09138129953 3.244071678e-13)
(0.01513200977 -0.09111038841 3.154698724e-13)
(0.01624708835 -0.08998370723 3.364808432e-13)
(0.01748449429 -0.07708224842 2.735034421e-13)
(0.01513990479 -0.04840207166 1.718625242e-13)
(0.0166007671 -0.05845560061 2.074729277e-13)
(0.01578126222 -0.05695763429 1.97189487e-13)
(0.01847896169 -0.06175352992 2.307459779e-13)
(0.01339155216 -0.03921232144 1.39305234e-13)
(0.006000696953 -0.01402907679 4.994615832e-14)
(0.008576970229 -0.02149134016 7.646661082e-14)
(0.007340263874 -0.01883692739 6.537825836e-14)
(0.01036304484 -0.02465125276 9.234280007e-14)
(0.003593959159 -0.007875119523 2.806088695e-14)
(0 0 0)
(0.0003810449456 -0.000743789375 2.650657471e-15)
(0.0001778730528 -0.0003561234608 1.235123115e-15)
(0.001032667743 -0.001912599585 7.188694084e-15)
(-0.002315074418 -0.1097311833 3.552852457e-13)
(-0.005047890148 -0.1100759093 3.566591467e-13)
(-0.00494112533 -0.1097210933 3.474442956e-13)
(-0.0048711095 -0.1032091153 0)
(-0.004947975689 -0.1057808477 0)
(0.0004028906422 -0.1089301591 3.524402992e-13)
(0.007999872772 -0.1017267668 3.284733596e-13)
(0.005627916343 -0.1051292509 3.396727344e-13)
(0.00538536175 -0.1026663634 3.242406343e-13)
(0.005971771724 -0.1053584661 3.568811913e-13)
(0.01009360135 -0.0971351917 3.13471471e-13)
(0.01377549722 -0.0761832071 2.456229664e-13)
(0.01306403407 -0.08428252344 2.717825964e-13)
(0.01212859785 -0.0797700349 2.514932707e-13)
(0.01456529801 -0.08990298736 3.038125307e-13)
(0.01389928693 -0.06721157627 2.166877788e-13)
(0.0108396947 -0.0379869556 1.225824997e-13)
(0.01237919468 -0.04777571026 1.540989558e-13)
(0.01099167162 -0.04328404865 1.365157987e-13)
(0.01479488981 -0.05466666211 1.847272335e-13)
(0.008923786725 -0.02864057034 9.246770016e-14)
(0.002656742176 -0.006821145237 2.206568261e-14)
(0.004629596637 -0.01272862279 4.114764085e-14)
(0.003644433265 -0.01023885004 3.236300117e-14)
(0.006514057097 -0.01711827979 5.798139746e-14)
(0.001095691894 -0.002640438237 8.54871729e-15)
(0 0 0)
(0 0 0)
(0 0 0)
(1.704983603e-05 -3.498063961e-05 1.110223025e-16)
(-0.001707196441 -0.09492239679 2.812333699e-13)
(-0.00392218141 -0.09618350476 2.851191505e-13)
(-0.003418319437 -0.08796431519 2.553096623e-13)
(-0.004707807727 -0.1072404858 3.320538289e-13)
(0.0004567811441 -0.09272772555 2.745859096e-13)
(0.005980602808 -0.080366227 2.37670994e-13)
(0.004368622807 -0.08545303787 2.527977827e-13)
(0.003935274216 -0.07683995056 2.22627472e-13)
(0.005094664354 -0.09852881288 3.04312131e-13)
(0.007275258135 -0.0743572496 2.198241589e-13)
(0.008759508426 -0.05189030371 1.533495553e-13)
(0.008697637856 -0.05996169854 1.772193503e-13)
(0.007414675552 -0.05177065296 1.498801083e-13)
(0.01107834874 -0.07414150421 2.286504319e-13)
(0.008384115762 -0.0435249359 1.28647093e-13)
(0.005132993592 -0.01943596986 5.749567489e-14)
(0.006488263909 -0.02699872903 7.983891326e-14)
(0.005014145941 -0.02122443394 6.147859999e-14)
(0.009521865984 -0.03822241767 1.179334408e-13)
(0.003668317923 -0.01274751011 3.771982726e-14)
(0.0002396258695 -0.0006701512677 1.998401444e-15)
(0.001045523472 -0.003125091011 9.256484468e-15)
(0.0004608277499 -0.001405332388 4.080069615e-15)
(0.002686836199 -0.007709218137 2.382816167e-14)
(0 0 0)
(0 0 0)
(0 0 0)
(0 0 0)
(0 0 0)
(-0.0006235377287 -0.05507639457 1.503935865e-13)
(-0.001821761519 -0.05635304573 1.539324224e-13)
(-0.001352378185 -0.04491153683 1.203065425e-13)
(-0.002880278186 -0.07832993075 2.22696861e-13)
(0.0005188395354 -0.05293067026 1.444955267e-13)
(0.003088684583 -0.04184706902 1.141725603e-13)
(0.00242164678 -0.0462351052 1.26162969e-13)
(0.001889233264 -0.03574951107 9.568734693e-14)
(0.003460141775 -0.06719516125 1.907640712e-13)
(0.003519058784 -0.03691833832 1.007111061e-13)
(0.00328737612 -0.02053068457 5.601075159e-14)
(0.003610601259 -0.02606931783 7.112366252e-14)
(0.00249976517 -0.01824816687 4.88359353e-14)
(0.006112727781 -0.04318192725 1.225269886e-13)
(0.002763454749 -0.01520726052 4.149458555e-14)
(0.0007127998238 -0.002897160943 7.91033905e-15)
(0.001382790776 -0.006153525753 1.679212325e-14)
(0.000611412317 -0.002767412782 7.410738689e-15)
(0.003636334439 -0.01565219137 4.443667656e-14)
(0.0002092105849 -0.0007830320973 2.137179322e-15)
(0 0 0)
(0 0 0)
(0 0 0)
(9.887283994e-05 -0.0003075978089 8.743006319e-16)
(0 0 0)
(0 0 0)
(0 0 0)
(0 0 0)
(0 0 0)
(-6.925968529e-05 -0.01401130185 3.548550342e-14)
(-0.0003575468885 -0.01469003271 3.720634911e-14)
(-0.0001736642126 -0.007577304108 1.884603584e-14)
(-0.000946979387 -0.03382452447 8.89011087e-14)
(0.0001872108358 -0.01289994231 3.26683125e-14)
(0.0005619822712 -0.007683541316 1.945665851e-14)
(0.0005164715509 -0.009641562257 2.441102875e-14)
(0.0002211289812 -0.004142463245 1.029731855e-14)
(0.001376841301 -0.02585912833 6.793177132e-14)
(0.000525532577 -0.005667660275 1.434963259e-14)
(0.0001173745239 -0.0007756613609 1.970645869e-15)
(0.0002704863894 -0.002051654874 5.19029264e-15)
(2.044698821e-05 -0.0001575728924 3.885780586e-16)
(0.001544500568 -0.01140630858 2.996214388e-14)
(1.357943089e-05 -7.95411708e-05 1.942890293e-16)
(0 0 0)
(0 0 0)
(0 0 0)
(0.0001391464725 -0.0006409172264 1.679212325e-15)
(0 0 0)
(0 0 0)
(0 0 0)
(0 0 0)
(0 0 0)
(0 0 0)
(0 0 0)
(0 0 0)
(0 0 0)
(0 0 0)
(0 0 0)
(0 0 0)
(0 0 0)
(-5.777110006e-05 -0.002645584551 6.467049118e-15)
(0 0 0)
(0 0 0)
(0 0 0)
(0 0 0)
(4.523307117e-05 -0.0008550066073 2.081668171e-15)
(0 0 0)
(0 0 0)
(0 0 0)
(0 0 0)
(0 0 0)
(0 0 0)
(0 0 0)
(0 0 0)
(0 0 0)
(0 0 0)
(0 0 0)
(0 0 0)
(0 0 0)
(0 0 0)
(0 0 0)
(0 0 0)
(0 0 0)
(0 0 0)
(0 0 0)
(0 0 0)
(0 0 0)
(0 0 0)
(0 0 0)
(0 0 0)
(0 0 0)
(0 0 0)
(0 0 0)
(0 0 0)
(0 0 0)
(0 0 0)
(0 0 0)
(0 0 0)
(0 0 0)
(0 0 0)
(0 0 0)
(0 0 0)
(0 0 0)
(0 0 0)
(0 0 0)
(0 0 0)
(0 0 0)
(0 0 0)
(0 0 0)
(0 0 0)
(0 0 0)
(0 0 0)
(0 0 0)
(0 0 0)
(0 0 0)
(0 0 0)
(0 0 0)
(0 0 0)
(0 0 0)
(0 0 0)
(0 0 0)
(0 0 0)
(0 0 0)
(0 0 0)
(0 0 0)
(0 0 0)
(0 0 0)
(0 0 0)
(0 0 0)
(0 0 0)
(0 0 0)
(0 0 0)
(0 0 0)
(0 0 0)
(0 0 0)
(0 0 0)
(0 0 0)
(0 0 0)
(0 0 0)
(0 0 0)
(0 0 0)
(0 0 0)
(0 0 0)
(0 0 0)
(0 0 0)
(0 0 0)
(0 0 0)
(0 0 0)
(0 0 0)
(0 0 0)
(0 0 0)
(0 0 0)
(0 0 0)
(0 0 0)
(0 0 0)
(0 0 0)
(0 0 0)
(0 0 0)
(0 0 0)
(0 0 0)
(0 0 0)
(0 0 0)
(0 0 0)
(0 0 0)
(0 0 0)
(0 0 0)
(0 0 0)
(0 0 0)
(0 0 0)
(0 0 0)
(0 0 0)
(0 0 0)
(0 0 0)
(0 0 0)
(0 0 0)
(0 0 0)
(0 0 0)
(0 0 0)
(0 0 0)
(0 0 0)
(0 0 0)
(0 0 0)
(0 0 0)
(0 0 0)
(0 0 0)
(0 0 0)