/*--------------------------------*- C++ -*----------------------------------*\
| =========                 |                                                 |
| \\      /  F ield         | OpenFOAM: The Open Source CFD Toolbox           |
|  \\    /   O peration     | Version:  v2012                                 |
|   \\  /    A nd           | Website:  www.openfoam.com                      |
|    \\/     M anipulation  |                                                 |
\*---------------------------------------------------------------------------*/
FoamFile
{
    version     2.0;
    format      ascii;
    class       volScalarField;
    location    "2.76";
    object      k;
}
// * * * * * * * * * * * * * * * * * * * * * * * * * * * * * * * * * * * * * //

dimensions      [0 2 -2 0 0 0 0];


internalField   nonuniform List<scalar> 
3259
(
37.00509207
37.00479452
36.99685169
36.98424814
36.97286794
36.96429152
36.95936963
36.95648742
36.91035049
36.90924035
36.90871813
36.90842332
37.02891284
37.03027065
37.00671338
36.9514645
36.89404758
36.85115695
36.80290229
36.78623132
36.73310452
36.72979789
36.72820013
36.7273722
37.09347516
37.09639932
37.05475367
36.96670573
36.85212063
36.75325452
36.6648612
36.62687523
36.56293761
36.55464152
36.55084263
36.54933494
37.25346475
37.25235684
37.17964746
37.04686326
36.88083037
36.71737415
36.56175544
36.48733839
36.39996607
36.3848616
36.37739374
36.37450462
37.609573
37.59396198
37.45085052
37.22844305
36.98199255
36.74680214
36.5122675
36.37473679
36.25065924
36.22062533
36.20711591
36.20189589
38.44243158
38.34990785
37.97645914
37.56983141
37.18060154
36.83786874
36.51999745
36.29571798
36.11466995
36.06177393
36.03909325
36.03022479
40.35107221
40.17417666
38.93831057
38.126347
37.49491772
36.99571149
36.5604756
36.25554686
35.99229346
35.90882243
35.87289747
35.85890353
43.09525551
40.49722339
38.91818868
37.9239382
37.21585325
36.63579143
36.24532967
35.88653503
35.76334224
35.70962267
35.6889296
47.93846054
42.41162652
39.86947354
38.43428322
37.48161544
36.73594075
36.25519545
35.79698923
35.62765992
35.55238043
35.52355088
51.28329441
44.15349898
40.82245816
38.96413961
37.76417999
36.85048823
36.2767922
35.72487587
35.50586151
35.40585799
35.36750379
52.92224288
45.45362923
41.64519341
39.44936669
38.03615852
36.96602777
36.30452683
35.66881536
35.40000156
35.27453938
35.22571624
53.62737353
46.31552589
42.2763906
39.84933123
38.27247355
37.07155596
36.3345556
35.62903008
35.31136418
35.16065399
35.10105171
48.49531373
43.49062462
52.18695567
48.95581773
53.89098828
52.49284968
54.58063953
54.00450321
54.62169104
40.31513222
42.9807493
40.07605187
52.61582712
45.26172557
47.40293573
42.85992334
41.08905791
56.27433355
58.58591019
50.97826137
45.02243155
43.44358926
54.8592468
54.34246054
52.78940407
46.58994494
45.47562631
56.46564342
55.52279062
39.87141354
57.39669746
57.14864889
58.50703981
52.96040875
46.3310503
51.87350203
57.11153852
54.44071918
56.03624415
50.77114756
57.21591587
56.12164621
57.31344514
57.3362475
50.52083277
55.34662962
54.95176344
53.42484676
56.65137062
56.91540219
56.06337004
56.60536881
53.23670882
57.10050533
56.5673017
41.56172291
42.86351678
57.42684124
39.6660358
65.4230462
48.60605021
51.28903568
53.58689566
47.58814544
46.88939441
60.45504225
48.6796126
47.01125842
44.84699038
50.8406566
45.6834438
46.53997242
42.66331243
54.37186968
57.1875093
57.30649972
56.94831094
57.16820529
54.30173335
42.00633449
44.62361469
42.03905959
42.02629353
70.57794612
49.43001076
65.04257687
47.48084908
61.06455811
48.53200823
58.01869822
58.17823694
54.51376683
54.48069897
41.06984558
47.4188614
56.10775596
41.62493839
41.7429094
49.50016983
41.93141085
55.98274635
51.87888251
49.61248064
53.48991373
56.59468975
56.19769347
55.35529504
55.4959216
56.69874963
55.00471548
54.40512976
55.58746054
55.16827005
56.61158099
57.97361713
53.03390051
51.95955953
54.17358886
53.34779303
57.95744821
55.53571172
50.29614284
55.46117223
42.07245866
45.66086081
56.83660553
42.07377247
40.92592459
61.97431344
52.53022921
64.88045636
40.01525152
40.87731
56.2472321
41.568735
46.48691
43.80461268
47.50042625
43.58699008
43.96870644
57.09902671
60.45514326
59.00325169
58.58148395
54.62918774
44.67224047
44.79725713
48.74699505
48.205091
54.1939109
57.93470104
62.11456755
60.82750275
54.51731597
49.73681823
48.19003021
51.5555319
50.22141591
54.89954446
54.78923122
49.73126916
49.08174131
55.63856455
44.94640185
45.12999564
55.15747141
56.77477757
56.30296091
56.22856997
56.04965693
55.96832461
55.69633938
56.1950767
56.03399296
56.06102625
56.90770523
46.31592925
50.73674719
54.36323266
58.26868617
57.60989545
57.0383662
51.2622159
51.0712952
39.82780183
39.90309735
60.8342292
61.42628069
50.09787052
61.89138091
45.90571858
41.45128761
44.28960675
50.56101887
56.52118454
70.85092118
57.3203994
53.27477337
61.51286919
58.2094678
52.49616415
49.17009325
55.23740531
56.47787823
55.72612494
57.42027098
58.5013198
58.5696675
57.04803185
45.89388269
44.93512927
54.56597499
48.33088409
48.13479343
45.33733577
47.83310651
48.01751846
54.24435848
47.97278313
46.28773238
41.98033928
42.69426961
41.24474674
50.6057541
49.56939278
44.48721088
47.38532256
45.84857517
49.16156745
47.92565018
43.49484883
43.82622427
40.71102585
39.94511682
62.04810916
61.34994661
57.63279249
63.15403665
64.22523088
64.04879073
63.32773419
62.53854565
64.57486001
63.13464649
54.83596333
61.0602609
62.15680386
50.71385506
49.86192509
54.92533553
55.6505103
52.33860476
51.11280391
43.74749783
43.3799023
45.41762516
44.12131597
50.3847331
43.70896814
44.83032863
43.27764573
43.40688239
56.48010932
41.15718214
55.32459051
49.73742123
54.9591267
40.98205754
61.61102895
42.6238704
40.53854805
39.18505983
59.4651271
58.96642982
47.77014056
59.5201671
57.31865688
57.37668825
54.76174081
46.13645192
45.5128545
49.28426401
55.53533189
46.02085277
46.2360577
41.49789721
41.84984125
44.37496437
51.15200132
55.2137972
58.20040087
42.77218601
41.19280532
41.97160886
51.46911292
53.25644278
57.29952845
59.06312581
60.83059027
54.41998821
50.18094441
45.22892787
63.00970213
55.6923648
43.30825759
66.04928937
50.96908825
43.38337925
45.35795054
59.47702699
40.08181404
40.15176848
49.04586104
47.65296757
45.98881682
48.21605602
44.8813882
40.86080956
40.16908528
43.23649166
43.57976256
46.72435381
67.16272444
61.91289817
59.11966631
70.26002635
67.17561472
41.24900417
45.01816891
43.790229
52.66874181
52.00887902
44.64413248
51.84822662
50.95857716
41.25451089
49.9129476
42.30557663
42.62863382
48.44434108
40.85529615
41.76334166
49.69157448
49.31258349
43.12049502
43.63247975
50.00227035
49.19914224
49.60302847
55.2315059
45.2725555
46.56628263
62.13405654
59.29205001
58.38046288
47.17241369
45.42586303
40.45780197
57.71490207
59.24817586
62.01697205
42.84065256
57.42045167
51.50839195
57.78642753
56.49280816
44.41596588
44.97322039
45.792685
51.05518912
54.20764426
54.62978931
53.54955783
53.86565855
60.02373702
59.32388281
59.66415111
58.60110811
58.94911654
59.48659258
48.57357868
47.32961809
47.63886203
46.8900484
47.10072582
48.57149808
61.56423173
60.50994626
60.54782867
60.00890051
60.29880884
61.18694363
49.33758361
48.54731488
48.88828536
47.91691826
48.24268971
49.14450203
52.81837959
52.94163746
52.04144219
52.21272474
64.98223897
64.41646908
62.00309415
48.47804972
64.89442519
62.88886686
69.05623021
63.17376724
65.76397363
61.01224849
52.08247467
67.52061713
61.9771941
51.81197043
51.35502965
60.91516446
47.71355529
52.59381269
58.23608108
56.18868662
57.71784764
55.29389983
66.20179903
62.3945068
66.68724232
60.26502662
63.32591256
66.15965395
67.7468346
67.06391285
55.88192716
56.31322936
56.6703819
55.40612831
55.65308432
55.54493546
58.01530232
57.86441052
58.21453581
57.11048105
57.45427274
57.545563
45.56616054
47.54815123
47.52654755
48.16515818
48.21069041
46.33826808
48.79365277
48.48244812
47.85948015
48.3582003
48.80362497
47.2211733
46.95811831
46.8714231
47.43140142
47.22568631
46.66215581
52.35758806
48.10370921
41.50498731
53.98712471
53.90211863
53.55345344
43.53083087
52.34428991
51.79949639
41.91034397
42.0473728
46.68927892
61.84608395
60.49509009
60.42693028
60.47821873
60.50557817
61.59428093
63.58017991
63.83753721
63.22295704
66.60199395
66.47777539
66.56274705
66.63865443
63.07091128
64.8084336
65.90380057
67.82106824
64.89694654
50.55242201
49.90654022
50.27115068
49.20866723
49.56693095
50.1159546
51.8111975
51.24326657
51.52489899
50.62168756
50.95948944
51.52186415
48.97260532
48.8558945
49.92598476
44.47845512
46.30426639
44.03839029
48.80308762
49.1295734
48.5764522
48.72448594
44.43612103
43.20811595
46.24735143
44.71093332
48.4503651
48.55820395
43.21817999
54.31865697
43.0339241
44.0956757
41.23624248
42.04654791
55.09657908
53.82135366
53.19078269
45.5092606
49.00607956
55.49574472
60.6581868
37.06541235
37.02449301
37.07124335
37.0766295
37.0320633
37.07407271
37.05047999
37.01711119
37.03763297
36.98042088
36.96903682
36.95795378
36.87951485
36.90790353
36.85476244
36.78941532
36.86078957
37.19053021
37.08698588
37.20120345
37.20761589
37.09934835
37.20121247
37.15880797
37.06943075
37.13758783
37.05258129
36.9918101
37.01884449
36.90678371
36.88095137
36.86812804
36.75411544
36.77307998
37.47830875
37.24056972
37.49741043
37.5057227
37.25799872
37.48591951
37.39993562
37.20459616
37.36298377
37.22444438
37.08420994
37.17122244
37.00418356
36.92388053
36.94827519
36.78653705
36.75649982
38.13627151
37.58652548
38.16872086
38.16544001
37.60250335
38.08877995
37.88880014
37.49762676
37.81096475
37.5554262
37.288944
37.46635147
37.20445699
37.04360791
37.12047027
36.88477833
36.80427801
39.97983271
38.38832372
40.00707442
39.77450511
38.36448191
39.41856463
38.8426861
38.07604217
38.64677057
38.12213524
37.67213731
37.96379362
37.53457757
37.27382289
37.40496241
37.05510399
36.91965815
41.56896908
41.57620529
40.35349056
40.98219
40.30382014
39.81965119
40.05448352
38.98056081
38.30895167
38.70036936
38.00184814
37.63923624
37.80546597
37.30033563
37.10933697
44.9592508
43.54726841
42.19845385
41.93165401
40.07122902
39.23639996
39.62781182
38.58300246
38.13998499
38.30298068
37.6054625
37.37179343
49.43155165
46.69840151
45.54857974
43.75601329
41.19730702
40.35542807
40.59563765
39.20128976
38.73593857
38.83454362
37.93735188
37.68704788
52.05882097
48.94741494
48.23232975
45.17242199
42.17733171
41.45921007
41.45620773
39.77675056
39.35084553
39.33526402
38.2609144
38.01959955
53.27892496
50.22395169
49.86846757
46.13545401
42.93364777
42.3889042
42.1369119
40.25688368
39.90687144
39.75881552
38.54578875
38.33591761
53.78684793
51.34782422
51.2176756
43.08550004
40.35860484
38.60767256
47.71570587
49.19929668
50.42513118
43.78167063
44.64775452
44.17306254
51.83992351
53.99461647
54.45546507
50.80413491
51.82775483
49.6909612
53.74616326
55.4629068
55.67879088
54.57583414
54.91031048
52.77150597
54.51022758
55.52258832
55.56834064
55.24585776
55.31111684
54.11761314
55.59911011
55.64273652
54.67920324
53.55847821
54.31225609
55.40214973
41.57676002
55.56053187
52.78822771
42.39733871
42.5619781
43.22204003
40.24045834
41.50478068
41.20484358
52.02327403
52.83268457
53.47932103
45.9865085
46.85288
46.16441743
45.20091117
43.88025204
45.55481781
42.26466934
43.29149741
44.01361798
41.84150496
42.56005116
41.66870912
56.52207328
54.59966846
54.20239669
59.33972454
59.19355569
58.62306115
47.95556926
47.02118027
49.85053896
44.53149669
45.97746485
46.53291861
44.71122468
45.36687394
44.00207052
54.76629083
52.62454366
52.83611531
51.34706688
51.20094306
54.2609058
49.68966894
49.16949256
52.26429767
46.2588483
47.88207834
48.22642577
47.03715897
47.48282081
45.88575334
56.35063872
54.28492694
54.62883174
50.24981332
51.19896984
55.68431663
39.52773794
39.54291282
40.26425179
57.31488072
53.75950236
54.99013072
56.47780565
56.61564694
57.20317231
58.38200454
59.53579823
59.47834587
54.09543278
54.73695521
53.50874031
47.37065397
48.75466111
47.14855544
52.44984196
50.92319956
50.23452469
54.46019336
53.95933445
56.29893344
54.54746823
51.6946355
51.51474552
53.82523734
53.46620915
55.84367472
53.19115486
53.82327517
51.20082371
56.93576903
56.88821842
56.81416369
57.36902581
57.35142958
56.29929236
57.74321374
55.30935602
54.88856226
56.74423208
56.56779346
57.68141623
49.86742021
52.12804782
52.95969922
55.1558603
48.69794291
49.91370217
52.97983586
53.09168415
55.02283808
55.27947724
55.42948479
53.6011867
56.69236411
57.37451314
57.38498852
56.3536162
56.31442025
56.80503649
55.9827621
57.38574728
57.37966551
57.3973836
57.40361719
56.14212209
53.01401151
54.99288002
55.2255412
57.04043257
56.17181506
56.33467907
54.86980641
55.12813903
56.66854951
55.33028023
39.56006018
50.00244146
54.65443605
51.43862337
51.06474734
50.38699381
53.35457518
47.38520597
49.02641086
49.22225108
48.53246827
48.79292555
47.14990315
47.74467948
40.33582151
41.33760563
43.76199094
44.17503238
47.58946501
47.18727364
45.41929309
43.98823646
49.46228771
48.76677497
50.12312529
44.86294973
45.42080901
46.87367371
45.98178058
42.62284717
43.11171737
40.58981246
40.69737848
43.09723406
55.44841415
55.49307451
54.45827816
57.24717256
56.63830933
56.35144669
56.64209828
56.63873965
57.25487665
57.05521091
56.36430423
56.35901547
56.35874786
56.36393099
57.08747572
54.20478655
55.35772519
55.40923
43.21284924
44.08265069
44.36144439
44.88382793
42.00799593
43.08266344
42.80949136
43.22327949
43.18329995
42.038177
51.20134674
54.31413456
50.76053153
53.15439834
48.6229467
46.68850711
57.71164816
56.00777724
60.48636886
47.08717821
48.72963355
50.55618237
57.52395867
57.3314364
57.88059145
58.28566106
58.07765615
57.89213952
52.11269077
52.12354564
54.52566558
54.42207609
51.85888659
52.04965858
53.5456455
53.94811395
56.23345025
41.44839333
42.25559927
41.98544947
45.12896795
44.64870295
41.51489114
41.79683398
41.75461936
42.34325401
55.84516226
51.5310375
51.93729757
51.17029573
45.88208255
46.93565873
41.90615165
42.98565412
50.40000976
58.40077609
58.70247193
56.96314969
55.76381797
57.57338602
58.04133129
52.87503292
52.67606914
55.21064119
55.60106891
53.15885461
53.04834453
57.24098905
57.17637815
56.87586232
54.81915703
56.09111672
56.23591901
55.7189452
55.92684832
54.62449594
55.45819304
56.58513135
56.67678632
56.36537789
56.4825902
55.32384219
56.37916111
57.32635085
57.28982128
55.99382231
55.64657305
57.84094021
52.69883124
54.03881508
54.37591008
53.26059978
53.66198007
52.3397147
53.91561521
55.25451717
55.50893326
54.70280575
54.97962736
53.64461267
57.7882318
56.53391615
56.24160883
47.03709131
48.21607991
55.93168754
55.38634676
53.64745932
53.77937156
43.46454024
51.64473955
52.08460187
52.79542959
52.27522645
44.01498121
56.7507319
55.3693323
55.59444657
41.72661561
40.55496187
40.54445324
42.83965527
42.00584351
40.87618164
47.95126775
40.20339384
44.05660487
42.63094109
43.77986729
44.70253968
45.29681751
44.73377932
43.54922918
47.96148242
45.17645487
46.24983741
46.75546097
48.34225124
43.81398361
44.90451524
44.52850107
45.27787118
45.11544003
43.93264472
55.60022729
55.04718796
56.80412847
58.614438
58.98463694
58.81132906
52.24626234
52.4234187
54.67205957
44.58370326
47.98886161
47.70087099
48.90615905
48.42698879
44.64597689
54.20445311
51.08997091
51.08112145
59.39809247
59.53635429
58.19218659
52.27079795
51.585209
53.47507142
49.23553285
50.2360751
50.80998573
49.04048145
49.65636586
48.72150701
51.13201097
52.36489957
52.82842297
51.35339717
51.87605392
50.68591526
55.9652062
53.44166556
52.86781992
52.07317418
51.8827633
54.66740659
55.67954304
53.17240393
52.98808167
45.03457702
49.49231451
49.26030649
49.8420071
49.67166934
45.07861816
55.09430875
53.17265721
53.26322551
57.35425561
57.36267631
56.72741297
56.28218287
57.11635529
57.11560778
57.09815361
57.10944074
56.26076589
57.39113303
57.3885746
55.98854278
55.88562295
56.88704213
56.93938941
56.75678097
56.82695153
55.80089763
56.14736761
57.05505686
57.08002405
56.98486153
57.02369471
56.09902753
56.10794568
57.39606299
57.3942049
55.80167707
55.99907746
56.98217488
47.42732676
53.72025635
53.33604359
54.52008385
54.13548686
49.95951098
52.98850673
56.34764859
63.20643138
39.79505801
40.2430388
39.96463371
41.3818434
40.6501403
39.79149897
52.16963483
43.98641425
40.58681472
40.82776414
40.32538673
40.44905172
42.5924605
43.80757659
40.92995296
41.23216924
55.71341418
58.59907526
60.67819747
55.64997258
57.6982581
54.87700015
61.7009841
63.30439592
59.60851217
51.02747562
52.86529783
54.66260502
50.36507727
51.73724191
50.31726497
57.08618978
53.87051333
52.61009714
57.67076484
56.81148123
56.27766467
58.56122866
58.3793924
58.41564553
47.59499279
47.55127299
45.20632851
54.55153288
52.12944966
52.16592254
51.23141751
51.5386699
54.3330003
42.99817897
42.65730831
41.33321584
50.30891232
46.61457064
47.10123748
45.47290405
46.04363226
49.91576673
46.87501613
42.90186824
43.25502007
42.53792116
42.62676342
46.30119181
48.79283112
44.4324531
44.90476041
43.65832884
44.01689423
48.31039423
42.93675416
41.75148689
41.83218973
39.97141635
40.32382324
45.92258121
40.49544371
39.64574854
39.65083098
39.83691318
39.69760836
40.1044799
57.30204252
58.95782568
59.20671168
56.47282541
57.05630243
55.30537062
61.66372298
59.44350847
58.86445119
60.28992251
59.92515165
62.1040051
55.06304801
52.47574454
52.27268714
53.04561001
53.15549588
55.65716436
43.53922123
43.13114829
42.83712348
43.98068797
43.56169539
43.44494612
45.03171433
42.52342192
42.52197636
42.63784236
42.57297366
44.57600739
40.82836227
40.66261088
41.33953597
40.89653511
41.34419822
41.03595945
41.94021466
41.11980048
41.27824158
40.03445669
40.4835505
41.14737447
39.45855689
39.94703063
39.58384983
49.39214793
49.54118157
47.92240975
57.38838605
56.65322725
56.64508083
56.68498867
56.66324724
57.33598565
45.71390165
46.90838236
47.37968718
46.31695226
46.8239459
45.54690017
54.11969549
48.33320157
48.40595337
49.40943769
52.70848332
61.20143673
46.13733468
47.41225969
47.00625242
47.82576747
47.77679055
46.19174764
42.53071248
42.29954088
41.77773077
43.67068637
42.84322042
43.04078632
51.63531148
52.22967155
51.71393198
56.30087901
54.0274246
53.19995071
55.64562505
54.78619352
57.19157116
42.21697504
40.062214
40.33551992
39.69760836
39.81180847
41.64582186
40.90504922
39.63759404
39.77008558
52.09467302
55.17049735
54.85730591
55.70765166
55.44858245
52.70025424
59.8625085
57.15144124
56.3802062
58.34662414
57.7204173
60.26729827
53.88918447
55.31536289
55.91275755
40.78277262
40.04602985
41.23348135
40.97379077
42.08705718
41.78561412
40.0781689
47.94531489
45.03419364
44.88052933
47.0990496
47.7914704
48.42119094
49.00535853
47.92777775
47.25534218
41.65031202
42.08266531
45.43337587
40.51015223
40.35347622
40.32147103
40.6197567
40.45286302
40.32897471
43.28863271
43.69128049
43.56138498
44.07227956
43.99300984
43.43406676
45.63143074
44.55970412
45.16052625
51.55958077
48.66138804
48.97752379
47.64973652
48.09492896
51.23270223
41.32659399
43.9859427
43.51729092
53.3667797
53.49600698
55.30016275
45.56044303
50.37611063
50.07345803
51.09535796
50.76232877
46.03939239
45.15275173
46.03852071
45.68762275
46.67304009
46.43872324
45.4719667
49.57968999
47.39328853
48.10093197
37.01682707
37.01829622
37.00561449
37.01607171
37.01012887
37.00264622
36.9973857
36.97893889
36.99010177
36.95722124
36.93800751
36.97830756
36.9213476
36.90754108
36.96821516
36.89713245
36.88731214
36.96156281
36.88004811
36.87482728
36.95776941
37.03978869
37.04275588
37.03102877
37.04184261
37.03796599
37.02767513
37.01441396
37.00220382
36.99874114
36.95121576
36.9294849
36.93717138
36.87708502
36.86056721
36.88240433
36.77413641
36.74989701
36.81400282
36.73097317
36.71661476
36.79353033
36.70641606
36.70122794
36.78116335
37.1218536
37.1270487
37.09790089
37.12428222
37.11677824
37.09021085
37.07640961
37.05612725
37.03637512
36.97944337
36.94876306
36.93832083
36.85398451
36.82124114
36.82214843
36.71886464
36.64961145
36.69335761
36.60831437
36.5780817
36.64347943
36.5563228
36.54359575
36.61522983
37.32052966
37.33000251
37.26151267
37.31635898
37.2988585
37.2421736
37.22955276
37.19746195
37.15100947
37.08124634
37.03737404
37.00717867
36.89792532
36.85131034
36.83779446
36.73552649
36.61036201
36.61869389
36.53063057
36.47173739
36.51962685
36.42954138
36.40242047
36.46441706
37.76276069
37.77521777
37.62442527
37.73261223
37.68241299
37.5787016
37.55048861
37.4921309
37.40074244
37.2964678
37.22799569
37.16727819
37.02164883
36.95498334
36.92141019
36.81133457
36.62964492
36.61577321
36.51317056
36.40813921
36.43307601
36.33284474
36.28085269
36.33431472
38.8142507
38.82716826
38.45946894
38.61411457
38.49182045
38.29101857
38.1688387
38.04668944
37.876119
37.68646279
37.57185864
37.46928983
37.24733585
37.14761486
37.09031173
36.95238163
36.69635088
36.65692793
36.53545588
36.39408944
36.39317504
36.27200368
36.18410504
36.22477769
40.6802377
40.69685476
40.43155151
39.27021853
38.99383396
38.71180055
38.3034789
38.10706696
37.95459333
37.5914471
37.44119235
37.35877922
37.15738817
36.80708055
36.74614511
36.59478323
36.4126595
36.40008098
36.2457903
36.11475597
36.14268274
43.68272334
43.35725093
42.8430086
40.96532271
40.3955112
40.00935065
39.14890262
38.82978856
38.63348124
38.04583263
37.82911156
37.72512856
37.41304362
36.95794286
36.87788643
36.68370417
36.45240699
36.43020981
36.24833767
36.06999977
36.08721071
48.47265316
47.52262452
47.04556431
42.88037238
41.98734787
41.59190844
40.11607318
39.65721871
39.44567144
38.56810812
38.27585542
38.16109355
37.693891
37.13312739
37.04338208
36.79267971
36.50795368
36.47790958
36.26576929
36.04573848
36.05487613
51.56776797
50.44598701
50.15705952
44.52335428
43.41029596
43.08267037
41.04583199
40.46420212
40.26966116
39.09130371
38.72636812
38.61622075
37.97161327
37.31206639
37.22279898
36.90927717
36.57370748
36.53928149
36.29146033
36.03755156
36.04009974
53.05955936
51.99796498
51.84782787
45.70664616
44.49080163
44.25323952
41.82203823
41.15173584
40.9937453
39.55899676
39.13456006
39.03847502
38.21884597
37.47801727
37.39719303
37.02117032
36.6410857
36.6063932
36.32211371
36.04007597
36.03868651
53.69542578
52.71108749
52.66131352
46.47182273
45.22760569
45.07086839
42.40227156
41.67572462
41.56164016
39.93252024
39.46557323
39.39147381
37.55163102
36.67112129
36.04381745
40.69622745
46.55635956
46.03807871
46.79530528
49.85795068
49.52530994
50.64111739
51.71045824
51.53459422
52.62702058
57.36318031
57.11791345
57.19733695
56.03330391
55.77581606
56.87946794
57.11002584
57.47144698
57.49515349
56.96595819
56.98426979
56.16986641
57.4769288
56.44888289
56.22952155
57.53515808
57.55595273
57.45156893
57.32482726
57.3291092
56.88579118
56.028524
56.9257521
56.93723595
57.25703549
52.58262664
52.52093872
53.50764595
45.53354733
45.07087844
44.5942535
57.21700054
57.29561398
57.28698272
57.24836905
57.25380468
57.28330222
56.98397409
57.31191526
57.31588787
57.28875989
57.29004752
57.14241957
41.99930166
42.27786036
42.35659023
42.34162873
42.34000099
42.07926497
49.47615396
47.91576539
46.90589804
57.24406649
57.28344716
56.76501695
56.53537708
57.16019392
57.19863886
57.31403076
57.1948187
57.96205273
57.9250134
57.49293715
57.40114875
53.9267696
54.00899141
55.60020223
42.45980693
46.25682245
45.77931737
49.11397322
48.68077739
45.13299816
53.92178363
53.63703237
54.12400017
55.26357896
54.47883124
54.1551716
56.91878297
56.90984407
56.02747556
56.07721481
56.93480327
56.92388078
46.72371947
49.95662246
49.51747142
42.40286412
41.95133996
42.11174079
57.34388432
57.23724928
57.24183389
54.71477355
55.67500502
55.71205841
41.61813098
42.16059077
42.0190222
44.07559943
43.66627387
43.80465892
57.24211659
56.73457385
56.85779561
46.5229601
47.13860776
46.5434364
46.41804994
45.63677192
45.7950212
37.04831141
37.03497283
37.07516562
37.05712811
37.05366346
37.05808456
37.05825438
37.07708027
37.03227042
37.04372725
37.04357788
37.06848101
37.05135518
37.05616622
37.03584913
37.04542224
37.06134262
37.02279584
37.03278689
37.02486403
37.02102124
37.00959428
37.02446664
36.97309286
36.99279916
37.00247237
36.98172675
36.98606772
36.96971461
36.93209531
36.92941914
36.95319607
36.88295701
36.90697083
36.9076217
36.92142442
36.91187643
36.89293328
36.83018096
36.8429691
36.8637141
36.8091043
36.82629101
36.80948871
36.87067737
36.84701141
36.8333186
37.14792135
37.11446855
37.20814659
37.16266115
37.15659192
37.16275528
37.16480833
37.21028045
37.10022218
37.12975556
37.12823436
37.19018947
37.15056983
37.15861159
37.12294701
37.1388357
37.17639992
37.08170913
37.10671979
37.0929711
37.11240473
37.08126705
37.10393258
37.02721978
37.05584656
37.08411091
37.01578074
37.03329422
37.00718174
36.98260055
36.96339067
36.99664241
36.89390038
36.92936691
36.94535739
36.91081301
36.91781565
36.88524501
36.82908711
36.82377563
36.8588546
36.75431044
36.789089
36.79123434
36.7969671
36.7897594
36.76196263
37.37901859
37.30556952
37.5096375
37.40813333
37.39656441
37.39804132
37.40575706
37.50951168
37.26176543
37.33073506
37.32722674
37.45641669
37.37849775
37.39068472
37.32494344
37.35503236
37.43020771
37.22593461
37.27990296
37.25710119
37.32066808
37.25401669
37.29128418
37.16945724
37.21338752
37.27430648
37.11921734
37.16174585
37.12275126
37.11591181
37.07425251
37.12299352
36.97158542
37.02339695
37.06018709
36.96624827
36.99209537
36.94515384
36.89307895
36.86979239
36.92035535
36.77205634
36.82041914
36.83911642
36.7963356
36.80625261
36.76247063
37.900039
37.73938769
38.18126549
37.95006809
37.9326507
37.90422601
37.93737418
38.18174468
37.6190518
37.77607959
37.77081324
38.00849391
37.86873295
37.89546629
37.73872502
37.8063411
37.95468246
37.54211681
37.64584242
37.60267871
37.72819909
37.60063512
37.67109018
37.45291327
37.52778813
37.64298135
37.34689127
37.42940543
37.36390259
37.37828619
37.29807886
37.37565944
37.14328964
37.22062856
37.29102472
37.10579037
37.15922423
37.08982342
37.0391161
36.99417878
37.06783726
36.85324206
36.92272144
36.96057829
36.86224549
36.89011496
36.82710451
39.20725128
38.76771286
40.03285062
39.29976253
39.2899379
39.09129733
39.21331545
39.90329876
38.42571148
38.82361781
38.77401582
39.21221984
38.91235731
39.0505155
38.54589369
38.71054839
39.04356567
38.1807668
38.39942578
38.28877267
38.4625392
38.24066922
38.39133091
37.95435894
38.09509496
38.28814772
37.77438341
37.92511198
37.80489841
37.81404886
37.68642994
37.81787362
37.43858896
37.55977056
37.67114364
37.37045006
37.46031952
37.35165442
37.28198532
37.21189995
37.32285891
37.00495344
37.10600897
37.16539582
37.00334938
37.05203347
36.96053793
41.55784148
41.17806574
41.14054767
41.08419614
41.13617691
41.62101141
40.41130419
40.7511701
40.74041836
39.64607743
39.30459934
39.64349043
38.73873521
39.00628309
39.2922242
38.50307425
38.74412206
38.51539758
38.44680774
38.27109844
38.49447921
37.87337715
38.06460744
38.21479846
37.79230698
37.92344918
37.75191746
37.6239563
37.53027385
37.69567588
37.23219004
37.37593993
37.45606425
37.23038643
37.30052752
37.16885417
44.43602633
43.878308
44.26869576
43.02440221
43.43786683
43.92229768
41.19279563
40.78974266
41.44578779
39.78456365
40.246147
40.58456383
39.59516567
39.91749006
39.50806071
39.23872754
39.0297914
39.383196
38.42996899
38.71426689
38.89297061
38.37541756
38.5427332
38.28276702
38.04869321
37.93688384
38.17199372
37.52487198
37.72180805
37.81688029
37.5413926
37.63020602
37.44726175
48.4002225
47.96607458
48.95651007
46.31544859
47.08112518
47.47986185
46.24316041
46.67609981
45.97646665
42.7370015
42.36871098
43.32948539
40.9214117
41.58179962
41.89985831
40.92029388
41.25602201
40.64235387
40.07200882
39.86328109
40.35521444
39.04591295
39.43057548
39.61093915
39.07092107
39.25233559
38.89176565
38.50438018
38.3903002
38.70124498
37.85421463
38.10883192
38.2064128
37.91278777
38.01087414
37.77061509
50.94674765
50.69928721
51.82139925
48.73374268
49.66087059
49.90749206
49.13567927
49.41784274
48.48339303
43.99546337
43.71370613
44.86261382
41.95216436
42.75976251
43.01271128
42.20094839
42.48938949
41.71299499
40.82623967
40.6487679
41.25583712
39.63948383
40.11406271
40.27059422
39.78316539
39.95186979
39.49740419
38.93869998
38.83436211
39.21542278
38.18214682
38.49117782
38.58184689
38.30255579
38.39773156
38.10178802
52.23450301
52.1029921
53.16109472
44.8985715
44.703372
45.93350518
42.76691568
43.66274305
43.84523706
43.2472862
43.46551513
42.58603849
41.43505831
41.29882114
41.98611893
40.14775712
40.6902436
40.81254384
40.41828681
40.55886462
40.03109258
39.3109146
39.22542796
39.66207799
38.4786142
38.83231461
38.90784055
38.66869127
38.75263754
38.40946427
44.00794068
44.15719852
43.22329827
40.92662442
41.02991621
40.45153095
38.97895771
39.04505587
38.6671932
49.620308
48.83360265
48.39070611
49.54459515
49.14683629
50.03303506
54.16474883
53.09592633
52.91226005
53.42437358
53.26339445
54.30749336
51.16335224
50.21328763
49.85126551
50.82792884
50.50836779
51.50559995
55.50206652
54.7551972
54.71302938
54.70280413
53.70993572
53.57199286
53.95840076
53.83925025
54.80202399
41.08467833
40.69214586
40.63805852
40.23761339
41.3805069
40.93533531
40.95933188
40.7407239
40.83540434
41.29774791
44.73100234
45.34245384
45.8042377
44.3971514
44.87828216
44.38441375
46.22096813
45.51723722
44.9689295
47.66161979
48.53100838
48.85215509
47.84519508
48.2055875
47.35967657
50.27595093
49.18027431
48.79797356
49.54601915
50.49231242
50.67421522
50.11037471
50.32362076
49.34820576
52.46133032
51.36463597
51.15491143
50.56541255
53.19916916
53.04527549
53.54681338
53.39387144
50.91798758
56.95403019
57.05052347
57.33452351
54.21289964
56.15984098
55.93883672
56.52466613
56.34897599
54.63006883
47.83602838
47.28291219
46.76813039
48.07236983
47.59885455
48.3082683
56.60406651
55.55149887
55.26072471
53.42018179
52.32450518
52.09485129
52.7247723
52.51334154
53.61915397
57.40499781
57.42065821
57.00455619
56.92859339
57.25335306
57.33768996
57.16655711
57.22614846
56.85392242
56.24054008
57.01930047
57.04504734
56.7987103
56.61455906
57.62106176
56.68914715
57.02396695
57.10796357
56.79272999
56.92637208
56.62237696
57.57100345
57.58230709