/*--------------------------------*- C++ -*----------------------------------*\
| =========                 |                                                 |
| \\      /  F ield         | OpenFOAM: The Open Source CFD Toolbox           |
|  \\    /   O peration     | Version:  v2012                                 |
|   \\  /    A nd           | Website:  www.openfoam.com                      |
|    \\/     M anipulation  |                                                 |
\*---------------------------------------------------------------------------*/
FoamFile
{
    version     2.0;
    format      ascii;
    class       volScalarField;
    location    "2.29";
    object      p;
}
// * * * * * * * * * * * * * * * * * * * * * * * * * * * * * * * * * * * * * //

dimensions      [0 2 -2 0 0 0 0];


internalField   nonuniform List<scalar> 
3019
(
830.6801132
829.5334272
826.7819885
821.1949406
813.3968939
796.9571443
770.3072898
728.11022
665.2024752
575.3187382
453.9057694
300.9481733
831.400975
830.6257041
828.6192384
824.3676016
816.6095213
802.5240127
778.8602102
744.6520722
688.0226716
604.5963016
487.9448073
335.5921049
833.0963732
833.1408111
832.870485
831.5389484
825.9592317
817.2420887
800.7668429
771.2478821
723.751946
648.228833
532.0334413
366.95991
835.1107979
836.314416
838.520672
841.1104528
839.7865385
838.6041507
833.1810682
814.3655236
783.6107005
722.2636972
609.4184022
425.120659
836.2408925
838.7705644
843.8505124
851.0516711
854.9687376
863.6155765
872.1937054
870.8445402
864.7075582
832.9775509
744.1581921
542.2269624
835.1783316
839.033377
846.9732358
859.1329923
868.6128026
888.2057213
912.7536682
932.3341741
962.7871079
988.0576631
973.2863654
803.4742822
830.6644605
835.6855677
846.0557054
862.5360282
878.4297747
907.6335597
947.3138482
988.5601563
1059.786989
1161.460439
1304.354669
1428.335806
821.6068725
827.4773421
839.5960123
859.1108203
880.628164
917.0674096
967.5829799
1027.279554
1129.700605
1289.768123
1564.352594
2114.791061
807.1764862
813.4688143
826.4368233
847.3973244
873.1077877
913.1737703
968.5910341
1038.69049
1152.438805
1318.463445
1556.541465
1845.137302
786.9206472
793.1628152
805.9857014
826.6543444
854.7820908
894.6101754
948.952348
1020.22401
1126.893571
1269.148099
1436.785102
1588.67385
760.820435
766.5738983
778.3159118
797.0136987
825.9008434
862.066716
910.4774813
976.3684581
1067.302401
1180.340535
1303.163586
1414.463575
729.2591253
734.1575323
744.1340521
759.1864943
788.1672129
817.5548061
856.6113544
912.7154355
983.9259034
1069.08132
1163.26545
1273.576327
1889.94404
1614.237452
1433.217088
1291.859614
2075.640866
1469.3931
1597.820051
1810.441259
1336.803824
1421.447377
1573.130849
1517.011938
1553.49585
1646.278139
1199.605373
1276.759031
1402.426091
1361.403216
1404.8623
1459.602519
1258.183185
1205.744205
1272.631894
1339.557229
2348.737032
1958.066142
2845.614868
2427.82479
1658.597175
1748.0434
1699.043689
1751.933044
1662.73611
1923.416936
1766.97976
1468.590599
1541.112443
1494.665289
1548.348086
1470.538019
1656.242895
1555.108636
1344.145794
1401.642924
1344.297311
1405.467474
1348.93075
1465.842705
1408.440385
1267.827253
1194.617436
1273.732941
1344.223545
1278.594194
1576.548083
1848.184852
2000.822396
2076.881834
2383.326759
2699.588973
1731.142738
1763.608125
1924.652718
1958.616729
2315.631161
2034.391689
2053.910328
3723.483241
3203.508813
2025.898248
2807.323525
1304.168992
1271.512842
1241.986683
2376.888408
2087.92491
2145.28545
2097.913021
2400.034472
1910.425602
2066.333023
2090.271556
2755.736161
3142.631007
3570.93227
2462.529624
3045.389896
2679.102313
3085.948509
2451.102509
1708.74753
1762.831673
1702.632212
1841.416065
1818.645914
1899.15214
1766.49408
1810.492
1819.918946
1508.722572
1503.208809
1609.770554
1602.408537
1380.076243
1376.019905
1435.936574
1432.140907
1231.523436
1312.601582
1308.778201
2743.707224
3679.968289
1429.32772
1407.221088
1383.046995
1441.851355
1415.589676
1433.436234
1308.249097
1280.878006
1308.259979
1496.982911
1479.956533
1451.013894
1478.30687
1490.390296
1483.792994
1372.019972
1342.720172
1317.116537
1375.130503
1351.018596
1376.038678
1395.933108
1411.046824
1417.03549
1362.971348
1381.547262
1362.067649
1452.596288
1459.196327
1473.774204
1418.635419
1425.447488
1417.769087
1329.66463
1339.097749
1358.824167
1311.970126
1291.643455
1985.416863
1963.847144
3632.160945
3543.962076
2230.970272
2191.18312
2203.92967
2231.189941
2125.531978
2408.131562
2271.302412
2246.068114
1970.032552
1993.503698
1935.617738
2094.794774
2015.947837
1992.562748
2681.60837
2633.284757
2464.656654
2778.597056
2682.591906
1734.976019
1734.281207
1718.992029
1760.212681
1740.660673
1743.102613
1697.708966
1684.091534
1715.374517
1701.987603
1847.895557
1864.152193
1831.30997
1919.553529
1876.675889
1858.445964
1786.444328
1788.666763
1766.747733
1821.722505
1796.564402
1794.639872
1532.14243
1516.532455
1556.98105
1536.601936
1492.131439
1481.145388
1510.513356
1495.610268
1648.90123
1625.159527
1678.567729
1656.754387
1585.341497
1562.921538
1617.219874
1593.450994
1391.518293
1407.055987
1392.274293
1412.959943
1394.421133
1420.434648
1417.479445
1390.751996
1365.226164
1382.487789
1387.397459
1444.455104
1454.553757
1448.023547
1457.945064
1447.50261
1476.509599
1461.864582
1426.798698
1421.197177
1440.809228
1429.489548
1421.142294
1428.349795
1439.906549
1323.400009
1333.915484
1325.012711
1296.371396
1317.201147
1321.439304
1593.195674
1569.857404
1534.054021
1620.104092
1582.257382
1606.77073
1522.608785
1490.191727
1507.287192
1530.616971
1535.788713
1555.217656
1561.489785
1582.969597
1574.618048
2024.742253
2320.26755
2385.410847
2121.859132
2131.129648
2142.435139
2109.221646
1922.913262
1937.096117
1921.101711
2078.252395
2049.977713
2038.042264
2888.715355
2697.780203
2767.728628
2975.29722
2983.161739
3127.127588
2446.126448
2509.813762
2519.847824
1723.497559
1721.98953
1724.114864
1761.536982
1755.793859
1757.525518
1700.975338
1698.129733
1722.252048
1717.029984
1829.17943
1833.330998
1823.451903
1906.602541
1892.29718
1885.968636
1770.547512
1771.996659
1766.546867
1814.784112
1807.89231
1805.509336
1514.674444
1530.53814
1524.565239
1488.700988
1494.42962
1509.145922
1621.377127
1644.170808
1630.125513
1640.490276
1631.987116
1694.086064
1686.524289
1571.264973
1623.563975
1615.218415
1581.919197
1590.676597
1613.704068
1413.604919
1408.433628
1405.435332
1367.556483
1363.664005
1358.702029
1373.861516
1369.32128
1374.243203
1281.973229
1276.133808
1345.645952
1342.622591
1336.837391
1354.032836
1348.670601
1352.902666
1292.930906
1289.799808
1304.336202
1288.283969
1295.768348
2003.708115
1938.046382
4079.184243
3959.187044
3432.163739
3290.964772
3798.062729
3596.743748
3724.637058
2273.986008
2155.041261
1978.768543
1955.923812
1941.681013
2014.169267
2024.729076
2001.493837
2767.567251
2863.779903
2878.12599
3154.085976
3026.007711
2596.020429
2585.250079
2672.777468
1735.280871
1729.731647
1729.337079
1750.861515
1749.26088
1742.299189
1706.117877
1703.459345
1712.36204
1708.990518
1853.536421
1843.283793
1838.833021
1871.528363
1878.109229
1865.000487
1787.019484
1778.980174
1777.490098
1800.822921
1801.561108
1794.677477
1527.525109
1529.411208
1533.090357
1518.300685
1524.499766
1522.308393
1549.291103
1547.996804
1557.654772
1536.028093
1540.358414
1542.082755
1488.820875
1491.083907
1493.558072
1484.265966
1488.068673
1485.21681
1504.817584
1505.173299
1511.494564
1496.116204
1499.860835
1499.828118
1657.742543
1649.161552
1641.051597
1645.367927
1653.520189
1628.843382
1637.097275
1633.120448
1676.147682
1666.366158
1590.818826
1583.464977
1577.394943
1580.423639
1588.104103
1564.189151
1565.953497
1568.444685
1609.298297
1612.505537
1620.650734
1596.395834
1604.432069
1601.388022
1607.082688
1599.027337
1396.106228
1392.311115
1387.77549
1401.663985
1397.117603
1401.639419
1405.873455
1399.189852
1419.9099
1419.103695
1388.581247
1379.640286
1374.538547
1374.527375
1374.668883
1383.37697
1379.649881
1384.821688
1446.3894
1450.746735
1461.001528
1450.182883
1471.519441
1473.917422
1479.344421
1464.67366
1469.08246
1466.703363
1424.358848
1422.453841
1435.55455
1432.226089
1326.261961
1323.889301
1320.598305
1331.865982
1327.617876
1329.750031
1319.435623
1312.788457
1308.994428
1317.784317
1315.337705
1320.399266
762.8213274
727.4116876
705.0391263
712.3627652
657.0524276
629.0231999
634.1217193
551.6408175
520.9243422
518.1890232
401.7689386
376.829917
357.0410599
802.1958552
777.5470667
737.9472483
766.5033511
721.168693
670.4673055
700.8140627
620.1838961
565.799581
585.8595621
457.9781344
412.8096466
406.8700133
855.8664761
847.6565967
793.3821456
842.4776363
815.5206634
741.6251172
801.310327
735.3543194
643.6844388
703.2394691
565.7692438
478.5090908
504.1677317
917.0822836
932.9387528
867.9805654
937.6186508
946.0459386
844.6112875
945.5640085
923.2800094
774.4129976
904.9949784
786.7006129
606.7739329
716.0673807
975.6451274
1019.860514
955.133674
1036.971948
1096.536831
983.3199561
1119.319269
1193.50296
984.5865857
1217.309365
1248.821939
873.2751166
1219.123566
1019.977327
1088.368739
1039.543202
1116.321875
1221.659095
1132.530709
1266.122671
1443.009236
1264.941147
1523.171704
1967.592128
1414.346099
1711.882979
1785.941392
1285.25953
1038.472233
1118.461549
1099.9338
1150.965458
1271.265236
1242.210341
1320.407517
1502.79664
1478.747697
1584.827387
1686.12074
1665.56252
2124.43558
2253.081956
2250.453327
1027.391225
1105.920605
1119.852898
1136.816315
1245.074027
1270.755793
1286.30811
1422.157945
1490.10375
1530.593059
1592.083903
1627.690407
1803.839764
1827.358964
1874.265687
989.4280464
1058.46028
1096.96752
1084.784674
1173.030537
1230.348076
1205.001284
1304.211888
1394.297282
1403.666872
1441.005523
1478.295747
1564.032745
1574.95664
1612.848641
930.1822048
985.8355443
1042.315091
1006.580645
1074.50649
1150.435309
1098.680374
1173.950383
1272.752391
1269.241858
1297.419485
1332.787645
1396.325567
1408.965323
1435.400821
964.6592555
1046.756298
1139.020028
1125.598146
1145.789342
1188.391331
1254.755079
1271.883164
1299.511329
1927.12316
1985.777748
1937.723602
1625.790668
1666.116697
1641.11102
1444.590138
1473.467824
1452.747224
1308.479701
1334.407836
1309.677856
2665.820977
1999.555248
1816.883713
1202.100193
1757.524343
1516.167402
1554.366535
1500.991475
1678.633421
1603.943054
1540.421668
1693.867459
1628.653108
1708.603205
1368.33884
1404.360004
1370.299823
1482.240257
1437.507633
1382.244298
1517.663291
1458.478585
1503.881372
1527.043261
1562.610471
1540.152713
1566.396765
1559.995123
1547.587956
1637.263538
1624.572381
1633.485108
1225.693466
1261.874777
1234.818088
1330.439988
1290.506908
1236.884154
1362.609322
1309.688019
1348.061204
1375.690913
1400.438899
1378.677605
1414.726237
1404.880676
1397.592259
1453.991026
1445.111947
1450.718077
1216.997236
1157.753705
1198.945249
1232.35442
1262.362039
1235.250545
1286.634296
1271.731632
1256.786155
1325.989944
1316.982495
1325.560854
2274.359336
2270.554339
2400.340374
1940.384401
1999.1551
1997.302633
2848.831331
3013.60033
3019.211274
2463.301797
2564.624927
2511.009661
1694.593059
1672.334325
1632.880589
1732.565936
1686.164423
1706.843942
1669.330808
1680.693992
1714.704229
1737.933706
1739.437305
1759.390866
1678.018661
1693.083555
1679.685851
1892.868087
1880.159016
1923.925123
1766.265119
1788.99034
1783.188379
1477.702739
1472.329889
1463.056977
1535.562016
1523.972051
1529.271855
1473.204479
1483.659907
1515.666006
1542.563476
1544.554417
1550.838859
1473.026498
1477.457044
1474.7934
1637.281777
1651.642812
1672.268984
1557.230118
1563.853302
1561.173514
1356.957311
1343.328976
1334.837275
1390.381113
1383.066692
1391.596527
1327.12279
1342.87176
1367.513138
1402.454597
1406.622029
1409.323943
1353.935924
1358.964664
1353.676789
1461.550866
1463.984857
1468.55831
1411.980675
1414.706719
1411.446039
1251.559307
1221.871095
1268.204473
1273.10904
1278.823538
1339.44323
1344.046464
1349.086739
1284.386041
1287.048847
1282.268672
1658.83272
1680.793972
1587.335937
1960.417845
1764.617752
1718.032568
1746.416949
1775.424361
1989.268496
2175.386611
2226.820267
2109.190505
2584.554412
2335.945757
2236.626137
2425.395772
2358.075669
2640.8642
1748.496515
1785.733722
1765.947217
1819.075881
1807.976833
1751.593732
1906.050047
1831.885499
1841.520616
2084.538917
2035.471232
1937.018211
2192.426218
2074.929235
2135.720016
1986.745571
2048.72833
2113.515239
3727.924077
3916.974039
3901.357527
3264.79825
3402.674191
3324.10979
1771.178688
2427.284566
2381.076601
2476.650564
1857.323725
3420.240433
2726.462665
2507.243504
1290.217168
1281.13854
1291.294261
1261.974909
1271.435505
1280.79227
1251.730667
1261.750147
1252.147209
2129.850452
2232.089663
2206.386651
2411.319205
2355.418979
2344.601073
2041.125666
2021.4736
2100.20866
2881.697119
2962.353286
2815.287496
3424.407722
3134.291456
2947.778207
3227.261868
3213.513986
3492.879452
2529.28937
2532.076114
2469.620645
2993.800301
2912.236652
2952.242288
2595.87029
2672.454091
2781.679122
1716.675438
1733.081665
1724.833312
1685.741842
1697.844568
1712.171305
1833.524801
1867.505198
1865.663138
1800.693814
1797.067103
1823.712687
1510.688054
1516.010637
1513.690448
1498.438741
1500.350837
1505.460275
1613.537056
1620.719651
1616.354606
1595.814345
1599.138918
1606.356449
1383.97929
1388.307143
1384.21007
1372.211148
1376.000747
1379.769975
1438.834861
1442.415139
1439.987284
1428.401199
1431.104769
1435.058483
1241.597706
1316.732388
1320.393273
1316.531897
1304.936793
1309.971164
1313.309326
3083.369998
3302.917847
1420.27987
1412.430877
1418.223084
1399.045085
1405.826052
1413.823464
1390.354799
1398.011065
1390.987495
1432.906208
1439.148672
1448.05252
1422.029641
1430.454584
1424.140315
1442.128845
1436.460807
1428.153452
1299.243723
1308.102153
1317.073364
1289.965166
1299.047762
1290.105442
1321.000262
1307.984598
1299.092733
1491.838295
1481.905885
1487.11939
1470.033815
1476.140023
1486.07989
1457.170617
1466.508278
1460.383987
1482.534829
1479.980377
1475.642349
1488.402575
1484.197683
1486.517054
1479.502217
1481.811067
1486.225042
1359.567831
1351.492468
1360.635239
1334.329102
1342.851128
1351.104074
1325.89438
1334.471713
1325.793716
1367.205336
1375.084178
1382.742566
1359.266903
1367.267058
1359.170457
1387.907654
1375.488612
1367.613285
1400.504635
1403.728952
1399.302766
1413.181695
1410.934784
1415.472374
1358.230403
1363.964947
1367.763237
1454.862769
1459.425468
1456.834741
1464.17675
1461.799006
1457.061662
1471.143599
1466.500335
1469.006542
1420.509593
1417.756598
1415.398474
1423.21793
1420.358963
1422.788483
1414.547672
1417.581269
1420.624701
1333.497301
1338.726157
1334.539053
1286.438664
1289.088685
1296.768932
3777.317825
3870.726341
3693.913619
4110.254732
4132.169472
3440.021337
3533.303033
3660.320699
2216.32088
2177.983586
2166.004367
2193.612929
2187.325832
2225.793307
2118.355432
2151.608128
2158.52085
2358.525003
2359.900822
2411.615895
2267.299702
2311.958729
2313.778095
2293.079311
2304.265084
2258.124764
1972.48061
1965.937254
1987.013215
1929.229687
1946.506791
1953.135464
2066.295927
2058.887037
2087.408272
2009.186047
2032.93647
2040.146405
2671.860462
2599.295599
2601.432459
2576.584186
2588.560664
2654.902888
2467.389772
2526.189986
2515.525311
1728.413071
1729.059265
1734.983886
1720.951091
1723.347634
1723.0425
1753.731934
1754.784491
1760.957952
1741.619162
1748.282793
1747.190293
1693.424838
1698.58072
1702.146428
1690.782744
1694.897812
1688.953154
1711.127044
1714.37324
1718.581432
1705.759898
1709.761136
1706.476086
1852.508339
1848.590107
1859.679677
1828.155615
1838.123403
1841.60499
1904.45037
1898.9752
1913.63757
1871.751577
1884.927158
1890.147668
1780.936451
1780.407727
1788.086821
1766.943214
1773.287955
1773.607527
1812.866792
1810.875023
1819.001143
1795.795739
1803.325059
1804.584627
1672.075216
1678.928853
1685.735144
1661.75255
1670.451519
1664.624134
1388.333195
1392.685346
1396.823445
1369.912799
1372.34019
1368.535879
1446.653424
1444.744536
1441.756631
1452.591498
1448.083587
1448.461585
1444.052966
1446.26718
1450.515959
1423.850704
1427.319285
1424.694137
1431.455372
1429.678095
1426.301574
1437.870315
1433.565742
1435.174548
1320.647823
1324.356705
1328.693133
1301.855506
1306.370115
1300.885293
1585.613613
1572.704882
1579.689117
1557.697635
1565.331679
1577.793262
1541.035257
1553.052913
1545.734732
1607.432321
1615.789389
1628.404142
1590.409736
1603.097707
1594.779046
1620.261803
1611.659195
1598.632837
1511.511809
1517.955376
1529.308532
1496.357874
1506.968134
1500.698386
1518.015843
1512.837242
1502.144381
1532.470566
1538.395007
1536.106275
1541.717803
1540.306131
1534.349162
1553.075402
1546.65247
1548.433978
1567.994714
1566.180954
1559.475178
1580.443319
1573.25232
1575.475501
1568.271214
1570.696941
1577.683223
2827.900554
2867.566669
2938.871451
2724.111498
2796.209726
2760.011228
2859.691799
2830.284375
2749.133861
1520.151791
1518.145336
1512.77935
1528.815249
1523.476109
1525.433642
1519.412601
1521.369668
1526.831228
1490.730809
1495.444861
1493.200686
1498.890896
1497.357995
1492.74549
1507.450848
1502.273604
1503.819245
1629.032041
1624.882697
1617.490203
1639.477519
1632.219657
1636.639604
1623.623576
1627.809969
1634.865902
1584.784076
1591.956082
1588.443008
1598.353649
1595.210374
1587.808371
1610.067264
1602.637581
1606.030313
798.4975932
787.168763
785.2442969
772.683822
753.9878647
751.3830634
731.1383784
703.1412275
699.6509895
669.1457639
628.3259731
623.9854358
579.9541335
523.4702771
518.6998879
458.5793495
385.4044311
381.1062092
304.5552003
217.0727636
214.5502425
820.5484326
815.6664833
810.5054453
808.9252514
800.0365458
792.1509729
788.3603134
772.2308881
756.0277547
749.5090911
737.8974365
733.1945189
694.5672849
676.7913865
670.6229844
612.3853576
586.5443729
579.3617132
495.9573846
460.6187272
453.3892323
341.5591051
296.7347672
291.7459413
832.5164952
830.5037872
822.3686908
827.2384665
822.4863659
810.2300143
815.8386634
808.1568565
779.9202993
780.6018002
771.6729854
761.5401534
736.5265464
721.6211847
708.0155938
663.9851463
639.6791587
623.6936046
547.5490549
510.3041612
495.4495657
378.2649514
328.1522836
318.8328152
847.5452149
849.2758467
839.5317866
850.902492
851.9183099
836.5524013
852.1726362
857.1258503
819.2219755
827.3711626
822.8053829
808.5383177
801.9979626
791.6939579
771.958656
746.0622607
724.7608375
699.737951
636.4726526
597.436755
570.6243684
446.8180253
385.3889956
367.1610235
862.544683
868.8838634
859.0959374
876.2600538
884.289271
868.0354951
892.5697445
911.5956717
870.4052132
886.224413
887.9243503
870.9560987
888.3261382
886.0533665
860.0034683
867.4357567
855.5903853
817.9162757
790.9590757
755.7194819
706.8471354
588.6887035
508.5995244
467.5005444
875.1686291
885.9198607
877.8553502
898.8768789
914.053188
899.9223367
931.4635345
963.2827016
924.9602471
947.3407258
956.7693971
939.7418742
987.9898575
999.0054958
970.2079397
1031.645069
1040.807454
990.4667551
1048.803061
1038.695141
953.2671844
912.7634307
813.8188987
707.319319
881.6733054
896.1932559
892.050817
913.8635668
934.7813623
925.8946165
959.5958388
1001.446418
974.2484532
1000.422961
1017.836537
1004.154301
1080.875285
1106.335464
1081.89659
1200.916867
1239.898374
1193.143611
1387.771948
1450.266351
1345.523248
879.2469621
896.2224743
897.4991595
916.9265321
941.4622591
940.1288378
970.68362
1016.809324
1007.452431
1032.796195
1055.566319
1049.069052
1139.887354
1174.6388
1162.937197
1306.560663
1362.446075
1343.954442
866.3478641
884.1076073
891.6565393
905.7206388
931.1914963
938.5168186
961.2889705
1005.522643
1016.318942
1036.671545
1061.110552
1063.259794
1149.631307
1184.975455
1188.225937
1311.63666
1361.218862
1370.80293
842.514679
859.4797902
873.2815992
879.9763563
903.8849516
919.5793542
931.87726
969.6690641
998.5611449
1011.45408
1034.354391
1043.736094
1114.756524
1145.617693
1159.107267
1249.653615
1287.448157
1309.740329
808.6909288
823.4298452
842.7906295
841.1388838
861.5494806
884.4212301
885.221704
913.8755877
957.3183583
962.0796081
981.5964894
996.8482747
1048.354787
1073.244178
1093.729519
1154.344517
1182.886139
1210.935794
801.790525
835.6896973
897.4362428
894.3747363
909.5422882
929.0217218
960.2763109
978.8047985
1004.085372
1038.35647
1059.318917
1091.942884
2207.321181
2125.263838
2008.791935
930.4568056
1062.464488
1623.51592
1604.14503
1579.727972
1772.997805
1742.164293
1774.457206
1441.030665
1428.302465
1408.995727
1556.131622
1533.263987
1549.297171
1294.921728
1281.363945
1262.978779
1390.123533
1371.616366
1383.902863
1408.069778
1404.480939
1401.433667
1244.231604
1225.053233
1239.123623
1277.058085
1272.040451
1266.914875
1334.789686
1330.625364
1334.929586
1670.602387
1662.109501
1649.736863
1742.933482
1727.791367
1733.528014
1667.356917
1673.112167
1668.202562
1650.404921
1655.110489
1661.377714
1348.668949
1343.706997
1339.671934
1397.683626
1394.642927
1398.41864
1262.012618
1256.982025
1262.574665
1203.236271
1886.925852
1835.391361
1804.348444
1907.844793
1917.986371
2012.988238
2452.807838
2392.126676
2334.833426
2573.615921
2589.784781
2707.143103
1780.407819
1777.094027
1759.350956
1922.085907
1892.385866
1893.999304
1996.307178
1990.407224
1954.636474
2277.456345
2221.987443
2251.515483
2974.81306
2877.949669
2733.701202
1299.326645
1295.44157
1300.059106
3242.583351
3166.057802
3077.715453
3403.798927
3416.294761
3565.339572
1711.459582
1717.745213
1713.37354
1697.18537
1700.360909
1705.748285
3834.156821
3711.057213
3567.686632
1426.57713
1422.938039
1425.562243
1438.077606
1433.485245
1430.547545
1312.378136
1307.855505
1303.97747
1367.706593
1364.142034
1368.137265
1380.054886
1375.696003
1372.088083
752.4778603
744.5197476
755.4151252
718.1944269
731.8681823
740.5037704
719.2292164
724.97797
710.5124347
695.985664
685.5070413
702.442608
645.421216
666.1389951
677.2949684
650.1053545
657.3536561
635.7784463
609.3929179
596.8996013
621.9084898
538.9862762
568.7546831
581.5507758
550.7195707
558.7976426
528.3170547
482.4894711
470.8822639
505.7933152
392.0527569
432.2531011
443.1088958
416.1470803
423.5539252
383.2510553
310.7475229
303.5266345
348.3265681
255.7114619
261.5203974
247.2162116
251.3303548
795.2139015
782.9084002
790.9212721
762.9979324
773.6190166
787.0339233
750.3791953
761.3983702
749.7939585
753.6784383
736.8645711
750.7764721
702.5387481
720.8548191
738.6486605
690.166013
704.671236
685.6452024
677.388613
657.4803474
681.4673134
599.5919914
630.176931
650.5636765
596.0945806
612.1786013
581.6057476
547.5001551
527.5318282
565.3546495
440.5064632
485.8409283
504.838827
455.4360542
469.5179533
425.5897311
351.9172462
339.0596063
391.4189118
283.5964734
293.463979
267.9749467
275.1932162
854.1271682
837.9776697
841.1969533
828.5150362
833.8396354
851.4262168
801.5913642
817.2215601
810.4086081
835.6855926
812.9238849
821.6204424
788.6917564
802.0741355
826.8220691
758.0597428
779.1656377
764.0856289
783.6531434
752.662952
772.3698765
700.8425408
729.003076
761.8958126
673.6477074
699.6939765
670.4337876
664.7722821
628.5754764
667.5516033
531.4971409
583.3442095
619.158092
526.9952954
552.9169904
502.7443637
434.3566177
407.4314036
472.8065987
335.7621623
356.7692856
305.0699099
318.878278
922.4903229
905.1700936
901.655822
910.9151388
908.2630259
927.8162268
869.9548643
888.8785413
889.2440754
941.6161146
913.4602401
912.7347384
910.0097109
912.6826204
944.6232869
853.4276974
882.0361772
876.0321153
942.2008536
896.8704804
904.9088692
867.9014635
884.9131381
935.0350582
798.673659
839.5902868
818.4393862
877.9868754
812.374378
844.3064102
715.2127669
770.0371506
839.4956312
661.3876098
711.2157903
655.9846187
624.787455
559.9864617
645.703717
457.7822778
511.5495646
382.9685428
415.9162009
989.2647506
973.4198143
961.8373478
998.8865439
985.7995736
1003.993699
947.4138136
966.8155147
977.220685
1055.363485
1027.572135
1012.839368
1059.12737
1043.057306
1075.235184
977.2143469
1010.166983
1021.1373
1143.353149
1092.120864
1075.675132
1121.415889
1107.772423
1168.347843
989.6158546
1047.711473
1051.045183
1238.019006
1134.395285
1130.99281
1102.385288
1127.140256
1250.500174
921.4143296
1017.034899
977.6352238
1132.147173
952.3734037
1049.088042
796.3526607
1076.487516
581.4162776
673.8353012
1040.510543
1030.068981
1010.979066
1074.275835
1051.073754
1063.210616
1021.072244
1036.88172
1057.816867
1147.491804
1128.488682
1099.954174
1196.00566
1160.347605
1182.408117
1106.094511
1134.569939
1165.959149
1316.808636
1281.665699
1236.174173
1393.187744
1333.416831
1375.009054
1227.654897
1283.495558
1332.651237
1619.138561
1544.310951
1462.449676
1763.481847
1644.605614
1742.840241
1384.902132
1520.574333
1592.814962
1594.205655
1612.954114
1774.6103
1062.507558
1060.149476
1036.581592
1115.101336
1086.219488
1089.078729
1073.180192
1080.771014
1108.751195
1186.975004
1182.812443
1147.15966
1266.984574
1222.563822
1226.916849
1200.220818
1213.547808
1257.255814
1374.978666
1372.598999
1316.724397
1506.825975
1435.620984
1435.583992
1406.227618
1426.24418
1499.556828
1051.349865
1057.110239
1032.856487
1112.667571
1083.647573
1077.477325
1090.228324
1087.935041
1117.362988
1170.273141
1178.892123
1144.355634
1257.030625
1216.429584
1206.361448
1227.54847
1223.632772
1265.788526
1329.862733
1347.265588
1300.670085
1448.116644
1396.533764
1375.318751
1427.951227
1414.453215
1471.227684
1010.798263
1023.335343
1001.149375
1073.048133
1047.282463
1033.797988
1069.278713
1059.156115
1085.939075
1112.728536
1130.084529
1100.655395
1194.033754
1161.259269
1142.196275
1193.614244
1178.480187
1213.22779
1237.803756
1263.374156
1228.178216
1335.034411
1299.172845
1271.034124
1351.650204
1326.133721
1365.13362
1587.414924
1580.28568
1568.955041
1605.571442
1593.886253
1600.09981
947.6099796
965.1465845
946.6508247
1005.879093
984.8920324
966.1657049
1018.825011
1002.484314
1024.746681
1028.33721
1051.405594
1028.072022
1101.068644
1075.781443
1051.016345
1121.492839
1099.311253
1126.408868
1123.401204
1153.706064
1127.105451
1207.751719
1180.663643
1148.535393
1241.873949
1211.754492
1240.633096
1417.594976
1410.443519
1402.489969
1428.342802
1420.097914
1426.439011
946.3446576
925.604023
942.5238398
1025.059091
998.0412292
1017.913445
1115.270863
1080.7797
1102.839228
1281.21044
1271.980288
1263.40448
1290.446541
1282.187489
1290.465556
1453.952853
1446.960558
1438.324226
1466.52892
1457.400496
1463.591645
1317.228314
1308.344306
1300.355975
1325.754948
1317.997888
1325.921247
2433.173279
2266.057142
2373.30697
1947.753911
2116.13175
2221.00946
1920.460031
2011.902043
1881.588791
1357.849272
1238.436348
1087.54153
1660.451862
1425.105129
1539.066885
1233.619363
1458.770573
1655.858575
1629.47933
1650.403173
1560.230459
1583.143887
1560.037769
1740.509656
1712.204823
1683.400792
1468.520824
1448.135903
1461.28745
1419.724102
1434.007516
1453.803024
1395.649618
1414.627578
1399.503611
1498.67499
1516.08988
1537.833863
1474.085735
1494.811438
1476.856549
1526.224502
1511.06295
1489.493306
1538.626269
1531.842704
1521.297328
1555.714578
1544.740647
1550.548063
1317.449744
1299.496713
1312.785042
1273.629265
1286.312955
1304.395693
1249.592942
1268.102175
1254.235821
1345.717607
1358.62712
1377.005015
1322.395026
1340.452455
1326.435837
1365.818177
1353.387271
1335.379501
1383.828207
1376.159547
1368.645934
1393.079653
1385.390093
1392.112698
1411.448499
1408.258169
1411.362808
1199.013432
1211.575534
1230.830081
1171.253436
1191.855023
1178.885463
1219.401242
1205.295754
1184.807457
1242.721632
1233.711074
1222.875921
1252.877843
1244.139117
1252.741086
1281.393159
1277.027428
1281.757748
1261.986678
1267.926695
1260.272827
1330.231336
1325.673974
1321.473333
2311.696358
2308.305766
2270.338779
2387.674577
2352.331283
2355.219539
1958.527455
1962.234149
1944.330166
2002.818468
1982.123382
1977.900631
1687.091492
1674.520918
1682.534282
1658.972475
1666.453082
1679.436517
1640.997177
1653.64847
1645.788992
1717.965662
1722.150777
1737.88293
1692.825734
1707.054309
1701.260385
1719.812103
1713.559876
1700.027372
1745.975887
1744.533808
1738.394927
1758.313903
1751.846391
1752.643939
1683.306495
1678.047687
1672.487475
1688.55395
1683.377151
1688.286604
1674.404297
1678.687957
1684.154476
1893.929003
1896.176732
1882.327326
1927.020093
1911.126217
1908.293516
1773.500392
1772.953494
1765.8195
1788.874303
1780.91282
1781.026374
1494.047405
1487.209276
1477.632482
1508.902069
1498.940433
1504.737086
1641.785458
1648.573741
1643.526202
1658.973282
1653.628207
1646.638956
1666.6015
1660.318841
1665.923944
1352.028419
1348.383125
1353.01859
1395.065874
1390.780263
1387.578873
1351.146765
1342.766957
1335.186347
1359.478597
1352.009002
1359.401086
1246.7766
1251.540989
1256.594492
1212.379237
1890.675974
1864.939645
1925.169441
2007.914755
1918.108103
1909.274154
2493.385632
2445.763224
2520.912542
2311.826024
2373.832441
2409.082981
2284.738162
2331.437681
2272.628546
2444.610731
2474.540496
2362.0982
2684.42338
2571.963001
2536.124258
1817.296014
1796.337431
1798.783667
1789.27166
1792.942781
1813.86959
1755.007983
1773.260263
1768.124209
1880.737421
1887.17156
1915.762136
1836.516766
1860.805848
1853.521192
1866.388084
1865.185119
1840.221007
2072.417672
2029.559408
2038.131024
2001.352767
2016.742076
2056.069503
1946.774059
1980.532874
1966.60394
2155.559792
2188.971003
2236.295229
2097.948142
2142.562208
2112.438678
2191.486334
2169.032494
2118.953455
1955.362786
2166.827477
2244.17205
2274.454892
2465.387695
3231.813633
3043.340877
3173.479159
2672.208207
2870.006885
2991.856205
2630.200647
2743.579031
2590.287414
1295.788475
1290.630807
1286.483202
2162.105978
2162.845795
2131.817957
2230.624061
2196.49331
2195.725148
2045.960535
2049.36938
2025.613037
2102.522018
2075.099787
2071.792759
3313.273653
3250.293945
3338.771778
3013.544363
3089.461806
2990.180892
3535.903028
3397.802096
3372.536303
1721.59425
1719.578486
1713.96698
1731.405821
1725.754696
1727.152705
1689.561384
1694.978279
1691.046371
1702.680509
1698.823844
1693.683681
1708.915934
1703.934943
1707.534376
1844.283967
1845.841032
1834.784006