/*--------------------------------*- C++ -*----------------------------------*\
| =========                 |                                                 |
| \\      /  F ield         | OpenFOAM: The Open Source CFD Toolbox           |
|  \\    /   O peration     | Version:  v2012                                 |
|   \\  /    A nd           | Website:  www.openfoam.com                      |
|    \\/     M anipulation  |                                                 |
\*---------------------------------------------------------------------------*/
FoamFile
{
    version     2.0;
    format      ascii;
    class       volScalarField;
    location    "3.17";
    object      p;
}
// * * * * * * * * * * * * * * * * * * * * * * * * * * * * * * * * * * * * * //

dimensions      [0 2 -2 0 0 0 0];


internalField   nonuniform List<scalar> 
3019
(
-798.7895424
-1007.699329
-1077.161649
-1059.003132
-1013.772214
-955.8974813
-873.322406
-827.5741366
-767.4254632
-748.1939466
-735.1786338
-728.8574175
228.9602126
-432.2803629
-676.6296389
-773.0288161
-805.9807896
-801.4745025
-763.7478834
-741.3790175
-700.1868886
-689.1107258
-681.0261352
-677.172788
195.9187021
-189.267347
-425.3165994
-558.2583276
-630.9217479
-662.6255425
-657.8993826
-655.5206898
-631.2011075
-627.3693551
-623.9808263
-622.4432415
144.1111958
-93.05723316
-280.5293307
-411.3841752
-496.3348855
-546.0975147
-562.8785481
-574.5341826
-563.6677171
-565.7939549
-566.4041213
-566.8212255
111.4587403
-51.87438202
-196.0752122
-311.0781437
-395.5043017
-451.7173619
-480.2099374
-500.6796654
-499.9493658
-506.5050956
-510.2648013
-512.0856808
86.51978317
-33.83410146
-146.9881462
-243.7962938
-319.7161019
-375.3800576
-409.596739
-434.9850043
-441.3167959
-450.8487853
-456.7804547
-459.5682271
66.65753598
-27.05912989
-117.3528817
-197.2483542
-263.1937862
-314.9784675
-350.5330152
-377.6257431
-388.23039
-399.4871347
-406.7343113
-410.1754007
50.40332717
-24.53981881
-97.24722921
-163.2666137
-219.9394838
-266.5013967
-301.1154098
-327.9045259
-340.7387379
-352.730034
-360.6216139
-364.3773311
38.74986166
-22.67678002
-82.33778676
-137.4155247
-185.9700198
-227.1647111
-259.4537949
-284.8782609
-298.5420219
-310.5456855
-318.5753432
-322.4070644
30.04322028
-21.04136355
-70.69833993
-117.0305698
-158.6346544
-194.758387
-224.107423
-247.6017567
-261.1583022
-272.6973272
-280.5160523
-284.2544748
23.452862
-19.48602138
-61.2369369
-100.4663523
-136.150998
-167.659533
-193.9048412
-215.2056926
-228.0640569
-238.8486585
-246.2326734
-249.7674422
18.40555671
-17.95254323
-53.29896366
-86.66765981
-117.3001989
-144.6812383
-167.882006
-186.9315469
-198.7504773
-208.6219766
-215.4380199
-218.7029207
14.50086012
-16.4227896
-46.47458545
-74.93667052
-101.2354702
-124.9547039
-145.2792369
-162.1350162
-172.7394539
-181.6288151
-187.8082126
-190.7686509
11.45693087
-14.89450132
-40.49469665
-64.79439196
-87.35064214
-107.8287567
-125.4901498
-140.2712204
-149.5933141
-157.4903635
-163.0093459
-165.6527952
9.077179556
-13.37196766
-35.17695773
-55.90297987
-75.20262393
-92.80911659
-108.0316277
-120.8842213
-128.917292
-135.847819
-140.7116426
-143.0399535
7.217396611
-11.86313689
-30.3916822
-48.01303604
-64.45500996
-79.50872527
-92.50754025
-103.584483
-110.357845
-116.3674306
-120.5984945
-122.6220673
5.757847565
-10.37926885
-26.04197015
-40.93402075
-54.84628843
-67.61978704
-78.59205083
-88.04077303
-93.59988443
-98.74335933
-102.3729584
-104.1066098
4.59230484
-8.931664758
-22.05058878
-34.51422159
-46.16527975
-56.88748932
-66.01245447
-73.96694762
-78.36196379
-82.69617107
-85.75904288
-87.21942055
3.635664112
-7.528082871
-18.35507683
-28.63168926
-38.23967629
-47.08539583
-54.53877239
-61.11351066
-64.38713278
-67.96841222
-70.4987884
-71.70194252
2.830226826
-6.171072788
-14.90430262
-23.18735892
-30.93228269
-38.06253673
-43.94498074
-49.25555087
-51.45884437
-54.33615754
-56.36592516
-57.32808057
2.137567273
-4.858756628
-11.65343927
-18.09500284
-24.12301334
-29.70079221
-34.04132559
-38.19024666
-39.31956545
-41.54678409
-43.09962073
-43.82859165
1.526391383
-3.58730356
-8.561335613
-13.27557112
-17.6939247
-21.7982835
-24.7059499
-27.71778283
-27.97845267
-29.5528433
-30.65405851
-31.17520013
0.9662069216
-2.352586685
-5.588322122
-8.65460051
-11.53797266
-14.24033194
-15.77243299
-17.743261
-16.66537359
-17.60927536
-18.2583615
-18.51774567
0.430080066
-1.151202509
-2.694451797
-4.16093119
-5.554560763
-6.904720975
-7.034206546
-7.944685772
-7.611837695
-8.061207418
-8.36999316
-8.582342431
-853.7626933
-893.6570437
-1122.930963
316.6777932
-806.0574931
178.3582293
-444.1536127
-1013.322461
307.6730697
329.3669063
-1039.203235
-65.72854405
-142.2662503
-197.5704362
-514.2947662
-896.6510009
-1205.487955
-489.3736204
-1255.549736
-1256.541323
-1285.354843
-396.9629975
208.4437446
-139.039035
-329.0065438
-943.2220649
-1197.611582
-1207.870418
-157.7551185
-407.578659
-124.7476636
364.390864
-1455.108735
-1458.753964
366.3801133
130.4328092
-1216.989183
-1040.99522
-1052.840106
-1044.722347
-1219.591118
-823.5589291
-995.6420355
-585.3407432
-609.9862414
-773.878806
-398.4377072
-556.5191111
-485.7335481
-1230.118868
-1411.762738
-1441.186645
-1230.262012
-1142.740395
-1205.732553
-1004.091989
-993.3618502
-828.9262021
-1578.55159
-1567.267893
-1457.136932
-1448.046988
-824.7526485
-840.6373999
-661.7386917
-667.3397692
-766.7251799
-198.4512945
-345.7814894
-1582.246803
-1449.603462
-1528.519258
-1061.458466
-1057.668251
-1046.314979
-1162.095758
-862.6311426
-842.8302614
-828.2689097
-985.8886154
-927.3884158
-925.4118863
-591.2200483
-647.4042299
-644.3726184
-465.0998092
-470.9363928
-518.8384523
-1376.872994
-1379.654285
-1435.202468
-1244.281065
-1307.171132
-1316.011612
-1197.200626
-1155.285681
-1138.90032
-1086.723842
-1068.773518
-1013.348595
-523.7707297
-622.0789432
-860.8951172
-541.2605957
-726.4270633
-1070.80066
-762.3373026
-826.6551391
-1067.236894
-838.4873446
-855.634437
-1026.500273
-855.0598627
-845.367842
-971.1229884
267.7199003
14.5722883
-99.9622542
-229.832335
-428.0200249
-634.7866314
-475.5623407
-579.911704
-756.7007743
-605.0066504
-658.8669084
-801.7329287
-670.768302
-692.2226645
-805.152144
218.7973395
291.6854881
155.9947935
-48.39386802
-106.4664719
-109.7901605
-266.815826
-378.3942011
-310.0753864
-414.9066426
-531.8079471
-442.7810213
-509.3350122
-617.1703602
-526.3841138
-564.0193053
-657.6520642
156.1504421
198.8133712
118.5980238
-16.5612765
-37.30131129
-59.26834215
-177.6877083
-239.1985134
-213.0405837
-305.9369473
-383.5172345
-332.5963855
-399.9839712
-478.7332127
-418.3084028
-462.0038323
-536.1957942
120.3985148
144.6541529
91.93834331
-5.346292368
-12.50229177
-36.97438174
-128.4485577
-162.5677771
-156.9518681
-234.9621931
-285.2138973
-258.2328681
-319.2039145
-377.2244725
-336.5589276
-380.4255711
-439.8052899
94.11752088
113.4563638
71.32039005
-3.550346551
-4.061506666
-28.13746299
-100.5370839
-119.9707075
-123.5674957
-187.8812086
-221.4382789
-207.4817091
-260.2962937
-302.7632062
-275.887166
-316.8061565
-363.0483997
72.58507982
88.30947705
53.99043862
-5.394385104
-3.809299035
-25.07138407
-83.07099962
-95.53499072
-101.6841997
-154.4593825
-178.5072231
-170.8644328
-216.0734495
-248.0804805
-229.7545743
-266.5844614
-303.1687525
56.5955465
68.04830644
41.35284925
-7.084302163
-5.88842745
-23.1118089
-70.41990377
-79.55561152
-85.7019163
-129.4915869
-147.5657633
-143.2835018
-181.8754991
-206.7243989
-193.7543832
-226.3049971
-255.7082402
44.72352211
53.29779031
31.99439944
-8.160786155
-7.40622232
-21.4390547
-60.65360479
-67.75807871
-73.37083534
-110.0590732
-124.197838
-121.7167268
-154.6852939
-174.5125309
-164.9552691
-193.458865
-217.493077
35.69618973
42.23810932
24.93680729
-8.740996081
-8.348057705
-19.87147336
-52.75041569
-58.53156581
-63.43912256
-94.41321174
-105.8438942
-104.3143504
-132.5271117
-148.7346708
-141.39116
-166.2222115
-186.1957459
28.70006619
33.78119025
19.54695426
-8.929484689
-8.821043446
-18.33524236
-46.11947486
-50.9904145
-55.16598348
-81.46064363
-90.95540512
-89.90068863
-114.0795517
-127.6084405
-121.7233428
-143.2818588
-160.1383048
23.2022568
27.20185761
15.38706956
-8.815986964
-8.926297715
-16.80515124
-40.40198631
-44.61513027
-48.09278919
-70.49368755
-78.55451726
-77.70464798
-98.44167768
-109.9351929
-105.0268107
-123.6922432
-138.1114557
18.83292643
22.01600549
12.14904476
-8.472766961
-8.749290286
-15.27626108
-35.36858795
-39.08649978
-41.9215371
-61.03586175
-68.00269092
-67.20125883
-84.97979772
-94.89257079
-90.64372897
-106.7569303
-119.2416375
15.32977213
17.88425496
9.618360617
-7.955571827
-8.357908564
-13.7516923
-30.86754984
-34.19816533
-36.45208772
-52.75704599
-58.86624564
-58.02337959
-73.23821135
-81.89809839
-78.09661646
-91.95551787
-102.8820477
12.50614114
14.56629822
7.640374657
-7.308560797
-7.804414531
-12.238513
-26.79414806
-29.81245141
-31.54389134
-45.41816765
-50.84206246
-49.90300214
-62.87657896
-70.52978315
-67.02612645
-78.88672085
-88.5465609
10.21459901
11.88867324
6.091321006
-6.571020741
-7.131160559
-10.74724417
-23.07230691
-25.83317544
-27.09307541
-38.83855464
-43.7080161
-42.63662503
-53.63272196
-60.46950552
-57.15395199
-67.23418039
-75.85763354
8.325099714
9.709230799
4.861232489
-5.779346696
-6.376873134
-9.289652702
-19.64293306
-22.18960385
-23.01847123
-32.87654774
-37.29504472
-36.06447307
-45.29891088
-51.47117859
-48.2585501
-56.74183935
-64.51684886
6.72853154
7.902164109
3.858824951
-4.962830188
-5.57662731
-7.874615226
-16.45762412
-18.82541885
-19.25413687
-27.41794495
-31.46865026
-30.05763573
-37.7058479
-43.33708237
-40.15820548
-47.19192377
-54.27861279
5.345452976
6.365209963
3.019706117
-4.140507966
-4.757274464
-6.506008671
-13.47661044
-15.69464806
-15.74657745
-22.37071763
-26.12082375
-24.51221749
-30.7176734
-35.90683137
-32.70781478
-38.41651208
-44.9344326
4.123068959
5.026435025
2.301902406
-3.322551499
-3.935349337
-5.18283051
-10.66502386
-12.75912651
-12.44967936
-17.65626999
-21.16379405
-19.33947089
-24.21898152
-29.05143233
-25.78510122
-30.2838776
-36.33050085
3.021615698
3.837855497
1.673204407
-2.514541133
-3.119447677
-3.901570898
-7.990804744
-9.984824758
-9.321670702
-13.20373903
-16.52127024
-14.45899439
-18.10103887
-22.65800474
-19.27156693
-22.63954048
-28.33582935
2.00268857
2.760678715
1.103114491
-1.720828732
-2.314595523
-2.657989568
-5.422932035
-7.34005926
-6.322495897
-8.946234098
-12.12361531
-9.795091878
-12.26204961
-16.61891268
-13.05682524
-15.35055391
-20.79083445
1.027754827
1.756275418
0.5614982013
-0.9476178023
-1.525233033
-1.449572249
-2.931623465
-4.794088958
-3.413619619
-4.820680065
-7.904903795
-5.276953532
-6.608716278
-10.83486951
-7.040426669
-8.299142755
-13.57134901
0.03303599196
0.7886181949
-0.1109063677
-0.3576997872
-0.7567044852
-0.418673683
-0.6206208753
-2.315678132
-0.6944569075
-0.9283697402
-3.801405476
-1.008996911
-1.256048592
-5.212621693
-1.340380202
-1.618401301
-6.55744161
-903.9133589
-896.7781101
-846.1738514
-909.4951358
-1001.416422
-989.8613643
-1470.352855
-1487.944355
-1063.581728
183.0600359
437.4462379
-779.9364451
-620.8902177
-682.6806611
52.7742533
-23.45936823
112.0546178
-648.5066324
-481.1244922
-239.6581613
-931.7153058
-580.827711
-730.0733106
350.760761
383.4992657
-1186.718139
-1203.444287
-960.4418551
-1287.825712
-1300.638049
-1559.365342
-1552.999522
-4.233758634
71.63437799
5.42039724
-223.127419
-170.4034528
-84.9767619
-340.160724
-551.2405085
-437.1199173
-632.0357303
-570.1835478
-439.9291708
-883.6091476
-710.7987442
-760.0397577
-1204.521873
-1155.982389
-1156.245188
-356.3742352
-419.1405376
-409.1996728
-585.4761855
-571.0719078
-423.345037
-1309.102723
-1308.026024
-1251.987217
-1283.431282
-1378.382712
-1407.595187
-1374.128599
-1375.815888
-1283.844762
-1467.801024
-1463.287443
-356.6986255
-262.0456678
-308.2760113
-250.8436846
-298.7953594
-24.74606332
-153.5679872
83.34023975
75.00718351
265.9984754
-182.8173489
-65.43180512
-34.00059625
-184.4910118
-116.8023214
-243.3267402
-1026.751673
-1013.852221
-926.0594599
-1192.823274
-1102.774076
-1111.530103
-1086.80601
-1094.17562
-1187.818221
-228.3120288
-133.0410417
-59.5691529
-324.3014334
-221.7252152
-312.1766871
62.71635942
-118.4543834
-229.8002084
376.8554789
493.1217815
465.4722683
-1511.699266
-1514.367181
-1456.401625
142.3367231
60.96619505
282.6109794
216.2038689
296.3984432
70.7571584
141.44054
204.5134803
-1159.45446
-1156.785962
-1205.99122
-1044.11081
-1096.988727
-1085.986756
-1105.502668
-1101.885498
-1048.214195
-659.6779774
-648.549203
-599.3672758
-770.3713073
-695.6964478
-713.6668969
-450.7330577
-433.8406571
-378.104542
-540.5106592
-485.9755451
-502.8515973
-1419.11137
-1369.468298
-1363.189586
-1208.481008
-1391.057178
-1462.149367
-1348.47461
-1372.571349
-1210.73994
-999.0724097
-947.507259
-953.1124898
-933.4041802
-941.5032916
-994.8709689
-837.2488626
-887.6340661
-876.9863104
-1454.56133
-1504.246016
-1508.670968
-1497.382771
-1500.457525
-1453.332122
-1547.630602
-1544.725603
-149.0696071
-202.192959
-248.5313143
-224.8385207
-174.513507
-323.1671051
-272.2037907
-294.3096853
-994.5318463
-961.9858084
-926.7616393
-895.7281231
-868.4281116
-846.5659173
-705.5875314
-730.0798704
-818.9041968
-831.7364791
-880.3874674
-1037.659409
-962.5789505
-974.1980119
-1076.620775
-982.0056027
-978.5632365
-1049.200398
-959.3492428
-950.2248737
-1000.254215
-838.8213576
-835.3534005
-898.5365606
-818.6597552
-801.1968062
-849.3292737
-784.8384293
-772.0585499
-808.606758
254.6000362
138.4285648
104.6447271
-346.7394511
-431.186947
-516.0242997
-600.2821998
-637.3494242
-709.673831
-712.3632073
-728.4366244
-785.4036802
-758.2472454
-762.9804942
-807.5998906
-694.9968758
-712.9505696
-773.2279367
-709.7654605
-704.2636802
-752.5124623
-697.7897094
-691.8876324
-730.9640197
183.6819175
88.70212774
87.82622707
-156.6498001
-223.9331938
-261.6461225
-381.7272169
-421.9764021
-465.9431589
-515.8777656
-539.7519302
-581.0573533
-593.561658
-606.2204383
-642.0812866
-572.7103146
-602.620636
-655.8630812
-608.8401615
-612.5002292
-657.4130158
-613.9356842
-614.0028098
-652.5037431
134.4489114
77.65632674
80.8077544
-79.44965049
-127.7947449
-145.4863367
-254.8135356
-291.0870113
-318.2834656
-382.7357575
-407.8059109
-436.4095149
-468.4784292
-484.2673886
-511.6833399
-473.3526918
-508.1263299
-553.4403686
-520.0127471
-529.5122146
-569.8209057
-536.3264937
-541.0296156
-577.1730917
104.5875853
64.09479929
67.28146025
-45.8372091
-81.6550797
-90.31511726
-181.2572451
-211.4001257
-227.7077785
-291.6760706
-314.9584709
-335.0280366
-374.2979015
-390.6553347
-411.946683
-392.5371374
-428.3103803
-466.4607924
-443.3914841
-456.3212841
-491.6932167
-466.4554283
-474.1960764
-507.1020795
81.29260845
52.36072129
55.55563867
-31.43754018
-59.09687368
-63.29278374
-138.2148766
-162.9140835
-172.9629338
-230.6347773
-250.8433753
-264.8210194
-304.0555564
-319.3927684
-335.3781938
-328.5277865
-362.150153
-393.5743826
-378.7332921
-393.1929991
-423.5441819
-405.0140359
-414.4246853
-443.7082086
62.20647188
39.73370328
42.79408183
-26.2688953
-48.23487975
-50.30477778
-111.6851902
-131.7627334
-138.5052114
-187.7878023
-204.9132972
-215.1030551
-251.3208408
-265.1223179
-277.4001674
-277.3521589
-308.0216247
-333.7375044
-324.7421086
-339.2882067
-365.1869207
-351.6055626
-361.6723512
-387.4813462
47.1563154
29.17415887
31.48687148
-24.03799974
-41.70169915
-43.14791372
-93.12790878
-109.5774889
-114.5140461
-156.1686628
-170.660864
-178.3745523
-210.6983701
-222.8592473
-232.5066352
-235.994124
-263.621514
-284.7721007
-279.4197796
-293.2984171
-315.4021692
-305.375204
-315.4110157
-338.0807196
36.33354236
21.51709005
23.21825791
-22.25473303
-36.76120462
-37.8918348
-79.17390969
-92.8287029
-96.62797867
-131.8838246
-144.1762254
-150.2205294
-178.5951153
-189.2054487
-196.9547828
-202.0625467
-226.5914361
-244.2911124
-241.0696807
-253.9583649
-272.8847289
-265.3612268
-274.9492189
-294.8074145
28.22307672
15.86515425
17.12431286
-20.64831289
-32.73444287
-33.67811803
-68.15991362
-79.61186525
-82.65552274
-112.5803689
-123.0418127
-127.919109
-152.6142842
-161.8277106
-168.1818511
-173.7942359
-195.3978711
-210.3475503
-208.4310281
-220.1563819
-236.4424645
-230.6496036
-239.5562182
-256.9596892
22.06448952
11.65870939
12.59830609
-19.10176374
-29.27236649
-30.0971213
-59.12883727
-68.80632524
-71.32466421
-96.78953336
-105.7194352
-109.7545179
-131.1359632
-139.1155431
-144.4241628
-149.9049015
-168.8342915
-181.6002808
-180.4242484
-190.9364258
-205.0381047
-200.4224096
-208.5332577
-223.8169036
17.33502971
8.512305189
9.215692079
-17.57001098
-26.18566813
-26.92891673
-51.5008721
-59.72102822
-61.85837103
-83.56280382
-91.20131433
-94.60928075
-113.0498508
-119.9476566
-124.4550708
-129.4575603
-145.9820335
-156.9924251
-156.1957547
-165.5168817
-177.8052288
-173.9797104
-181.2571405
-194.7192253
13.66804372
6.15796382
6.68379952
-16.04049859
-23.36752755
-24.05089618
-44.90877453
-51.91195199
-53.76275115
-72.26735272
-78.80712201
-81.73527467
-97.57950901
-103.530315
-107.4113927
-111.7534459
-126.13313
-135.7196981
-135.0669962
-143.2580242
-154.0373144
-150.7284043
-157.1810229
-169.0847748
10.80604378
4.40516053
4.79514617
-14.51308584
-20.75401017
-21.39063735
-39.10897449
-45.08113973
-46.70953552
-62.46525286
-68.0612718
-70.61355306
-84.16543712
-89.2855498
-92.6684731
-96.26518647
-108.7374682
-117.1577056
-116.4975432
-123.6373086
-133.1551153
-130.170339
-135.8328276
-146.4054707
8.568384869
3.117716906
3.401924287
-12.99308854
-18.30618022
-18.90410461
-33.93496436
-39.02244803
-40.473682
-53.84490866
-58.62244421
-60.87478543
-72.39571913
-76.78416713
-79.76556385
-82.58240257
-93.35956824
-100.8198157
-100.0507092
-106.2232721
-114.6862631
-111.8842972
-116.8044835
-126.2454646
6.819427975
2.192548844
2.394921536
-11.48936345
-16.00012045
-16.56423731
-29.26673547
-33.58551804
-34.89315705
-46.17378231
-50.23431005
-52.24440441
-61.95503912
-65.69540189
-68.35029071
-70.37962605
-79.64768052
-86.3144802
-85.36791272
-90.65532633
-98.23569519
-95.51174274
-99.74219588
-108.2242396
5.44265731
1.539516842
1.681884105
-10.01358156
-13.8209652
-14.35451002
-25.01319359
-28.6554711
-29.84583901
-39.27248085
-42.69850933
-44.51183711
-52.59636361
-55.75880401
-58.14728368
-59.39205007
-67.31360846
-73.32422432
-72.15155918
-76.62953063
-83.47317451
-80.7454532
-84.33815044
-92.01311585
4.336254336
1.078762201
1.179661163
-8.576419895
-11.75720472
-12.26295083
-21.10104123
-24.14011517
-25.23447615
-32.9972744
-35.85580864
-37.5090967
-44.11876366
-46.76108943
-48.93285556
-49.38833136
-56.12256742
-61.58697428
-60.15151295
-63.88484463
-70.11766801
-67.31853283
-70.32298947
-77.32347712
3.421851089
0.7492949143
0.8218374387
-7.184480227
-9.798081955
-10.27867918
-17.47127254
-19.96556443
-20.98078421
-27.23305296
-29.57847784
-31.10088359
-36.35966631
-38.52863437
-40.52289563
-40.20368991
-45.90889008
-50.90860473
-49.14624338
-52.19219466
-57.92610206
-54.99489673
-57.45423771
-63.90534407
2.647760895
0.5113452313
0.5638133304
-5.838942031
-7.931884573
-8.390397032
-14.07451259
-16.07038776
-17.02101824
-21.88448021
-23.76092498
-25.17742423
-29.18791966
-30.92443035
-32.77324879
-31.7070654
-36.42082795
-41.09028607
-38.91682931
-41.34420843
-46.67934688
-43.56545802
-45.53190506
-51.52009786
1.97831839
0.3389359863
0.3770790532
-4.537231909
-6.145988461
-6.58562651
-10.8671066
-12.40060095
-13.29966863
-16.86755619
-18.30969186
-19.6429855
-22.48450642
-23.82245832
-25.5581574
-23.70342222
-27.42895674
-31.85825043
-29.31287176
-31.15781246
-36.18356782
-32.81088539
-34.29176964
-40.0064501
1.382750332
0.2107259929
0.239794255
-3.275321243
-4.427479193
-4.851502291
-7.808443083
-8.906273901
-9.76606025
-12.10454477
-13.1377929
-14.40911713
-16.13333361
-17.09522891
-18.74798566
-16.07441129
-18.89809371
-23.11675871
-20.20287046
-21.48491378
-26.26914885
-22.62864108
-23.62395308
-29.00531493
0.830532232
0.10535607
0.1307841472
-2.049330726
-2.763645969
-3.175100183
-4.859176157
-5.539340672
-6.371670967
-7.522108358
-8.163757046
-9.392932861
-10.02993566
-10.63176149
-12.22864552
-8.698788187
-10.68089837
-14.7433366
-11.44140506
-12.17704261
-16.78438951
-12.82451666
-13.49334251
-18.54079468
0.2890449888
-0.007001974279
0.0302099784
-0.864745702
-1.149194069
-1.543681619
-1.984710305
-2.256917355
-3.068265493
-3.05525061
-3.315525156
-4.51591478
-4.080148977
-4.330317933
-5.892407952
-1.715718355
-3.141060769
-6.52725587
-3.417117445
-3.677440504
-7.505295035
-3.983503285
-4.362506353
-8.328708503
-1236.331726
-1226.318354
-1106.770676
267.6396516
364.2716088
398.9761616
-798.4256694
-752.10611
-755.4593817
-992.1885871
-884.2666667
-913.5559777
-1454.316692
-1453.328094
-251.1120922
-323.1655604
-274.1152632
-1257.013734
-1308.321795
-1308.433267
48.74984196
-3.007901963
-1160.886336
-1158.147823
-1209.815464
-55.49962546
-112.800313
-183.913615
136.6575247
89.06417588
-1184.881856
-1297.716145
-1323.574587
-1245.918516
-1271.613124
-1170.577077
-1121.748118
-1195.770354
-1220.552539
-1147.648938
-1171.511412
-1104.412458
-1050.561135
-1101.04293
-1124.187717
-1055.27995
-1078.097561
-1032.084471
-558.6613105
-643.0115802
-613.5415355
-699.175656
-671.7208687
-591.2003916
-839.556178
-754.6208189
-779.3420556
-619.0941267
-740.2090077
-674.4544648
-829.8951605
-792.5514609
-680.3460157
-1058.99662
-919.1068175
-944.8637811
-789.8930518
-878.1981713
-857.6695627
-902.323754
-892.6448084
-810.8354519
-1072.726719
-981.2529038
-983.4128583
-846.8498253
-912.679027
-908.7041577
-909.6616617
-912.0323568
-852.2649579
-1038.370406
-973.7994694
-967.2572949
-853.4565833
-901.1344713
-906.1761947
-886.6718456
-894.5726117
-850.138873
-986.0181241
-939.9854584
-928.714607
173.6978692
160.007396
265.0553561
-4.2166628
35.175643
-56.75902821
-307.0078632
-362.4966033
-280.9060991
-486.2410347
-430.119125
-372.4699866
-582.7229443
-499.5032674
-554.7424783
-515.9428018
-572.80033
-533.4474947
-633.3942202
-605.7483685
-550.4120731
-735.9183457
-667.590077
-692.356196
-626.2337697
-675.3654791
-656.3808717
-703.4316638
-690.9328766
-644.0902111
-794.8492212
-741.1339288
-750.956899
-680.0964888
-720.4084416
-713.1432133
-728.4796345
-725.4691746
-687.1944648
-806.9991442
-765.6316594
-766.0366936
242.0299519
264.3784024
83.9626941
86.87754765
169.8965898
-62.78383015
10.4127322
17.09925757
-13.60461022
0.5720094415
-81.67953372
-166.7749019
-192.588901
-130.582182
-298.9183016
-248.662467
-219.1086644
-324.3155659
-283.5235648
-335.8379792
-348.9462158
-383.2824727
-343.6584767
-449.7126746
-418.4551403
-383.7599519
-501.1958314
-457.3840541
-488.5546697
-467.6716548
-502.0455665
-477.4803457
-542.4989438
-523.6529512
-489.8102996
-600.6090604
-560.5087183
-578.387755
-541.0822473
-572.5614304
-558.7481227
-593.5253202
-584.0602635
-553.5342678
-650.9205144
-616.527324
-624.7292759
168.766678
182.642735
70.83174167
74.38678843
126.1307459
-21.78680281
26.96625726
27.89963842
21.62394333
24.75347156
-28.61198543
-100.654371
-113.0149984
-68.33337952
-195.212462
-155.3663879
-140.1869621
-194.2237494
-173.2075191
-215.5413072
-246.1938197
-267.1871404
-232.4851667
-329.1246421
-299.3739354
-277.147764
-352.5608212
-324.4475691
-354.9897582
-357.1483196
-381.4409676
-356.4720804
-424.4060632
-404.0577907
-379.6091516
-458.8004661
-430.3604598
-450.5473878
-434.6651162
-458.707913
-442.5829632
-485.3210018
-472.8600116
-449.1452285
-524.8769838
-498.0148398
-509.9783026
127.2726429
135.7419481
58.57356893
61.230947
97.79142902
-7.08451585
27.95119342
27.07504993
28.49349336
28.46084735
-9.412238475
-68.3460889
-74.40544485
-40.93049635
-138.2228014
-106.8713096
-98.85914817
-127.2676924
-116.2596615
-149.5111092
-184.2596256
-196.9988804
-168.3008317
-249.9653837
-224.2397084
-210.2858997
-257.4247777
-239.87613
-266.6437527
-280.0505863
-296.7027867
-274.1312055
-336.9805632
-317.6558989
-300.3791788
-357.0779272
-336.4846046
-356.2540256
-352.5031301
-370.8780668
-354.7010904
-398.9571652
-385.5853235
-367.0940349
-426.6404811
-405.4152825
-418.7231174
100.2337189
106.6698945
45.91827013
49.11389205
76.20734463
-3.420051217
23.44655883
21.71950726
26.21268212
25.03377584
-3.587153478
-52.72080028
-55.61625231
-29.5681245
-106.1723012
-81.17542686
-76.87457365
-92.01791719
-86.17503701
-112.6010443
-145.8599674
-153.9403354
-130.461163
-198.0738979
-176.5070848
-167.3234061
-197.8046416
-186.6063192
-209.2053874
-226.0934426
-237.9728701
-218.5754699
-273.4165737
-256.2524841
-243.7002323
-284.4769504
-269.8080368
-287.5373326
-290.4882005
-304.4580624
-289.4779704
-331.3077904
-318.3805716
-304.1186055
-349.7907154
-333.5818548
-346.6785675
77.60052828
82.81796636
34.01734643
36.78084438
57.96594486
-4.837177024
16.29246222
14.58358962
19.95011711
18.11733741
-4.25802422
-44.70422875
-46.38852605
-25.63649224
-86.87621812
-66.80990002
-64.04594227
-73.14392297
-69.82363164
-91.01227478
-119.8242174
-125.5557143
-106.4810912
-161.8714083
-144.0366482
-137.432414
-158.9109586
-151.1741509
-169.8638605
-186.6162332
-195.4414672
-179.0171513
-226.0410942
-211.1209527
-201.6912047
-232.0505306
-221.217504
-236.6876652
-242.7327646
-253.5867801
-240.1959621
-278.1133009
-266.2184394
-255.0116174
-290.7120804
-278.1019867
-290.2673111
60.14268626
63.94455111
25.05613723
27.03869012
44.15284378
-6.725310602
10.31467373
9.123635166
13.02503524
11.60946397
-6.328231239
-39.08562411
-40.35187159
-23.56379133
-73.25813455
-56.92319353
-54.86118998
-61.49438986
-59.12773663
-76.29480467
-100.6672472
-104.9735671
-89.28974925
-135.1258694
-120.2652016
-115.2756853
-131.3021508
-125.5945433
-141.1369157
-156.6252438
-163.4256781
-149.521892
-189.6715485
-176.8146539
-169.49497
-192.8660641
-184.5903574
-197.9399567
-205.122948
-213.7452938
-201.9844081
-235.607923
-224.9499049
-215.9770057
-244.4252377
-234.421588
-245.3756231
47.38364344
50.23468556
18.48050753
19.94167494
34.08715158
-7.942666073
6.095656314
5.245594018
8.027683392
7.020618995
-7.691835598
-34.66047441
-35.68631229
-21.84290691
-62.8901036
-49.37419815
-47.73721892
-52.92490625
-51.09984048
-65.25341333
-85.86193537
-89.24700975
-76.19091631
-114.5078301
-102.0284403
-98.09970032
-110.5922253
-106.1847846
-119.212229
-133.05206
-138.4628785
-126.6599637
-160.9473068
-149.897332
-144.0467505
-162.5918292
-156.069283
-167.5464852
-174.8466138
-181.845977
-171.60024
-201.0969643
-191.6766209
-184.3522919
-207.4601682
-199.371431
-209.0802586
37.73678922
39.91353687
13.60872902
14.69559405
26.52407566
-8.636547818
3.090048594
2.48768425
4.464564027
3.74756422
-8.506111647
-30.94723605
-31.82533243
-20.25866437
-54.58888136
-43.2732029
-41.91110802
-46.17982194
-44.69410308
-56.51314685
-73.95822823
-76.71693779
-65.74368615
-98.03758826
-87.48800332
-84.28883905
-94.37835559
-90.8464261
-101.8425704
-113.9765843
-118.4003028
-108.3472919
-137.6758037
-128.1810436
-123.3852107
-138.4921162
-133.2104243
-143.0718688
-149.9677179
-155.7630167
-146.8731231
-172.5969273
-164.3368991
-158.2492465
-177.3678017
-170.7046909
-179.2315738
30.29117255
31.9824405
9.971840243
10.78471129
20.76456181
-8.913887434
0.973457579
0.5551692162
1.936525634
1.432913735
-8.878194857
-27.69006684
-28.47061117
-18.71823863
-47.68028868
-38.12816725
-36.95480732
-40.60257561
-39.34299146
-49.30235528
-64.08058762
-66.39409017
-57.10722223
-84.48973809
-75.5262373
-72.84977293
-81.23626803
-78.31890058
-87.65148985
-98.15808646
-101.8576611
-93.27110559
-118.3982134
-110.2371316
-106.2212912
-118.8060466
-114.4281517
-122.9037775
-129.1440299
-134.0264721
-126.3310105
-148.6817019
-141.4764056
-136.3344459
-152.4194662
-146.8351004
-154.2814332
24.4585999
25.78999243
7.249560633
7.85804545
16.3303849
-8.868417442
-0.4806656524
-0.7611302705
0.1751166963
-0.1693355632
-8.905553888
-24.74775429
-25.4590023
-17.18756034
-41.75987616
-33.65254754
-32.61597928
-35.81957867
-34.71966473
-43.16315979
-55.67823751
-57.6627342
-49.76691472
-73.07832783
-65.43664661
-63.14841111
-70.2808758
-67.81209374
-75.76296444
-84.77227192
-87.92507384
-80.57768268
-102.125984
-95.11089243
-91.68751176
-102.3685225
-98.66828443
-105.9540427
-111.4354364
-115.6111721
-108.9620407
-128.3267705
-122.065977
-117.6611048
-131.3919791
-126.6406271
-133.1165837
19.8354631
20.89515071
5.21589682
5.669476149
12.88517356
-8.576824249
-1.437414369
-1.613718898
-1.012826934
-1.237661661
-8.669273657
-22.03803635
-22.69684049
-15.65831756
-36.57219822
-29.6703175
-28.73753979
-31.6079293
-30.626587
-37.81072077
-48.38869702
-50.12187152
-43.39212364
-63.27898916
-56.75344181
-54.76259059
-60.94178011
-58.81167796
-65.59956374
-73.25178312
-75.98136768
-69.69078046
-88.16885181
-82.14318297
-79.18029535
-88.38998325
-85.21084456
-91.47072302
-96.16575655
-99.7844247
-94.05150618
-110.781728
-105.3611274
-101.5402597
-113.4133894
-109.3170998
-114.9289236
16.13552354
16.98611933
3.710205401
4.044082855
10.19395215
-8.098634392
-2.016150608
-2.112475863
-1.768022028
-1.901737989
-8.232967326
-19.51115251
-20.12766192
-14.13211056
-31.94924662
-26.06844994
-25.21808742
-27.82714044
-26.93780385
-33.05894162
-41.96569843
-43.50072499
-37.76212871
-54.73050991
-49.15888268
-47.40259626
-52.83568712
-50.96888587
-56.76572909
-63.19611302
-65.59025549
-60.20957708
-76.0325486
-70.86655339
-68.26959438
-76.31699499
-73.54743433
-78.91747078
-82.8395356
-86.01116025
-81.08262716
-95.48704626
-90.81259602
-87.46218467
-97.84557752
-94.27261014
-99.11695574
13.15673636
13.84272504
2.615656895
2.856106095
8.09007961
-7.48029597
-2.304033472
-2.338960844
-2.191840531
-2.255341302
-7.645784766
-17.13653268
-17.71708038
-12.61521191
-27.77691519
-22.77234543
-21.98969501
-24.38581798
-23.5708195
-28.78264118
-36.23415672
-37.60992646
-32.72445935
-47.17540892
-42.42850055
-40.86041152
-45.69718363
-44.03997675
-48.98247203
-54.31064262
-56.43552364
-51.84593494
-65.3530168
-60.93945512
-58.63665211
-65.75215231
-63.31006249
-67.90275873
-71.08097369