/*--------------------------------*- C++ -*----------------------------------*\
| =========                 |                                                 |
| \\      /  F ield         | OpenFOAM: The Open Source CFD Toolbox           |
|  \\    /   O peration     | Version:  v2012                                 |
|   \\  /    A nd           | Website:  www.openfoam.com                      |
|    \\/     M anipulation  |                                                 |
\*---------------------------------------------------------------------------*/
FoamFile
{
    version     2.0;
    format      ascii;
    class       volVectorField;
    location    "2.74";
    object      U;
}
// * * * * * * * * * * * * * * * * * * * * * * * * * * * * * * * * * * * * * //

dimensions      [0 1 -1 0 0 0 0];


internalField   nonuniform List<vector> 
3259
(
(99.99792871 0.4291889713 0)
(100.0021183 0.432651969 9.673082826e-22)
(100.0043489 0.3972132714 -1.541694233e-21)
(100.0057102 0.3358198975 9.411677045e-22)
(100.0057324 0.2657143575 0)
(100.005274 0.1996273887 1.565688758e-21)
(100.004957 0.1422745528 6.43535364e-21)
(100.0026605 0.1002317602 -1.811231366e-21)
(100.0107459 0.114548119 -1.574364791e-20)
(100.0073531 0.07056909968 0)
(100.0054214 0.03763321299 -1.978197344e-21)
(100.0052195 0.01185440268 -1.393097696e-20)
(99.89635842 1.937708871 -1.395903578e-21)
(99.99458938 1.973604928 9.027429823e-23)
(100.0848127 1.827631417 -5.166192527e-22)
(100.1389164 1.553567051 4.837305958e-21)
(100.1514804 1.228895173 -9.519951899e-21)
(100.1346051 0.9255382933 0)
(100.1435152 0.6979519854 -2.734346875e-20)
(100.1026936 0.4766249733 5.272897644e-20)
(100.1012037 0.3276850662 1.524409023e-20)
(100.070559 0.2011296473 3.143436191e-20)
(100.0529562 0.1076796872 -3.152743781e-20)
(100.046246 0.03397985141 1.590977314e-20)
(99.73855725 3.801820979 -2.187535151e-19)
(100.1184642 3.884219069 0)
(100.4323772 3.55834817 1.622125382e-19)
(100.595678 2.974742602 3.875764392e-21)
(100.6176503 2.317568077 -1.024566768e-20)
(100.5415464 1.702117958 -2.427178142e-20)
(100.4761985 1.195211615 -1.64138113e-19)
(100.349719 0.804032882 -3.650086547e-20)
(100.2797713 0.4974983539 -1.564477294e-20)
(100.1986003 0.3028522277 3.556522005e-20)
(100.1496513 0.1623023967 -3.997456965e-21)
(100.1281762 0.05092555232 0)
(99.43995358 6.073636896 5.27971573e-20)
(100.4174497 6.148867723 0)
(101.1341802 5.463664998 0)
(101.4262424 4.414592222 -3.269489057e-19)
(101.400133 3.318206555 1.799623699e-19)
(101.2111177 2.374225348 0)
(100.9918799 1.583612089 5.984830808e-20)
(100.7241486 1.039471704 -4.630814505e-20)
(100.53016 0.5966835979 -4.00887763e-20)
(100.3785194 0.359173321 2.030223198e-20)
(100.2839167 0.1901188248 -4.074787228e-21)
(100.2406321 0.05911649619 0)
(98.99688857 9.173509849 5.838364176e-20)
(101.2047113 9.091341452 -7.140156368e-20)
(102.5393066 7.590406564 0)
(102.8663147 5.746673784 5.299319641e-20)
(102.6104979 4.127681703 0)
(102.134513 2.824362092 -5.541206914e-22)
(101.6635355 1.790916847 -9.937872867e-20)
(101.1965594 1.14275959 8.26958756e-21)
(100.8221186 0.5991484308 0)
(100.5818222 0.3550491127 4.158732926e-21)
(100.431308 0.1830504372 -3.123282627e-21)
(100.3613593 0.05608882088 -1.035687465e-21)
(97.97402197 14.12269235 1.417159608e-20)
(103.1802567 13.28583784 1.235918575e-19)
(105.2527813 9.747722349 0)
(105.1371345 6.703006153 0)
(104.2767986 4.514296686 -3.066817707e-19)
(103.3005069 2.950194321 -1.380362879e-19)
(102.4247126 1.738551459 2.560369379e-20)
(101.7134936 1.068777541 -1.714181946e-20)
(101.1186165 0.4892961118 0)
(100.7759078 0.2798066915 0)
(100.5643965 0.1357215695 -1.051176189e-21)
(100.4655667 0.04038140012 -3.154694263e-21)
(93.8270268 23.5398782 -2.880001605e-19)
(108.9712268 19.34522126 0)
(110.0241493 11.1651625 0)
(108.2592501 6.699118924 0)
(106.2874346 4.155718383 0)
(104.5786022 2.567134666 1.645511465e-19)
(103.1726786 1.359469082 0)
(102.2025223 0.776010904 9.399084831e-21)
(101.3686424 0.2653814632 2.768619497e-21)
(100.923693 0.127340457 -3.272707158e-21)
(100.6548698 0.04742874485 -3.720703206e-21)
(100.528031 0.01197797908 8.955460157e-21)
(123.7610678 22.42615001 -9.787309014e-19)
(116.66351 9.351710804 -6.435137549e-19)
(111.6620399 4.93498583 2.662928882e-19)
(108.2240977 2.80578311 0)
(105.7327594 1.57960807 -2.778501576e-19)
(103.767017 0.6415347094 -5.017282082e-21)
(102.5643376 0.2762237378 2.123873424e-20)
(101.5151558 -0.06613654225 -3.379398076e-21)
(100.9881152 -0.09169948282 2.76264069e-21)
(100.674623 -0.07612778742 -5.250361229e-22)
(100.5243845 -0.02777521817 -8.416971852e-21)
(136.5880747 7.091039266 2.358650102e-18)
(121.326592 2.876984133 -5.254234319e-20)
(113.9529808 1.281464821 4.26147472e-19)
(109.4732917 0.5112337656 8.47097462e-19)
(106.440054 0.08496227898 7.583020547e-19)
(104.0633772 -0.3317268437 -5.135091741e-21)
(102.7073849 -0.3807572504 1.196080535e-20)
(101.5150759 -0.4712712827 1.163009726e-21)
(100.9397248 -0.3566899017 0)
(100.6001218 -0.2239045119 4.248336621e-21)
(100.4349365 -0.07551989311 4.196503082e-21)
(134.0427733 -8.991085342 2.221334206e-18)
(121.1342597 -4.812587038 -2.208073334e-18)
(114.0636979 -3.089955995 0)
(109.5648679 -2.184154896 -2.357645934e-19)
(106.4690787 -1.645852015 1.566760726e-18)
(103.9636425 -1.417738688 4.344134838e-20)
(102.5824991 -1.111668515 0)
(101.3428581 -0.9045535673 -1.136848757e-21)
(100.7615523 -0.6392869246 -4.695873849e-21)
(100.4177481 -0.3812119756 5.243360657e-22)
(100.2481579 -0.1265045017 0)
(125.3587723 -17.89031354 1.616915208e-18)
(117.3956712 -10.50060741 -6.608562985e-19)
(112.2071672 -6.767392384 2.699042189e-19)
(108.5185783 -4.61416791 0)
(105.8031396 -3.277160241 0)
(103.4613009 -2.441724956 0)
(102.1893117 -1.812173816 -2.830102036e-20)
(100.9964041 -1.317047479 -1.416689907e-20)
(100.4524879 -0.908550092 1.072410624e-21)
(100.1259144 -0.5321752991 -3.381127939e-21)
(99.96239254 -0.1756470384 4.956925785e-22)
(116.091826 -21.12612903 0)
(112.3042345 -13.3877308 -1.935431293e-18)
(109.255547 -9.057616175 -1.727132242e-18)
(106.7000038 -6.335939903 7.825159233e-19)
(104.6052562 -4.532085159 1.018058559e-20)
(102.6361052 -3.263681132 2.250168117e-21)
(101.570789 -2.397676502 -3.431150394e-20)
(100.502853 -1.672580838 8.397259587e-21)
(100.0276585 -1.136778166 0)
(99.73459886 -0.6630573565 3.895304954e-21)
(99.58573549 -0.2184923485 0)
(138.8438362 10.2357742 -1.851018173e-18)
(124.8846456 25.26062334 -7.640449133e-19)
(136.9377385 -8.155985085 3.378448446e-19)
(139.4191771 7.596285198 -3.341923069e-19)
(127.6030276 -18.44775113 0)
(135.9766876 -9.920182585 3.47977926e-19)
(117.645613 -22.20810915 2.355772768e-18)
(126.3327588 -19.20988875 0)
(116.4496556 -22.35305833 -1.11606322e-18)
(91.95942991 22.22895105 0)
(121.8047609 25.90269129 8.220260003e-19)
(107.0222739 21.07783366 0)
(147.3648391 29.38028879 0)
(127.5639586 44.0503934 0)
(135.9891762 9.415976836 -4.678354526e-18)
(123.1258787 5.759377238 -7.707967574e-19)
(118.2916075 11.18498781 0)
(150.0716857 -3.408177119 2.102328756e-18)
(152.5464394 9.825939671 0)
(134.8603329 -7.354100706 1.139793478e-18)
(124.1654284 -3.45928076 -4.085198094e-20)
(123.9872191 3.470759472 1.59522976e-18)
(136.9893126 -20.58808066 8.474406115e-19)
(143.8053233 -14.37810663 2.007983543e-18)
(126.5324088 -17.14037662 1.687590948e-18)
(120.3611836 -10.61764112 1.521058213e-19)
(123.5464119 -5.54716129 0)
(124.3005053 -26.55564606 3.587261099e-18)
(129.725992 -24.70624788 4.17684187e-19)
(108.265457 -32.39137436 -3.332560971e-19)
(112.7073794 -27.31400778 4.03645016e-19)
(117.6786203 -27.56403054 1.05552543e-18)
(152.5780269 10.85714531 1.563654327e-20)
(148.096716 28.1985337 0)
(135.0517771 18.02683242 -9.497435063e-19)
(146.4659503 26.52066994 -1.358120544e-18)
(151.4944666 10.8463299 3.488438433e-18)
(144.2260846 -13.83270554 2.07800272e-18)
(149.7968378 -4.168519181 0)
(138.6028169 -1.525801725 1.126927201e-18)
(149.0280371 -3.82840291 -2.088932644e-18)
(143.7790115 -13.40131447 0)
(151.5063623 9.835605655 1.147732809e-18)
(149.2927592 -3.083914009 -2.907681077e-20)
(138.774854 -0.4049922643 0)
(130.5216916 -24.34926487 0)
(136.5295694 -20.93047459 -8.360574063e-19)
(131.3662634 -15.54595757 -5.231381204e-19)
(136.0371072 -20.32963726 -1.794125155e-18)
(130.2878133 -23.53960246 1.7301923e-18)
(143.3731755 -13.94382083 1.954993606e-18)
(136.9197495 -19.72157062 5.126017637e-19)
(132.5875845 -14.34704552 -5.372783507e-19)
(118.4007903 -27.52381183 -5.373357574e-19)
(123.5452077 -26.73691434 0)
(105.7198589 -32.20387988 0)
(105.2459112 -32.05706118 0)
(112.0056357 -27.27034392 3.8554575e-19)
(108.2675202 -32.39137945 6.745449811e-19)
(152.3220078 53.46121004 -1.689358956e-17)
(125.8871604 66.97204869 0)
(122.3695048 -28.06106481 -5.436272287e-18)
(117.2121494 -20.95718095 -5.716807629e-19)
(114.6303617 -14.39557234 1.113082617e-18)
(119.0140663 -11.87576148 -7.086523266e-19)
(103.8377046 -30.88471232 -4.193441273e-19)
(114.9221171 -30.66046357 -5.062884962e-19)
(117.4520847 -30.49559941 -1.368057954e-18)
(127.0706238 40.34514207 0)
(145.0415066 28.82024316 0)
(133.0116742 20.35541649 -2.834913853e-19)
(117.8338012 -30.4302046 4.613622465e-19)
(120.3833591 -30.16239415 1.029934971e-18)
(121.3195688 -21.36729373 -2.805114947e-18)
(123.4135125 -25.96072774 2.036930148e-18)
(118.3394851 -26.75228656 0)
(129.5038055 -23.89341759 -1.683506448e-18)
(124.1573912 -25.77171743 -2.100667871e-18)
(122.5630461 -20.94505457 1.453899268e-18)
(83.86280285 32.65072269 0)
(123.6931463 44.16174494 0)
(105.7248305 35.92154728 -1.511843862e-19)
(86.55503647 35.28697518 3.503798292e-19)
(153.6856121 50.16440728 -4.503320208e-17)
(141.2791259 38.0071009 0)
(152.2265269 49.99609564 -1.766371427e-17)
(125.9638896 62.43214272 0)
(150.056314 52.70388137 1.416447364e-18)
(138.3325922 40.1255912 0)
(151.4038517 2.337032252 3.797283665e-18)
(151.5929604 3.208984518 -1.265630259e-18)
(140.2142914 -18.11421678 0)
(140.6775497 -17.68660291 0)
(123.0964576 -29.56520562 0)
(123.137048 -28.24288337 0)
(126.5930016 -25.89501357 3.130170605e-18)
(125.7740333 -28.33370589 0)
(123.8394306 -29.21832708 0)
(126.2651354 -26.82634529 0)
(125.8038214 -28.21944728 0)
(127.3674408 -25.63313319 0)
(111.9405449 -30.32881136 -3.993172688e-19)
(114.1814205 -30.61883889 -2.277282819e-20)
(105.0539067 -31.15895179 5.299193918e-18)
(151.6254675 18.45508175 2.398639055e-18)
(151.3614707 19.64424588 0)
(146.9299179 -9.605374939 -1.16605871e-18)
(147.2844092 -8.957836949 -1.186907124e-18)
(146.741996 -8.623767016 -1.109914134e-18)
(142.6471818 -6.356608153 -1.23136174e-18)
(143.9134057 -2.663713744 2.518335106e-18)
(140.4296186 -10.69023071 9.723224616e-21)
(142.1448306 -7.508682546 1.2291654e-18)
(146.4005002 -9.270130664 3.336633524e-18)
(150.8438914 3.378669629 0)
(145.0301618 4.342312179 2.613540148e-18)
(144.9028923 9.016695089 1.27925606e-18)
(144.2422572 -1.341435394 4.952662306e-20)
(144.9217961 2.864104354 -2.617608985e-18)
(150.6777622 2.512805567 -1.183757945e-18)
(133.0919992 -22.88801299 8.530965167e-21)
(126.5848536 -26.56977134 0)
(133.5089859 -22.62279629 0)
(123.4671922 -29.30225129 -1.175984326e-18)
(120.9294975 -29.73004447 0)
(121.312288 -27.17654027 -6.474761816e-19)
(120.7200995 -30.10797182 -7.93845048e-19)
(122.8036733 -29.67259485 0)
(101.1144922 -30.51352007 1.414923575e-17)
(111.1928209 -30.18998711 -3.787450481e-19)
(120.581876 89.36750852 0)
(114.2732924 -31.83413309 1.279360844e-20)
(114.6041561 -31.54952254 9.288058217e-21)
(36.02152993 9.318151572 6.447089257e-18)
(114.4074315 -31.38950508 2.487468821e-19)
(113.6689962 -30.82825103 2.835530311e-19)
(69.21886696 44.19486912 1.618698809e-19)
(120.9264356 66.1317261 2.86326833e-18)
(100.7327182 53.1614134 0)
(76.45278116 51.10566948 7.536343639e-19)
(150.7253842 -1.01044268 4.30235325e-18)
(155.546599 9.639418963 -4.548998663e-18)
(154.8863161 6.445929314 0)
(152.2564213 6.869269777 -1.550176731e-19)
(138.3541104 -19.64138692 1.747631347e-18)
(138.7012499 -21.18705169 1.838719439e-18)
(137.3971041 -22.0858908 0)
(144.0269719 -15.88763422 0)
(142.4701626 -17.49272393 5.564638201e-18)
(142.499123 -15.89460001 1.89569608e-18)
(152.3654242 14.01107227 3.490749936e-18)
(155.5608352 14.02104952 2.605624547e-17)
(155.7605619 10.73393757 4.456720618e-18)
(150.2037111 19.26241301 2.339103006e-18)
(142.7642151 17.42034576 0)
(139.9525786 22.5355611 -3.503138718e-18)
(144.6869043 10.65282039 -1.33589233e-18)
(143.4203517 15.6953201 1.308069938e-18)
(150.4459373 18.14448348 -4.683097188e-18)
(145.439687 -12.10376725 3.313653401e-18)
(146.0015916 -13.45992957 -8.533537937e-20)
(144.5368004 -15.32619251 0)
(148.807057 -6.353452082 0)
(136.9152494 -22.39510911 0)
(135.4630181 -23.18263542 0)
(135.2016915 -21.68489153 2.428052918e-18)
(133.5001315 -21.88414067 9.76320389e-19)
(131.8622946 -19.39306761 9.189103606e-19)
(134.0819485 -17.77716671 1.007071602e-18)
(140.3756739 -17.22333121 0)
(137.7544081 -14.28594439 2.075813336e-20)
(139.7948146 -11.66122727 -2.261882706e-18)
(134.8264971 -17.16497445 0)
(137.0368884 -15.07218927 -1.07873682e-18)
(139.9324341 -17.64796818 9.000513264e-19)
(120.5813121 -27.28930266 6.059273844e-19)
(120.5691309 -29.78776437 0)
(118.17313 -29.85343018 -5.701620395e-19)
(102.5595278 -31.22774784 4.758944939e-18)
(143.4254756 62.84174545 -2.482750797e-18)
(122.168531 85.65166466 0)
(139.4388748 65.42262388 -2.142909422e-18)
(123.6355439 -27.57936068 0)
(123.905544 -27.4467674 3.326014903e-18)
(113.5765219 -31.90937443 8.111674168e-19)
(114.1767533 -31.83933636 4.246772333e-19)
(103.5765493 -30.47589081 -1.516852201e-17)
(48.65372174 -7.879835258 0)
(43.28285263 8.94690747 -8.114719437e-18)
(51.95882233 -9.921491902 0)
(115.8761867 -30.48143242 -3.660138628e-20)
(116.5138863 -31.00149051 -1.046767079e-18)
(119.3056089 -30.30178359 0)
(112.7482081 -30.48601076 -3.119016131e-19)
(112.1380745 -29.990837 0)
(155.7386449 42.02142556 1.062239645e-17)
(150.1968096 39.46730096 1.189700133e-18)
(145.4571683 44.29953833 0)
(154.0861518 32.82262583 1.225006856e-18)
(151.418832 37.80267128 2.361790497e-18)
(143.6060256 45.86476292 0)
(137.1659292 49.92449792 -3.007498275e-18)
(141.7027847 59.30051486 -2.165259838e-18)
(153.4408202 1.712907643 3.116759894e-18)
(152.2035664 -0.998960492 0)
(150.8818014 -0.1966194308 -2.251432047e-18)
(152.1149573 5.92000861 2.474512188e-18)
(154.6080812 5.430044711 4.670569683e-18)
(153.738161 2.621385386 -2.312799146e-18)
(140.736989 -19.56037087 5.502608554e-18)
(139.1966734 -20.82598954 5.779940264e-18)
(138.821489 -19.29064294 2.192031674e-20)
(137.8927718 -21.38217404 -4.440018858e-18)
(139.750762 -20.07088558 -4.921938097e-18)
(136.7424177 -22.49187942 0)
(137.3713538 -21.74733607 4.094668984e-18)
(140.2859672 -19.5174035 0)
(142.0503153 -16.35654831 1.402545026e-18)
(141.9281786 -17.91255622 -4.005559441e-18)
(141.2252648 -19.08014625 0)
(123.3358636 -29.18505353 1.247220374e-18)
(123.4367916 -28.98144021 0)
(125.1046534 -28.85821468 1.294625023e-18)
(125.7393732 -27.59897663 6.211143256e-19)
(126.8996742 -27.29775488 1.916163958e-18)
(126.6250041 -27.49953701 4.065075765e-19)
(128.8844938 -26.57447342 -6.968330299e-19)
(130.0841871 -26.10041827 1.428607629e-18)
(127.2849547 -27.12728027 0)
(128.483767 -26.7276586 -1.366164401e-18)
(126.4769098 -27.69711517 0)
(106.9099064 -32.00659146 -7.643416156e-19)
(112.3679069 -31.83321414 -3.541176543e-19)
(113.2984741 -31.88829438 0)
(155.5017145 19.03535584 1.345377826e-18)
(155.4648195 15.29304285 0)
(152.2241068 15.08284798 0)
(156.3931139 15.42327791 -7.769350215e-18)
(156.6959186 19.1784685 0)
(156.2126728 14.0372684 -7.741018003e-17)
(155.7210042 26.32088428 -4.460960695e-18)
(154.7542004 31.16369836 -1.22022602e-18)
(156.7665216 20.43785602 0)
(155.9236461 24.84610245 -5.72976211e-18)
(150.3019721 23.20054391 0)
(154.6745019 24.49716164 2.656679149e-18)
(155.4797502 20.35155522 -1.280431158e-18)
(147.7556262 -10.77140318 4.29013672e-18)
(146.4738904 -12.79660744 0)
(145.8269783 -11.4979789 2.22748566e-18)
(148.4205623 -7.024308398 1.074286437e-18)
(148.972166 -8.211459167 0)
(148.1180637 -10.067184 0)
(132.0370056 -25.20646044 3.754580434e-19)
(133.2394969 -24.64869995 -1.65389381e-18)
(130.4939087 -25.9315244 1.47409633e-18)
(131.6784113 -25.36600494 -7.567617481e-19)
(126.8961829 -25.89603818 0)
(134.9536628 -23.55836198 1.761176645e-18)
(136.3470897 -22.80007734 3.075685999e-18)
(133.6224542 -24.41463737 4.213390315e-19)
(134.5470282 -23.80183406 0)
(111.4477895 -29.75231159 0)
(121.7409621 -29.94348938 1.132204952e-18)
(114.7369327 -29.61430169 -2.355145451e-20)
(115.033609 -30.16966335 -7.47066005e-18)
(114.9159429 -29.50232308 1.806363685e-18)
(122.043954 -29.85245783 0)
(101.271069 -30.94258406 1.558887113e-18)
(121.1827107 23.06665364 -1.501001808e-18)
(116.1946833 12.2049456 -1.168918605e-18)
(110.2544564 12.79000134 2.000028168e-19)
(107.1024594 -30.64096179 4.894052225e-18)
(107.3600858 -30.56211228 -5.832847091e-18)
(113.1419198 -14.85155524 9.763105147e-19)
(106.6692056 -30.3192116 -3.85775139e-17)
(117.6312665 -26.80754806 0)
(113.1150664 -26.31626018 4.75438968e-19)
(112.9592774 -22.41421613 8.882052485e-19)
(54.9157442 56.22437151 -1.176485626e-18)
(52.39236291 32.17017347 2.474111435e-18)
(38.90265866 18.89080156 0)
(106.4200824 93.61062774 0)
(90.32594363 72.29778166 -9.390788622e-19)
(62.16012381 65.23321489 1.206876424e-18)
(113.7412453 24.92614578 1.036040841e-18)
(109.1031311 33.14029452 0)
(123.7662618 40.51916489 0)
(144.7651355 33.2816384 0)
(149.3433117 36.55988716 -2.399899844e-18)
(152.2256174 31.94924138 0)
(110.9666373 -31.62427197 -6.667533499e-19)
(112.0203387 -31.84454685 1.078767043e-18)
(107.417357 -32.10672636 6.666251175e-19)
(117.4262937 -29.90000386 1.134772675e-18)
(115.1898679 -29.86178312 9.899460566e-19)
(115.5280022 -27.57922079 0)
(152.9788076 30.44135822 -2.373141652e-18)
(154.3548499 25.91664384 -1.666663121e-18)
(149.8400495 24.38621886 0)
(101.5184732 -31.43234528 -1.621961173e-19)
(104.6601904 -31.95063657 0)
(99.10135846 -30.84569609 0)
(100.3218016 -31.07200041 -1.842126763e-20)
(110.5935481 -31.60460492 -6.46831327e-19)
(150.3960227 56.31049032 -2.64874001e-18)
(122.8032971 -27.90025149 0)
(109.2400091 -31.87277142 4.140781309e-19)
(108.9455744 -31.65689305 8.906898125e-19)
(104.2576479 -30.78419842 0)
(116.2656086 -31.47953724 4.804362682e-19)
(115.4240517 -31.58544644 8.796050459e-19)
(116.3404464 -30.46000526 8.592577016e-19)
(138.6965157 24.18197676 2.345902722e-18)
(133.9738816 28.55400594 0)
(139.027832 35.26578246 3.677337608e-18)
(118.9460505 -30.39031991 0)
(116.6998849 -31.1610488 5.194645535e-19)
(116.4333067 -31.42538525 -3.115284041e-21)
(113.8220001 41.10255931 0)
(105.6299456 50.17037644 3.14927693e-18)
(121.9413833 61.95430991 0)
(153.8518558 47.36448326 0)
(151.5753605 46.43954556 0)
(149.798091 48.69503774 0)
(156.8123197 33.48014784 8.727567971e-17)
(156.4727953 35.70329448 0)
(123.3046416 -29.40961072 3.206415031e-19)
(120.9803021 -29.35795951 -3.460719207e-19)
(120.9936487 -29.55179231 0)
(120.1032675 -28.01935959 0)
(120.7679071 -28.31344258 1.011432429e-18)
(123.6799025 -28.52528825 -7.631894469e-19)
(124.1787537 -27.99280518 0)
(125.3387287 -27.75237769 0)
(124.7842981 -28.95844394 0)
(125.7538123 -27.09094 0)
(128.6710757 -27.04553726 -1.427040918e-18)
(128.8595487 -26.79338448 0)
(106.1931311 -31.54037874 -1.530718003e-18)
(110.0508611 -32.13028543 0)
(109.6826305 -31.96995109 9.957627451e-20)
(129.6934062 -25.25619172 -9.872425028e-19)
(130.2057395 -25.05331808 -3.184061955e-18)
(129.1466642 -26.57856042 8.100506071e-19)
(129.4785909 -26.36959158 -8.491218095e-19)
(127.0333663 -26.36761974 0)
(130.5148055 -24.82171071 -3.098630144e-19)
(130.1376811 -24.54009241 0)
(134.7654338 -21.98064061 0)
(135.0187416 -23.41493658 0)
(133.7669581 -23.97840472 -1.001817718e-18)
(101.8026664 -30.76374066 2.685544922e-18)
(106.3092127 -30.84908264 5.292638653e-18)
(106.7590881 -30.7335057 -2.191923158e-18)
(111.3271597 -31.12638348 1.242389812e-18)
(111.4852867 -31.34264677 0)
(114.5662516 -31.70343968 7.851931506e-21)
(36.99206382 2.357299571 0)
(26.72601173 12.96440829 0)
(39.70065654 -4.119755219 0)
(114.1299628 -31.28817413 0)
(109.3678348 -30.54456098 7.993345867e-18)
(110.4300012 -30.79663925 -7.137733168e-18)
(109.8212604 -30.28021583 0)
(109.818021 -30.40080765 2.451730923e-18)
(113.9405831 -31.06113467 -2.171827042e-18)
(109.6096893 61.40263891 -1.866486797e-18)
(97.07701176 69.53858548 0)
(113.4670943 84.89729173 0)
(151.7766787 -2.479368688 -7.035435347e-18)
(151.9853011 -1.672426673 5.964447031e-19)
(151.1417561 -4.032319277 0)
(151.4734117 -3.257329523 1.352074968e-18)
(155.3310325 8.568693106 -1.535746915e-18)
(154.434649 8.628781309 2.630871237e-18)
(154.5998207 9.681706352 3.901095514e-18)
(154.0665664 6.574653526 0)
(154.2595511 7.593730981 -5.385946858e-18)
(155.1170918 7.509029078 1.479413959e-18)
(143.5120778 -16.4677642 -5.033276585e-18)
(144.1354939 -15.8457302 2.079347865e-18)
(144.5966338 -15.28909286 8.72239375e-18)
(143.1844112 -16.874919 -2.945065391e-18)
(143.6632007 -16.38473076 0)
(142.9651282 -17.02986631 0)
(155.7793348 12.97783831 2.479600435e-17)
(154.7286983 13.07447356 -4.85906617e-18)
(154.5982786 14.18812491 -9.95140053e-18)
(154.7327585 10.77081627 -1.27853638e-18)
(154.781177 11.91255785 -2.402460489e-18)
(155.8710893 11.87874583 -1.400110177e-18)
(145.529621 -14.06589447 0)
(145.9100544 -13.5140139 4.654545191e-18)
(146.3288162 -12.9003628 -3.631298574e-18)
(145.0496023 -14.72012024 -2.236828944e-18)
(145.4863995 -14.12248091 -4.55519358e-18)
(145.0455688 -14.70035995 0)
(150.5165695 -5.691478454 0)
(150.8409838 -4.838570286 -1.377958896e-18)
(149.6952198 -7.168107303 0)
(150.148824 -6.466954073 0)
(96.91315261 -30.54357113 4.052166345e-18)
(98.36203202 -30.53412304 -1.224565108e-17)
(99.30080029 -30.7781674 -4.015257223e-18)
(103.9072385 -31.62787744 1.932250293e-19)
(96.22021602 -30.32768159 0)
(146.0970232 64.54544614 -2.569935734e-17)
(149.6739464 60.07087549 0)
(147.5570237 59.63773798 1.984724826e-18)
(133.3284926 79.15881198 0)
(131.772489 77.04426616 0)
(123.6919665 79.66567015 0)
(143.7800094 68.45157192 -7.819561434e-17)
(138.3635771 72.82913327 0)
(123.143041 -27.73108707 0)
(123.450324 -27.21659455 1.910477013e-17)
(104.2927945 -30.70056442 1.295770357e-18)
(108.5805949 -31.43372518 -9.476072341e-19)
(107.492523 -31.09441461 -1.027855284e-19)
(45.80685475 -4.340105277 0)
(111.6939103 -30.24526667 3.872341604e-18)
(109.1083799 -30.03226144 -1.794163751e-17)
(112.1291563 -30.10695693 0)
(154.4428757 41.71165258 -6.256647454e-18)
(153.1094961 44.20898729 2.693351985e-18)
(154.988671 44.92461887 -7.22467335e-18)
(153.2971766 34.41691007 1.241255225e-18)
(155.0305122 35.2254797 0)
(155.7351662 33.23163641 -3.498954067e-17)
(156.0674297 37.51088991 -1.610384231e-17)
(155.4394234 39.53239314 0)
(153.1119824 0.855878937 -2.830353617e-18)
(152.6683598 1.082690688 1.423224342e-18)
(152.8984172 1.94539204 -1.405413219e-18)
(152.1545905 -0.8112023839 0)
(152.5400466 0.2567748227 1.110851553e-17)
(152.8215724 0.07086632441 -1.287359614e-17)
(154.3081655 4.481638024 -1.553285381e-18)
(153.606088 4.642242624 2.743727596e-18)
(153.8458502 5.587024458 0)
(153.1289363 2.823824753 7.055169855e-19)
(153.3666383 3.724450819 -3.119905681e-18)
(154.0250735 3.543096011 -1.559823393e-18)
(140.2326895 -20.02458279 -5.30925048e-18)
(140.314165 -19.57395922 -2.971699999e-18)
(140.8156763 -19.13357637 -1.026112763e-18)
(138.5026446 -20.99753935 -1.173927094e-18)
(139.1334106 -20.58569023 1.56784526e-17)
(136.864884 -22.19661398 -2.48096536e-17)
(135.0040747 -22.47268176 6.391223914e-17)
(135.1718191 -22.82736101 0)
(136.7573775 -22.06737865 -3.649491311e-18)
(140.6408502 -19.04831897 -3.056111356e-18)
(140.5659257 -18.61332031 2.230002139e-17)
(141.929441 -18.16727764 0)
(142.2780442 -17.76680378 0)
(142.7286417 -17.33620527 1.934436957e-18)
(141.3179012 -18.68323256 0)
(141.8136659 -18.22352682 1.021949591e-18)
(141.660116 -18.61314755 0)
(119.6011982 -28.94229546 -4.983558313e-18)
(120.38013 -29.10643156 9.460140677e-20)
(123.3432494 -29.26768845 -1.260006186e-18)
(117.1142302 -28.83114834 -1.002438431e-19)
(117.5158231 -29.18968403 -6.414497798e-18)
(117.7498456 -29.06583516 7.629171143e-18)
(123.6536856 -28.77961979 0)
(120.546503 -28.53858469 1.691507065e-18)
(120.1565188 -28.76247461 -1.514654805e-18)
(128.3156262 -27.37738173 -3.694043126e-19)
(128.517088 -27.19379764 1.453644386e-18)
(126.3130344 -27.24865962 -9.621285103e-18)
(155.4790346 17.76672133 2.793509175e-18)
(154.3624625 17.66344374 0)
(154.2993299 18.89141092 -7.824926221e-20)
(154.4781488 15.27643463 2.51966215e-18)
(154.4147573 16.46185685 2.64478918e-18)
(155.4712015 16.50456085 -2.882988761e-18)
(156.5244371 16.60234982 6.886016796e-18)
(156.5928125 17.92249159 6.607223037e-18)
(155.5488987 27.85570471 4.122886911e-18)
(156.9374952 28.16663061 1.638524561e-18)
(156.9614566 26.61802979 6.885088853e-18)
(156.4066065 31.48826972 0)
(156.8244149 29.79758798 1.44304568e-18)
(155.2588597 29.48116523 -3.924679305e-18)
(156.6409882 21.72287024 5.045431006e-18)
(157.0613127 25.21955475 -1.614907849e-17)
(157.2440937 23.29578836 0)
(156.2897845 23.13406325 0)
(147.3562695 -11.4755337 1.311387116e-18)
(147.5198788 -10.95539971 -6.385801294e-18)
(147.8797679 -10.28148509 -1.272587781e-18)
(146.7362104 -12.26114513 1.027585956e-20)
(147.1335014 -11.61197369 -1.239265978e-18)
(146.9248192 -12.12590217 0)
(148.8228673 -8.759776786 0)
(149.0171559 -8.300541915 1.042510643e-17)
(149.4625741 -7.630783688 7.89221155e-18)
(148.2263658 -9.617603278 1.304612576e-18)
(148.5967646 -8.96125868 8.430802109e-20)
(148.4840634 -9.401656147 -3.143513468e-18)
(128.9090969 -25.65146758 9.992246153e-18)
(129.3287739 -25.44407852 3.547957431e-18)
(127.3124453 -26.18263647 -5.876855575e-19)
(129.6793895 -26.12466746 4.3588857e-19)
(129.4455182 -25.8287143 -8.034877614e-18)
(135.3901238 -23.30517015 -5.580178141e-18)
(133.5763219 -23.64999965 -1.131211836e-18)
(133.0401487 -23.9082308 1.025220404e-18)
(134.7396825 -23.14120736 5.962800317e-18)
(134.1323377 -23.4104968 -1.121172875e-18)
(135.8564337 -23.06320318 9.804812626e-19)
(133.9229998 -24.19996339 -1.590571603e-18)
(132.4077931 -24.45886708 3.455697226e-19)
(132.5385247 -24.70377144 -1.130337839e-18)
(132.5998328 -24.15185416 0)
(132.0590379 -24.35660497 -3.299157625e-18)
(134.2109932 -24.04169355 0)
(114.4697774 -29.76112741 0)
(118.3636089 -30.26828497 -2.313214763e-18)
(118.4600906 -30.11612286 1.24039392e-18)
(118.6106592 -30.56877298 -9.441190787e-19)
(118.4205178 -30.46894396 2.167102061e-18)
(114.0241743 -29.9339357 1.326044188e-17)
(116.6992784 -29.46908711 -2.410144591e-18)
(117.1728676 -29.33013822 2.783685902e-18)
(118.3658582 -29.9161244 -6.556017698e-19)
(117.6229439 -29.65018653 -7.002317673e-18)
(114.2045563 -29.27071268 -9.124823317e-20)
(101.7353528 -30.85783936 -2.110828753e-18)
(99.74171818 3.240358795 3.993867834e-21)
(99.94016888 1.890886612 1.923286972e-21)
(99.79810023 3.312092137 -3.058352343e-21)
(100.0187427 3.398794006 4.27914808e-20)
(100.0397054 1.98283772 -9.027751069e-23)
(100.0815099 3.38313839 -9.540854897e-23)
(100.282183 3.207122382 0)
(100.1296392 1.88651282 0)
(100.3238811 3.112470763 -7.661698129e-20)
(100.440273 2.753220921 2.246265307e-22)
(100.184796 1.640683379 0)
(100.4540017 2.617721701 1.981094255e-21)
(100.4844106 2.192896049 5.108477391e-21)
(100.196907 1.321113619 -4.182724496e-21)
(100.4730585 2.049562233 -2.393238073e-21)
(100.4379456 1.64028853 0)
(100.1765709 1.005712736 -1.080922394e-20)
(99.33955503 5.315186797 -2.829947687e-19)
(99.65858916 3.721491413 2.304179134e-19)
(99.52315473 5.448049021 0)
(100.1213435 5.583296788 0)
(100.0293632 3.905025174 2.19737166e-22)
(100.3116104 5.534773463 0)
(100.7917203 5.154236467 0)
(100.3727856 3.670998604 0)
(100.9089698 4.967013533 1.157331221e-20)
(101.1360123 4.297995704 -2.525550666e-19)
(100.5738678 3.13369159 2.745376841e-22)
(101.1711893 4.055673268 3.200888798e-19)
(101.1890817 3.320250201 -1.061714022e-20)
(100.6274468 2.481357036 -1.918968495e-20)
(101.1697598 3.082291303 9.177930516e-20)
(101.0649913 2.41934092 -2.930074314e-19)
(100.5673557 1.8465284 -1.172313756e-20)
(98.71166482 8.029614021 -8.397266892e-20)
(99.20972007 5.917777128 0)
(99.12730478 8.285607604 -1.672927775e-19)
(100.5169966 8.417475686 0)
(100.1827713 6.213482938 6.291515801e-21)
(100.9371346 8.266392967 0)
(101.8917102 7.408391521 2.938845768e-20)
(100.995838 5.685067018 5.822824964e-21)
(102.0957556 7.039491005 0)
(102.4095475 5.847417178 6.638246979e-19)
(101.3899028 4.690116863 6.3855111e-19)
(102.4331992 5.440187225 -7.383638394e-19)
(102.3384737 4.301808284 -4.589493126e-19)
(101.4283948 3.586839743 -1.840486605e-19)
(102.2654637 3.954310676 -4.894200058e-19)
(101.9813255 3.011968366 0)
(101.2675226 2.590026546 0)
(97.33314272 12.06966928 -1.185308349e-19)
(98.47818762 8.87020579 8.409896438e-20)
(98.35199455 12.60094919 1.393420577e-19)
(101.607279 12.56061953 0)
(100.6982307 9.291783522 -8.111982927e-20)
(102.496412 12.0691679 -4.838879074e-19)
(104.1460305 9.987055708 0)
(102.3148769 8.029089739 7.461291014e-20)
(104.4037354 9.228932534 -9.025948287e-19)
(104.5779261 7.142253725 0)
(102.8540454 6.203217991 9.361829944e-20)
(104.4891439 6.526926887 5.561479882e-19)
(104.0163659 4.930052952 2.886073875e-19)
(102.7088521 4.504281705 0)
(103.8197032 4.473438886 -2.899293586e-19)
(103.1968404 3.295485134 1.408644088e-19)
(102.2584908 3.118495037 -2.984131307e-20)
(93.14778185 20.55198482 -3.216346948e-20)
(96.68993343 13.44476804 -1.679253825e-20)
(94.62373216 21.66378693 0)
(105.092437 19.58762255 1.094035039e-19)
(102.1105911 13.95306076 0)
(106.7918044 17.77195794 4.50528264e-19)
(108.6531008 12.4154749 0)
(105.0055322 10.64536664 4.257567955e-19)
(108.6153583 10.98534364 3.446189207e-19)
(107.7918071 7.67477569 0)
(105.2792218 7.378434918 0)
(107.40845 6.833699744 0)
(106.180148 4.856185695 -7.148792091e-19)
(104.5172316 4.993591474 2.939011851e-19)
(105.7716903 4.334408737 7.075390649e-19)