/*--------------------------------*- C++ -*----------------------------------*\
| =========                 |                                                 |
| \\      /  F ield         | OpenFOAM: The Open Source CFD Toolbox           |
|  \\    /   O peration     | Version:  v2012                                 |
|   \\  /    A nd           | Website:  www.openfoam.com                      |
|    \\/     M anipulation  |                                                 |
\*---------------------------------------------------------------------------*/
FoamFile
{
    version     2.0;
    format      ascii;
    class       surfaceVectorField;
    location    "2.49";
    object      Uf;
}
// * * * * * * * * * * * * * * * * * * * * * * * * * * * * * * * * * * * * * //

dimensions      [0 1 -1 0 0 0 0];


internalField   nonuniform List<vector> 
6430
(
(101.5203665 -0.4506448313 6.186268325e-20)
(101.780124 -0.2329622333 3.689333796e-21)
(101.4143986 -0.9139713201 -5.635426041e-20)
(101.7144441 -0.7045425379 5.82222548e-20)
(101.2287444 -1.401931986 -1.087760282e-19)
(101.5862976 -1.191688819 -1.1731395e-19)
(100.8496557 -1.898602084 -1.612163148e-21)
(101.3734117 -1.729650241 -2.256438244e-22)
(101.0338718 -1.957812825 3.370263292e-19)
(100.5934568 -1.972367815 -9.246331642e-22)
(100.8474835 -2.081089183 2.351359658e-19)
(100.6081201 -2.165922474 -9.27886551e-22)
(100.0948081 -2.563771141 0)
(100.3759435 -2.476152846 0)
(100.4160524 -2.707896198 0)
(100.1189607 -2.813497922 0)
(99.49539527 -3.28642659 1.173456617e-19)
(99.83516044 -3.182711559 1.278274697e-19)
(99.88476853 -3.470037489 -2.613057702e-19)
(99.42119177 -3.552048469 8.579550765e-19)
(99.56492791 -3.613773226 -4.114909787e-19)
(98.73751297 -3.99818489 -1.475953942e-19)
(98.9661679 -3.950327949 4.118456411e-19)
(98.96757748 -4.100963806 -1.468386682e-19)
(98.72336546 -4.160192516 6.223904347e-19)
(97.58477732 -4.887518885 -9.671492782e-19)
(97.88243881 -4.83320021 -6.569797929e-21)
(97.87472347 -5.010376399 -9.045432595e-21)
(97.56508216 -5.081585147 -3.819465689e-21)
(96.11217651 -6.025020042 -3.525741402e-19)
(96.49144288 -5.942580154 6.310193267e-20)
(96.4800105 -6.172078161 -6.198309406e-19)
(96.08687362 -6.279421197 -1.791516238e-19)
(94.20603004 -7.650133743 -9.254333175e-19)
(94.6913508 -7.501536944 2.701310324e-20)
(94.67256857 -7.844512688 3.330134356e-19)
(94.0795795 -7.954321591 3.543200471e-20)
(94.24685164 -8.002307447 1.547876399e-18)
(92.26174752 -9.551032213 5.238274601e-19)
(92.41160782 -9.526920136 3.477730396e-19)
(92.39452904 -9.630702753 3.67012952e-21)
(92.26362008 -9.663289014 -5.304898117e-19)
(101.9694878 -0.4859800728 0)
(102.2366532 -0.2470335392 0)
(101.8817677 -0.9857961527 0)
(102.1839452 -0.7482008872 0)
(101.7280803 -1.514046208 0)
(102.0825351 -1.264140671 0)
(101.3992566 -2.062909937 0)
(101.9123467 -1.827310629 0)
(101.5977879 -2.112586466 0)
(101.1445532 -2.172663582 2.353276692e-19)
(101.4287374 -2.241868802 0)
(101.1925374 -2.365443587 0)
(100.7360043 -2.827233828 0)
(101.0032263 -2.703057513 0)
(101.078318 -2.91650099 0)
(100.7997158 -3.06743418 0)
(100.2628638 -3.618132207 -3.718411011e-19)
(100.5789922 -3.463890766 7.47600484e-21)
(100.6711888 -3.717198476 2.122068726e-20)
(100.2465945 -3.869760244 3.247694607e-19)
(100.3966784 -3.902589907 -3.989514049e-19)
(99.66261183 -4.362216718 -5.087062735e-19)
(99.87575928 -4.288480107 -1.019705964e-18)
(99.90605231 -4.423685297 -4.933179811e-19)
(99.68069688 -4.509769861 -5.076120032e-19)
(98.74121936 -5.306606165 1.61716218e-19)
(99.01189653 -5.217396272 -1.180064467e-18)
(99.04153219 -5.370853729 2.095965431e-19)
(98.76251009 -5.476879166 -4.155901063e-19)
(97.58573692 -6.510855206 1.424941076e-19)
(97.92851539 -6.37666239 -3.533885513e-19)
(97.96826699 -6.572451822 -3.286891819e-20)
(97.61768427 -6.732453676 1.320053126e-19)
(96.12736461 -8.280467067 -1.326362829e-19)
(96.57047022 -8.051410082 -6.861581371e-21)
(96.64913804 -8.329682261 0)
(96.10289865 -8.575415297 0)
(96.29992145 -8.600610983 0)
(94.81105469 -10.66277738 -6.787885191e-19)
(95.04545956 -10.58188638 5.269033735e-19)
(95.15905982 -10.80342389 -6.911687066e-19)
(94.72994471 -10.80452139 -1.192477181e-19)
(94.7592047 -10.97277142 4.675634615e-19)
(94.8981313 -11.00111328 -1.192165908e-19)
(102.4461583 -0.5081727943 0)
(102.7140301 -0.2545527072 0)
(102.3783484 -1.029810972 0)
(102.6739448 -0.7715068022 0)
(102.2585411 -1.578701052 0)
(102.5981619 -1.302270229 0)
(101.9825618 -2.153716301 0)
(102.4675636 -1.871324712 0)
(102.1856233 -2.185754235 0)
(101.7333082 -2.292539461 0)
(102.0348536 -2.325113971 0)
(101.8134179 -2.474732111 0)
(101.4246726 -2.977825352 0)
(101.671375 -2.822400843 0)
(101.7722296 -3.01354047 0)
(101.521942 -3.192358734 0)
(101.0768254 -3.776279394 1.357009527e-20)
(101.3618176 -3.589353831 -2.896140591e-22)
(101.4777123 -3.80157649 -2.884625225e-22)
(101.1054808 -4.000174033 7.634241629e-20)
(101.2527831 -4.021697307 -6.389957963e-20)
(100.6328154 -4.536321388 -5.911058727e-19)
(100.8232915 -4.438309398 2.433403798e-19)
(100.8712796 -4.553031387 3.424132137e-19)
(100.6745568 -4.660487853 2.22440721e-19)
(99.92759144 -5.473858078 -4.832675198e-19)
(100.1651797 -5.361051728 -7.031768211e-19)
(100.2154338 -5.481618071 -9.407712638e-22)
(99.97781259 -5.613556392 2.369738611e-19)
(99.08351239 -6.620759161 -8.543309698e-20)
(99.37030925 -6.456821475 5.780856781e-20)
(99.43612947 -6.598930853 -4.176628957e-21)
(99.15573635 -6.78130277 4.309373306e-21)
(98.1697596 -8.212043505 -2.303841886e-21)
(98.51108716 -7.939890455 -2.016756717e-19)
(98.63438601 -8.104994013 -2.039264989e-19)
(98.33030411 -8.406689849 -2.057085531e-19)
(97.93267114 -10.53601807 1.504082821e-19)
(98.03948032 -10.05600989 4.053194749e-19)
(97.83170869 -10.30701438 -2.105503919e-19)
(92.65900924 -9.695627817 4.598544659e-19)
(97.76282104 -10.76800393 1.054818401e-18)
(102.9370776 -0.5172728042 0)
(103.1999838 -0.2561054607 0)
(102.8880075 -1.046603863 0)
(103.1711996 -0.7760085271 0)
(102.8000846 -1.599854183 0)
(103.1179148 -1.308633985 0)
(102.5739084 -2.185655805 0)
(103.0224366 -1.868928908 0)
(102.7742103 -2.195319544 0)
(102.3375214 -2.341464665 0)
(102.6404628 -2.34300733 0)
(102.4393916 -2.508157736 0)
(102.1162306 -3.026005055 0)
(102.3385053 -2.851368916 0)
(102.4548668 -3.017501284 0)
(102.2342485 -3.211831049 0)
(101.869951 -3.795719643 0)
(102.1222013 -3.594146711 0)
(102.2503298 -3.761955477 0)
(101.9284939 -4.007144819 3.039327453e-20)
(102.0624089 -3.990961822 2.775546491e-20)
(101.5619598 -4.544239087 -1.657978805e-19)
(101.7235155 -4.431184225 -1.431483151e-19)
(101.780372 -4.52352039 -1.186838169e-20)
(101.614304 -4.645204997 -1.698055611e-19)
(101.0269929 -5.436317845 -7.615179221e-19)
(101.2259067 -5.307328957 -1.919299648e-19)
(101.2802098 -5.398923395 -1.097665251e-18)
(101.0835494 -5.537646796 -3.782739996e-19)
(100.4090104 -6.445017733 2.985094457e-19)
(100.636264 -6.278320576 1.494662261e-19)
(100.7017354 -6.369742177 -4.720650793e-20)
(100.4860787 -6.547338856 -1.231839637e-19)
(99.82918202 -7.66709911 -1.48121753e-19)
(100.0649487 -7.427246468 1.551032719e-20)
(100.161374 -7.495066537 -5.349963111e-19)
(99.96644546 -7.745079877 -1.744731423e-19)
(97.04321641 -8.789257627 1.290570713e-19)
(98.24286256 -8.592979505 -1.489339416e-19)
(96.30516547 -8.213786023 -1.042854995e-19)
(93.16882914 -7.973726258 -2.675235857e-22)
(103.4300592 -0.5148254478 0)
(103.6836103 -0.2526236027 0)
(103.3968204 -1.039848123 0)
(103.6643784 -0.764671897 0)
(103.3357955 -1.584587885 0)
(103.6296427 -1.288179518 0)
(103.1536626 -2.167090041 0)
(103.5631636 -1.828088848 0)
(103.3455213 -2.153305046 0)
(102.9349493 -2.330369673 0)
(103.2276091 -2.305908666 0)
(103.0488106 -2.478646444 0)
(102.784192 -2.990215211 0)
(102.9808065 -2.806339941 0)
(103.1032706 -2.946572036 0)
(102.9114749 -3.145983986 0)
(102.6160958 -3.704778031 0)
(102.8355483 -3.500951392 0)
(102.9643925 -3.628320004 0)
(102.6851358 -3.89271584 0)
(102.8050164 -3.850763214 0)
(102.3949392 -4.409687131 -2.017532562e-21)
(102.5297831 -4.284972402 0)
(102.5860001 -4.355159175 0)
(102.4476529 -4.486130437 0)
(101.9748111 -5.227239416 -9.156998919e-19)
(102.1388117 -5.091044553 -3.054551141e-19)
(102.1825679 -5.151108385 -5.96552772e-19)
(102.0206529 -5.294138235 -4.382607368e-19)
(101.4615392 -6.072777008 -6.247569251e-19)
(101.6394477 -5.912092367 5.796559301e-19)
(101.6758323 -5.956665867 1.499171179e-20)
(101.5071297 -6.121404826 -3.253248289e-21)
(101.0461944 -6.976742114 -4.7106341e-19)
(101.1999849 -6.776528849 -4.96582119e-19)
(101.3065462 -6.807718316 -4.718049993e-19)
(101.1694515 -7.020136273 -5.30239699e-19)
(93.84362641 -6.782959302 3.376425453e-19)
(95.7255029 -6.882745502 0)
(93.44544395 -6.505452204 -2.804109278e-19)
(93.31960551 -6.875901739 7.30052049e-20)
(103.9148175 -0.5029494557 0)
(104.1560805 -0.2451283658 0)
(103.8940619 -1.01398594 0)
(104.1444193 -0.7408050213 0)
(103.8540373 -1.539943886 0)
(104.123727 -1.246585213 0)
(103.7077805 -2.105452348 0)
(104.0792487 -1.757827433 0)
(103.8876466 -2.07319134 0)
(103.508262 -2.26991171 0)
(103.7840033 -2.225546839 0)
(103.626175 -2.398997833 0)
(103.4093831 -2.889204613 0)
(103.5818655 -2.704392665 0)
(103.7027332 -2.820626752 0)
(103.536142 -3.016649919 0)
(103.2936423 -3.536362723 0)
(103.4831643 -3.337885847 0)
(103.6033034 -3.432518799 0)
(103.3604619 -3.695538503 0)
(103.4651688 -3.63955062 0)
(103.1161181 -4.159308296 0)
(103.2309846 -4.037640837 0)
(103.2791332 -4.087029514 0)
(103.1615046 -4.211197951 0)
(102.7394376 -4.877209822 0)
(102.8798763 -4.739411001 0)
(102.9056199 -4.774006469 0)
(102.7638149 -4.914684856 -3.099701636e-20)
(102.2232313 -5.57565792 -2.094341962e-19)
(102.3721567 -5.425681196 5.548477833e-20)
(102.3808594 -5.440867142 -2.001306792e-19)
(102.2429899 -5.592725831 3.650746534e-19)
(101.7678752 -6.277168769 0)
(101.9100435 -6.098576554 0)
(101.7494596 -6.082475095 2.95801601e-19)
(101.2010295 -6.205211374 2.83278336e-19)
(94.51423861 -6.195322915 -2.116731631e-19)
(94.88636976 -5.980543851 -8.792489039e-22)
(95.35877714 -6.141064307 1.756787724e-19)
(96.46716515 -6.519277218 -8.014662448e-20)
(104.3834111 -0.4838168459 0)
(104.6105775 -0.2346283983 0)
(104.371811 -0.9735326938 0)
(104.6044328 -0.707657427 0)
(104.3468855 -1.473361825 0)
(104.593266 -1.189475862 0)
(104.2274122 -2.011586115 0)
(104.5638456 -1.667242147 0)
(104.3934528 -1.966854633 0)
(104.0462985 -2.172712164 0)
(104.3019039 -2.114837649 0)
(104.1622817 -2.283695597 0)
(103.9815466 -2.743182037 0)
(104.1329179 -2.563609824 0)
(104.2467633 -2.658969153 0)
(104.1005543 -2.8459204 0)
(103.8937843 -3.320302902 0)
(104.0588231 -3.131912568 0)
(104.1652323 -3.202771568 0)
(103.9495735 -3.450954974 0)
(104.0394593 -3.390813373 0)
(103.7282573 -3.857912231 0)
(103.8287681 -3.745551364 0)
(103.865727 -3.778978001 0)
(103.7616704 -3.891877083 0)
(103.3540012 -4.452034073 0)
(103.479846 -4.326573056 0)
(103.4877666 -4.344691674 0)
(103.359263 -4.468952741 0)
(102.8052124 -5.024075521 0)
(102.9420935 -4.885660627 0)
(102.9331197 -4.885072136 0)
(102.809689 -5.021796462 1.901948094e-20)
(101.338251 -5.468018614 -1.17792032e-19)
(101.7982338 -5.339041661 -1.467217457e-20)
(101.2186168 -5.2709484 -8.539654194e-21)
(100.0331022 -5.316026242 7.660311591e-20)
(97.68215325 -5.794025138 8.98758343e-20)
(96.81709876 -5.488778954 9.375334244e-21)
(98.18607878 -5.621620669 1.177683064e-20)
(99.02298706 -5.814112506 1.499767257e-19)
(104.8300846 -0.4595369177 0)
(105.0422659 -0.2220844895 0)
(104.824467 -0.922937744 0)
(105.0397273 -0.6683011976 0)
(104.8091117 -1.392094469 0)
(105.0339913 -1.122094072 0)
(104.7078968 -1.896516411 0)
(105.0133733 -1.564382154 0)
(104.8595492 -1.844726457 0)
(104.5434207 -2.051304405 0)
(104.7777748 -1.985487768 0)
(104.6531858 -2.146002423 0)
(104.4972936 -2.569950173 0)
(104.6313273 -2.399699616 0)
(104.7345539 -2.477821306 0)
(104.6038707 -2.652251855 0)
(104.4181043 -3.08216021 0)
(104.564264 -2.904336394 0)
(104.653425 -2.960128697 0)
(104.4584932 -3.181722457 0)
(104.5356625 -3.127974251 0)
(104.2436915 -3.539760106 0)
(104.3347866 -3.438016564 0)
(104.3594022 -3.460201119 0)
(104.2639064 -3.56118157 0)
(103.8483237 -4.028981758 0)
(103.9646178 -3.919271119 0)
(103.9563613 -3.926601267 0)
(103.8363016 -4.034266183 0)
(103.2708819 -4.483482587 0)
(103.3968151 -4.365571048 0)
(103.369126 -4.355975054 0)
(103.247462 -4.470141891 0)
(101.0836215 -4.740748319 0)
(101.7721824 -4.661226531 0)
(101.0396023 -4.581841188 0)
(99.72068348 -4.614371606 0)
(98.98412736 -5.083060482 0)
(97.90462322 -4.853251082 0)
(99.16405947 -4.917378903 0)
(99.75109288 -5.04477056 0)
(105.2510804 -0.4320484009 0)
(105.4481553 -0.2083499705 0)
(105.2486165 -0.8662034622 0)
(105.4475735 -0.6254539501 0)
(105.2379766 -1.302456998 0)
(105.4438312 -1.049030698 0)
(105.1478101 -1.76953924 0)
(105.4266484 -1.455728884 0)
(105.2854669 -1.715191708 0)
(104.9977921 -1.916330329 0)
(105.2113838 -1.846974576 0)
(105.0985679 -1.996895868 0)
(104.9579054 -2.384041793 0)
(105.0783585 -2.225310917 0)
(105.1689962 -2.289783762 0)
(105.0495003 -2.449980965 0)
(104.8722794 -2.838032018 0)
(105.005104 -2.671380797 0)
(105.0757816 -2.716938543 0)
(104.8963385 -2.910831289 0)
(104.9625228 -2.865164152 0)
(104.677628 -3.225158033 0)
(104.7629176 -3.134125186 0)
(104.7752529 -3.148577189 0)
(104.6847895 -3.238039244 0)
(104.2491478 -3.6305556 0)
(104.359861 -3.535049872 0)
(104.3374436 -3.535908234 0)
(104.2223278 -3.629031712 0)
(103.6280994 -3.9949089 0)
(103.750722 -3.895445032 0)
(103.7040943 -3.881587184 0)
(103.5742721 -3.976333882 0)
(100.8966559 -4.148714987 0)
(101.6971911 -4.0941757 0)
(100.8462967 -4.016063739 0)
(99.5205213 -4.040572256 0)
(99.59369846 -4.459259488 0)
(98.60038584 -4.28760753 0)
(99.70743869 -4.31838033 0)
(100.1035145 -4.408672453 0)
(105.6443508 -0.4029973278 0)
(105.8267306 -0.1941285041 0)
(105.6427197 -0.8066551544 0)
(105.8267485 -0.5813391494 0)
(105.6328289 -1.209556308 0)
(105.8223161 -0.974046896 0)
(105.5479942 -1.638790443 0)
(105.8043655 -1.346260124 0)
(105.6723686 -1.584490001 0)
(105.4104462 -1.776083785 0)
(105.6040554 -1.706486111 0)
(105.5004209 -1.844900721 0)
(105.3673693 -2.196072478 0)
(105.4775499 -2.049773756 0)
(105.5547105 -2.103668839 0)
(105.442997 -2.249189569 0)
(105.264934 -2.597679409 0)
(105.3891493 -2.443580891 0)
(105.4409167 -2.480874173 0)
(105.2730792 -2.650611682 0)
(105.3300771 -2.611245819 0)
(105.0443183 -2.925895944 0)
(105.1263248 -2.845043867 0)
(105.1270972 -2.85433316 0)
(105.0393104 -2.933175983 0)
(104.5784149 -3.265014303 0)
(104.6860532 -3.181924691 0)
(104.6515962 -3.179166361 0)
(104.5391367 -3.259836849 0)
(103.90613 -3.562065776 0)
(104.0306605 -3.477705374 0)
(103.9658101 -3.462134322 0)
(103.8225336 -3.541243549 0)
(100.6926637 -3.648697644 0)
(101.5838406 -3.609540379 0)
(100.641724 -3.535623639 0)
(99.35294175 -3.555306412 0)
(99.98007612 -3.927261725 0)
(99.12187828 -3.797783067 0)
(100.0519034 -3.806688092 0)
(100.315722 -3.874253697 0)
(106.0092585 -0.3736823471 0)
(106.1777673 -0.1799642034 0)
(106.0066818 -0.7468812177 0)
(106.177312 -0.5376433364 0)
(105.9945325 -1.117199497 0)
(106.1701926 -0.8999860398 0)
(105.9105576 -1.509568663 0)
(106.1483395 -1.239634942 0)
(106.0227206 -1.45715821 0)
(105.7835437 -1.636680681 0)
(105.9585743 -1.569163149 0)
(105.8618711 -1.695900665 0)
(105.7307476 -2.013197592 0)
(105.8334344 -1.87943283 0)
(105.8970478 -1.925102834 0)
(105.7905161 -2.056451512 0)
(105.6051397 -2.367219706 0)
(105.7245473 -2.227497759 0)
(105.7584498 -2.257376645 0)
(105.5979109 -2.409135748 0)
(105.646942 -2.372282146 0)
(105.3558631 -2.648308131 0)
(105.4361679 -2.576810633 0)
(105.4264916 -2.582625346 0)
(105.3399361 -2.652006585 0)
(104.8528122 -2.934959816 0)
(104.9589049 -2.862554972 0)
(104.9143809 -2.857988614 0)
(104.8031365 -2.928103815 0)
(104.1253222 -3.180844537 0)
(104.255202 -3.108975109 0)
(104.1726506 -3.093008117 0)
(104.0128192 -3.15936306 0)
(100.493548 -3.221735367 0)
(101.454309 -3.193393517 0)
(100.4464147 -3.125017867 0)
(99.22521242 -3.143212165 0)
(100.2231784 -3.471565896 0)
(99.51026769 -3.373619514 0)
(100.2680119 -3.368181671 0)
(100.442225 -3.421351313 0)
(106.346245 -0.3450696754 0)
(106.5019254 -0.1662639431 0)
(106.3414188 -0.6887839451 0)
(106.5001792 -0.495595038 0)
(106.3248585 -1.028113446 0)
(106.4889584 -0.8288898559 0)
(106.2384338 -1.38557445 0)
(106.4609841 -1.138418005 0)
(106.3395346 -1.336279245 0)
(106.1201823 -1.502379174 0)
(106.2782373 -1.438504789 0)
(106.1866843 -1.553834856 0)
(106.0533787 -1.839784299 0)
(106.1508002 -1.718278363 0)
(106.2011926 -1.757526615 0)
(106.0978704 -1.875619247 0)
(105.9017404 -2.151785972 0)
(106.0186512 -2.026396149 0)
(106.0358123 -2.050720017 0)
(105.8795169 -2.186013165 0)
(105.9220723 -2.15223275 0)
(105.6224954 -2.394806496 0)
(105.7022086 -2.331656042 0)
(105.6833049 -2.335299075 0)
(105.5970462 -2.396382963 0)
(105.0849031 -2.639980646 0)
(105.1903682 -2.576724698 0)
(105.1374721 -2.571520186 0)
(105.0264699 -2.632679126 0)
(104.2996021 -2.846102063 0)
(104.4371417 -2.784700337 0)
(104.3374078 -2.769096377 0)
(104.1593038 -2.824940643 0)
(100.3138698 -2.85637674 0)
(101.3238154 -2.835568542 0)
(100.2730003 -2.77355046 0)
(99.13981801 -2.792066123 0)
(100.3742686 -3.080718615 0)
(99.79618129 -3.006018594 0)
(100.4018801 -2.991995079 0)
(100.5146334 -3.035408289 0)
(106.6564942 -0.3178491574 0)
(106.8005299 -0.1533187287 0)
(106.6484973 -0.6337043956 0)
(106.7968943 -0.4560500515 0)
(106.6260582 -0.9441712755 0)
(106.7806276 -0.7621509431 0)
(106.5348097 -1.269244827 0)
(106.7450518 -1.04428594 0)
(106.6260176 -1.223851471 0)
(106.4237537 -1.376004039 0)
(106.5665158 -1.316760288 0)
(106.478667 -1.421224921 0)
(106.3402896 -1.678576456 0)
(106.4342 -1.568760223 0)
(106.4719941 -1.603072452 0)
(106.370304 -1.708953386 0)
(106.1614265 -1.954335109 0)
(106.2774026 -1.842332241 0)
(106.2792562 -1.862708115 0)
(106.1252221 -1.983023689 0)
(106.1624233 -1.952512781 0)
(105.8527546 -2.166119748 0)
(105.9325771 -2.110362836 0)
(105.9055855 -2.112786727 0)
(105.8190914 -2.166597161 0)
(105.2839854 -2.378323175 0)
(105.3894067 -2.32292578 0)
(105.329444 -2.317837936 0)
(105.2179382 -2.371311856 0)
(104.4391052 -2.553014822 0)
(104.5858119 -2.500457856 0)
(104.4694856 -2.485714689 0)
(104.2722847 -2.532794749 0)
(100.1613225 -2.543591152 0)
(101.201884 -2.527880967 0)
(100.1278357 -2.472700252 0)
(99.09449958 -2.492236884 0)
(100.466669 -2.745335672 0)
(100.0041324 -2.687684837 0)
(100.4832594 -2.669191132 0)
(100.5524131 -2.705343644 0)
(106.9416802 -0.2924917354 0)
(107.0752963 -0.1413277957 0)
(106.9298944 -0.5825409639 0)
(107.0693514 -0.4195789479 0)
(106.9006342 -0.8665820165 0)
(107.0474554 -0.7006769649 0)
(106.802938 -1.162064642 0)
(107.0033603 -0.9582614831 0)
(106.8853686 -1.121043517 0)
(106.6977192 -1.259290071 0)
(106.826857 -1.205232539 0)
(106.7415416 -1.299540599 0)
(106.5961293 -1.531127222 0)
(106.6878929 -1.432215347 0)
(106.7138653 -1.462798694 0)
(106.6126462 -1.557539737 0)
(106.3899655 -1.775847252 0)
(106.5061394 -1.676048628 0)
(106.4940998 -1.693748153 0)
(106.3410191 -1.800513061 0)
(106.3737756 -1.77330356 0)
(106.0534994 -1.961843039 0)
(106.1338416 -1.912605083 0)
(106.0998287 -1.914483478 0)
(106.0128205 -1.96193044 0)
(105.4568622 -2.14759955 0)
(105.5626755 -2.098984665 0)
(105.4965943 -2.094456654 0)
(105.3839875 -2.141285305 0)
(104.5514429 -2.297107164 0)
(104.7082684 -2.252048989 0)
(104.5759899 -2.238457476 0)
(104.3594925 -2.27818292 0)
(100.0386982 -2.275800059 0)
(101.0937727 -2.26350003 0)
(100.0127094 -2.215089204 0)
(99.08436911 -2.235830588 0)
(100.521269 -2.457500698 0)
(100.1533154 -2.412479059 0)
(100.5306232 -2.392182942 0)
(100.5674922 -2.422437966 0)
(107.2038052 -0.2692963466 0)
(107.328273 -0.1304142687 0)
(107.1878462 -0.535849082 0)
(107.3197371 -0.3865211289 0)
(107.1512141 -0.7960557259 0)
(107.2918933 -0.6449931207 0)
(107.0459681 -1.064842625 0)
(107.2387651 -0.880872255 0)
(107.1206924 -1.028450573 0)
(106.9453939 -1.153204572 0)
(107.0625173 -1.104600325 0)
(106.9787779 -1.189528536 0)
(106.8250312 -1.398120784 0)
(106.9157109 -1.309234634 0)
(106.9307103 -1.337076556 0)
(106.8291027 -1.421724996 0)
(106.592224 -1.616346854 0)
(106.7093902 -1.527555207 0)
(106.6848199 -1.543570603 0)
(106.5318231 -1.638119903 0)
(106.5608819 -1.614142692 0)
(106.2301713 -1.780973099 0)
(106.3112485 -1.737468961 0)
(106.2711891 -1.739262863 0)
(106.1835304 -1.781139344 0)
(105.6085015 -1.945216668 0)
(105.7150623 -1.902489449 0)
(105.643548 -1.898754738 0)
(105.5293733 -1.939801578 0)
(104.6424498 -2.07428672 0)
(104.8099165 -2.035603361 0)
(104.6624346 -2.023321994 0)
(104.4269747 -2.056880174 0)
(99.9454453 -2.046415443 0)
(101.0016488 -2.03656383 0)
(99.92645517 -1.994415947 0)
(99.10357183 -2.016345622 0)
(100.5507646 -2.210606763 0)
(100.2584226 -2.175065962 0)
(100.5552251 -2.154617635 0)
(100.5672132 -2.179814786 0)
(107.4450834 -0.2484320005 0)
(107.5616498 -0.1206475617 0)
(107.4247377 -0.493928901 0)
(107.550344 -0.3570547133 0)
(107.3804617 -0.7329393951 0)
(107.5164195 -0.5953623583 0)
(107.2669443 -0.9779122591 0)
(107.4540297 -0.8123262634 0)
(107.3349588 -0.9462694004 0)
(107.1699673 -1.0581623 0)
(107.2766006 -1.015082649 0)
(107.1936434 -1.091430735 0)
(107.0307216 -1.279660541 0)
(107.1211562 -1.199901724 0)
(107.1260486 -1.22582422 0)
(107.0234055 -1.301372729 0)
(106.7723576 -1.475334955 0)
(106.8910695 -1.396425691 0)
(106.85525 -1.411546868 0)
(106.7017468 -1.495098543 0)
(106.727729 -1.474239812 0)
(106.3870997 -1.622212652 0)
(106.4690093 -1.583772417 0)
(106.4237501 -1.585822784 0)
(106.3353698 -1.62278385 0)
(105.7426412 -1.768714914 0)
(105.850238 -1.731168019 0)
(105.7738036 -1.728394887 0)
(105.6577041 -1.764337189 0)
(104.7167412 -1.881027967 0)
(104.8949957 -1.847846475 0)
(104.7331331 -1.837007772 0)
(104.4794507 -1.865293922 0)
(99.87933565 -1.850081166 0)
(100.9258519 -1.842083142 0)
(99.86686607 -1.80570343 0)
(99.14658654 -1.82881025 0)
(100.5632205 -1.999227247 0)
(100.3308808 -1.970941065 0)
(100.5643637 -1.951429506 0)
(100.556489 -1.972157846 0)
(107.667795 -0.2299781902 0)
(107.777691 -0.1120582342 0)
(107.6429695 -0.4569076672 0)
(107.7635097 -0.3312433272 0)
(107.5909693 -0.6773442837 0)
(107.7234974 -0.5518645196 0)
(107.4687236 -0.9013098945 0)
(107.6518061 -0.7526124866 0)
(107.5309611 -0.8744488102 0)
(107.3744146 -0.9742361393 0)
(107.4719956 -0.9366351745 0)
(107.3891472 -1.005191548 0)
(107.2165185 -1.175536241 0)
(107.3073867 -1.104022611 0)
(107.3030328 -1.128734088 0)
(107.1988417 -1.196112884 0)
(106.9339024 -1.35210053 0)
(107.0545436 -1.282061124 0)
(107.0086464 -1.296859054 0)
(106.8542648 -1.370582109 0)
(106.8777325 -1.352678385 0)
(106.5277742 -1.484331392 0)
(106.6105704 -1.45038769 0)
(106.5608355 -1.452988048 0)
(106.4716659 -1.485578807 0)
(105.8622506 -1.616200494 0)
(105.9711271 -1.583276694 0)
(105.8901917 -1.581633889 0)
(105.7718838 -1.613017213 0)
(104.7777256 -1.714708899 0)
(104.966694 -1.686395222 0)
(104.7911535 -1.677050811 0)
(104.5201163 -1.700687832 0)
(99.8389685 -1.683298609 0)
(100.8670683 -1.67658318 0)
(99.8328537 -1.645898328 0)
(99.20907686 -1.670074449 0)
(100.5642206 -1.81932214 0)
(100.379726 -1.796685056 0)
(100.5631848 -1.778876523 0)
(100.5388879 -1.795582563 0)
(107.8743153 -0.2139501691 0)
(107.9786872 -0.104653358 0)
(107.8449907 -0.4247920065 0)
(107.961575 -0.3090787531 0)
(107.7853106 -0.6292138211 0)
(107.9155422 -0.51445508 0)
(107.6540197 -0.8349198805 0)
(107.8346638 -0.7016098392 0)
(107.7113397 -0.812791707 0)
(107.561527 -0.9012879392 0)
(107.6513911 -0.8690342883 0)
(107.5680844 -0.9305753175 0)
(107.3854326 -1.085371264 0)
(107.4773003 -1.021237161 0)
(107.464562 -1.045360104 0)
(107.3583947 -1.105456889 0)
(107.0798005 -1.245648605 0)
(107.2027552 -1.183881793 0)
(107.1478132 -1.198329873 0)
(106.9924626 -1.26433189 0)
(107.0138868 -1.248223277 0)
(106.6551719 -1.366252301 0)
(106.738915 -1.336317817 0)
(106.6852971 -1.339689529 0)
(106.5952619 -1.368383693 0)
(105.969847 -1.486107369 0)
(106.0802245 -1.457308955 0)
(105.9951164 -1.456889667 0)
(105.8743523 -1.484205689 0)
(104.8273987 -1.572898881 0)
(105.0270075 -1.548949957 0)
(104.8382041 -1.540997611 0)
(104.5507069 -1.560451121 0)
(99.82423043 -1.54340967 0)
(100.8269358 -1.537204804 0)
(99.82457999 -1.512396072 0)
(99.28752803 -1.537576881 0)
(100.5578284 -1.667717582 0)
(100.4120767 -1.64952249 0)
(100.5554286 -1.633898953 0)
(100.5170381 -1.646968186 0)
(108.0667401 -0.2003354261 0)
(108.1668821 -0.09841876902 0)
(108.0329563 -0.3975258303 0)
(108.1468053 -0.2905018656 0)
(107.9657247 -0.5884034293 0)
(108.0948524 -0.4830166557 0)
(107.8252901 -0.7783289068 0)
(108.0049095 -0.6590521845 0)
(107.8785224 -0.7609346793 0)
(107.7338738 -0.8390273839 0)
(107.8173279 -0.8119675798 0)
(107.7330439 -0.867171511 0)
(107.5402509 -1.008630233 0)
(107.6335721 -0.9510522689 0)
(107.613271 -0.9750813144 0)
(107.5048523 -1.028778697 0)
(107.2130098 -1.154847228 0)
(107.3386011 -1.101095888 0)
(107.2757185 -1.115160157 0)
(107.118876 -1.175637077 0)
(107.1385908 -1.160071989 0)
(106.7717053 -1.266794073 0)
(106.8564072 -1.240425411 0)
(106.7994172 -1.244675464 0)
(106.7084547 -1.269929462 0)
(106.067427 -1.376738039 0)
(106.1795153 -1.3516128 0)
(106.0904412 -1.352428322 0)
(105.9669686 -1.376114859 0)
(104.8669773 -1.453331599 0)
(105.0772156 -1.433344065 0)
(104.8753977 -1.42665437 0)
(104.5723056 -1.442308761 0)
(99.83508182 -1.42820943 0)
(100.8071746 -1.421647052 0)
(99.84161917 -1.402942885 0)
(99.37858398 -1.428607175 0)
(100.5468199 -1.541575959 0)
(100.4330476 -1.527005516 0)
(100.5435582 -1.513714498 0)
(100.4927118 -1.523532974 0)
(108.2480672 -0.1890663079 0)
(108.3444908 -0.09335923344 0)
(108.2098249 -0.3749856564 0)
(108.3214482 -0.2754834619 0)
(108.135159 -0.5546645691 0)
(108.2636425 -0.4574225719 0)
(107.9851172 -0.7315069256 0)
(108.165037 -0.6249415179 0)
(108.0348914 -0.718737094 0)
(107.8939511 -0.7871167821 0)
(107.9720064 -0.7650018273 0)
(107.8864235 -0.8146022134 0)
(107.6834579 -0.9446310394 0)
(107.7786124 -0.8928877449 0)
(107.7515067 -0.9171873088 0)
(107.6406415 -0.9653224507 0)
(107.3363288 -1.079298312 0)
(107.4646992 -1.032690405 0)
(107.3951434 -1.047328332 0)
(107.2358283 -1.102594837 0)
(107.2540239 -1.088011935 0)
(106.8793442 -1.184551803 0)
(106.9650342 -1.161326257 0)
(106.9051037 -1.166502375 0)
(106.8131333 -1.188751564 0)
(106.1565257 -1.286316084 0)
(106.2705537 -1.264455792 0)
(106.1776213 -1.266477188 0)
(106.0511578 -1.286915151 0)
(104.8974318 -1.353850019 0)
(105.1183214 -1.337446246 0)
(104.9037824 -1.331931223 0)
(104.5861896 -1.344207378 0)
(99.86969215 -1.334924226 0)
(100.8077472 -1.327529106 0)
(99.88168497 -1.314736073 0)
(99.47890099 -1.34029749 0)
(100.5328463 -1.438338483 0)
(100.4459964 -1.426879213 0)
(100.5290149 -1.415853333 0)
(100.4669891 -1.422800101 0)
(108.4176608 -0.1801980191 0)
(108.5137686 -0.08939396177 0)
(108.3751169 -0.3571707637 0)
(108.4876871 -0.2638565763 0)
(108.2932501 -0.5279676668 0)
(108.424089 -0.4374736901 0)
(108.1348445 -0.6924115179 0)
(108.3160772 -0.5979541144 0)
(108.1824078 -0.6850915051 0)
(108.0435736 -0.7450573787 0)
(108.1183529 -0.727860722 0)
(108.0304486 -0.7720192171 0)
(107.8172604 -0.892707958 0)
(107.9146351 -0.8461298527 0)
(107.8813835 -0.8712205357 0)
(107.7677615 -0.9143857619 0)
(107.4519954 -1.019131206 0)
(107.5828844 -0.9777151659 0)
(107.5072334 -0.9944734174 0)
(107.3455242 -1.041827103 0)
(107.3628289 -1.031211124 0)
(106.9799448 -1.118133458 0)
(107.0667964 -1.097638326 0)
(107.0042288 -1.103919012 0)
(106.9110621 -1.123486758 0)
(106.2383781 -1.213267042 0)
(106.3546198 -1.194347126 0)
(106.2578432 -1.197584424 0)
(106.1280573 -1.215065686 0)
(104.920247 -1.272979539 0)
(105.1516597 -1.259820781 0)
(104.9249687 -1.255555274 0)
(104.5942318 -1.264846514 0)
(99.9247838 -1.261228025 0)
(100.8268792 -1.252965595 0)
(99.94133679 -1.245675009 0)
(99.5856758 -1.270584963 0)
(100.5168944 -1.355929701 0)
(100.453171 -1.3472672 0)
(100.5126762 -1.338393199 0)
(100.4405323 -1.342777419 0)
(108.5882882 -0.1733728637 0)
(108.6766443 -0.0867344095 0)
(108.5410364 -0.3436361904 0)
(108.6476329 -0.2559697361 0)
(108.4512779 -0.5078183201 0)
(108.5783304 -0.4236813399 0)
(108.2799662 -0.6652909337 0)
(108.4620502 -0.580307644 0)
(108.3254295 -0.6611075943 0)
(108.1866102 -0.7127625786 0)
(108.2573734 -0.6997379642 0)
(108.1674886 -0.7406232809 0)
(107.9436399 -0.8527104723 0)
(108.0434664 -0.8107879245 0)
(108.0045998 -0.8370040786 0)
(107.8880665 -0.8756768595 0)
(107.5610705 -0.9732155958 0)
(107.6946583 -0.9359751584 0)
(107.6136785 -0.9552486208 0)
(107.4495145 -0.9956393133 0)
(107.4660159 -0.9883198467 0)
(107.0750622 -1.066810995 0)
(107.1631819 -1.048778796 0)
(107.0981573 -1.056243356 0)
(107.0036507 -1.073361725 0)
(106.3141036 -1.156524113 0)
(106.4328548 -1.140289679 0)
(106.3322097 -1.144789595 0)
(106.1987718 -1.1595618 0)
(104.9372291 -1.209803722 0)
(105.178848 -1.199572654 0)
(104.9407747 -1.196685888 0)
(104.5984016 -1.203346558 0)
(99.99680938 -1.205629242 0)
(100.8621652 -1.196680514 0)
(100.0170808 -1.194432241 0)
(99.69677841 -1.218257882 0)
(100.4995962 -1.292838177 0)
(100.4561123 -1.286764235 0)
(100.4951132 -1.27994446 0)
(100.4137375 -1.281992561 0)
(108.7206154 -0.1697203138 0)
(108.8360794 -0.08470482141 0)
(108.6700329 -0.3355791933 0)
(108.803432 -0.2504342048 0)
(108.5750713 -0.4956818212 0)
(108.7287307 -0.4139813089 0)
(108.4088795 -0.6489259615 0)
(108.603435 -0.5664741187 0)
(108.4527713 -0.6434487993 0)
(108.3226893 -0.6890741049 0)
(108.3877287 -0.6826556579 0)
(108.2973963 -0.7181648967 0)
(108.0642407 -0.8240306794 0)
(108.166462 -0.7860108913 0)
(108.1230627 -0.8138087865 0)
(108.0030218 -0.8486240666 0)
(107.6653104 -0.9405358308 0)
(107.8015313 -0.9067563333 0)
(107.7159461 -0.928794419 0)
(107.5490212 -0.96267474 0)
(107.5649796 -0.9586487289 0)
(107.1658842 -1.029795257 0)
(107.2553957 -1.013974569 0)