/*--------------------------------*- C++ -*----------------------------------*\
| =========                 |                                                 |
| \\      /  F ield         | OpenFOAM: The Open Source CFD Toolbox           |
|  \\    /   O peration     | Version:  v2012                                 |
|   \\  /    A nd           | Website:  www.openfoam.com                      |
|    \\/     M anipulation  |                                                 |
\*---------------------------------------------------------------------------*/
FoamFile
{
    version     2.0;
    format      ascii;
    class       volVectorField;
    location    "2.98";
    object      U;
}
// * * * * * * * * * * * * * * * * * * * * * * * * * * * * * * * * * * * * * //

dimensions      [0 1 -1 0 0 0 0];


internalField   nonuniform List<vector> 
3019
(
(103.3985246 -30.00399993 9.706949622e-19)
(107.4284594 -19.57189218 -4.64524672e-19)
(107.2758365 -13.78226245 3.204352527e-19)
(105.9661984 -9.732056686 2.972197701e-19)
(104.4371298 -6.927652287 -8.82623767e-19)
(103.0133071 -5.015111338 -6.68452792e-20)
(101.5754267 -3.61375581 -6.589393635e-20)
(100.8072003 -2.675440446 0)
(99.94943014 -1.843004072 0)
(99.57279673 -1.248749256 1.170306735e-20)
(99.33675361 -0.7288055908 2.157708161e-21)
(99.21520013 -0.2401330386 -6.991517869e-21)
(96.78818013 -19.48015843 0)
(102.4370318 -16.05570388 -4.758031209e-19)
(103.5767599 -12.49891206 2.008943774e-19)
(103.2912205 -9.448078403 -4.153857861e-19)
(102.5027019 -7.080609237 1.42175128e-20)
(101.5775486 -5.312749793 -1.155267303e-19)
(100.5528057 -3.891284313 -9.133107641e-20)
(100.0004045 -2.921177003 -3.435934285e-20)
(99.32518793 -2.004330387 -1.904648341e-20)
(99.02439835 -1.36277771 1.875604358e-20)
(98.83202184 -0.7978068195 0)
(98.73200995 -0.2628367521 1.873326866e-20)
(98.37027186 -12.73821618 -1.686854495e-19)
(100.4532487 -12.36976829 2.584464153e-20)
(101.2578416 -10.61438664 0)
(101.2588067 -8.591279008 0)
(100.8430411 -6.772489799 9.053688452e-20)
(100.2581525 -5.290398385 -2.430898563e-20)
(99.54852229 -3.957613504 0)
(99.18934878 -3.025177551 0)
(98.67475629 -2.076012796 -3.53708142e-20)
(98.44389018 -1.422563236 1.745362522e-20)
(98.29423983 -0.8354114577 7.310075744e-22)
(98.21538238 -0.275250099 -1.289792585e-20)
(99.3063559 -9.803872674 -9.316672116e-21)
(99.80024072 -9.758582082 -4.102009602e-20)
(99.94230604 -8.856612366 3.204681574e-19)
(99.81667566 -7.562659861 -2.264129332e-19)
(99.51475666 -6.228553344 4.070854305e-20)
(99.11926639 -5.040815228 0)
(98.63012741 -3.86350246 -2.973537795e-20)
(98.41559938 -3.01218848 4.530545448e-20)
(98.0277688 -2.074562948 1.098880039e-20)
(97.85705221 -1.434702759 1.874659538e-20)
(97.74471759 -0.8448110035 -2.12922e-20)
(97.68442713 -0.2783789699 0)
(99.83340317 -7.961762156 7.315179253e-20)
(99.49911547 -7.953110057 -8.418095273e-20)
(99.14181536 -7.416702568 -3.016184579e-20)
(98.80987515 -6.565263973 -8.932917353e-20)
(98.48369189 -5.607910486 0)
(98.17496161 -4.672981608 0)
(97.82666953 -3.671143499 0)
(97.6988782 -2.909483473 0)
(97.40741944 -2.016825797 3.794224607e-20)
(97.28417557 -1.408005249 -3.549173023e-20)
(97.201197 -0.8306789847 -2.399764974e-21)
(97.15565159 -0.2741146067 2.407781187e-21)
(100.0230979 -6.680494252 2.436013327e-20)
(99.2474157 -6.639440842 3.410886629e-21)
(98.58390708 -6.276803149 0)
(98.08406236 -5.690813934 4.537050114e-20)
(97.69779561 -4.989878501 0)
(97.40893467 -4.257516228 0)
(97.1303676 -3.413831723 0)
(97.05028807 -2.744450925 0)
(96.82671646 -1.917078241 0)
(96.73789971 -1.3500892 0)
(96.67697323 -0.7991862195 0)
(96.64237162 -0.2647816408 0)
(100.0541753 -5.697156551 2.569864868e-21)
(99.03460049 -5.634358645 2.362773622e-20)
(98.1863238 -5.370682838 0)
(97.55301723 -4.945325167 0)
(97.09549201 -4.414551714 0)
(96.78955198 -3.833385339 0)
(96.53613147 -3.126198648 0)
(96.47516086 -2.545876841 0)
(96.29315858 -1.792212533 0)
(96.22658014 -1.272038484 0)
(96.1801301 -0.7549802183 0)
(96.15393928 -0.2507404081 0)
(100.0790024 -4.906120273 0)
(98.89004317 -4.842242803 0)
(97.89728654 -4.635977022 0)
(97.15223536 -4.310820655 0)
(96.62446261 -3.897231833 0)
(96.28419826 -3.428470771 0)
(96.03106676 -2.833835407 0)
(95.96977734 -2.333594464 0)
(95.80935147 -1.655036064 0)
(95.75502607 -1.18259533 0)
(95.71674401 -0.7034878335 0)
(95.69576949 -0.2341022755 0)
(100.0820207 -4.263726846 -4.425254163e-35)
(98.76981374 -4.198805718 0)
(97.67113738 -4.029691888 0)
(96.83890374 -3.771297911 0)
(96.24818121 -3.440390565 0)
(95.86806777 -3.056985546 0)
(95.60035156 -2.55322877 0)
(95.52712872 -2.121473421 0)
(95.37426869 -1.514657266 0)
(95.32447704 -1.088485631 0)
(95.2894291 -0.6487557521 0)
(95.27128061 -0.2163198987 0)
(100.0642694 -3.734021248 0)
(98.66375745 -3.667559729 0)
(97.48679458 -3.523641689 0)
(96.5863963 -3.311642689 0)
(95.94144282 -3.040584781 0)
(95.52210244 -2.722298906 0)
(95.23093476 -2.292516452 0)
(95.1394787 -1.918134152 0)
(94.98479338 -1.377398416 0)
(94.93399615 -0.9946268947 0)
(94.89861439 -0.5937690682 0)
(94.88145259 -0.1983858216 0)
(100.0330695 -3.290566007 -5.981716175e-35)
(98.56771968 -3.223297945 0)
(97.33168433 -3.097505522 0)
(96.3776238 -2.91900741 0)
(95.68666255 -2.692364893 0)
(95.23062076 -2.424160197 0)
(94.9125613 -2.054786862 0)
(94.79936172 -1.728543337 0)
(94.63685905 -1.247392087 0)
(94.58135381 -0.9043556326 0)
(94.54322943 -0.5405875878 0)
(94.52571837 -0.1809787132 0)
(99.99320303 -2.915613939 0)
(98.4793898 -2.848335243 0)
(97.19795654 -2.736278341 0)
(96.20124666 -2.582836685 0)
(95.47145503 -2.389966649 0)
(94.98199333 -2.160878284 0)
(94.63637914 -1.841060231 0)
(94.50004498 -1.55524462 0)
(94.32614796 -1.12709573 0)
(94.26362615 -0.8197839558 0)
(94.22122873 -0.4905502362 0)
(94.20243885 -0.1645441807 0)
(99.9478215 -2.596592952 2.082403567e-35)
(98.397367 -2.529972739 0)
(97.08051232 -2.428759416 0)
(96.04955624 -2.294638688 0)
(95.28700392 -2.128020163 0)
(94.7675472 -1.929961001 0)
(94.39511121 -1.651014913 0)
(94.23561675 -1.399194543 0)
(94.04841284 -1.017766243 0)
(93.97757045 -0.7421387336 0)
(93.93001191 -0.4444656929 0)
(93.90932702 -0.1493569491 0)
(99.89900962 -2.324243782 0)
(98.32069601 -2.258758074 0)
(96.97585943 -2.166366717 0)
(95.9171249 -2.047521392 0)
(95.12686002 -1.901698703 0)
(94.58068142 -1.728588971 0)
(94.18284011 -1.483559715 0)
(94.00094858 -1.260360204 0)
(93.79962695 -0.9198513171 0)
(93.71985774 -0.6720187045 0)
(93.66670913 -0.4027569238 0)
(93.64374925 -0.1355665854 0)
(99.8481578 -2.091601114 0)
(98.24866465 -2.027542779 0)
(96.88150925 -1.942468161 0)
(95.80003186 -1.835927901 0)
(94.98622278 -1.706826362 0)
(94.41630708 -1.553989663 0)
(93.99476588 -1.33725626 0)
(93.7916538 -1.138159808 0)
(93.57604952 -0.8332865961 0)
(93.48720882 -0.6095926939 0)
(93.4283519 -0.3655743515 0)
(93.40290696 -0.1232330545 0)
(99.79620949 -1.893260267 0)
(98.18067182 -1.830759075 0)
(96.79558377 -1.751814445 0)
(95.69532365 -1.655313426 0)
(94.86139672 -1.539799344 0)
(94.27038622 -1.40355526 0)
(93.82689576 -1.210508331 0)
(93.60391043 -1.031690274 0)
(93.37424036 -0.7576942523 0)
(93.27646979 -0.554750108 0)
(93.2119803 -0.3328880567 0)
(93.18395497 -0.112356232 0)
(99.74377557 -1.724972744 0)
(98.11619044 -1.664027487 0)
(96.71662264 -1.590238764 0)
(95.60072181 -1.501988059 0)
(94.74948608 -1.397579001 0)
(94.13967527 -1.274953898 0)
(93.67590515 -1.101749942 0)
(93.43441312 -0.9399350621 0)
(93.19108753 -0.6925474994 0)
(93.08468984 -0.5072229826 0)
(93.01475358 -0.3045638094 0)
(92.98412706 -0.1029007703 0)
(99.69125042 -1.583259295 0)
(98.05474516 -1.523816104 0)
(96.64344028 -1.454370925 0)
(95.51439925 -1.372920366 0)
(94.64814119 -1.277602087 0)
(94.02146354 -1.166122723 0)
(93.53898007 -1.009526924 0)
(93.28026301 -0.8618750432 0)
(93.02370973 -0.6372456614 0)
(92.9090672 -0.4666618129 0)
(92.83391811 -0.2804091639 0)
(92.80070837 -0.09481031057 0)
(99.6389319 -1.465286897 -3.510496623e-36)
(97.99592359 -1.407279136 0)
(96.57505738 -1.341490429 0)
(95.43486255 -1.26563574 0)
(94.55543588 -1.177749001 0)
(93.91346964 -1.075510662 0)
(93.41365775 -0.9326569469 0)
(93.13888626 -0.7965363106 0)
(92.86965222 -0.5912418199 0)
(92.74716695 -0.4326914223 0)
(92.66705648 -0.2602202042 0)
(92.63131679 -0.08802595381 0)
(99.58705317 -1.368811253 0)
(97.93936919 -1.312153233 0)
(96.51064874 -1.249421138 0)
(95.36086316 -1.178127175 0)
(94.46978218 -1.09624791 0)
(93.8140306 -1.001701414 0)
(93.29762063 -0.8701167302 0)
(93.00797628 -0.7430809043 0)
(92.72603117 -0.5538616728 0)
(92.59608911 -0.4049449978 0)
(92.51121606 -0.2437702383 0)
(92.47295166 -0.08247209629 0)
(99.53576878 -1.292081975 0)
(97.88474665 -1.236657666 0)
(96.44948093 -1.176434847 0)
(95.29129583 -1.108775193 0)
(94.38973595 -1.031601131 0)
(93.72138696 -0.9427915496 0)
(93.18905275 -0.8205455678 0)
(92.88534008 -0.7004779707 0)
(92.59261814 -0.5251471307 0)
(92.45562783 -0.3831070737 0)
(92.36624012 -0.2309559851 0)
(92.32561613 -0.07814052775 0)
(99.48516109 -1.233798436 0)
(97.83173339 -1.179450882 0)
(96.39089017 -1.121215884 0)
(95.22516673 -1.056339457 0)
(94.31396474 -0.9827013136 0)
(93.63363382 -0.8980881439 0)
(93.08645242 -0.7831186567 0)
(92.76923502 -0.6689711817 0)
(92.4605213 -0.5024187154 0)
(92.31586551 -0.3667937536 0)
(92.22182557 -0.2213757209 0)
(92.17843365 -0.07482677077 0)
(99.43522547 -1.193021856 0)
(97.77999202 -1.139550155 0)
(96.334241 -1.082785142 0)
(95.16155827 -1.019888221 0)
(94.24130234 -0.9487201718 0)
(93.54956741 -0.8669921358 0)
(92.98828697 -0.7573860182 0)
(92.65834155 -0.6475381135 0)
(92.35556695 -0.4914367572 0)
(92.20628973 -0.3568682521 0)
(92.1087457 -0.2158425327 0)
(92.06375446 -0.07304908268 0)
(99.38597823 -1.169125611 0)
(97.72922302 -1.11629332 0)
(96.27895453 -1.060453571 0)
(95.09964839 -0.9987491195 0)
(94.17071393 -0.929042808 0)
(93.46790749 -0.8491692422 0)
(92.89736529 -0.7432094822 0)
(92.55671197 -0.6359887695 0)
(92.16277679 -0.4769341024 0)
(91.99998015 -0.3488295781 0)
(91.89566444 -0.2109456719 0)
(91.84704449 -0.07100689672 0)
(103.1751148 -30.783228 3.345956745e-19)
(104.095857 -30.40969419 8.790597119e-19)
(108.5045454 -21.52155722 5.883827204e-19)
(95.46178821 -20.57011208 0)
(102.8333297 -30.63689863 0)
(96.93343189 -20.84018261 0)
(102.6838347 -18.19199522 -4.132050559e-20)
(107.5504865 -21.25499412 4.889464257e-19)
(97.23632627 -13.12881698 -1.998979449e-19)
(95.46479595 -19.8186669 2.068104095e-19)
(107.4226677 -26.13485937 -1.137701195e-18)
(97.56620762 -25.98429375 -1.222258298e-20)
(98.06639756 -26.6962254 -1.426552631e-19)
(99.045653 -26.20822655 9.91227624e-20)
(103.089182 -23.33124389 6.322189776e-19)
(106.222651 -25.5408485 -9.971296337e-19)
(105.1873639 -31.88423336 1.07015271e-20)
(100.4146591 -29.18530211 0)
(105.3658651 -31.98637804 -9.789559665e-19)
(106.3713789 -31.76896516 -5.059477277e-19)
(108.6495464 -29.48332724 0)
(99.78272575 -28.62726145 3.446162563e-19)
(98.06990306 -13.77683689 5.709044176e-21)
(100.2780595 -13.56670803 0)
(101.7501649 -16.95233912 0)
(105.8846061 -28.33894046 0)
(107.9373372 -29.23517939 2.315145958e-20)
(106.0827756 -31.64749703 0)
(100.3475804 -19.68798958 1.655089353e-19)
(102.2428949 -22.45608114 4.128464134e-19)
(98.54546948 -25.54848038 0)
(96.01407058 -15.94232121 -2.259731176e-19)
(92.75323633 -29.63013552 -7.594240567e-18)
(105.6834877 -32.10869959 -5.863790156e-19)
(91.40041991 -24.1845987 0)
(96.36348775 -23.71970114 0)
(95.66084411 -30.57144897 -1.287253099e-18)
(97.99458237 -31.16120552 1.92050365e-21)
(104.4166483 -31.49658393 -8.526440354e-19)
(92.88114716 -29.99691102 2.388156406e-19)
(90.48162516 -29.41014303 -2.006257966e-18)
(95.60535363 -30.6619689 -6.634644234e-19)
(93.45323414 -30.18846352 4.135050528e-19)
(81.49286333 -27.33210165 -4.974920365e-19)
(97.13168924 -30.61176346 -2.322605424e-19)
(96.19220603 -30.77680417 0)
(97.0297349 -29.84754348 2.925297977e-19)
(97.21540327 -30.47440447 1.129614761e-21)
(82.80197463 -27.48294616 0)
(89.59364921 -29.19493029 -1.460510669e-17)
(105.7284725 -32.12153185 -5.686294088e-19)
(93.34421609 -29.83795512 -3.473609028e-18)
(94.10541434 -30.15116619 -3.460290814e-18)
(108.6580776 -20.57448508 9.202860539e-21)
(108.7529977 -15.24791926 -4.106476273e-20)
(104.1134669 -31.38702711 3.902805809e-19)
(98.38990713 -31.28313266 2.338672606e-20)
(99.20121179 -31.2026823 3.264237075e-19)
(101.3702795 -31.24219351 -2.049425651e-18)
(105.4376998 -32.03988668 -6.627377921e-19)
(107.4186803 -32.09366324 -5.809067597e-19)
(109.1651773 -31.14563736 -5.813879968e-19)
(84.62099025 -28.15371698 -9.158343857e-19)
(83.74330713 -27.99222311 -1.138282893e-17)
(80.98180387 -27.23871457 -1.094590664e-18)
(85.78014876 -28.31558828 2.106403415e-18)
(84.37146873 -28.09713611 -2.425288811e-18)
(96.35762166 -28.65361405 -1.192966305e-19)
(96.87082592 -29.63315098 3.638055562e-19)
(96.18506321 -30.04347639 3.106848515e-18)
(97.07352289 -30.44106746 8.396220526e-18)
(95.7792674 -30.1243542 -4.88718107e-18)
(91.5316435 -29.63698549 -1.855062168e-19)
(87.06659767 -28.65498574 0)
(87.65842028 -28.81085348 -4.107286732e-18)
(90.24119066 -29.4150291 1.019337291e-18)
(94.78471722 -30.49462552 -3.452413033e-19)
(88.51682539 -29.0255054 1.409075632e-19)
(90.18232956 -29.43517013 8.755230526e-19)
(87.55801123 -28.76830587 -6.913573436e-19)
(87.0680242 -28.74649942 1.538704311e-18)
(93.98655471 -30.39401692 -1.139093813e-18)
(88.4529387 -29.01313053 4.917907905e-19)
(87.42830434 -28.70548294 1.379704241e-19)
(81.79000325 -27.39941599 2.133678527e-18)
(84.17477403 -27.75487147 -9.921935255e-19)
(90.07877509 -29.17447745 2.114658043e-19)
(89.32839537 -29.0800157 0)
(93.21173892 -29.84810932 -2.705125759e-18)
(98.76864774 -31.08133497 2.963312545e-18)
(98.31264284 -30.85488774 1.921750525e-18)
(99.87183247 -31.42330148 0)
(99.19394883 -31.30988266 0)
(92.71702113 -29.86036583 1.999449841e-18)
(108.4075375 -13.89432955 0)
(107.1672903 -10.56533926 1.695052913e-19)
(106.7177782 -9.654901852 0)
(105.3762876 -7.404862696 1.517966791e-19)
(104.9467774 -6.791529366 1.024803065e-18)
(103.7430781 -5.281528878 0)
(101.3702724 -28.61029507 5.124558197e-19)
(103.3761329 -26.72005925 8.378677739e-19)
(105.2281578 -27.97670409 3.869157479e-19)
(103.3624019 -17.04997176 -7.241671045e-19)
(104.3223013 -13.87699457 0)
(107.4949692 -15.05556542 -1.185813741e-18)
(104.3640495 -12.90942731 -4.286684006e-19)
(104.0834676 -10.33827219 -4.650354026e-19)
(106.3395125 -10.60906316 -6.038763388e-19)
(103.9029002 -9.589934405 0)
(103.2188145 -7.648641718 -1.198279203e-19)
(104.8161156 -7.533086664 -5.583188214e-19)
(102.9642891 -7.093882255 6.134381512e-19)
(102.1886513 -5.6737917 0)
(103.3535207 -5.423257951 0)
(97.08979006 -16.18525506 -2.602341711e-20)
(99.22289612 -16.26194332 5.386196218e-21)
(99.9521854 -18.75512014 0)
(100.7602412 -13.1925011 0)
(101.6074487 -11.6620131 1.656689397e-20)
(103.4888217 -13.35898778 0)
(101.7242329 -11.088305 0)
(101.7707983 -9.381033271 -3.078421655e-19)
(103.431413 -10.1475441 6.305076948e-19)
(101.7069565 -8.83476358 0)
(101.3708044 -7.332744762 2.701695058e-19)
(102.7191304 -7.609038285 -1.418883908e-20)
(101.2265617 -6.879920862 3.98554944e-19)
(100.7422636 -5.676975817 2.437607825e-20)
(101.8114624 -5.705618909 0)
(98.56515792 -9.970463182 3.919490027e-19)
(97.35015397 -12.05563854 4.153706023e-19)
(99.10186047 -10.40453035 2.257786545e-19)
(99.74737242 -10.44803153 0)
(100.060907 -12.64995042 0)
(99.90777454 -10.32039429 -5.539672285e-20)
(100.1777604 -9.589234769 -7.919481022e-20)
(101.154547 -11.11104398 -4.67484818e-20)
(100.2062929 -9.269764232 -1.253685115e-20)
(100.1754396 -8.195635868 0)
(101.3105038 -9.089256357 3.073391112e-19)
(100.1309699 -7.820679811 0)
(99.91070811 -6.723415883 3.008716233e-19)
(100.9701339 -7.198058269 -3.592116714e-19)
(99.81656799 -6.376392503 -1.475410728e-19)
(99.49305383 -5.41197382 0)
(100.4093186 -5.629190299 -4.79512291e-20)
(99.67393593 -8.194828159 -1.093421863e-19)
(98.89383686 -9.462441038 -1.454689536e-19)
(99.73963495 -8.355569838 -7.325259643e-20)
(99.60770772 -8.40674208 3.801242542e-20)
(99.70290337 -9.858365767 0)
(99.5653382 -8.350710261 -2.107451101e-20)
(99.38079693 -7.939251642 0)
(99.93934631 -9.135858047 -8.531083189e-20)
(99.31271682 -7.745964653 3.006214243e-20)
(99.10375585 -7.057621705 0)
(99.86665889 -7.902385881 0)
(99.03082057 -6.805266311 1.009054064e-19)
(98.79800721 -6.024763785 3.381305348e-20)
(99.60331288 -6.551753359 7.012477928e-20)
(98.71566044 -5.76523766 3.0180726e-20)
(98.46922141 -5.01041229 0)
(99.21657785 -5.319721313 0)
(100.2028446 -6.869620867 1.614360111e-19)
(99.86177753 -7.830133001 2.134835668e-19)
(99.99778681 -6.965744407 2.657046149e-21)
(99.47600556 -6.97734013 -4.080499208e-20)
(99.57888628 -8.004389446 -3.122529923e-21)
(99.30813757 -6.933413353 3.235842604e-20)
(98.84453746 -6.664628277 -9.967908595e-21)
(99.2300289 -7.589527034 0)
(98.70726421 -6.537351748 -1.064108095e-19)
(98.34920925 -6.071991193 2.488404774e-19)
(98.89120617 -6.795231823 0)
(98.2443646 -5.896534208 -1.052819843e-19)
(97.9601635 -5.335399873 0)
(98.56580226 -5.848448714 1.187565976e-19)
(97.87452871 -5.141379187 0)
(97.64842254 -4.554952035 0)
(98.24674927 -4.899342224 0)
(100.3226781 -5.86447292 8.412118537e-20)
(100.2560258 -6.59196596 1.528051956e-20)
(100.0513334 -5.922650597 -9.048662462e-20)
(99.31139258 -5.901522781 1.489846995e-20)
(99.43549041 -6.682398533 1.191703781e-21)
(99.08186336 -5.862764456 1.545026382e-20)
(98.45344014 -5.668670022 -2.233591805e-20)
(98.73412157 -6.392740945 -1.296245049e-19)
(98.27239205 -5.578995798 1.332728003e-20)
(97.80494618 -5.248084665 0)
(98.1960185 -5.851884475 -3.564819661e-20)
(97.671416 -5.120700666 0)
(97.32849597 -4.701844018 0)
(97.78562365 -5.171037367 0)
(97.23203744 -4.553266162 0)
(96.9943504 -4.092940095 0)
(97.47092836 -4.438423921 0)
(100.3661967 -5.068113391 0)
(100.3322655 -5.650070352 -1.38448563e-21)
(100.0742006 -5.08882004 0)
(99.19754075 -5.055445686 0)
(99.27665256 -5.67115603 -5.202770592e-21)
(98.92317187 -5.024584958 0)
(98.17976966 -4.874035167 0)
(98.37732217 -5.453798908 1.285648541e-21)
(97.96254529 -4.806294095 0)
(97.40169397 -4.556709271 0)
(97.69327996 -5.063829734 0)
(97.24290543 -4.459914263 0)
(96.84215762 -4.137175409 0)
(97.19523139 -4.554010169 0)
(96.73213811 -4.02085018 0)
(96.46822324 -3.653735433 0)
(96.85215237 -3.979889049 0)
(100.3964372 -4.407842208 0)
(100.3761545 -4.890437822 0)
(100.0835722 -4.412435094 0)
(99.10480682 -4.375092623 0)
(99.17342941 -4.871994835 0)
(98.79831669 -4.347941172 0)
(97.96715384 -4.224767404 0)
(98.12199152 -4.699675369 0)
(97.72311647 -4.170922019 0)
(97.09023076 -3.974355579 0)
(97.31661982 -4.401718575 0)
(96.9106946 -3.898133596 0)
(96.45848148 -3.642209096 0)
(96.73793578 -4.007045986 0)
(96.33489921 -3.549061554 0)
(96.03966951 -3.251334939 0)
(96.35294109 -3.548937457 0)
(100.3994275 -3.861482182 3.809984234e-35)
(100.3993716 -4.261814278 4.434018288e-35)
(100.0702 -3.857512647 -3.802498432e-35)
(99.01905961 -3.816180363 0)
(99.08284458 -4.225287679 0)
(98.68921133 -3.791382851 0)
(97.79379593 -3.686470758 0)
(97.92072364 -4.08086276 0)
(97.529749 -3.641971794 0)
(96.84119542 -3.481672894 0)
(97.02297958 -3.843454381 0)
(96.64487404 -3.419809932 0)
(96.14869214 -3.211641348 0)
(96.37499985 -3.528799232 0)
(96.01267227 -3.135472715 0)
(95.68627912 -2.889970454 0)
(95.94504411 -3.156734567 0)
(100.383722 -3.402852059 0)
(100.3969616 -3.739399833 0)
(100.0418344 -3.394420891 0)
(98.93809948 -3.350304108 0)
(98.99841626 -3.691875139 0)
(98.59093646 -3.327276751 0)
(97.64745194 -3.235333227 0)
(97.75502992 -3.566281989 0)
(97.36820884 -3.197442975 0)
(96.63627354 -3.062994846 0)
(96.78637958 -3.370603696 0)
(96.42641152 -3.011498084 0)
(95.89325446 -2.838387885 0)
(96.08035012 -3.113239488 0)
(95.74623536 -2.774902579 0)
(95.39078448 -2.569168702 0)
(95.60755694 -2.805677109 0)
(100.3556388 -3.014377716 -5.219170437e-35)
(100.3776712 -3.299714738 5.993385129e-35)
(100.0037883 -3.003681998 5.209062172e-35)
(98.86109134 -2.957903524 0)
(98.91849692 -3.245937155 0)
(98.50083575 -2.936336881 0)
(97.52067487 -2.854155685 0)
(97.61414373 -3.134039542 0)
(97.2296958 -2.821162204 0)
(96.463589 -2.705854906 0)
(96.59044366 -2.968365531 0)
(96.24277133 -2.662078582 0)
(95.67866564 -2.515377794 0)
(95.83620451 -2.753188697 0)
(95.5220756 -2.461571231 0)
(95.14032118 -2.286646817 0)
(95.32437595 -2.494749795 0)
(100.3193107 -2.683524061 0)
(100.3472027 -2.926675198 0)
(99.95955523 -2.671656432 0)
(98.78764526 -2.62511946 0)
(98.84240717 -2.869569843 0)
(98.41733882 -2.604818978 0)
(97.40873618 -2.530331889 0)
(97.49144418 -2.768240003 0)
(97.10855835 -2.501110745 0)
(96.31522728 -2.400455192 0)
(96.42446602 -2.624990219 0)
(96.08549167 -2.36259223 0)
(95.49547618 -2.236260652 0)
(95.63022809 -2.441715168 0)
(95.33061855 -2.18998929 0)
(94.92539529 -2.039328676 0)
(95.08357713 -2.221370051 0)
(100.2774974 -2.400898372 -1.829685198e-35)
(100.309287 -2.608659547 -2.086410601e-35)
(99.91144899 -2.3883657 1.82618748e-35)
(98.71750735 -2.3417394 0)
(98.76980957 -2.549980187 0)
(98.3394031 -2.322562388 0)
(97.30845303 -2.254347024 0)
(97.38267334 -2.457168767 0)
(97.00097163 -2.228122568 0)
(96.18571133 -2.138994295 0)
(96.28125626 -2.331238329 0)
(95.94866057 -2.105771164 0)
(95.33688561 -1.995477799 0)
(95.45374368 -2.172670321 0)
(95.16490096 -1.955176799 0)
(94.73888492 -1.823908722 0)
(94.87634553 -1.982370069 0)
(100.2320726 -2.159319249 0)
(100.2664201 -2.336899962 0)
(99.86100398 -2.146357659 0)
(98.65046261 -2.100097941 0)
(98.70046512 -2.277673506 0)
(98.26627174 -2.081923999 0)
(97.21758582 -2.018932247 0)
(97.28492697 -2.191936223 0)
(96.90424183 -1.995141512 0)
(96.071141 -1.91527279 0)
(96.15579523 -2.079740241 0)
(95.82804196 -1.885760167 0)
(95.1979062 -1.788306283 0)
(95.30046766 -1.940702718 0)
(95.01977102 -1.752803178 0)
(94.57538235 -1.637218926 0)
(94.69603915 -1.774451383 0)
(100.1843737 -1.95314372 0)
(100.2203185 -2.10464716 0)
(99.80926226 -1.939881442 0)
(98.58627533 -1.894270092 0)
(98.6341577 -2.045483603 0)
(98.19732262 -1.876987181 0)
(97.13445645 -1.818394489 0)
(97.19613441 -1.96572154 0)
(96.81636257 -1.796608428 0)
(95.96861557 -1.724285257 0)
(96.0444769 -1.864629622 0)
(95.72047555 -1.697780865 0)
(95.07475409 -1.610731405 0)
(95.16576125 -1.741279557 0)
(94.89129288 -1.579124157 0)
(94.43066105 -1.476333298 0)
(94.5375884 -1.594501469 0)
(100.1353103 -1.777909996 0)
(100.1722074 -1.906584191 0)
(99.75690584 -1.764429061 0)
(98.52468121 -1.719598453 0)
(98.57064302 -1.847836219 0)
(98.13200871 -1.703099057 0)
(97.05775132 -1.648225128 0)
(97.11472116 -1.773155294 0)
(96.73577894 -1.62810322 0)
(95.87590696 -1.561982163 0)
(95.94459137 -1.681156271 0)
(95.62353131 -1.537937312 0)
(94.96448707 -1.459381604 0)
(95.04607694 -1.570550097 0)
(94.77638947 -1.430956883 0)
(94.30135451 -1.338648188 0)
(94.39700506 -1.439667582 0)
(100.0854869 -1.629982987 0)
(100.1229064 -1.738496522 0)
(99.7043727 -1.616361473 0)
(98.46540769 -1.572363725 0)
(98.50965607 -1.680346995 0)
(98.06984531 -1.556548581 0)
(96.98641222 -1.504821876 0)
(97.03945086 -1.609990123 0)
(96.6612505 -1.486086209 0)
(95.7912559 -1.425083199 0)
(95.85405003 -1.525490444 0)
(95.53529001 -1.403056784 0)
(94.86476197 -1.331454706 0)
(94.93864927 -1.425303011 0)
(94.67259858 -1.305633791 0)
(94.18471828 -1.221907969 0)
(94.2711074 -1.307442509 0)
(100.035355 -1.506361057 0)
(100.0729674 -1.596902602 0)
(99.6519778 -1.492685376 0)
(98.40819442 -1.449543325 0)
(98.45092087 -1.53947419 0)
(98.01040275 -1.434325835 0)
(96.91955529 -1.385262962 0)
(96.96930918 -1.472797727 0)
(96.59174985 -1.367682035 0)
(95.71322181 -1.310901619 0)
(95.77117767 -1.394501418 0)
(95.4541815 -1.29053083 0)
(94.77365549 -1.224617948 0)
(94.84124465 -1.302849922 0)
(94.57789261 -1.200926275 0)
(94.07843816 -1.124226937 0)
(94.15726024 -1.195645553 0)
(99.9852798 -1.404664659 0)
(100.0228188 -1.478962606 3.517010986e-36)
(99.5999719 -1.391018641 0)
(98.352815 -1.348729877 0)
(98.39418643 -1.422359494 0)
(97.9533138 -1.334032704 0)
(96.85644005 -1.287213957 0)
(96.90345265 -1.358814717 0)
(96.5264197 -1.270589295 0)
(95.6406107 -1.217268698 0)
(95.69460365 -1.285642418 0)
(95.37890626 -1.198245482 0)
(94.6895869 -1.136951446 0)
(94.7520352 -1.200972473 0)
(94.49061457 -1.114990086 0)
(93.98072142 -1.044035923 0)
(94.05327199 -1.102518006 0)
(99.93553325 -1.323037091 0)
(99.97280371 -1.382438216 0)
(99.54852793 -1.309490419 0)
(98.29904753 -1.268021132 0)
(98.33923085 -1.326731894 0)
(97.89823838 -1.253770721 0)
(96.79641117 -1.208815351 0)
(96.84116776 -1.265835008 0)
(96.46450571 -1.19297014 0)
(95.57237874 -1.14243333 0)
(95.62318059 -1.19685728 0)
(95.30832763 -1.124484287 0)
(94.61116302 -1.066847771 0)
(94.66950403 -1.117834579 0)
(94.40929743 -1.046249712 0)
(93.8899487 -0.979787785 0)
(93.95744706 -1.026495593 0)
(99.88630372 -1.260097859 1.376065077e-35)
(99.92317236 -1.305595489 0)
(99.49774871 -1.246696858 -1.373563544e-35)
(98.24667035 -1.205975585 0)
(98.28583221 -1.250807894 0)
(97.84485403 -1.192097426 0)
(96.73887775 -1.148643379 0)
(96.78181645 -1.19211117 0)
(96.40533136 -1.133413805 0)
(95.50759338 -1.08504183 0)
(95.55589426 -1.126495468 0)
(95.24142798 -1.067918209 0)
(94.53710742 -1.013066638 0)
(94.59228686 -1.051912692 0)
(94.33257225 -0.9934986046 0)
(93.80435324 -0.9304085409 0)
(93.86812393 -0.9660292102 0)
(99.83767655 -1.214849051 -4.548303796e-36)
(99.8740891 -1.2471591 0)
(99.44764886 -1.20161273 4.540091683e-36)
(98.19543594 -1.16152888 0)
(98.23376489 -1.193248184 0)
(97.79282671 -1.147943578 0)
(96.68327267 -1.105632019 0)
(96.72481767 -1.136316271 0)
(96.34825468 -1.090860606 0)
(95.44539085 -1.04407103 0)
(95.49183323 -1.073293204 0)
(95.17727116 -1.027542869 0)
(94.46627884 -0.9746858027 0)
(94.51913993 -1.002058494 0)
(94.25923602 -0.9558536487 0)
(93.72261031 -0.89518126 0)
(93.78360673 -0.9202703245 0)
(99.78963713 -1.186614485 0)
(99.82561662 -1.20621688 0)
(99.3981601 -1.173540228 0)
(98.14506186 -1.133952002 0)
(98.18277513 -1.153075565 0)
(97.7417976 -1.120572541 0)
(96.62903197 -1.07902821 0)
(96.66960826 -1.097466626 0)
(96.29264741 -1.064556213 0)
(95.38495595 -1.018779892 0)
(95.43014885 -1.036302136 0)
(95.11498204 -1.002627395 0)
(94.39763387 -0.9510196444 0)
(94.44895334 -0.9674120446 0)
(94.1881932 -0.932648494 0)
(93.64346682 -0.8734973278 0)
(93.70262442 -0.888472276 0)
(99.73662518 -1.174366547 -3.931191198e-37)
(99.77782485 -1.182163232 0)
(99.34344737 -1.161593449 3.926192831e-37)
(98.08927643 -1.122433441 0)
(98.13264553 -1.129636837 0)
(97.68533964 -1.109146795 0)
(96.56920389 -1.067924585 0)
(96.61567429 -1.074876737 0)
(96.23135997 -1.053582721 0)
(95.31845829 -1.00825638 0)
(95.3700777 -1.014841319 0)
(95.04646991 -0.9922688411 0)
(94.32219783 -0.941179348 0)
(94.38074166 -0.947340219 0)
(94.11014526 -0.9229798741 0)
(93.55659306 -0.8641895482 0)
(93.62398143 -0.8701322182 0)
(103.486157 -31.02872468 3.553946283e-19)
(102.6960274 -31.29611143 -3.55123358e-19)
(102.4324671 -31.10552487 -3.860974062e-21)
(104.8192069 -29.73391643 -1.335844504e-18)
(105.5304954 -30.09214519 4.503120866e-19)
(104.7983491 -30.77941685 -9.755828718e-19)
(111.5989273 -22.30110977 -3.615803377e-20)
(111.5128126 -26.06726183 0)
(107.8419848 -24.93542887 5.96679704e-19)
(96.07961091 -22.91110285 2.75497981e-19)
(91.49627464 -23.15997286 -6.155662438e-19)
(99.33195058 -31.13562023 2.976957962e-19)
(99.19444014 -30.68606218 -2.56141273e-19)
(101.7313094 -30.20645345 7.475870736e-19)
(98.32289344 -20.56014191 0)
(98.78168515 -21.79017688 -2.247413007e-20)
(97.04520396 -22.7291021 -2.048356252e-19)
(104.3860965 -19.33927211 -3.404875383e-19)
(102.9607106 -21.62175643 0)
(101.0670881 -19.19626857 -1.330664461e-19)
(106.7144185 -24.40663772 1.051372734e-18)
(103.7750782 -22.39683282 4.046546585e-19)
(105.1126049 -19.77202139 4.036626037e-19)
(96.34578263 -15.09230955 2.259278885e-19)
(95.30427033 -18.07361636 0)
(108.6741987 -26.65285583 1.715365519e-19)
(108.308887 -28.53524923 3.414092018e-21)
(106.316117 -27.67448103 0)
(108.9971463 -28.7539909 0)
(109.728563 -26.60839507 2.591617525e-20)
(107.7507705 -32.18140188 0)
(108.8986168 -32.0056958 6.315652684e-19)
(96.3597936 -26.39084196 3.40709667e-20)
(95.91848598 -25.60758201 -2.295772873e-19)
(97.11154848 -25.25773526 0)
(98.60683048 -27.37839974 -2.9888245e-19)
(97.3501612 -27.85426113 1.592251596e-19)
(96.84071166 -27.13760827 7.150163667e-20)
(101.1701163 -24.73800915 -3.013436512e-19)
(102.7888487 -26.32025568 -2.732356823e-19)
(100.7433098 -28.05979515 1.810162296e-19)
(104.0379646 -24.14959664 -1.214167647e-22)
(103.2535523 -25.19086601 -1.106412104e-18)
(102.235799 -24.2755307 3.004379966e-19)
(105.6951006 -27.34558986 -3.974110206e-19)
(104.3827265 -26.03767016 5.251905731e-19)
(105.0861921 -24.88793425 -3.689319979e-19)
(103.5717684 -31.94624087 4.784260688e-19)
(103.5851787 -31.90573146 -4.616889236e-19)
(104.9670543 -31.77683179 4.479938332e-19)
(90.98218768 -29.18321806 1.293221255e-19)
(90.56901432 -29.2323811 -9.615464613e-21)
(84.71892075 -27.84260647 -6.207914042e-19)
(101.0707298 -29.71729271 7.070382186e-19)
(99.04829542 -30.4991944 -2.254364108e-19)
(98.38677229 -29.77722627 3.276802865e-19)
(105.5313516 -32.07713981 5.185517844e-19)
(103.2942446 -32.01056344 -1.565202314e-18)
(103.4490643 -31.97380743 1.00030899e-18)
(107.7043812 -30.96973814 -1.546030406e-19)
(108.4361276 -31.19775967 1.665951446e-19)
(107.2056721 -32.04289859 1.122757766e-18)
(109.3738254 -29.70727339 -6.640568731e-19)
(108.9803557 -30.46696903 0)
(108.2430258 -30.23447506 0)
(109.7186571 -30.67148918 7.40500131e-19)
(110.1036355 -29.90511228 2.334966961e-20)
(98.4449019 -29.17149854 -3.457663273e-19)
(97.88945201 -28.54020455 0)
(99.17893547 -28.02700659 0)
(91.91442014 -28.93829159 -1.781946223e-19)
(91.45773746 -29.05494295 -1.585229434e-20)
(95.02893748 -27.51410181 5.810701329e-21)
(96.11527315 -28.36475297 7.929785372e-20)
(99.00247776 -13.93158479 0)
(98.93950328 -15.1841783 7.477799105e-20)