/*--------------------------------*- C++ -*----------------------------------*\
| =========                 |                                                 |
| \\      /  F ield         | OpenFOAM: The Open Source CFD Toolbox           |
|  \\    /   O peration     | Version:  v2012                                 |
|   \\  /    A nd           | Website:  www.openfoam.com                      |
|    \\/     M anipulation  |                                                 |
\*---------------------------------------------------------------------------*/
FoamFile
{
    version     2.0;
    format      ascii;
    class       volScalarField;
    location    "1.46";
    object      k;
}
// * * * * * * * * * * * * * * * * * * * * * * * * * * * * * * * * * * * * * //

dimensions      [0 2 -2 0 0 0 0];


internalField   nonuniform List<scalar> 
3019
(
45.00516566
53.71203097
46.83872813
42.36331663
39.60515821
37.97005367
36.82399539
36.12217987
35.44298735
35.15979253
35.02446852
34.97067376
55.44760856
53.69781086
46.96884141
42.45143031
39.70934254
38.06573626
36.86709504
36.12230117
35.39278003
35.08220611
34.92950619
34.86839119
55.75673037
53.04402681
46.67064379
42.36653186
39.7243411
38.12325266
36.88908558
36.10957738
35.3428451
35.01006002
34.84249566
34.77516607
53.97619275
51.55538717
45.97207527
42.10615098
39.67662894
38.13460945
36.88525889
36.07879686
35.28563314
34.93671278
34.75838729
34.68592709
52.71727555
49.65981725
44.97871608
41.74058828
39.60982824
38.11217285
36.85114474
36.02900724
35.22035256
34.86092049
34.67357419
34.59688164
51.23320647
47.87386645
44.07022606
41.40453555
39.49112802
38.03572073
36.77760773
35.95459035
35.14056956
34.77528028
34.58367844
34.50384301
49.81287914
46.64333007
43.50110915
41.13216815
39.31703514
37.91299896
36.67537194
35.86010613
35.04841534
34.68119581
34.48723749
34.40564079
48.59838674
45.94111576
43.06973278
40.84290739
39.11351444
37.75995316
36.55119603
35.74830567
34.94365631
34.5769526
34.38209603
34.29939987
47.49035244
45.2988155
42.65995323
40.5518341
38.89585708
37.58806912
36.41062934
35.62236721
34.82883427
34.4649535
34.27034018
34.18709297
46.4610003
44.69703293
42.27263275
40.26686355
38.67302613
37.40541248
36.25817764
35.48548477
34.70406419
34.34360077
34.14964675
34.06618286
45.49775646
44.12922407
41.9048069
39.99145438
38.45036609
37.21748032
36.09771028
35.3404959
34.57329187
34.21754183
34.02471742
33.94128755
44.59222329
43.59007859
41.55335253
39.7262783
38.23094204
37.02783465
35.93235738
35.18983217
34.43522513
34.08340995
33.89150808
33.80817731
43.73972217
43.07516576
41.21595517
39.47075929
38.01632637
36.83879524
35.76447434
35.03539572
34.29528603
33.94857643
33.7578564
33.67470679
42.92688915
42.58069558
40.89074418
39.22396743
37.8071229
36.65177544
35.59572837
34.8787527
34.14921717
33.80574442
33.61565823
33.53260057
42.14538947
42.10358524
40.57613015
38.98500335
37.60344066
36.46761361
35.42730646
34.72099604
34.00554776
33.66711601
33.47798657
33.39504155
41.38920185
41.64117307
40.27064895
38.75299515
37.4050995
36.28674186
35.25999889
34.56310288
33.85462692
33.51815222
33.32921232
33.24621366
40.65655393
41.19133986
39.97303708
38.52716603
37.211817
36.10937246
35.09434958
34.40556228
33.71165197
33.38023039
33.19198257
33.10895271
39.94415842
40.75232938
39.68218315
38.30679293
37.02324162
35.93555588
34.93071664
34.24907978
33.55670286
33.2256546
33.03718178
32.95391678
39.2507546
40.32278521
39.39715138
38.09122702
36.83900594
35.7652612
34.76934918
34.09370252
33.41895731
33.09317396
32.9051279
32.82168673
38.57659837
39.90177587
39.11718533
37.87990842
36.65875295
35.59837841
34.61042113
33.94017652
33.25794603
32.93098789
32.74243803
32.65858356
37.92080942
39.48832601
38.8416327
37.67232524
36.48212275
35.43474593
34.45412599
33.78813582
33.13197007
32.81016978
32.62171739
32.53758309
37.28290301
39.08224428
38.57001167
37.46807071
36.30882385
35.27428722
34.30091795
33.6390444
32.95811956
32.63495948
32.44592139
32.3612018
36.66403425
38.6838122
38.30200733
37.2668059
36.13858353
35.11681434
34.15212368
33.49295696
32.85571206
32.5347673
32.34542632
32.26035882
36.06978448
38.29685247
38.03892566
37.06887086
35.97148449
34.96231415
34.01199433
33.35574776
32.63181745
32.30993385
32.11963266
32.0336723
40.99576596
44.02285386
55.15737165
50.88800139
41.30220252
54.97686437
55.64034604
55.18259205
53.13572976
51.29717886
57.84751087
47.32711345
46.58629494
50.80111864
58.16690015
57.94410225
39.43885635
43.15526359
39.43226566
39.75705208
54.10267686
44.02084872
56.2441194
55.00756821
55.55950341
55.65644026
54.56114893
40.12658282
58.31764202
58.23184766
51.42169373
51.67871703
68.42431963
40.0865965
41.07106071
49.43716204
52.94045308
43.47141958
39.66609085
55.68101822
68.61900971
43.69112779
52.27502259
75.55812275
40.21160388
42.31161605
39.67084599
39.97590515
67.3591596
71.41421294
39.79557723
68.3360721
59.52077018
54.33910114
48.33426481
39.94547649
42.3107695
40.16890007
48.66162766
41.16872844
39.52220584
45.29751188
72.24017112
75.43503058
76.9322494
64.48828521
73.87686705
39.9659064
39.70941251
65.30704337
58.5153863
66.48648418
61.73148692
71.66852599
71.42615728
69.77914692
45.77396367
62.51306974
55.80519602
70.14108965
71.91340072
49.02288109
53.05261179
58.11654226
74.07757664
61.17355658
46.72017904
49.14352847
66.96512969
49.49919112
52.71325967
43.97304479
46.71239657
68.46084162
46.80308729
43.2040862
42.28122548
40.12468936
39.5658425
38.26945012
47.77398827
56.6884999
56.00962412
53.76631226
48.47308001
48.38685725
46.95607853
43.36313057
43.28749747
42.44267062
40.26137993
40.16620759
39.69451338
38.38266542
38.30322216
55.90688669
57.97507447
58.29728921
53.29500463
48.23461682
48.47404279
46.77636853
43.30515654
43.37683694
42.40143264
40.27350577
40.26708028
39.72774415
38.4544489
38.40453674
50.21941371
49.65967086
54.32179468
53.48581428
54.69902247
51.9843214
47.48928441
48.10223439
46.1904716
43.02058925
43.25751528
42.18561561
40.20636914
40.26539416
39.69316225
38.47394757
38.46206742
51.3637253
50.53622212
53.04884229
51.46134888
53.01159871
50.14507243
46.31514381
47.21819787
45.23235492
42.55984678
42.91845122
41.83750024
40.0898223
40.17792605
39.62722158
38.45784899
38.47277978
51.17580526
51.46163592
51.60024944
49.40370446
50.92894913
48.2816243
45.15169812
46.00778744
44.27257257
42.07714747
42.43161198
41.47496861
39.96186242
40.06093815
39.52733211
38.38916894
38.44663158
50.05886736
50.93749173
50.15383428
47.82505435
48.94713606
46.88567644
44.33241331
44.90443231
43.61233138
41.74400266
41.98017736
41.2026104
39.77961049
39.92090613
39.36411282
38.26689853
38.36259859
48.80359578
49.74338084
48.88917948
46.92197683
47.539718
46.10905004
43.84108569
44.20396021
43.1757437
41.42673768
41.66542123
40.91583561
39.56371205
39.72788325
39.16618154
38.11052902
38.23031475
47.60110788
48.49596322
47.75946833
46.17640682
46.73064643
45.45528734
43.38239
43.72369774
42.76022032
41.10968017
41.34700715
40.62424669
39.33262584
39.50685545
38.95102771
37.9333488
38.06775916
46.47005319
47.31191074
46.71164968
45.479179
45.99785384
44.84406366
42.95073205
43.27210828
42.36749736
40.80136161
41.03158334
40.33728412
39.09678259
39.27382285
38.72887931
37.74431851
37.88694222
45.40277351
46.19757383
45.73293964
44.82345534
45.31161594
44.26829719
42.54175929
42.84653058
41.99512067
40.50507964
40.72612181
40.05934134
38.8621318
39.03784614
38.50581623
37.54958669
37.69598941
44.38991724
45.14483235
44.81295903
44.20293679
44.66525879
43.72242886
42.15177651
42.44260441
41.63981674
40.22094238
40.43294462
39.7916327
38.63188424
38.80407804
38.28538688
37.35330606
37.50055402
43.4211071
44.14362248
43.94873701
43.61209008
44.05264797
43.20184161
41.7781144
42.05692543
41.29909451
39.94783585
40.15168515
39.53378384
38.40751591
38.57521321
38.06948487
37.15808223
37.30434137
42.49361858
43.18554184
43.12686022
43.04615439
43.46843534
42.70257201
41.41855596
41.68698483
40.97099237
39.68447563
39.88113138
39.28489578
38.18944147
38.35240687
37.85890298
36.96542658
37.10965002
41.60220736
42.26757517
42.33835664
42.50137539
42.90810733
42.22138776
41.07119886
41.33064594
40.65387306
39.42974394
39.62002747
39.04405943
37.97758515
38.13590628
37.6538505
36.77617326
36.91778584
40.74028042
41.3840862
41.57593967
41.97446712
42.36808408
41.7555334
40.73431468
40.98606028
40.34624212
39.18261672
39.36728836
38.81039419
37.77161799
37.92555793
37.4542027
36.59070808
36.72945414
39.90573464
40.52906271
40.83771848
41.46297366
41.84521418
41.3027163
40.40638082
40.6515397
40.0467668
38.9421669
39.1219077
38.58308542
37.5711163
37.72099379
37.25968256
36.40915984
36.54495787
39.09867612
39.70141723
40.12044135
40.96477598
41.33730405
40.86115379
40.0861253
40.3256446
39.75431687
38.70758437
38.88300349
38.36141137
37.37564627
37.52179643
37.06996404
36.23152404
36.36439622
38.31738228
38.90102678
39.42229784
40.47835346
40.84208269
40.42933082
39.77245897
40.00713072
39.46790553
38.47812617
38.64976846
38.14469843
37.18475459
37.3275134
36.88467658
36.05769496
36.18772341
37.56043135
38.12595647
38.74329729
40.00291815
40.35850474
40.00630565
39.46452384
39.69497001
39.18673993
38.25316542
38.42148966
37.9323694
36.99802378
37.13770013
36.70346335
35.88750993
36.01482058
36.82685413
37.37510818
38.08282637
39.53859722
39.88582212
39.59097613
39.16159078
39.38834825
38.91013409
38.0321345
38.1975615
37.72389338
36.81504104
36.95194381
36.52595635
35.7207538
35.84551293
36.11562328
36.64772241
37.43971489
39.08384722
39.42410545
39.1830248
38.86311447
39.0865745
38.63756755
37.81458198
37.97743841
37.51884272
36.63546505
36.76984225
36.35185218
35.55729099
35.67959161
35.4254044
35.94361413
36.81286917
38.63701916
38.97165403
38.78202429
38.56863595
38.78915156
38.36860121
37.60011834
37.76069299
37.31684359
36.45898226
36.59106773
36.18086547
35.39692926
35.51692131
34.75260485
35.2641723
36.19874648
38.19495102
38.52778355
38.38635088
38.27697764
38.49580526
38.10229869
37.38819352
37.54698111
37.1174126
36.28523901
36.4153238
36.01267683
35.23944345
35.35730317
34.05452602
34.61489404
35.55765048
37.72799389
38.09633783
37.96849851
37.96840802
38.20830884
37.82075274
37.16523135
37.33678653
36.90804796
36.10404406
36.24272414
35.83762025
35.07624184
35.20076931
40.55952587
39.48449685
39.59810726
49.0486434
48.15387939
43.04088163
55.05717205
57.65452656
57.78370252
49.82167635
41.43265132
39.87675033
39.54168471
41.4962793
57.56269238
57.39017868
53.28534066
55.20356954
57.89862029
57.87060953
57.81856603
57.89183712
55.21018999
52.03378499
50.66088802
57.76654406
56.43971475
57.0222666
56.20956844
57.77042218
39.69125879
39.68988997
43.19003587
43.889605
48.12234805
45.74462672
41.77594658
42.44843891
57.47740416
56.89357833
48.65072937
58.09807693
57.83242757
57.97515837
57.18441238
57.68940917
58.02047372
39.7893577
39.56093998
39.41537361
43.88412698
45.18416918
58.12598352
42.32193661
39.54389486
39.5511019
39.52846919
40.60159882
40.08277685
45.20994636
44.13963177
39.50721224
53.603772
49.52803096
50.35989878
48.62706881
53.03956271
40.56400452
41.11491269
44.8840883
41.90837521
42.77627107
40.33840708
40.06910859
57.39370615
57.81378818
55.86079991
55.25677473
56.94007596
56.61159886
57.78276718
57.18597143
55.43227546
55.34905991
52.52365733
53.09897633
51.14817947
51.85009574
54.95777412
42.11311486
47.19892975
46.21424003
58.31299314
58.21733637
58.26241166
58.07496882
58.15664333
58.27652971
52.75835355
57.25873546
57.00345384
51.32732892
44.92311626
45.32922782
40.54899021
46.01681313
43.58816136
41.01537896
40.72040608
42.00033529
41.61004116
40.93238571
48.68564502
44.70476572
45.27363137
48.6443703
41.2254153
42.32893096
40.0462306
40.51507425
45.38517393
39.51925727
39.48647684
39.4087788
40.66659024
44.92182469
43.27664183
51.14174611
47.26439457
41.31737084
39.76443233
40.86974807
40.50562425
42.16902787
41.36878681
39.796035
42.18555795
41.23989253
39.60254724
51.7940862
51.69717264
54.07912451
48.22309791
49.89692621
50.00536238
39.40430347
39.42593619
40.2291314
41.36842166
39.59520779
39.7795955
39.45229365
39.5284652
40.67933444
39.96520002
39.85387283
39.61012766
44.09019496
41.62755313
41.47059747
40.95118903
43.67150286
40.89010399
41.32860336
39.85205523
40.01364429
40.01570764
40.24357349
40.09427088
39.76738594
37.94039536
37.23496001
36.79689898
36.43143559
36.12073457
35.83638356
45.94693295
50.67549077
49.89543237
53.75030059
51.90949931
51.85185773
46.91727176
45.56180263
45.49383308
42.37563602
41.56718538
41.53718796
39.65046736
39.15132416
39.11350484
38.04553412
37.31478643
37.27837413
36.84751005
36.45733593
36.44490645
36.12408989
35.81874799
35.83055437
55.72693075
57.69471006
57.67960128
53.59586774
51.8257527
51.89998014
46.9046684
45.58214014
45.61767673
42.45577886
41.63267242
41.63092748
39.72165084
39.2304803
39.21870607
38.11307345
37.36503578
37.34318604
36.88065154
36.47136282
36.46533786
36.11906285
35.79519049
35.80999298
55.22234949
56.4330439
56.93019771
52.73686002
51.10526047
51.36806199
46.53860205
45.28779975
45.39390087
42.31797798
41.54242099
41.57725434
39.71849006
39.24854319
39.24946041
38.13528169
37.38407226
37.37904582
36.88999195
36.46769051
36.47151354
36.09950047
35.76182522
35.78119994
53.66429244
54.37329248
54.87768273
51.10175982
49.65368908
50.06045609
45.73526274
44.65656638
44.84559476
42.02234904
41.32115078
41.38482447
39.65912171
39.22568432
39.23383248
38.12289039
37.37322178
37.38147366
36.87473353
36.44257805
36.45803391
36.06210901
35.71497973
35.741073
52.36109742
52.45287351
52.92818298
49.18198784
47.95031135
48.37205729
44.73102032
43.84253137
44.04405634
41.64577795
41.04985561
41.1183534
39.58730292
39.17435946
39.19359691
38.0606423
37.32249866
37.35458673
36.81844991
36.38317768
36.4157482
35.99794464
35.65029591
35.68591069
50.86880544
50.57885043
51.04430093
47.50226208
46.49161823
46.81060614
43.89061719
43.1645873
43.3082868
41.33884787
40.81757085
40.87443665
39.45155182
39.05380982
39.08938015
37.94750978
37.22891672
37.28012141
36.72965863
36.29719487
36.34267155
35.91251673
35.56714421
35.61140405
49.48943052
49.02780415
49.35183159
46.45549228
45.61470301
45.77374456
43.39157425
42.74832785
42.8464444
41.0607015
40.56853833
40.63315877
39.26817379
38.88656895
38.93144683
37.8006286
37.10523515
37.1702282
36.61567307
36.18888621
36.24510265
35.80837803
35.46776976
35.51997485
48.31328587
47.9544961
48.21157879
45.77629269
45.01932013
45.16413721
42.96511602
42.36247226
42.45762638
40.76990253
40.30238632
40.36962391
39.05999227
38.69348617
38.74339
37.63244194
36.96046111
37.03501065
36.48267313
36.06283918
36.12745993
35.68859069
35.35406434
35.4132268
47.22611918
46.98348556
47.2184721
45.14484744
44.46342907
44.59913547
42.56109889
41.99291163
42.08356905
40.47981697
40.03300406
40.10018103
38.84037311
38.4871813
38.53952255
37.45181022
36.80150353
36.88239872
36.33563945
35.92345153
35.99430936
35.5563797
35.2286028
35.29338085
46.21442066
46.08717051
46.30524146
44.55212084
43.94004042
44.06814038
42.17898522
41.64181495
41.7279217
40.19705444
39.76767952
39.83339191
38.61719346
38.27537965
38.32854667
37.26476116
36.63350989
36.71837599
36.17873809
35.77455865
35.84980636
35.41479274
35.09375043
35.16299705
45.26581371
45.24932393
45.45395829
43.99194079
43.44410733
43.56574853
41.81551401
41.30746693
41.38962283
39.92421417
39.50985905
39.57352318
38.39512572
38.06292489
38.1159141
37.07525951
36.46025742
36.5473456
36.01548314
35.61917919
35.69738517
35.26644621
34.95206087
35.02446497
44.37477881
44.45720692
44.65148399
43.45924003
42.97157918
43.08771026
41.46776546
40.9874163
41.06620332
39.66152916
39.26060347
39.32210901
38.17680193
37.85276206
37.90498135
36.88589229
36.28454993
36.3725707
35.84861568
35.45968128
35.53972407
35.11349296
34.80519625
34.88002326
43.53316354
43.70353926
43.88860967
42.94976667
42.51901991
42.63045961
41.13357837
40.67968611
40.7555562
39.40828156
39.01976793
39.07921767
37.96350923
37.64651484
37.69766001
36.69826059
36.10835176
36.19641952
35.68012592
35.29786229
35.37889916
34.95764821
34.65521139
34.73136741
42.72897012
42.98340303
43.16061762
42.45990153
42.08342822
42.19087673
40.81115819
40.38267016
40.4559945
39.16352861
38.78674254
38.84430235
37.75568914
37.44491381
37.4948587
36.51332703
35.93298841
36.02050136
35.51142136
35.13507746
35.21646984
34.80021733
34.50277646
34.58007477
41.95399838
42.29458086
42.46389879
41.98669981
41.66229224
41.76634693
40.49895897
40.09501214
40.16612009
38.92638317
38.56083934
38.61668717
37.55336612
37.24820509
37.29692427
36.33160782
35.75932347
35.84590523
35.34347337
34.97230734
35.05360332
34.64222345
34.34974495
34.42710804
41.20392121
41.63279935
41.79611443
41.52760872
41.25341414
41.35458627
40.19555617
39.81546044
39.88464814
38.69598938
38.34134076
38.39565027
37.35631878
37.05633384
37.10385559
36.1533486
35.58789408
35.67330608
35.17693819
34.81027152
34.89113934
34.4843747
34.19568242
34.27359243
40.4766242
40.99193803
41.15048173
41.08063895
40.85500353
40.95371093
39.89973001
39.54293429
39.61046256
38.47158849
38.12759063
38.18052471
37.16424652
36.86912437
36.9155041
35.97864413
35.41902608
35.50312946
35.0122555
34.64946311
34.72967168
34.32727165
34.0428456
34.1198483
39.76899795
40.36731838
40.52202521
40.64408294
40.46556913
40.562163
39.61040576
39.27646603
39.34256699
38.25246988
37.91895804
37.9706723
36.97678638
36.68631103
36.73162136
35.80747905
35.25286962
35.33561228
34.84970667
34.49025547
34.56964958
34.1712381
33.88929612
33.96686364
39.08037756
39.75801465
39.90901064
40.21677251
40.0839748
40.1786911
39.32671354
39.01525861
39.08010773
38.03802148
37.71488984
37.76550867
36.79358479
36.50761524
36.55192096
35.63975828
35.08953496
35.17087983
34.68946978
34.33287146
34.41137074
34.01667577
33.73872055
33.81436588
38.41083245
39.16267765
39.3102774
39.79770777
39.70932727
39.80238522
39.04790713
38.75861639
38.82238231
37.82768203
37.5148683
37.56452022
36.61426991
36.3327198
36.37610488
35.47531609
34.92907855
35.00906495
34.53158348
34.17744595
34.25512007
33.86357235
33.58653774
33.66359999
37.75915122
38.5806274
38.72507434
39.3861059
39.34086971
39.43243273
38.77337555
38.50596103
38.56877557
37.6209655
37.31843882
37.36722947
36.43849799
36.16132639
36.20385896
35.31407785
34.77129619
34.85030092
34.37590346
34.02381707
34.1010878
33.71210494
33.43958256
33.51356137
37.12436473
38.01182664
38.15354893
38.98163477
38.97816685
39.06837647
38.50266324
38.25685355
38.31882273
37.41748481
37.12523473
37.17325247
36.2659875
35.99319428
36.03493563
35.15585534
34.61548941
34.69478359
34.22174869
33.87142049
33.94985066
33.56138124
33.2876784
33.36659488
36.5046994
37.45474169
37.59680752
38.58396031
38.62030924
38.71002849
38.23528927
38.01085766
38.07218827
37.2168807
36.93491546
36.98225995
36.09646276
35.82807495
35.86909015
35.00039363
34.45912707
34.54366301
34.06669263
33.71786701
33.80262526
33.40953944
33.14245986
33.2213814
35.89261574
36.90146536
37.05991595
38.18612884
38.26132144
38.36038369
37.96759599
37.76494249
37.8298197
37.01730709
36.74587337
36.79448827
35.92877765
35.66492232
35.70638772
34.8394194
34.29116358
34.40202494
33.90015031
33.55267812
33.66368434
33.24529065
32.97259393
33.08590877
55.11543219
56.05543454
56.08870657
50.38438194
46.46675069
46.92755287
39.87705036
39.72737792
42.21493216
56.09593449
56.11652211
55.19072652
57.51228817
57.67790467
54.04092999
53.71684247
50.18230495
41.54937669
41.02494391
39.6065109
40.46031068
40.46057815
39.93425192
42.99097867
41.92569525
51.91193577
54.80651892
54.48662126
40.56315381
40.49117854
45.44931095
45.33199403
46.67692136
43.13100616
44.16323201
44.25591732
41.47277801
41.41900896
42.2229204
40.07486863
40.70387706
40.75859608
39.07428945
39.03599958
39.52175313
38.23621349
38.60958289
38.64421186
52.04183834
51.39985363
46.90384673
56.49575291
54.5847762
55.00861805
53.66458838
54.13462307
56.21294755
51.95427355
51.92334076
53.74840489
48.47412419
50.16699806
50.17786009
50.07515471
50.14077688
48.45368122
45.60891586
45.59349346
46.93928984
43.36273653
44.40683845
44.4195719
44.32460597
44.36525865
43.30440243
41.62806484
41.59595271
42.42613657
40.22553259
40.86665071
40.90179706
40.80606391
40.85268989
40.21460776
39.19632375
39.17354827
39.66387776
38.36078369
38.74261397
38.7623884
38.68210686
38.7141043
38.33376205
57.58716153
57.66812538
55.89492872
58.26709697
58.24248733
58.2627761
51.57194801
51.71482523
53.47622409
48.33545851
49.98182912
49.85362538
50.1453914
50.07421871
48.40648217
45.47670874
45.53531227
46.85373273
43.33672898
44.36944102
44.32580153
44.42125451
44.41838233
43.38283989
41.60159541
41.63085017
42.43114624
40.2888945
40.9184547
40.89550389
40.90480906
40.91344152
40.27945061
39.2510438
39.24081068
39.73143458
38.43807233
38.81388139
38.82879917
38.78514515
38.80024535
38.42294942
49.95758218
49.90126816
55.39378801
55.91638946
54.73010793
53.92904021
55.34521086
54.86081449
56.23055195
55.80515088
54.33617304
50.44360135
50.79454486
52.38141209
47.73322153
49.21793292
48.91899757
49.69404877
49.47962994
47.93991793
45.01547468
45.16110128
46.38113678
43.11300629
44.07666109
43.96001507
44.2620916
44.1783166
43.1928376
41.44418752
41.49748167
42.25693156
40.23143321
40.82537225
40.78741019
40.88018786
40.85682168
40.25157836
39.24037957
39.24554481
39.70756691
38.47286977
38.8392083
38.83838214
38.83264401
38.83740346
38.46921076
51.15596299
50.86855416
53.40114158
53.88314557
53.36212601
51.99155271
53.29901661
52.75417708
54.35547321
53.83368279
52.51122234
48.80206553
49.23188265
50.62876674
46.6239099
47.87684332
47.50766928
48.59054822
48.24049628
46.92727562
44.25027248
44.45625408
45.48656644
42.68697125
43.5256524
43.36188195
43.83075745
43.68387647
42.8089151
41.18841998
41.25727945
41.93325348
40.11751854
40.6537557
40.60777023
40.74482896
40.69927419
40.14781831
39.20733067
39.21687182
39.64223408
38.4642208
38.8266909
38.81846299
38.83682165
38.83344992
38.47011599
51.35417173
51.4334121
51.52076524
51.99112732
51.97573832
49.89134212
51.09771767
50.56390222
52.20114633
51.64699481
50.4026341
47.1629543
47.54496102
48.72014592
45.42084966
46.43754087
46.11440958
47.1404338
46.78160216
45.7078853
43.47084834
43.6501441
44.49417024
42.18696085
42.88307071
42.74102241
43.19732034
43.0363955
42.30611706
40.92894118
40.98620459
41.55611699
39.99880342
40.4711223
40.42780721
40.56007829
40.51447008
40.03135909
39.12167124
39.15018864
39.55960981
38.41204036
38.76823094
38.74276078
38.80654327
38.78967724
38.4316042
50.36715126
50.6644452
49.72378852
50.13375302
50.50688559
48.15215739
49.15767537
48.78259641
50.05594494
49.58582194
48.5289747
45.96896827
46.21167214
47.17174231
44.49085405
45.31590856
45.11556573
45.81713099
45.54957088
44.6837489
42.94488267
43.04579719
43.73566627
41.82154156
42.41116262
42.32359681
42.61279896
42.50298374
41.8982621
40.69646532
40.75807759
41.27164763
39.8292955
40.2781499
40.22295692
40.38109806
40.33102495
39.87654516
38.9744846
39.01538686
39.40907417
38.30119769
38.64652084
38.60912408
38.71368817
38.68149737
38.33337025
49.11584241
49.43104828
48.47535085
48.74648093
49.18587518
47.11681704
47.95455545
47.72961571
48.45315905
48.18527667
47.31645638
45.31154617
45.46167549
46.28028795
43.96028235
44.68599256
44.55286498
44.96011057
44.82143063
44.08122427
42.55374159
42.65069477
43.28306447
41.506525
42.05960382
41.97177
42.23576013
42.14767493
41.5861668
40.43652769
40.50290725
40.98850537
39.61965804
40.04735806
39.98652483
40.16585716
40.10722337
39.67446755
38.79232261
38.84012296
39.21780804
38.15196333
38.48522721
38.4408092
38.5696008
38.52821574
38.19202038
47.89477776
48.19304322
47.45837434
47.70358025
48.03371113
46.35797993
47.07808994
46.86852425
47.50857493
47.29141402
46.54268607
44.7369403
44.87696347
45.61440037
43.4943782
44.16687194
44.04239846
44.42201377
44.29337744
43.60813266
42.17539131
42.26837235
42.86193862
41.18834989
41.71134735
41.62597421
41.88435423
41.79750594
41.26749727
40.1675365
40.23497782
40.69697239
39.39115421
39.80032772
39.73759389
39.92494972
39.86282773
39.44927922
38.59142057
38.64278957
39.00578298
37.97904759
38.300947
38.25259195
38.39519714
38.34850546
38.02389714
46.74649722
47.02707039
46.52715562
46.75315273
46.96663769
45.64933447
46.26125687
46.06558875
46.6626116
46.46021373
45.82218349
44.19802175
44.32975881
44.99330292
43.05634685
43.68015726
43.56285102
43.91985319
43.7991259
43.16344272
41.81511702
41.90343757
42.46363437
40.87737046
41.37516887
41.2934543
41.54145717
41.45783794
40.9541212
39.89954941
39.9661062
40.40828358
39.15580721
39.54913825
39.48654972
39.67474972
39.61189529
39.21484603
38.38161339
38.43452274
38.78468801
37.79232931
38.10414624
38.0538279
38.20362718
38.15408883
37.83988473
45.66405997
45.92898014
45.66173192
45.87272864
45.97185667
44.9838507
45.4970112
45.31320714
45.87307738
45.68359577
45.14653868
43.68890973
43.81365285
44.40923599
42.64209934
43.22019572
43.10886343
43.44713171
43.33293275
42.74367138
41.47270657
41.55675735
42.0864979
40.57798141
41.05398044
40.97598638
41.21269308
41.1328743
40.65166005
39.6377232
39.70244818
40.1278763
38.92047107
39.30040402
39.23905062
39.4241954
39.36213116
38.97905724
38.16901221
38.22218717
38.56144061
37.5985599
37.90161127
37.85064051
38.00326872
37.95249192
37.64736189
44.63884938
44.89034225
44.84824139
45.04751463
45.03732891
44.35507565
44.77722059
44.60332562
45.13204872
44.95343051
44.50916587
43.20513744
43.32391367
43.85635472
42.24764688
42.78275751
42.676537
42.998881
42.89019839
42.34458348
41.14578577
41.22619335
41.72718908
40.29089023
40.74710222
40.67241736
40.89886269
40.82258018
40.36155626
39.38414929
39.44672947
39.85760489
38.68892851
39.05747623
38.9978399
39.17809884
39.1175707
38.74633708
37.95742705
38.01008447
38.34012026
37.40237027
37.69783908
37.6470573
37.79967287
37.74871496
37.4514502
43.65924117
43.90009162
44.07584502
44.26535385
44.16035794
43.75729786
44.09435299
43.92863803
44.43161235
44.26198385
43.90412654
42.74300225
42.85669314
43.32984697
41.87012689
42.36467722
42.262856
42.5714778
42.46753777
41.96305261
40.83211857
40.9093971
41.38302208
40.01515083
40.45279055
40.38097683
40.59848725
40.52528616
40.08309396
39.13916694
39.19962585
39.59736904
38.46302241
38.82167998
38.76387941
38.93865985
38.87993947
38.51892292
37.74908804
37.80079495
38.12297976
37.20670514
37.4956539
37.44555688
37.59642598
37.54594087
37.2554477
42.72190042
42.95253364
43.33959527
43.52059167
43.32891356
43.18553269
43.44226746
43.28349363
43.76476633
43.60266473
43.32627007
42.29926321
42.40863951
42.82558907
41.50723934
41.96323799
41.86518404
42.16203327
42.06217217
41.59670216
40.52992301
40.60448567
41.05193531
39.74947148
40.16939958
40.10008757
40.30982069
40.23930131
39.81501504
38.90231796
38.96080751
39.34633407
38.24337372
38.5931823
38.53716037
38.7065327
38.6496353
38.29769257
37.54510673
37.59566571
37.9110364
37.01331129
37.29665066
37.24749386
37.39569019
37.34604338
37.0613717
41.8220787
42.04376383
42.63501018
42.80809919
42.53290243
42.63577428
42.81643804
42.66348096
43.12630665
42.97066538
42.77133091
41.87119864
41.97688112
42.34014609
41.15699294
41.57606395
41.48125559
41.76799747
41.67163414
41.24346621
40.23775297
40.30993006
40.73220851
39.49267626
39.89556499
39.82846215
40.03136042
39.96319174
39.55609876
38.6729463
38.72962793
39.10356369
38.02998243
38.37165699
38.31731132
38.48157371
38.42640822
38.08275421
37.34594697
37.39527801
37.70459937
36.82315204
37.10162966
37.0535412
37.1986104
37.1499814
36.87034362
40.95314329
41.16775763
41.96080064
42.1269227
41.76420189
42.10466579
42.21234031
42.06447316
42.51181827
42.36144512
42.23586037
41.45644777
41.55900301
41.87069376
40.81764067
41.20110292
41.10905215
41.38717796
41.29380248
40.90154788
39.95429814
40.0244112
40.42233614
39.24373789
39.63011869
39.56494008
39.76186421
39.69575465
39.30529026
38.45033495
38.50539255
38.86818416
37.82257998
38.1566145
38.10380154
38.26336114
38.20979803
37.87389099
37.15167643
37.19979125
37.50362179
36.63671831
36.91092995
36.86393721
37.0057327
36.95819048
36.68295475
40.1118129
40.31962783
41.31001859
41.47080635
41.02016307
41.58950861
41.6279016
41.48464821
41.91778884
41.77229779
41.71691092
41.05300046
41.15289426
41.41480009
40.48759667
40.83652704
40.74682532
41.01761283
40.92678203
40.56930956
39.67838328
39.74671104
40.12093431
39.00169795
39.37198046
39.30847801
39.50019405
39.43588107
39.06160727
38.23378809
38.28739035
38.63935641
37.62075184
37.94748594
37.89606578
38.05134276
37.99924207
37.67070866
36.96216224
37.00910504
37.30784833
36.45418545
36.72459521
36.67868485
36.81721743
36.77076841
36.49943997
39.2979495
39.49884143
40.67769088
40.83433234
40.29794097
41.08821026
41.06135713
40.92259178
41.34233105
41.20123043
41.2123916
40.65924933
40.75685662
40.97058411
40.16553257
40.48083105
40.39314144
40.6576548
40.56899607
40.24536677
39.40899989
39.47578487
39.82682788
38.76572236
39.12021724
39.05817239
39.24535819
39.18260837
38.82419161
38.0226737
38.07497702
38.41634016
37.42406724
37.74372984
37.69356761
37.84497141
37.79419508
37.47278167
36.77718768
36.82302125
37.11696411
36.27557839
36.54254112
36.49767521
36.63304379
36.58766011
36.31985869
38.51042061
38.70490936
40.06084273
40.21359391
39.59509478
40.59888071
40.51213828
40.37709039
40.78484586
40.64803691
40.72011579
40.2738529
40.36947467
40.53642556
39.85030587
40.13274601
40.04679565
40.30590936
40.21910894
39.92852211
39.14525162
39.21070096
39.53898652
38.53504482
38.87398424
38.81320725
38.99646016
38.93506254
38.5922533
37.81638771
37.86753502
38.19844339
37.23207039
37.5448069
37.49577583
37.64369866
37.59411002
37.27965254
36.59646868
36.64126425
36.93060179
36.10080774
36.36458513
36.32071278
36.45306581
36.40869786
36.14414066
37.74756466
37.93591738
39.45864312
39.60791066
38.91130098
40.12080757
39.97675695
39.84479352
40.24287248
40.10942927
40.23933759
39.89583609
39.98969393
40.11128887
39.54101285
39.79128911
39.70686257
39.9612443
39.87607917