/*--------------------------------*- C++ -*----------------------------------*\
| =========                 |                                                 |
| \\      /  F ield         | OpenFOAM: The Open Source CFD Toolbox           |
|  \\    /   O peration     | Version:  v2012                                 |
|   \\  /    A nd           | Website:  www.openfoam.com                      |
|    \\/     M anipulation  |                                                 |
\*---------------------------------------------------------------------------*/
FoamFile
{
    version     2.0;
    format      ascii;
    class       volScalarField;
    location    "1.93";
    object      omega;
}
// * * * * * * * * * * * * * * * * * * * * * * * * * * * * * * * * * * * * * //

dimensions      [0 0 -1 0 0 0 0];


internalField   nonuniform List<scalar> 
3019
(
802.3619692
148.2661992
70.89897953
45.45805072
36.44803208
33.14906679
31.65690605
31.08106368
30.71704932
30.57413215
30.49588747
30.45428445
496.6337464
138.0709157
68.91103129
44.89991928
36.41842915
33.22276686
31.66639377
31.04776378
30.65132509
30.49450486
30.40686753
30.36051396
355.4177854
127.1796034
65.2347857
43.95919493
36.23927656
33.24058867
31.65246839
31.00713858
30.58641465
30.41775416
30.32104337
30.27067509
292.5163347
111.8959653
60.42441429
42.67454861
35.9902936
33.19824933
31.61448131
30.9573484
30.51718379
30.33931914
30.2358548
30.18174897
209.2839262
93.45665556
55.24522587
41.37695732
35.78434893
33.12269978
31.55664053
30.89785817
30.44455165
30.26000661
30.15024867
30.09320125
156.3940932
78.84607216
51.41472532
40.58293621
35.61274407
33.02359985
31.48102255
30.82541376
30.36357457
30.17410545
30.0606913
30.00096515
130.3507695
71.70540315
49.90681348
40.23162672
35.42890324
32.90724786
31.3925822
30.74286588
30.27693931
30.08463666
29.96852315
29.90724192
123.3099191
70.36289368
49.28138056
39.91343047
35.24440236
32.78111994
31.29458722
30.65144235
30.18236543
29.98789085
29.87001707
29.80785415
119.1932532
69.40236194
48.79602764
39.63060163
35.06560375
32.65031015
31.18956362
30.5525317
30.08334236
29.88835792
29.76959998
29.70702182
115.8321513
68.60834544
48.44208255
39.3884981
34.89661883
32.51848151
31.07952749
30.44762214
29.97720787
29.78143639
29.66221431
29.59968984
113.0252705
67.93410427
48.18430614
39.19022321
34.74073375
32.38846385
30.96633177
30.33814334
29.86923062
29.67414547
29.5550101
29.49277415
110.6318174
67.35343777
47.98914652
39.0326586
34.60004153
32.26238197
30.85163767
30.22546134
29.75508263
29.5594809
29.44041724
29.37870462
108.5553599
66.84934686
47.83656124
38.90854515
34.47480661
32.14156814
30.73674901
30.11069241
29.64222185
29.4477979
29.32920639
29.26807768
106.7276456
66.40851173
47.7154554
38.81050522
34.36385739
32.02655741
30.6225694
29.99482785
29.52308347
29.32768107
29.20922698
29.14876008
105.099133
66.02042406
47.61927185
38.73282954
34.26550143
31.9173697
30.50970712
29.87854255
29.40890269
29.21488192
29.0969574
29.03712032
103.6305613
65.67631823
47.54316701
38.67122784
34.17802385
31.8137472
30.39852898
29.76248828
29.28649386
29.09059302
28.97263905
28.91342602
102.2885028
65.36725494
47.48274145
38.62238029
34.0999062
31.71534733
30.28927058
29.64694731
29.17406984
28.97973359
28.86220518
28.80354049
101.0431634
65.08467558
47.43418843
38.5837008
34.0298367
31.6218019
30.18207941
29.53241618
29.04855914
28.85121675
28.73342495
28.67526338
99.87293619
64.8221005
47.39446283
38.55310443
33.96667949
31.53275612
30.0770623
29.41889656
28.94116014
28.74557101
28.62801154
28.57025105
98.76194848
64.57407598
47.36070547
38.52874416
33.90943102
31.44786394
29.97430154
29.30693584
28.81083126
28.61119341
28.49316341
28.43575688
97.69458048
64.33451709
47.32997337
38.50891861
33.85717997
31.36678307
29.87391339
29.19630168
28.71303866
28.51496432
28.39687415
28.33970345
96.65745311
64.09762453
47.2995324
38.49209346
33.80910236
31.28922479
29.7761738
29.08801561
28.57323809
28.37103156
28.25232978
28.19536794
95.64088262
63.85856432
47.26700181
38.47689338
33.76443248
31.2148524
29.68180356
28.98212599
28.49269048
28.29002499
28.17091822
28.11401228
94.64217176
63.61535992
47.23072895
38.46222475
33.72262842
31.14351914
29.59272764
28.88197755
28.31347474
28.10589228
27.98563256
27.9287507
982.9368866
837.997497
180.0113874
612.376996
962.7178387
518.569727
175.0533274
178.0079257
464.5785945
603.2451776
343.3819229
702.6954021
721.9623234
634.6198483
303.4691884
331.3756032
1385.671613
849.265532
1527.515546
1157.172287
602.1710476
807.8644651
371.9114368
160.1577994
171.3883724
525.2808023
578.9820682
1085.769479
277.7999644
294.4234396
617.4791734
559.8755531
6200.4591
2327.561365
1316.969542
650.2447219
4830.876414
3542.432038
1163.627972
4976.678467
6074.613228
3499.167925
4744.577386
6449.933639
2294.529147
3150.858891
1574.963637
2049.102938
5797.186808
6410.61506
2050.224555
6144.461418
5362.616764
163.1397766
84.05875664
1109.367032
3214.954074
2339.890087
4584.653054
2956.374479
1499.152761
859.9363601
6226.327963
6558.599702
6696.460229
5575.722395
6393.34328
1212.634817
1442.602969
5937.629763
5444.687592
6009.869481
5566.377869
6323.350221
6275.577903
6140.158198
3921.986844
5451.419508
4995.623607
6092.083164
6296.469988
4327.535478
4617.103947
5051.796318
6353.632141
5228.582467
3855.157383
4168.442914
5968.072565
4611.533234
4858.589892
3760.438515
4201.578205
6143.313555
71.5209627
49.605385
45.45500743
37.88711062
36.40712175
33.66438313
712.955568
470.3031086
507.6766599
141.0240934
80.85175906
83.30572103
69.25601608
48.9855034
49.55707068
45.08872272
37.88197285
37.92571737
36.44492354
33.75682354
33.69882654
451.3610836
247.6713178
271.6173626
130.1108337
76.64446534
80.16718836
66.21682891
47.78303488
48.70789767
44.21593612
37.60759147
37.82043852
36.29811023
33.78378881
33.77160193
481.9685699
556.981788
312.6795443
142.8241445
156.6106158
116.2441492
70.49750639
75.32050111
61.73790253
46.09131136
47.41870228
43.01836831
37.23615993
37.52883472
36.05537055
33.74463611
33.77766815
317.6519919
443.2832437
228.0272275
118.3947026
137.1293111
97.96601067
63.19082174
68.68842499
56.47131583
44.16936072
45.60772661
41.67513749
36.84688955
37.13010063
35.82502185
33.66361072
33.7264436
204.231574
281.4708084
166.6448132
96.03221325
112.2023076
81.85386242
57.12872483
61.47030289
52.17904203
42.70933265
43.73377103
40.70666679
36.61541823
36.77602231
35.65740474
33.55782594
33.63937373
158.1244559
188.0004391
134.6964994
83.07547836
91.77236766
72.78003019
53.97220681
56.02747466
50.08706918
42.13623123
42.48935811
40.31622822
36.40332124
36.56282002
35.4752684
33.43262103
33.52779118
145.4973274
152.7545169
124.490571
79.80100484
81.43324927
70.63963634
53.14967817
53.72905095
49.42497731
41.75111027
42.03561068
39.98984526
36.19323259
36.35025561
35.29018513
33.29748776
33.3994255
140.2289135
144.0871356
120.1418764
78.3871713
79.41875753
69.62420316
52.55088239
52.98181488
48.90410644
41.41456334
41.66225846
39.69771315
35.99236128
36.14196569
35.10952603
33.15839544
33.26290068
135.8260108
139.0561906
116.613983
77.21532075
78.07525045
68.79432608
52.1208232
52.42971881
48.51999025
41.1326726
41.33873832
39.4449411
35.80518197
35.94414043
34.93775245
33.01921915
33.12349609
132.0960575
134.8374437
113.6836712
76.21733075
76.95152386
68.09309639
51.80340162
52.03306212
48.24181644
40.90848044
41.07132953
39.23575127
35.63539854
35.76099094
34.77833376
32.88292735
32.98477779
128.8838737
131.2504714
111.1973863
75.35401868
75.99024483
67.49087078
51.55596491
51.73618329
48.03336593
40.73584014
40.86091928
39.06860366
35.48536042
35.59600795
34.63374441
32.75195931
32.84961691
126.0689984
128.1472565
109.0489619
74.5998601
75.1562219
66.96898234
51.35649547
51.50223053
47.87143344
40.60365375
40.69947123
38.93686893
35.35504322
35.45099733
34.50471632
32.62787502
32.72026306
123.5664411
125.4171997
107.1642607
73.93588831
74.42624521
66.51342997
51.19337861
51.31270438
47.74319208
40.50173545
40.57569631
38.83291429
35.24253035
35.32535401
34.39034569
32.51123721
32.59802088
121.3181063
122.983049
105.4899512
73.34696463
73.7822927
66.11300613
51.05953221
51.15745817
47.64126404
40.42283208
40.48010574
38.75059588
35.14532328
35.21690426
34.28900734
32.40193595
32.48324538
119.2751145
120.7902405
103.984684
72.82107486
73.21018534
65.75872728
50.9497058
51.03008342
47.56056606
40.36186332
40.40610389
38.6853213
35.06103139
35.12313879
34.19896359
32.29951904
32.37571402
117.3980776
118.7922515
102.6139619
72.34666503
72.69826066
65.44175231
50.85890169
50.92548017
47.49660856
40.3149591
40.34897768
38.63355227
34.98759539
35.04173825
34.118635
32.20343078
32.27492988
115.6503172
116.9508658
101.3467847
71.9120876
72.23486908
65.15324718
50.7824469
50.83867244
47.44539618
40.27910191
40.30509013
38.59254059
34.92330745
34.97073956
34.04666583
32.11312371
32.18033968
114.0035215
115.2307274
100.1592652
71.50798648
71.80865346
64.88617542
50.71660429
50.76518567
47.40372764
40.25190906
40.27160545
38.56010262
34.86672576
34.90850518
33.98187886
32.02807316
32.09139414
112.4375701
113.6061762
99.03468616
71.12720279
71.4110484
64.63505689
50.65811882
50.7014907
47.36875477
40.23129512
40.24624837
38.53434914
34.81660108
34.8536495
33.92324249
31.94779113
32.00757934
110.9338212
112.0583348
97.95709195
70.76195512
71.03493002
64.39393519
50.60356063
50.64431401
47.33753494
40.21528947
40.22696646
38.51354022
34.77181053
34.80495939
33.86982196
31.87181094
31.92841522
109.4752113
110.5694328
96.91129062
70.40433449
70.6723703
64.15676923
50.54960231
50.59020562
47.30725536
40.20208761
40.2118238
38.4961003
34.73134581
34.76134144
33.82077566
31.79972785
31.85344653
108.0454186
109.1251754
95.88314867
70.04715708
70.31587441
63.91796033
50.493272
50.53593575
47.27540378
40.19006711
40.19906347
38.48060856
34.69427785
34.7218105
33.77531762
31.73111935
31.7822701
106.6249334
107.7153158
94.85601623
69.68239415
69.9595497
63.67137929
50.43172637
50.47872953
47.2396531
40.17776885
40.18711826
38.46577977
34.65972326
34.68546322
33.73267975
31.66552502
31.71446774
105.1047944
106.3367927
93.74935644
69.27887306
69.60138459
63.39503216
50.35800173
50.41684459
47.19527284
40.16303592
40.17474796
38.44953078
34.62486965
34.65162584
33.68968472
31.59866302
31.64983671
1026.9738
1226.66686
1166.821903
711.4530965
738.2138281
884.9676064
186.8884603
307.4482524
279.7588976
641.7695954
1151.388041
2084.341251
1527.362027
944.593292
407.9233966
423.541039
566.5249407
170.3580862
246.7783699
236.5555811
271.4028839
252.807157
171.719413
539.738539
608.1043723
355.9172197
491.0665609
454.5520712
508.302874
340.0772724
1813.489776
1288.206931
827.6693176
795.687271
681.5332615
747.339962
913.9036227
866.3750158
422.2233274
460.9012101
688.6080914
310.8955068
379.9851381
369.1736117
437.4886798
396.1470135
321.4917038
2089.649378
1846.684249
1301.547916
3323.936439
3558.718901
5007.280458
885.948374
1411.698196
1200.221581
1658.617909
2700.929652
2382.719903
841.6428184
887.1627182
1386.414346
623.6296109
736.7377465
708.6163558
769.8721046
649.597553
1028.062023
954.7440187
775.9352479
2797.682654
3026.820275
1169.413794
1169.599195
260.4884019
269.891913
430.8125501
163.6164389
203.4128218
198.1990993
230.2522067
209.2403037
167.3942344
540.450159
632.5532467
611.9123966
680.7037063
656.6055635
560.950037
937.2460721
770.4558458
804.9565398
281.2340176
338.9423906
332.7776829
356.6331903
348.5229787
289.2970849
583.2158504
429.9371757
449.1767874
581.0996989
816.2943255
782.5472545
2636.054734
4197.278614
3741.692121
1023.93828
1068.237833
922.4190119
952.6029032
1393.424293
668.9512027
764.4465035
746.7617876
4388.319725
2958.965982
3327.508996
2326.243027
2620.285528
3905.961869
1216.926707
1652.750909
1507.893462
2534.910626
3647.880264
3325.092713
4484.080131
4064.64835
2829.405385
1696.988713
2529.811479
2336.178899
3011.400712
2766.02091
1884.279916
3342.068573
3028.849734
1845.499969
121.6262103
122.8345773
165.1414212
84.52580394
100.5424613
99.78153338
1399.090489
1306.820021
1061.380833
2937.852801
1878.48554
2079.461355
1540.156888
1675.588066
2616.908033
1145.439218
1200.406631
1643.923483
902.7387058
995.9708489
991.2387234
1051.495358
918.7538778
2359.722923
2537.486075
1279.621727
1761.110318
1623.187022
2118.323928
1929.971203
1373.740842
33.12217733
32.13085746
31.64640568
31.31874581
31.10000938
30.94295265
768.1054758
663.1033961
685.2468455
145.9124619
118.2497337
119.5298463
70.5194236
61.51055577
61.73269345
45.27158125
42.20174042
42.28641461
36.46408523
35.32335458
35.29310214
33.2107258
32.18707013
32.16546433
31.66625598
31.31094589
31.31559334
31.06928863
30.89590102
30.92097247
481.2874518
381.1551057
393.9672413
135.3373914
111.2056104
113.0801455
67.8502926
59.6375756
60.31158925
44.75787067
41.78361034
41.9400121
36.38328528
35.30085435
35.31977638
33.24190009
32.20223985
32.20177349
31.66261383
31.28924671
31.30122745
31.03259746
30.84630259
30.87240655
343.2625237
245.9247932
252.4103924
123.9168414
102.3983558
104.9419542
64.16395394
56.89243084
57.68303365
43.66927364
41.0656572
41.26664601
36.18290812
35.19016814
35.22294604
33.21285313
32.18405216
32.19651566
31.63835669
31.25339044
31.27223814
30.98740473
30.79196267
30.82021353
270.6618238
204.3994769
216.6499066
107.3190152
89.95911271
93.32172699
59.08928989
53.23005215
54.19485236
42.3329192
40.13633213
40.37485471
35.92746256
35.04589634
35.08112655
33.14460007
32.13094907
32.16005977
31.58853826
31.20404958
31.22863376
30.93318175
30.73113974
30.76261288
192.8850173
156.9639899
167.8695125
89.21041497
76.89649008
79.94549628
54.10809717
49.65845591
50.4691365
41.11133925
39.32441681
39.49589939
35.74343222
34.91676124
34.95095664
33.05092914
32.05859153
32.09735793
31.52067805
31.13851735
31.17246435
30.86566508
30.6614619
30.69761013
147.7236755
123.254948
130.0386187
76.32769221
67.61743219
69.44608187
50.80873127
47.36542431
47.77716508
40.49094052
38.93324496
39.00787894
35.56736657
34.76570342
34.80508262
32.93786196
31.96853437
32.01541193
31.43820261
31.06031507
31.10044541
30.78749185
30.58239768
30.62287181
127.2190225
107.8193762
109.9246035
71.25721919
64.04575348
64.37985105
49.73794384
46.6405747
46.78128764
40.14901041
38.64439863
38.71486448
35.38253406
34.60280643
34.64402641
32.81348206
31.86622786
31.91862512
31.34461706
30.97143606
31.01676352
30.69985055
30.49502982
30.53956289
122.1956339
104.5513786
105.2973916
70.10294612
63.0463757
63.26405638
49.1466962
46.13795733
46.25435016
39.83923112
38.37653921
38.44126061
35.19899175
34.43765367
34.4788128
32.68336264
31.75587117
31.81184231
31.2428273
30.87389108
30.92338425
30.60409415
30.39995466
30.4482848
118.2916561
101.8732899
102.5003342
69.19074048
62.32322245
62.4859469
48.69636089
45.73767525
45.82784875
39.56605697
38.13450197
38.19233081
35.02229922
34.27571648
34.31568834
32.55145743
31.64058177
31.69868098
31.13505837
30.76965633
30.82231934
30.50166628
30.29842204
30.34985507
115.0851182
99.60959216
100.1414709
68.42988983
61.75647345
61.88740749
48.3701929
45.43836227
45.50465219
39.33484558
37.92303683
37.97281219
34.85631546
34.12067029
34.15861715
32.42073475
31.52279433
31.58186826
31.02321721
30.66060135
30.71550225
30.39404737
30.19142358
30.24552921
112.3928752
97.67583553
98.13237657
67.78102742
61.28808768
61.3977195
48.13067301
45.21906274
45.26782165
39.14727668
37.74504031
37.78640261
34.70410004
33.97541672
34.01068622
32.29349298
31.40449724
31.46360141
30.90908303
30.54834212
30.60469419
30.2826206
30.08051536
30.13642416
110.0863133
96.00353822
96.40004523
67.2208859
60.89141887
60.984742
47.947585
45.05533506
45.0921262
38.99881809
37.59906111
37.6327822
34.56731843
33.84183341
33.8740871
32.17127151
31.28724562
31.34566471
30.79415366
30.43422681
30.49138133
30.16863078
29.96645734
30.02391212
108.0775671
94.54241027
94.89017045
66.7337566
60.55195171
60.63206632
47.80367416
44.93009447
44.95844492
38.88185763
37.48039458
37.50779662
34.44579917
33.72035948
33.74961753
32.05478223
31.1720697
31.22935495
30.67952688
30.31930611
30.37676778
30.05310942
29.85076237
29.90887433
106.3037825
93.25266483
93.5608256
66.30698248
60.25928296
60.3285136
47.68930733
44.83311659
44.85509104
38.78937784
37.38381936
37.40614671
34.33816288
33.61032786
33.63682066
31.94414944
31.05955542
31.11545634
30.5659465
30.20438003
30.26177018
29.93688754
29.73356742
29.79245945
104.718605
92.10295896
92.37868107
65.93069683
60.00557528
60.06572001
47.59857279
44.75818665
44.77511683
38.71607999
37.30497276
37.32322606
34.24268194
33.51062006
33.5346464
31.83916403
30.9499858
31.00439521
30.45388735
30.09001673
30.147077
29.82060235
29.61642292
29.67509993
103.2846788
91.06750573
91.31693832
65.59620844
59.78385118
59.83666889
47.52678641
44.70069474
44.71365733
38.65794655
37.24037921
37.25535213
34.15767811
33.42003196
33.44188624
31.73948797
30.84346243
30.89634471
30.3436404
29.97662878
30.03316996
29.70472213
29.49862578
29.55775506
101.9693026
90.12218475
90.35131213
65.29449957
59.58690687
59.63419189
47.46965181
44.65672531
44.66663649
38.61185894
37.18729807
37.19961627
34.08168769
33.33746102
33.35740868
31.64476151
30.73999646
30.79135789
30.23538678
29.86449143
29.92039079
29.58960734
29.38214978
29.44035782
100.7443352
89.24533877
89.45908375
65.01743943
59.40836001
59.45154839
47.42357092
44.62310195
44.63068523
38.57538231
37.14355696
37.15372054
34.01344563
33.26191864
33.28019658
31.55462435
30.63953422
30.68941643
30.12923023
29.75381871
29.8089978
29.47549466
29.26513645
29.32389659
99.59023075
88.4214253
88.62314061
64.75903522
59.24341429
59.28360947
47.38561218
44.59720987
44.60309579
38.54651359
37.10735777
37.11579145
33.95185748
33.19253287
33.20934743
31.46872682
30.54201625
30.59047385
30.02522557
29.64472584
29.69917808
29.36259447
29.15067131
29.20778858
98.49117631
87.63795364
87.83088112
64.51370045
59.08748994
59.12589151
47.35288441
44.57650549
44.58133485
38.52344045
37.07709733
37.08418811
33.89594043
33.12850775
33.14405275
31.38671765
30.44735033
30.49450428
29.92333805
29.53727142
29.59111325
29.25093655
29.03498064
29.09337753
97.43123861
86.8820786
87.06967626
64.27527487
58.93562212
58.97347707
47.32246697
44.55848365
44.56286646
38.50450269
37.05132704
37.05742264
33.84480768
33.06912044
33.08356936
31.30831063
30.35530288
30.40151043
29.82341261
29.43130131
29.48496424
29.14050132
28.92328364
28.9794176
96.39606539
86.14196772
86.32818372
64.0379747
58.78320789
58.82168227
47.29169828
44.54086844
44.54535222
38.48820531
37.02874288
37.0341579
33.79765059
33.01370824
33.02722464
31.2331673
30.2653498
30.31156462
29.72497763
29.32642217
29.38111047
29.03077262
28.808065
28.86827242
95.37095855
85.40575259
85.59792746
63.79619429
58.62593429
58.6666027
47.25819343
44.52162533
44.52673434
38.47320205
37.00816323
37.01318874
33.75370823
32.96163364
32.97438185
31.16089858
30.17607348
30.22524048
29.62675449
29.22128572
29.28031052
28.92051236
28.6976318
28.75822099
94.33463831
84.65594094
84.87656457
63.54183964
58.45786647
58.50639762
47.21939111
44.49871097
44.50547999
38.45814529
36.98834324
36.99356489
33.71192351
32.91188892
32.92462464
31.08689468
30.08107379
30.14481728
29.52135848
29.10786969
29.18471343
28.80079795
28.56834327
28.65526351
182.0043656
205.7774966
202.9398065
627.8621959
717.3732628
703.5700108
1095.081258
1078.291239
908.9029064
199.6396364
197.3075542
175.6597945
404.8458109
359.9988836
558.9829397
571.6536649
649.2299257
976.5509157
1018.545372
1215.596316
1694.191534
1804.647868
1069.952901
906.4024685
956.599348
606.0741412
535.3913991
546.9944043
1457.873471
1557.608867
62.12941542
62.17376783
71.67978478
49.59216895
55.03769557
55.03917739
42.26889435
42.26772789
45.44702114
37.87844125
39.79158068
39.8023663
35.25880697
35.23158683
36.38998991
33.63492738
34.33436384
34.35943467
622.7307557
640.9876533
738.1262332
482.3251901
554.9468749
540.8777162
590.9759806
573.3094469
494.5515644
115.22123
116.1421451
142.6576662
81.88022289
96.64718498
95.70418646
98.69334961
97.85819167
82.6395899
60.66087774
61.14666696
70.01461287
49.25006293
54.38037586
54.09008578
54.86856134
54.63628698
49.30712605
42.07185703
42.13058989
45.24383707
37.88029346
39.73383274
39.71646333
39.82236747
39.80675231
37.92909092
35.32107294
35.31973166
36.43944303
33.74708565
34.44329299
34.44387728
34.39946249
34.42184462
33.72440647
359.596947
370.7343412
460.9544794
321.5446113
315.9440628
265.1547013
107.2459417
109.2889274
132.8068515
77.84934558
91.46289461
89.90214153
94.32152638
92.8989803
78.92050153
58.39349324
59.01984271
67.08331488
48.10039647
52.84662273
52.39961258
53.69381517
53.40588898
48.5685399
41.44423667
41.67339132
44.47481484
37.73416365
39.46914917
39.28998565
39.62184939
39.51831024
37.75689256
35.26620706
35.27843015
36.36086577
33.78176748
34.4438661
34.44054282
34.45112999
34.44624698
33.77667229
513.1407072
534.4184198
228.0093761
237.8903445
329.9421133
147.9998309
183.3052588
176.6446675
193.7661248
189.0063978
152.5955502
96.55810977
99.59852435
120.2720932
72.23056932
84.08560232
81.79095045
88.17415485
86.22052501
73.85221411
55.14153948
56.04379677
62.99554989
46.56256525
50.69366316
50.04081787
51.8865322
51.31464164
47.00848538
40.61255597
40.84582676
43.35260994
37.34067985
38.88438756
38.72581898
39.17016143
39.03420074
37.43954758
35.11676267
35.15477518
36.12102802
33.75810348
34.3866009
34.36570801
34.4208991
34.40505627
33.77064684
358.1919766
400.9350678
179.578241
191.8723941
248.728459
124.7355492
152.5954332
144.1004089
169.1423707
161.0354678
131.0428548
83.18712571
86.55395491
102.6324269
64.99374353
74.36801788
71.89972259
79.37219063
76.87890465
66.84034778
51.34661095
52.27372273
57.76186949
44.63576766
47.98840693
47.32653392
49.3657974
48.67435612
45.12207821
39.69322772
39.91091414
41.99815233
36.9303582
38.25238832
38.11351849
38.56395976
38.40417208
37.02709053
34.98323955
35.01436807
35.87269307
33.68596957
34.29717835
34.27050862
34.34458016
34.32200165
33.70806711
225.0869816
250.565194
137.9823137
146.9636746
178.7007074
100.8960213
120.5395446
113.9363871
135.7864212
127.8819017
106.325884
71.60642007
74.10676223
85.32341487
58.41229592
65.27516207
63.46505052
69.52915804
67.30660774
59.86899366
48.29898079
48.93151311
53.07968323
42.99488496
45.62607011
45.19506201
46.7033501
46.13281428
43.33922227
39.08515591
39.18632277
40.88553024
36.667324
37.80923907
37.74561883
37.98857758
37.8875453
36.71885927
34.84355356
34.88087325
35.70107321
33.58636865
34.18269789
34.15025752
34.24302444
34.21371176
33.61383967
165.6673724
175.3598275
113.1895865
117.6118849
140.5327313
85.26101601
99.17010783
96.09480999
108.1200871
103.2250944
88.2056119
65.0688772
66.17268202
74.28775749
54.43845545
59.60422403
58.84546839
61.90917266
60.60695894
55.13270186
46.92823062
47.09207791
50.34694659
42.23972299
44.43794499
44.31208058
44.84602013
44.59167856
42.34777862
38.78658153
38.85942217
40.4026975
36.45655456
37.55800551
37.49604581
37.68300911
37.62038944
36.50978081
34.68500915
34.72562275
35.52147552
33.46506961
34.04640353
34.01025718
34.11657289
34.08190223
33.49697953
146.9830255
148.7886671
106.0779089
106.8958688
125.7461204
80.20784476
91.90249232
91.35203576
93.79192558
92.5064339
80.65458676
63.50135407
63.76096279
70.93566761
53.33018145
57.96883474
57.75506905
58.45406543
58.20020391
53.52312267
46.37702039
46.50580477
49.57723195
41.84300409
43.96202298
43.85362729
44.19128492
44.07458793
41.93784045
38.50752417
38.57526158
40.06838882
36.24510149
37.31407936
37.25510309
37.43464906
37.37395656
36.29747085
34.52010585
34.56147198
35.33625861
33.3317945
33.89922706
33.86170939
33.9735969
33.93654317
33.36585395
141.4563327
142.7407515
103.1546179
103.8377558
121.1409937
78.71404699
89.83817674
89.37457027
90.82561026
90.32140676
79.05713762
62.65951881
62.84565706
69.85723735
52.6828399
57.21150057
57.05889322
57.55827492
57.37747876
52.82626149
45.92460692
46.02800018
49.02092237
41.49385457
43.55433147
43.46370524
43.74945661
43.64963131
41.57645025
38.25199715
38.31342778
39.76728618
36.04145494
37.08426846
37.02960077
37.19709329
37.14012113
36.09134119
34.35603189
34.3967119
35.15400909
33.19330426
33.74884325
33.71131253
33.82410531
33.78644345
33.22816372
136.8573112
137.9326605
100.6952073
101.2720727
117.432707
77.49012805
88.0899831
87.69447751
88.92928664
88.50127329
77.77638998
62.02498479
62.16996011
68.98823902
52.21560641
56.66652545
56.5533551
56.91811198
56.78771825
52.3182209
45.57637998
45.65394496
48.60453008
41.19770909
43.22080181
43.14960456
43.37785741
43.29686479
41.2664003
38.02468057
38.0785989
39.50414156
35.85048065
36.87332288
36.82404774
36.97617396
36.92405027
35.89681428
34.197135
34.23618842
34.97966339
33.05385715
33.59982995
33.56317888
33.67395025
33.63675361
33.08862377
132.9745926
133.8872059
98.60617161
99.09823431
114.3694508
76.4530032
86.59383833
86.25328615
87.31377979
86.94707695
76.6974709
61.51208925
61.63154541
68.25821999
51.87496871
56.25252696
56.16292972
56.44714925
56.34707484
51.9512986
45.32036544
45.37707957
48.30360879
40.95932091
42.96359776
42.91008626
43.08312787
43.02119039
41.01355505
37.82983676
37.87537837
39.28393629
35.6760512
36.68542486
36.64243104
36.77627218
36.73004663
35.71792399
34.04666924
34.08334508
34.81687187
32.9165885
33.45543241
33.42037456
33.52687814
33.49093608
32.95054522
129.6459185
130.4338694
96.81044987
97.23544199
111.7837943
75.55883641
85.3003615
85.00399497
85.92457379
85.60705855
75.77073947
61.08182691
61.1828746
67.63330244
51.61273306
55.91928032
55.84550742
56.07774867
55.99661082
51.67269653
45.13150905
45.1737305
48.08044704
40.77476139
42.77113572
42.73115389
42.86035225
42.81411723
40.81638951
37.6682986
37.70569291
39.10676673
35.52097962
36.5231987
36.48666897
36.60106472
36.56132309
35.55786013
33.90710351
33.94088414
34.66842943
32.78410186
33.31827283
33.28534177
33.38581756
33.35176701
32.81665992
126.7408805
127.4328547
95.24922526
95.62015785
109.5588212
74.77931628
84.1712531
83.91123682
84.71729346
84.43978805
74.96461032
60.71524972
60.80165582
67.0927505
51.40261941
55.64301533
55.58130696
55.77498351
55.70751837
51.45112896
44.98867132
45.02091755
47.90839127
40.6335195
42.62669364
42.59640286
42.6938916
42.65912856
40.66540197
37.53665406
37.56704913
38.96692278
35.38586207
36.38611513
36.35545019
36.45167527
36.41817076
35.41783325
33.77960716
33.81034443
34.53554712
32.658208
33.19007214
33.15950745
33.25299642
33.22123091
32.68900305
124.1665204
124.7828023
93.87820382
94.20528084
107.61391
74.0943903
83.17764118
82.94760082
83.65918451
83.41470321
74.25769804
60.40029531
60.47475054
66.62179239
51.23120536
55.41118362
55.35916867
55.52216949
55.46547595
51.27093152
44.87851993
44.9034953
47.77257224
40.52482887
42.51671283
42.49349501
42.56806098
42.54152919
40.54944223
37.4296405
37.45437047
38.85667373
35.26912992
36.27114426
36.24542993
36.32610238
36.29801507
35.29672174
33.66397698
33.69182121
34.41765356
32.5397014
33.07136333
33.04314129
33.12954029
33.10015568
32.5686248
121.8594284
122.4137889
92.66196911
92.95319028
105.8912086
73.48789873
82.29610966
82.09109284
82.72418035
82.50704038
73.63288783
60.12798821
60.19248535
66.2084742
51.0905642
55.21549037
55.17151342
55.30926434
55.26137533
51.12316649
44.79320389
44.81251822
47.66458806
40.4407099
42.43233954
42.41455272
42.47174621
42.45137766
40.4597724
37.34241683
37.36259838
38.76942625
35.16832849
36.17464787
36.15302499
36.22080818
36.19722596
35.19217503
33.55926035
33.58448274
34.31322021
32.42859731
32.9618187
32.93578699
33.01548688
32.98837877
32.45569618
119.76907
120.2735533
91.57244859
91.83434419
104.3470882
72.94730793
81.5082768
81.32415397
81.89157994
81.69732279
73.07689073
59.89116319
59.94743594
65.84346132
50.97519883
55.04978054
55.01240243
55.12927973
55.0887061
51.00195151
44.72752278
44.74234946
47.5790142
40.37565727
42.36783297
42.3543042
42.39790944
42.38234669
40.39038114
37.27108299
37.28761028
38.70025734
35.08101481
36.09336809
36.07510379
36.13229547
36.11241863
35.10170558
33.46425974
33.48716577
34.22050912
32.32450935
32.8607206
32.8366715
32.9102688
32.88524707
32.34990355
117.8541414
118.3182585
90.58502346
90.82366821
102.9457867
72.46114188
80.79795312
80.63059242
81.14453196
80.9691642
72.57821871
59.68271745
59.73257964
65.51801719
50.88010415
54.90823934
54.87597432
54.97639587
54.94168106
50.90225931
44.67723826
44.6885791
47.51127419
40.32555042
42.31888134
42.3086692
42.34166293
42.32986221
40.33687158
37.21254799
37.22612647
38.64539749
35.00503743
36.02458771
36.00908789
36.05756951
36.04073761
35.02307542
33.37780974
33.39868032
34.13788713
32.22689067
32.76723875
32.74496867
32.81308014
32.78993746
32.25072019
116.0772357
116.510094
89.67630191
89.89728991
101.6553639
72.01762231
80.14845129
79.99384242
80.46669228
80.3059864
72.12511005
59.49565903
59.54076469
65.2231493
50.80045171
54.78505662
54.75657421
54.84472358
54.81441548
50.81916199
44.6387922
44.647464
47.45720581
40.28717466
42.28202145
42.27438289
42.29914125
42.29026086
40.29582241
37.16438044
37.17556593
38.60191907
34.93860699
35.96611602
35.95290146
35.99419018
35.97987014
34.95440954
33.29886984
33.31795465
34.06394531
32.13518868
32.68058597
32.6599069
32.72310945
32.70164918
32.15759133
114.4075038
114.8156844
88.82751622
89.03493043
100.4497344
71.60659817
79.54520827
79.40041641
79.84185664
79.69227905
71.7067192
59.324457
59.36602881
64.95125406
50.73226233
54.67541785
54.64971114
54.72882953
54.70176803
50.74842549
44.60934851
44.61600935
47.41341906
40.25801719
42.25452726
42.2488615
42.26726921
42.26065047
40.2645685
37.12462009
37.13386938
38.56752217
34.8802218
35.91616462
35.9048356
35.94018282
35.92793878
34.89414046
33.22650875
33.24402957
33.99746416
32.0488696
32.60003188
32.58077284
32.63959358
32.6196345
32.0699746
112.8235859
113.211625
88.02541119
88.22237263
99.3110704
71.22068039
78.97778015
78.84042423
79.25767599
79.1167587
71.31518233
59.1646293
59.20378983
64.6966749
50.67225186
54.57548644
54.55160224