/*--------------------------------*- C++ -*----------------------------------*\
| =========                 |                                                 |
| \\      /  F ield         | OpenFOAM: The Open Source CFD Toolbox           |
|  \\    /   O peration     | Version:  v2012                                 |
|   \\  /    A nd           | Website:  www.openfoam.com                      |
|    \\/     M anipulation  |                                                 |
\*---------------------------------------------------------------------------*/
FoamFile
{
    version     2.0;
    format      ascii;
    class       surfaceVectorField;
    location    "1.76";
    object      Uf;
}
// * * * * * * * * * * * * * * * * * * * * * * * * * * * * * * * * * * * * * //

dimensions      [0 1 -1 0 0 0 0];


internalField   nonuniform List<vector> 
5999
(
(99.99922204 0.003019660518 -1.875845829e-21)
(99.99717209 0.002569627615 5.554530983e-21)
(99.99862596 0.008039698955 -1.854624851e-21)
(99.9953011 0.009496361826 1.868793795e-21)
(99.99742629 0.01729890942 -3.701632225e-21)
(99.991335 0.02219188136 1.115745614e-20)
(99.99868881 0.0213521391 1.154028578e-21)
(99.98376502 0.0455878253 -7.377990151e-21)
(99.99280885 0.04795169563 -1.231405284e-21)
(99.99761202 0.03949393931 1.789209553e-21)
(99.99926567 0.0239019658 8.897503807e-22)
(99.99138702 0.06908342986 1.781291851e-21)
(99.99801284 0.03969969705 8.738776222e-22)
(99.99853295 0.03048792657 -8.965717101e-22)
(99.99750398 0.05136656663 8.738419304e-22)
(99.9863429 0.1164215167 1.74149217e-21)
(99.99721338 0.06597196074 0)
(99.99701027 0.08232292172 -3.231049654e-21)
(99.98166982 0.1829623655 -3.231032838e-21)
(99.99655071 0.1019307852 -8.401910175e-22)
(99.99599817 0.1249370112 2.81721358e-21)
(99.9752569 0.2748762172 3.09144689e-21)
(99.99544832 0.1514284884 3.819217219e-22)
(99.99495036 0.181250355 -2.585508898e-21)
(99.9694122 0.3939641857 3.672712666e-22)
(99.99455807 0.2139866674 -2.681371158e-21)
(99.99434798 0.2488300774 2.046913001e-22)
(99.96677713 0.5326525456 -1.808786592e-21)
(99.99442907 0.2843866594 2.359475553e-21)
(99.99488465 0.3187894486 2.061181263e-21)
(99.97112413 0.6694444113 -9.211680994e-22)
(99.99571688 0.3497545524 0)
(99.99278305 0.008088543541 9.278320397e-21)
(99.98957185 0.003572848577 2.14748899e-22)
(99.9870302 0.0218822501 1.484254362e-20)
(99.98237725 0.01416232825 -1.296260999e-20)
(99.97633116 0.04755826873 7.763657297e-21)
(99.96731099 0.0353815646 -2.015929545e-20)
(99.97012534 0.08346176173 -1.303614661e-21)
(99.94224513 0.07543913701 3.877369672e-20)
(99.94831534 0.1004822452 -8.554185018e-21)
(99.95499549 0.1081510458 -1.832988494e-21)
(99.96508993 0.109228696 3.625148676e-21)
(99.97910637 0.07688990365 1.800889583e-21)
(99.96524374 0.1345693773 1.76579942e-21)
(99.9541703 0.1452905813 1.792697992e-21)
(99.92261497 0.1931465537 -3.616432106e-21)
(99.94201654 0.19086398 -1.528035088e-23)
(99.94503222 0.2262149201 1.741765476e-21)
(99.92746197 0.2476804061 -1.381694276e-23)
(99.8805204 0.3253331593 0)
(99.9197958 0.2955154348 0)
(99.89760005 0.3378087174 -2.176240418e-21)
(99.92262506 0.3476977905 -4.288396408e-21)
(99.91349395 0.3645966366 -4.537573658e-23)
(99.88811071 0.4223654456 -9.647171344e-21)
(99.90570796 0.4014555944 -3.316136398e-21)
(99.87953726 0.5554098442 2.91791033e-23)
(99.89442588 0.526456622 -2.200123315e-21)
(99.84606874 0.6432336982 -1.205954567e-20)
(99.87206105 0.6070604883 -2.935399105e-21)
(99.84693434 0.8097306763 -5.591182203e-21)
(99.86808039 0.7610868807 -5.24988503e-21)
(99.80627456 0.9351033608 4.532264181e-22)
(99.84129874 0.8757417767 -6.714995741e-21)
(99.82655924 1.11764149 -7.902807544e-23)
(99.85455645 1.03979701 -4.481145322e-21)
(99.78384195 1.285591988 -6.918335675e-21)
(99.8268219 1.193162625 -3.378226914e-21)
(99.83790034 1.439676805 -5.811308219e-21)
(99.87044804 1.322457588 -7.875252394e-21)
(99.80279638 1.647413733 -2.849115827e-21)
(99.84889492 1.51187153 -4.894091524e-21)
(99.98129848 0.008583921479 -2.22591016e-20)
(99.98147567 0.001567835067 -1.112457445e-20)
(99.96536025 0.02575464069 -4.825089114e-20)
(99.96623228 0.009396465344 1.050491568e-20)
(99.93663294 0.06106332759 1.057670414e-20)
(99.93420873 0.03178931135 -4.08525211e-20)
(99.90340331 0.1206957082 2.468382256e-20)
(99.88232371 0.07714037328 4.445430292e-20)
(99.87109177 0.1297509972 -3.998354645e-20)
(99.91538313 0.1324469283 -7.37335759e-21)
(99.87117828 0.146460363 -5.438605022e-20)
(99.88147649 0.1680011584 -3.674076732e-21)
(99.86503042 0.2414531983 -7.22219e-21)
(99.85005223 0.2284862503 -3.601067903e-21)
(99.79432157 0.2763515801 2.522662356e-20)
(99.81246293 0.3042299466 7.124653041e-21)
(99.79309122 0.4116649374 -6.264890036e-21)
(99.76803481 0.3982289035 4.598028725e-21)
(99.68447827 0.4806423183 -3.560890262e-20)
(99.73964878 0.4972367053 2.526166823e-21)
(99.69763175 0.5315532032 -1.553501226e-20)
(99.72143751 0.6338130112 -6.479528849e-21)
(99.70112714 0.6287904856 0)
(99.64937954 0.6944187543 6.675695974e-21)
(99.6739921 0.7058198731 -6.467609687e-21)
(99.61593886 0.9824619506 3.183198899e-21)
(99.58485858 0.9832665066 1.249902852e-20)
(99.51532193 1.083992412 6.201711575e-21)
(99.55408401 1.090850241 1.554387913e-20)
(99.51062076 1.453376731 -8.933290264e-20)
(99.46450484 1.467468451 -8.315810353e-20)
(99.37869472 1.617843024 -8.959547072e-20)
(99.43758169 1.609655903 3.07235506e-21)
(99.44464705 2.048347242 2.806273429e-19)
(99.37887154 2.092571392 3.212309115e-22)
(99.29102861 2.309160884 3.111775029e-19)
(99.37249216 2.263646971 -9.520158941e-21)
(99.49386251 2.68365828 -2.315350289e-19)
(99.41229121 2.781810678 5.097336662e-19)
(99.35307487 3.054413022 -4.728828312e-19)
(99.44895833 2.943803352 -6.593988363e-21)
(99.97019512 0.001610230692 2.234248031e-20)
(99.97997175 -0.004567818031 -3.724453703e-21)
(99.93997454 0.01378669663 1.877594734e-20)
(99.95479425 -0.008468513864 2.608788715e-20)
(99.88583677 0.04785192437 -7.468121959e-21)
(99.90217593 0.004688072091 -3.710050782e-21)
(99.81460852 0.1251805353 0)
(99.81490399 0.04334160018 5.68424368e-21)
(99.77883877 0.1142016805 1.733588603e-20)
(99.82142123 0.1498519107 -5.080171784e-20)
(99.76784238 0.1407399146 1.303380259e-20)
(99.76751851 0.1822511157 0)
(99.7131016 0.2947984128 3.011333202e-22)
(99.70502372 0.2569731466 -2.891758303e-20)
(99.62387085 0.2944381794 -2.889812936e-20)
(99.63013178 0.3525262112 5.867346726e-20)
(99.55971716 0.5265084001 -8.733154987e-20)
(99.54172798 0.4729278382 3.084721046e-20)
(99.42085032 0.5428516107 -5.834391662e-20)
(99.46537486 0.6181631395 -2.901929488e-20)
(99.40882447 0.6282057584 -4.772554339e-20)
(99.38849596 0.8341811515 6.9235145e-21)
(99.36879218 0.8005972442 1.377462518e-20)
(99.28843107 0.8644230682 3.475266146e-20)
(99.30924187 0.9075961252 6.867251371e-21)
(99.14376869 1.338134009 5.008517059e-20)
(99.10937823 1.297660436 -7.585611196e-21)
(98.99700915 1.404672724 3.887722104e-20)
(99.0362792 1.456799241 -3.788116948e-20)
(98.87081233 2.091025835 -4.426317494e-19)
(98.80839827 2.051363542 -4.346992529e-19)
(98.66400315 2.236613672 -8.217504575e-22)
(98.73871759 2.287328535 -4.717236356e-20)
(98.69153593 3.114258737 -1.259955304e-18)
(98.58625327 3.103083042 6.725673308e-19)
(98.43438857 3.393864467 9.939553506e-21)
(98.56406035 3.405774715 9.889256161e-21)
(98.78613609 4.281578579 -5.761784127e-19)
(98.63784712 4.341000306 9.703797097e-23)
(98.54443623 4.734615202 3.789066904e-20)
(98.71745203 4.63816512 -5.346200261e-19)
(99.96876263 -0.01491399492 0)
(99.99405432 -0.01540958598 0)
(99.92230529 -0.01843931594 3.74765014e-21)
(99.9581794 -0.04112807631 0)
(99.83869908 0.0007220823368 9.426198321e-21)
(99.88420837 -0.04949806746 -3.28258334e-21)
(99.72059993 0.0718767528 1.668025826e-20)
(99.76040775 -0.03140188136 2.093337811e-20)
(99.68523266 0.04567189485 -6.306191106e-21)
(99.71657466 0.1179463472 2.244842597e-20)
(99.65711911 0.0809437345 1.82969329e-21)
(99.64126438 0.1353477403 -8.939822003e-21)
(99.5305465 0.2732275286 0)
(99.53949842 0.2133475505 -1.876816842e-20)
(99.43681368 0.2297757989 -1.537882431e-20)
(99.41789941 0.313514731 3.827574224e-21)
(99.27143121 0.5271889745 0)
(99.27389201 0.4427427625 3.827164431e-21)
(99.11783805 0.4794950823 -3.9358024e-21)
(99.13131232 0.6158537399 1.921985757e-20)
(99.06953976 0.5974558492 4.938988185e-21)
(98.96160525 0.8885774361 2.215862875e-19)
(98.95468245 0.8250436762 0)
(98.84484138 0.8742083752 -1.482701864e-20)
(98.84987776 0.9493603024 -5.448053615e-20)
(98.4892144 1.539399083 -7.357959237e-19)
(98.46934302 1.447771066 -3.656572078e-19)
(98.30206092 1.552863461 -2.191129064e-19)
(98.32257638 1.665148726 -1.134711933e-19)
(97.91823589 2.60711534 3.030313054e-20)
(97.85694224 2.492997867 -7.969179967e-19)
(97.6229734 2.699587612 -9.011411349e-19)
(97.69699096 2.841873044 7.315205394e-19)
(97.43630642 4.242475773 -7.568601306e-19)
(97.28643761 4.134463784 1.044806106e-20)
(97.01199971 4.511532801 -2.367422145e-18)
(97.20655491 4.641876254 -7.744519445e-19)
(97.58758371 6.285065434 7.952254294e-22)
(97.31531874 6.294895843 -3.737443206e-20)
(97.14690851 6.869763381 -1.234856e-19)
(97.50768282 6.840748568 -3.673380466e-20)
(99.98745994 -0.04149118744 0)
(100.0332124 -0.03092985964 1.833617686e-21)
(99.92488828 -0.07210397655 -7.518154494e-21)
(99.98713422 -0.0883571097 -1.846726526e-21)
(99.81188818 -0.08131572003 7.737863931e-21)
(99.893051 -0.1305816538 -3.752940141e-21)
(99.63959284 -0.02836509233 1.017188612e-20)
(99.73399223 -0.148573676 2.689972175e-21)
(99.61529982 -0.0774612004 8.454030774e-24)
(99.61483618 0.02803659571 -7.573074687e-21)
(99.56594115 -0.03912110876 -7.612824448e-21)
(99.52466085 0.02365882624 0)
(99.34756426 0.1631153914 -1.537844466e-20)
(99.38287231 0.08757852253 0)
(99.26705432 0.0732727139 -8.191263147e-23)
(99.21136426 0.1736746665 -5.267162443e-23)
(98.96495492 0.3989808733 7.898888223e-21)
(99.00483819 0.2881073354 1.187582307e-20)
(98.82371755 0.2848058039 1.596302285e-20)
(98.78739121 0.4600751553 -1.227656204e-20)
(98.72887963 0.4179458415 -1.280176398e-20)
(98.4902632 0.7618995367 6.065789371e-20)
(98.5123502 0.6732086783 -1.148595651e-19)
(98.37287978 0.6992823418 -1.75243368e-19)
(98.34301671 0.8030721148 -6.790249733e-21)
(97.70390812 1.478249382 -5.452504722e-19)
(97.72077091 1.339597223 -1.109887539e-19)
(97.50141029 1.411026347 -1.736773096e-21)
(97.47506243 1.57764169 -2.2133551e-19)
(96.60629904 2.7860917 5.414225291e-19)
(96.58597265 2.565306627 6.69285771e-19)
(96.22745579 2.738369772 1.064718291e-19)
(96.24934616 3.010162526 -2.199320069e-19)
(95.39705401 5.117997998 0)
(95.23418863 4.813405308 0)
(94.73464456 5.193861941 -1.923622734e-19)
(94.95095314 5.58853271 2.157915483e-19)
(95.17482837 8.729988622 -5.432643435e-19)
(94.66169504 8.485033956 -1.161171842e-19)
(94.18543905 9.315138584 3.98497387e-20)
(94.90336887 9.598526817 -1.200662005e-19)
(100.0363474 -0.07734152209 -1.252492278e-23)
(100.1061807 -0.05051782696 5.440968343e-23)
(99.95956841 -0.1456684723 1.915655425e-21)
(100.0516406 -0.1481821263 -6.569081754e-23)
(99.82077401 -0.1967592663 -1.004949662e-20)
(99.94137513 -0.2348410435 1.503908686e-21)
(99.59716379 -0.184161105 -9.124130115e-21)
(99.75419792 -0.3026083909 -1.528106231e-20)
(99.59104888 -0.2515933356 -1.298118222e-20)
(99.54538377 -0.1222410929 -7.16470968e-21)
(99.51834122 -0.2175618813 -2.823352569e-21)
(99.44777387 -0.1553152857 3.638805559e-23)
(99.19995703 -0.03882396156 1.154573684e-20)
(99.26870275 -0.1209296156 1.171543437e-20)
(99.15031589 -0.1715657115 5.790019209e-21)
(99.05217389 -0.06814329293 1.989651436e-20)
(98.70023513 0.1365058845 -2.003380974e-20)
(98.78894426 0.008629184085 -1.6040437e-20)
(98.60033889 -0.0439992689 7.752291791e-21)
(98.49097281 0.1496243784 -1.599285128e-20)
(98.44833933 0.08256514946 2.495548307e-20)
(98.04740077 0.433061617 3.540518176e-19)
(98.11024617 0.3289054777 2.32513857e-19)
(97.95299282 0.319178843 1.7629803e-21)
(97.87712549 0.4369362306 2.405873507e-19)
(96.9218246 1.058576776 0)
(97.00868378 0.8845653384 1.187319636e-19)
(96.75008784 0.8910216134 0)
(96.63387592 1.094891193 0)
(95.09544299 2.297480922 2.571997899e-19)
(95.19462836 1.993762857 2.493938721e-19)
(94.74979832 2.034809935 0)
(94.60451916 2.406917709 -3.477412115e-22)
(92.47715186 4.714679345 6.864177264e-20)
(92.49190548 4.158204395 2.447460024e-19)
(91.73115561 4.256608206 9.603189225e-20)
(91.67643517 4.990383011 -5.843597054e-21)
(89.60207356 10.13566567 0)
(89.03893433 8.993294775 -4.603025373e-20)
(87.30540749 10.04847024 0)
(87.58395115 9.377037094 0)
(88.67097851 11.36818062 0)
(87.80158062 11.37479122 0)
(100.1240912 -0.120659454 1.31908468e-23)
(100.2200026 -0.0730522798 -2.716977519e-21)
(100.0366923 -0.2352359673 -4.934496373e-22)
(100.1597404 -0.2171130411 1.183162941e-21)
(99.87895458 -0.3388492081 -3.89742548e-21)
(100.0391688 -0.3556200385 -2.567404798e-21)
(99.61258341 -0.3817950375 8.006067646e-21)
(99.83401994 -0.4825102551 -8.824411672e-22)
(99.63130501 -0.4649799222 8.300440726e-22)
(99.52982998 -0.3256145668 3.896872245e-21)
(99.53707933 -0.4408816692 8.102868413e-21)
(99.43541123 -0.3893918526 5.708115785e-21)
(99.12259212 -0.3210787308 -1.951437194e-21)
(99.22834276 -0.3972987317 3.006205434e-21)
(99.11938304 -0.4841746113 1.987541194e-21)
(98.97740837 -0.3937681831 6.017635068e-21)
(98.53044185 -0.2512693368 -2.446490558e-21)
(98.67230714 -0.3748120585 -3.246690026e-20)
(98.49515848 -0.4788460711 -3.456419033e-20)
(98.31012063 -0.291991891 -2.103869548e-20)
(98.29293265 -0.3813412 5.807389818e-20)
(97.74086766 -0.09377303108 -2.915038292e-20)
(97.84880393 -0.1946493127 -1.204369141e-19)
(97.69841102 -0.2492644646 -1.785454661e-19)
(97.57581729 -0.1411973357 -1.062207483e-19)
(96.34791769 0.2581927566 -1.526909313e-19)
(96.51896227 0.08913744172 3.648466612e-19)
(96.2651608 0.01500566134 2.153473213e-19)
(96.05110094 0.1997377958 1.25223591e-19)
(93.95845113 0.9462660393 -1.000306537e-19)
(94.2255693 0.6504363867 8.714205125e-20)
(93.80714345 0.5198270292 2.775634078e-20)
(93.45862845 0.839916045 9.005228353e-21)
(90.13952382 2.026656449 9.574697373e-20)
(90.55534247 1.482448035 -1.01648725e-19)
(89.94778858 1.141208752 -1.025572834e-19)
(89.33535429 1.695087385 6.740159076e-20)
(83.10966782 3.402487012 0)
(83.71608177 2.712897907 0)
(83.07779079 2.078969799 0)
(82.20116584 2.764332421 0)
(100.257073 -0.1686693548 -1.546971054e-21)
(100.3791094 -0.09703734162 8.570520477e-22)
(100.1638985 -0.3347790279 -8.998130247e-22)
(100.3164537 -0.2905107805 -6.374672733e-22)
(99.99627983 -0.4972701039 4.594249337e-22)
(100.1924806 -0.48432819 -2.271847944e-22)
(99.70104959 -0.607295027 5.174630573e-22)
(99.98140673 -0.674984271 7.737804727e-22)
(99.74780398 -0.6996300665 4.577864328e-22)
(99.5873698 -0.5649561651 1.345206664e-21)
(99.63550887 -0.6912295273 -1.232672872e-23)
(99.50565431 -0.6582467643 -1.232848196e-23)
(99.14304204 -0.6571432074 -1.982220318e-21)
(99.28345397 -0.7164925431 0)
(99.19465626 -0.8358992894 -9.716493668e-22)
(99.01457126 -0.7710936287 -1.025240329e-21)
(98.49806111 -0.7204384703 1.019052167e-21)
(98.6887587 -0.8206707286 -6.784160822e-24)
(98.54030048 -0.9691887496 -5.05177329e-21)
(98.28863049 -0.815028686 8.219799359e-20)
(98.30199947 -0.9159686788 6.999327321e-22)
(97.65325744 -0.7482665421 -9.020805366e-20)
(97.79414581 -0.8262201218 -2.709150188e-19)
(97.66771823 -0.9201140963 -3.019556778e-20)
(97.51030356 -0.8410141849 -3.590302284e-19)
(96.15733338 -0.7585076271 0)
(96.38839919 -0.8824924304 -2.470208389e-19)
(96.17166518 -1.019310314 -6.283865752e-23)
(95.89653369 -0.8959427956 0)
(93.67885232 -0.7858790351 1.925970194e-20)
(94.04493734 -0.9738305867 -8.918642545e-20)
(93.73083167 -1.198913634 1.069105939e-19)
(93.30329976 -1.031707162 -4.212070354e-20)
(90.21174818 -1.218564325 -2.214642938e-19)
(90.76431911 -1.437843574 -4.374920049e-19)
(90.45958353 -1.837515078 -4.287330601e-19)
(89.8507914 -1.698273867 -4.106622878e-20)
(86.37706296 -3.263800696 -3.369216652e-21)
(86.83854443 -3.207038022 -4.743462808e-19)
(86.84112797 -3.553314635 4.55854106e-19)
(86.44526928 -3.694331563 -4.949876823e-21)
(100.4385108 -0.2180280848 1.767074459e-21)
(100.584779 -0.1208568972 8.708034705e-22)
(100.344919 -0.4370831977 2.587988881e-23)
(100.5230966 -0.3633180963 9.071759023e-22)
(100.177358 -0.6599399252 9.028018845e-23)
(100.4027206 -0.6116130674 8.438580172e-22)
(99.86923391 -0.8427377133 -1.273903072e-21)
(100.1983141 -0.865767005 -7.190088579e-22)
(99.94414795 -0.9369547008 6.067600211e-22)
(99.72779 -0.8211885639 -9.169280975e-22)
(99.81900863 -0.9481455347 -4.628489513e-22)
(99.66665572 -0.9393842827 -9.168703923e-22)
(99.27442074 -1.016099592 1.878736504e-24)
(99.44327215 -1.049552482 9.716102098e-22)
(99.38187161 -1.193902367 9.716188202e-22)
(99.17390563 -1.163402709 9.716008081e-22)
(98.62159595 -1.218535843 2.10077418e-21)
(98.84977234 -1.281935004 8.111473071e-21)
(98.74046734 -1.462821236 4.127157454e-21)
(98.44233022 -1.358177576 -7.360672132e-20)
(98.48476271 -1.459511377 6.262728119e-21)
(97.79457136 -1.432656969 -1.038249212e-19)
(97.95599095 -1.478499865 2.934919921e-20)
(97.86231626 -1.599084676 2.982004008e-20)
(97.6847418 -1.557245009 -4.645882284e-19)
(96.34283378 -1.775432107 7.730250614e-21)
(96.60509419 -1.841924585 1.296684039e-20)
(96.43636416 -2.013720659 -1.154898453e-19)
(96.14016622 -1.956915962 -1.285382841e-19)
(94.07746618 -2.315291267 -7.640290258e-20)
(94.45989538 -2.398112508 -8.670426816e-20)
(94.23770327 -2.645205895 -5.387859215e-20)
(93.82197119 -2.588429304 3.507948279e-20)
(91.33366724 -3.277792545 2.017697678e-19)
(91.81115756 -3.333069975 8.857046445e-20)
(91.63198744 -3.657711421 -3.506435633e-22)
(91.16039454 -3.64713342 -5.133222673e-20)
(89.03548171 -4.825194816 3.97011005e-19)
(89.27440361 -4.777341226 -1.982077775e-19)
(89.25787588 -4.966116943 2.441608974e-19)
(88.9881605 -4.985686796 -8.273758152e-20)
(89.06317254 -5.035399047 -7.90083441e-20)
(100.6681151 -0.2654271717 6.967183519e-24)
(100.8351782 -0.1429936294 2.2983309e-21)
(100.5790985 -0.535103999 1.708737189e-21)
(100.777534 -0.4307063762 8.653020795e-22)
(100.4215987 -0.8145182428 5.736966983e-23)
(100.6663843 -0.7279305908 -3.777470965e-23)
(100.1157352 -1.0703129 -1.730306826e-21)
(100.4825316 -1.044032661 -7.870865622e-22)
(100.2156087 -1.161100866 -4.324912614e-22)
(99.95145512 -1.073902488 -4.504995514e-22)
(100.0832032 -1.19228265 -8.988098423e-22)
(99.91600589 -1.209941737 6.865993002e-23)
(99.51555855 -1.365660719 0)
(99.70417678 -1.367992862 9.037918372e-22)
(99.67396659 -1.52819501 1.796200865e-21)
(99.44970815 -1.535881677 9.674581441e-22)
(98.89449525 -1.697051976 -1.029444193e-21)
(99.14618494 -1.716343916 3.944676558e-21)
(99.08069901 -1.916873262 2.994264907e-21)
(98.75561532 -1.869367848 -1.853533716e-20)
(98.8227375 -1.962862925 -5.446543e-20)
(98.13434859 -2.073327936 0)
(98.30533004 -2.084948308 0)
(98.24563743 -2.220723035 0)
(98.06005091 -2.216315956 2.220237889e-19)
(96.80769704 -2.675235866 -1.500660678e-21)
(97.07823113 -2.688782046 3.507728063e-19)
(96.95748428 -2.876175023 1.178741666e-19)
(96.65947601 -2.875439429 1.257175283e-19)
(94.80667609 -3.52179774 7.728146122e-20)
(95.17717123 -3.534479447 -3.388205863e-20)
(95.01941705 -3.780535725 -7.121722052e-20)
(94.62614343 -3.787214562 -1.096044647e-21)
(92.50167271 -4.621482208 -7.111980422e-19)
(92.92033942 -4.622545401 -2.885622185e-19)
(92.78407686 -4.90441577 -3.555794372e-19)
(92.36920706 -4.918580467 -3.508700495e-19)
(90.58876423 -5.820610101 -1.322923713e-19)
(90.77780853 -5.796426279 2.160192994e-19)
(90.74660809 -5.936028804 4.410295956e-20)
(90.53597033 -5.939916632 2.866925532e-20)
(90.58770486 -5.982455875 -1.632886119e-19)
(100.9423528 -0.307704642 3.157383379e-21)
(100.8619902 -0.622326668 -8.422170408e-22)
(100.7217204 -0.9503828894 -8.421895796e-22)
(100.4284684 -1.276442423 0)
(100.2483567 -1.305373482 5.704078985e-24)
(100.2413196 -1.448880046 1.715176366e-21)
(99.85459025 -1.678675831 -9.029571266e-22)
(100.0535333 -1.647997664 -9.762007827e-22)
(99.82601695 -1.860949238 9.600294267e-22)
(99.29554885 -2.118723787 1.808687623e-23)
(99.5569903 -2.091996232 3.691373216e-21)
(99.20078937 -2.310915625 3.600885236e-20)
(99.28721464 -2.390372273 -4.096027907e-21)
(98.63165211 -2.62378505 -3.749196566e-22)
(98.80316622 -2.602527386 -1.324609455e-19)
(98.77550463 -2.743011849 -1.591024227e-19)
(98.59150443 -2.77392244 -2.894848638e-19)
(97.47077336 -3.416603196 -1.433951391e-20)
(97.7369505 -3.384110655 2.348792336e-19)
(97.66039425 -3.574973016 -7.010027878e-21)
(97.37076497 -3.621518424 7.041717557e-23)
(95.71606379 -4.471106945 3.617162719e-20)
(96.07355968 -4.431837625 3.156527809e-20)
(95.9675373 -4.674316584 3.195063986e-20)
(95.58796759 -4.729595437 -3.857033347e-20)
(93.64112018 -5.693473958 -1.578238108e-19)
(94.04751335 -5.663136939 -3.131519956e-19)
(93.94162571 -5.93986717 1.530444159e-19)
(93.52395012 -5.977902093 -2.404737342e-19)
(91.76823579 -6.869005043 -1.241399979e-19)
(91.95583359 -6.865026947 1.980154873e-19)
(91.91996765 -7.020950798 4.07362997e-20)
(91.69006969 -6.994077629 -1.562959143e-19)
(91.73969262 -7.052906247 -1.533810432e-19)
(86.38896053 -2.869204695 4.703603035e-19)
(85.91572793 -3.403464271 1.814792724e-19)
(85.8674472 -2.905828397 0)
(89.04852765 -4.627522248 3.995748516e-19)
(88.80184134 -4.679304456 -4.772302502e-22)
(88.75931511 -4.84843895 1.34259067e-19)
(88.83666551 -4.897069428 5.622151194e-19)
(90.61743436 -5.678485311 -6.31406315e-22)
(90.42406618 -5.706653475 -3.097998249e-19)
(90.37461849 -5.829512117 -1.175282017e-19)
(90.42915228 -5.871514864 -1.175143777e-19)
(91.80540238 -6.716786477 -3.869977554e-21)
(91.62013388 -6.721015318 1.641579967e-19)
(91.54293711 -6.842884513 -1.097915425e-19)
(91.59120586 -6.90011641 2.575525832e-19)
(83.89777208 3.941571313 0)
(82.38070497 4.293181351 0)
(83.42906947 4.728519879 0)
(91.53296867 -2.936088839 2.073712103e-20)
(90.83581634 -3.251485647 2.011774114e-19)
(91.03430675 -2.855076711 1.193267992e-21)
(89.28682364 -4.58180098 -1.962881361e-19)
(89.05498582 -4.420510846 4.002355244e-19)
(89.31293771 -4.383991217 -1.975831798e-19)
(86.85219118 -2.800380917 7.835433714e-22)
(87.29002063 -2.792442124 -4.678105002e-19)
(87.24728933 -3.129582927 -7.006774086e-19)
(92.64508509 -4.333003111 -1.034791931e-20)
(92.07924595 -4.63232082 -2.743433763e-19)
(92.21632571 -4.322913036 1.926755074e-19)
(90.80630959 -5.65466364 3.480743179e-19)
(90.64339477 -5.533574556 5.315213944e-19)
(90.84142917 -5.508146865 1.761640169e-19)
(89.53424164 -4.546837198 -5.69263795e-21)
(89.50643871 -4.734969805 -3.945659652e-19)
(89.87970676 -5.358690902 -9.353529766e-20)
(89.89904591 -5.192030498 -2.30308185e-19)
(89.67998924 -5.233932325 -1.845462549e-19)
(89.63438087 -5.377864467 4.771722554e-20)
(89.70261673 -5.423915274 -1.547942256e-19)
(89.09065488 -6.055462156 -6.434780302e-20)
(88.96370584 -6.097154591 -8.586995158e-20)
(88.97927146 -6.014846391 -3.655370234e-19)
(89.1111998 -5.976347651 -2.504650451e-20)
(88.92584783 -6.086960717 2.200680212e-21)
(88.1469206 -5.591157196 -8.973854803e-20)
(88.07732667 -5.668884105 1.479803825e-19)
(88.28900353 -5.567952191 -4.460333417e-20)
(88.25896789 -5.661929242 -1.77155916e-19)
(88.11431091 -5.698989094 1.476616345e-19)
(93.7565846 -5.416423307 1.53070267e-19)
(93.22722877 -5.720929562 1.708205919e-19)
(93.35046861 -5.438161776 1.714017559e-19)
(91.99309246 -6.711368635 3.186617865e-19)
(91.84344367 -6.56659763 1.582719445e-22)
(92.02759779 -6.559914145 1.613856778e-19)
(90.99946602 -5.632646007 1.72076315e-19)
(90.96297595 -5.776072907 1.703236988e-19)
(91.18924431 -6.304863865 -3.377459754e-19)
(91.22646787 -6.164474305 5.021989665e-19)
(91.04546603 -6.176921748 -1.876853972e-23)
(90.97966559 -6.290552345 9.529160342e-22)
(91.02576694 -6.338421134 -6.582666767e-23)
(90.16889369 -6.729042732 -2.478091939e-19)
(90.08568486 -6.720575507 0)
(90.14952181 -6.698024973 0)
(90.21978429 -6.702504472 0)
(89.78664296 -6.343205436 -3.743975961e-19)
(89.70315067 -6.389109373 -2.206004311e-19)
(89.9038141 -6.327243718 -1.713141516e-19)
(89.85652366 -6.384686762 -1.663520081e-19)
(89.72526552 -6.405873609 -2.2027977e-19)
(92.17841189 -6.704544326 1.575207281e-19)
(92.14616907 -6.85915226 -1.555383635e-19)
(92.46544454 -7.457465477 0)
(92.46280983 -7.360673119 -2.398336106e-20)
(92.35641095 -7.463064224 0)
(92.36779231 -7.38016064 2.556376372e-19)
(90.8987468 -8.033028282 1.183930307e-19)
(90.70395783 -8.016060337 -1.192168581e-19)
(90.87928287 -7.981856864 1.20071399e-19)
(91.01568669 -7.993640003 5.922722536e-20)
(90.53902268 -7.349528414 1.216108248e-19)
(90.44101056 -7.382796833 0)
(90.63953583 -7.355075885 -1.22252986e-19)
(90.56888626 -7.389818681 -1.229788834e-19)
(80.32862525 -5.430326945 -2.726537272e-19)
(81.00521469 -5.160127243 -2.720764214e-19)
(81.26315393 -5.716525439 -2.662136168e-19)
(80.50685966 -6.123775939 -1.817428381e-19)
(80.84815341 -6.156214753 -1.819535212e-19)
(85.50678168 -5.798765587 -1.765658436e-19)
(85.32320964 -5.637032651 -4.78747313e-21)
(85.11959271 -5.867021219 2.095850357e-19)
(85.27892446 -6.076835663 1.404848479e-19)
(85.39160745 -6.012738195 1.409197117e-19)
(74.54872957 3.242586084 0)
(73.62210363 4.179642983 0)
(73.76827187 2.212304232 0)
(72.4439873 3.158529083 0)
(80.10407033 -4.798159064 0)
(79.64164797 -5.848213277 3.605657338e-20)
(79.32240433 -5.017038133 0)
(88.00543242 -5.624196177 -3.005745943e-20)
(88.04013667 -5.522736384 -4.499663583e-20)
(88.17889858 -5.499292944 -4.592239528e-20)
(87.97151683 -5.595553632 1.474016132e-19)
(87.25907665 -5.327386904 1.912097458e-19)
(87.2594053 -5.259177051 -1.866064897e-19)
(87.38852578 -5.192676611 1.790507984e-19)
(87.38948478 -5.270461669 0)
(87.97083543 -4.189098373 0)
(88.26839154 -4.128399953 0)
(88.27353383 -4.361634215 0)
(88.01651174 -4.446768926 0)
(87.12850823 -5.395027004 2.390448969e-19)
(87.24889723 -5.397402197 -9.009185258e-23)
(87.08800835 -5.452001926 5.22480909e-19)
(87.12526769 -5.449746373 -7.189980763e-20)
(87.98995423 -5.67453795 1.33377193e-19)
(87.90215934 -5.681866314 -4.058968813e-19)
(87.93445962 -5.636866961 1.329683983e-19)
(85.68257716 -5.591941851 3.536984969e-20)
(85.82444926 -5.718138694 -5.848343362e-19)
(85.61259043 -5.95635675 -3.57373055e-19)
(85.70868489 -5.89651556 -2.596453933e-19)
(87.12896275 -5.325885115 -1.385350459e-19)
(86.99751815 -5.403513903 4.800477427e-20)
(86.96797 -5.462032501 -1.650253608e-19)
(87.00807933 -5.458830923 -3.62472759e-19)
(89.65729774 -6.365107938 -2.044949179e-19)
(89.71465363 -6.302872047 -2.095522898e-19)
(89.83145 -6.284450171 -4.192172349e-20)
(89.6352575 -6.348777208 3.23940625e-19)
(89.0363588 -6.122601289 1.721441533e-19)
(89.21907747 -6.017246947 2.935380283e-19)
(89.19652405 -6.0923454 8.55882527e-20)
(89.07192465 -6.131278758 2.578356576e-19)
(90.09153706 -5.319221729 -4.341202278e-20)
(90.07048653 -5.47774146 1.388031705e-19)
(89.83465517 -5.496420157 9.253937192e-20)
(89.89967353 -5.540669634 2.897268425e-19)
(88.95588617 -6.140297708 9.732814759e-20)
(89.00618156 -6.156435699 1.940428026e-19)
(88.92716783 -6.175495532 1.371665926e-21)
(89.62813791 -6.394055324 -1.319957464e-19)
(89.54458514 -6.399584909 5.508831025e-21)
(89.59303214 -6.373978052 1.311712533e-19)
(88.04103244 -5.712735336 2.667070615e-19)
(87.95472028 -5.721455213 4.052116748e-19)
(88.87303614 -6.15968715 9.809900982e-20)
(88.89674957 -6.123131122 1.3073947e-19)
(90.41224348 -7.341992324 1.233723249e-19)
(90.50941496 -7.30837731 -1.198073429e-19)
(90.60926437 -7.313955092 1.202247909e-19)
(90.10229181 -6.752688603 7.675380708e-21)
(90.24039132 -6.735261236 -2.470561924e-19)
(90.18773586 -6.762316402 -1.228911684e-19)
(91.36997284 -6.295614302 -5.042341951e-19)
(91.33168487 -6.438325935 -1.697883756e-19)
(91.11921615 -6.419108934 -2.249198485e-19)
(91.16492212 -6.469701416 -2.24888719e-19)
(90.01835144 -6.744274928 2.575757229e-19)
(90.03287999 -6.77780088 1.270415802e-19)
(89.92406262 -6.763880481 5.251534927e-19)
(90.3113227 -7.376054728 0)
(90.12717358 -7.363517652 0)
(90.2840752 -7.334606716 1.227871786e-19)
(89.65972702 -6.414233792 5.46980968e-22)
(89.57697061 -6.419568939 -1.374790961e-19)
(89.91290836 -6.732146038 0)
(90.00365039 -6.713772583 0)
(90.71873323 -8.067128007 1.195440875e-19)
(91.04045836 -8.044593967 -1.157591597e-21)
(90.9236262 -8.083386361 -2.407056875e-19)
(92.44163906 -7.542182696 1.262235015e-19)
(90.52071098 -8.048198854 -1.204730293e-19)
(90.53542115 -8.0953088 2.458693358e-19)
(90.18600019 -8.071087867 3.822578211e-19)
(90.33983511 -7.416339897 1.261347442e-19)
(90.15341764 -7.404443195 1.293077877e-19)
(90.18946799 -8.025929364 -5.866497896e-20)
(90.51720556 -7.997849323 -4.867493437e-19)
(90.57360203 -0.8055749857 2.433206142e-20)
(89.56367766 -1.005102362 -7.315785495e-20)
(90.02091777 -0.5134088378 2.127219073e-19)
(86.43112618 -2.406649307 4.706013614e-19)
(86.91312536 -2.428086181 2.303475174e-19)
(84.50843917 3.243383206 0)
(84.99929164 2.625578779 2.496047131e-19)
(84.43738079 2.143977107 0)
(84.19126454 -1.148194611 0)
(84.42304805 -0.510154046 0)
(83.34362746 -1.035269119 0)
(83.68426651 -0.2389087081 0)
(80.78734838 -4.509995236 0)
(79.94413153 -4.048792116 0)
(80.64796755 -3.919225176 0)
(75.54576807 4.117119209 0)
(76.31289214 3.267661268 0)
(75.60525515 2.482104232 0)
(87.96154524 -3.938216105 0)
(87.69348243 -4.292010473 2.207300115e-19)
(87.63436008 -4.003598084 4.472896652e-19)
(87.11813115 -5.256561488 -1.85853404e-19)
(87.24987752 -5.179506469 -5.862984959e-21)
(85.49775661 -5.422340439 2.053905337e-19)
(85.69526764 -5.22837464 -1.249070896e-23)
(85.84305073 -5.403984316 6.205915454e-19)
(85.10385988 -5.430818637 -2.136013642e-19)
(85.33112742 -5.22261764 -4.291266341e-19)
(81.41006911 -4.329172343 2.655956426e-19)
(81.58160681 -4.848134542 2.64483484e-19)
(84.89302733 -1.297970494 0)
(84.74977216 -1.87696768 0)
(84.00522251 -1.881993874 -2.716419894e-19)
(83.60610214 -8.433263273 1.213341335e-19)
(83.80361945 -8.234725061 -7.526236226e-19)