/*--------------------------------*- C++ -*----------------------------------*\
| =========                 |                                                 |
| \\      /  F ield         | OpenFOAM: The Open Source CFD Toolbox           |
|  \\    /   O peration     | Version:  v2012                                 |
|   \\  /    A nd           | Website:  www.openfoam.com                      |
|    \\/     M anipulation  |                                                 |
\*---------------------------------------------------------------------------*/
FoamFile
{
    version     2.0;
    format      ascii;
    class       volScalarField;
    location    "1.33";
    object      nut;
}
// * * * * * * * * * * * * * * * * * * * * * * * * * * * * * * * * * * * * * //

dimensions      [0 2 -1 0 0 0 0];


internalField   nonuniform List<scalar> 
3019
(
1.155897524
1.155868586
1.155837685
1.155810765
1.156028715
1.156021816
1.156028248
1.156049643
1.156093801
1.156174707
1.156299468
1.156446375
1.155169934
1.155083669
1.154993702
1.154918851
1.15511831
1.155113965
1.155163127
1.155364328
1.155575334
1.155956365
1.156543307
1.157261085
1.154411513
1.154265554
1.154116274
1.154009132
1.154212875
1.154243413
1.154373957
1.154727011
1.155258121
1.156191251
1.157636913
1.005655319
1.153640301
1.153438531
1.153242303
1.15311674
1.15332602
1.153434961
1.153721827
1.154372111
1.155496552
1.151960845
0.8578111896
0.6885240502
1.152847141
1.152588253
1.152351272
1.152234745
1.152488566
1.152725308
1.153336257
1.154419338
1.156706376
0.8354700264
0.5736049663
0.4244332119
1.1520536
1.151752011
1.151492331
1.151393895
1.15171694
1.152153642
1.153225578
1.155063514
0.9904221597
0.6194439383
0.3803278728
0.2362794027
1.151256541
1.150911335
1.150638379
1.150593943
1.151030141
1.151743884
1.153448724
1.15634827
0.8294899014
0.4943645638
0.2704174828
0.1194556413
1.150485167
1.15011398
1.14984784
1.149864487
1.150460333
1.151526041
1.154044325
1.157973244
0.7560546399
0.4587288269
0.2558728552
0.1023786437
1.149754065
1.149349343
1.149099797
1.149231702
1.15004008
1.151515252
1.154943394
1.142932333
0.7469411671
0.4952726824
0.3442890733
0.256279676
1.14909514
1.148680966
1.148462819
1.148749429
1.149702016
1.151703957
1.156048469
1.130553475
0.7703149698
0.5613298657
0.4678603294
0.5161683931
1.148505414
1.148071095
1.147902723
1.148377038
1.149467689
1.152063803
1.157278421
1.132666413
0.8035508621
0.6199043587
0.5561786829
0.5811127293
1.148023535
1.147585618
1.147469036
1.148112622
1.149376128
1.152543705
1.158563061
1.145801173
0.8368630914
0.6557927818
0.5756869265
0.5017372872
0.2244405984
0.4970044641
0.5905648384
0.5105339244
0.09869348881
0.4381484549
0.4740941035
0.2648872795
0.5402675653
0.6363878651
0.4960510166
0.5729930062
0.2237970498
0.2596148835
0.5756821529
0.6139320091
0.6500706632
0.5520654396
0.1360688913
0.1828006438
0.6048987082
0.4856275382
0.07566299487
0.1027134221
0.08053044373
0.2156269546
0.03750390376
0.07216250528
0.2647349965
0.3030450074
0.4042953032
0.231623643
0.2082636876
0.2644575261
0.2361425019
0.1862953039
0.2186929804
0.5972324138
0.1669403127
0.136762088
0.2058196705
0.169475649
0.1042904344
0.1341328133
0.5421604616
0.1058844272
0.07800579881
0.1350700027
0.1074304504
0.07379173284
0.4829225198
0.05080475702
0.0768567945
0.05239611524
0.3149237415
0.2353943143
0.1198992597
0.132333376
0.08044483321
0.0445390527
0.3681873055
0.3083190269
0.2375840257
0.2071146279
0.08996177766
0.150166388
0.04271722613
0.01446623275
0.02520355383
0.0452922726
0.03644730401
0.09077096067
0.2713978665
0.2559510828
0.05363217403
0.04306512739
0.1215000845
0.07070835184
0.06726251802
0.04041751998
0.07006392045
0.1382981206
0.04583356464
0.02645636278
0.01655977723
0.05917329923
0.02943183809
0.05090907415
0.02793806422
0.07221199392
0.225706413
0.03026852942
0.2246613501
0.2599355345
0.03448304936
0.03926285991
0.03074196844
0.03390926999
0.2538715307
0.1520057986
0.1500589627
0.1888337631
0.1865653102
0.09535449339
0.09336159519
0.1205309115
0.1186614209
0.2507947507
0.06927710095
0.06837780402
0.01839098852
0.01442782533
0.1525494437
0.3536336602
0.3378992094
0.3748445153
0.3589143798
0.1563127794
0.2917048007
0.2763150151
0.09217491513
0.199974744
0.3961845737
0.3801250327
0.05889355534
0.0610251575
0.1424065467
0.1191874056
0.3121387039
0.2967526172
0.3327123306
0.3172837409
0.1212199799
0.1014400972
0.03506607962
0.03579210123
0.02020267416
0.02098815012
0.08273763163
0.1290525282
0.05446657107
0.05846143193
0.03610354468
0.03678494969
0.11208902
0.073549701
0.01958001897
0.02006098326
0.01914815102
0.0617700275
0.03902161991
0.04097570118
0.01674338155
0.01829952593
0.04734985566
0.04625854127
0.0738934064
0.09390020807
0.1199400746
0.07004187213
0.08762519169
0.0751238185
0.06342560504
0.1596597527
0.1441327288
0.1337556062
0.1640718543
0.06333955895
0.04284592566
0.0511341665
0.06414758243
0.03734465183
0.042246553
0.02832210394
0.1006181312
0.08674787957
0.108501009
0.1035952766
0.02951714557
0.07686538733
0.07421573284
0.08281683536
0.07782449782
0.03623165215
0.1302356716
0.1241460586
0.1403443087
0.1324349026
0.03691956684
0.03200295582
0.1150941188
0.1102311149
0.122228852
0.116818002
0.03239015564
0.04200239806
0.04117436836
0.04430381739
0.04228682713
0.03967856265
0.03857367319
0.04090436977
0.03996025873
0.07024274092
0.06797805942
0.0733981851
0.07104220331
0.06186363673
0.04714949746
0.06702710123
0.06467504658
0.03409043802
0.03470565874
0.09992655867
0.02014213795
0.01994092516
0.02079254593
0.02033063462
0.0193020952
0.08526006625
0.02156596292
0.03203706111
0.03895525473
0.0524747716
0.1269813704
0.03566016032
0.02290642662
0.03842911021
0.03540238862
0.02156753131
0.02103138362
0.02249267705
0.0217944891
0.1136788925
0.03701982704
0.03791224881
0.01898361053
0.01947219831
0.07254352194
0.06401860645
0.01811203121
0.01891412069
0.2391852422
0.4391455799
0.4230205953
0.4607311787
0.4445291534
0.2442546409
0.4176431289
0.4015181412
0.2044407653
0.1601855645
0.06730997291
0.07151373467
0.07489542762
0.08682053052
0.177183907
0.04119432068
0.05112357356
0.03860449049
0.04419657654
0.07189756993
0.1049610794
0.1030131435
0.04218697788
0.07105379477
0.06672410188
0.101656457
0.09905695962
0.06812855198
0.0381923714
0.04627492565
0.03912284162
0.02987727896
0.03134536714
0.02545955223
0.05052840009
0.04878800861
0.05824287283
0.02252914226
0.03301144439
0.0313039249
0.05284530077
0.05241720022
0.02999554624
0.02746266129
0.02702578322
0.03023679708
0.0294953778
0.03510461802
0.06018582053
0.05942841617
0.06476285884
0.06379515935
0.03839370789
0.03110921902
0.05429843887
0.05369559686
0.0586534721
0.0578964483
0.03338256086
0.06438535617
0.06651560435
0.1580833617
0.1442219417
0.06166346395
0.06371293237
0.09476018498
0.09852536609
0.1960176461
0.02536908093
0.02523024897
0.0267747864
0.02655088475
0.0192246293
0.02494476443
0.02484747502
0.1795337523
0.08934330706
0.09336072023
0.03522360356
0.05446705994
0.05397857038
0.02044922791
0.03378156727
0.03353941204
0.0350542874
0.0341252519
0.02064375596
0.01939366528
0.01918891216
0.01975828938
0.03307538146
0.03285964175
0.03339304559
0.03321508231
0.01988549393
0.020257717
0.01968466505
0.02959971708
0.02119479323
0.01520575347
0.04094586114
0.03088635406
0.01100540868
0.01238671714
0.0187640042
0.02113972153
0.01326926388
0.01644861819
0.01459766452
0.04893678314
0.04491317648
0.08982400783
0.07931417346
0.04435155324
0.06779167259
0.09785400367
0.09328378658
0.03689165657
0.0335337992
0.03364069705
0.02348663787
0.02900046929
0.04921534071
0.04861030994
0.04095644272
0.04782991409
0.04805313766
0.02986369268
0.02947125698
0.0512533107
0.05124506038
0.02819661729
0.02777611336
0.02901761676
0.02856627883
0.06159966419
0.06086077185
0.03556029704
0.03764553491
0.0630497631
0.0623283123
0.05573557691
0.05508155497
0.03161097035
0.03283141557
0.05712526702
0.05642726729
0.04171225133
0.02405743034
0.02432970886
0.02364283919
0.02384462782
0.04145000849
0.04313778027
0.02526092657
0.02572724512
0.02459096492
0.02490189237
0.04262918561
0.0392738392
0.0224319643
0.02267356683
0.02206840451
0.02229958425
0.03903457139
0.0406059629
0.02325581368
0.02344310514
0.02283385343
0.02307055839
0.04032141803
0.02581912361
0.02563761934
0.06949604425
0.04534298215
0.04569356739
0.04457330543
0.0448744219
0.06866159438
0.0262791893
0.02607228786
0.02372766618
0.02498628373
0.05962274334
0.0406012231
0.04027457728
0.02660563943
0.02799848477
0.05277273401
0.06649825856
0.04380621324
0.04401768567
0.04302540205
0.04296778674
0.06509378941
0.02450756955
0.0245623254
0.03402792899
0.05179370256
0.05147279878
0.05324841964
0.05287579969
0.03460708082
0.02010214207
0.01986745782
0.02067349088
0.02039843188
0.02044246156
0.01605133234
0.02264365069
0.04201368651
0.03732720811
0.04926677287
0.04745529122
0.03210214356
0.02479919236
0.01738626325
0.02226945073
0.02360551026
0.03772641105
0.0217267208
0.0220101658
0.0210909083
0.0217894103
0.03779138043
0.02140474694
0.02117500312
0.02223376006
0.02198584056
0.01919634727
0.03229909071
0.0319586427
0.03271085403
0.03243992535
0.01927850726
0.01864390588
0.03127136174
0.02954018687
0.03182495714
0.03128385881
0.01863575962
1.154864457
1.155163887
1.155511057
1.155296296
1.155836296
1.155845657
1.156057732
1.156889214
1.156385002
1.157207788
1.12496894
1.1570914
1.088243928
1.154426932
1.155070974
1.155093121
1.155364837
1.156545854
1.155915169
1.157094453
1.007547925
1.157227176
0.9434152539
0.7974904665
1.04536796
0.7642544594
1.15436322
1.155683542
1.155142709
1.156300491
0.9980699472
1.156970372
0.9068806632
0.6909175547
0.9195822392
0.6358770292
0.5123866501
0.7198371564
0.4834653225
1.154836532
1.152606638
1.155978296
1.04531894
0.7444051912
0.9241978664
0.6632180483
0.4710987023
0.6269458209
0.420968219
0.3045537945
0.4529757
0.2763437823
1.15597753
0.9718459591
1.102446969
0.8598301868
0.5894943358
0.6969722283
0.5170756447
0.3389310271
0.4297493027
0.2900515267
0.1721987685
0.264436157
0.1429694701
1.1575517
0.8673786608
0.9392873248
0.7670697612
0.5256085311
0.5648162619
0.4597563254
0.2947537866
0.3192934371
0.2498472199
0.1175631906
0.151839798
0.1063289179
0.06403497304
0.1007023974
1.150287076
0.8320507545
0.8534168938
0.744749044
0.5367662326
0.5219802186
0.4815553392
0.3493201794
0.2995901148
0.2683651126
0.2324572641
0.2181445075
0.1086308941
0.09315774745
0.08400372017
1.131452585
0.838672497
0.8308625738
0.7627730209
0.5881274622
0.5475289224
0.5444186264
0.4529206171
0.3731467203
0.3753611111
0.3543861012
0.317040669
0.2914178881
0.2953588927
0.2519684514
1.129861168
0.8624350364
0.8436345104
0.7950895995
0.6433737229
0.6026301148
0.607225239
0.5432330242
0.4788010608
0.4953375785
0.4964768914
0.4643717256
0.533059025
0.504681293
0.5203069957
1.140043879
0.8920209188
0.8694537721
0.8287610757
0.6842805912
0.6551945192
0.6488265022
0.5819800766
0.5583398832
0.5672423706
0.5757549916
0.5651765016
0.5715657453
0.421190862
0.4370901478
0.8997187956
0.692029376
0.5836044953
0.5645705843
0.5743236183
0.5682532271
0.4874760382
0.3363369034
0.3523428626
0.2133205829
0.1806390361
0.1960088571
0.5258273937
0.5285457098
0.4707994194
0.4423377244
0.4581553246
0.5999691422
0.3576040116
0.3734911143
0.5219049787
0.04350327575
0.05760897565
0.1020266875
0.08474914987
0.053901383
0.4293627322
0.3923248639
0.4069969159
0.3943480832
0.3735988946
0.4389274293
0.2859081314
0.3514391079
0.3624379933
0.5480329386
0.5247250991
0.5197366531
0.5779488033
0.523818287
0.5730026641
0.455191482
0.5147224401
0.5566035357
0.4842071285
0.4995989128
0.5515837434
0.2290440667
0.2965295111
0.2911467884
0.3284838272
0.323163981
0.2544693896
0.5784249348
0.5798313295
0.5733349985
0.6435871785
0.5869070062
0.5923154809
0.5719495757
0.5991212212
0.6529423304
0.3999522845
0.4159083083
0.5619650598
0.1421935563
0.2171324945
0.212830679
0.2458109022
0.2402624221
0.1770368944
0.5753947914
0.5714455397
0.5729140907
0.3153869136
0.3311409658
0.4837512213
0.08337494944
0.1485318665
0.1504889274
0.1731776572
0.1687416817
0.09811991959
0.09309000047
0.08860733825
0.07624453021
0.1849982982
0.1990199491
0.1800385348
0.03939913431
0.03211940978
0.03053835484
0.06541675767
0.05700079215
0.06420754569
0.2799781924
0.4820396331
0.466132083
0.4794831277
0.4869308624
0.2853480576
0.4345143269
0.5181475256
0.4387024879
0.2244074949
0.1342952816
0.1405793651
0.1052296797
0.1095931708
0.2158409502
0.2726392961
0.171593579
0.1811392451
0.1426672078
0.1490580592
0.2422522431
0.1911535277
0.2554480017
0.250209537
0.2858310961
0.2805843212
0.2138110004
0.6093092218
0.4633641823
0.4790405799
0.1645871804
0.1320844598
0.134398857
0.1085796498
0.1101588659
0.1387123596
0.1984069226
0.09985162854
0.1038424753
0.1370565388
0.1398813228
0.17207064
0.1097620647
0.1817639037
0.1773196741
0.2084919199
0.2041426521
0.1285456615
0.5317656049
0.3787937694
0.3946666308
0.1043987973
0.07835798876
0.07936251744
0.05374848452
0.05452095691
0.07929659177
0.133161848
0.1055014583
0.1071491988
0.08046696382
0.08151510997
0.108959109
0.1498238004
0.3102098767
0.04983683028
0.03117485802
0.03150587949
0.07572279134
0.05252016422
0.05312680255
0.03236072891
0.03443928739
0.05496251613
0.2825420541
0.2534679684
0.2888298268
0.1661575675
0.2165460284
0.2642385493
0.1691074811
0.2034653257
0.1492544702
0.1144590442
0.101290132
0.118148559
0.05758803259
0.08302815594
0.1013657867
0.06456312346
0.07540757062
0.0522377595
0.387908207
0.3408001396
0.329077667
0.3263540329
0.3458816132
0.4484183937
0.2431590334
0.3157814809
0.3322666663
0.1446414801
0.1636503169
0.2174401425
0.1117236381
0.1462776984
0.1279018463
0.1712960279
0.1540351814
0.1321364332
0.01474989945
0.01209575731
0.0119802137
0.0229291352
0.0202877036
0.02240325356
0.03285997439
0.02125949451
0.04064383465
0.02535454987
0.03715933193
0.01774508139
0.02286265602
0.03943273543
0.1567268919
0.151244944
0.08567118399
0.2660750367
0.2072624748
0.2127073755
0.1975773844
0.203282929
0.2611621013
0.1162710051
0.09688577815
0.1065167312
0.06471821743
0.07271405881
0.07864096926
0.1569122375
0.1738327482
0.1277266665
0.03955324272
0.0355162677
0.04194238933
0.02052775875
0.02811333294
0.03486027035
0.02483569391
0.02611523223
0.01911636986
0.0520526993
0.0540596051
0.05879255486
0.03256951684
0.03550988817
0.03233055983
0.05718014441
0.04958726452
0.04383809997
0.1208463354
0.13161126
0.2223006987
0.2182562495
0.1111509531
0.1174729393
0.1608462097
0.1687647508
0.2662805183
0.2477840959
0.1512870533
0.1583592358
0.1212118198
0.1228864958
0.1540187095
0.1480828268
0.1179364954
0.1195700707
0.156036955
0.1581499822
0.1912489025
0.1841802976
0.1518657407
0.1539377659
0.0718737392
0.07294168996
0.09694078917
0.09096298342
0.06742672919
0.0698233078
0.09077735855
0.0933808294
0.1224805345
0.1169294026
0.08727503932
0.0887949077
0.1928396942
0.04896246086
0.04970313243
0.07046353542
0.06703311338
0.04751060573
0.04856618525
0.01562864342
0.01531006381
0.2257918214
0.2214315333
0.1444255481
0.3483547674
0.2847141806
0.2897761011
0.2748389825
0.279741947
0.3431142919
0.3694780884
0.3051566485
0.3105163819
0.2949410017
0.3001715276
0.3642123222
0.1745747242
0.2361908486
0.2304910221
0.2865316408
0.2265227357
0.2314343868
0.2169409509
0.2220247741
0.2815526919
0.09665972674
0.1648314817
0.1601467642
0.2653411321
0.2602058895
0.1952996814
0.3908113943
0.326063035
0.3313998019
0.3155524484
0.3208887452
0.3854920311
0.05971730463
0.08361772
0.08238467436
0.08582230665
0.08463256928
0.06028815414
0.1404832649
0.1116266783
0.1132097747
0.1909359052
0.1862716579
0.1120596726
0.3070005653
0.2457736395
0.2506798404
0.2360857851
0.2409616193
0.3019035431
0.3275479717
0.2651404357
0.2699728426
0.2555108197
0.2603185607
0.3224055906
0.1267243721
0.1997861594
0.1954063561
0.0763052335
0.07723828385
0.1028719368
0.05570355334
0.05514132567
0.0355875434
0.08079545472
0.05554014695
0.05721240509
0.1017980266
0.1038962103
0.131335836
0.05690243015
0.07889369488
0.07669890813
0.08145171622
0.08001938221
0.05725412446
0.03631484361
0.05693877492
0.05634763336
0.05818150817
0.05757056698
0.03658288516
0.1105267169
0.08261837724
0.08370185833
0.05135765108
0.05196323578
0.0746659431
0.05854843036
0.03860269432
0.04351173273
0.01431178859
0.01274635495
0.01537065926
0.009783157598
0.01044296939
0.0202826791
0.01789955003
0.0162023686
0.1040247671
0.1069304107
0.07272966416
0.1009286269
0.1049420964
0.09464361068
0.1310936831
0.1167084102
0.1095324411
0.07639798078
0.07187047556
0.06648037406
0.0857877417
0.07820147039
0.08200097003
0.07757944147
0.08183363471
0.09215413573
0.1544486886
0.1159848212
0.1227793449
0.1034224384
0.1087002223
0.1489454846
0.1519459345
0.1338730587
0.1372715862
0.1271030182
0.1313836375
0.1687183807
0.04531582096
0.04932651748
0.04701406692
0.05449706641
0.0516817729
0.0483352544
0.061543645
0.05770081608
0.06021181863
0.09734427826
0.06987939373
0.07259628711
0.05514251653
0.06174038273
0.09224972383
0.1071114434
0.07837177079
0.07913267227
0.07600107854
0.07658611546
0.1051448012
0.07595402212
0.04846583089
0.0488866854
0.04761533755
0.04806590024
0.07508160841
0.08043975916
0.05038682987
0.05181881949
0.04928062169
0.04973733822
0.07894505904
0.1281310931
0.09226607227
0.09358274267
0.08974455848
0.09100563866
0.1261107876
0.1373358666
0.098029844
0.1001613838
0.09494513892
0.09639253602
0.1347683274
0.113459959
0.08264092059
0.08371562594
0.08044801538
0.08142937646
0.1117582215
0.1203725823
0.0872556177
0.08848149039
0.08487820635
0.08602989693
0.1185582825
0.07260964569
0.04687747079
0.04723438164
0.04611423023
0.04647663699
0.07181361284
0.09852552783
0.0742854058
0.07515155901
0.05999600192
0.06390291267
0.08819435858
0.04147817353
0.06618232745
0.06319197395
0.07416137269
0.07035895054
0.0465288536
0.1242172715
0.09642049843
0.09933647662
0.08482932434
0.08599078066
0.1152788452
0.03722659997
0.05950234161
0.05882683698
0.06140534885
0.06031235234
0.03749894899
0.07140912734
0.05018292672
0.05082831114
0.04514614255
0.04715616894
0.06595205502
0.3071987525
0.301871107
0.2341452987
0.4337715595
0.3690685836
0.3744824592
0.3582256741
0.3636487658
0.4283990289
0.4553302545
0.3907044468
0.3960910307
0.379897694
0.3853108201
0.4499217993
0.2493580421
0.3178488991
0.3125227398
0.4122558272
0.3474048249
0.3528083878
0.3366817651
0.3420487132
0.4068923644
0.2091298363
0.2754612472
0.2703148843
0.1281314181
0.1300123769
0.162320588
0.06824380517
0.09824162242
0.09674219417
0.1023086224
0.1000222551
0.06950225513
0.07962185296
0.1087830322
0.1053090799
0.114853283
0.1120697931
0.08398729938
0.1746423298
0.1426722663
0.1452562641
0.04000844907
0.03747888012
0.03537569104
0.04346812516
0.04106640917
0.04351653261
0.03556503515
0.03848935868
0.04160247528
0.06507526476
0.09283975115
0.09161642706
0.09537946295
0.09408547008
0.06577608114
0.1560361921
0.1245906063
0.1263266998
0.1147421007
0.1163495909
0.1461927541
0.06236967112
0.08809807988
0.08691427156
0.09043063366
0.08924060442
0.06303143928
0.09593758971
0.1260801042
0.1243749383
0.1296380698
0.1278705114
0.09727374566
0.1935647746
0.1602914196
0.1624615747
0.1476026939
0.1497561691
0.1819311643
0.09062973744
0.1190634237
0.1172177869
0.122593225
0.1209314284
0.09226891019
1.155564748
1.155573638
1.156023489
1.155592465
1.155620076
1.156039057
1.155659359
1.155717703
1.156067908
1.155799521
1.155909906
1.156128918
1.1560531
1.156230859
1.156231797
1.156439678
1.156667985
1.156374289
1.156908893
1.157136577
1.156509524
1.154655071
1.154656664
1.155108781
1.154671465
1.154704222
1.155132475
1.154753671
1.154799279
1.155330633
1.15518328
1.155239302
1.155405927
1.155456208
1.155562896
1.155654968
1.155944548
1.156120906
1.156088997
1.156690922
1.156931432
1.156725164
1.157621495
1.157875536
1.157450002
1.153762847
1.153781695
1.154215216
1.153829088
1.15391157
1.15429681
1.154023561
1.1542797
1.154644331
1.15460678
1.154730043
1.154828915
1.155252914
1.15548465
1.155450235
1.156392562
1.156767018
1.156503173
1.124625353
1.062913495
1.149208741
0.9234555989
0.8878123214
0.9659179413
1.152906224
1.152957858
1.153360044
1.153062375
1.15323168
1.153556551
1.153484744
1.154063496
1.154194893
1.154344746
1.15459919
1.154586275
1.155690634
1.156191172
1.155908399
1.068700485
0.9828209744
1.070250384
0.7778991076
0.7266058371
0.8039977802
0.6157836502
0.5918809843
0.6637265299
1.15211181
1.152217464
1.152575122
1.152416772
1.152731303
1.152958947
1.153246147
1.154273651
1.154070269
1.154516791
1.155014934
1.154843975
1.157143079
1.055179115
1.122175933
0.7715506308
0.6954766969
0.7570381941
0.5171321298
0.4714931852
0.5271222052
0.3703486327
0.3475728806
0.4014957261
1.151392997
1.151578083
1.151883236
1.151920287
1.152456766
1.152569487
1.153285787
1.155043699
1.154409703
1.15533164
1.156210517
1.155844858
0.9410281965
0.8349587498
0.882159101
0.5797947214
0.5107182669
0.5482405987
0.3453321063
0.3018156481
0.337139701
0.2009579282
0.177199548
0.2136886287
1.150767764
1.15106196
1.151305446
1.15159762
1.15243385
1.152421094
1.153693578
1.156303583
1.15532003
1.156737104
1.13998457
1.157468967
0.8035692385
0.7086184048
0.7312616448
0.4772417909
0.414195943
0.4302436515
0.2567556191
0.2127992447
0.2272831555
1.150246996
1.150697165
1.150870118
1.151477179
1.152677558
1.152538952
1.154446844
1.157838867
1.156664263
1.158397301
1.064801592
1.078780109
0.7488443712
0.6654601828
0.6695857928
0.4625033439
0.4072745295
0.4010535859
1.149820442
1.150499521
1.150597979
1.15156209
1.1531629
1.152917535
1.155448669
1.159461851
1.158235161
1.137947663
1.032736056
1.036130511
0.7504628241
0.6789954631
0.672728503
0.5108114444
0.4678507504
0.4491282405
1.149527122
1.150466998
1.150486503
1.151838911
1.153845197
1.153519592
1.156605697
1.161103461
1.159871638
1.128991486
1.03005425
1.029038181
0.7783397255
0.7167021561
0.7065276694
0.5777030901
0.5453334829
0.526744634
1.149401198
1.150586857
1.15052357
1.152281067
1.154674755
1.154288824
1.157841203
1.162719237
1.161503457
1.133516929
1.04222935
1.038293085
0.8118963818
0.7559423606
0.746631999
0.630981839
0.6028428941
0.5915006431
1.15068062
1.155152619
1.163091842
1.149687501
1.064852081
1.058322773
0.8455940038
0.7907093195
0.7821287191
0.6619455519
0.629903547
0.6253192567
0.078821276
0.07864782765
0.09752239756
0.07129959477
0.05893031971
0.4497970681
0.4329763403
0.4554285032
0.2717215211
0.2979807292
0.2964277437
0.6192671855
0.5964094492
0.6106886478
0.478608205
0.4986815819
0.5163132407
0.6244029183
0.6320175102
0.6239234824
0.6250715549
0.6330152258
0.6599493716
0.1380415268
0.1668253149
0.1647516426
0.6183194703
0.6085078304
0.5932734527
0.07801432776
0.1029892293
0.1010829476
0.1296123105
0.1277524971
0.1011599712
0.2698302471
0.3391475096
0.3338033502
0.3727163409
0.3668047422
0.2965530421
0.1737800773
0.1761847038
0.2108269372
0.2032986353
0.169141965
0.1714420768
0.1059517259
0.1333950543
0.1314746593
0.1627600879
0.1606647135
0.1322411899
0.0992416448
0.09756204183
0.07237554702
0.4341668559
0.2088280763
0.2231609339
0.2461701611
0.1418820541
0.1470399447
0.1249703788
0.0717958871
0.08072211751
0.0886581835
0.05236254659
0.05379379644
0.04645584572
0.3144710844
0.3841336073
0.3782730539
0.2309960699
0.2573936337
0.2788486197
0.1839036538
0.1868208294
0.2073446434
0.09808038568
0.1085582869
0.1008452851
0.02973037375
0.02984080734
0.03657786426
0.1151994386
0.1133175129
0.08917755027
0.02401359065
0.02685021697
0.02965264563
0.01829457739
0.01937787559
0.01705967774
0.1983140746
0.2042722889
0.2261412997
0.2228736242
0.1899785707
0.1937174386
0.01213628362
0.01226859766
0.01456879017
0.1771627676
0.1760389852
0.1494789662
0.1611240565
0.1777966407
0.1778490716
0.09371323561
0.1187622333
0.1168580133
0.1464818874
0.144241605
0.1169267987
0.1230995162
0.1506348414
0.1485365813
1.154948495
1.155086013
1.155016559
1.155259423
1.155161591
1.155045221
1.155452532
1.155297619
1.155376366
1.155455632
1.155494715
1.155362828
1.155803399
1.155631455
1.155630034
1.155740891
1.155668856
1.155808795
1.156315373
1.156192564
1.155977442
1.156663223
1.156404691
1.156586789
1.156225501
1.156286655
1.156497882
1.157579709
1.157193569
1.156906865
1.157806656
1.157480237
1.157906625
1.156901503
1.15713524
1.157384476
1.042046382
1.112792285
1.158048331
1.093150192
1.013861325
1.157636983
1.158058858
1.154605942
1.154654616
1.154505353
1.155042293
1.154833331
1.154820279
1.154949533
1.154877663
1.155051191
1.155704715
1.155565999
1.155286038
1.156258036
1.155889886
1.156099252
1.155666895
1.155749842
1.156051335
1.156597808
1.157170109
1.156671375
1.098319231
1.157653289
1.080868173
1.156836299
1.157214143
1.157658344
0.8865364429
0.9734678206
1.03369385
0.8785300437
0.9228993818
0.8385297826
1.098076918
1.010370067
0.9619289086
0.7371803941
0.8111324497
0.8425513841
0.7872355988
0.7151593006
0.9357565259
0.8604022492
1.154725601
1.154647347
1.154343147
1.155442567
1.15501102
1.155162677
1.154842377
1.154903386
1.15526332
1.157023459
1.156571382
1.155957018
1.076904621
1.157237346
1.094828627
1.156387002
1.156798145
1.155589291
0.8255470012
0.9007932147
0.9850635147
0.7609209043
0.8263478646
0.753908514
0.9908835725
0.9054174897
0.8371525685
0.5881507496
0.6546266474
0.703930553
0.5767824307
0.6124471917
0.5471592289
0.7583878698
0.6829321062
0.646067475
0.4600572664
0.5238148202
0.5473189412
0.5072447933
0.4421913176
0.6444337602
0.5756069678
1.15551521
1.155239868
1.154654436
1.156778255
1.155944792
1.156328293
1.155359297
1.155618218
1.156333569
0.9360395568
0.9942199334
1.104033855
0.7957444782
0.8904558321
0.836095951
1.022352483
0.951394389
0.8566669293
0.5902098318
0.6403877899
0.7130575894
0.517312391
0.575199477
0.5268018559
0.687825674
0.6282651149
0.5691272469
0.3762863994
0.42152798
0.466392535
0.3489584881
0.3824918356
0.3377462977
0.4870486323
0.4321300611
0.3985687308
0.2537022825
0.2983938264
0.3209546519
0.2813641161
0.2369816868
0.3831848829
0.3298728901
1.157038847
1.156611198
1.155636204
1.010894684
1.124445237
1.088673186
1.156762646
1.157193308
1.054355376
0.7596947534
0.7944037888
0.8980861684
0.6189947112
0.7019486369
0.6702117392
0.7850502177
0.7402003528
0.654883872
0.4515587177
0.478667179
0.5452840347
0.3639703118
0.4180499647
0.3923326317
0.4856910696
0.4487992328
0.3943333478
0.2473783714
0.2719182836
0.315399481
0.198973323
0.2329752464
0.208153436
0.2980375494
0.2632903768
0.2297534913
0.1179045334
0.1457794128
0.168687086
0.1298074818
0.09991651625
0.197109125
0.16007793
1.095320326
1.115721585
1.15714029
0.8860815588
1.000357568
0.979556301
1.055387638
1.025866054
0.9100009271
0.6777211494
0.6904561475
0.7826873191
0.5336293356
0.6080378572
0.5978983243
0.6437115842
0.6238326526
0.5468986207
0.399825266
0.4041497773
0.4659019488
0.296727572
0.3478959549
0.3449173223
0.3719905938
0.3571350288
0.3051985474
0.2045935057
0.2039383142
0.2493533407
0.1230755435
0.1645007965
0.1619954363
0.1877554742
0.1737966169
0.1339183041
0.07295271313
0.08548537693
0.07917659142
1.042915665
1.052772169
1.15882899
0.8357878884
0.9393634542
0.9317815276
0.9632276242
0.9500153033
0.8431429309
0.6675112168
0.6644130985
0.7446817101
0.5282754777
0.5927303261
0.598466325
0.5919947621
0.5905824014
0.5231884313
0.4321934605
0.417868882
0.4702809381
0.3284005285
0.3705430261
0.387953713
0.3481829929
0.3570607225
0.3113366133
1.029027033
1.030433966
1.134709602
0.8346739003
0.9256644797
0.9267491281
0.9272481613
0.9257655331
0.8319317274
0.696574437
0.6871416948
0.755934649
0.5737638747
0.6267552972
0.6386376593
0.6063942591
0.6158336613
0.5600524155
0.5072916022
0.4874682356
0.5274001684
0.4260351167
0.4538160378
0.4769061627
0.4083351214
0.4306645413
0.3990794216
1.034776981
1.032118798
1.130130147
0.8557182879
0.9366774625
0.9415178432
0.9290699458
0.9324859834
0.8493991522
0.7368931921
0.7268860527
0.7866537236
0.6305690551
0.6750632552
0.6865151075
0.6508693837
0.663105205
0.6168965154
0.5780150595
0.5625554391
0.5931102417
0.5246116376
0.5395082525
0.5563794511
0.4992563742
0.5203108792
0.5029337129
0.5097765427
0.5304993227
0.548250833
0.5197691389
0.5344537613
0.5150562127
1.052298247
1.046873653
1.137717934
0.8841032876
0.9589030391
0.9658522529
0.9468777627
0.9526868106
0.8766581611
0.7738453258
0.7649775612
0.8202434307
0.6755503179
0.7169354561
0.7258802592
0.6973658437
0.707448383
0.6658620142
0.6195417354
0.6121711306
0.6406175859
0.5774808744
0.5907874136
0.5969306877
0.5706252947
0.5820770187
0.5697647466
0.4265146598
0.4858398657
0.4805009604
0.4961563074
0.4908567014
0.4317739501
0.9728508205
0.9805494529
0.908284391
0.7340593524
0.7421800136
0.6993489824
0.600821952
0.6035287189
0.5839158301
0.3417845713
0.4011196948
0.3951799657
0.4119108544
0.4065159004
0.347013408
0.4476326687
0.506396462
0.5011428182
0.5165340725
0.5113440661
0.452874297
0.3629431973
0.4226212323
0.4170306678
0.4332956604
0.4278537115
0.3682039602
0.04683418573
0.06329425337
0.06343059164
0.07188351987
0.06645491232
0.05120065186
0.09961176764
0.08085825509
0.08573369565
0.07434218114
0.06447797517
0.0756880154
0.04526489851
0.05448778485
0.06394255599
0.04790012897
0.03872119165
0.3817930285
0.4072729424
0.4232857618
0.441465557
0.4231312038
0.4158708666
0.3292707561
0.3262919883
0.3536316902
0.5600056146
0.5772557661
0.5992685173
0.54684796
0.5565857876
0.5447535746
0.5855152414
0.5775666202
0.5514737103
0.4784859594
0.4829969151
0.4669258481
0.5215259361
0.5073874899
0.491314756
0.5361425627
0.520419166
0.5393047209
0.4893968457
0.5460113386
0.5409502915
0.5485778868
0.5507074262
0.4945028367
0.6415221606
0.6361374671
0.6337852538
0.5990137113
0.6099888877
0.6177074403
0.6012784988
0.6119078637
0.5831760286
0.5906813669
0.6042555468
0.601930842
0.6119778718
0.6150582369
0.5836916868
0.6623707545
0.6405069531
0.6411522315
0.4052834828
0.465022826
0.4596160413
0.4754592771
0.470102784
0.4105768011
0.1708015545
0.1687970839
0.140081428
0.5879104484
0.5911923442
0.6024085695
0.568625866
0.5771414282
0.5725988219
0.5848007192
0.5965528218
0.5871811865
0.3205554582
0.3811120937
0.3764224817
0.3905035604
0.3846650678
0.3256894234
0.1073633955
0.1047875265
0.08077195204
0.1326880184