/*--------------------------------*- C++ -*----------------------------------*\
| =========                 |                                                 |
| \\      /  F ield         | OpenFOAM: The Open Source CFD Toolbox           |
|  \\    /   O peration     | Version:  v2012                                 |
|   \\  /    A nd           | Website:  www.openfoam.com                      |
|    \\/     M anipulation  |                                                 |
\*---------------------------------------------------------------------------*/
FoamFile
{
    version     2.0;
    format      ascii;
    class       surfaceVectorField;
    location    "0.6";
    object      Uf;
}
// * * * * * * * * * * * * * * * * * * * * * * * * * * * * * * * * * * * * * //

dimensions      [0 1 -1 0 0 0 0];


internalField   nonuniform List<vector> 
5999
(
(99.99827061 0.007279502382 -2.235431963e-21)
(99.99318261 0.006538617306 6.625668141e-21)
(99.99737405 0.01751681869 -2.204466524e-21)
(99.99041695 0.02220116619 2.244983243e-21)
(99.99563124 0.03439355641 -4.394576157e-21)
(99.98420508 0.04709008714 1.328582997e-20)
(99.99800812 0.03919640141 1.357879058e-21)
(99.97326617 0.08709673444 -8.710680074e-21)
(99.98850364 0.08673631074 -1.460010753e-21)
(99.99691359 0.07103919034 2.11357593e-21)
(99.99896432 0.0424899344 1.041965501e-21)
(99.98660914 0.1181947543 2.098179252e-21)
(99.99693843 0.06706888918 1.023515069e-21)
(99.99773056 0.05274771769 -1.060508911e-21)
(99.99622753 0.0849392601 1.023473266e-21)
(99.97947089 0.1907393107 2.03476944e-21)
(99.99590179 0.1068918873 0)
(99.99569521 0.1308824647 -3.696510332e-21)
(99.97352045 0.2886646195 -3.696491093e-21)
(99.99512891 0.1592047898 -9.586214147e-22)
(99.994521 0.1914674947 3.22025062e-21)
(99.96639684 0.4176053704 3.492214705e-21)
(99.99398731 0.22744233 4.301888383e-22)
(99.99360512 0.2663766163 -2.794758235e-21)
(99.96191235 0.5728519808 4.005062769e-22)
(99.99345523 0.3071296148 -2.803837995e-21)
(99.99363168 0.3479540547 3.860688482e-22)
(99.96396409 0.7351934128 -1.849624102e-21)
(99.99400285 0.3865025105 2.523534163e-21)
(99.99453631 0.4208996145 2.110263866e-21)
(99.9745925 0.8690649198 -9.211248552e-22)
(99.99563922 0.4481451347 0)
(99.98394553 0.02020710568 1.105907597e-20)
(99.97419048 0.01068746725 3.182401201e-22)
(99.97508932 0.04907876102 1.764403351e-20)
(99.96335266 0.0370325654 -1.547632421e-20)
(99.95856448 0.09639761204 9.192538947e-21)
(99.93992079 0.08039134687 -2.395433432e-20)
(99.95028708 0.1541390733 -1.563590396e-21)
(99.90037525 0.1513904241 4.612669775e-20)
(99.91551723 0.1945702328 -1.01539008e-20)
(99.92620696 0.1979737719 -2.180525469e-21)
(99.94372001 0.1960230771 4.283907399e-21)
(99.96540299 0.1391251306 2.129231428e-21)
(99.94577655 0.2313257216 2.0727131e-21)
(99.92787343 0.2533310966 2.113952559e-21)
(99.87896194 0.3346157653 -4.276074732e-21)
(99.91022711 0.324754774 -2.474451887e-23)
(99.91726533 0.3721111602 2.035088772e-21)
(99.88967811 0.4123661208 -2.145564596e-23)
(99.8194353 0.5389551794 0)
(99.87914768 0.4817286737 0)
(99.84677351 0.5522013247 -2.53407613e-21)
(99.88813372 0.5528887935 -4.973618695e-21)
(99.87317841 0.5836909252 -7.190052326e-23)
(99.83761352 0.6745810316 -1.118674174e-20)
(99.86357518 0.6376277492 -3.845368403e-21)
(99.8329208 0.8552740794 3.069602491e-23)
(99.85642798 0.805647787 -2.513982734e-21)
(99.78836047 0.9887965721 -1.371070467e-20)
(99.82544661 0.9279537548 -3.34354474e-21)
(99.80386007 1.195831837 -6.167799054e-21)
(99.83620763 1.115965154 -5.83052669e-21)
(99.75498842 1.37806725 6.874142988e-22)
(99.80179144 1.28253477 -7.39232078e-21)
(99.80411911 1.568867945 -2.875786315e-23)
(99.8441913 1.447945526 -4.743821877e-21)
(99.76051853 1.798411061 2.386529788e-21)
(99.81293289 1.658154814 -3.553485407e-21)
(99.85086365 1.897199726 -2.403675265e-21)
(99.89291186 1.728724996 -3.952030185e-21)
(99.82299996 2.160531818 -3.639445516e-21)
(99.87171136 1.97169157 -1.493444896e-21)
(99.95687098 0.02611333654 -2.655707894e-20)
(99.94953664 0.01023841238 -1.327333025e-20)
(99.93243047 0.06534435504 -5.747552186e-20)
(99.92640237 0.03752784899 1.224413327e-20)
(99.88791977 0.1320469712 1.182208946e-20)
(99.87730831 0.08780586082 -4.865220031e-20)
(99.84150488 0.2311533436 2.935993554e-20)
(99.79723895 0.173595238 5.2877303e-20)
(99.78757533 0.2535424795 -4.692235248e-20)
(99.86485289 0.2468963 -8.724845898e-21)
(99.79140973 0.2802497173 -6.470594316e-20)
(99.8102241 0.3097123652 -4.370873e-21)
(99.78816043 0.4229168887 -8.521824405e-21)
(99.76269344 0.4079831142 -4.246644081e-21)
(99.67549645 0.4913874996 2.980232273e-20)
(99.70753188 0.5286399566 8.366720167e-21)
(99.68562215 0.6886570697 -7.370265637e-21)
(99.64407406 0.6761761632 5.447431643e-21)
(99.51799752 0.8134678776 -4.198485223e-20)
(99.60728462 0.8251366052 2.949195872e-21)
(99.54318523 0.8857294219 -1.828161098e-20)
(99.59146522 1.024623402 -7.523579668e-21)
(99.55867641 1.023316037 0)
(99.48389589 1.128614521 7.797838433e-21)
(99.52396824 1.13828626 -7.490369889e-21)
(99.46591806 1.531044643 3.646945849e-21)
(99.41733298 1.542922964 1.428996015e-20)
(99.32290035 1.698915796 7.077647877e-21)
(99.38408653 1.695805257 1.774543761e-20)
(99.37331369 2.172042493 -4.751084163e-21)
(99.30461512 2.210515548 -7.407345925e-24)
(99.20393994 2.425024804 -5.623997109e-20)
(99.29078771 2.392210102 -1.00164942e-19)
(99.38524462 2.876380042 -9.831517267e-20)
(99.29953023 2.962488924 8.198728078e-22)
(99.2138349 3.240306183 -1.647213879e-19)
(99.32177787 3.150915705 -1.677841147e-19)
(99.5421375 3.521892728 1.195351471e-19)
(99.45453758 3.680703669 1.362313264e-19)
(99.41354114 4.002492624 1.185910472e-20)
(99.52386627 3.827255276 2.196043332e-19)
(99.92511737 0.02060017385 2.666534703e-20)
(99.93012757 0.003437230559 -4.450158936e-21)
(99.8787744 0.05746715457 2.24534829e-20)
(99.89167708 0.01801061802 3.114671341e-20)
(99.79567817 0.1284872013 -8.919548907e-21)
(99.81043412 0.05972151929 -4.406541833e-21)
(99.68968634 0.2578297389 0)
(99.67826674 0.1396505551 6.805702838e-21)
(99.62661413 0.2525224477 2.070226402e-20)
(99.70627454 0.2974913505 -6.04387309e-20)
(99.61343751 0.2953667025 1.556477829e-20)
(99.61993652 0.3566403112 0)
(99.54445779 0.5355389206 2.719402835e-22)
(99.52661231 0.4810657549 -3.431676253e-20)
(99.39885556 0.5517521699 -3.429367669e-20)
(99.41603298 0.6367565477 6.955475501e-20)
(99.32096002 0.9058022497 -1.033049101e-19)
(99.28700731 0.8295801871 3.808786723e-20)
(99.10126838 0.9551150481 -6.911307839e-20)
(99.18407957 1.057271247 -3.439445807e-20)
(99.09509065 1.076537567 -5.651625693e-20)
(99.08871838 1.383422858 8.154683309e-21)
(99.05338257 1.338875033 1.619808467e-20)
(98.93465717 1.445151771 4.099031491e-20)
(98.97384188 1.503578637 8.087226733e-21)
(98.78705616 2.137803213 -1.706477267e-20)
(98.72604312 2.090418264 8.987841136e-21)
(98.57789083 2.253172054 1.577946303e-21)
(98.64956109 2.315848752 -3.078185649e-20)
(98.55903523 3.130809838 0)
(98.45895747 3.096794453 1.164734261e-19)
(98.29370411 3.345235335 -1.210319658e-19)
(98.41385755 3.392761749 -1.131477403e-19)
(98.52724219 4.349162975 -5.523491528e-19)
(98.37805486 4.365920003 -2.373125505e-19)
(98.23044487 4.722267896 2.181709283e-20)
(98.41184429 4.706017759 -2.326597883e-20)
(98.88253577 5.562281554 0)
(98.69843273 5.689916285 -3.614916099e-20)
(98.64258474 6.131775579 1.4633878e-19)
(98.86322956 5.976428166 1.011913726e-19)
(99.90320438 0.0004948639307 0)
(99.92968233 -0.010643092 0)
(99.83152785 0.01863766055 4.500545252e-21)
(99.87464025 -0.02452374767 0)
(99.70282024 0.07295780133 1.14291239e-20)
(99.75933378 -0.01014871313 -3.685384021e-21)
(99.52383398 0.2124701718 1.91212078e-20)
(99.56696038 0.04230458873 2.516859825e-20)
(99.46346103 0.1702839582 -7.586445664e-21)
(99.52158856 0.2722736922 2.68024693e-20)
(99.42604176 0.2267555829 2.163487267e-21)
(99.40456608 0.3144442458 -1.088040074e-20)
(99.24461164 0.5362726779 0)
(99.25105471 0.4458232971 -2.248969163e-20)
(99.08755146 0.4857912962 -1.847821564e-20)
(99.06826702 0.6135750595 4.588849138e-21)
(98.8605892 0.9551191339 0)
(98.8539237 0.8270324121 4.588357841e-21)
(98.61012946 0.9041592563 -4.741828733e-21)
(98.64861203 1.100803632 2.293920714e-20)
(98.5478798 1.087607671 5.93301032e-21)
(98.41987143 1.533317198 2.288621527e-19)
(98.39943956 1.440298551 -3.42731709e-20)
(98.23511507 1.527067731 9.089397916e-20)
(98.25745254 1.636602189 -3.457858119e-20)
(97.86628507 2.483371172 1.080458375e-20)
(97.81340054 2.362723404 -2.599705812e-19)
(97.60322961 2.509609946 9.420881145e-21)
(97.66004206 2.660795078 5.501410725e-19)
(97.3300265 3.886171187 0)
(97.21604804 3.750799571 2.677519655e-19)
(96.95038745 4.01722607 0)
(97.08682452 4.185118232 1.347414421e-19)
(97.06875441 5.815650515 -8.424245155e-20)
(96.84686938 5.708752819 7.622313666e-21)
(96.57005471 6.15298617 -1.799566272e-21)
(96.84812402 6.281559393 3.359131468e-20)
(97.6185833 8.028704979 6.365536729e-20)
(97.26260581 8.07773108 -1.705818591e-23)
(97.12988078 8.730518164 1.287291219e-19)
(97.57493548 8.644927836 2.034551017e-19)
(99.90735625 -0.03539571937 0)
(99.96309552 -0.03201538198 2.203611286e-21)
(99.81031984 -0.05380302483 -9.015306711e-21)
(99.89209665 -0.08992757187 -2.220797194e-21)
(99.63482591 -0.03904750649 9.355874285e-21)
(99.74560404 -0.1227282958 -4.47955266e-21)
(99.37441994 0.06736999795 1.224890073e-20)
(99.49825482 -0.1207392815 3.688701637e-21)
(99.32548008 0.001289231509 -2.909939905e-23)
(99.34539937 0.1566172729 -9.094262919e-21)
(99.2547277 0.0639279554 -9.196723636e-21)
(99.19967589 0.1637716057 0)
(98.93481861 0.398075972 -1.847775949e-20)
(98.98087893 0.2798394645 0)
(98.79320306 0.2731124971 -1.210255706e-22)
(98.71804488 0.4311565433 -8.441656247e-23)
(98.35705005 0.799865865 9.544242088e-21)
(98.40440201 0.6287437257 1.43196602e-20)
(98.11643339 0.640688208 1.931724298e-20)
(98.08268012 0.918978365 -3.202569753e-21)
(97.98833575 0.8523131328 -2.822581948e-20)
(97.68472411 1.385343819 -3.041936236e-19)
(97.69978176 1.253408585 -3.405743032e-19)
(97.50585915 1.294973275 1.784740039e-20)
(97.48361768 1.450406811 -6.12469642e-19)
(96.75329562 2.421337855 -1.889182923e-20)
(96.74458887 2.227922859 1.257622226e-18)
(96.46463787 2.330756381 7.058021994e-19)
(96.46810549 2.561084888 9.375930947e-19)
(95.64359514 4.13621413 2.976978159e-19)
(95.56708256 3.869511911 3.120307908e-19)
(95.16315252 4.07239597 1.729062739e-19)
(95.25517661 4.418308687 3.146322611e-19)
(94.64621518 6.914424943 1.04740689e-18)
(94.38655765 6.561428182 -8.097028993e-20)
(93.8471097 7.020066599 6.184492628e-19)
(94.17709671 7.465220913 4.74590937e-19)
(94.89584416 11.02074112 2.738276696e-20)
(94.23601176 10.78884797 -5.416609369e-19)
(93.76325183 11.79878778 0)
(94.66216996 12.03879719 2.329076379e-19)
(99.95331859 -0.08576202421 -1.648363925e-23)
(100.0440109 -0.05973739231 8.487630997e-23)
(99.83411266 -0.1575975932 2.311552362e-21)
(99.95992896 -0.1749252056 -1.034336457e-22)
(99.61782641 -0.202717827 -1.210645158e-20)
(99.78833575 -0.2718273502 1.839994464e-21)
(99.27550932 -0.1521862511 -1.091046497e-20)
(99.49657701 -0.3421044612 -1.838213027e-20)
(99.25471507 -0.2489510796 -1.568486766e-20)
(99.20575692 -0.05392998347 -8.563185648e-21)
(99.14798384 -0.1913412945 -3.424501974e-21)
(99.04627879 -0.09076772104 3.866971665e-23)
(98.67096251 0.112149436 1.394979914e-20)
(98.76839142 -0.01848782157 1.421365578e-20)
(98.57518243 -0.08231700228 7.018219396e-21)
(98.43301436 0.08314589226 2.421474605e-20)
(97.90714768 0.4242297895 -1.938659136e-20)
(98.03067571 0.2227118698 -1.463417842e-20)
(97.73741511 0.1527486003 1.60984184e-20)
(97.59443961 0.4557760369 3.772098486e-20)
(97.5248952 0.354398048 -2.77728603e-19)
(97.00971228 0.8973795783 -3.570632443e-19)
(97.07816074 0.7395022567 3.422618274e-19)
(96.86631737 0.724795868 3.229946287e-19)
(96.77823488 0.9056555973 1.733085795e-18)
(95.6288164 1.836797978 -4.990257664e-19)
(95.70277665 1.586483588 1.306999174e-18)
(95.3787889 1.598742285 8.700100334e-19)
(95.2778044 1.888061189 8.702803757e-19)
(93.69957808 3.492182294 -5.642808086e-19)
(93.7538258 3.091751969 -1.923537707e-19)
(93.24230503 3.149741211 -4.832093185e-19)
(93.1480043 3.623363096 2.177285679e-19)
(91.04745908 6.533886631 5.078265993e-20)
(90.97469362 5.849508764 4.273688247e-19)
(90.07799795 6.027508602 -4.288765675e-19)
(90.1275996 6.91623405 4.289376247e-19)
(88.30359421 13.39612609 -7.031749355e-21)
(87.4850346 12.12937758 3.969214379e-19)
(85.55093296 13.66466328 1.224181666e-18)
(85.79539501 12.78497074 -1.264960287e-18)
(87.40295956 15.00233889 -1.52954131e-18)
(86.34174219 15.05467823 -4.663385319e-21)
(100.0547155 -0.1477225603 1.728225059e-23)
(100.1833633 -0.09198900321 -3.265493352e-21)
(99.9192144 -0.286262931 -5.989780801e-22)
(100.0906416 -0.2738163194 1.422848919e-21)
(99.67351791 -0.4082675734 -4.699371991e-21)
(99.90350087 -0.4463736885 -3.093493902e-21)
(99.2648216 -0.4403402519 9.700475912e-21)
(99.584112 -0.6036422806 -1.069131976e-21)
(99.28173923 -0.5615584636 1.014582679e-21)
(99.1475377 -0.3490529538 4.748766814e-21)
(99.14154649 -0.5183992908 9.829273628e-21)
(98.99173603 -0.4338601229 6.936690526e-21)
(98.51359634 -0.3040417764 -2.36674124e-21)
(98.66905663 -0.4268888589 3.672498752e-21)
(98.49070082 -0.5476222517 2.425862508e-21)
(98.28098724 -0.4024276596 7.35224792e-21)
(97.61849807 -0.1635831026 -4.328082491e-20)
(97.82187309 -0.3579011744 -8.168381669e-20)
(97.55836079 -0.5131343054 -4.332249229e-20)
(97.29681013 -0.2223492735 -2.722656464e-19)
(97.2687714 -0.3615893104 1.610726825e-19)
(96.53550169 0.09729951389 5.843219235e-19)
(96.66849334 -0.06068276417 -1.006477845e-18)
(96.46423926 -0.140276357 -6.319703648e-19)
(96.30296579 0.03320042449 -6.752660098e-19)
(94.78830962 0.6904181986 0)
(94.97002769 0.4358996072 1.818766295e-19)
(94.65707936 0.3380995188 -1.961429398e-19)
(94.4309974 0.6144274492 3.950615121e-19)
(92.158024 1.710568595 -3.165972486e-19)
(92.42224203 1.298734428 -5.14953634e-19)
(91.93256021 1.13674479 -1.025268859e-18)
(91.58202821 1.581745121 -5.273569805e-19)
(87.80440455 3.362546431 1.60446843e-20)
(88.25500852 2.618094802 5.028009842e-19)
(87.4422045 2.234110102 -5.002296598e-19)
(86.75189017 3.026181112 1.573575155e-19)
(79.15466374 6.198644139 -1.262027227e-18)
(79.780993 5.213767152 6.346414496e-19)
(78.83126052 4.543620576 -5.961586903e-19)
(77.89059238 5.578787903 8.092274557e-19)
(100.2214128 -0.2167219325 -1.859885339e-21)
(100.3877992 -0.1263379893 1.030476994e-21)
(100.0774579 -0.4299778926 -1.084975561e-21)
(100.2918376 -0.379102876 -7.628734711e-22)
(99.81719089 -0.6385915563 5.554997754e-22)
(100.1003347 -0.6322773605 -2.736722382e-22)
(99.36495993 -0.7715398187 6.332951399e-22)
(99.77325029 -0.8833452847 9.258007747e-22)
(99.42502693 -0.9065051927 5.528376197e-22)
(99.20049652 -0.7013199735 1.614705501e-21)
(99.25747778 -0.8873122476 -1.600334958e-23)
(99.06447567 -0.831827201 -1.600562575e-23)
(98.51075878 -0.8068643064 -2.419127544e-21)
(98.71996703 -0.9034462657 0)
(98.5756099 -1.074835611 -1.186397628e-21)
(98.31102843 -0.9720249157 -1.260478635e-21)
(97.55999455 -0.8849017515 4.096206933e-20)
(97.83342933 -1.040699104 -1.292343508e-21)
(97.626203 -1.266517021 -5.018215256e-23)
(97.25957662 -1.02988725 4.463583143e-19)
(97.28122451 -1.188068248 -4.408153641e-19)
(96.38672858 -0.8992766173 -8.832616949e-20)
(96.57351692 -1.0293992 -8.855348106e-20)
(96.40596346 -1.161990203 6.101714449e-19)
(96.17900687 -1.027888857 7.249215963e-19)
(94.49615704 -0.783108933 2.32266502e-19)
(94.75590918 -0.9822477128 2.805081608e-20)
(94.51706321 -1.160643506 1.576172483e-18)
(94.18901242 -0.9599406134 1.807671959e-18)
(91.71795132 -0.6461435289 -1.747723179e-21)
(92.13120895 -0.9266279632 -1.990080432e-20)
(91.78633508 -1.213402839 -4.290484327e-20)
(91.29875895 -0.9530835808 -3.484342604e-21)
(87.51973449 -0.9496869534 5.149935721e-19)
(88.22650979 -1.296510893 -5.015368656e-19)
(87.80206741 -1.827159335 5.010246316e-19)
(86.99277766 -1.575809065 3.637688154e-19)
(81.9196575 -3.272471931 -3.928953115e-21)
(82.57932799 -3.289595639 -1.187656311e-18)
(82.50326821 -3.8041528 -1.18675422e-18)
(81.89693156 -3.897327635 -2.248219606e-18)
(100.4580847 -0.2873597372 2.124319511e-21)
(100.6588715 -0.160169258 1.040117169e-21)
(100.314309 -0.5770156119 3.245807915e-23)
(100.5650826 -0.4826374602 1.100424701e-21)
(100.055622 -0.873876245 1.074614241e-22)
(100.3803927 -0.8143337003 1.012761003e-21)
(99.58679685 -1.115818317 -1.566714232e-21)
(100.0658452 -1.157600361 -8.883595775e-22)
(99.6898895 -1.25218154 7.240490134e-22)
(99.38077672 -1.078155181 -1.111603063e-21)
(99.50395115 -1.263326374 -5.615296363e-22)
(99.27795373 -1.246311444 -1.111533106e-21)
(98.68551086 -1.3440547 3.910683572e-24)
(98.93662464 -1.398688114 1.186319117e-21)
(98.83918685 -1.607894149 1.18632963e-21)
(98.53869263 -1.561512098 1.186307638e-21)
(97.7545852 -1.645892423 -4.248873262e-20)
(98.07928664 -1.740542817 -4.253215662e-20)
(97.94164424 -2.013015585 -2.210576424e-21)
(97.50248686 -1.858493921 -1.759065206e-20)
(97.57065826 -2.013731511 -4.894994164e-19)
(96.59717676 -1.930500709 5.177060081e-21)
(96.82494512 -2.01226587 7.913873405e-19)
(96.70159958 -2.176729741 8.290770177e-19)
(96.4447852 -2.097886059 -3.405802623e-20)
(94.77751779 -2.244664365 -6.027896477e-19)
(95.09514206 -2.366996815 -4.058656416e-19)
(94.9220329 -2.581102613 -5.944193229e-19)
(94.569399 -2.4713442 -1.203920505e-18)
(92.27591596 -2.75453859 0)
(92.72896042 -2.896452526 -2.157764502e-19)
(92.51057756 -3.205438077 4.251429344e-19)
(92.01940481 -3.097711223 0)
(88.95079187 -3.907049829 2.224017492e-20)
(89.59782969 -3.99853091 -4.650306613e-19)
(89.3749062 -4.453967749 -4.544377456e-19)
(88.72170217 -4.430455337 -1.578374175e-18)
(85.63558654 -6.126011361 -9.107862475e-20)
(86.00366559 -6.065807085 -4.879155628e-19)
(85.9873415 -6.361599369 -1.093676663e-18)
(85.57651983 -6.388182338 -1.218178561e-18)
(85.69625517 -6.47306199 -9.336348343e-20)
(100.7636897 -0.3543146862 9.084803921e-24)
(100.9931257 -0.1910734229 2.740366064e-21)
(100.6280267 -0.7159499604 2.051912312e-21)
(100.9062833 -0.5767830138 1.039659583e-21)
(100.3866911 -1.094096584 6.381372739e-23)
(100.737226 -0.9775770776 -6.389966019e-23)
(99.92662514 -1.443440648 -2.093522926e-21)
(100.4561734 -1.408353616 -9.496686136e-22)
(100.0669587 -1.572016584 -5.056339847e-22)
(99.68797835 -1.445120528 -5.45707959e-22)
(99.87228017 -1.614132639 -1.088185556e-21)
(99.6267155 -1.638761401 9.407899569e-23)
(99.03377956 -1.860072648 0)
(99.31070892 -1.863931152 1.094882046e-21)
(99.26597436 -2.095218161 2.172696434e-21)
(98.94875429 -2.110026276 1.181577377e-21)
(98.18221487 -2.359612846 3.871830812e-20)
(98.53519908 -2.38322689 -1.793847277e-23)
(98.47038523 -2.678690005 -5.9757805e-21)
(97.99231938 -2.615588581 -2.731423839e-20)
(98.09861002 -2.754458056 2.546414178e-20)
(97.12188015 -2.865435946 8.542596033e-19)
(97.36726579 -2.897645394 1.073840677e-19)
(97.29322393 -3.074873671 1.268297414e-19)
(97.02363885 -3.050537745 3.894696304e-20)
(95.49120282 -3.49631421 1.891779516e-19)
(95.82235573 -3.546200191 -1.826914883e-19)
(95.71867637 -3.767535929 -1.927986796e-19)
(95.36341185 -3.733864643 1.891281396e-19)
(93.35332253 -4.380530047 -3.987141911e-19)
(93.79567634 -4.420537885 2.049596349e-19)
(93.66930199 -4.717678221 -4.174073478e-19)
(93.20575639 -4.705866883 -8.24954538e-19)
(90.67124651 -5.80454264 -8.495079296e-19)
(91.23832453 -5.788959177 1.707295644e-21)
(91.10481663 -6.183568526 -8.495157114e-19)
(90.53919803 -6.231384236 -1.301808743e-18)
(88.1185608 -7.684718752 3.243016398e-19)
(88.39906387 -7.626945626 -5.278250357e-19)
(88.37978563 -7.846261183 -2.116041942e-19)
(88.07259013 -7.866739136 -7.10467371e-20)
(88.16007487 -7.924894025 3.977629849e-19)
(101.1320072 -0.4126995236 3.771795178e-21)
(101.0107421 -0.8366569773 -1.010777286e-21)
(100.7977727 -1.282675969 -1.010744328e-21)
(100.3637845 -1.73196744 0)
(100.1044108 -1.773146476 7.517341295e-24)
(100.0884794 -1.975657341 2.064838444e-21)
(99.53108324 -2.308853223 -1.096546569e-21)
(99.81727138 -2.260538234 -1.189592969e-21)
(99.50864034 -2.572175637 1.17444459e-21)
(98.79951905 -2.965083246 -1.08091207e-20)
(99.15901137 -2.917740517 -1.646685931e-21)
(98.67628031 -3.241616593 2.230921526e-20)
(98.81015258 -3.355461123 3.840577738e-19)
(97.88395402 -3.631516489 5.522732995e-19)
(98.13105462 -3.617096092 3.555745659e-20)
(98.10256273 -3.79237084 3.432089273e-21)
(97.83647322 -3.816474867 -3.285736207e-20)
(96.48903429 -4.473910462 3.92673975e-19)
(96.81450025 -4.461925136 -1.419104055e-18)
(96.77044496 -4.672890886 -6.887507881e-19)
(96.42796309 -4.702103825 -3.421651096e-19)
(94.69680016 -5.582151496 -3.777167116e-19)
(95.11802851 -5.54711072 1.24274638e-20)
(95.06303335 -5.823448918 -3.693787799e-19)
(94.62592155 -5.882807626 -3.732742713e-19)
(92.43061319 -7.176760074 -7.876371075e-19)
(92.95999675 -7.0953284 -3.677340388e-19)
(92.89176488 -7.465637396 2.600703932e-19)
(92.34782357 -7.567275815 8.736898797e-19)
(90.10597951 -9.027670569 -3.86880227e-19)
(90.36645973 -8.986024925 -3.706667055e-19)
(90.35939828 -9.206922452 -9.370581206e-20)
(90.05430818 -9.212306682 -4.320176376e-19)
(90.13853823 -9.284016446 0)
(82.03005559 -2.702845337 1.76662354e-18)
(81.23214397 -3.340844903 2.403275162e-18)
(81.30588107 -2.637073705 1.189161094e-18)
(85.6529242 -5.816144705 3.778835963e-19)
(85.26855331 -5.873984118 -6.35106361e-19)
(85.20952972 -6.152408425 1.161203392e-20)
(85.33434656 -6.242516402 1.72585332e-18)
(88.13603912 -7.459138292 1.168339578e-22)
(87.8483402 -7.519736331 2.138873334e-19)
(87.80365867 -7.709331977 7.693252383e-19)
(87.89453559 -7.765808703 2.870907024e-19)
(90.11717943 -8.809836058 -7.703960725e-19)
(89.8572175 -8.850232749 -4.028176343e-22)
(89.80404747 -9.031699264 -6.956085015e-19)
(89.88661235 -9.10236063 -2.576097025e-19)
(80.2582248 6.719299741 -6.372629636e-19)
(78.43974622 7.44134039 -6.372184483e-19)
(79.82073012 7.784629087 1.155295889e-18)
(89.20923242 -3.431056297 4.873616211e-19)
(88.26301794 -3.849805239 1.477408801e-18)
(88.53888267 -3.295115293 4.184297554e-21)
(86.02023178 -5.757562616 -1.805564975e-20)
(85.6702602 -5.490893004 4.876756893e-19)
(86.06529188 -5.453549262 -1.982097141e-18)
(82.69540955 -2.710769671 5.772938939e-19)
(83.30856227 -2.785274708 -1.857588778e-20)
(83.18172799 -3.266406155 5.5697856e-19)
(90.82167504 -5.39854448 0)
(90.09095041 -5.840122189 9.941289629e-19)
(90.23833208 -5.394495335 0)
(88.41616359 -7.406483539 -8.547287093e-19)
(88.15132396 -7.231354673 6.997069439e-21)
(88.44844152 -7.186902049 -8.646534906e-19)
(86.39832161 -5.717380029 1.94506504e-18)
(86.35691361 -6.006487702 4.980148217e-19)
(86.97005032 -6.986862438 1.626601596e-20)
(86.98297769 -6.727181318 5.043402976e-21)
(86.65385957 -6.790812352 -1.310787625e-19)
(86.60310624 -7.020197417 6.193592139e-19)
(86.71245287 -7.087340784 6.193292228e-19)
(85.99499765 -8.096914539 -1.143279491e-18)
(85.84057591 -8.160520725 -4.341115192e-19)
(85.81740161 -8.028340332 0)
(85.98994197 -7.969565896 0)
(85.78025813 -8.141764712 -3.94297154e-21)
(84.48057712 -7.377954303 6.768623831e-19)
(84.42642858 -7.506146323 3.798013777e-19)
(84.67487609 -7.333130473 -9.799189107e-19)
(84.67105559 -7.484164334 7.69768274e-19)
(84.48959725 -7.549879424 -9.801816386e-19)
(92.5172554 -6.802500929 -1.175437197e-18)
(91.88473133 -7.261634776 -1.56542844e-18)
(91.98150591 -6.867198675 2.863862028e-21)
(90.37739839 -8.771180656 -7.545902406e-19)
(90.13173874 -8.597914139 -7.527422186e-23)
(90.40368445 -8.556487058 -7.571290152e-19)
(88.70624143 -7.363156974 -4.215809867e-19)
(88.67295452 -7.577972508 -8.461824567e-22)
(89.12642182 -8.334374058 1.012660293e-19)
(89.14744671 -8.123691392 -8.067129914e-19)
(88.88214928 -8.169216152 -5.077051487e-19)
(88.83078107 -8.343232894 -2.690298243e-19)
(88.91135676 -8.407109805 -7.219289971e-19)
(88.02877681 -9.115184407 -2.403921265e-23)
(87.93260881 -9.11555685 0)
(87.98169489 -9.076131215 0)
(88.06631108 -9.071689591 -2.924001554e-19)
(87.1884887 -8.571307412 -4.013305558e-19)
(87.12284247 -8.65093751 -2.671087809e-19)
(87.33956736 -8.535147888 -7.919978072e-19)
(87.31715672 -8.63296168 -3.986613999e-19)
(87.16474776 -8.67288037 -2.66433941e-19)
(90.64987912 -8.727650746 1.787545214e-21)
(90.62771697 -8.945034503 -1.604879705e-22)
(91.22130994 -9.684668602 8.698522435e-19)
(91.19231474 -9.553063001 7.189742197e-19)
(91.08314573 -9.71249847 2.88881594e-19)
(91.06872802 -9.599216372 2.815931946e-19)
(89.67564563 -10.67434603 5.425059402e-19)
(89.47798469 -10.66561342 -2.74341794e-19)
(89.62440377 -10.61539511 -2.7066048e-19)
(89.77100946 -10.61696888 3.717085769e-21)
(88.84195718 -9.864727199 6.66559915e-21)
(88.76220522 -9.914096176 8.699643156e-19)
(88.95499914 -9.860835373 5.637776025e-19)
(88.90016094 -9.912794548 8.592213411e-19)
(73.38706709 -4.311777298 3.878616073e-20)
(74.32622882 -4.168010233 2.608748433e-21)
(74.46227649 -4.953418969 -2.028840112e-18)
(73.40289575 -5.20209431 1.173447868e-18)
(73.79638774 -5.382520408 1.089944009e-18)
(79.87683426 -6.602889141 -5.432629656e-19)
(79.68586112 -6.26932751 -1.120628753e-18)
(79.31160931 -6.51971321 -1.434903068e-19)
(79.48054088 -6.855218443 -1.708693541e-18)
(79.66269022 -6.87485258 -1.10194283e-18)
(68.6106696 7.802474363 7.820776475e-19)
(67.70483099 9.156234045 -3.458844494e-18)
(67.40821097 6.761677833 -7.708584754e-19)
(66.05310269 8.19430564 -7.721699324e-19)
(73.31969651 -3.447404644 7.370312199e-19)
(72.41061472 -4.600117669 -5.534992735e-19)
(72.27814528 -3.510404821 2.291839993e-21)
(84.30066132 -7.440918441 1.895435529e-18)
(84.29264323 -7.272810256 1.178678606e-19)
(84.48630544 -7.227191218 3.511026678e-19)
(84.23954443 -7.398271522 -3.805041941e-19)
(82.87543934 -6.83037977 4.777168212e-19)
(82.84749755 -6.67282988 9.695997909e-22)
(83.05949946 -6.587894604 1.523513707e-20)
(83.08406116 -6.741933248 9.507352727e-19)
(84.02758609 -4.99503617 -5.501328011e-19)
(84.49070885 -4.944851985 -2.111706529e-18)
(84.46621736 -5.309546673 -1.315597309e-19)
(84.0553722 -5.402033078 -1.086476685e-18)
(82.6616351 -6.930704447 -1.231091197e-19)
(82.89343236 -6.986645495 -6.04724491e-19)
(82.64062088 -7.062493584 5.179346571e-19)
(82.71696814 -7.068685997 -1.466007818e-21)
(84.30685115 -7.521892732 1.368079119e-18)
(84.19284455 -7.541425243 6.895769646e-19)
(84.20946175 -7.467161563 3.451695724e-19)
(80.2067259 -6.366898386 1.121755252e-18)
(80.37709008 -6.664157483 5.07395499e-19)
(80.01109702 -6.889135448 7.187255801e-19)
(80.16562214 -6.898310246 6.936667762e-19)
(82.63434821 -6.769223219 -6.007459787e-19)
(82.41468503 -6.879671847 2.515057744e-22)
(82.40180187 -7.019689085 1.984740982e-18)
(82.48355451 -7.020774459 -1.115465693e-18)
(87.03749878 -8.612454112 -1.512535764e-21)
(87.0571154 -8.5104103 -1.015615e-19)
(87.20839965 -8.471680226 -3.952390888e-19)
(86.99551027 -8.590700616 8.642816685e-19)
(85.95734241 -8.204597805 -7.692640102e-19)
(86.1632034 -8.038319139 -7.31277569e-19)
(86.16616887 -8.160541168 -2.058984953e-19)
(86.01503359 -8.221226927 -7.706928979e-19)
(87.28764755 -6.923062199 -3.161300958e-21)
(87.27479526 -7.172516808 -1.359533614e-18)
(86.9230075 -7.206480596 -6.088270742e-19)
(87.02780589 -7.268515652 -1.11315961e-18)
(85.85275049 -8.23047566 -3.26462476e-19)
(85.93448108 -8.259556408 8.151491095e-22)
(85.83746804 -8.287743657 -9.608787918e-19)
(87.02788477 -8.663697218 -1.758919321e-21)
(86.92848701 -8.676994379 -3.364738315e-19)
(86.96124465 -8.633627868 6.467593248e-19)
(84.39701564 -7.576547575 -3.385153435e-19)
(84.28605948 -7.596925796 3.42229186e-19)
(85.74981092 -8.258740216 1.548961012e-19)
(85.75829605 -8.199466181 -3.284152308e-19)
(88.70527081 -9.865588534 -1.43927291e-18)
(88.78479375 -9.815787593 -1.425214494e-18)
(88.89693403 -9.812606519 -1.13204951e-18)
(87.9772072 -9.155512615 -2.411718336e-23)
(88.11466324 -9.112068094 2.93631811e-19)
(88.07567253 -9.156443533 -2.988129344e-19)
(89.38885919 -8.291735602 5.051753802e-19)
(89.36880772 -8.502940677 5.049354671e-19)
(89.0732384 -8.508822583 7.900200436e-19)
(89.15316874 -8.574624656 3.382961815e-19)
(87.88021935 -9.156054886 0)
(87.92280548 -9.197220828 0)
(87.80331155 -9.191628451 1.640045175e-21)
(88.6225945 -9.915986326 -5.797041424e-19)
(88.43455827 -9.911015745 -1.178162693e-18)
(88.56706108 -9.866912827 -5.819043207e-19)
(87.0874296 -8.693453141 -2.973183803e-22)
(86.99072002 -8.706484508 -3.369111914e-19)
(87.7638304 -9.152417569 0)
(87.83735049 -9.117856524 6.115962717e-19)
(89.5254863 -10.72422697 5.478976912e-19)
(89.82686654 -10.67563079 2.644461513e-19)
(89.73196609 -10.73217647 2.650707743e-19)
(91.2231158 -9.800114131 2.85876379e-19)
(89.32487636 -10.71459086 -2.773910067e-19)
(89.3725989 -10.76963627 -2.765150925e-19)
(89.04063559 -10.75023708 -2.763578062e-19)
(88.67964692 -9.963886815 1.795561725e-22)
(88.48958269 -9.959538422 1.801120209e-18)
(89.0086115 -10.69764672 0)
(89.28729707 -10.65598348 -5.612531691e-19)
(88.02557099 -0.4164456031 1.499068671e-18)
(86.68157484 -0.5881103783 1.339195233e-20)
(87.33800389 0.02948782909 -4.911933283e-19)
(82.20092267 -2.064338803 5.779341471e-19)
(82.85785923 -2.191068605 1.12719025e-18)
(80.88482167 5.729440172 1.25558539e-18)
(81.38126206 4.861959496 2.416660662e-18)
(80.56838844 4.354705649 6.314993552e-19)
(79.52027315 0.1484235559 2.546260108e-20)
(79.97466042 0.9398468048 6.101331626e-19)
(78.45026112 0.4968022553 1.435172127e-20)
(79.08380978 1.450279644 6.605559612e-19)
(74.26757617 -3.288214819 6.965056647e-19)
(73.35563578 -2.466568312 -7.361963381e-19)
(74.27325017 -2.502044877 6.811734791e-19)
(70.01961268 8.624402603 3.10161399e-18)
(70.77597509 7.421878683 1.344380834e-19)
(69.69706163 6.632464578 1.551923357e-18)
(84.05835942 -4.60559698 5.170428345e-19)
(83.58418621 -5.095645114 2.487737582e-18)
(83.55731414 -4.648106263 -5.503163745e-19)
(82.59581693 -6.607097284 -4.780700428e-19)
(82.81319046 -6.510904563 -4.780430855e-19)
(80.01495697 -6.03686684 5.431692824e-19)