/*--------------------------------*- C++ -*----------------------------------*\
| =========                 |                                                 |
| \\      /  F ield         | OpenFOAM: The Open Source CFD Toolbox           |
|  \\    /   O peration     | Version:  v2012                                 |
|   \\  /    A nd           | Website:  www.openfoam.com                      |
|    \\/     M anipulation  |                                                 |
\*---------------------------------------------------------------------------*/
FoamFile
{
    version     2.0;
    format      ascii;
    class       pointVectorField;
    location    "2.28";
    object      pointDisplacement;
}
// * * * * * * * * * * * * * * * * * * * * * * * * * * * * * * * * * * * * * //

dimensions      [0 1 0 0 0 0 0];


internalField   nonuniform List<vector> 
6962
(
(0 0 0)
(0 0 0)
(0 0 0)
(0 0 0)
(0 0 0)
(0 0 0)
(0 0 0)
(0 0 0)
(0 0 0)
(0 0 0)
(-0.0004022173927 0.0003689560298 5.606626274e-15)
(0 0 0)
(0 0 0)
(0 0 0)
(0 0 0)
(0 0 0)
(0 0 0)
(0 0 0)
(0 0 0)
(0 0 0)
(0 0 0)
(0 0 0)
(0 0 0)
(0 0 0)
(0 0 0)
(-0.0007150484142 0.0005351291991 9.964251646e-15)
(-0.0006519135734 0.0005155199258 9.076073226e-15)
(-0.0005579414943 0.0004647436685 7.771561172e-15)
(-0.002773837256 0.002539787176 4.241051954e-14)
(-0.002979983559 0.0025904848 4.556077737e-14)
(-0.004517218079 0.004131414352 7.259470802e-14)
(-0.004265506151 0.00410910835 6.855627177e-14)
(-0.00905016972 0.01032145763 1.717237463e-13)
(-0.009215518725 0.009977090246 1.748046152e-13)
(-0.01046352329 0.01206093594 2.111505415e-13)
(-0.01032868388 0.0125423219 2.085276396e-13)
(-0.01223152752 0.01840801353 3.057276654e-13)
(-0.01226794089 0.01752030631 3.063799214e-13)
(-0.01218404706 0.01890204029 3.305689056e-13)
(-0.01212076471 0.0198183774 3.291533712e-13)
(-0.009775208884 0.02159982297 0)
(-0.009787749591 0.0205117624 0)
(-0.008632381754 0.02049771353 0)
(-0.008626214909 0.0210415555 0)
(-0.008620199094 0.02158544995 0)
(-0.005167113802 0.02154346788 0)
(-0.005169713745 0.0212717936 0)
(-0.004883637341 0.02126850596 0)
(-0.004881063635 0.02154010472 0)
(0 0 0)
(0 0 0)
(0 0 0)
(0 0 0)
(0 0 0)
(0 0 0)
(0 0 0)
(0 0 0)
(0 0 0)
(0 0 0)
(0 0 0)
(0 0 0)
(0 0 0)
(0 0 0)
(-0.0006780858915 0.0003947024447 9.492406861e-15)
(-0.0007662869276 0.000478554599 1.071365219e-14)
(-0.00081882276 0.0005460901142 1.146305273e-14)
(-0.00329965585 0.002420498213 5.068168107e-14)
(-0.003193552589 0.002193794692 4.90579799e-14)
(-0.004760310086 0.003441589594 7.685518888e-14)
(-0.004887417545 0.003773166765 7.890910148e-14)
(-0.009621969116 0.008800267731 1.834227215e-13)
(-0.00946569987 0.008107601066 1.804112415e-13)
(-0.01069193316 0.009752270664 2.167988011e-13)
(-0.01084493734 0.01056283394 2.199629368e-13)
(-0.01248556103 0.01507903282 3.136518822e-13)
(-0.01238109977 0.01399971176 3.108069357e-13)
(-0.01219886556 0.01498818473 3.328171072e-13)
(-0.01227593967 0.01611201563 3.351902089e-13)
(-0.009697675213 0.01723529742 0)
(-0.009711431506 0.01614707524 0)
(-0.008552835102 0.01613242935 0)
(-0.008545958553 0.01667641404 0)
(-0.008539078808 0.01722065152 0)
(-0.005063340152 0.01717671446 0)
(-0.005070219896 0.01663247699 0)
(-0.004490946972 0.01662515436 0)
(-0.004487505502 0.01689739949 0)
(-0.004484067228 0.01716939183 0)
(-0.00477370369 0.01717305315 0)
(0 0 0)
(0 0 0)
(0 0 0)
(0 0 0)
(0 0 0)
(0 0 0)
(0 0 0)
(0 0 0)
(0 0 0)
(0 0 0)
(0 0 0)
(0 0 0)
(0 0 0)
(0 0 0)
(-0.0001584055826 6.531725662e-05 2.220446049e-15)
(-0.000287414911 0.0001307091006 4.024558464e-15)
(-0.0004269877894 0.0002123061174 5.967448757e-15)
(-0.002447467496 0.00133879097 3.760880496e-14)
(-0.002091313084 0.001046362065 3.214095656e-14)
(-0.003403871964 0.001792786888 5.498379529e-14)
(-0.003849913189 0.002216717545 6.217248938e-14)
(-0.008294546071 0.005660469432 1.580680031e-13)
(-0.007691162951 0.004802509116 1.466049504e-13)
(-0.008911702922 0.005926720958 1.806887973e-13)
(-0.009523693467 0.006921584717 1.930539062e-13)
(-0.01149306391 0.01035196587 2.881861416e-13)
(-0.01098790657 0.009057322289 2.755295991e-13)
(-0.01105118336 0.009894582009 3.00981462e-13)
(-0.01148282335 0.01123472222 3.127637038e-13)
(-0.009644098263 0.01274142228 3.553546346e-13)
(-0.009493049575 0.01147013726 3.494982082e-13)
(-0.008532273274 0.01167808021 3.562011797e-13)
(-0.008588816082 0.012859537 3.590322484e-13)
(-0.005118371716 0.0128233202 0)
(-0.005132131204 0.01173484524 0)
(-0.003973560078 0.01172019966 0)
(-0.003959800589 0.01280867462 0)
(-0.004539098792 0.01281599757 0)
(0 0 0)
(0 0 0)
(0 0 0)
(0 0 0)
(0 0 0)
(0 0 0)
(0 0 0)
(0 0 0)
(0 0 0)
(0 0 0)
(0 0 0)
(0 0 0)
(0 0 0)
(0 0 0)
(0 0 0)
(0 0 0)
(-3.891107617e-06 1.27429262e-06 5.551115123e-17)
(-0.0009308570099 0.0003353576697 1.432187702e-14)
(-0.0005844279399 0.0001832520143 8.992806499e-15)
(-0.00135870716 0.000448592594 2.19685381e-14)
(-0.001865824903 0.0007077541396 3.017031069e-14)
(-0.005414975121 0.00243825429 1.033617636e-13)
(-0.004564629312 0.00178996512 8.71941408e-14)
(-0.005638847165 0.002356877259 1.145888939e-13)
(-0.00654659142 0.003141175135 1.329353294e-13)
(-0.008837506059 0.005261999833 2.219474604e-13)
(-0.007936988995 0.004119813831 1.995348331e-13)
(-0.008264927235 0.004661444607 2.256528298e-13)
(-0.00911041796 0.005892962965 2.484540351e-13)
(-0.008403864858 0.007330231228 3.093914014e-13)
(-0.007817790442 0.005947302701 2.881167527e-13)
(-0.007249307993 0.006241614183 3.026745521e-13)
(-0.007737526973 0.007638800977 3.227418333e-13)
(-0.004946992522 0.008119873378 3.445022045e-13)
(-0.004710490114 0.006739889574 3.282651928e-13)
(-0.003692445899 0.006797068322 3.316374952e-13)
(-0.003867258489 0.00816764809 3.470973509e-13)
(0 0 0)
(0 0 0)
(0 0 0)
(0 0 0)
(0 0 0)
(0 0 0)
(0 0 0)
(0 0 0)
(0 0 0)
(0 0 0)
(0 0 0)
(0 0 0)
(0 0 0)
(0 0 0)
(0 0 0)
(0 0 0)
(0 0 0)
(-3.416090662e-06 5.927754269e-07 5.551115123e-17)
(0 0 0)
(-3.517720425e-05 4.698194074e-06 5.689893001e-16)
(-0.0002078714316 3.797175865e-05 3.358424649e-15)
(-0.002095176364 0.0004554221211 4.010680676e-14)
(-0.001397481526 0.0002222202815 2.678413047e-14)
(-0.002079763954 0.0003531398517 4.243827512e-14)
(-0.002899585774 0.0006725879159 5.909162049e-14)
(-0.00495019296 0.001431607043 1.250111126e-13)
(-0.003951512015 0.0008384883992 9.996170558e-14)
(-0.004369816908 0.001009506995 1.201400091e-13)
(-0.005367715159 0.001688798625 1.472710842e-13)
(-0.005546244111 0.002360174644 2.057243265e-13)
(-0.004692574132 0.001468886905 1.745825706e-13)
(-0.004482491698 0.001589764413 1.891264922e-13)
(-0.005254402042 0.002532276096 2.209205041e-13)
(-0.003558476404 0.00285661004 2.505357033e-13)
(-0.003078237044 0.001821459932 2.179784131e-13)
(-0.002425109044 0.001852176243 2.222666495e-13)
(-0.002801541021 0.002899172217 2.548655731e-13)
(0 0 0)
(0 0 0)
(0 0 0)
(0 0 0)
(0 0 0)
(0 0 0)
(0 0 0)
(0 0 0)
(0 0 0)
(0 0 0)
(0 0 0)
(0 0 0)
(0 0 0)
(0 0 0)
(0 0 0)
(0 0 0)
(0 0 0)
(0 0 0)
(0 0 0)
(0 0 0)
(0 0 0)
(-9.025575357e-05 -1.450252617e-06 1.734723476e-15)
(0 0 0)
(-6.560968549e-05 -5.191520742e-06 1.346145417e-15)
(-0.0003251809231 -5.512862473e-06 6.64746036e-15)
(-0.001384226684 -2.786902781e-05 3.519406988e-14)
(-0.0007726761547 -7.560758479e-05 1.966482532e-14)
(-0.001040216577 -0.0001105178798 2.883804306e-14)
(-0.001712108394 -3.695940875e-05 4.736488979e-14)
(-0.002232276829 -6.39552293e-05 8.390510509e-14)
(-0.001540698793 -0.0002217319899 5.812017534e-14)
(-0.001561020183 -0.0002553616543 6.69325706e-14)
(-0.002212883024 -7.209985287e-05 9.450773497e-14)
(-0.001611230011 -9.143577453e-05 1.165734176e-13)
(-0.001175444511 -0.0003281138807 8.569533971e-14)
(-0.0009308338314 -0.000340120349 8.862355294e-14)
(-0.001272820957 -9.55417489e-05 1.199873534e-13)
(0 0 0)
(0 0 0)
(0 0 0)
(0 0 0)
(0 0 0)
(0 0 0)
(0 0 0)
(0 0 0)
(0 0 0)
(0 0 0)
(0 0 0)
(0 0 0)
(0 0 0)
(0 0 0)
(0 0 0)
(0 0 0)
(0 0 0)
(0 0 0)
(0 0 0)
(0 0 0)
(0 0 0)
(0 0 0)
(0 0 0)
(0 0 0)
(0 0 0)
(0 0 0)
(0 0 0)
(0 0 0)
(-1.014693993e-05 -3.655505558e-06 2.91433544e-16)
(-0.0001816531799 -8.938811327e-05 6.89726054e-15)
(-2.046762208e-05 -1.244401166e-05 7.771561172e-16)
(-4.468733408e-05 -3.095904107e-05 1.942890293e-15)
(-0.0002298483621 -0.000128811503 9.950373858e-15)
(-0.0002350623573 -0.0002260929358 1.745825706e-14)
(-7.629637336e-05 -9.090670529e-05 5.689893001e-15)
(-6.531753157e-05 -0.0001024248288 6.411537967e-15)
(-0.0001920003603 -0.0002427458071 1.873501354e-14)
(0 0 0)
(0 0 0)
(0 0 0)
(0 0 0)
(0 0 0)
(0 0 0)
(0 0 0)
(0 0 0)
(0 0 0)
(0 0 0)
(0 0 0)
(0 0 0)
(0 0 0)
(0 0 0)
(0 0 0)
(0 0 0)
(0 0 0)
(0 0 0)
(0 0 0)
(0 0 0)
(0 0 0)
(0 0 0)
(0 0 0)
(0 0 0)
(0 0 0)
(0 0 0)
(0 0 0)
(0 0 0)
(0 0 0)
(0 0 0)
(0 0 0)
(0 0 0)
(0 0 0)
(0 0 0)
(0 0 0)
(0 0 0)
(0 0 0)
(0 0 0)
(0 0 0)
(0 0 0)
(0 0 0)
(0 0 0)
(0 0 0)
(0 0 0)
(0 0 0)
(0 0 0)
(0 0 0)
(0 0 0)
(0 0 0)
(0 0 0)
(0 0 0)
(0 0 0)
(0 0 0)
(0 0 0)
(0 0 0)
(0 0 0)
(0 0 0)
(0 0 0)
(0 0 0)
(0 0 0)
(0 0 0)
(0 0 0)
(0 0 0)
(0 0 0)
(0 0 0)
(0 0 0)
(0 0 0)
(0 0 0)
(0 0 0)
(0 0 0)
(0 0 0)
(0 0 0)
(0 0 0)
(0 0 0)
(0 0 0)
(0 0 0)
(0 0 0)
(0 0 0)
(0 0 0)
(0 0 0)
(0 0 0)
(0 0 0)
(0 0 0)
(0 0 0)
(0 0 0)
(0 0 0)
(0 0 0)
(0 0 0)
(0 0 0)
(0 0 0)
(0 0 0)
(0 0 0)
(0 0 0)
(0 0 0)
(0 0 0)
(0 0 0)
(0 0 0)
(0 0 0)
(0 0 0)
(0 0 0)
(0 0 0)
(0 0 0)
(0 0 0)
(0 0 0)
(0 0 0)
(0 0 0)
(0 0 0)
(0 0 0)
(0 0 0)
(0 0 0)
(0 0 0)
(0 0 0)
(0 0 0)
(0 0 0)
(0 0 0)
(0 0 0)
(0 0 0)
(0 0 0)
(0 0 0)
(0 0 0)
(0 0 0)
(0 0 0)
(0 0 0)
(0 0 0)
(0 0 0)
(0 0 0)
(0 0 0)
(0 0 0)
(0 0 0)
(0 0 0)
(0 0 0)
(0 0 0)
(0 0 0)
(0 0 0)
(0 0 0)
(0 0 0)
(0 0 0)
(0 0 0)
(0 0 0)
(0 0 0)
(0 0 0)
(0 0 0)
(0 0 0)
(0 0 0)
(0 0 0)
(0 0 0)
(0 0 0)
(0 0 0)
(0 0 0)
(0 0 0)
(0 0 0)
(0 0 0)
(0 0 0)
(0 0 0)
(0 0 0)
(0 0 0)
(0 0 0)
(0 0 0)
(0 0 0)
(0 0 0)
(0 0 0)
(0 0 0)
(0 0 0)
(0 0 0)
(0 0 0)
(0 0 0)
(0 0 0)
(0 0 0)
(0 0 0)
(0 0 0)
(0 0 0)
(0 0 0)
(0 0 0)
(0 0 0)
(0 0 0)
(0 0 0)
(0 0 0)
(0 0 0)
(0 0 0)
(0 0 0)
(0 0 0)
(0 0 0)
(0 0 0)
(0 0 0)
(0 0 0)
(0 0 0)
(0 0 0)
(0 0 0)
(0 0 0)
(0 0 0)
(0 0 0)
(0 0 0)
(0 0 0)
(0 0 0)
(0 0 0)
(0 0 0)
(0 0 0)
(0 0 0)
(0 0 0)
(0 0 0)
(0 0 0)
(0 0 0)
(0 0 0)
(0 0 0)
(0 0 0)
(0 0 0)
(0 0 0)
(0 0 0)
(0 0 0)
(0 0 0)
(0 0 0)
(0 0 0)
(0 0 0)
(0 0 0)
(0 0 0)
(0 0 0)
(0 0 0)
(0 0 0)
(0 0 0)
(0 0 0)
(0 0 0)
(0 0 0)
(0 0 0)
(0 0 0)
(0 0 0)
(0 0 0)
(0 0 0)
(0 0 0)
(0 0 0)
(0 0 0)
(0 0 0)
(0 0 0)
(0 0 0)
(0 0 0)
(0 0 0)
(0 0 0)
(0 0 0)
(0 0 0)
(0 0 0)
(0 0 0)
(0 0 0)
(0 0 0)
(0 0 0)
(0 0 0)
(0 0 0)
(0 0 0)
(0 0 0)
(0 0 0)
(0 0 0)
(0 0 0)
(0 0 0)
(0 0 0)
(0 0 0)
(0 0 0)
(0 0 0)
(0 0 0)
(0 0 0)
(0 0 0)
(0 0 0)
(0 0 0)
(0 0 0)
(0 0 0)
(0 0 0)
(0 0 0)
(0 0 0)
(0 0 0)
(0 0 0)
(0 0 0)
(0 0 0)
(0 0 0)
(0 0 0)
(0 0 0)
(0 0 0)
(0 0 0)
(0 0 0)
(0 0 0)
(0 0 0)
(0 0 0)
(0 0 0)
(0 0 0)
(0 0 0)
(0 0 0)
(0 0 0)
(0 0 0)
(0 0 0)
(0 0 0)
(0 0 0)
(0 0 0)
(0 0 0)
(0 0 0)
(0 0 0)
(0 0 0)
(0 0 0)
(0 0 0)
(0 0 0)
(0 0 0)
(0 0 0)
(0 0 0)
(0 0 0)
(0 0 0)
(0 0 0)
(0 0 0)
(0 0 0)
(0 0 0)
(0 0 0)
(0 0 0)
(0 0 0)
(0 0 0)
(0 0 0)
(0 0 0)
(0 0 0)
(0 0 0)
(0 0 0)
(0 0 0)
(0 0 0)
(0 0 0)
(0 0 0)
(0 0 0)
(0 0 0)
(0 0 0)
(0 0 0)
(0 0 0)
(0 0 0)
(0 0 0)
(0 0 0)
(0 0 0)
(0 0 0)
(0 0 0)
(0 0 0)
(0 0 0)
(0 0 0)
(0 0 0)
(0 0 0)
(0 0 0)
(0 0 0)
(0 0 0)
(0 0 0)
(0 0 0)
(0 0 0)
(0 0 0)
(0 0 0)
(0 0 0)
(0 0 0)
(0 0 0)
(0 0 0)
(0 0 0)
(0 0 0)
(0 0 0)
(0 0 0)
(0 0 0)
(0 0 0)
(0 0 0)
(0 0 0)
(0 0 0)
(0 0 0)
(0 0 0)
(0 0 0)
(0 0 0)
(0 0 0)
(0 0 0)
(0 0 0)
(0 0 0)
(0 0 0)
(0 0 0)
(0 0 0)
(0 0 0)
(0 0 0)
(0 0 0)
(0 0 0)
(0 0 0)
(0 0 0)
(0 0 0)
(0 0 0)
(0 0 0)
(0 0 0)
(0 0 0)
(0 0 0)
(0 0 0)
(0 0 0)
(0 0 0)
(0 0 0)
(0 0 0)
(0 0 0)
(0 0 0)
(0 0 0)
(0 0 0)
(0 0 0)
(0 0 0)
(0 0 0)
(0 0 0)
(0 0 0)
(0 0 0)
(0 0 0)
(0 0 0)
(0 0 0)
(0 0 0)
(0 0 0)
(0 0 0)
(0 0 0)
(0 0 0)
(0 0 0)
(0 0 0)
(0 0 0)
(0 0 0)
(0 0 0)
(0 0 0)
(0 0 0)
(0 0 0)
(0 0 0)
(0 0 0)
(0 0 0)
(0 0 0)
(0 0 0)
(0 0 0)
(0 0 0)
(0 0 0)
(0 0 0)
(0 0 0)
(0 0 0)
(0 0 0)
(0 0 0)
(0 0 0)
(0 0 0)
(0 0 0)
(0 0 0)
(0 0 0)
(0 0 0)
(0 0 0)
(0 0 0)
(0 0 0)
(0 0 0)
(0 0 0)
(0 0 0)
(0 0 0)
(0 0 0)
(0 0 0)
(0 0 0)
(0 0 0)
(0 0 0)
(0 0 0)
(0 0 0)
(0 0 0)
(0 0 0)
(0 0 0)
(0 0 0)
(0 0 0)
(0 0 0)
(0 0 0)
(0 0 0)
(0 0 0)
(0 0 0)
(0 0 0)
(0 0 0)
(0 0 0)
(0 0 0)
(0 0 0)
(0 0 0)
(0 0 0)
(0 0 0)
(0 0 0)
(0 0 0)
(0 0 0)
(0 0 0)
(0 0 0)
(0 0 0)
(0 0 0)
(0 0 0)
(0 0 0)
(0 0 0)
(0 0 0)
(0 0 0)
(0 0 0)
(0 0 0)
(0 0 0)
(0 0 0)
(0 0 0)
(0 0 0)
(0 0 0)
(0 0 0)
(0 0 0)
(0 0 0)
(0 0 0)
(0 0 0)
(0 0 0)
(0 0 0)
(0 0 0)
(0 0 0)
(0 0 0)
(0 0 0)
(0 0 0)
(0 0 0)
(0 0 0)
(0 0 0)
(0 0 0)
(0 0 0)
(0 0 0)
(0 0 0)
(0 0 0)
(0 0 0)
(0 0 0)
(0 0 0)
(0 0 0)
(0 0 0)
(0 0 0)
(0 0 0)
(0 0 0)
(0 0 0)
(0 0 0)
(0 0 0)
(0 0 0)
(0 0 0)
(0 0 0)
(0 0 0)
(0 0 0)
(0 0 0)
(0 0 0)
(0 0 0)
(0 0 0)
(0 0 0)
(0 0 0)
(0 0 0)
(0 0 0)
(0 0 0)
(0 0 0)
(0 0 0)
(0 0 0)
(0 0 0)
(0 0 0)
(0 0 0)
(0 0 0)
(0 0 0)
(0 0 0)
(0 0 0)
(0 0 0)
(0 0 0)
(0 0 0)
(0 0 0)
(0 0 0)
(0 0 0)
(0 0 0)
(0 0 0)
(0 0 0)
(0 0 0)
(0 0 0)
(0 0 0)
(0 0 0)
(0 0 0)
(0 0 0)
(0 0 0)
(0 0 0)
(0 0 0)
(0 0 0)
(0 0 0)
(0 0 0)
(0 0 0)
(0 0 0)
(0 0 0)
(0 0 0)
(0 0 0)
(0 0 0)
(0 0 0)
(0 0 0)
(0 0 0)
(0 0 0)
(0 0 0)
(0 0 0)
(0 0 0)
(0 0 0)
(0 0 0)
(0 0 0)
(0 0 0)
(0 0 0)
(0 0 0)
(0 0 0)
(0 0 0)
(0 0 0)
(0 0 0)
(0 0 0)
(0 0 0)
(0 0 0)
(0 0 0)
(0 0 0)
(0 0 0)
(0 0 0)
(0 0 0)
(0 0 0)
(0 0 0)
(0 0 0)
(0 0 0)
(0 0 0)
(0 0 0)
(0 0 0)
(0 0 0)
(0 0 0)
(0 0 0)
(0 0 0)
(0 0 0)
(0 0 0)
(0 0 0)
(0 0 0)
(0 0 0)
(0 0 0)
(0 0 0)
(0 0 0)
(0 0 0)
(0 0 0)
(0 0 0)
(0 0 0)
(0 0 0)
(0 0 0)
(0 0 0)
(0 0 0)
(0 0 0)
(0 0 0)
(0 0 0)
(0 0 0)
(0 0 0)
(0 0 0)
(0 0 0)
(0 0 0)
(0 0 0)
(0 0 0)
(0 0 0)
(0 0 0)
(0 0 0)
(0 0 0)
(0 0 0)
(0 0 0)
(0 0 0)
(-0.004878511053 0.02181203242 0)
(-0.005164535942 0.02181539526 0)
(-0.00477026222 0.01744529828 0)
(-0.005059898682 0.01744895959 0)
(-0.008614382308 0.02212959974 0)
(-0.008608464409 0.02267374825 0)
(-0.009763071347 0.02268798976 0)
(-0.005162005762 0.02208755078 0)
(-0.005735015149 0.02209436443 0)
(-0.005740427486 0.02155020953 0)
(-0.00514650693 0.02371962029 0)
(-0.008532199064 0.017764889 0)
(-0.008611085719 0.01829438404 0)
(-0.009767944999 0.01831044906 0)
(-0.005056460408 0.01772095194 0)
(-0.00563575861 0.01772827489 0)
(-0.005642638354 0.01718403741 0)
(-0.005745836307 0.02100633269 0)
(-0.005172421511 0.02099958976 0)
(-0.005189664212 0.01936756757 0)
(-0.004903437098 0.01936420217 0)
(-0.004900378954 0.01963612348 0)
(-0.005186605748 0.01963951416 0)
(-0.002896496383 0.0193405262 0)
(-0.002886128152 0.01947552816 0)
(-0.003034284314 0.0194777044 0)
(-0.003041557603 0.01934233465 0)
(-0.002861673627 0.02151505783 0)
(-0.003015702792 0.02151763697 0)
(-0.003019941111 0.02138235526 0)
(-0.002868139557 0.02137995597 0)
(-0.004532219047 0.01336023505 0)
(-0.005111491971 0.01336755768 0)
(-0.002858211288 0.02165075386 0)
(-0.003013581442 0.02165345109 0)
(-0.005149087027 0.02344751597 0)
(-0.004863062458 0.02344412785 0)
(-0.002709614236 0.02151265527 0)
(-0.002703338473 0.02164811349 0)
(-0.00274667165 0.01714894622 0)
(-0.002743734789 0.01742347312 0)
(-0.002887238034 0.01742452869 0)
(-0.003031688015 0.01742509059 0)
(-0.003035723663 0.01715184169 0)
(-0.003049941211 0.01920713062 0)
(-0.002907390397 0.01920553088 0)
(-0.00519282251 0.01909572338 0)
(-0.004906569479 0.01909240822 0)
(-0.002782779713 0.01920453716 0)
(-0.00277087838 0.01933941861 0)
(-0.002457735391 0.01714529376 0)
(-0.002456595803 0.01741984338 0)
(-0.002600972193 0.01742242692 0)
(-0.002718817756 0.02137779028 0)
(-0.002758291081 0.01947416499 0)
(-0.001380555267 0.02034003101 0)
(-0.00123263486 0.02033760493 0)
(-0.001225988582 0.02047217359 0)
(-0.001372740822 0.02047461018 0)
(-0.002925013562 0.02043181097 0)
(-0.003058846365 0.02043266845 0)
(-0.003061321289 0.02029688409 0)
(-0.002929887669 0.02029623391 0)
(-0.00403714236 0.02044238053 0)
(-0.004039870611 0.02017055618 0)
(-0.003756774786 0.02016748319 0)
(-0.003754173245 0.02043928386 0)
(-0.004048745222 0.01935451037 0)
(-0.003765598841 0.01935143674 0)
(-0.003763830426 0.01948733116 0)
(-0.003762365667 0.01962320414 0)
(-0.004045636841 0.01962640576 0)
(-0.004026095297 0.02153028301 0)
(-0.004028769477 0.02125873608 0)
(-0.003745042019 0.02125562982 0)
(-0.003742141295 0.02152709804 0)
(-0.003751243409 0.0207110551 0)
(-0.004034389151 0.02071417929 0)
(-0.002917843942 0.02056697978 0)
(-0.003054277513 0.02056809768 0)
(-0.002888317003 0.02260677399 0)
(-0.003027402218 0.02260812766 0)
(-0.003030183355 0.02247211963 0)
(-0.002892664104 0.02247088688 0)
(-0.00401564724 0.02261879982 0)
(-0.004018330047 0.02234657039 0)
(-0.003734628506 0.02234341389 0)
(-0.003731895462 0.02261561741 0)
(-0.003739563754 0.02179900014 0)
(-0.004023517757 0.02180218511 0)
(-0.004007564878 0.02343417304 0)
(-0.003723359053 0.02343090904 0)
(-0.003729063543 0.02288764271 0)
(-0.00401294203 0.02289080144 0)
(-0.002883005557 0.02274254778 0)
(-0.003023939531 0.02274405123 0)
(-0.002750380983 0.02260551069 0)
(-0.002742584089 0.02274110137 0)
(-0.002757208156 0.02246983191 0)
(-0.004052003354 0.01908276856 0)
(-0.003769133754 0.01907979956 0)
(-0.003767265185 0.01921561687 0)
(-0.004001489895 0.01823474858 0)
(-0.003717250336 0.01824215322 0)
(-0.003751556918 0.01839425444 0)
(-0.003768163513 0.01853455269 0)
(-0.004051335743 0.01853358151 0)
(-0.002861468335 0.01823249819 0)
(-0.002912828339 0.01838575043 0)
(-0.003047741675 0.01838512992 0)
(-0.002999763726 0.01822853263 0)
(-0.002791199932 0.01826763697 0)
(-0.002825694805 0.01839084309 0)
(-0.001442218874 0.01817079398 0)
(-0.001438305684 0.01830615565 0)
(-0.001574923808 0.01830487407 0)
(-0.001578924513 0.01816958936 0)
(-0.001398153683 0.01925066914 0)
(-0.001539101398 0.01925108564 0)
(-0.001542646835 0.01911541594 0)
(-0.001402201487 0.01911525861 0)
(-0.002792741029 0.02043112491 0)
(-0.002782619913 0.0205659783 0)
(-0.001516178863 0.02048542383 0)
(-0.001554265693 0.02037388014 0)
(-0.001394421856 0.01938608367 0)
(-0.001536396443 0.01938686709 0)
(-0.001517966243 0.02020162914 0)
(-0.00138052504 0.02020262221 0)
(-0.002801658324 0.02029590234 0)
(-0.001235118731 0.02020111278 0)
(-0.001258667596 0.01925082733 0)
(-0.001254027703 0.01938587643 0)
(-0.008580354079 0.01395547943 0)
(-0.009713377832 0.01393418901 3.583244812e-13)
(-0.005104615422 0.01391154238 0)
(-0.005683913624 0.01391886532 0)
(-0.006263211827 0.01392618827 0)
(-0.00627696812 0.0128379661 0)
(-0.005649518098 0.01663979994 0)
(-0.005090855934 0.01500001733 0)
(-0.00451158301 0.0149926947 0)
(-0.004504703265 0.01553693218 0)
(-0.005083976189 0.01554425481 0)
(-0.002773706098 0.01497072608 0)
(-0.002766826354 0.01551496356 0)
(-0.003346106861 0.01552228628 0)
(-0.003352986605 0.0149780488 0)
(-0.003039269441 0.01687934505 0)
(-0.002749811785 0.01687593882 0)
(-0.002894225418 0.01988517589 0)
(-0.003039802922 0.01988714255 0)
(-0.003031450157 0.01974990665 0)
(-0.002879923495 0.01974756139 0)
(-0.003475495283 0.01989272602 0)
(-0.003476007462 0.01975620894 0)
(-0.003330835338 0.01975437381 0)
(-0.003331914401 0.01989101213 0)
(-0.003481063442 0.01934824442 0)
(-0.003336421838 0.01934644128 0)
(-0.003333239447 0.01948219142 0)
(-0.003478790104 0.0194840819 0)
(-0.00246035227 0.01687227974 0)
(-0.002194415479 0.01496340322 0)
(-0.002187535735 0.0155076407 0)
(-0.002866107946 0.02314887097 0)
(-0.002718475971 0.02314682776 0)
(-0.002710939499 0.02328201722 0)
(-0.002860806668 0.02328424037 0)
(-0.002882734467 0.02206139297 0)
(-0.002870015855 0.02192412716 0)
(-0.002721214783 0.02192196805 0)
(-0.002744626556 0.0220601275 0)
(-0.002884583357 0.01807753278 0)
(-0.002696959324 0.01804735066 0)
(-0.003894198226 0.01797829552 0)
(-0.003604056202 0.01797462781 0)
(-0.003627531455 0.01809956551 0)
(-0.003904743748 0.01716206857 0)
(-0.003615028256 0.01715865907 0)
(-0.003611438313 0.0174306495 0)
(-0.003901226443 0.01743431274 0)
(-0.003483638839 0.01921251189 0)
(-0.00334015875 0.01921082456 0)
(-0.003491246309 0.01880470603 0)
(-0.003351252041 0.01880326502 0)
(-0.003348117011 0.01893926858 0)
(-0.003489071527 0.01894074701 0)
(-0.002940458003 0.01880004415 0)
(-0.002930414234 0.01893537889 0)
(-0.00306754612 0.01893645505 0)
(-0.003074847883 0.01880083283 0)
(-0.001263645897 0.0191158078 0)
(-0.001427326996 0.01843884922 0)
(-0.002820363528 0.01879938562 0)
(-0.002808682377 0.0189346491 0)
(-0.001980541444 0.01870958571 0)
(-0.001973242757 0.01884356463 0)
(-0.002107957024 0.01884969194 0)
(-0.002148941198 0.01874154739 0)
(-0.001587792941 0.01713303265 0)
(-0.001584609308 0.01740528104 0)
(-0.001874990139 0.0174094574 0)
(-0.001877716906 0.01713695042 0)
(-0.001595238597 0.01803822733 0)
(-0.001458201872 0.01803902326 0)
(-0.002893203911 0.02097358433 0)
(-0.002751332759 0.02097201846 0)
(-0.002740496798 0.02110762129 0)
(-0.002884635687 0.02110939279 0)
(-0.002735297674 0.0197369097 0)
(-0.002724649616 0.0198508481 0)
(-0.001370659846 0.02090663034 0)
(-0.001333318543 0.02101719746 0)
(-0.001337229289 0.02073562916 0)
(-0.003472845289 0.02043635963 0)
(-0.003474208936 0.02030048537 0)
(-0.003334618478 0.02029910003 0)
(-0.00333327979 0.02043499989 0)
(-0.003333429263 0.0200271756 0)
(-0.003474939578 0.02002868633 0)
(-0.00291552429 0.02002308109 0)
(-0.003051142017 0.02002413811 0)
(-0.00303717091 0.02097535366 0)
(-0.00304308685 0.02083935997 0)
(-0.00290164037 0.02083779948 0)
(-0.003465488776 0.02098031298 0)
(-0.003467388695 0.0208440157 0)
(-0.003326333705 0.02084248544 0)
(-0.003323726319 0.02097874849 0)
(-0.003331236192 0.02057066329 0)
(-0.00347123046 0.0205721043 0)
(-0.002871662935 0.02301363118 0)
(-0.002726369795 0.02301176924 0)
(-0.00275939868 0.02219754569 0)
(-0.002892025717 0.02219838792 0)
(-0.003078336487 0.01866485902 0)
(-0.002946419068 0.01866448083 0)
(-0.00349170282 0.01866859277 0)
(-0.003352163877 0.01866713223 0)
(-0.003431419683 0.01823942489 0)
(-0.003287502162 0.01823634151 0)
(-0.003327058281 0.01838916642 0)
(-0.003468459495 0.01839130784 0)
(-0.002021532506 0.01817849636 0)
(-0.002002284239 0.01830777343 0)
(-0.002164545363 0.01831614512 0)
(-0.002225503897 0.01820208423 0)
(-0.002119580478 0.01857239268 0)
(-0.001983197412 0.01857387949 0)
(-0.002831193069 0.01866449062 0)
(-0.001955195421 0.01925803942 0)
(-0.001995044197 0.01914831302 0)
(-0.001826909225 0.01911640526 0)
(-0.00182084109 0.01925163856 0)
(-0.001837813598 0.01870859051 0)
(-0.001832805603 0.01884355911 0)
(-0.001417243075 0.01870876027 0)
(-0.001411645085 0.01884420177 0)
(-0.001550737558 0.01884338127 0)
(-0.001555311175 0.01870777513 0)
(-0.002761933633 0.02083641267 0)
(-0.001436585794 0.02071681111 0)
(-0.001386115113 0.0197940071 0)
(-0.001529159574 0.01979495574 0)
(-0.001531128063 0.01965863405 0)
(-0.001388326271 0.01965768848 0)
(-0.001812554668 0.01938555442 0)
(-0.00191514782 0.01936829422 0)
(-0.001385008898 0.01993051666 0)
(-0.001529446097 0.01993208968 0)
(-0.00279247469 0.02002319423 0)
(-0.003458138334 0.02152378604 0)
(-0.003459472548 0.02138824008 0)
(-0.003316144447 0.02138652939 0)
(-0.003314204198 0.02152201712 0)
(-0.003321093017 0.02111506177 0)
(-0.003463335438 0.02111665761 0)
(-0.003031178495 0.02111139694 0)
(-0.003025469172 0.0220630456 0)
(-0.003019435602 0.02192634465 0)
(-0.003453887512 0.02206805675 0)
(-0.003454572165 0.02193189581 0)
(-0.00331182514 0.02193021774 0)
(-0.003311872914 0.02206643851 0)
(-0.003312688883 0.02165788946 0)
(-0.003456421114 0.02165963055 0)
(-0.002578664848 0.0215108988 0)
(-0.002567759558 0.02164518608 0)
(-0.002557263671 0.02177348667 0)
(-0.002705351604 0.02178446023 0)
(-0.002860519853 0.02178712962 0)
(-0.00291893342 0.01907059433 0)
(-0.002795654863 0.0190698197 0)
(-0.002876101632 0.0212448983 0)
(-0.002729445072 0.02124289272 0)
(-0.002601697085 0.02124168236 0)
(-0.002589587542 0.02137643477 0)
(-0.002878749306 0.01961104828 0)
(-0.002746125692 0.01960833521 0)
(-0.001295546382 0.02112904852 0)
(-0.001232323941 0.0213188008 0)
(-0.00344902714 0.0226125473 0)
(-0.003450570609 0.02247644777 0)
(-0.003309666968 0.0224749447 0)
(-0.003308022387 0.02261104295 0)
(-0.003311693184 0.0222026564 0)
(-0.003452975677 0.02220418954 0)
(-0.003030012293 0.02219965186 0)
(-0.00301280527 0.02315085179 0)
(-0.003016463471 0.02301546161 0)
(-0.003442638225 0.02315595667 0)
(-0.003444174983 0.02302038799 0)
(-0.003302387567 0.0230187979 0)
(-0.003300547791 0.02315433747 0)
(-0.003306201179 0.02274711368 0)
(-0.003447433115 0.02274864618 0)
(-0.002613422266 0.0226043356 0)
(-0.002603259051 0.02273971938 0)
(-0.00259294039 0.02287500008 0)
(-0.002734475344 0.02287656169 0)
(-0.002877351607 0.02287821611 0)
(-0.002894662259 0.02233481839 0)
(-0.002761441506 0.02233394337 0)
(-0.002631236082 0.022333334 0)
(-0.002623110892 0.02246889524 0)
(-0.002940115427 0.01852714442 0)
(-0.003072137473 0.01852724582 0)
(-0.003208116678 0.01852830741 0)
(-0.003186366771 0.01838688229 0)
(-0.003143064347 0.01823241724 0)
(-0.002374384233 0.01820457301 0)
(-0.002328691092 0.01834383091 0)
(-0.002455314436 0.01818880871 0)
(-0.002836417462 0.01852760331 0)
(-0.001559922942 0.01857275096 0)
(-0.001422368627 0.01857369203 0)
(-0.001841204171 0.01857317167 0)
(-0.001874344901 0.01817570031 0)
(-0.001856636304 0.01830557834 0)
(-0.002671678083 0.02043047942 0)
(-0.002659968282 0.02056500935 0)
(-0.00264874661 0.02069992468 0)
(-0.002772362268 0.02070103223 0)
(-0.002909897005 0.02070223989 0)
(-0.001353155631 0.02060454034 0)
(-0.001476080638 0.02060288341 0)
(-0.001621687991 0.02018488885 0)
(-0.001661028792 0.020074347 0)
(-0.001524975858 0.0200673179 0)
(-0.001382266346 0.02006627236 0)
(-0.002928802535 0.02016007588 0)
(-0.00280521547 0.02016010638 0)
(-0.002695608593 0.02016160299 0)
(-0.002683817988 0.02029552513 0)
(-0.001242722161 0.01979282651 0)
(-0.001240252584 0.01992878792 0)
(-0.002554004084 0.02341534339 0)
(-0.002563219051 0.0232799729 0)
(-0.002433991393 0.02327841517 0)
(-0.002423737816 0.02341374725 0)
(-0.002572707923 0.02314493454 0)
(-0.002444211732 0.02314351246 0)
(-0.002619520626 0.02205991126 0)
(-0.002547948756 0.02188716382 0)
(-0.002532615548 0.02207393141 0)
(-0.003336365811 0.01809487358 0)
(-0.003188403794 0.01809173907 0)
(-0.003316884665 0.01769997313 0)
(-0.00317101725 0.01769914049 0)
(-0.003167171557 0.01783536261 0)
(-0.003313825788 0.01783595237 0)
(-0.002739624836 0.01770380009 0)
(-0.002732185077 0.01784553884 0)
(-0.002873394069 0.01783948641 0)
(-0.002880505978 0.01770128301 0)
(-0.003058830062 0.01907195826 0)
(-0.003201324944 0.01907358257 0)
(-0.003207313844 0.01893781735 0)
(-0.003212141229 0.01880193631 0)
(-0.001963017591 0.01897684922 0)
(-0.002065636077 0.01895918482 0)
(-0.002605435475 0.01770614893 0)
(-0.002613664994 0.01785693451 0)
(-0.002168067119 0.01768974881 0)
(-0.002171656622 0.01782859313 0)
(-0.002323433058 0.01783657946 0)
(-0.002316596272 0.0176954187 0)
(-0.002230844582 0.0180583975 0)
(-0.002074843559 0.01805920652 0)
(-0.0026258718 0.02097088758 0)
(-0.002614052521 0.02110647797 0)
(-0.002477681813 0.02273858703 0)
(-0.002466377626 0.02287382999 0)
(-0.002488913653 0.02260326732 0)
(-0.002582670425 0.02301002857 0)
(-0.002455100343 0.02300874462 0)
(-0.002633812785 0.0221972981 0)
(-0.002522357469 0.02219861966 0)
(-0.002511329303 0.02233262728 0)
(-0.002500122742 0.02246794731 0)
(-0.003213988354 0.01866581534 0)
(-0.001996049731 0.01844196806 0)
(-0.002136661595 0.01844215277 0)
(-0.002269759804 0.01844712195 0)
(-0.002222312397 0.018554755 0)
(-0.001829027579 0.01897942813 0)
(-0.001687509452 0.01897953535 0)
(-0.001684771842 0.01911610013 0)
(-0.001680706634 0.01925168742 0)
(-0.002637385214 0.02083529332 0)
(-0.001677639571 0.01952411426 0)
(-0.001672193016 0.01965897618 0)
(-0.001807264285 0.01966546195 0)
(-0.001846833639 0.01955643993 0)
(-0.00166435114 0.01979312521 0)
(-0.00176720085 0.01977596938 0)
(-0.001678235488 0.01938757296 0)
(-0.001699602245 0.01996490787 0)
(-0.002706402774 0.02003770527 0)
(-0.004268995733 0.004320757316 6.862566071e-14)
(-0.002757240341 0.002652435642 4.216071936e-14)
(-0.008985160844 0.01076716971 1.705580122e-13)
(-0.007495645607 0.008465021295 1.341982081e-13)
(-0.007432291391 0.007988491488 1.330463517e-13)
(-0.01026225799 0.01309467243 2.072786387e-13)
(-0.01217522907 0.01925978953 3.045619312e-13)
(-0.01189937382 0.01743320419 2.757100104e-13)
(-0.01196148752 0.01667404532 2.769728891e-13)
(-0.01207268393 0.02075129116 3.281541705e-13)
(-0.0108198394 0.02249880971 3.560346462e-13)
(-0.01084483517 0.02144554558 3.564509798e-13)
(-0.009751391693 0.02377593481 0)
(-0.00859711337 0.02376169744 0)
(-0.007444275899 0.02374747829 0)
(-0.008020467131 0.02375458499 0)
(-0.004808646174 0.003931793307 7.73964226e-14)
(-0.003225384929 0.002506352858 4.939104681e-14)
(-0.009565321341 0.009259873559 1.816741202e-13)
(-0.008089934323 0.007381093195 1.449673714e-13)
(-0.008159042535 0.00703150079 1.467159727e-13)
(-0.007745566162 0.007903573919 1.385974668e-13)
(-0.01080448601 0.01113607233 2.182976022e-13)
(-0.01250328393 0.01596582443 3.126388037e-13)
(-0.01231082339 0.01456274313 2.851885395e-13)
(-0.01231278748 0.01377105145 2.864791737e-13)
(-0.01202810369 0.01591269958 2.783051567e-13)
(-0.01231199202 0.01707855649 3.34468564e-13)
(-0.01088463339 0.01825861709 3.579359031e-13)
(-0.01082027952 0.01719362879 3.58074681e-13)
(-0.01087080431 0.02039076945 3.568950691e-13)
(-0.009801090182 0.01942042527 0)
(-0.008645305148 0.01940937969 0)
(-0.008638750823 0.01995387411 0)
(-0.007490898517 0.0193952924 0)
(-0.007484472181 0.01993966202 0)
(-0.008061421757 0.01994677831 0)
(-0.008067923927 0.01940240964 0)
(-0.007466502486 0.02157119466 0)
(-0.008043123447 0.02157830679 0)
(-0.008049063108 0.02103443666 0)
(-0.007472315757 0.02102732293 0)
(-0.005177884084 0.02045546078 0)
(-0.004891732805 0.02045209634 0)
(-0.004889029512 0.02072394629 0)
(-0.005175129916 0.02072733536 0)
(-0.0043185201 0.02071736649 0)
(-0.004321223073 0.02044554182 0)
(-0.004310503986 0.02153349901 0)
(-0.004313102331 0.02126195112 0)
(-0.004232919362 0.002644943604 6.834810495e-14)
(-0.002758422869 0.00163756577 4.236888618e-14)
(-0.008796867939 0.006513513019 1.676159211e-13)
(-0.007359346608 0.00513431831 1.32310829e-13)
(-0.006878707704 0.004422770081 1.236788449e-13)