/*--------------------------------*- C++ -*----------------------------------*\
| =========                 |                                                 |
| \\      /  F ield         | OpenFOAM: The Open Source CFD Toolbox           |
|  \\    /   O peration     | Version:  v2012                                 |
|   \\  /    A nd           | Website:  www.openfoam.com                      |
|    \\/     M anipulation  |                                                 |
\*---------------------------------------------------------------------------*/
FoamFile
{
    version     2.0;
    format      ascii;
    class       volScalarField;
    location    "1.38";
    object      p;
}
// * * * * * * * * * * * * * * * * * * * * * * * * * * * * * * * * * * * * * //

dimensions      [0 2 -2 0 0 0 0];


internalField   nonuniform List<scalar> 
3259
(
663.559208
667.2390726
674.8511402
685.7160654
710.3953286
731.8705481
758.6057631
800.3777794
846.2879488
899.5007054
963.0132334
1067.966927
625.2997201
627.8308455
633.237521
640.6061169
661.0142772
675.1326115
690.8128242
719.2984836
743.7744796
766.4637361
784.9665624
834.724452
584.4231348
585.7245822
588.6020768
592.2152269
608.504203
614.5375794
619.7418533
633.8244809
636.9581539
628.9467972
595.5955961
498.9747367
541.9734148
542.1263084
542.5556812
542.6345913
554.8629287
553.9225956
550.0596001
551.5200457
537.4509425
507.1479886
446.5860727
333.7412563
498.9808526
498.1629386
496.5101215
493.6050235
502.0104202
495.3716467
484.3537702
476.1333257
449.3820365
406.5340066
338.6977383
239.5307793
456.3724976
454.7810296
451.4686249
446.2257824
451.2966176
440.4143862
424.3134687
409.8735557
376.0361087
327.8934865
262.2433308
177.8191919
414.8891025
412.716222
408.1547961
401.2089656
403.6441874
389.9084948
370.6993604
352.6947572
316.703489
268.572607
208.0866721
136.1242851
375.0887928
372.5202988
367.1058938
359.0436721
359.5318248
344.1426566
323.270302
303.8739096
268.1929507
223.0528047
169.0849079
107.7759573
337.3644409
334.5690697
328.661785
319.9849862
319.1518561
303.0494649
281.699906
262.2427407
228.2646549
186.9947024
139.5105418
87.28787725
301.9616342
299.0788947
292.981991
284.1080704
282.4200733
266.333948
245.3907743
226.6461867
195.1013904
157.9424979
116.3216235
71.58107404
268.9949914
266.1327323
260.0813619
251.3365621
249.1581388
233.6064609
213.7022756
196.0554297
167.2770387
134.1544276
97.74408938
59.25239349
238.4730802
235.7114256
229.8769303
221.4972133
219.1127105
204.4367419
185.9594538
169.6323263
143.6964005
114.3853075
82.58330654
49.37529169
210.3274283
207.7237609
202.2258631
194.371462
191.9953064
178.4081946
161.5172528
146.6748556
123.5208492
97.73245553
70.01110062
41.32678145
184.4365684
182.0297746
176.9482574
169.7213607
167.5093439
155.1291983
139.8942943
126.5936938
106.096019
83.52901944
59.43555074
34.66958813
160.6407373
158.4550517
153.8391808
147.2990092
145.3650693
134.2426259
120.6680103
108.9064503
90.90999608
71.27768975
50.42570838
29.08905409
138.7543048
136.8029367
132.6792204
126.8542797
125.2799768
115.4225909
103.4732325
93.21257676
77.55352683
60.59655805
42.65792044
24.35047745
118.5776831
116.8661285
113.2450529
108.1426325
106.9884767
98.37670104
87.99792089
79.17692
65.69682319
51.18648191
35.88282474
20.27811444
99.90507731
98.43359013
95.31489743
90.92846848
90.23999937
82.83920556
73.99399374
66.51214813
55.0686461
42.80673637
29.90306412
16.73677791
82.5247309
81.29106563
78.66845375
74.98045088
74.80628678
68.56609623
61.20928439
54.9867574
45.44598474
35.26116865
24.56065248
13.61823061
66.24493027
65.24360007
63.10755492
60.0980532
60.45912677
55.33380532
49.38902427
44.40615461
36.64089703
28.38613155
19.7254685
10.83534061
50.80301733
50.03520611
48.38118926
46.02274369
47.02621673
42.93728951
38.26362588
34.58386745
28.48404872
22.03913723
15.28705202
8.313884542
36.21835395
35.66347436
34.47704526
32.79527539
34.133571
31.18736831
27.75485021
25.32952438
20.82109615
16.09389305
11.14908802
5.98951231
21.51144494
21.23225206
20.52706165
19.5129827
21.82673032
19.91280084
17.6706692
16.48870698
13.51346316
10.43339976
7.221959432
3.80758619
9.900953235
9.673361855
9.327448492
8.803422777
9.775530245
8.846651154
7.765337039
7.91684723
6.436118238
4.942980681
3.413505295
1.714153498
1079.84701
864.6860122
1002.885282
1072.526877
830.8622915
861.3315452
1050.64557
983.2762961
1053.517714
1141.838281
566.6571812
1147.363687
1152.919247
1034.993707
1047.496797
968.9210496
1053.925051
933.364079
1147.396732
1059.073477
-330.4604012
1097.329816
1059.145755
1020.39565
1105.243686
1071.136001
1102.60627
1179.452229
1147.124128
1115.93454
1157.298434
1185.66685
1190.227202
1183.523529
1005.97852
960.7325012
950.4338314
970.2203293
470.1664298
166.3672116
1109.062329
-319.3977366
121.6120268
-234.2231529
1104.464084
-266.6070411
88.78507982
640.271441
596.4737265
825.4342202
710.4043894
723.6121632
971.3454108
1072.36582
1055.542816
1034.955604
876.6342608
635.2493289
1213.898696
1158.571809
826.6746562
946.4721837
904.3629131
1027.57248
1001.995069
1021.071764
132.91459
1030.245768
433.5955176
692.6231718
506.6586915
608.5234378
1126.375459
1079.124368
1080.197039
1062.160679
1075.263242
1116.342529
1102.76965
1086.465221
1209.28217
1165.681406
1007.879751
992.2658022
965.6425326
630.1416415
533.6884462
1019.199035
250.1151466
408.8866777
302.4331038
1119.050377
-475.0681844
-34.27241644
193.1333477
-80.44162434
1074.871824
1125.063929
1108.888734
1122.810947
1157.339872
1145.052028
1130.731641
1158.128704
1164.684634
1157.500053
1047.729213
1141.991722
1148.902425
1153.037715
1062.036748
1165.897469
1150.533857
1162.37049
1203.136869
1186.695287
1171.679059
1194.518171
1202.751406
1197.198599
1177.320489
1181.151032
1187.236396
958.6139824
965.6249513
953.6364747
696.0845978
968.2669122
345.0701137
477.632229
603.3274435
1115.412676
1116.460105
1112.136264
-383.6466558
-226.9078121
-202.8286551
-217.864989
1097.822858
1104.785263
1111.555515
-114.2872637
1227.965763
1226.430112
1161.548095
1158.3845
1165.656817
1156.780937
953.9551559
995.9722103
1124.91568
1031.569356
1023.398705
1012.990908
1040.458752
375.5617769
358.8954445
1100.105671
973.6460142
736.1100701
1128.12104
1140.454184
1135.029177
1070.430245
1207.98754
1197.826312
1223.819626
1217.732641
1170.748324
1175.175713
1171.152206
1178.136852
1173.903857
1189.798844
1183.743875
1000.439794
986.7800073
993.3035543
585.480124
603.6315523
668.1179606
541.2276527
549.135007
530.7487991
1007.045053
347.6323772
294.339155
226.0137925
1114.759908
1116.680613
1119.231328
-451.6347469
58.81269389
-1.568241378
174.5404518
161.0860555
174.5026043
-21.71832868
-156.3573768
-137.4445891
-34.57962051
1086.517131
1098.913453
1091.691874
819.7106269
857.2114302
870.8512764
915.059795
930.9546449
983.1777925
739.4648204
761.5252862
834.1122706
769.1100301
791.9850809
885.4716449
799.5864273
823.3328516
945.7325168
921.0165121
932.9191305
999.9296862
1034.276361
1061.315912
1095.655208
654.9755094
661.7447202
737.6841374
663.2202535
663.8431737
761.1352294
662.233676
648.8771175
781.2122991
736.0653975
735.2260626
805.7793975
792.9735517
789.4658496
867.5584164
571.5425902
564.939779
637.0299529
561.3545174
544.1431773
632.631925
535.5728165
497.5078624
607.6630808
479.5117825
404.7602061
533.7435806
365.6696912
494.1462674
477.2748151
542.0403719
470.1175878
441.9897098
516.906579
429.7675112
382.1038634
465.547491
362.3078382
288.5250329
370.082044
259.267611
425.5612002
402.299277
457.2405373
392.9513585
359.1006234
419.2755626
345.5753074
297.4655004
358.2706149
278.9686466
213.5418204
266.8157197
191.0797073
366.1562537
340.4675585
385.704648
330.4224782
295.288617
341.4932757
281.8434991
236.5501753
280.2928526
219.9211301
162.8432544
198.9900942
145.0188121
315.3460145
289.3236209
326.7594251
279.4362498
245.9044146
281.8267477
233.4323868
192.543564
224.2422848
177.8017523
129.006138
152.9899798
113.9711663
272.0278607
246.8969513
277.9719889
237.5483486
206.5500754
235.2364369
195.2702398
159.0680321
183.3450225
146.2198082
104.8787286
122.3092188
91.8999926
235.0247283
211.4667356
237.4441267
202.8419741
174.7194412
197.9687931
164.6538261
132.8218043
151.9228199
121.6292254
86.23518613
99.7593759
75.14595931
203.2699271
181.6268714
203.530952
173.7974641
148.5898319
167.7115151
139.6828064
111.7795741
127.1353331
102.0288729
71.60111147
82.25136023
62.07488189
175.8758417
156.2702288
174.9047676
149.2429937
126.8414961
142.7848469
119.0047419
94.59081161
107.1632891
86.10318135
59.87290206
68.43072651
51.65261751
152.1130793
134.5370887
150.5267024
128.2840121
108.5102184
121.9700937
101.6433277
80.32546014
90.78012093
72.94707468
50.30437116
57.30171591
43.19384861
131.3628427
115.7464269
129.586858
110.2242267
92.87424536
104.3724682
86.87966521
68.31848522
77.1335624
61.91791788
42.37622618
48.18515372
36.2222336
113.1186943
99.36089433
111.4431226
94.52048457
79.38948266
89.31962548
74.18000946
58.08460055
65.60977949
52.55054928
35.71701164
40.60460178
30.39722319
96.96138127
84.94888706
95.5878132
80.74055894
67.63712881
76.30311684
63.13736605
49.25935944
55.75837582
44.49822758
30.05038708
34.21642274
25.46674023
82.54049671
72.15957919
81.61137541
68.53615346
57.28864067
64.92937691
53.43388566
41.56178115
47.23859763
37.49511537
25.16973171
28.76322523
21.2416854
69.55781308
60.70464039
69.18092096
57.62339783
48.08154307
54.88898379
44.81643185
34.77051505
39.78661554
31.33261799
20.91770085
24.05318777
17.5786641
57.76833317
50.34555774
58.02051271
47.76804032
39.80129507
45.93210406
37.078693
28.70762393
33.1926895
25.84396143
17.16764635
19.93752277
14.36329535
46.9691736
40.88362649
47.90316654
38.7749771
32.27011431
37.85465869
30.05012213
23.22751292
27.28814693
20.8930326
13.81614347
16.29605177
11.50383601
36.97719506
32.14114985
38.63733169
30.47120088
25.33360924
30.48588429
23.58346402
18.20653845
21.93366924
16.36485109
10.77527785
13.02996762
8.92344857
27.59584151
23.95202923
30.04806579
22.69833773
18.85494535
23.67609341
17.54904717
13.53758976
17.01026798
12.16035529
7.969486609
10.05450741
6.555335146
18.66597821
16.1686205
21.97359016
15.31405406
12.70909888
17.29197833
11.82795355
9.122159543
12.41373515
8.188687564
5.333108607
7.296865697
4.34250533
10.04326076
8.658840186
14.27038748
8.190929452
6.77965668
11.21090182
6.306895259
4.862209518
8.0467291
4.360897899
2.80954888
4.693524904
2.238143822
1.870756065
1.545949035
6.808520985
1.442603784
1.120444712
5.316607743
1.007582507
0.6766399607
3.806964969
0.5940820169
0.6982920501
2.182758041
0.6359076959
1106.474279
1137.779811
1110.310624
890.6168772
935.991869
908.7904491
600.8887538
1020.675573
1078.521496
1040.727403
1132.831459
1091.044834
1032.508421
833.1276813
908.836524
876.0797483
950.6534833
917.6437006
838.7567798
1011.310432
942.5498005
977.8743096
1010.112423
1049.205364
1021.254862
1059.195555
1054.184836
1047.295124
1135.941637
1130.283592
1135.999442
437.4381954
635.0498509
669.9452002
584.9030975
408.5421799
581.6172098
554.5382533
1151.589098
1145.787053
1141.266403
1192.032964
1207.930466
1121.334381
1147.874307
971.4099495
979.7107784
933.9261006
1040.224002
1032.35425
1040.132878
926.6301185
951.0276566
996.014799
909.9348213
905.7202472
1041.907162
1091.291782
1085.028899
1090.72491
1046.669368
1057.210347
1069.490389
1029.360763
1051.334896
1033.71433
1094.194145
1104.068223
1115.059325
1081.266192
1092.730997
1082.796391
1106.980556
1101.88808
1096.84649
1175.148903
1169.459501
1173.470407
1136.796135
1146.088034
1156.514424
1125.569059
1135.796534
1126.410393
1176.769749
1186.648725
1166.886339
1176.950758
1167.195002
1191.906824
1186.737156
1180.961403
990.9862403
997.5716328
1022.052147
966.2122452
988.8056088
975.7041144
424.518848
471.2115268
510.4241419
198.2575633
251.8422238
213.5464416
71.39358977
109.8588658
153.6987626
-226.300779
-61.85288909
629.0424299
681.3457958
687.3136416
673.8172973
674.256411
615.0817891
809.5206148
720.7871552
710.8501434
701.0928777
744.1318023
751.1496752
801.3310487
741.8824166
679.8254677
881.3983612
803.9520244
716.7244181
1066.615899
1060.944433
1066.648815
1048.614705
1054.697702
1060.878838
1040.942175
1048.020657
1041.877753
675.015016
636.2270521
668.9240409
568.9621694
601.0934289
674.1590157
1220.343618
1223.630851
1218.117881
938.3057463
971.3206267
736.2846799
941.9676117
964.0327566
958.0761014
914.4215407
944.615222
926.4427081
1019.660493
1025.587885
1033.549506
1006.941335
1016.77462
1011.153741
259.6500006
717.7285119
841.4012912
787.1792487
649.722361
882.0620022
651.1989144
774.488242
709.342218
1074.6268
1079.674657
1085.756849
1067.080321
1073.432045
1067.957293
1083.851344
1078.608275
1072.136859
1112.318799
1106.874212
1111.196387
1097.601246
1102.220742
1107.775333
1091.460258
1096.852851
1091.585381
1203.737335
1210.48906
1216.310828
982.4524327
984.4050729
995.9176019
962.5528588
971.0991557
972.4126692
378.1233977
335.3604672
358.2410411
259.596126
299.0268347
342.0443726
-17.94810572
37.32011444
13.66684486
1120.098959
1124.990305
1130.464024
1113.55172
1119.33845
1114.110659
1129.69512
1124.421404
1118.314708
1153.888996
1149.637198
1154.132817
1140.576065
1145.000328
1149.689989
1135.68594
1140.458951
1135.249279
1160.979475
1165.202985
1170.673474
1154.667958
1159.828258
1155.276865
1167.657255
1163.94055
1158.774052
1197.465355
1192.280322
1197.812109
1182.157308
1186.999227
1192.058047
1176.211764
1181.67755
1176.534322
388.0798404
433.0794812
392.2357991
506.146552
471.1983288
430.8538576
552.5610945
517.5948774
558.3299213
-175.0030313
962.2390835
965.2225864
950.4820002
1023.98022
1013.569631
984.5833354
1382.392668
1126.978113
1067.190487
1053.966109
1065.521842
1172.626202
951.3913136
1074.294721
1045.893177
764.5834422
798.5595447
724.7217118
735.2300351
745.2251658
758.5739447
773.7732186
790.9499374
808.3691282
687.2222534
694.1849519
720.3458956
703.6615459
713.8656696
744.5932512
724.4186922
732.5963165
790.2051736
780.5434297
790.1622897
811.1537507
821.1395871
832.1393889
858.9000582
867.1216769
879.5880401
914.1208013
1057.667584
1065.953909
1077.151055
635.328782
639.7287959
667.6779244
645.0861524
650.5588969
683.0684864
655.4930797
652.3167524
713.3127631
697.85406
702.7569116
725.4093063
716.8651396
721.1344438
749.7486181
731.4794641
733.7971853
771.4854327
581.6247683
582.8656234
611.5552979
584.0417356
584.706083
617.4845619
584.499124
572.8099375
632.3622913
612.783662
613.1566095
635.1837107
611.2352243
609.2476289
636.435504
596.6059394
589.3926287
623.7680485
553.7905883
535.5709531
580.1922542
445.5382825
421.8213668
475.5578011
528.0269108
526.5385713
554.7764843
524.2639804
520.9376592
552.4660351
516.5960333
498.5220447
553.8318932
531.8884606
528.4229531
548.885218
514.2622571
507.7417933
531.8540158
480.1459008
467.5509744
495.5397109
416.1512288
393.8457587
424.5350311
305.9412789
271.2194099
298.0567601
476.126768
472.3357522
499.3318607
467.3521137
460.9612875
490.361614
453.5509309
431.8359966
481.2703876
458.6872268
452.5091166
470.4995599
429.6133528
420.1940769
440.5348588
384.8079692
370.215152
392.1852076
317.0530174
296.1395872
317.3173107
221.7525135
191.8352764
208.0748814
426.8796105
421.4274702
446.6524225
414.5572097
406.114599
432.8549798
396.6999567
373.36736
416.5971652
394.7328156
387.2051544
402.5711713
360.0290706
349.2807539
365.4929986
311.419965
296.7849035
313.1609566
246.8985846
228.1407281
242.9260568
165.7797109
142.6782263
153.0050446
380.9753788
374.446289
397.6463278
366.4112047
356.7777463
380.7546585
346.2337748
322.877183
360.1627959
339.7381823
331.69835
344.7124917
303.6571508
292.9051615
305.8809808
256.1371733
242.3883071
254.5188691
197.2243786
180.7554605
191.0359149
128.1028359
110.4814682
117.4381048
338.7338183
331.6134902
352.7161087
323.0094954
312.8918737
334.1663416
301.7844173
279.4340049
311.5504527
292.8256644
284.7949043
295.7898395
257.4841277
247.2705942
257.8144451
213.26083
200.862749
210.3087648
160.9596181
146.5712075
154.1728277
102.1101198
87.40112811
92.49833688
300.1828183
292.8685277
311.9351562
284.1501093
274.0798573
292.8840434
262.9301779
242.0539552
269.7393097
252.8063398
245.1046811
254.422993
219.400855
209.9651944
218.621671
179.1525869
168.1336675
175.6357154
133.1956493
120.7348365
126.5921398
82.97629171
70.5266447
74.30272479
265.2083814
257.996419
275.1485139
249.4827735
239.802501
256.4068327
229.0037061
209.7823396
233.7377639
218.5521628
211.3593535
219.3000264
187.6927081
179.1255747
186.3138028
151.5576817
141.8414947
147.9105927
111.299346
100.5121989
105.1389079
68.22501479
57.66380076
60.58234001
233.5892484
226.6850909
242.0858393
218.5895489
209.5078175
224.1926731
199.3859886
181.8251838
202.6078632
189.0759584
182.4831983
189.2946497
161.0206237
153.3328639
159.3711771
128.8756252
120.3460796
125.3400203
93.67113571
84.32832464
88.05992439
56.58173006
47.57251086
49.88224663
205.048653
198.5842951
212.4110402
191.041906
182.6538864
195.6779107
173.3569667
157.4871215
175.5999956
163.582082
157.6168164
163.4972818
138.361667
131.5223043
136.6491518
109.9594734
102.4914558
106.6633079
79.22410161
71.13008017
74.19361712
47.21137547
39.49487074
41.35634843
179.2907661
173.3442356
185.7708367
166.4364675
158.8005248
170.3778144
150.3816087
136.166696
152.050193
141.3956781
136.0541291
141.1678691
118.9289599
112.8880297
117.2855052
93.9739095
87.45209994
90.98404893
67.19920914
60.19130124
62.74528002
39.54610473
32.9230325
34.44634215
156.0197395
150.6321942
161.8226712
144.3975032
137.5366425
147.8675919
130.0059726
117.371342
131.3871792
121.9556146
117.2166185
121.6968109
102.1071668
96.80773642
100.6166759
80.29978417
74.62458807
77.65068362
57.0504965
50.99484652
53.15317158
33.18386346
27.49980541
28.76334137
134.947255
130.1346408
140.2449496
124.5836184
118.495639
127.758533
111.8375981
100.6892377
113.1406584
104.8024224
100.6360855
104.5912737
87.41347717
82.79774956
86.12864101
68.4731348
63.55943516
66.18088566
48.3781592
43.16330542
45.01002593
27.83324439
22.96669318
24.02803546
115.7983069
111.5602963
120.7340129
106.686184
101.3537563
109.7050051
95.53822485
85.77298942
96.91634836
89.55337494
85.92625163
89.44606336
74.46029366
70.47345746
73.41435553
58.13519661
53.91027478
56.20567501
40.87962256
36.41297722
38.01200335
23.27580048
19.13069174
20.0328569
98.31463391
94.64096298
103.0107197
90.42720765
85.82725658
93.40415193
80.82586155
72.32100084
82.38063432
75.88612495
72.76559268
75.92565962
62.93403633
59.5263896
62.1487082
49.00326901
45.40493344
47.43680922
34.32006001
30.52523094
31.92643093
19.34762188
15.84738035
16.62301825
82.25552745
79.12821524
86.81703305
75.55140005
71.65293352
78.5866491
67.46591218
60.09512317
69.23869182
63.52714506
60.88345356
63.74634618
52.57630198
49.70396332
52.06629928
40.84881782
37.82416082
39.64314441
28.51306105
25.32716526
26.57017962
15.92118908
13.00337117
13.67848829
67.39239934
64.78966315
71.91397982
61.8260317
58.58689109
64.99448544
55.19500763
48.88859629
57.26482435
52.25634035
50.06034943
52.67701235
43.17490652
40.79900799
42.94935857
33.48543444
30.98971731
32.63699155
23.30892367
20.68066646
21.7972368
12.89411846
10.50802806
11.10354277
53.52174346
51.41191792
58.07611979
49.0368328
46.41614333
52.40101327
43.74232117
38.51558873
46.2658025
41.88577817
40.10710786
42.52293844
34.54730053
32.63391955
34.61475284
26.75508195
24.75113806
26.26232655
18.5826331
16.47047724
17.48772629
10.18320664
8.286042529
8.819519843
40.37286756
38.7679795
45.0944405
36.98523301
34.98127267
40.6166507
32.94397167
28.7553245
36.06059387
32.22045855
30.83778853
33.1006058
26.52766581
25.0496013
26.89929901
20.51986279
18.97798739
20.38414095
14.2279632
12.5986865
13.53977184
7.716670236
6.274776388
6.760833741
27.84017261
26.7489341
32.75853788
25.50352976
24.09792764
29.48048984
22.67522078
19.46124984
26.42913034
23.08391971
22.08091416
24.22990797
18.96601999
17.90271441
19.65574509
14.65651817
13.55396703
14.88329633
10.15094514
8.97903723
9.864826941
5.432718798
4.421789753
4.872688042
15.87650595
15.13566641
20.96317992
14.42801383
13.61538043
18.79792718
12.77791467
10.48712036
17.22516317
14.32304335
13.6883008
15.75955786
11.72722628
11.06297357
12.75070703
9.04957111
8.369083449
9.648849529
6.262726753
5.53133889
6.381449636
3.27910937
2.68418042
3.109561004
4.993150819
4.595887342
9.328570256
4.276046882
3.991726722
8.327061435
3.667373484
1.978449414
8.305906317
5.79787072
5.52781637
7.548731184
4.69747955
4.420094538
6.063102566
3.589108185
3.312281447
4.568128036
2.469811692
2.180709483
3.009858927
1.231057019
1.047175301
1.435276758
1088.101799
1098.766126
1089.595116
869.1162761
889.7729708
881.3784244
1093.46288
1078.958912
1058.13371
891.8793144
880.9970452
852.3958459
1036.387908
1013.642123
1027.680701
991.3925972
1004.834251
995.8350144
1140.792396
1148.821041
955.624514
963.3152893
977.6279176
37.71177942
819.048507
783.9471318
787.6676453
893.401411
856.0868153
881.9759456
817.6209552
823.6083032
872.1917941
178.9035849
558.5643957
543.5387402
557.6465181
831.6422643
851.5279982
838.4467532
879.6388796
865.2541615
844.1324362
885.0330295
910.375812
894.6823887
943.6934748
926.7120241
899.7645558
947.5294197
979.7073738
961.3423555
1018.963776
998.8499406
964.8921732
746.681824
768.3914219
759.9667096
785.9597056
777.0452323
754.0287298
822.3844761
800.122616
810.4570569
776.7353382
804.4183037
795.0971587
823.5659719
813.9094175
784.3678578
871.9562802
843.4565785
855.0999927
807.1813788
843.5119046
833.4162898
865.3273851
854.0943475
815.0224608
929.4861265
892.7036649
906.6413219
1042.561577
1054.409172
1045.233414
1073.076192
1063.593489
1051.775823
1086.278501
1075.107508
1084.537903
657.452221
679.9449996
676.3017302
686.8231691
683.4996237
659.7594135
731.538493
707.5974086
712.3286306
664.251575
692.3983627
689.809211
695.811528
694.4044601
664.3667107
755.5502058
725.0389991
728.519439
659.3554336
696.0684808
696.4261844
691.945871
694.5939208
654.9704756
776.3431334
735.4617455
736.5617253
857.9565812
837.2037047
843.4459584
569.8362703
591.2526693
591.9859445
588.4094146
590.1146337
567.7109897
636.2543881
612.9207931
612.407877
556.8119089
582.6499011
585.9788495
572.5865109
578.2489593
551.1429995
635.0612651
606.2857662
602.1439411
525.1547348
556.4623827
565.4211486
531.8245533
545.3761211
512.5700082
616.776733
580.1596223
568.5576703
458.2667986
495.1519129
515.1363233
443.1482702
472.4322615
434.1122983
561.2387071
514.2717131
484.6010521
329.3876538
369.5037738
402.7762115
320.949178
286.870368
404.0872882
361.5382954
489.1759794
508.4962917
512.7630508
498.1388014
503.6608067
483.5859859
545.785724
524.4152053
519.760279
461.9680146
484.4308621
491.7862974
465.9243635
475.876705
452.6592823
525.0698669
500.0133924
490.8867706
415.8083604
440.9911393
454.3672451
407.9481651
425.5729786
399.9466769
481.7698674
452.8299397
435.7568305
340.513927
365.9413151
388.0787258
312.6570996
340.9631451
315.9649857
399.4859183
368.6148901
339.6044448
226.4712149
247.4327365
281.2880113
214.7640077
196.4824853
259.0771067
235.4717261
418.569006
435.2034908
441.8477291
419.7466462
427.8512976
410.8253209
464.2406392
445.6568198
438.0610916
382.6991817
400.9254731
410.8065599
377.8932316
389.9923592
371.4472452
430.5558586
409.6768342
397.9243626
330.8074948
349.7972913
364.5236077
316.1056923
333.6592476
314.7658031
376.1119525
354.0631225
336.3271958
259.100374
276.7901452
297.1944714
229.5692433
254.0306229
237.0129308
293.2984225
272.7290518
247.2517231
164.5246518
177.4024695
205.6726854
153.0524499
141.4088402
180.3261646
165.9506947
358.2929469
372.4478162
380.1791853
354.838358
364.0216058
349.7429583
394.537871
378.9460479
369.9049867
319.5660177
334.0071765
344.8488088
309.6460187
322.2780035
307.862667
354.0045394
337.6295259
325.0254969
267.5425898
281.6038013
296.0915355
249.9332548
266.2012372
252.4262798
297.2840489
281.1252025
264.4822136
202.2966124
214.6312527
232.8251255
173.746456
194.599612
182.9501576
221.522362
207.4246201
185.7650926
125.0273702
133.3964797
154.8738825
112.6513736
104.8098816
130.8668532
121.311293
307.259164
319.2191196
327.3102513
301.2187698
310.5344925
298.5906308
336.0835504
323.0238232
313.6872177
268.9104799
280.5947018
291.246328
257.1942955
269.2465732
257.7340543
294.2617655
281.4077458
269.1513213
220.3466314
231.0221415
244.4442244
202.3770536
216.9812756
206.7011748
239.7195655
227.9567821
212.906388
162.3809854
171.254061
187.1666602
136.3536513
154.236882
146.0837822
172.3943196
162.8902964
144.1881855
98.00434135
103.9570135
120.7975321
85.62073453
80.71269242
97.72061656
91.33148222
264.1319512
274.2474648
282.2336187
256.7856156
265.7714963
255.7552189
287.1651577
276.233895
267.1351563
227.7052001
237.2448074
247.2789661
215.5981853
226.6819335
217.3690156
246.828439
236.4901874
225.1478359
183.5671406
191.9632152
204.0133519
166.6580501
179.500797
171.4919522
197.0585435
188.0075698
174.7338559
132.8293295
139.4776454
153.3565337
110.3392734
125.1186867
119.0195826
138.5660319
131.617742
116.1375158
78.34812606
82.69842238
96.83544481
67.74945152
64.03853539
76.12381609
71.77660229
227.5613991
236.1557813
243.7576747
219.7505058
228.1568948
219.7061964
246.16164
236.9685231
228.4020498
193.8354053
201.7116384
210.9346813
182.081196
192.0886983
184.4557278
208.5189575
200.100796
189.8216164
154.2991919
161.0314383
171.715309
138.8301497
150.0704914
143.691618
163.9403301
156.80993
145.1869821
110.0361284
115.2263518
127.2452662
90.46589451
102.9212776
98.19046355
113.3048191
107.9492828
94.96472778
63.68714552
66.99546224
78.93759651
54.3729709
51.56320169
60.59336304
57.37757005
196.3707463
203.7197995
210.7826284
188.6281866
196.336771
189.1524693
211.5974898
203.8132667
195.9239002
165.6719485
172.2510918
180.5972833
154.6670289
163.601285
157.2627821
177.1780163
170.2333446
161.0344016
130.5756048
136.0699271
145.4777847
116.6348074
126.4630928
121.2825872
137.6465607
131.9110342
121.7468361
91.99056115
96.13566926
106.5414931
74.95133398
85.55545957
81.7980292
93.73300882
89.52779692
78.49597439
52.32657044
54.9164014
65.06130364
44.14426719
41.96324438
48.93175935
46.46317793
169.5957166
175.9188942
182.3687613
162.239396
169.2100942
163.0565788
182.2456785
175.6028942
168.4469997
141.9849013
147.5415885
155.0132956
131.9252355
139.8384683
134.5105814
151.2002935
145.3974436
137.2353283
111.0212964
115.577597
123.8301618
98.58293515
107.1695744
102.8905314
116.3512081
111.6521413
102.7695432
77.40716483
80.78138071
89.79495104
62.57792415
71.66165362
68.61783102
78.23941344
74.86507698
65.42709475
43.31802901
45.38726113
54.05161703
36.14620467
34.42018455
39.90955322
37.97350734
146.4615076
151.9401879
157.7599176
139.6706701
145.9108615
140.5988206
157.1294748
151.4178288
144.9970737
121.8507433
126.5930225
133.2276876
112.8155959
119.7820582
115.2527453
129.3999085
124.4942268
117.2986535
94.66185962
98.49443709
105.7156914
83.6576734
91.14715132
87.56073398
98.80152886
94.89072557
87.13930607
65.41453548
68.20671011
76.01516208
52.52542543
60.33568384
57.82760556
65.72203938
62.96436361
54.85532185
36.04585783
37.7267797
45.1532229
29.77920481
28.39109194
32.78796658
31.24299141
126.3259317
131.1085048
136.3073777
120.2001437
125.7393519
121.1164388
135.4720305
130.5217599
124.8106869
104.5613438
108.6495412
114.4996571
96.56313258
102.6648389
98.77249981
110.8962351
106.7031985
100.3930241
80.79267348
84.05767564
90.35909805
71.13780575
77.65405454
74.60876428
84.12207708
80.82254729
74.07363942
55.40145697
57.74560754
64.50388299
44.22691762
50.9527677
48.85550135
55.43238352
53.14295746
46.16132322
30.08574775
31.47104701
37.84632379
24.63202934
23.49961812
27.07355739
25.82197028
108.6700912
112.8755288
117.4776125
103.2570361
108.1349208
104.0802476
116.6463659
112.3215078
107.282213
89.57001829
93.12768933
98.25084719
82.58371197
87.90083725
84.52221023
95.01938309
91.39775304
85.89166647
68.89538604
71.70812523
77.18548248
60.49849344
66.14818504
63.53245383
71.68047038
68.86229786
63.00507674
46.92797628
48.9214045
54.7572192
37.27929136
43.06876089
41.29179537
46.84594443
44.91862642
38.90710519
25.13537434
26.29160967
31.76099965
20.41322507
19.47732918
22.42131897
21.39357268
93.06889703
96.79617202
100.832764
88.38724238
92.64704366
89.06102586
100.1511972
96.34202908
91.93172632
76.44584779
79.57189327
84.02543654
70.43202381
75.03749909
72.07503856
81.2558591
78.09607082
73.31903509
58.57645982
61.02617294
65.76129411
51.35010331
56.22422201
53.95214329
61.00982414
58.5753012
53.51503306
39.66800461
41.38388123
46.4036668
31.38630573
36.35762328
34.83294482
39.58351985
37.94000417
32.77396093
20.97156455
21.94871334
26.62674491
16.91021071
16.12689014
18.58317125
17.72824222
79.17047401
82.50172572
86.00661589
75.22141702
78.90597461
75.7067708
85.57833097
82.19506267
78.37051452
64.8447568
67.61833202
71.45594777
59.7593759
63.71713001
61.09343008
69.20354629
66.41913713
62.30497055
49.52943259
51.68608754
55.74891222
43.39336226
47.56898264
45.5734243
51.7546091
49.62820581
45.28452785
33.37303939
34.86763173
39.15972758
26.32541637
30.57425846
29.25051022
33.36264372
31.94407684
27.52245747
17.42763682
18.26291342
22.24024897
13.96535886
13.30177677
15.37614565
14.65625555
66.67951012
69.68393952
72.6888481
63.45713465
66.60606189
63.72545591
72.5929979
69.56077172
66.28133671
54.48856208
56.9741586
60.24407751
50.28875278
53.65402371
51.30638049
58.54411325
56.065488
52.55682731
41.51101327
43.43066129
46.88095354
36.39372751
39.93614384
38.16356863
43.63816654
41.76006885
38.06487601
27.84937222
29.16698501
32.80415562
21.92915137
25.53113199
24.36780373
27.97029465
26.73126288
22.97367276
14.37659516
15.09907504
18.44839781
11.45995109
10.89114114
12.66395842
12.05046169
55.35202529
58.08565386
60.61989975
52.84391187
55.49320519
52.87541369
60.91524621
58.17211682
55.40109468
45.14848616
47.39909399
50.14386775
41.79462534
44.61477034
42.49175719
49.01934165
46.78960293
43.83724176
34.32361987
36.05189315
38.94041809
30.16340594
33.12733425
31.53436848
36.43962871
34.76156791