/*--------------------------------*- C++ -*----------------------------------*\
| =========                 |                                                 |
| \\      /  F ield         | OpenFOAM: The Open Source CFD Toolbox           |
|  \\    /   O peration     | Version:  v2012                                 |
|   \\  /    A nd           | Website:  www.openfoam.com                      |
|    \\/     M anipulation  |                                                 |
\*---------------------------------------------------------------------------*/
FoamFile
{
    version     2.0;
    format      ascii;
    class       volScalarField;
    location    "1.93";
    object      nut;
}
// * * * * * * * * * * * * * * * * * * * * * * * * * * * * * * * * * * * * * //

dimensions      [0 2 -1 0 0 0 0];


internalField   nonuniform List<scalar> 
3259
(
1.04138759
1.092520493
1.156565449
1.15638427
1.156230615
1.156136797
1.156069717
1.156046746
1.1558271
1.155843294
1.155868396
1.155894488
0.9587356752
0.985039543
1.104498965
1.157180576
1.156378383
1.155827419
1.155406527
1.155236157
1.154961796
1.155010025
1.155085438
1.155165458
0.75436051
0.7788613601
0.8770745132
1.055641631
1.157133164
1.155872096
1.154951087
1.154532415
1.154147559
1.154173968
1.154284999
1.154418853
0.5144748652
0.5381702698
0.6217488459
0.7720426943
1.010239844
1.156634515
1.154898092
1.154034384
1.153378316
1.153368061
1.153490757
1.153667556
0.3069678866
0.330597147
0.4102888195
0.5459112902
0.7533457645
1.064868047
1.155450092
1.15382431
1.152742242
1.152582087
1.152686352
1.152895309
0.1541127638
0.1807965423
0.2596632961
0.383861819
0.5713918201
0.8474679637
1.156724203
1.153974785
1.15226237
1.151848145
1.151886987
1.152104188
0.05649898716
0.08931855634
0.1671146737
0.2816093531
0.4508558835
0.6919154447
1.071428469
1.154561863
1.151908194
1.151158278
1.151082584
1.151291105
0.05123487603
0.1259394749
0.2274971633
0.3804556607
0.6022253434
0.9511835252
1.155542199
1.151749674
1.150562192
1.150308206
1.150478715
0.06268509732
0.1230802633
0.2109554114
0.3492357771
0.551006361
0.8752780101
1.15680265
1.151792523
1.150075925
1.149604422
1.149721704
0.08818227329
0.1400070488
0.2200818995
0.3490132066
0.536539762
0.8349378524
1.158280329
1.152078165
1.14978542
1.149047523
1.149085885
0.1199944531
0.1695125621
0.2480061036
0.3712811394
0.5482440467
0.8253362493
1.142971545
1.152578766
1.14969058
1.148687639
1.148643799
0.1567414173
0.2112861787
0.2934644736
0.4172803993
0.5847101075
0.8424915599
1.131312296
1.153330604
1.149852877
1.148567978
1.148428078
0.0559422222
0.04421110622
0.08088975305
0.05891242516
0.1135363451
0.08474389836
0.1437504234
0.1183329764
0.1476328412
0.05677315742
0.04563831953
0.08486283576
0.02850591805
0.01906479219
0.06015907741
0.1042274883
0.1063049969
0.02954626573
0.04368614186
0.08478705705
0.1199927129
0.1066621261
0.05201760925
0.03690263278
0.1159200557
0.1477744259
0.1259488451
0.09738794145
0.07127934672
0.01757290068
0.1348924236
0.1300225189
0.04484761022
0.02974720576
0.04780688167
0.03155646801
0.0478890018
0.03652454929
0.02939557666
0.07038540643
0.04350913586
0.04949660823
0.04916488507
0.04372269252
0.06888284702
0.06783030155
0.05331448647
0.1012076745
0.07315648164
0.09416817291
0.05000269381
0.0704238121
0.09690270746
0.1278748858
0.1014723516
0.01315133744
0.01216576192
0.1367943411
0.01990540992
0.01682456623
0.00828295998
0.009423618538
0.1498206164
0.1844752053
0.1560626488
0.0111995432
0.05703537238
0.04937379887
0.02185964048
0.02987009856
0.04623779544
0.04782875966
0.0343826145
0.1326268486
0.1236580423
0.1315409296
0.09754450339
0.1210911342
0.1295044867
0.02246514812
0.01924234002
0.02957414493
0.02139517382
0.01541879574
0.02269580224
0.01966455416
0.009858705138
0.01625906893
0.02149087661
0.03761593709
0.03823313249
0.04449933273
0.04343741821
0.01764866536
0.01002762732
0.08570450523
0.01482187858
0.02696325578
0.009426805119
0.01278235023
0.08186824015
0.07283396872
0.06108459878
0.01093837855
0.0393368521
0.03852958383
0.03490753063
0.03462596018
0.04694681219
0.06804411317
0.06349203656
0.07446791399
0.06968240777
0.04723697001
0.05215577509
0.05570401079
0.05057102066
0.0618286969
0.05713475055
0.05120215861
0.06396457627
0.009270611423
0.06268093993
0.02867288871
0.04214126029
0.1131687703
0.03207616406
0.01898405755
0.00740739602
0.07698233309
0.00355064793
0.01848859271
0.01411663937
0.00580084723
0.01268761231
0.01079107203
0.009330047969
0.008448472035
0.0124433014
0.008789424788
0.03190440641
0.01348502769
0.01265830377
0.04089804965
0.04836405607
0.01395690723
0.01920728044
0.009269777629
0.00936167339
0.03862610348
0.04567385835
0.01529392378
0.01359611243
0.03761657344
0.04239217559
0.03808159829
0.04893571819
0.04392820307
0.03924101841
0.03570499719
0.009493321688
0.009305819414
0.03072801534
0.02038794169
0.02227259778
0.05698068595
0.08156223384
0.1013297638
0.09377350464
0.05626673365
0.08194959789
0.07633742653
0.09102516157
0.08415516837
0.05740939045
0.1171609653
0.04442182575
0.06072633289
0.01134057676
0.01200317265
0.006252514926
0.01163701277
0.009441870298
0.00926664571
0.02708626163
0.02075401193
0.0072616925
0.01098861727
0.007092109185
0.0115536842
0.0106334119
0.01309101021
0.04023466169
0.01038368488
0.01025634707
0.01513310336
0.02162266351
0.01806442372
0.02775979009
0.02280425726
0.01762548129
0.01576315511
0.0123449377
0.01163832393
0.009086591117
0.03376296034
0.04024292932
0.01242551623
0.01174836405
0.01308627862
0.01357171291
0.04713633259
0.009042405895
0.009074246035
0.0112110677
0.009191289782
0.009080078068
0.03976054033
0.009116168597
0.01285644959
0.01248630657
0.01139834368
0.0195739358
0.05056655265
0.04562931229
0.01057610265
0.03703592987
0.03160227821
0.04383721332
0.03904922013
0.01093407425
0.01153546369
0.0352872127
0.02950831089
0.02151367507
0.02039366198
0.04431786939
0.01465830919
0.01474114342
0.01154512877
0.02147852718
0.02544980007
0.01530714412
0.02167570752
0.0342992823
0.02962197136
0.02256823901
0.00984726952
0.009596054091
0.03547436993
0.03204892861
0.009610332533
0.009946642893
0.02315761387
0.01965630509
0.03003098896
0.02505724292
0.006653964153
0.01255745405
0.01174093273
0.01835585278
0.01288730309
0.006804777423
0.02661315455
0.01006767433
0.0102544984
0.01002605258
0.0247757277
0.01123619942
0.0525788779
0.1115765883
0.1446510916
0.01079778239
0.01052502201
0.1956205582
0.007141814639
0.1357625431
0.141503446
0.1587093774
0.00474732932
0.007290403883
0.005363121497
0.004843505885
0.005700317985
0.00446119001
0.05610865916
0.03501887818
0.02212803201
0.02531473166
0.02303363523
0.02694920372
0.04289110262
0.03728852035
0.01240859534
0.06464906817
0.07646548793
0.1332041128
0.02802874835
0.03069246675
0.03278293205
0.01131353778
0.01149133726
0.01152187311
0.01125977187
0.0444890802
0.01513733269
0.009620788813
0.01146974615
0.01096877567
0.01114855162
0.02268419143
0.0281563898
0.05679827141
0.03672433018
0.03353452278
0.02473804049
0.04220328121
0.01480400316
0.02053361432
0.02277411365
0.01445428532
0.009956436647
0.01800140201
0.01933153436
0.01777270918
0.01430571082
0.01775599879
0.0161369704
0.01047009094
0.01102662685
0.006552265736
0.009557440168
0.01049057552
0.05734571627
0.05216102139
0.0212799974
0.009302538519
0.01299653978
0.01192865631
0.01108654457
0.01399142774
0.01252915523
0.00918550454
0.009179869637
0.01154350165
0.01111561294
0.00926008102
0.009058385594
0.006838222092
0.05824431413
0.02317976502
0.02850551912
0.01105195786
0.01094469414
0.01092145835
0.01076796554
0.01101109378
0.01539263919
0.006382300085
0.004099895983
0.007553392035
0.01159899393
0.01053894923
0.01073558773
0.01047151781
0.0106437796
0.01086751935
0.01005016387
0.006629004125
0.005231238713
0.01163071157
0.01197065179
0.01127761227
0.01137017084
0.01311586213
0.02013220392
0.02039446874
0.01974409766
0.01995860635
0.01299493833
0.009213519529
0.01536454469
0.01534606016
0.01587230641
0.01547907827
0.009102621445
0.01451259295
0.02264092234
0.02516994918
0.02067920459
0.02133758485
0.01406073124
0.009463069937
0.01536811567
0.01537115751
0.01531276871
0.0153562605
0.009377847782
0.01092340273
0.01111024199
0.01055444265
0.01107581962
0.01127622098
0.007793192323
0.01130652293
0.01118818264
0.007697296677
0.0107523279
0.01120691761
0.0148593804
0.004399724367
0.009065427536
0.006998439215
0.006381252982
0.007237102828
0.009470427722
0.00654409195
0.01087654546
0.01088234569
0.01075711999
0.008258341048
0.01048513696
0.006922725969
0.01043974587
0.01874634487
0.02002203329
0.01893097581
0.02627730709
0.02317671857
0.01801235697
0.01689177476
0.01817248981
0.01114678506
0.0178231451
0.01886604927
0.01284082092
0.01779475546
0.01198526854
0.01219688822
0.01936222262
0.01955468297
0.01893295272
0.01920951885
0.01202520067
0.01325608652
0.0230310347
0.02261773452
0.009084539345
0.009073248938
0.009989415701
0.007446987372
0.008987421206
0.009012005982
0.008984685612
0.008745404469
0.01055902609
0.01903372928
0.01699881609
0.02199125611
0.02085486335
0.01207533679
0.009596894759
0.01016202365
0.01421638269
0.006598008012
0.009829450676
0.009787012118
0.01112169399
0.009595350731
0.009780413602
0.01698919577
0.01509700149
0.009794892756
0.0214483329
0.03082973441
0.03128898435
0.02802814651
0.0289847354
0.02021284267
0.01388235584
0.01491835328
0.02292287999
0.01623454225
0.01541725124
0.01735450895
0.01644522389
0.02325507658
0.01574962208
0.01643346286
0.01292357188
0.01685548421
0.009743927888
0.0154380327
0.01546566811
0.0154120005
0.01544151688
0.009698450543
0.00998567107
0.0143669117
0.01250355038
0.01539131177
0.01513149351
0.009981982743
0.009160595821
0.009322967682
0.00909860019
0.01066923887
0.009782064541
0.01220393863
0.0091377427
0.009125447766
0.009055765312
0.009096775168
0.01210771971
0.01642212005
0.009814706345
0.0108627594
0.009247127491
0.009071842434
0.01420155322
0.01023327539
0.01126366472
0.01099172265
0.01374886163
0.01213525969
0.01023536114
0.00983341275
0.01000285111
0.01054053418
0.01029849222
0.006682995749
0.01136321922
0.8135606895
0.9607790111
0.8115874118
0.8258182792
0.9766642104
0.8370630309
0.9120923407
1.084857257
0.9397355496
1.078722975
1.157410849
1.125212783
1.157183086
1.156547611
1.156853472
1.156007703
1.155940889
0.5754954455
0.755924404
0.5721733236
0.5856684643
0.7663116813
0.5971265745
0.6558568675
0.8475840278
0.6831122074
0.7927515483
1.004879575
0.8391836129
1.016926096
1.157570257
1.089401991
1.156800788
1.156124108
0.3582423397
0.5175726903
0.3544954062
0.3665320789
0.5267281858
0.3776239722
0.4321154088
0.5952523508
0.4571622119
0.5554741115
0.7273522254
0.5956597459
0.7501448771
0.9424817706
0.8114169593
1.027407742
1.157199662
0.191228027
0.3112240025
0.1875528623
0.2003944277
0.3194566415
0.2124872602
0.2677245749
0.3854782037
0.2914497756
0.3825284436
0.5056015342
0.4183214222
0.5550416207
0.6945373119
0.6102117164
0.8106373694
0.9651163516
0.06784503594
0.158192099
0.0677473054
0.09473998422
0.1680225083
0.106950581
0.1624764231
0.2359494733
0.1852041554
0.2689685145
0.3478884398
0.3022829563
0.4264325472
0.5172584159
0.476232471
0.6555850893
0.7672757146
0.02765128708
0.0360950172
0.0607786726
0.06901096526
0.09144477196
0.1069885355
0.1319036161
0.2066231418
0.2486624538
0.2370141031
0.3488029916
0.4023178402
0.3939040131
0.5565728902
0.624779768
0.0521467953
0.07424065442
0.07678293626
0.1214242171
0.1853132225
0.1979702511
0.2121805899
0.3128207162
0.3364157311
0.353738675
0.5025636428
0.5394962428
0.07205354543
0.08793234901
0.08154433746
0.1344704749
0.1912343781
0.1848173966
0.2153936206
0.3074450516
0.3091779115
0.3461114425
0.4870621858
0.4948931919
0.09964253259
0.1142018541
0.1037758253
0.1611374293
0.2157938233
0.196008963
0.2391080979
0.3273561843
0.3113991885
0.3634592348
0.4930569639
0.4851660607
0.1323507081
0.1486251035
0.1352692583
0.1995173591
0.2566714543
0.2246322134
0.2806342013
0.3683290607
0.3356260828
0.4033553402
0.52544352
0.4997754275
0.1647986902
0.1817122029
0.170255297
0.2693151846
0.3820760103
0.5390896413
0.05285481478
0.0467484848
0.05131440977
0.03713763513
0.03722854624
0.0440298539
0.07758872837
0.07265952807
0.07755584067
0.05289986875
0.05850971237
0.06130579836
0.1095665647
0.1070282318
0.1113782808
0.07975603348
0.08455431796
0.08862545417
0.1407106645
0.1371590782
0.1394214083
0.1153383439
0.1194085543
0.1224397453
0.1418331964
0.1445252444
0.1505469175
0.002999314171
0.003729260958
0.003689550026
0.02952571787
0.003067725097
0.002747724715
0.0478361999
0.04052096303
0.03780903241
0.06546733849
0.04086284289
0.06158049079
0.0276837325
0.02697861891
0.02797559152
0.01644593827
0.01672460019
0.01938206032
0.07878338161
0.07553916006
0.05349608289
0.1031325962
0.08757761521
0.08956020033
0.08924527848
0.08737762377
0.1037169961
0.0298956332
0.01857292746
0.01838276843
0.03064455916
0.03000754278
0.04257651294
0.09977531282
0.09131624759
0.07418599631
0.1146948194
0.1023945151
0.108249657
0.09291913776
0.09727821432
0.1102281448
0.05073613598
0.03947027303
0.04092136871
0.025670851
0.02584673981
0.03730087425
0.1307193438
0.1185597757
0.1036652757
0.1399180186
0.1292956754
0.1373197101
0.1147020823
0.1217116255
0.1326564006
0.09352912477
0.06856913931
0.07240640044
0.04321305613
0.04784044346
0.07463435186
0.02668142222
0.02454996669
0.01561518462
0.1337868649
0.08073151888
0.09341711734
0.1095947011
0.1136341156
0.1299576471
0.04654485218
0.03252649172
0.03132580625
0.02914253335
0.03015485141
0.03050398279
0.04104386183
0.04515336867
0.05027460742
0.03340374795
0.03477735861
0.03300239405
0.04627157207
0.0444159114
0.04466865231
0.03623488335
0.02541580507
0.02549414865
0.01833022018
0.01830166234
0.02944811175
0.06585299703
0.06986292029
0.07814776315
0.04425707289
0.0675087073
0.06206682524
0.07597432912
0.07429126264
0.04831213146
0.05297165082
0.05030001899
0.04823534331
0.06105915149
0.05771234682
0.04603428457
0.06177840936
0.05932468272
0.06396871114
0.0646610495
0.03662831641
0.04162746566
0.04221913449
0.0433308755
0.05452451171
0.09690910568
0.1028926452
0.1055478587
0.07576101886
0.09693734818
0.09439359877
0.1092243837
0.1040168706
0.0847574399
0.05199703916
0.07946718322
0.07770627032
0.09176066456
0.08844446643
0.06191565957
0.09266906936
0.08742507638
0.09322300082
0.1246764761
0.10105615
0.1052296733
0.07607837873
0.07999677654
0.1053492865
0.0979483926
0.02904338282
0.007229465717
0.009141467667
0.00882886114
0.1595168604
0.1562251855
0.1362671239
0.1741898523
0.1634880076
0.1732012172
0.1456680277
0.1541024881
0.1649921206
0.0533581482
0.03017541471
0.03602291277
0.0409021324
0.04219773703
0.0515577175
0.02362776191
0.03223946678
0.03202810144
0.03132090361
0.02986337167
0.02811550952
0.04473173826
0.03753025684
0.03939717655
0.04585527114
0.03687029128
0.03861909854
0.02473446343
0.02672035388
0.03612654306
0.1310284792
0.1346010126
0.1363511364
0.1285532445
0.1291309314
0.1302944614
0.1363940162
0.1330206703
0.1324556425
0.1076056101
0.1177026488
0.1130471614
0.1262129258
0.1200183659
0.1111203227
0.1260436431
0.1233716717
0.1269638202
0.01207854725
0.01998533361
0.01705243475
0.0164216191
0.02678605434
0.01666230065
0.02545173486
0.01170534727
0.01469584865
0.02383671462
0.01955688953
0.0221094382
0.02423291798
0.01103574789
0.01514439726
0.0135812679
0.01623697093
0.01479932446
0.01521628748
0.02007468133
0.01789007351
0.01891434046
0.0272305564
0.02619586064
0.03667976799
0.03893664531
0.02800685833
0.02743295034
0.03363855568
0.03431772861
0.04529984926
0.04236086467
0.03153227162
0.03276142329
0.06150395153
0.06503483395
0.08950151813
0.01678680167
0.02593359177
0.02397561492
0.03709946637
0.0354815916
0.02527691389
0.02197110755
0.02039380617
0.0116849525
0.0784166838
0.04970037486
0.0524595114
0.06882567534
0.05074175225
0.05449941743
0.03830116339
0.04244817936
0.06478578186
0.03897672662
0.04071702341
0.04105359794
0.03762854531
0.03657920893
0.03746217326
0.02506856935
0.02511167936
0.03509238711
0.03415369915
0.02446736896
0.02489735308
0.06901837542
0.06726575452
0.04509486321
0.06667538572
0.06625077664
0.06803990261
0.0622134268
0.0629852832
0.06507672209
0.07289832925
0.07279673787
0.07445206097
0.0695619225
0.07115988386
0.07126536656
0.04798971667
0.07261720624
0.07091193894
0.05461274963
0.05240796276
0.054234316
0.05400564181
0.05259710995
0.05439478972
0.04900515241
0.05079410545
0.05230027351
0.06036489381
0.06031942322
0.06112567437
0.05601251186
0.05838066148
0.05872632987
0.04742134849
0.0582006928
0.0568245349
0.03023432945
0.03473530728
0.07138621193
0.06104764813
0.0495416711
0.05080081818
0.03451897815
0.05832854626
0.0585758102
0.06562906942
0.06203014513
0.03649637393
0.109409349
0.08409417087
0.08822098101
0.03019000704
0.02045375619
0.02255001471
0.01125314475
0.01227473076
0.0207015405
0.05850125014
0.01668021558
0.01119126636
0.01170761164
0.01081023805
0.008291814062
0.005660817761
0.009252015899
0.01281044173
0.00707219749
0.008474870109
0.008698829994
0.00743916406
0.00715324774
0.01070641204
0.007649637901
0.01054203506
0.005532229216
0.006613767292
0.00946829169
0.02026790636
0.01906828826
0.03060999328
0.04177892473
0.02959017091
0.02906857448
0.03671037797
0.038006542
0.04945094693
0.01522390502
0.02601598591
0.0246793624
0.02966024048
0.02783926853
0.01736828259
0.03787914825
0.02622444325
0.02686098549
0.03689065767
0.03426852628
0.04655249972
0.03931128318
0.03674316235
0.03525381605
0.04090273864
0.03836610162
0.04004420141
0.03507804725
0.03667164083
0.03953389546
0.0472798854
0.04547817612
0.04725089102
0.04170390519
0.04360771819
0.04564829059
0.04329843995
0.04259905427
0.04092876261
0.02524851331
0.02531191868
0.03594408261
0.02979931697
0.01863125634
0.01960199672
0.02109428783
0.03221185395
0.03113206878
0.03417568183
0.03322747711
0.02167910554
0.05572920625
0.04443001039
0.04548047215
0.1017885335
0.09941465963
0.0786718968
0.09900043118
0.09796992077
0.1005477378
0.09274822626
0.09535712365
0.09619352069
0.08279433399
0.08116543153
0.05303894139
0.08010045016
0.07970771977
0.08151930711
0.07617545712
0.07793534797
0.07809930825
0.08872687251
0.08777383037
0.09021414953
0.08345068969
0.08560229684
0.08623948852
0.06016570473
0.08644849457
0.08455192793
0.0924716655
0.09669490674
0.1206861278
0.04837466885
0.07332436118
0.06958326792
0.08151195691
0.07734020288
0.05705108708
0.01017606052
0.01005602937
0.01266043265
0.02518627308
0.01618763724
0.01799197931
0.01297590669
0.0144632604
0.02296179106
0.007207002129
0.01093635251
0.01749955591
0.0157451624
0.02157879365
0.01941927686
0.01169739788
0.03858172517
0.02873704724
0.03080721038
0.02020443689
0.02017127531
0.02234218371
0.01714132194
0.01873501519
0.01915816247
0.02333256129
0.02321049408
0.02446170291
0.01672989032
0.01514927041
0.01624727303
0.01432942022
0.01458150335
0.01604056401
0.01371257269
0.0134486793
0.01281964006
0.0354000683
0.02523136673
0.02269777154
0.02874014387
0.02826011977
0.03948665458
0.02391600656
0.02342106053
0.01331775784
0.04630714286
0.03499097531
0.03574579407
0.02816769344
0.02986798364
0.04100488781
0.0293514423
0.02777606948
0.01830875337
0.04896563485
0.03859682903
0.0403310729
0.03459900652
0.03659030624
0.04724519603
0.03527301657
0.02428780841
0.02611880106
0.0208910608
0.02236149888
0.03321497689
0.04240490727
0.03082182313
0.03256507186
0.02782315712
0.02922840879
0.04044671239
0.01137317673
0.01930068714
0.01827937717
0.01734055142
0.01543698935
0.01106373348
0.03369097715
0.0245799926
0.02672222175
0.02028413157
0.02244509208
0.03126425232
0.04275469234
0.04137061224
0.03922700759
0.03421740982
0.03576988109
0.03535557745
0.02682433927
0.0353466292
0.03452978927
0.03337809601
0.03482682418
0.02371455557
0.03528942101
0.0251644224
0.02519064316
0.02160305628
0.02345608063
0.03329299302
0.02168874861
0.01221029474
0.01338727796
0.01135272313
0.01181615239
0.02064167485
0.0286318195
0.01881280486
0.01979190657
0.01558906645
0.01749660606
0.02694617282
0.01727789074
0.01865549038
0.02824594625
0.02275814314
0.01386778985
0.01575805758
0.07867805411
0.08275345796
0.06468350014
0.1194086798
0.1008178347
0.09233472847
0.1245987596
0.110984052
0.1305282966
0.1828064424
0.193238232
0.2081230594
0.1320476257
0.1423662252
0.1391535336
0.1470240775
0.1446484375
0.138494389
0.005435617767
0.003913172713
0.003635912021
0.006477360756
0.005529255671
0.006142759511
0.004398826228
0.004286712038
0.00621298119
0.004097982978
0.003755061938
0.00315866281
0.004903739578
0.003782830855
0.004910194907
0.0035497665
0.003604406298
0.004445691544
0.03004506021
0.03683587914
0.04126305236
0.03236364558
0.03265114315
0.02765844738
0.02530742084
0.02599240345
0.02614105045
0.02415442522
0.02554256054
0.02482379124
0.02741008074
0.02615849056
0.02563936903
0.04092462455
0.03310572234
0.03498069611
0.0289082088
0.03105653874
0.03904412265
0.01380614295
0.0220801062
0.0196833687
0.0683712973
0.08998739509
0.08573167909
0.09867317937
0.09440008299
0.07241888424
0.02937505739
0.0299320117
0.02862178037
0.03278785992
0.03117990785
0.03103776755
0.0318854434
0.03133274154
0.03269637698
0.03710648823
0.02443338865
0.03334857814
0.03180524218
0.03711656732
0.03564355725
0.02620800793
0.05281223089
0.04509288241
0.04478158429
0.03541681749
0.03223941447
0.03358310673
0.02598046078
0.02841579593
0.02733263026
0.03288338889
0.03479656689
0.04407729689
0.01649777872
0.02568991829
0.02379713478
0.0296147819
0.02778961223
0.01846523131
0.01981098717
0.01804846962
0.02131726379
0.01288856248
0.01542339436
0.01699459712
0.0136418172
0.01440553071
0.01151411415
0.05537512379
0.04615055741
0.04736937831
0.04233962446
0.04396385795
0.05388494141
0.02321913165
0.03315787976
0.03135005891
0.04673400861
0.04797192936
0.05968631882
0.02457716752
0.03688541251
0.03544501228
0.04030426493
0.03875267533
0.02657878314
0.009271635451
0.008176540879
0.009664259473
0.005903969371
0.006879560311
0.007682465176
0.006153442225
0.006337959368
0.005158841219
1.007473738
1.01866555
1.053847401
1.053927875
1.114631354
1.156678821
1.15734103
1.157039869
1.15646527
1.156710156
1.156447782
1.156301725
1.156227807
1.156050726
1.156174116
1.15590667
1.155808697
1.156093576
1.155723208
1.155666406
1.156054244
0.9155106898
0.9160158495
0.9586043688
0.9389910476
0.9755394995
1.019205029
1.051661424
1.124395521
1.157961579
1.15750668
1.157197685
1.156948887
1.156485673
1.156264837
1.15621282
1.155803831
1.155353232
1.155529324
1.155134955
1.154976918
1.155303848
1.154867043
1.154812041
1.155202368
0.6947022828
0.6936409602
0.7534571286
0.7184569938
0.7361635439
0.7982009516
0.8120683564
0.8476597219
0.9155807897
0.9824502194
1.041999631
1.118338736
1.157528239
1.157047968
1.156758025
1.156342085
1.155348837
1.155302211
1.15484533
1.15450128
1.154704799
1.154259595
1.154121525
1.154426798
0.458410419
0.4587160985
0.5149300021
0.4816893717
0.496615463
0.5535065719
0.5633389557
0.593248508
0.6525234931
0.7091160988
0.7584061445
0.8227046632
0.9386066495
1.013678043
1.085374617
1.106695062
1.155988991
1.155601812
1.155052307
1.154373557
1.154390975
1.153898342
1.153602922
1.153799056
0.2630874548
0.2639365563
0.307587599
0.2878185903
0.3026832276
0.3456677893
0.3667591138
0.3948316585
0.4387464815
0.5009170509
0.5434961708
0.5912438493
0.7006305054
0.7634112512
0.8177231823
0.88220097
1.136906152
1.156744446
1.155920613
1.154722048
1.154485787
1.153863214
1.153273603
1.153398444
0.1246690919
0.1250093772
0.1542182226
0.1527767816
0.1684767581
0.1967872111
0.2317404711
0.2570861777
0.2866016088
0.3535231165
0.3920983499
0.4242154855
0.5363488927
0.5930037714
0.6309010571
0.7152489506
0.9555108845
1.038007439
1.152729989
1.155649909
1.155106036
1.154228231
1.15320784
1.153183926
0.04568282105
0.04610570553
0.05666581276
0.1521647293
0.1760446632
0.1918246577
0.2641648745
0.2995733175
0.3184604237
0.4288420353
0.4805328153
0.5038359311
0.6173601916
0.8257487983
0.8863625471
1.004417088
1.157089821
1.15628774
1.155007554
1.15346632
1.15325488
0.05114817329
0.05875356764
0.05910851641
0.1225507319
0.1430225961
0.1473902132
0.2203452768
0.2521944784
0.2602502884
0.3694227301
0.4167340428
0.4288541512
0.5596079691
0.7397591204
0.7763157938
0.9089052008
1.103356858
1.15117296
1.156130878
1.154029565
1.153674728
0.06599910794
0.07100279622
0.06831126935
0.1258483079
0.1433463072
0.1411178479
0.2110504556
0.2397896362
0.24027504
0.3464315429
0.3896410143
0.3934382987
0.5413685898
0.6977031329
0.7142523287
0.8508954046
1.029642687
1.06225944
1.157480705
1.154866564
1.1543905
0.09182648261
0.09548637428
0.09202645677
0.1463319654
0.1625676629
0.156402985
0.225385113
0.2522615316
0.2470012977
0.3524919885
0.3930550079
0.3905833037
0.5410303599
0.6874787602
0.6892182376
0.8265183311
0.9863927985
1.004721341
1.156136477
1.155942974
1.155372297
0.1241613414
0.1284976666
0.124297962
0.1786840615
0.1949825406
0.1858103676
0.2571620469
0.2837029305
0.2740644189
0.381077494
0.4200417632
0.410777805
0.5683720915
0.7041108314
0.6928283679
0.8308925469
0.9724687847
0.9766302171
1.121571899
1.157180131
1.156559377
0.1565957815
0.1644297819
0.1590736547
0.2244123652
0.2422647485
0.2286271328
0.3084150013
0.33524134
0.320532528
0.4316089521
0.4693758598
0.4553005585
0.7205286414
0.9766185967
1.15784624
0.04693256893
0.06606400013
0.06390657337
0.05763375994
0.08883660998
0.08584903274
0.08116635257
0.1198235987
0.1157340021
0.1119341977
0.1344337593
0.1330825089
0.1305054386
0.04632029796
0.04549526276
0.04677625748
0.04345598525
0.05913009823
0.05923192924
0.06291328421
0.06242092972
0.04906614298
0.05050744436
0.04880601039
0.04786452972
0.05956010032
0.0600198537
0.04418291424
0.1096221761
0.1077557323
0.09091371938
0.05054133812
0.06401376324
0.06340654949
0.1344875573
0.1553307171
0.1512836459
0.1492762086
0.02212436753
0.02531418966
0.02534615706
0.1257082963
0.1259627314
0.1245259424
0.1357046931
0.134269253
0.1340915598
0.1008608629
0.1135224895
0.1119237765
0.1228460606
0.1220294912
0.1178940381
0.02398437779
0.02050552486
0.01845976815
0.01830027234
0.01830134687
0.02138383038
0.009761259965
0.01124989505
0.011351929
0.06046988101
0.06032052115
0.0465517665
0.04746157726
0.0608340764
0.06069572374
0.05633631866
0.05548703346
0.0531448193
0.05011840074
0.05892821379
0.05811620008
0.05251419758
0.05348362234
0.06576372755
0.03051671966
0.04093891875
0.03939294884
0.0518062501
0.04991372232
0.04038008775
0.037031896
0.03580053301
0.03583364141
0.04059064322
0.04018303788
0.03931784934
0.06912601418
0.0681253669
0.05529002533
0.05821753245
0.07108683365
0.07002803175
0.0457675124
0.05546604454
0.05334094773
0.06063977937
0.06209113723
0.05479491747
0.1335391082
0.13914016
0.1371524147
0.1548298589
0.1482375884
0.152477244
0.04794663291
0.04373405362
0.05163182892
0.02555221495
0.02601520563
0.02298808794
0.131239175
0.1178222944
0.1217296425
0.03027061191
0.03114764476
0.03467691983
0.01155117509
0.01182991756
0.01076993751
0.8671414071
0.9154885997
0.8116378554
0.8668084022
0.8662617651
0.8833259921
0.8684243594
0.8145226129
0.9612443443
0.9165247407
0.9349844623
0.8596007479
0.9202334066
0.8907138475
0.9773164426
0.934338874
0.8791395447
1.032684479
0.9841996856
1.038088428
0.9837562278
1.054766143
0.9976346949
1.155109362
1.082561819
1.02047358
1.157656767
1.141242665
1.157810703
1.157975115
1.157546178
1.157935207
1.156905713
1.157223706
1.157581051
1.156747278
1.156957892
1.156692359
1.156533275
1.15637093
1.156640103
1.155940039
1.156152501
1.15625865
1.156074148
1.156093688
1.155916792
0.6353284446
0.6960911373
0.573327193
0.6331643876
0.6324688307
0.645653224
0.6374848918
0.5781445521
0.7559069183
0.6960067656
0.7059291115
0.6128755244
0.674039486
0.6574613869
0.7187917122
0.6940779621
0.632260105
0.8191242687
0.7568182246
0.7830565106
0.7150638072
0.780406993
0.7469039906
0.8614975937
0.8176711009
0.7511153211
0.9545136412
0.8861183148
0.9326964002
0.8921837723
0.9655155423
0.9096824613
1.094215833
1.026049844
0.9504070753
1.158005809
1.103187843
1.157992485
1.157875677
1.15745866
1.157955563
1.156515805
1.156944603
1.157333408
1.156421229
1.156646585
1.156290219
0.4084214459
0.4616888068
0.3547348358
0.4051506641
0.4049304458
0.4167634507
0.4091605945
0.3588806542
0.5190327029
0.4627381268
0.4703838021
0.3922071854
0.4427696409
0.4279115303
0.4829546975
0.4611130517
0.4103943358
0.5724458058
0.5151423307
0.5374129646
0.4858384825
0.5375197324
0.5083420357
0.608833103
0.5707166526
0.5187285951
0.6874647711
0.6272105504
0.6657158208
0.6416116265
0.6988177937
0.6521871092
0.8078069201
0.7499507123
0.6920761025
0.879356003
0.8129400627
0.8715523971
0.8773422806
0.9429438388
0.8735217544
1.099904846
1.018647449
0.9506937777
1.157754802
1.089718297
1.157609511
0.2277863427
0.2677586622
0.1874342836
0.2238129943
0.2235686647
0.2362879067
0.2283259084
0.191514369
0.3121804388
0.2690251097
0.2763955814
0.2275910312
0.2634492099
0.2481834709
0.3029441185
0.2815730794
0.2462772271
0.3640110666
0.3207291894
0.3420331481
0.3184797389
0.3543948858
0.3273062591
0.4198362833
0.3851056223
0.3490758259
0.4706948812
0.4255909874
0.4602804396
0.4592729617
0.4992676008
0.458626668
0.5968806746
0.5447834999
0.5046577468
0.6390717872
0.5902775114
0.6437038291
0.6708444176
0.7149809159
0.6534366409
0.8567707804
0.7825990376
0.7378244293
0.8887324854
0.8331538691
0.9080899224
0.1017917066
0.1268293348
0.07269485132
0.09902821705
0.0967135033
0.1144524086
0.1057287955
0.08356588204
0.1589806108
0.1299392698
0.1400124671
0.1226549405
0.1444696667
0.1277169793
0.1834051236
0.1626706766
0.1417525159
0.2152243419
0.1868974524
0.2079165303
0.2103033852
0.2317854206
0.206672373
0.291630127
0.2604532618
0.2379503678
0.3155495321
0.2860019681
0.3180321483
0.3395586887
0.3647922313
0.3265378616
0.4528885504
0.4070208293
0.3808749384
0.468345523
0.436420868
0.4842841902
0.530425063
0.5604272369
0.5040982806
0.6898469924
0.621717525
0.5901431088
0.696014414
0.6564837319
0.7269781313
0.02929116226
0.03712635928
0.03656975184
0.04292474348
0.03895219646
0.03204963595
0.05796674012
0.04779353534
0.05177660426
0.1542029207
0.1637993015
0.1405270857
0.2179355622
0.1896631627
0.1791542803