/*--------------------------------*- C++ -*----------------------------------*\
| =========                 |                                                 |
| \\      /  F ield         | OpenFOAM: The Open Source CFD Toolbox           |
|  \\    /   O peration     | Version:  v2012                                 |
|   \\  /    A nd           | Website:  www.openfoam.com                      |
|    \\/     M anipulation  |                                                 |
\*---------------------------------------------------------------------------*/
FoamFile
{
    version     2.0;
    format      ascii;
    class       volVectorField;
    location    "1.93";
    object      U;
}
// * * * * * * * * * * * * * * * * * * * * * * * * * * * * * * * * * * * * * //

dimensions      [0 1 -1 0 0 0 0];


internalField   nonuniform List<vector> 
3259
(
(100.0001616 0.4688169489 0)
(100.0049252 0.446731943 1.486602101e-21)
(100.0056814 0.3897280879 -1.976729181e-21)
(100.0063526 0.3156751021 1.034244418e-21)
(100.0058107 0.2411144234 0)
(100.0050192 0.1760462531 1.579856848e-21)
(100.0045279 0.1223766106 6.464927438e-21)
(100.0024144 0.08430449362 -1.782545281e-21)
(100.0091569 0.0941083072 -1.53902581e-20)
(100.0061181 0.05716099764 0)
(100.0043786 0.03002660321 -1.919804084e-21)
(100.0041247 0.009381655974 -1.350413756e-20)
(99.94707463 2.129346221 8.206854061e-23)
(100.054228 2.047987275 6.391460909e-22)
(100.1308132 1.797445334 -6.450609281e-22)
(100.1626015 1.459846368 5.328466131e-21)
(100.1572625 1.113427635 -1.002066895e-20)
(100.1301544 0.8144727353 0)
(100.1308247 0.5969533845 -2.721567178e-20)
(100.0908052 0.398991978 5.218434706e-20)
(100.0860795 0.2669641869 1.489963358e-20)
(100.0585179 0.1616003749 3.053571246e-20)
(100.0426466 0.0851883194 -3.062620505e-20)
(100.0365528 0.02666120933 1.542425712e-20)
(99.93818832 4.189442439 -2.495947243e-20)
(100.3409407 4.028383383 2.588410248e-20)
(100.5946785 3.474042547 1.91027555e-20)
(100.6705782 2.76385498 4.280146542e-21)
(100.6259854 2.07443669 -1.072914464e-20)
(100.5145548 1.480516727 -2.45855732e-20)
(100.43078 1.01018291 -1.63481673e-19)
(100.3070526 0.665948349 -3.595521787e-20)
(100.2363857 0.3998267107 -1.521567676e-20)
(100.1636703 0.2397082387 3.454642304e-20)
(100.1199221 0.1263291381 -3.873757897e-21)
(100.1008031 0.03934179096 0)
(99.81474025 6.66719195 3.915134114e-20)
(100.8546001 6.395879651 0)
(101.4682851 5.340235833 2.40349817e-19)
(101.5675665 4.049175414 0)
(101.3930176 2.911980441 0)
(101.1333062 2.026389399 0)
(100.8856578 1.313672915 5.893166015e-20)
(100.6296045 0.8454953212 -4.522727817e-20)
(100.444518 0.4675877287 -3.886515643e-20)
(100.309378 0.2770182143 1.963045967e-20)
(100.2255712 0.1436632863 -3.934324776e-21)
(100.1873127 0.04427836433 0)
(99.42475496 10.02760144 2.62627574e-19)
(101.817406 9.53924336 -2.324046389e-19)
(103.0540333 7.503979762 5.948247496e-19)
(103.0611277 5.266074822 1.435702394e-19)
(102.5323814 3.543368511 2.141351574e-19)
(101.9636465 2.353157076 -3.918493735e-22)
(101.4642584 1.449176421 -9.62500068e-20)
(101.0272677 0.9047728768 7.982338388e-21)
(100.6824679 0.4508794414 0)
(100.4701359 0.2609033074 3.998179655e-21)
(100.3379779 0.1303042496 -3.00304015e-21)
(100.2766069 0.03936851084 -9.953673407e-22)
(98.35895834 15.40994384 0)
(103.9816512 14.08437154 2.553797294e-19)
(105.9667782 9.790495577 0)
(105.3758157 6.186071317 1.001836357e-18)
(104.0722844 3.813184252 -5.064162108e-19)
(102.950318 2.370015468 3.263345373e-20)
(102.1097316 1.358874068 2.469453206e-20)
(101.4514487 0.8069141855 -1.644439379e-20)
(100.9165106 0.3377864466 0)
(100.6168734 0.183161423 0)
(100.4331536 0.08226043156 -1.006352627e-21)
(100.347115 0.02352837957 -3.013886436e-21)
(94.48097566 25.86284917 2.513833732e-19)
(110.4883134 20.32808834 4.531410946e-20)
(111.0808736 11.28287143 7.731251602e-19)
(108.5050315 6.157789083 0)
(105.9013745 3.42828131 -1.152890772e-18)
(104.0037476 1.962218602 7.791268229e-19)
(102.7136367 0.9919093484 0)
(101.8416536 0.5271222669 8.87258213e-21)
(101.1031481 0.1287084213 2.631377149e-21)
(100.7180505 0.04032753072 -3.114901381e-21)
(100.4867907 -0.0002694391407 -3.542516253e-21)
(100.3771128 -0.003100396804 8.546700476e-21)
(126.4056781 22.66867008 1.735595346e-18)
(118.0478871 9.131959064 3.965453162e-21)
(111.8949917 4.371364972 8.702637889e-19)
(107.6299437 2.162077716 1.321647532e-18)
(104.9273028 1.073759762 -6.11600591e-19)
(103.1640892 0.3500300447 -4.68683749e-21)
(102.1201076 0.08151949715 1.999294352e-20)
(101.1958566 -0.1687661585 -3.196326378e-21)
(100.7434663 -0.1578542077 2.617428082e-21)
(100.4754519 -0.1121173389 -4.879080892e-22)
(100.3462418 -0.03925711742 -8.011129739e-21)
(138.9364249 5.751375036 2.420407334e-18)
(122.6576718 2.117223414 1.433862245e-18)
(114.0985127 0.7057798902 -9.959568174e-19)
(108.7174645 0.07159129665 -7.223885139e-19)
(105.4646129 -0.2158358076 -1.556537331e-19)
(103.3598072 -0.4913601089 -4.761340361e-21)
(102.209275 -0.4917110656 1.119086113e-20)
(101.1605192 -0.5270639046 1.093114159e-21)
(100.6693303 -0.393434631 0)
(100.3798948 -0.2440058708 4.034192372e-21)
(100.2383554 -0.0820360604 3.989457379e-21)
(135.405761 -10.80817009 6.578468632e-18)
(122.1026181 -5.905843577 1.413280047e-18)
(114.0645528 -3.61178634 2.359351353e-19)
(108.7232007 -2.357492718 3.686773294e-19)
(105.431848 -1.68307158 6.316050608e-19)
(103.2311344 -1.418826938 4.018596306e-20)
(102.0712493 -1.123556158 0)
(100.9781418 -0.9078103464 -1.06690769e-21)
(100.4818328 -0.6430124832 -4.441912347e-21)
(100.1889869 -0.3837237422 4.963423594e-22)
(100.0438919 -0.1274466914 0)
(126.0237144 -19.6354686 0)
(117.9652031 -11.63909737 1.166944668e-18)
(112.0695431 -7.135082838 -4.114885735e-19)
(107.6920386 -4.507568233 0)
(104.8213685 -3.06086397 1.89672767e-20)
(102.7753386 -2.297211167 0)
(101.7072585 -1.731429865 -2.634997734e-20)
(100.6469799 -1.270645231 -1.338191841e-20)
(100.1801684 -0.8817443497 1.015592056e-21)
(99.90151838 -0.5181918579 -3.211555957e-21)
(99.76149598 -0.1712979489 4.703985351e-22)
(116.3254776 -22.60178516 0)
(112.5781326 -14.36899904 8.480708917e-19)
(109.0604313 -9.219705611 -3.678801937e-19)
(105.9876364 -5.99945902 -2.952343088e-19)
(103.7763029 -4.134890087 -6.029532832e-19)
(102.0512417 -3.018141055 2.106437782e-21)
(101.1512006 -2.249255772 -3.216556732e-20)
(100.188806 -1.588950998 7.924713973e-21)
(99.776682 -1.086783468 0)
(99.52569784 -0.636060632 3.697842948e-21)
(99.39790384 -0.2099201247 0)
(141.4886139 8.898811934 3.243690235e-21)
(127.785199 25.602352 -3.572664805e-18)
(138.4491653 -10.09965298 1.822714656e-18)
(141.9188816 6.110597271 -6.856959063e-19)
(128.323864 -20.30279628 -1.735110045e-18)
(137.3644709 -11.87333338 6.066347469e-19)
(117.8971705 -23.77518446 1.138436007e-18)
(126.9798931 -21.03611788 3.461696915e-18)
(116.6590427 -23.87908809 0)
(92.36545889 24.59760496 -3.70571766e-19)
(124.5676231 26.49204562 -1.540409828e-18)
(108.4629559 22.30958373 -4.752801653e-19)
(151.8326565 28.38439106 -2.356613798e-18)
(131.9550948 45.37543096 -3.871561295e-18)
(138.4554333 8.214550269 -4.739363816e-18)
(124.7337976 5.0662824 -1.674549017e-18)
(119.9183524 11.03448419 1.383279849e-18)
(152.3554791 -5.925031664 -2.154988336e-18)
(155.5356042 7.533419146 2.455343704e-18)
(136.3349784 -9.149970103 -4.449998974e-18)
(125.36854 -4.632197709 -1.671826877e-18)
(125.5195572 2.621071298 1.674380024e-18)
(137.8906979 -22.90805267 -2.256357814e-20)
(145.2721956 -16.84488282 4.078357228e-18)
(127.2683436 -18.90952051 1.675953045e-18)
(121.0969255 -11.91789811 -1.377152124e-18)
(124.6287058 -6.779648479 -6.247445029e-20)
(124.5225158 -28.50551787 0)
(130.196637 -26.83552592 0)
(107.2091098 -33.72928344 -3.315497968e-19)
(112.6070398 -28.80836596 2.281423595e-18)
(117.6740497 -29.266863 -1.051468729e-18)
(155.6469681 8.591260672 -4.802354545e-18)
(152.5116568 27.07081173 0)
(138.0386977 17.3078193 1.01670792e-19)
(150.6562415 25.4274166 -7.65390037e-19)
(154.5836103 8.668923093 -2.326059478e-18)
(145.7326329 -16.30582148 -2.119205775e-18)
(152.0380695 -6.686727811 0)
(140.5171617 -3.316944842 -6.790824088e-18)
(151.0551054 -6.285442438 -2.118197897e-18)
(145.1726935 -15.8350369 -2.031961078e-18)
(154.506077 7.623076942 4.776533089e-18)
(151.3633614 -5.53768404 2.170378616e-18)
(140.7617137 -2.161295586 4.566836788e-18)
(131.0359024 -26.50190699 -4.034362465e-21)
(137.3992723 -23.24325111 -3.445377018e-18)
(132.3376377 -17.46896154 -4.483423022e-18)
(136.8566004 -22.58701288 0)
(130.8063957 -25.65270761 0)
(144.7296174 -16.37162229 -6.080392346e-20)
(137.7921376 -21.99971766 -1.080248342e-18)
(133.6535419 -16.28560109 1.511519118e-18)
(118.4151424 -29.25462721 2.143146775e-18)
(123.7375375 -28.65918009 0)
(104.0574714 -33.29632086 0)
(103.3892053 -33.08656086 3.402740409e-19)
(111.8944679 -28.73570052 -1.891551938e-20)
(107.345836 -33.75534703 6.383997474e-19)
(159.1866617 54.29370861 0)
(131.9590669 69.86453252 -3.910543754e-18)
(121.1526703 -29.81416521 -5.4046616e-18)
(117.4888333 -22.4706817 -1.139044594e-18)
(115.0067258 -15.59549622 -1.129451957e-18)
(119.6469839 -13.16675913 -1.384061775e-18)
(101.2524537 -31.74057132 -3.100664305e-18)
(114.8178476 -32.35716329 -2.002009753e-19)
(117.449391 -32.31173175 0)
(131.1795741 41.48550819 0)
(149.3350276 27.961024 7.502260114e-19)
(136.0484125 19.89298983 5.166827614e-18)
(117.8525741 -32.26241421 0)
(120.5377095 -32.11493665 -2.065470584e-18)
(121.71923 -23.05404808 -2.759353966e-18)
(123.6430686 -27.8588519 -1.104111668e-20)
(118.4100221 -28.46446959 0)
(129.9867813 -25.98412725 3.353154599e-18)
(124.4139304 -27.6944688 1.37284814e-18)
(123.0183607 -22.66946612 -7.897146603e-20)
(84.38744302 36.451422 -7.955390374e-20)
(127.8471178 45.77738333 3.893783847e-18)
(108.1133911 38.3197965 0)
(87.49426344 39.05462752 -1.021226383e-18)
(160.6699032 50.74311436 0)
(146.0557071 37.97617129 0)
(158.6970667 49.97997375 0)
(131.6760479 64.9858441 1.95502983e-18)
(156.4973996 52.90556547 0)
(143.1003094 40.44088867 0)
(153.9004985 -0.107522718 2.594868726e-18)
(154.1381024 0.7770591159 0)
(141.354332 -20.51393472 1.925117038e-18)
(141.8566713 -20.09516209 -3.832327825e-18)
(123.1012737 -31.60058339 2.473157431e-18)
(122.2036311 -30.05916716 -1.125095078e-18)
(126.9119912 -27.92688532 1.532898039e-18)
(125.8378717 -30.43222042 -2.386350525e-20)
(124.1579188 -31.3045063 -2.41257997e-18)
(125.3960002 -28.73046447 -3.342934314e-18)
(125.7338464 -30.30660295 2.602505679e-18)
(127.7219086 -27.69137023 -4.014029876e-19)
(111.7313727 -31.87722002 -2.398080551e-18)
(114.0471951 -32.27788408 3.008309417e-18)
(102.6639456 -32.07940353 5.430412068e-18)
(155.3564738 16.55784795 0)
(155.1917177 17.82579467 0)
(148.7240322 -12.10481493 0)
(149.1254864 -11.45876129 2.441021458e-18)
(148.4489002 -11.08451902 0)
(144.4543726 -8.525941365 -5.925265613e-20)
(145.9650025 -4.787890007 2.539857684e-18)
(141.941545 -12.87641256 -4.756908284e-18)
(143.8743203 -9.686862425 2.429055583e-18)
(148.0654796 -11.72924102 0)
(153.3247319 1.013983464 -1.858880159e-20)
(147.5414402 2.381511638 -5.421629151e-18)
(147.7180632 7.234467143 2.688171427e-18)
(146.3809091 -3.443005209 0)
(147.3361617 0.8591083351 4.330268893e-20)
(153.0966995 0.1323986776 1.195574188e-20)
(133.7430045 -25.10665686 1.515847224e-18)
(125.7179836 -28.48577984 7.359592604e-18)
(134.1859182 -24.84902197 0)
(123.7740567 -31.37482814 1.500542031e-20)
(121.0947236 -31.67965276 -1.028330296e-18)
(121.4226372 -29.0173695 -1.231652421e-18)
(120.8847914 -32.07655808 -2.424904586e-20)
(122.8498319 -31.7124221 -1.4781757e-20)
(98.28361689 -31.24774489 3.387196824e-18)
(110.9639179 -31.70000345 0)
(128.5478924 93.85216102 -1.137811198e-16)
(113.665468 -33.49471952 -1.730627507e-18)
(113.7054333 -33.14662437 2.375607551e-20)
(30.77022326 15.8171791 0)
(113.3377453 -32.94283887 -9.862477117e-19)
(112.1124711 -32.23503546 1.106769085e-18)
(69.76365077 50.02587616 -1.662949927e-19)
(126.6028118 69.34349763 0)
(104.0629475 57.12850011 0)
(78.07941004 56.91412325 5.452424974e-19)
(153.106219 -3.515415278 0)
(159.4144889 7.251142122 1.558142295e-18)
(158.4856329 4.000802555 -2.301229749e-20)
(155.0359929 4.504079776 0)
(139.351824 -21.99608047 0)
(139.9139231 -23.6753455 0)
(138.6174435 -24.54373772 -4.662682712e-19)
(145.3588384 -18.43313808 0)
(143.6105071 -20.00794834 0)
(143.845244 -18.33739047 -1.945327058e-18)
(155.6896266 11.86643023 0)
(159.6943634 11.66931023 3.631305103e-17)
(159.7217455 8.35946393 0)
(153.9915247 17.5165728 -3.593026566e-20)
(146.0801723 16.14055261 -2.637171189e-18)
(143.503091 21.71004852 0)
(147.6055049 8.948302832 2.685960717e-18)
(146.6419596 14.29056714 2.49834308e-18)
(154.153783 16.33162556 0)
(147.0665617 -14.59206183 -4.467373061e-18)
(147.6292632 -16.04974767 -5.527353742e-18)
(145.9429558 -17.87760808 0)
(150.8871282 -8.863361953 -2.125194948e-18)
(138.1067776 -24.84784194 0)
(136.5341417 -25.59228385 0)
(135.9842274 -23.95884839 -1.442966841e-20)
(134.1776219 -24.08008 1.467129787e-18)
(132.6905187 -21.45642486 -1.794562044e-18)
(135.0549597 -19.88621277 0)
(141.4832597 -19.59478902 2.680560312e-20)
(139.0060002 -16.45264202 8.007120556e-21)
(141.2380713 -13.8452139 2.284909209e-18)
(135.8513656 -19.28784818 -4.030363135e-18)
(138.2287817 -17.22973266 -2.149583825e-18)
(141.0062224 -20.01063912 0)
(120.6659723 -29.10314705 0)
(120.7116999 -31.72032106 3.075044237e-18)
(118.1675984 -31.66544569 0)
(100.0085826 -32.01649576 -5.882854679e-19)
(150.4112467 64.16387894 0)
(129.8481979 89.88421009 -8.966432163e-18)
(146.3214977 67.10133725 0)
(122.4703109 -29.35964412 4.72322466e-19)
(122.7341597 -29.2419774 -5.448049518e-19)
(113.2658918 -33.59518886 0)
(113.6691621 -33.50882864 0)
(100.8853367 -31.33448278 0)
(42.38129007 -4.155351231 0)
(38.40774141 14.55058433 -6.146494346e-18)
(45.72448913 -6.735651565 0)
(114.5253388 -32.00410299 0)
(115.6525149 -32.67049046 1.011132213e-18)
(119.4051625 -32.20411729 0)
(110.9179335 -31.80259969 0)
(110.0395244 -31.24024495 0)
(162.5624193 41.61863267 0)
(155.5805659 38.84392538 0)
(150.9695654 44.35570642 0)
(159.1303939 31.40700744 1.034864966e-17)
(156.7118229 36.95635272 0)
(149.1174621 46.15146902 0)
(142.5627965 50.90837063 -1.445977974e-20)
(148.150259 60.4584697 0)
(156.6405936 -0.8074072417 0)
(154.9397191 -3.581410461 0)
(153.2810807 -2.68003382 0)
(154.8302006 3.535416812 -1.241150812e-18)
(158.1242287 2.962030338 -5.16905509e-18)
(157.0172868 0.1093863643 2.005774823e-19)
(142.0704825 -22.0899951 -2.196138129e-18)
(140.431411 -23.32198154 0)
(139.8532738 -21.65721046 -3.628770359e-18)
(138.3777336 -23.74589735 2.258727048e-18)
(140.4587411 -22.50430528 0)
(137.5504005 -24.9049218 0)
(137.8191155 -24.10162904 0)
(141.0695434 -21.97706507 -1.322862179e-18)
(143.3538322 -18.7893893 0)
(142.9970411 -20.42764435 1.597363773e-17)
(142.5949755 -21.62339766 2.265218547e-18)
(122.9907485 -31.16124319 -6.156855546e-19)
(122.9787699 -30.92685831 -1.337058482e-18)
(125.3538716 -30.9864236 0)
(126.0748212 -29.67060712 1.234316273e-18)
(127.3140844 -29.41699496 1.281611904e-18)
(126.2827518 -29.52816844 8.035014793e-19)
(129.4593153 -28.76660575 0)
(130.7623049 -28.34639143 1.454855076e-18)
(127.7282525 -29.25846426 0)
(129.0249942 -28.90674912 0)
(126.2351121 -29.74631552 0)
(105.080881 -33.12279716 -7.236914123e-19)
(112.1467381 -33.47400816 -2.129034445e-18)
(113.0231383 -33.56593298 -7.513924637e-19)
(159.7135509 16.81776082 -6.924008861e-19)
(159.509196 12.94950789 5.859738452e-18)
(155.649333 12.99118006 0)
(160.8625496 13.25918022 0)
(161.5173994 17.18348724 0)
(160.6019542 11.76594864 -1.158860836e-16)
(160.5172489 24.39501632 0)
(159.786396 29.62962393 0)
(161.7018419 18.45766666 4.664806589e-18)
(160.6437311 22.86802359 0)
(154.4148388 21.63462664 -2.479646874e-18)
(159.0011647 22.57988555 0)
(159.7769034 18.225076 0)
(149.6799631 -13.38984807 -2.85090479e-18)
(148.1832557 -15.3999164 2.74209212e-18)
(147.4944932 -13.99018852 0)
(150.4356537 -9.52627077 6.77453259e-18)
(150.9341735 -10.84768722 8.545234408e-17)
(150.0998181 -12.70268488 2.939404152e-18)
(132.8732233 -27.53377241 3.048064672e-18)
(134.1535945 -27.02285329 3.347699712e-18)
(131.2103406 -28.19663189 -2.958224534e-18)
(132.4946683 -27.6699287 0)
(125.8896165 -27.81371161 -2.744020704e-17)
(135.7595111 -25.94396968 0)
(137.1980335 -25.2190666 0)
(134.5432413 -26.78937332 -1.239457254e-18)
(135.3519922 -26.18590834 0)
(109.2408357 -30.98480395 3.755112959e-17)
(121.9199425 -31.9591911 -1.088678543e-18)
(112.8334764 -30.97725836 1.459752686e-18)
(113.3892947 -31.59712109 0)
(113.0076905 -30.88408393 3.525617098e-18)
(122.2103995 -31.87384833 -4.532252889e-18)
(98.53229853 -31.66179827 -3.015302103e-18)
(123.714249 23.51786023 1.544293117e-18)
(117.7530115 12.22906255 -2.5413597e-20)
(111.4577701 13.11246925 -1.181541189e-21)
(104.6616678 -31.64074615 3.069140363e-19)
(104.9246478 -31.58141449 -3.594512223e-19)
(113.4506671 -16.00280353 0)
(104.1590451 -31.321317 0)
(117.6809568 -28.49437197 -2.009904354e-18)
(113.0870497 -27.80524477 -2.565590163e-19)
(113.0671077 -23.80956772 8.667533389e-19)
(55.29343153 64.28003881 8.085825882e-19)
(50.35341588 38.7248411 0)
(34.72734724 25.62755381 0)
(113.3103941 99.46197452 -1.012585083e-17)
(94.56865872 78.41537539 0)
(63.74651755 73.22235882 -7.453217909e-19)
(115.9151514 25.99475346 0)
(111.5200752 35.09310474 0)
(127.6773669 41.90484512 0)
(149.3959061 32.68933323 0)
(154.4810708 35.83322482 0)
(157.0622964 30.68105615 -2.616164883e-18)
(110.7440732 -33.18956765 0)
(111.7996485 -33.469859 1.967365649e-20)
(105.7943932 -33.28501177 0)
(117.3886483 -31.67887999 2.739741381e-19)
(115.0658672 -31.53560178 9.638287327e-19)
(115.4768988 -29.19487741 9.311496525e-19)
(157.7097879 29.00431805 1.334609364e-20)
(158.7867001 24.0995437 2.784185446e-18)
(154.0372004 22.92595442 2.489671118e-18)
(99.02903707 -32.17123837 1.086951972e-18)
(102.5933644 -32.91465115 1.075121802e-18)
(96.22608274 -31.45136808 1.476143015e-18)
(97.61300782 -31.73412372 -4.257994755e-18)
(110.3629428 -33.15207434 0)
(157.2930134 57.33585487 0)
(121.5859596 -29.64692729 0)
(107.597544 -33.12279415 2.377849969e-18)
(107.1462849 -32.85036171 8.82072298e-19)
(101.660936 -31.64610893 -8.494033156e-18)
(115.9711054 -33.2558513 2.824724509e-18)
(115.2381277 -33.3543687 1.68658215e-18)
(116.2815653 -32.21546478 -2.554456752e-18)
(142.2997774 23.53406427 2.397804346e-18)
(137.6383583 28.49538395 0)
(143.4816193 35.23749054 0)
(119.0250205 -32.27877674 9.827306764e-21)
(116.0134772 -32.87431249 -2.074212443e-18)
(116.0625061 -33.19485002 9.652733919e-19)
(117.1067224 43.26426162 0)
(109.0484785 53.56065208 0)
(127.3513264 64.78512031 0)
(160.3642192 47.20450588 -2.864435487e-18)
(157.6106587 46.06906175 5.961155644e-20)
(155.8975697 48.55791685 0)
(163.1337442 32.41251157 0)
(162.6391231 34.76596276 0)
(123.23868 -31.42718148 1.273933723e-18)
(120.0765279 -31.12111666 2.768959542e-18)
(120.2140611 -31.3491201 0)
(118.4994032 -29.64496021 0)
(119.3331381 -29.96043733 0)
(123.0364933 -30.42359136 0)
(124.4184364 -30.00196305 1.163226051e-18)
(125.6466345 -29.81131038 0)
(125.0588228 -31.07607103 3.686140843e-18)
(124.8667604 -28.98971729 -5.511999557e-18)
(128.8872741 -29.24471474 -3.611711228e-19)
(128.9983112 -28.97027201 -6.505803374e-21)
(104.0561589 -32.54617325 6.555333987e-21)
(108.8013137 -33.49122668 -7.805666965e-19)
(108.239451 -33.27378687 -1.208469367e-18)
(129.1822054 -27.30995381 0)
(129.7532211 -27.12901252 1.073070285e-18)
(129.2534329 -28.75420015 -3.254689049e-18)
(129.5608891 -28.54751113 0)
(126.2128054 -28.30467096 0)
(130.0544606 -26.91458582 -1.237927924e-18)
(129.4836471 -26.60484141 0)
(135.5186226 -24.24606069 1.613076086e-18)
(136.0555831 -25.80936865 4.837240372e-18)
(134.6995734 -26.31166265 -4.02220623e-19)
(99.0294257 -31.50644346 -2.320993768e-18)
(103.8792408 -31.82958142 -6.937739858e-18)
(104.3190753 -31.71287028 0)
(109.5599136 -32.40606078 -2.128618414e-18)
(109.8353199 -32.65594314 0)
(113.7821527 -33.32956465 2.874799572e-18)
(30.76912073 8.129673459 0)
(20.95545438 20.3809764 0)
(32.83294417 0.5736389298 0)
(112.8760362 -32.796565 -1.704944537e-20)
(107.1433085 -31.67037055 9.889174428e-19)
(108.4159903 -31.99487287 0)
(107.555782 -31.41574579 3.005320187e-18)
(107.5878781 -31.5286612 4.829313614e-18)
(112.5401091 -32.51743185 0)
(114.1056894 65.21433271 0)
(101.4636204 74.87415983 -3.199439975e-18)
(120.0708687 89.80085339 -6.951186312e-18)
(154.5211175 -5.05902886 0)
(154.8450466 -4.243633848 0)
(153.6937788 -6.64246771 5.592814264e-18)
(154.1066821 -5.852352485 2.708691197e-18)
(159.1064999 6.161100908 3.16736044e-18)
(157.8650313 6.146303415 0)
(158.1000603 7.230275742 -1.357888287e-18)
(157.3655319 4.047668328 0)
(157.6229971 5.086294707 -1.397856264e-18)
(158.801089 5.083907164 -5.628091622e-20)
(144.7716282 -18.99859303 -7.50876441e-18)
(145.8901293 -18.4218653 7.218452456e-20)
(146.3955188 -17.870568 0)
(144.8470617 -19.44563309 3.94876219e-18)
(145.3709648 -18.96000266 0)
(144.1498235 -19.54494515 2.441093169e-18)
(159.899186 10.60807697 -1.031311736e-17)
(158.3871722 10.71679672 0)
(158.2390216 11.87403769 1.03653293e-17)
(158.3078571 8.355066092 1.287884733e-18)
(158.4221303 9.528420295 2.568905505e-18)
(159.9187218 9.505914579 -2.865618226e-18)
(147.0865675 -16.65201707 5.314649094e-18)
(147.8413044 -16.10325219 -4.79481541e-18)
(148.3041499 -15.49875212 0)
(146.8932084 -17.307497 0)
(147.3750892 -16.70858446 -4.614133478e-18)
(146.5314559 -17.26943862 2.683098129e-18)
(152.9379036 -8.302242772 2.732570703e-18)
(153.3325171 -7.451096871 2.7521331e-18)
(151.9763569 -9.789382116 -1.855090686e-17)
(152.5138046 -9.083691113 0)
(93.84876407 -31.0283993 1.935338911e-18)
(95.38521839 -31.11706929 0)
(96.39125986 -31.38587673 -1.90985696e-18)
(101.6289736 -32.51317564 1.389648246e-20)
(93.12907545 -30.80938459 3.417805808e-17)
(153.3739441 66.46096933 0)
(156.6894657 61.87081308 0)
(154.4503407 60.772172 0)
(141.1467839 82.74999032 -2.947583369e-17)
(139.2602598 80.31982213 1.607515774e-17)
(130.752883 83.54343437 0)
(151.1591755 71.01062486 0)
(145.9577935 75.66549803 2.795610166e-17)
(121.9296509 -29.48633503 6.854843813e-18)
(122.1190418 -28.98264291 0)
(101.6677827 -31.57221025 -1.899603819e-18)
(106.6251686 -32.5765456 9.364720288e-19)
(105.2748805 -32.1494144 5.786412906e-18)
(39.78299573 -0.02858899209 3.547619493e-18)
(109.6333995 -31.48602502 -4.970099e-19)
(106.7502296 -31.14839219 4.412507643e-18)
(110.0648771 -31.34871066 -2.499887926e-18)
(160.5548207 40.98857786 0)
(159.0293238 43.62701211 -9.928865369e-20)
(161.5221443 44.71736382 3.803416789e-18)
(158.3687815 33.14461425 0)
(160.4457281 33.93357175 0)
(161.3959655 31.91731096 -1.360209553e-17)
(162.3113564 36.62249153 0)
(161.6447083 38.69565622 0)
(156.2145891 -1.676708283 -2.467666294e-18)
(155.6370514 -1.493176807 -2.853052474e-18)
(155.9129048 -0.6309858396 -2.886418128e-18)
(155.0677474 -3.386385941 1.678631171e-17)
(155.5442921 -2.306548683 0)
(155.8486955 -2.483225244 1.89633635e-18)
(157.7436801 1.995263734 3.193345943e-18)
(156.7834569 2.089115816 0)
(157.0828701 3.045023757 -3.55856377e-19)
(156.1916915 0.2541401216 -1.421858714e-18)
(156.4862659 1.161896546 -1.410461138e-18)
(157.382162 1.041927788 0)
(141.528524 -22.54028277 4.252327059e-18)
(141.7092749 -22.07392023 -1.985403945e-18)
(142.2613435 -21.64729328 -2.075664186e-18)
(139.0621744 -23.37985464 -2.329240944e-18)
(139.7627206 -22.98801939 -9.750453098e-18)
(137.4913467 -24.57663111 1.564699588e-17)
(134.9063979 -24.72575879 4.029790184e-18)
(135.2605225 -25.10045964 8.310008641e-18)
(137.150966 -24.41538194 -1.355012133e-17)
(141.4164306 -21.52329097 7.694558244e-18)
(141.1450096 -21.0636549 0)
(143.176717 -20.69366469 -1.737553842e-17)
(143.8730625 -20.30612156 2.028063608e-18)
(144.3569982 -19.90387982 -3.42898788e-18)
(142.8212459 -21.20775358 -2.964499687e-21)
(143.3704355 -20.75228033 -2.076425113e-18)
(143.0235289 -21.15717028 2.259713397e-18)
(118.1409727 -30.55534073 -5.745542997e-18)
(119.190659 -30.79294755 -5.296017233e-19)
(123.1510234 -31.26095338 -3.026721449e-19)
(115.2778685 -30.32218405 -2.199105187e-17)
(115.8246798 -30.68392123 7.146838384e-18)
(116.0477382 -30.58093662 -4.709684017e-18)
(123.1276153 -30.71090734 1.411740437e-18)
(119.1090865 -30.16298945 -1.678257783e-18)
(118.7072883 -30.37304596 1.503198582e-18)
(128.7231557 -29.58847343 -2.217085362e-18)
(128.8403697 -29.39573225 -1.443441611e-18)
(125.7049556 -29.21280432 1.228460475e-18)
(159.6032987 15.47155764 7.205733068e-19)
(158.119686 15.48638507 -3.431634616e-18)
(158.1309069 16.76527521 3.337709852e-18)
(158.1265591 13.00703731 -8.179527755e-18)
(158.1097186 14.23641721 3.423532941e-20)
(159.5306006 14.15880564 0)
(161.0816452 14.4861675 0)
(161.2687902 15.88082735 0)
(160.4117553 26.04241408 0)
(162.5599384 26.65855347 -3.447486233e-18)
(162.4739219 25.05287941 3.707458247e-18)
(162.1563327 30.11980692 1.088210142e-17)
(162.5491762 28.37715944 0)
(160.220852 27.79903353 0)
(161.6081207 19.73671766 -4.129091275e-18)
(162.4328816 23.61395131 -8.408158842e-18)
(162.6128402 21.4926109 -3.58958406e-17)
(161.1808472 21.1594373 0)
(149.202352 -14.08671718 8.553771652e-18)
(149.625986 -13.56722984 0)
(150.0338863 -12.89485948 -2.63162154e-18)
(148.7559693 -14.85937287 4.911747059e-18)
(149.1954148 -14.21347819 0)
(148.7026948 -14.74150257 -5.634650649e-18)
(150.8856876 -11.40475523 0)
(151.3296777 -10.92588333 2.646953809e-18)
(151.7906831 -10.2489914 -1.635703694e-17)
(150.4299963 -12.23457019 2.665522111e-18)
(150.8565395 -11.58850545 2.740315999e-18)
(150.51892 -12.03929057 -3.060179029e-18)
(128.3719512 -27.69784089 -6.243474246e-18)
(128.8058146 -27.49133782 7.091676724e-18)
(126.4856039 -28.13240243 0)
(129.6734475 -28.2857091 -8.706329805e-19)
(129.1877986 -27.93388773 6.581087657e-19)
(136.2087511 -25.69899027 0)
(133.5221379 -25.85769848 0)
(132.9218611 -26.09474338 0)
(134.8231057 -25.39440838 -1.188833118e-17)
(134.1461925 -25.63665821 2.250032661e-18)
(136.6934074 -25.47191846 0)
(134.8103246 -26.57839245 0)
(132.5073448 -26.685266 0)
(132.8770312 -26.97668625 0)
(132.4630207 -26.32816517 7.554501372e-18)
(131.8877179 -26.53321976 0)
(135.0471623 -26.43538656 0)
(112.5691899 -31.11111914 -6.429179459e-18)
(117.4259067 -31.96929216 2.223184845e-18)
(117.4400706 -31.79404815 2.449965692e-18)
(117.9792199 -32.34539594 0)
(117.6108141 -32.21176911 -2.695426877e-18)
(112.1241648 -31.28626075 9.369893024e-18)
(115.006595 -30.94959367 0)
(115.4837422 -30.80711334 -2.766289701e-18)
(117.2199079 -31.55540934 0)
(116.1910067 -31.20352726 0)
(112.1716141 -30.63124131 -5.090407445e-18)
(98.98741754 -31.58820142 -6.252838973e-20)
(99.88388882 3.618991541 -6.359561316e-21)
(99.99658709 2.112841139 -1.461188621e-21)
(99.95131416 3.647431205 1.63315522e-20)
(100.1966404 3.579828069 0)
(100.1038304 2.093301343 -6.393320994e-22)
(100.2547191 3.508394495 0)
(100.4237498 3.179988876 -2.05280818e-20)
(100.1816657 1.88203161 0)
(100.4489499 3.043556303 2.055714823e-20)
(100.5155365 2.595400737 -7.665666709e-21)
(100.2120142 1.559914919 0)
(100.5142061 2.442712813 2.155853896e-21)
(100.5027732 1.986779933 5.37145701e-21)
(100.2031448 1.208221755 -4.493729768e-21)
(100.4810241 1.841418477 -2.535051772e-21)
(100.4232813 1.441166916 0)
(100.1703292 0.8915187788 -1.112490426e-20)
(99.64695498 5.918634729 0)
(99.84076758 4.153861999 -4.645904202e-20)
(99.86143243 5.988690411 3.565237256e-20)
(100.5075 5.886256693 -2.82944085e-20)
(100.2558544 4.112925297 -2.596063108e-20)
(100.6956478 5.749974473 0)
(101.1154325 5.111899686 -2.990099208e-20)
(100.5556258 3.636595697 -7.846088899e-20)
(101.197769 4.84834843 2.25417288e-19)
(101.3012391 4.005314638 -1.372249891e-19)
(100.6688627 2.942738637 0)
(101.2958144 3.727306822 0)
(101.2143894 2.954968363 -1.108716018e-20)
(100.650248 2.241334728 -2.035785626e-20)
(101.1723908 2.723050622 9.461256134e-20)
(101.014267 2.089414914 -2.96505361e-19)
(100.5464832 1.616398332 -1.196772254e-20)
(99.06961673 8.88398376 4.002617063e-19)
(99.54818878 6.578814531 0)
(99.56370815 9.062939669 -2.41047398e-19)
(101.0759328 8.916614623 -1.719633886e-19)
(100.6196306 6.55558312 0)
(101.5120082 8.650545553 -6.014312233e-20)
(102.412426 7.422885563 -4.89366764e-19)
(101.3693829 5.647630971 0)
(102.5661676 6.935085273 -5.853399885e-19)
(102.6701525 5.452218696 4.990428994e-19)
(101.5797629 4.366971615 9.615231239e-21)
(102.616671 4.980171333 2.179173338e-19)
(102.3284057 3.754991851 2.060330734e-19)
(101.4490162 3.173546099 0)
(102.2096953 3.409622651 -2.15246544e-19)
(101.8516268 2.541217006 0)
(101.2041177 2.227516907 0)
(97.59269688 13.25813312 2.141075593e-19)
(98.81979529 9.799497127 -5.947355003e-19)
(98.7246802 13.75226002 -1.24586691e-19)
(102.2841323 13.40793029 -3.897470415e-19)
(101.2859173 9.860935499 3.525525498e-19)
(103.2322649 12.77005509 2.714401128e-19)
(104.8691751 10.17135034 5.792363375e-19)
(102.8830448 8.074466637 -5.786455319e-19)
(105.0600414 9.236205964 -5.969447175e-19)
(104.9194689 6.723930631 0)
(103.1336723 5.792517055 3.235735041e-19)
(104.7113443 6.011620011 0)
(103.9291713 4.262075799 -1.206314645e-20)
(102.6831483 3.919921254 -2.073572635e-19)
(103.6539951 3.797016057 4.865121305e-19)
(102.9059169 2.688820674 -2.563422285e-19)
(102.0956276 2.609723535 -2.316957409e-22)
(93.53901393 22.70008898 7.664228031e-20)
(96.93180774 14.76589546 3.218675747e-20)
(95.21356565 23.77448431 2.914205975e-19)
(106.3282858 20.82519395 -2.431596668e-20)
(102.8487346 14.91362401 3.930980122e-19)
(108.0515336 18.75936013 4.649419406e-20)
(109.7296551 12.74736293 0)
(105.79429 10.8775689 -7.9392876e-19)
(109.5675585 11.11264596 1.358270752e-18)
(108.2325677 7.270862655 1.647664504e-19)
(105.6432939 6.965014133 -2.590408286e-19)
(107.6570357 6.306023927 -2.962496896e-19)
(105.9498843 4.132054479 -7.778961578e-21)
(104.401675 4.30303521 5.024333255e-19)
(105.4312006 3.600173515 1.151815185e-18)
(104.1064628 2.404295681 0)
(103.1976926 2.663955538 -4.033478419e-20)
(90.73372377 35.59851146 1.187781451e-19)