/*--------------------------------*- C++ -*----------------------------------*\
| =========                 |                                                 |
| \\      /  F ield         | OpenFOAM: The Open Source CFD Toolbox           |
|  \\    /   O peration     | Version:  v2012                                 |
|   \\  /    A nd           | Website:  www.openfoam.com                      |
|    \\/     M anipulation  |                                                 |
\*---------------------------------------------------------------------------*/
FoamFile
{
    version     2.0;
    format      ascii;
    class       surfaceScalarField;
    location    "0.81";
    object      phi;
}
// * * * * * * * * * * * * * * * * * * * * * * * * * * * * * * * * * * * * * //

dimensions      [0 3 -1 0 0 0 0];
oriented        oriented;


internalField   nonuniform List<scalar> 
6464
(
0.4582634609
0.002058163826
-0.002084246697
0.4583518934
0.00206735328
-0.002009162542
0.4584289444
0.001910218188
-0.00179023621
0.4584726588
0.001652577454
-0.001495498433
0.4584832172
0.001347281259
-0.001198244293
0.458489121
0.001024123324
-0.0009479497852
0.4584611323
0.0008368175088
-0.0006922628706
0.4584677693
0.0005744935829
-0.001608841697
0.9186975608
8.636926562e-05
-0.0005250883253
-0.001006920291
0.9187480786
3.276705222e-05
0.9158103127
0.9138327671
-0.003407553524
-0.2289974369
0.2288125393
0.003592358002
-0.004171998784
-0.2291888125
0.2291541771
0.004206634203
-0.004024524066
-0.2293235969
0.2293978951
0.00395022585
-0.003557767687
-0.2294098602
0.2295609062
0.003406721756
-0.002916838676
-0.2294284788
0.2296051502
0.00274016727
-0.002268419967
-0.2293985092
0.2295618407
0.002105088416
-0.4588986148
-0.003252420785
0.460359145
0.001791890609
-0.0004562067435
0.4609891977
-0.001254162987
-0.459278828
-0.001392611302
0.9183402075
0.0002509177339
0.001499046838
-0.0008540486404
0.9182095159
0.0004185835153
0.9145376805
0.9142513506
-0.2276143754
0.02685834863
0.2271948452
-0.02644106565
-0.2224601806
0.02229860703
0.2201577103
-0.02000572091
-0.2237758192
0.01049443135
0.2198170904
-0.006545090175
-0.2302618052
-0.005912516116
0.2297698569
0.006403857191
-0.2303757871
-0.005405730233
0.2307203542
0.005061163163
-0.003789729768
-0.2303138597
0.231001592
0.003101997532
-0.4630272958
-0.0004351699458
0.4619225592
0.001539906501
-0.4601287085
-0.001616607682
0.4601772123
0.001568103966
0.0005549602372
0.9203224422
-0.001459127277
-0.00107806765
0.001852554625
0.9169119216
0.0008632475961
0.9155269875
0.9151145982
-0.2259031448
0.03447266406
0.2255149551
-0.03409100606
-0.2145722094
0.03201890949
0.2134271674
-0.03089571096
-0.2092357607
0.02539143102
0.2065191666
-0.02270410396
-0.2157980057
0.01203072757
0.2115037313
-0.007758523944
-0.2343492886
-0.001416292284
0.2367914774
-0.001026606522
-0.004145928026
-0.2319342961
0.231978263
0.004101961059
-0.4620074978
-0.006296631174
0.4633376211
0.004966507848
-0.4609780934
-0.003648895444
0.4620635674
0.002563421482
0.003491453724
0.9205821713
-0.001981258339
-0.001769924521
0.002383594028
0.9180197813
0.001101477387
0.9168091042
0.9162160756
-0.2245916373
0.01178702746
0.2243533521
-0.01155657178
-0.2131978564
0.01374274378
0.2145751608
-0.01514654605
-0.2021964573
0.01902281015
0.2023872111
-0.01925650564
-0.2120303523
0.02745984292
0.2039891418
-0.01945616964
-0.217296025
0.005979607154
0.213462057
-0.002167683153
-0.006027121804
-0.2334870595
0.2340924735
0.005421707764
-0.4651380601
-0.007391927993
0.4668831851
0.005646802936
-0.4631122987
-0.004358678925
0.4642035164
0.003267461175
0.004313541057
0.9228125661
-0.003644903002
-0.00289903285
0.002388741391
0.9199445809
0.001084822692
0.9181130229
0.9173008983
-0.2232638105
-0.03086064538
0.2229115126
0.03121149552
-0.225402197
-0.02012221933
0.2295721921
0.01593768367
-0.2145589376
0.003434544283
0.215968775
-0.004884793428
-0.197280549
0.007349819473
0.1976424734
-0.007763980169
-0.2049659929
0.005391158684
0.2032461831
-0.003712865613
-0.003364922106
-0.2329069516
0.2312821539
0.004983414908
-0.4684561846
-0.007677558795
0.4700572369
0.006076506538
-0.4649100933
-0.004881940877
0.4655736844
0.00421834979
0.00362771188
0.9254429042
-0.003017748983
-0.003240300958
0.001989211023
0.9215830818
0.0008317490475
0.9192704849
0.9181326473
-0.02682345023
-0.1088338112
0.1082442967
0.02741296472
-0.02182048172
-0.2487465904
0.04152411979
-0.02223157548
0.125209932
0.1260645958
-0.02410370016
-0.2268688965
0.2326292585
0.0183175607
-0.2022298915
-0.007415271561
0.2060857802
0.003504248339
-0.2018802977
0.00217869301
0.20147418
-0.001819378875
-0.001125272793
-0.2243984345
0.2230052176
0.002500595331
-0.4716682996
-0.006567529927
0.4727400237
0.005495805825
-0.4666761163
-0.004173966017
0.4677552706
0.003094811714
0.002130466689
0.9273330796
-0.001866279363
-0.002154362716
0.0010093742
0.9227041743
0.0003789003134
0.9199009588
0.9185115476
-0.02921998367
-0.1377097051
0.1404426982
0.02648699065
-0.02899405698
-0.2512527746
0.2564043805
0.02383048291
-0.2130743094
-0.01346801533
0.2153730798
0.01112216156
-0.20288537
-0.006206954272
0.2039400903
0.005099263007
-0.0002808162818
-0.2213529085
0.2208583599
0.0007541944983
-0.4741548793
-0.0039286083
0.4753072242
0.002776263391
-0.4686063883
-0.001979276416
0.4693032092
0.001282455495
-0.0002716225895
0.9282054391
2.687309199e-05
-0.0006276100168
-0.0004544664279
0.9228870181
-0.0002935714374
0.9197400638
0.9182179762
-0.01305737905
-0.1534534181
0.1540787518
0.01243204535
-0.0161261309
-0.2681656681
0.2703018965
0.01398470274
-0.2223079617
-0.00828865244
0.2239074366
0.006654914484
-0.2069387569
-0.002622196144
0.2078114823
0.001709004383
-9.940632738e-05
-0.2211914389
0.2212874263
-1.781324599e-05
-0.4766318945
-0.000136996432
0.4776362603
-0.0008673694339
-0.4696410536
0.001312518687
0.4697921896
-0.001463654621
-0.003165032053
0.9275269536
0.002224516498
0.001619001018
-0.002238280309
0.9219602664
-0.001164006379
0.9186657898
0.9170539698
0.004512637313
-0.1521210366
0.1512045438
-0.003596144502
0.0009489985674
-0.2702945472
0.268791986
0.0005495792765
-0.2256319474
-0.002130609581
0.225728752
0.002008186047
-0.2101477313
-0.0006853431986
0.2107079669
9.384194048e-05
0.00152176518
-0.2228139862
0.223202536
-0.001927216562
-0.4775640517
0.005008817013
0.4769279668
-0.004372732113
-0.4695257222
0.004110513309
0.4697271244
-0.00431191549
-0.006343711745
0.9252253666
0.00469601999
0.003949278755
-0.004160943632
0.9197774983
-0.00209936672
0.9166042129
0.9149546031
0.01419616213
-0.1429975651
0.141691896
-0.01289049299
0.01291978403
-0.260688502
0.2569414153
-0.009176817776
-0.223533146
0.001429253776
0.2244408588
-0.00235526768
-0.2119390545
0.002388070564
0.2123000936
-0.002769528958
0.004305946581
-0.2254111134
0.2258758832
-0.004780672539
-0.4758586378
0.009835980311
0.4744129421
-0.008390284651
-0.4697370687
0.007119938846
0.4685928469
-0.005975717069
-0.009270287264
0.9215684963
0.006732618413
0.006194539136
-0.006008578782
0.9165157898
-0.002952575571
0.9135482097
0.9120020275
0.01765823122
-0.1328339564
0.1315564298
-0.01638070456
0.01794172885
-0.2459576059
0.2421726195
-0.01415841535
-0.2210750018
0.009138483966
0.2173727219
-0.005442503392
-0.2127609818
0.002846356059
0.2126694988
-0.002768839333
0.006556107152
-0.2277257774
0.2282601034
-0.007094978634
-0.4726593398
0.01370662927
-0.0116783483
-0.4673479867
0.009922211217
-0.008415083222
-0.01183071857
0.007201923689
-0.007598810939
-0.00368972279
0.1564919282
0.01561425799
-0.155546515
-0.008006159244
-0.008553511999
-0.1386193432
-0.0324061559
0.1418055154
0.1542841937
-0.00268710837
-0.1552760522
0.002023607192
0.001655359726
0.1570757183
-0.006561017808
-0.007080151327
0.1441080741
-0.01347457235
-0.1454863818
0.007496613413
0.007356266692
0.153212364
0.002973363342
0.002611103658
0.133277712
-0.01742948205
-0.1345340264
0.0186857965
0.01558912028
0.1427151159
0.01915594225
0.131780001
-0.1055850491
0.1042938067
0.02951344113
-0.1352614137
-0.03287137061
-0.122458796
-0.02335031887
0.1239886331
0.04170465285
0.009067469562
-0.04138636838
-0.009385754025
0.02403844131
-0.06994471792
-0.0261500915
0.07205636811
0.01470972144
-0.1525488815
0.2797045646
0.02036264416
-0.2770895782
-0.02297772848
-0.2631366362
-0.03450591196
0.2686465543
0.04807576588
0.0007969777806
-0.04816238278
-0.0007103608784
-0.04483470686
0.003481888749
-0.002881775771
0.04423459389
-0.001903705145
-0.1529044398
0.2811656462
0.003128268022
-0.2820325412
-0.002261401385
-0.01781017658
0.2813885858
0.03885453619
-0.004243572886
-0.03920456009
0.004593596782
-0.04187209336
-0.001692127038
0.001238824085
0.04232539631
-0.01216958844
-0.144302549
0.2714965475
-0.01052118603
-0.2747600661
0.01378420882
0.002480332679
0.2796342376
0.07010685273
-0.01104552381
-0.07059642884
0.01153509992
-0.0737478408
-0.01012566402
0.07329150373
0.005362271375
0.005219729714
0.008155722038
0.03078869801
-0.007854056462
-0.03109036359
0.0637308377
-0.01146685149
-0.06415927379
0.01189528757
-0.0668270263
-0.01167000904
0.01203606624
0.0664609691
0.004032332551
-0.04519076851
-0.003676270905
0.008710603406
-0.008927980657
0.0419220301
-0.1504229554
0.02293888492
0.1525331312
-0.01229775616
-0.01275130457
-0.08157835364
-0.008331681862
0.08232205942
0.0162985795
0.04369353349
0.004187073834
-0.04384827477
-0.001510346475
-0.04140406534
0.001042318456
0.000146488014
-5.768906009e-06
0.04793504677
-0.07819567512
0.001925721206
-0.001898108923
0.07816806284
-0.0466823966
0.04650122369
0.0003276609174
0.04128647962
-0.001747967947
-0.04104885815
0.04338162247
0.003793799767
0.0008004897644
-0.04668590858
0.002627355165
-0.07831732047
-0.002505709815
-0.009934931669
-0.07423323789
0.005230335292
0.005189993465
-0.004113703148
0.004289714905
0.03867852444
-0.1495433759
-0.01035915896
0.1481978866
0.005969387152
0.005735261125
-0.07730082823
0.004098927744
0.07679182709
-0.007703629759
0.07353872559
-0.009486449324
-0.07398720793
0.04150849975
-0.001914147159
0.004086822346
-0.007432866231
-0.03921975409
-0.03897860314
-0.009145489742
-0.1507702064
0.005303879576
0.005068440721
-0.01157962624
-0.06727444869
0.01202704862
-0.01128225458
0.01166874182
0.06972036548
-0.0294685973
-0.007483550873
0.007053762151
-0.0298394221
0.008526546837
0.01171553652
-0.007458395906
0.03030867067
0.01267663157
-0.04299123572
5.933478889e-06
0.01887945378
-0.03529233506
-0.02083147585
0.03724435714
0.04541957799
-0.007707649575
-0.03754389627
-0.0001680321462
-0.01624023162
-0.1340232069
0.2549959967
-0.01735923688
-0.2595434093
0.02190579182
0.0165987082
0.2678168876
0.0389484352
-0.007456521493
-0.03129960691
-0.0001923067868
0.06480351138
-0.01328666645
-0.06538308043
0.006965432683
0.006900802818
-0.03330034143
-0.006645106969
0.006735526932
0.03320992147
-0.0699847622
0.07169766607
0.02232553744
-0.009342383537
0.01741684809
-0.08058534864
0.02504883141
-0.1478603277
-0.01363407303
-0.01397738611
-0.006691332766
-0.0334423722
0.006833363536
-0.03540567548
-0.006858276113
0.007308296284
0.03495565531
-0.1386239304
-0.01656189563
0.01794348162
0.1372423444
-0.07014110838
0.06967557392
-0.01081672011
0.06686224785
-0.01115771736
-0.06728415672
0.07310999399
-0.009696932419
-0.01067559234
-0.07051103985
-0.01609875048
-0.1400080544
0.01748287445
0.01884238925
-0.05233473186
-0.01760257457
0.05109491717
0.02395014398
-0.06795071427
-0.02594414762
0.03560969413
-0.121562134
-0.0184467938
-0.01974496896
0.06147842324
0.06266577938
-0.05593898161
0.0549735216
0.01980784926
0.03068801006
-0.0003793393926
-0.07791171742
0.02179439174
0.07970943004
-0.01167942156
-0.01191268279
-0.041311929
0.05635334468
0.01564659438
-0.03512786306
0.03669823702
0.01730907981
0.01445154045
-0.04308683787
0.02271435927
-0.07606447394
-0.0121795022
-0.01238210056
-0.04046019056
0.002533993062
-0.002527486852
0.04045368435
0.002221514145
-0.04076215355
-0.001919551156
-0.03948586579
-0.00322106433
0.003131003623
0.0395759265
-0.003454565254
-0.0397864438
0.003755143265
-0.006169139569
0.03634657429
-0.03540452018
0.005227085462
-0.009693008969
0.02209302848
0.03301955848
-0.07190316791
-0.01076363621
0.01114415175
0.07152265236
-0.03822832952
0.03637591355
-0.007840593003
0.03629584758
-0.006376241465
-0.03608874568
-0.0341252013
0.03816374975
-0.003810646704
-0.0002279017422
-0.006879752178
-0.03905622692
-0.01060681585
-0.07232378988
0.005547891117
0.005479546705
0.0628759394
-0.01299972486
-0.06336957463
0.01349336009
-0.01325276812
0.06426964921
0.006902205161
0.006884425129
0.01906549404
0.0289477399
-0.009064798736
-0.04305754406
0.006085374048
-0.005874324947
0.04284649496
0.006494252475
-0.04308207336
-0.006469723179
-0.03914921216
-0.0009790060275
0.0008659920253
0.03926222616
-0.001329693696
-0.03932341018
0.001503891718
0.03999493313
-0.00105365266
-0.04027097417
0.08028289225
-0.0004137187538
-0.08055716652
0.0006879930212
-0.08121576805
0.00151332079
-0.001336956048
0.0810394033
0.07912100782
-0.002652391361
-0.079433429
0.002964812546
-0.001004677001
0.001277511524
0.08001005773
0.03998378294
-0.0009678558322
0.04118252375
0.002359797882
-0.04132080749
0.08151000834
0.00511938817
-0.08152201156
-0.005107384946
-0.08131339379
0.007472757995
-0.007594253697
0.08143488949
0.002200711993
-0.08135613611
-0.002060343923
0.004371726696
-0.004348119436
0.08148640108
0.04130929091
0.002407225903
-0.03792935239
-0.004645611953
0.004823270912
0.03775169344
-0.001879347327
-0.03217614207
-6.971190513e-05
-0.004672121029
-0.03814818241
0.004890951044
0.006161638901
0.03645853528
-0.0063243266
0.006950752547
0.03488633878
-0.006641895733
-0.0351951956
0.06846727003
-0.01145010539
-0.06888549166
0.01186832702
-0.03589971803
0.007444795104
0.00549574718
0.03701246601
0.01929182057
-0.0002263265284
-0.01291602349
0.01326638692
0.03468512143
-0.03780384117
0.003118719731
0.03446530512
-0.007014202494
-0.03454072194
0.007089619309
-0.03213243547
-0.006980126434
0.006653909554
0.03245865235
-0.003916147726
-0.01275833749
0.01378346921
0.002891016016
-0.007691309154
-0.03310470534
0.008663579023
-0.03034463815
-0.007706142765
0.006447673886
0.03160310703
0.02469405604
-0.04805022801
-0.02301597616
0.02275130835
0.02362083979
0.01823532366
-0.03359136268
-0.01993629604
0.02623683907
-0.05774679333
-0.02780541292
0.05931536718
-0.05235558999
0.02729443682
0.02411328242
0.02564192681
-0.04529461126
0.00382317951
-0.005719366414
0.04719079817
-0.04052706792
0.03980327094
0.0008695439262
-0.0001457469477
0.03874361248
0.0005852152563
-0.03897907215
-0.0003497555938
0.04229603032
0.002618635735
-0.04290768695
-0.002006979109
-0.04025080982
-0.003689448796
0.003827970014
0.04011228861
-0.04222759715
0.003508315974
0.04261180187
-0.003892520691
0.03751494195
0.006904662614
-0.005971934258
-0.0384476703
-0.03712379042
0.03725346162
-1.011232608e-05
-0.0001195588664
0.04287425277
-0.003526042864
-0.03913269416
-0.0002155157515
0.04252129831
-0.002970927027
-0.04284641135
0.003296040071
-0.04343358836
0.0058932764
-0.006816857599
0.04435716956
-0.03936231748
-0.02747052068
0.05552473516
0.011308103
0.001829034542
-0.04216412771
-0.0001919747536
0.04236571801
0.006416464825
-0.04228793036
0.08018500819
0.01166880521
-0.07975002711
-0.01210378629
-0.07794068968
0.01411674129
-0.01480080928
0.07862475767
0.008298477048
-0.08113140664
-0.008480464194
0.01081229291
-0.01118928983
0.0805620051
0.0423471772
0.006103914851
-0.04015844415
-0.001137959736
0.0007533873877
0.0405430165
-0.03665132615
0.03674381392
0.00015734804
-0.000249835811
0.0001229063052
-0.0369770481
-0.0002696486261
0.04459601514
-0.002717556873
-0.04660975886
0.004731300587
0.003658167514
0.03818638338
-0.004329608948
0.002568183019
0.04140460446
-0.003502103932
-0.04047068354
0.03874691359
-0.004240237976
-0.03870265569
0.00419598008
0.07536116691
0.004562251045
-0.008615550159
-0.07597998882
-0.007322110852
0.07444619376
-0.07485156682
0.007727483908
-0.07605955382
-0.006437970112
0.006836616784
0.07566090715
0.03956391326
-0.003202455041
-0.03981602347
0.07765047316
-0.00457107002
-0.07806435977
0.004984956634
-0.00316775185
0.003491210175
0.07879754949
-0.006078870817
-0.07647604893
0.006495365923
-0.004980670135
0.005356218342
0.07727492495
0.03952544364
-0.003182594712
-0.01149545545
0.01185222963
0.06811049585
0.03462508414
-0.006597021466
0.06656746415
0.00668384639
-0.01291111343
-0.06703152988
-0.03826185342
-0.009511080173
0.0192036944
0.02856923919
-0.04056914296
0.01861900428
-0.01904986428
0.04100000296
-0.03098903718
0.04046194565
0.02521221296
0.01886839151
-0.03980513387
-0.0196324006
-0.02898521949
-0.002289142237
0.03145328184
-0.000178920114
-0.00614878709
-0.02261390481
-0.0002225275827
0.03349056436
-0.007325266468
-0.0336652603
0.007499962407
-0.007510218714
0.008066865479
0.03390865836
0.01978932731
-0.01952912276
-0.0002602045445
0.0149356074
-0.01808432097
0.002476216279
-0.01412097517
0.01350636852
0.002035961795
0.006670805085
-0.03158693843
0.0328699827
-0.007953849351
0.009336839233
0.03329393978
-0.008175488939
-0.03445529007
0.03408569976
-0.006782716922
-0.03440349137
0.007100508534
-0.04135444493
0.02034664602
-0.02117566785
0.02801268349
-0.0001662105504
0.03083176561
-0.03033733548
-0.000494430129
0.04489634256
0.01244858528
-0.04383484917
-0.01351007867
-0.04149145805
0.01316929151
-0.01394321933
0.04226538587
0.04659554133
0.011495047
-0.04462787728
-0.01346271105
0.01166537415
-0.01196699857
0.04519796698
0.01336915284
-0.04082325071
-0.01403736018
-0.03828438669
0.01418034122
-0.01502610418
0.03913014965
-0.04088193479
0.04209599341
0.01740494567
-0.0373907263
0.03653802915
0.001162171991
-0.0003094748472
0.02606979651
-0.0259910582
-7.873830422e-05
0.004345010599
-0.04291089403
-0.00672872783
0.00243673898
-0.001864991938
0.04172428328
0.03844989596
0.0005161844272
-0.0002224679013
0.0006328193165
-0.03785643758
-0.0001671080292
0.0004275043046
-0.03746717438
0.03885499628
-0.001815326198
0.001067861531
-0.002191332462
-0.04110412622
-0.003446102006
-0.04010212734
0.00329741952
0.03756469951
-0.03615089419
-0.0003459437874
-0.03411638921
0.03509412436
-0.0005502308525
0.03549193246
-0.03508818642
0.006500916578
0.04145946554
-0.0003864500494
-0.002160725026
-0.03182829558
-0.0001273685977
-0.003521455093
0.004384634613
0.04165811879
0.0507066966
-0.00762348967
-0.0002089541526
-0.003568808031
-0.03605909138
-0.03766800061
-0.007023137773
0.007612564844
0.03707857354
-0.005465302177
-0.03624491065
0.004042212218
0.03761583406
-0.006070973522
-0.03701016272
0.03590847093
-0.005988314239
-0.03600801841
0.00608786172
-0.03688238361
-0.005858312282
0.006283864219
0.03645683167
0.0339458965
-0.00691192856
-0.03318275503
0.03696519929
-0.005855178513
-0.03730784333
0.006197822555
-0.03804245599
-0.005351488874
0.005207220826
0.03818672404
-0.005809072703
-0.03711533612
0.006042025217
-0.005657363095
0.005649257796
0.03697330459
0.03600562304
-0.004348868784
0.007442982083
0.03251167312
-0.007638638984
-0.03231601622
0.03243092685
-0.007138714747
-0.03268029806
0.007388085956
-0.007369164406
0.007722481763
0.033137247
-0.002211884369
-0.0456713315
0.04382054192
0.004062673957
-0.008179889508
0.008624595546
-0.03980702351
0.005993075921
-0.04281012993
-0.006616534357
0.02743115228
-0.03537560206
-0.000235439731
-0.0417834702
0.03972068042
-0.0001490945898
-3.936840344e-05
0.04069127015
0.006066668989
-0.0433201721
-0.003437767033
0.009894706629
-0.01068928139
0.04739011609
0.005000086348
-0.04659249511
-0.0001910614425
0.009028271974
-0.008101603852
0.03976460202
-0.04216414886
0.007563893732
-0.007844234783
0.04244448991
-0.04240274243
0.04276397477
0.008667039628
0.00586562049
-0.04653686564
-0.03603601153
0.03634118485
6.576848435e-06
-0.0003117501684
0.0002282851703
-0.03646996219
-0.000409649122
-0.001019912452
-0.03981089334
0.0006723616356
-0.003211884241
0.005726128689
0.0420817707
0.02537098532
-0.0250638502
-0.000307135126
-0.0005702318644
-0.03540267001
-6.310965279e-05
0.03912158902
-0.005873307593
-0.0398410172
0.006592735776
-0.03775202989
-0.005143257837
0.004355701821
0.03853958591
-0.00518279243
-0.03762942769
0.004769764128
-0.00625660289
0.007398568604
0.0379796233
0.02308932324
-0.02270438584
-0.0003849373979
0.04149860388
-0.04013319749
0.001202776627
0.001973200989
0.03717689898
-0.006553888614
-0.03843863616
0.007240494878
-0.004259948694
0.003649821966
0.04210873061
-0.02089317773
-0.0002824901246
-0.03568300897
-0.006541919184
0.0062898318
0.03593509636
-0.0275169806
0.03066760528
-0.003037661033
-0.0001129636452
-0.009655925674
-0.04282419049
-0.006046380416
-0.02132210268
-0.0001484975086
-0.006935199641
-0.03596962155
0.007221812215
-0.03060247701
-0.0002163943289
0.02668462369
-0.1348808877
0.02894124158
-0.2559925798
-0.03608955492
-0.2344838535
-0.03092243489
0.2412867576
-0.02552833491
0.02847243313
-0.002724176231
-0.0002199219886
-0.01988759576
-0.005465217965
-0.0001755211862
0.02242430673
0.2505128229
-0.01958503795
-0.0003025578114
0.06649739028
-0.01130515147
-0.02150747985
-0.129251212
0.01146369581
-0.01762578236
-0.1292327503
0.01887041692
0.0168374017
-0.0203396511
-0.01593929079
0.0194415402
-0.02021059387
-0.009391530334
0.01858033448
0.01102178972
-0.006250529002
0.007113812101
-0.01362162058
0.02389486324
-0.02887115837
-0.03282754603
0.01869402827
-0.0266409991
-0.01943894745
0.02738591828
-0.02285163034
0.02146101078
0.01822802126
-0.1277135183
0.02835536264
-0.03032434736
0.129682503
-0.1243874911
0.1258276743
0.03416951091
0.02220137619
-0.06823599441
0.009925048342
-0.04045191501
-0.01021918006
0.04074604673
-0.04345212668
0.04393314489
0.01118435595
0.0456943014
0.01045132031
-0.04465057471
0.03129335511
-0.007035881629
-0.03150831507
0.007250841595
-0.007083569505
0.007477231843
0.03203726451
0.03156162465
-0.0085610317
0.006622353118
0.06609374948
-0.01279374541
0.06486733224
-0.01281503234
-0.06533896635
0.06527719227
-0.01162002941
-0.06569591327
0.01203875041
0.04612964355
0.009459364483
0.00737625269
-0.04371232613
0.007780309891
-0.04207222305
-0.007872235704
-0.02662174557
0.00556073518
0.00801431351
-0.02957462696
-0.008279108644
0.03595871122
-0.02768179855
-0.0002625991595
0.01786351249
-0.006960339279
0.007087822367
-0.05699980971
0.01457666896
-0.0005680949726
-0.0334888525
-0.003822080283
-0.0002329634831
-0.03293817193
0.03305800262
-0.007576352182
0.004870186925
-0.03114873084
-0.006659628011
-0.02618182321
-0.0002475967775
-0.03326415978
0.03326799597
-0.006983962619
0.03403101586
-0.006943541189
-0.03410167716
0.03292846232
-0.006624215648
-0.03302689294
0.006722646274
0.01489098691
-0.07716009176
-0.01567158482
-0.07431953723
0.01691262029
-0.01795092129
0.07535783824
-0.07673053737
0.07819693076
0.02032799835
-0.006694793008
0.007004885296
0.03377560747
0.03330043839
-0.007712641375
-0.007279660489
-0.03367580845
-0.06363845327
0.02218378779
-0.02312138923
0.06457605471
-0.06013350622
0.06092127093
0.02544907436
0.01694634975
-0.03383888915
0.0138006064
0.0430613993
-0.00050866102
-0.04371245255
0.0434467655
0.01406629346
-0.04278532007
0.01471946189
-0.02910449247
0.02920502187
-0.0001005293941
0.009578981249
-0.03850504214
-0.0001784315779
0.007189697805
-0.03546393696
-0.007130281022
0.03330751853
-0.03224564357
0.006127822845
0.003000961866
0.03553364212
0.02223056957
-0.0001375410907
-0.006416516116
0.02870402981
-5.694412238e-05
0.03401475411
-0.00741171174
-0.006045829235
0.03522102043
-0.03534395012
0.00616875892
-0.005942167692
0.006139298499
0.03571134012
0.0372257443
-0.006633048009
-0.007553743357
0.04606158408
-0.0003440909707
-0.03923455328
0.03827566589
-0.006594855968
-0.03829451744
-0.004750682537
-0.007480443302
0.005960887545
0.03046729565
-0.03219458615
0.03246955808
-0.007755415226
-0.008201382271
-0.0330823575
0.03511528142
-0.001806120368
-0.0002268035525
-0.03043048669
-0.002343032141
-0.0003088386656
-0.03645874232
-0.003715122453
0.002388471068
-0.0344753689
-0.004371844486
-0.02964307218
-0.0001445988205
-0.02358809618
-0.006559889434
-0.000282501073
-0.02338675846
-0.0002013377204
-0.004288511363
0.004429379892
0.03860604506
0.04161621293
-0.004471557168
0.03867195489
-0.005850006694
-0.03937583681
0.02555886224
-0.000306154133
-0.03259432193
0.0400805064
-0.007251999914
-0.0002341845466
-0.003819691459
-0.0003021973459
0.03039463286
-0.02920594127
-0.004983621849
0.03265407848
0.03365399924
-0.006178968736
0.01049867677
-0.00126803003
0.004552822481
-0.01036925711
0.01326027313
0.004570073921
0.005928602848
0.007456678255
-0.03322187419
-0.0073395094
0.04012740019
-0.03238903782
-0.0002816841181
0.02720644985
-0.02060567558
-0.0001531003896
-0.005027867129
-0.0001547208371
-0.006646634291
-0.0304992438
0.01606314949
-0.01674119163
0.03117728594
-0.02875728614
0.02946251736
0.01798879705
0.0233610551
-0.03045522904
-0.04566150473
0.04192290899
0.003916155354
-0.0001775596206
-0.05348098091
0.008141836839
-0.0003223606507
-0.0407057227
0.04034825154
0.0004353193377
-7.784817831e-05
0.001390512167
-0.0001733258737
0.0006250228655
0.03938126895
-0.0002030208717
-0.04470369317
0.04380680387
0.001521912156
-0.04579682843
0.001962679194
-0.0430134135
0.04235832405
0.001240304703
-0.0005262385082
0.001319628886
-0.0001240417021
-0.0001001471335
0.03780051911
-0.0004469103625
-0.04248890136
0.04331914448
-0.0009303902495
-0.04190146202
-0.0005975516614
-0.04417231397
0.04423601472
-0.003589743621
0.0009737139885
-0.00182688348
-0.0003584610555
0.009047850669
0.04649799172
-2.110723184e-05
-0.04556622069
0.04729307927
0.007320992091
-0.04270882992
0.00845071223
-0.04694928038
0.002981486488
-0.004583374869
0.004927173762
-0.0002495108618
8.214046641e-05
0.03675265471
-9.098126221e-05
-0.04042215333
0.04082035716
-0.0003160633593
-0.04001096241
-0.0002538428868
-0.04135945406
-0.0004191016609
-0.0002184450051
-0.0003206518923
-0.0004428383924
-0.04045053687
0.0415695364
-0.0007560327536
-0.0003629667784
1.476221214e-05
-0.0001170475374
-0.04496009318
0.05249708583
-0.007228500682
-0.0003084919624
-0.003247784472
-0.0001427723119
-0.01818603374
-0.0002109192371
0.01959226277
-0.0003885683683
-0.007799628844
-0.000289906937
-0.008805016617
-0.000322521247
0.03393550697
-0.05256412691
-0.000421244345
0.03463328388
-0.000697776907
0.01863347713
0.0400407027
0.0004212429527
-0.03563168702
0.0525684562
0.02310393352
0.02312100484
-0.03354047891
-0.0335000337
0.03318836569
0.0003116680052
0.01920049539
-0.0001320728841
-0.00178262866
-0.0002529420041
-0.02221537655
-0.0003985282588
-0.006148151643
-0.000244344262
-0.02971791614
-0.007578966344
-0.009166532505
-0.01373555163
-0.03336822326
-0.007733411598
-0.0002528100787
-0.0002590295581
-0.005178815691
-0.0001767240754
-0.04214875964
0.05776866681
0.01521185844
-0.01284063667
0.01413864253
-0.0001165728494
-0.0113161777
-0.04455256708
0.0112408675
0.0418842489
-0.04362144535
0.05762655971
-0.04617580663
0.007994418409
-0.000323653919
0.01206372694
-0.0004708667652
0.00283195222
0.03387227277
-0.0001661958313
-0.03881413371
0.03763703646
0.004009049467
-0.03977645801
0.002124496296
-0.03776094149
0.01034975709
-0.008086101498
0.007962196463
-0.0002048869363
0.0004707693715
0.03813443025
-0.0001553036591
-0.04172524016
0.04110568733
0.001090322193
0.001149268321
-0.04050469365
0.001361054951
-0.0005299456361
0.001130939325
-0.0002519529753
-0.001268920939
0.0001262778905
0.03999763933
-0.03928067777
-0.00227955421
0.04029131104
-0.03836574645
-0.00273025751
-0.03559574529
-0.0003018215154
-0.0002533273906
-0.0003753430333
0.02378637233
-0.04933104613
-0.009543512614
0.02403251496
-0.0002461426324
0.03096559035
-0.0004321588135
-0.007617179012
-0.0002544015836
-0.02475072226
-0.006969845851
-0.0001077274654
-0.02439349615
-0.0003572261145
-0.009626390225
0.03593959067
-0.04234550112
0.03938942544
-0.006670314548
-0.005732976065
-0.03800653274
-0.003928021744
0.00708934656
-0.00570645386
0.04429968229
-0.03642696144
-0.0002601559961
-0.009410851747
0.02146489047
-0.007796215166
0.02177384061
-0.000308950146
-0.02808258577
0.03128019367
-0.0001966460324
-0.0001809223176
0.003039798448
-0.005269954993
0.03202812398
-0.0002842957295
-0.0003566252433
-0.03635952178
-0.006606410873
0.03605400409
0.009336547501
-0.007420403391
0.003743309652
0.04172787549
-0.001650643228
-0.04374757488
0.04240903703
0.005081847506
0.00527300626
-0.04495790719
-0.04164560856
0.007561374185
-0.005175864978
0.00593929345
-0.003255013001
-0.03807115995
-0.0005594551029
-1.122757473e-06
-0.003007267907
-0.04588181452
0.005568910324
0.03914530613
-0.04178615695
-0.000366417083
0.03587107796
-0.0001635388657
0.04717089469
-0.0002336163697
0.005691082973
-0.000306345237
0.007199384549
-0.05607564468
0.009769859036
-0.0002867094595
0.02782941269
-5.993857652e-05
0.02817393853
-0.000344525839
0.01186289587
0.0001244246326
0.0364759903
-0.000259230081
-0.03886775857
0.03926162126
-0.000269438058
-0.03834326675
-0.0005179149696
-0.03958239827
-0.0002002789646
-9.143252293e-05
-0.000229344485
-8.540442019e-05
-0.007383864014
0.03295523363
-0.0002003842905
-0.0369220576
0.03663357535
-0.00709538177
-0.009488821969
-0.03760636997
-0.001307128649
0.002209568325
-0.00318236294
-0.0002378680544
-0.03914374525
0.04699191629
-0.007757358914
-9.081212787e-05
-0.003877058836
-0.0001514049968
-0.006355513863
-0.0001982350813
-0.03378117519
-0.007049707569
-0.009493644738
0.000531138721
-0.03872874378
-0.001935592434
0.0350044633
-0.03426639044
-0.0002069341465
0.03654020841
-0.0003329684828
0.03332534981
-0.0003865584684
-0.0006528563639
-0.0002881842633
-0.002204701159
0.009835298327
-0.04081176617
-0.00746216831
0.03490064981
-0.04845210995
0.03558125526
0.04048783896
-0.0002978085797
-0.007755999077
-0.0002082719117
-0.006459034638
-0.004092258153
0.03496894038
-0.0002090769434
-0.03509700665
0.03661283229
-0.005608083791
-0.03284029598
-0.005294371703
-0.03626191518
-0.008218827419
0.03482481692
0.007595265873
-0.007244348762
-0.0002599842389
-0.03561797629
0.04341707852
-0.007575660157
-0.000223442073
-0.004040194442
-0.0002975881787
-0.03171181506
-0.00717486134