/*--------------------------------*- C++ -*----------------------------------*\
| =========                 |                                                 |
| \\      /  F ield         | OpenFOAM: The Open Source CFD Toolbox           |
|  \\    /   O peration     | Version:  v2012                                 |
|   \\  /    A nd           | Website:  www.openfoam.com                      |
|    \\/     M anipulation  |                                                 |
\*---------------------------------------------------------------------------*/
FoamFile
{
    version     2.0;
    format      ascii;
    class       volScalarField;
    location    "0";
    object      k;
}
// * * * * * * * * * * * * * * * * * * * * * * * * * * * * * * * * * * * * * //

dimensions      [0 2 -2 0 0 0 0];


internalField   nonuniform List<scalar> 
3019
(
36.829
36.8288
36.8289
36.8308
36.9166
36.9183
36.9196
36.9223
36.9273
36.9363
36.9494
36.9642
36.6491
36.6493
36.6497
36.6537
36.7326
36.7401
36.7473
36.7947
36.8093
36.8345
36.8712
36.9127
36.4704
36.4708
36.4717
36.4776
36.5523
36.5656
36.5815
36.6335
36.6689
36.728
36.8118
36.8989
36.2934
36.2939
36.2955
36.3038
36.3749
36.3955
36.4239
36.4905
36.5645
36.687
36.8337
36.9653
36.1181
36.1188
36.1215
36.1328
36.203
36.233
36.28
36.3712
36.5144
36.7182
36.946
37.1667
35.9447
35.9457
35.9498
35.9649
36.0365
36.0795
36.1542
36.2883
36.5179
36.8148
37.1957
37.6472
35.7736
35.7753
35.7815
35.8012
35.8753
35.9352
36.0474
36.2413
36.5581
36.9901
37.6419
38.7869
35.6058
35.6085
35.6175
35.6431
35.7217
35.8023
35.9594
36.2187
36.6234
37.213
38.222
40.4652
35.4424
35.4464
35.4588
35.4914
35.5764
35.6809
35.8868
36.2085
36.6998
37.4278
38.6873
41.9011
35.2844
35.29
35.3065
35.347
35.44
35.5706
35.8257
36.2038
36.7759
37.6119
39.0194
42.2742
35.1326
35.1401
35.161
35.2103
35.3124
35.4703
35.7728
36.2027
36.8506
37.7801
39.3192
42.0615
34.9873
34.9967
35.0223
35.0808
35.1934
35.3789
35.7258
36.2058
36.9271
37.9526
39.6163
41.5804
41.7863
42.2762
42.107
41.6518
40.2008
38.9421
41.6443
41.1439
39.2448
41.6798
41.6703
42.2388
43.5111
44.4711
39.5419
41.4822
41.6634
41.9035
40.1009
41.9619
41.4477
41.3457
35.6292
37.8603
45.6926
46.8309
42.5773
45.4057
44.591
45.3392
42.2333
45.8312
44.6242
46.7814
45.9768
42.147
43.3512
42.2145
42.9969
41.3025
44.5414
43.11
37.9823
39.9844
41.845
39.093
36.7547
41.1852
39.219
35.492
41.305
34.15
36.6345
34.2811
38.5881
41.0409
39.914
41.163
44.526
42.1902
42.185
45.4344
45.8914
45.8658
44.7636
41.3501
51.0347
44.4814
51.0399
40.557
42.1987
36.8653
40.7546
40.392
54.4256
51.4908
46.3827
51.662
53.1187
48.4255
51.367
46.5737
43.9202
48.8136
43.7973
52.9007
49.6142
44.3432
52.0159
54.4581
45.3024
42.5118
45.214
46.5015
45.3155
48.0079
42.7902
44.9667
46.3814
42.2157
42.1041
43.9275
43.8363
38.1705
37.9918
40.2289
40.0991
40.2673
35.7876
35.6627
41.9757
43.9577
40.968
42.3057
42.0539
42.6199
42.3867
41.1213
41.1993
40.87
36.9937
42.6805
42.9026
42.6936
38.2286
38.6439
41.6493
39.0032
41.6017
41.3036
41.9672
41.6964
39.1459
38.7163
34.802
35.0837
33.6712
33.7801
37.1598
40.7945
37.5059
38.0875
35.1852
35.5097
39.5967
36.274
33.4635
33.6286
33.0981
34.94
49.6842
49.2519
46.9444
47.9755
53.3164
52.8612
52.5
49.1042
49.2963
48.3456
48.9653
52.7548
49.9301
49.0823
48.7614
49.2862
49.147
50.3854
51.9862
47.2373
48.1033
54.2316
54.4022
41.4641
45.2789
44.3377
46.0474
45.5053
41.7227
43.3387
42.8377
44.0812
43.5099
46.406
48.0168
47.54
48.6218
48.1719
46.7934
43.6856
46.7203
46.2167
47.378
46.8863
43.991
38.1979
37.7768
38.8537
38.3454
37.0981
36.7178
37.6391
37.2301
42.0214
41.5269
42.6751
42.1856
40.5056
39.1134
41.3604
40.7947
34.4151
34.7112
38.5896
34.0931
33.8461
34.391
34.1711
33.7753
37.3395
33.8189
34.2824
36.154
37.1288
40.6435
35.8153
35.1769
36.5924
36.1237
34.7332
34.4722
35.0884
34.8226
39.7221
35.6243
35.9997
33.2349
33.4044
36.1529
35.187
33.0906
33.1877
43.9543
43.351
43.2042
43.5064
43.394
44.0899
43.1491
42.968
42.8529
42.6603
39.9342
40.4458
40.6952
41.6923
43.4451
50.5644
54.1297
54.9572
51.9435
51.9483
51.2493
51.0807
48.8327
49.318
49.018
50.9004
50.7088
51.0595
45.9802
46.9431
51.6307
53.1411
56.3206
54.9478
55.4825
55.8933
54.48
40.9022
41.8588
41.6183
44.5169
44.2689
42.2405
39.8773
39.6639
41.3571
41.0896
45.6781
47.1274
46.8559
48.742
48.4739
47.5962
43.078
45.0198
44.7666
46.5859
46.3183
44.6286
39.3549
39.7863
42.5504
41.7629
38.7846
39.2122
42.5926
43.0425
44.1976
38.3166
38.1423
39.4633
39.263
37.1654
37.973
37.8087
43.547
41.9279
42.4399
34.8922
36.275
36.1641
33.7082
34.1699
34.0703
34.4022
34.2783
33.7448
32.9342
32.9291
33.5226
33.7942
33.7053
33.9764
33.8847
33.5787
32.9557
32.9412
33.0101
32.9943
33.3021
50.1176
48.6417
49.7845
51.6594
56.7377
57.3585
53.4186
55.9784
58.3761
53.7491
52.3982
50.0249
49.6536
49.1883
50.7396
50.5069
50.2895
56.5755
56.5029
53.8685
57.7818
58.0687
54.471
56.2602
56.5078
43.3756
42.8044
41.2132
41.9805
44.0177
43.7407
40.3351
40.1014
40.8296
40.578
47.6654
47.3963
46.0371
47.1912
48.2057
47.9359
45.5368
45.2774
43.3781
44.302
46.0543
45.7948
38.0548
36.7729
36.9124
36.4989
36.6359
37.9152
38.6639
37.3642
37.5247
37.0565
37.2068
38.4992
36.9688
35.7242
35.8421
35.4975
35.6101
36.8424
37.5019
36.2261
36.3621
35.9648
36.093
37.365
38.6807
38.496
41.8569
40.3481
40.5237
40.0006
40.1737
41.6921
39.0642
38.87
37.3501
37.228
40.0644
38.5551
39.0038
37.6832
37.8393
39.5127
41.1901
39.6555
39.8283
39.278
39.4778
41.0082
37.65
37.4967
34.5206
35.811
35.6592
36.0526
35.9369
34.6176
34.0099
33.9259
34.3144
34.2442
33.749
33.9025
33.8763
34.81
34.5649
35.4517
35.1434
34.0924
35.369
35.0725
35.0084
35.2677
36.4628
35.2757
35.3857
35.0723
35.1704
36.3182
34.6443
34.557
35.0002
34.9117
33.2886
33.4526
33.374
33.6185
33.5342
33.3458
33.12
33.1615
33.0906
33.2992
33.2286
33.1481
36.6724
36.6926
36.8037
36.7013
36.7356
36.8252
36.7498
36.8005
36.8585
36.8192
36.8771
36.8997
36.8947
36.5242
36.5674
36.6582
36.5862
36.6594
36.7108
36.6894
36.7885
36.7894
36.8213
36.9129
36.8793
36.9394
36.3982
36.4841
36.5421
36.5216
36.6564
36.6519
36.7045
36.8556
36.7974
36.907
37.0543
36.9357
37.098
36.3055
36.4533
36.4707
36.513
36.7096
36.6648
36.7829
37.0283
36.8877
37.1174
37.3963
37.1156
37.487
36.2501
36.465
36.4535
36.5451
36.8284
36.7334
36.94
37.3453
37.092
37.5107
38.1399
37.5324
38.3998
36.2228
36.4991
36.4717
36.6055
36.9954
36.8669
37.1559
37.7881
37.4481
38.0782
39.6902
38.429
39.1982
39.9058
38.9447
36.2104
36.547
36.5101
36.6805
37.1726
37.0405
37.3771
38.1999
37.9012
38.3564
38.792
38.6212
40.7167
41.391
41.0665
36.2046
36.5991
36.5599
36.7571
37.3321
37.2144
37.5682
38.5055
38.2847
38.7778
39.2999
39.1947
42.0087
42.9467
42.8265
36.2026
36.652
36.6122
36.8319
37.4771
37.3692
37.7384
38.7657
38.5721
39.0952
39.6732
39.584
42.2682
43.0697
43.1415
36.2047
36.7073
36.6656
36.9076
37.6214
37.5127
37.9083
39.0314
38.8305
39.3934
39.9961
39.9213
42.0121
42.345
42.518
36.7217
37.6587
39.1014
39.6939
40.381
40.201
41.5055
41.2072
41.4546
42.696
42.551
41.659
43.161
43.2003
42.274
42.5724
42.7256
42.148
41.5328
41.756
41.7195
41.8556
40.2876
39.4239
39.1786
40.1449
39.4923
39.3981
38.8621
41.5007
39.9183
40.089
39.6739
39.8601
41.4217
39.8425
39.7597
39.1702
41.7062
40.3331
40.4452
40.1425
40.2894
41.7064
42.9407
43.0413
42.2567
43.6659
43.6669
43.5605
44.2165
44.134
44.3479
40.1356
40.0673
39.4676
41.572
40.5855
40.6511
40.4778
40.5602
41.598
42.0956
42.2845
41.9592
40.4549
41.5914
41.4408
42.446
42.306
41.7678
40.6721
40.7082
41.336
40.852
41.1207
41.4298
36.2079
38.7135
38.6857
39.9109
39.7244
37.4929
45.9445
47.7658
46.9659
48.2342
48.4198
46.8213
42.9976
43.4735
42.9395
46.5531
46.1382
45.0834
44.9353
43.627
43.5391
43.7647
43.6551
45.0424
42.264
43.1982
43.0423
45.6814
45.768
46.1902
43.7762
44.2177
44.8751
46.7056
47.8258
48.1429
46.3245
46.7213
46.1177
42.3275
42.7147
42.582
43.4497
43.3352
43.1881
42.184
42.7729
42.9022
42.883
42.3725
42.5124
40.549
40.6806
41.4193
44.284
43.1908
43.6307
42.6599
42.8135
43.2254
38.371
40.2747
40.094
41.2871
41.1308
39.6358
41.7838
41.8269
42.0305
38.9672
37.7919
37.9175
35.3417
35.4549
36.8782
41.0629
40.2739
40.4147
38.0436
38.1699
39.345
38.6122
40.7582
34.0388
33.0209
33.1142
36.5148
35.1262
35.2333
33.2196
33.3482
34.4515
39.0778
38.9446
38.4784
40.6594
39.3745
39.607
39.0007
39.2877
40.5001
41.9592
41.6926
40.9516
43.6606
42.3208
42.7878
41.7686
42.1524
43.3141
43.0482
43.0239
42.108
45.6906
43.8391
43.7892
43.6801
43.8351
45.7617
45.5118
43.3595
43.6091
42.9207
43.2651
45.3506
41.5147
42.384
42.1885
45.124
45.938
44.9702
54.0377
53.1254
50.119
40.7105
41.5727
41.0194
41.4093
40.5677
43.38
41.7697
41.2661
39.142
38.9321
36.41
40.6362
39.9777
40.1357
39.656
39.8159
40.5152
48.3647
47.9568
46.1732
51.4192
51.6312
53.1265
46.7335
48.4506
48.4338
44.6655
44.083
43.4635
46.4023
45.0188
45.6606
43.4783
44.1885
45.5948
52.5943
50.6523
51.0588
47.9304
48.5131
50.4443
44.7307
45.6902
45.2011
45.031
45.6084
45.5305
44.9573
44.3672
44.8461
47.3543
47.7121
46.6107
46.253
46.8509
47.2308
41.5919
41.7209
42.3282
41.9904
41.3328
41.4626
43.7055
43.8156
44.0194
43.7416
43.4804
43.594
36.9814
37.1465
38.3227
37.7809
36.4908
36.7697
39.0966
39.2808
40.3612
39.9724
38.8044
38.9418
39.5004
34.4907
34.595
35.91
35.53
34.2761
34.3857
42.484
42.7936
41.8823
41.7387
40.5759
42.2232
42.09
42.1994
41.8655
41.9787
42.1393
42.544
42.5187
42.6213
42.3072
42.4137
42.4662
41.5678
42.1631
42.0226
41.0923
40.5829
40.725
40.2885
40.4374
40.9825
37.3691
39.5343
39.3408
42.9718
42.8446
42.5052
42.835
42.9136
43.0061
42.7212
42.8186
42.7653
38.3665
39.6726
39.5319
39.953
39.8126
38.5045
41.5338
40.8113
40.9418
40.6337
40.455
38.5205
41.5047
41.1325
41.2629
40.8637
40.9994
41.4053
41.8789
41.633
41.7503
41.3898
41.513
41.7887
39.5187
40.9709
40.806
37.5428
37.6671
38.8418
36.5034
36.3881
34.9859
37.0101
35.5785
35.7259
39.9393
40.1192
40.9351
37.7543
39.0546
38.8279
39.3875
39.2331
37.9356
35.2901
36.7395
36.6206
36.981
36.8596
35.3983
39.471
38.2962
38.4224
34.9121
35.0191
36.3948
34.6776
33.526
33.7517
48.7091
47.3049
45.9522
45.9124
47.5739
49.0822
51.8402
50.1404
51.545
51.4054
52.2284
49.2083
50.3457
50.3535
50.2226
50.2984
49.2703
48.5822
50.013
49.7317
50.3119
50.2062
48.7907
52.9771
51.6947
51.6502
48.9975
49.5016
49.6738
49.0988
49.3039
48.8891
49.2501
50.029
50.1313
49.8044
49.9195
49.2019
49.9093
50.2745
52.2903
47.5299
48.6629
48.3056
49.3841
49.0162
47.8136
44.9927
44.1248
44.5817
43.0895
43.5298
44.654
45.8758
45.3588
45.5696
44.8943
45.1397
45.6982
43.1697
41.7762
41.9657
41.4072
41.5896
43.0026
43.8714
42.5574
42.7876
42.1577
42.3534
43.6855
47.8597
47.8707
48.0771
47.4541
47.6632
47.7008
48.4754
48.691
48.8944
48.2827
48.4873
48.325
46.5531
46.1977
46.4077
45.7786
45.9877
46.3851
47.2149
47.0347
47.2444
46.6168
46.8255
47.051
42.5126
41.0546
41.2311
40.7
40.877
42.3493
38.4598
37.2873
37.4173
35.9214
36.1852
37.553
36.364
37.8914
37.6682
38.528
38.1893
36.6862
40.4864
39.4971
39.7277
38.5484
38.6749
39.8471
35.7428
37.2286
37.1037
37.4996
37.3583
35.8666
36.0315
34.6998
34.8056
33.9861
34.15
35.3778
43.8659
43.7687
43.8135
43.3051
43.5717
43.6387
43.4267
43.501
43.2562
43.4715
43.8199
43.8745
43.7023
43.7626
43.434
44.2209
44.0483
43.959
43.0913
43.2675
43.3487
43.0961
43.1833
43.0309
43.0221
43.2173
43.0962
42.1076
42.2385
42.7722
40.0874
41.3726
41.2259
41.6974
41.5272
40.2528
41.0204
42.1147
41.8931
42.5473
42.3419
41.3819
43.3363
42.9657
43.109
46.3101
47.0639
46.5785
47.9322
47.5156
46.6286
51.141
49.0557
49.5176
39.4977
40.8001
40.6593
41.0827
40.9411
39.6412
42.4387
41.8495
41.9783
41.0722
41.2026
41.8776
38.9267
40.2353
40.0939
40.5182
40.3769
39.0695
42.7436
43.4179
43.2868
43.6765
43.5477
42.8934
44.108
43.9244
44.032
43.2409
43.3636
43.6468
42.1169
42.8768
42.723
43.1541
43.0184
42.2833
36.8288
36.83
36.9188
36.832
36.8366
36.9208
36.84
36.8448
36.9244
36.8512
36.8598
36.9312
36.8707
36.8838
36.9424
36.8988
36.9148
36.9569
36.9302
36.9433
36.9705
36.6422
36.6492
36.7381
36.6524
36.656
36.7424
36.6635
36.6666
36.7914
36.7531
36.7566
36.7968
36.7717
36.7778
36.813
36.8035
36.8131
36.8404
36.8496
36.8618
36.8787
36.9015
36.9125
36.9195
36.4633
36.4732
36.561
36.4798
36.488
36.5712
36.5015
36.5123
36.6264
36.5958
36.6046
36.6408
36.6387
36.6536
36.6812
36.7102
36.7333
36.7471
36.8102
36.8368
36.835
36.9072
36.9268
36.9169
36.2884
36.3018
36.3866
36.3132
36.3275
36.4064
36.3498
36.3764
36.4765
36.4584
36.4763
36.5056
36.5464
36.577
36.5902
36.6894
36.7296
36.7239
36.8516
36.8914
36.8693
36.9994
37.0293
36.9919
36.1192
36.1368
36.2184
36.1551
36.1792
36.2518
36.2147
36.2688
36.3463
36.3469
36.3797
36.3998
36.5104
36.5637
36.5625
36.736
36.7978
36.7733
36.9937
37.0606
37.004
37.2519
37.3071
37.2129
35.9552
35.9786
36.0569
36.0062
36.044
36.1099
36.0984
36.1927
36.2467
36.2734
36.3278
36.3368
36.5249
36.5982
36.5852
36.8519
36.9496
36.9018
37.2869
37.4159
37.3044
37.8453
37.9901
37.7559
35.7975
35.8281
35.9021
35.8673
35.9223
35.9813
36.0012
36.1438
36.1782
36.234
36.3111
36.313
36.5726
36.6742
36.6521
37.0434
37.1943
37.1264
37.7826
38.0471
37.8636
35.648
35.6873
35.7565
35.7402
35.8152
35.867
35.9215
36.1128
36.1347
36.2153
36.3117
36.3106
36.6421
36.7749
36.7485
37.2694
37.4792
37.4092
35.507
35.5562
35.6205
35.6244
35.7207
35.7665
35.8551
36.0909
36.1067
36.207
36.3208
36.3181
36.719
36.88
36.8542
37.4765
37.7287
37.6711
35.3749
35.4351
35.4944
35.5193
35.6371
35.6777
35.7983
36.0737
36.0861
36.2031
36.3334
36.33
36.7946
36.9797
36.9553
37.6546
37.9359
37.8865
35.2518
35.3234
35.3779
35.4237
35.5625
35.5988
35.7487
36.0606
36.07
36.2031
36.3498
36.3453
36.8694
37.0767
37.0524
37.8222
38.1301
38.0812
35.2704
35.5279
36.0578
36.2073
36.3708
36.3651
36.9467
37.1761
37.1508
37.998
38.3369
38.2832
40.719
40.3566
39.9341
39.41
39.7292
41.6094
41.0046
41.0612
40.5397
40.6259
41.2406
41.6927
41.2516
41.2583
41.1086
41.148
41.689
41.5142
41.2457
41.2383
41.2618
41.2632
41.644
40.218
40.8302
40.7299
41.229
41.2182
41.411
35.7944
37.07
36.9416
38.8371
38.7232
37.7385
44.7083
44.3738
44.2962
44.8023
44.7358
45.2406
44.5544
44.6566
44.7086
44.4558
44.3483
44.4518
38.106
39.0639
38.9498
40.6304
40.5292
39.8681
36.8149
36.691
35.3707
41.236
40.9277
40.3511
40.449
39.5684
39.721
40.1258
44.2642
43.6221
43.836
41.9947
42.3023
42.5495
45.5254
44.9249
44.8655
45.0776
45.108
45.8674
45.7834
44.9014
45.0022
44.0323
44.2126
44.9791
42.4786
42.0665
41.8559
37.9069
37.7825
36.7306
48.0353
46.8026
47.3593
43.7385
44.1363
44.2893
45.3599
45.4504
45.4005
45.126
45.164
45.2635
44.2589
43.6892
43.5104
41.4018
41.3128
40.8295
41.2985
41.5488
41.4822
37.1198
38.1453
38.0266
39.7907
39.669
38.8467
39.2765
40.0155
39.9052
36.6783
36.717
36.7123
36.7285
36.7224
36.6849
36.8009
36.7611
36.7657
36.7114
36.7437
36.7356
36.7634
36.7531
36.7227
36.8204
36.7857
36.7935
36.7655
36.7878
36.7751
36.8165
36.8017
36.7823
36.8516
36.825
36.8362
36.8388
36.8481
36.832
36.8802
36.8642
36.8579
36.8921
36.8758
36.8881
36.9112
36.9095
36.8954
36.922
36.9253
36.9305
36.9237
36.5369
36.5699
36.5593
36.5954
36.5818
36.5511
36.6489
36.6144
36.6258
36.6077
36.629
36.611
36.6721
36.6492
36.632
36.695
36.6704
36.6894
36.7218
36.7248
36.6972
36.7839
36.7537
36.7551
36.7674
36.7578
36.7838
36.8533
36.8427
36.8137
36.8965
36.8703
36.8839
36.8574
36.8617
36.8856
36.9633
36.942
36.9204
36.9605
36.9838
36.9322
36.9436
36.4229
36.4487
36.4276
36.5004
36.4728
36.4515
36.5225
36.4964
36.5196
36.5637
36.5682
36.5321
36.6513
36.6083
36.6093
36.6193
36.6115
36.6494
36.754
36.7395
36.695
36.8303
36.7847
36.8044
36.7606
36.7702
36.8111
36.9578
36.9206
36.8758
37.005
36.9639
37.0072
36.9034
36.9297
36.966
37.1374
37.0771
37.043
37.1063
37.1711
37.0147
37.0549
36.3483
36.3626
36.325
36.4556
36.4059
36.3977
36.4326
36.4174
36.4612
36.575
36.5678
36.5102
36.6904
36.6273
36.6401
36.6131
36.6189
36.6762
36.8606
36.8269
36.7573
36.974
36.8993
36.9426
36.83
36.8616
36.9271
37.2093
37.1287
37.0507
37.2838
37.207
37.3029
37.0609
37.1269
37.1912
37.5713
37.4245
37.3571
37.4829
37.645
37.2525
37.3546
36.3161
36.321
36.2608
36.4598
36.3882
36.3889
36.3922
36.3892
36.456
36.6318
36.6138
36.534
36.7931
36.6998
36.7259
36.6567
36.6767
36.7613
37.0624
37.0032
36.8938
37.2509
37.1219
37.1968
36.994
37.0541
37.1663
37.695
37.5454
37.3919
37.8969
37.7138
37.9033
37.417
37.5529
37.6971
38.6762
38.2903
38.093
38.4654
38.9164
37.8516
38.1195
36.3099
36.31
36.2278
36.4889
36.3976
36.4022
36.391
36.394
36.4797
36.7227
36.6979
36.5885
36.9511
36.8181
36.852
36.7546
36.7855
36.908
37.3374
37.265
37.0989
37.672
37.4539
37.5454
37.278
37.3642
37.5577
38.4384
38.2424
37.9298
38.9994
38.6287
38.8978
38.1229
38.3687
38.7665
39.5609
39.4082
39.7082
36.3157
36.3135
36.2126
36.5343
36.4198
36.4267
36.4074
36.4133
36.5219
36.828
36.8015
36.6612
37.1295
36.9566
36.991
36.8868
36.9218
37.0854
37.6104
37.5463
37.3242
38.1077
37.8037
37.8807
37.6353
37.7218
38.0081
36.3267
36.3237
36.2057
36.586
36.449
36.4569
36.4339
36.4414
36.5729
36.9306
36.9055
36.7381
37.294
37.0897
37.1211
37.0247
37.0576
37.2548
37.8359
37.7835
37.5232
38.4363
38.0834
38.1439
37.9526
38.0199
38.3631
36.3411
36.3371
36.2027
36.6387
36.4814
36.49
36.4649
36.4731
36.6254
37.0282
37.004
36.8132
37.4414
37.2122
37.2421
37.1519
37.1822
37.4055
38.0328
37.9845
37.6966
38.7014
38.3144
38.37
38.202
38.2586
38.6371
43.0959
42.7615
42.7444
42.7894
42.7752
43.1197
36.3597
36.3546
36.2037
36.6932
36.5171
36.5266
36.4988
36.5078
36.6793
37.1258
37.1011
36.8884
37.5847
37.332
37.3625
37.2719
37.3018
37.5485
38.2309
38.1799
37.8648
38.9631
38.5407
38.6001
38.426
38.4828
38.8961
42.4042
42.2758
42.2312
42.3595
42.3174
42.4618
36.5365
36.5466
36.7364
37.3935
37.4248
37.6968
38.6613
38.7242
39.1729
41.2918
41.4469
41.3827
41.5685
41.5074
41.3742
42.6253
42.4377
42.3984
42.5101
42.4737
42.6762
41.6091
41.6838
41.6259
41.7935
41.7383
41.6834
40.9754
40.8294
41.2845
40.0427
40.4149
40.7098
39.6715
39.9994
39.6575
39.4679
39.5954
39.2817
40.3239
39.9381
39.7868
40.0856
40.4924
40.8668
40.9398
41.5631
40.5375
40.4772
40.0332
41.3333
40.7084
40.7891
41.2264
41.2414
41.7017
40.3733
40.7989
40.768
40.8487
40.8259
40.4112
40.1941
40.644
40.5934
40.7313
40.6903
40.2431
41.7008
41.1802
41.2064
42.9768
42.685
42.6599
42.7272
42.7062
43.0103
41.2566
41.2519
41.5441
40.6078
40.94
40.9287
40.9596
40.9506
40.6309
40.5068
40.8863
40.869
40.9159
40.9021
40.5352
41.6221
41.2623
41.2602
42.1597
42.0947
42.046
42.1874
42.1405
42.2226
41.0277
40.9287
40.3358
40.6878
40.9735
40.9677
40.9809
40.9776
40.6937
41.3728
41.2064
41.1933
40.9432
41.1947
41.1295
41.3196
41.2538
41.0322
37.3507
37.1902
35.9922
38.169
38.3835
38.7353
37.616
38.6094
38.4942
47.5395
46.8752
47.016
46.6211
46.7429
47.2761
48.3128
47.7127
47.661
47.7707
47.7492
48.3751
44.5238
44.4496
44.8233
43.5991
44.0277
44.0771
43.9269
43.9778
43.5699
43.732
44.2266
44.2721
44.1267
44.1767
43.6869
45.1399
44.6666
44.5961
45.9146
45.9158
45.8022
46.1321
46.0237
46.054
43.9223
44.4286
44.3049
44.6762
44.5523
44.0695
44.7908
44.7586
44.8605
47.9364
47.4617
47.3815
47.6032
47.5336
48.0426
46.4579
46.3427
46.2367
46.5485
46.4449
46.5901
42.8182
42.5759
42.543
42.6344
42.6052
42.8613
44.1385
44.2439
44.3714
43.3382
43.9307
43.8041
44.181
44.0563
43.4848
39.2972
39.1786
38.2342
39.752
40.429
40.327
41.8963
41.8982
41.8455
41.9984
41.9478
41.964
38.5252
37.8294
37.9885
41.0601
40.1292
40.245
40.8015
40.3222
39.8674
40.0036
43.1447
43.3921
43.9767
42.4864
42.8214
42.5881
43.2324
43.0349
42.6406
42.339
42.0673
41.9687
42.937
42.599
42.8809
45.0277
44.9795
45.6113
43.8303
44.385
44.4115
44.3137
44.3517
43.813
43.7503
44.4035
44.3369
44.4306
44.4325
43.8056
45.8218
45.0967
45.0678
44.6626
44.7878
45.6587
43.45
44.0692
43.9617
44.256
44.1656
43.5303
43.0465
43.5707
43.4091
43.8451
43.714
43.1586
45.1739
44.3764
44.5264
40.9575
41.2403
41.0993
41.0128
41.2864
42.7148
42.3791
42.8871
41.5983
41.9569
42.1962
41.5449
41.7013
41.3774
36.5826
37.6515
37.5073
48.2562
47.4095
47.527
47.1513
47.286
48.1213
48.4698
47.7548
47.7746
47.6261
47.7072
48.4687
45.6599
46.2447
47.2274
46.0836
45.5682
45.3387
44.8832
44.5796
45.0869
45.2302
45.4364
45.307
45.6867
45.5618
45.4284
44.9621
45.0634
45.0424
44.5195
44.9247
44.8002
45.1776
45.0502
44.6774
47.4761
47.1264
47.0334
47.3009
47.2135
47.5953
46.9791
46.7483
46.6479
46.9412
46.8442
47.1056
42.464
42.7522
44.1146
44.8681
43.1044
43.5473
43.112
43.2233
42.8305
40.7001
41.2205
41.1243
38.3789
38.2621
37.2447
38.6821
39.5449
39.4189
40.2253
40.1209
39.3996
36.8239
36.8278
36.918
41.2941
41.3536
41.3878
38.8498
39.1187
39.4614
39.2493
39.4145
39.3411
39.0528
38.9863
38.9008
39.138
39.2428
40.3193
40.1699
40.176
43.1782
42.8141
42.801
42.8434
42.8262
43.1919
41.5469
41.4347
41.702
39.9766
40.4128
40.3455
39.7388
40.1305
40.0516
40.2762
40.2046
39.7997
43.1749
42.9079
42.8652
39.4578
39.7714
39.6575
39.967
39.8738
39.5341
39.1012
39.2476
39.0852
39.5325
39.3956
39.1949
41.0861
40.8159
40.7924
40.5598
40.7726
40.824
36.7075
36.701
36.6592
36.7878
36.7441
36.7492
36.5491
36.5383
36.5003
36.6178
36.5778
36.5873
36.4082
36.3902
36.3567
36.4627
36.4268
36.442
36.2926
36.2645
36.2377
36.324
36.294
36.3186
36.2087
36.1648
36.1444
36.2114
36.1877
36.2269
36.1539
36.0904
36.0756
36.1247
36.1073
36.1655
36.1193
36.0366
36.0257
36.0614
36.0488
36.1266
36.0958
35.9958
35.987
36.0151
36.0053
36.1011
36.0775
35.9623
35.9547
35.9784
35.9702
36.0818
36.0634
35.9338
35.9271
35.9475
35.9404
36.0667
35.921
35.9148
36.0555
38.9887
38.7107
38.6875
38.9223
39.084
39.2299
40.943
41.1775
41.2554
48.5976
45.868
52.666
49.1966
46.4468
52.819
35.7485
47.8703
41.0832
35.7231
47.7412
41.2062
35.7525
47.9025
41.0585
35.7363
47.915
41.0391
35.8099
48.133
40.7616
46.5017
44.6691
51.7303
46.9427
44.9295
51.9416
51.8038
48.7878
53.6636
51.1006
48.0594
53.4897
36.022
46.8551
42.4198
35.9144
46.9939
42.0443
35.9536
46.9138
42.219
36.0077
46.8623
42.3849
35.9685
46.8968
42.2653
35.732
47.6878
41.253
35.7366
47.5659
41.3991
35.9054
47.0427
41.9665
35.8913
47.3326
41.653
35.7579
47.542
41.4351
35.8602
47.4185
41.5724
35.7539
47.8888
41.0136
35.7372
47.9091
41.0364
35.7714
47.8927
40.9856
35.8251
48.0828
40.7983
47.9933
45.4417
52.4637
55.0108
52.6628
54.2579
55.7906
53.7365
54.3815
53.9568
51.2274
54.0656
53.2542
50.4172
53.9536
49.8016
46.9656
53.027
35.7292
47.8216
41.1268
35.7215
47.7881
41.163
35.7496
47.9201
41.0425
35.7426
47.9209
41.0384
35.7485
48.1615
40.7428
47.4453
45.1612
52.2028
57.5746
56.5023
54.5522
56.6632
55.0215
54.4885
60.4059
58.5057
58.0566
59.4807
59.5989
52.5262
49.5863
53.8177
50.424
47.4709
53.2704
36.0426
46.8493
42.4535
35.9263
46.9579
42.1111
35.9389
46.9327
42.1688
35.9954
46.8713
42.3481
35.9824
46.8827
42.3085
35.7319
47.5935
41.3648
35.9023
47.1032
41.8764
35.9125
47.2113
41.7586
35.7866
47.5122
41.4725
35.8226
47.4733
41.5154
35.7443
47.898
41.0259
35.7403
47.9045
41.0321
35.7959
47.9169
40.9376
35.8355
48.0043
40.853
45.1209
44.0952
50.9745
44.7217
44.0778
50.6912
42.286
44.0812
48.9753
40.2669
44.8499
47.1387
41.99
44.1534
48.7406
38.1547
46.32
44.243
38.8245
45.579
45.4636
40.0638
44.9566
46.9182
38.9362
45.487
45.637
38.0636
46.47
44.0642
37.4517
46.8246
43.4923
37.3803
46.825
43.4598
35.716
48.1827
40.7237
35.7129
48.194
40.714
62.8752
43.5921
43.9449
49.9399
43.2446
43.9829
49.6819
61.869
40.943
44.6253
47.757
41.1937
44.5463
47.9742
38.4083
45.9496
44.7855
38.5076
45.8577
44.9508
39.4832
45.2348
46.3204
39.3041
45.2544
46.1764
37.7722
46.7181
43.7196
37.6854
46.7621
43.645
37.1186
46.7682
43.3834
37.1824
46.7921
43.3945
35.7263
47.641
41.3032
45.5349
44.1539
51.2369
45.9481
44.2982
51.4396
44.335
44.0418
50.426
42.5982
44.0702
49.1944
40.4787
44.75
47.3576
41.7125
44.2728
48.4898
38.228
46.1587
44.4423
38.7162
45.6731
45.2882
39.8699
45.0748
46.697
39.051
45.3992
45.7965
37.9631
46.5812
43.9221
37.5262
46.8144
43.5327
37.0265
46.7045
43.3708
36.9901
46.6679
43.3721
37.314
46.8211
43.4316
36.3108
46.6959
42.7754
36.3621
46.6386
42.8459
36.6281
46.5557
43.1445
36.5713
46.5381
43.1217
36.9502
46.6138
43.3797
36.907
46.5504
43.3915
36.6825
46.5526
43.1771
36.7339
46.5367
43.2188
36.2614
46.735
42.7152
36.2139
46.7621
42.6634
35.7313
48.1705
40.7332
35.7249
48.1993
43.9573
43.9826
50.1814
42.9169
44.0637
49.4219
40.7035
44.6777
47.5621
41.4493
44.4161
48.2258
38.3139
46.0488
44.6174
38.6102
45.7668
45.1174
39.6747
45.1779
46.4918
39.1699
45.2882
46.0355
37.864
46.66
43.8101
37.604
46.7928
43.5834
37.0727
46.7456
43.3755
37.2477
46.8102
43.4103
36.4413
46.5412
42.9931
36.4029
46.5796
42.9238
36.4822
46.52
43.0499
36.5259
46.5184
43.0929
36.8456
46.4737
43.3667
36.8773
46.4951
43.3899
36.8147
46.4777
43.3254
36.7812
46.5063
43.27
36.1281
46.8088
42.5698
36.171
46.7859
42.615
36.0985
46.8276
42.5327
36.0617
46.8442
42.4838
)
;

boundaryField
{
    topAndBottom
    {
        type            slip;
    }
    inlet
    {
        type            fixedValue;
        value           uniform 37;
    }
    outlet
    {
        type            inletOutlet;
        inletValue      nonuniform List<scalar> 0();
        value           nonuniform List<scalar> 0();
    }
    wing
    {
        type            kqRWallFunction;
        value           nonuniform List<scalar> 
133
(
52.666
52.819
41.0832
41.2062
41.0585
41.0391
40.7616
51.7303
51.9416
53.6636
53.4897
42.4198
42.0443
42.219
42.3849
42.2653
41.253
41.3991
41.9665
41.653
41.4351
41.5724
41.0136
41.0364
40.9856
40.7983
52.4637
54.2579
54.3815
54.0656
53.9536
53.027
41.1268
41.163
41.0425
41.0384
40.7428
52.2028
54.5522
54.4885
53.8177
53.2704
42.4535
42.1111
42.1688
42.3481
42.3085
41.3648
41.8764
41.7586
41.4725
41.5154
41.0259
41.0321
40.9376
40.853
50.9745
50.6912
48.9753
47.1387
48.7406
44.243
45.4636
46.9182
45.637
44.0642
43.4923
43.4598
40.7237
40.714
49.9399
49.6819
47.757
47.9742
44.7855
44.9508
46.3204
46.1764
43.7196
43.645
43.3834
43.3945
41.3032
51.2369
51.4396
50.426
49.1944
47.3576
48.4898
44.4423
45.2882
46.697
45.7965
43.9221
43.5327
43.3708
43.3721
43.4316
42.7754
42.8459
43.1445
43.1217
43.3797
43.3915
43.1771
43.2188
42.7152
42.6634
40.7332
50.1814
49.4219
47.5621
48.2258
44.6174
45.1174
46.4918
46.0355
43.8101
43.5834
43.3755
43.4103
42.9931
42.9238
43.0499
43.0929
43.3667
43.3899
43.3254
43.27
42.5698
42.615
42.5327
42.4838
)
;
    }
    front
    {
        type            empty;
    }
    back
    {
        type            empty;
    }
    procBoundary0to1
    {
        type            processor;
        value           nonuniform List<scalar> 
49
(
34.8481
34.8601
34.8913
34.9596
35.1366
35.1366
35.336
35.7038
41.2938
41.2619
40.1405
32.9261
39.7673
40.4291
41.2938
40.7263
40.6617
33.9375
32.9374
39.3419
35.2199
35.4947
36.2089
36.3767
36.9666
37.2017
38.0445
38.392
36.5679
35.2571
41.1779
36.7512
36.5569
37.7355
37.4567
39.2458
38.7887
41.1782
40.9837
38.4305
37.6837
40.9875
40.1962
36.053
35.909
40.7011
35.7506
40.7011
48.2116
)
;
    }
    procBoundary0to2
    {
        type            processor;
        value           nonuniform List<scalar> 
58
(
36.9749
39.4708
42.1643
55.7811
47.4393
57.1044
57.1044
54.3772
63.8794
64.7192
36.937
36.9358
36.9358
37.0007
36.945
37.1983
37.0335
37.7036
37.2843
39.166
37.9277
40.6194
40.7394
41.6906
42.8145
42.1643
45.6315
43.2382
50.3757
36.9524
39.8045
36.9326
36.9322
36.9758
36.9577
37.13
37.0759
37.5294
37.3926
38.6081
38.6081
38.2223
40.1818
40.7394
41.01
41.3194
42.4661
44.5348
43.7863
38.8816
54.5984
61.1492
61.1492
54.5984
54.6469
66.0146
63.8794
63.9226
)
;
    }
}


// ************************************************************************* //
