/*--------------------------------*- C++ -*----------------------------------*\
| =========                 |                                                 |
| \\      /  F ield         | OpenFOAM: The Open Source CFD Toolbox           |
|  \\    /   O peration     | Version:  v2012                                 |
|   \\  /    A nd           | Website:  www.openfoam.com                      |
|    \\/     M anipulation  |                                                 |
\*---------------------------------------------------------------------------*/
FoamFile
{
    version     2.0;
    format      ascii;
    class       volScalarField;
    location    "0";
    object      nut;
}
// * * * * * * * * * * * * * * * * * * * * * * * * * * * * * * * * * * * * * //

dimensions      [0 2 -1 0 0 0 0];


internalField   nonuniform List<scalar> 
3019
(
1.15562
1.15558
1.15553
1.15552
1.15589
1.15591
1.15593
1.15597
1.15603
1.15615
1.15633
1.15652
1.15486
1.15476
1.15466
1.15463
1.15492
1.15501
1.1551
1.15537
1.15557
1.15592
1.15642
1.15699
1.15407
1.15391
1.15377
1.15375
1.15399
1.15414
1.15435
1.1547
1.15521
1.15604
1.15721
1.12999
1.15326
1.15305
1.15288
1.15287
1.15309
1.15333
1.15372
1.15428
1.15536
1.15709
0.960788
0.780835
1.15244
1.15218
1.152
1.15201
1.15225
1.15262
1.15327
1.15423
1.15629
0.933957
0.656684
0.490231
1.15162
1.15132
1.15113
1.15118
1.15147
1.15202
1.15309
1.1547
1.09342
0.712874
0.449017
0.278425
1.1508
1.15047
1.15029
1.1504
1.15076
1.15156
1.15319
1.15569
0.947445
0.588653
0.330834
0.142312
1.15
1.14966
1.14949
1.14968
1.15014
1.15125
1.15356
1.15701
0.887545
0.567352
0.329093
0.125513
1.14925
1.14889
1.14876
1.14905
1.14963
1.15111
1.15417
1.15846
0.895656
0.633296
0.476503
0.372047
1.14855
1.14819
1.1481
1.1485
1.14924
1.15112
1.15493
1.15992
0.932572
0.722708
0.658965
0.707095
1.14793
1.14756
1.14752
1.14805
1.14897
1.15128
1.1558
1.16138
0.965735
0.777625
0.738066
0.605706
1.14737
1.14701
1.14703
1.1477
1.1488
1.15156
1.15674
1.16283
0.985102
0.784041
0.698125
0.49888
0.313558
0.718523
0.618838
0.512387
0.120582
0.618862
0.798827
0.385905
0.732112
0.728728
0.804803
0.670445
0.204783
0.244718
0.712365
0.629746
0.716975
0.565963
0.114282
0.161024
0.616614
0.476968
0.0581378
0.0819818
0.0967347
0.28785
0.0437806
0.0857279
0.250547
0.295794
0.724516
0.216999
0.189266
0.277565
0.223143
0.165419
0.199152
0.657731
0.145162
0.116372
0.186591
0.147916
0.0832921
0.112424
0.552633
0.0868143
0.0613873
0.11474
0.0880738
0.0568483
0.473002
0.0401812
0.0606232
0.0409634
0.429462
0.332311
0.14792
0.169071
0.0964623
0.0522657
0.619601
0.303313
0.365434
0.294474
0.108637
0.194522
0.0410576
0.0162409
0.0287683
0.0526684
0.0423767
0.0724997
0.241588
0.224565
0.0524972
0.0420901
0.147271
0.0649114
0.076625
0.041141
0.0640742
0.169489
0.0537927
0.0303061
0.0189177
0.0689599
0.0336436
0.0597296
0.0318402
0.0629797
0.208461
0.0285041
0.20715
0.25116
0.0333841
0.0398564
0.0289379
0.0326743
0.243501
0.130203
0.128352
0.168916
0.16657
0.0778383
0.0757077
0.0994477
0.0977022
0.219113
0.0557084
0.054958
0.0209023
0.0163044
0.131717
0.336053
0.317484
0.36196
0.342423
0.136036
0.264484
0.247302
0.0736689
0.179007
0.388766
0.368573
0.0505985
0.0518779
0.121317
0.0981479
0.287773
0.270255
0.311452
0.29367
0.100312
0.0831824
0.0317587
0.0323142
0.0210388
0.022049
0.0647143
0.108859
0.0463632
0.0501053
0.0324907
0.03292
0.0919907
0.058487
0.0200244
0.0207622
0.0181147
0.0484101
0.0380402
0.0369345
0.0191298
0.0210115
0.0475265
0.0459389
0.0668718
0.111894
0.156644
0.0802301
0.102149
0.0675716
0.0531579
0.139577
0.12191
0.158893
0.145843
0.0586684
0.0478303
0.0588051
0.0732082
0.0423323
0.0483979
0.0270476
0.0868854
0.0704235
0.0952905
0.0902449
0.0274468
0.064376
0.0629133
0.0676779
0.0648829
0.0356474
0.11137
0.106982
0.118798
0.112948
0.0366088
0.0304408
0.10032
0.0965511
0.105584
0.101591
0.0308843
0.0373401
0.0368941
0.0382464
0.0374782
0.0358301
0.0350713
0.0367229
0.0360779
0.060558
0.0590177
0.0624543
0.061047
0.0532658
0.0394965
0.058463
0.0557209
0.0306068
0.0315854
0.0820014
0.0199136
0.0194087
0.020829
0.0200918
0.0192172
0.0668214
0.0223636
0.029443
0.0337364
0.0425063
0.10625
0.0295196
0.0239147
0.0347951
0.0324576
0.0220247
0.0211107
0.0234945
0.022357
0.0933409
0.0330289
0.0333707
0.0191506
0.0197958
0.0577932
0.0511402
0.0183301
0.0189306
0.221962
0.445507
0.423727
0.475533
0.452897
0.227534
0.416594
0.395623
0.183807
0.138145
0.0552916
0.0575384
0.0597895
0.073315
0.156725
0.0398368
0.0510366
0.0416275
0.0432109
0.0655985
0.0918302
0.0907397
0.0425413
0.0608526
0.0587046
0.0895041
0.0879295
0.0629362
0.0439318
0.0532588
0.0440346
0.0336706
0.0365353
0.029684
0.0457272
0.0476198
0.0685386
0.0247475
0.0321572
0.0315696
0.0485438
0.0479029
0.0280888
0.0269726
0.0264579
0.0308236
0.0300536
0.03418
0.0548239
0.0542041
0.057819
0.057321
0.0387041
0.0294082
0.0498103
0.049172
0.0535633
0.0529092
0.0319944
0.053821
0.0549002
0.13607
0.123016
0.0522904
0.0534588
0.081023
0.0838463
0.176231
0.0243022
0.0240556
0.026093
0.0257504
0.0214868
0.0238195
0.0235882
0.159358
0.076046
0.0800593
0.0319263
0.0457701
0.0454393
0.0213664
0.0301563
0.0300778
0.0305923
0.0302796
0.0217075
0.0206009
0.0202792
0.0202562
0.0298615
0.0297609
0.0300166
0.0299462
0.0205018
0.0211921
0.02091
0.0251502
0.0214058
0.0174292
0.038918
0.033982
0.0126168
0.0141087
0.0207975
0.0236071
0.0153087
0.0187619
0.0165922
0.049276
0.0444593
0.0749084
0.0657134
0.0436826
0.0614292
0.0856706
0.0818115
0.0415425
0.0380585
0.0377588
0.0267911
0.0334332
0.0572818
0.0493111
0.0468713
0.0439333
0.0394469
0.0264411
0.0277673
0.0472021
0.0461409
0.028086
0.0275175
0.0293488
0.0286951
0.0558779
0.0553584
0.0348662
0.0376357
0.0568793
0.0563995
0.0510893
0.0504603
0.0299265
0.0313706
0.0522657
0.0516721
0.0371952
0.0242722
0.0246805
0.0236166
0.0239335
0.0370513
0.0378119
0.0261592
0.0266658
0.0251313
0.0256193
0.037618
0.0355746
0.0218957
0.0221626
0.0214607
0.0216572
0.0353206
0.0365346
0.0230382
0.023319
0.0224394
0.022731
0.0363147
0.0248354
0.0245613
0.0600564
0.0410117
0.0413171
0.0403827
0.0407004
0.0595439
0.0254271
0.0251228
0.0229201
0.0225831
0.0486445
0.0333314
0.0368364
0.0271516
0.0275302
0.0425945
0.0578383
0.0396886
0.0400515
0.038491
0.0392386
0.0570252
0.0233707
0.0231556
0.0311055
0.0441603
0.0432628
0.0450953
0.0446987
0.0313827
0.0197419
0.0195762
0.0205522
0.0202778
0.0189667
0.0181389
0.022631
0.0337991
0.0315112
0.0415319
0.0382157
0.0269145
0.0246133
0.0194873
0.0204039
0.0243085
0.0344374
0.0210701
0.0212634
0.0206753
0.0208771
0.0338287
0.0217076
0.0214022
0.0230897
0.0227113
0.019366
0.029363
0.0291931
0.029643
0.0295106
0.0195769
0.0184911
0.0282803
0.0273161
0.0289909
0.028724
0.0187111
1.15485
1.15514
1.1555
1.15526
1.15575
1.1558
1.15594
1.15666
1.15626
1.15691
1.15771
1.15683
1.15795
1.15435
1.15498
1.15506
1.15525
1.1563
1.1558
1.15672
1.11293
1.15691
1.05102
0.900462
1.15813
0.86511
1.1542
1.15544
1.15503
1.15598
1.09571
1.1566
1.00697
0.782264
1.02403
0.723436
0.587992
0.815018
0.555475
1.15453
1.15665
1.15567
1.14129
0.842708
1.02396
0.75624
0.548574
0.714401
0.49222
0.357749
0.522691
0.32423
1.15541
1.08554
1.15705
0.97625
0.688851
0.795522
0.610293
0.409564
0.504962
0.351566
0.205589
0.312555
0.170462
1.15666
1.00285
1.05773
0.895036
0.635096
0.666015
0.562954
0.372254
0.389384
0.316606
0.144314
0.182406
0.128277
0.0752868
0.117942
1.15809
0.987126
0.993341
0.889229
0.669856
0.636554
0.611657
0.467449
0.384204
0.351727
0.303685
0.281896
0.134488
0.113587
0.102587
1.15956
1.01108
0.990895
0.922774
0.744447
0.687339
0.701955
0.62258
0.505198
0.52536
0.508605
0.445971
0.438285
0.447253
0.362456
1.16102
1.0419
1.01915
0.95876
0.803202
0.762185
0.768782
0.720767
0.656183
0.692053
0.719594
0.679332
0.695196
0.526513
0.549614
1.16247
1.06294
1.04827
0.981182
0.823219
0.811821
0.785814
0.714738
0.72823
0.735507
0.763325
0.769838
0.592511
0.413031
0.433439
1.06685
0.823445
0.702248
0.669192
0.695602
0.698852
0.485365
0.31026
0.32902
0.296454
0.242642
0.264862
0.557666
0.585006
0.729531
0.440313
0.461207
0.631899
0.335301
0.35426
0.525847
0.050857
0.0676133
0.123951
0.0981823
0.0629017
0.628996
0.570973
0.573613
0.649794
0.562538
0.672342
0.40879
0.524723
0.577032
0.765448
0.748624
0.716735
0.762685
0.77527
0.819605
0.694012
0.77243
0.773468
0.496957
0.51903
0.682951
0.210643
0.280983
0.274628
0.319628
0.313048
0.238919
0.728242
0.748861
0.726201
0.668152
0.784216
0.757784
0.807097
0.808671
0.680616
0.386458
0.406318
0.579263
0.120417
0.193706
0.189362
0.222879
0.217431
0.156348
0.732098
0.700546
0.577275
0.285874
0.304031
0.472327
0.0653521
0.123031
0.124758
0.148669
0.144406
0.0782947
0.111849
0.103803
0.0875802
0.164101
0.181414
0.254378
0.0460318
0.0374074
0.0353034
0.0761231
0.0664076
0.0757651
0.268066
0.506547
0.483235
0.53316
0.513986
0.274157
0.740463
0.596653
0.640247
0.210845
0.117811
0.123967
0.088668
0.091825
0.197503
0.268117
0.150782
0.160002
0.125716
0.131106
0.229552
0.169823
0.233701
0.228269
0.268406
0.262342
0.193845
0.644875
0.468254
0.48971
0.142636
0.11083
0.1131
0.0909703
0.0921906
0.118005
0.178738
0.0847927
0.0876774
0.115874
0.119113
0.150884
0.0880902
0.157472
0.153008
0.184976
0.180582
0.107215
0.539261
0.360651
0.379945
0.0855788
0.0638424
0.064556
0.0433312
0.0436724
0.0622392
0.113012
0.0883217
0.0897126
0.0652753
0.065999
0.089357
0.123963
0.279901
0.0397194
0.028002
0.0281227
0.0598962
0.0427756
0.0430468
0.0284056
0.0292201
0.0424613
0.387969
0.339086
0.386629
0.2175
0.288711
0.37078
0.214737
0.267796
0.192269
0.143026
0.124983
0.148683
0.0682206
0.102621
0.126371
0.0775499
0.0934421
0.0615548
0.653598
0.575568
0.518785
0.327638
0.565528
0.540917
0.341281
0.528191
0.336461
0.179291
0.214695
0.299261
0.140626
0.189195
0.157478
0.225772
0.200711
0.168129
0.016487
0.0136241
0.0133245
0.0256199
0.0228125
0.0257164
0.0374284
0.0242415
0.0475211
0.0289194
0.0424899
0.0203435
0.0258461
0.0460968
0.131969
0.127602
0.0678222
0.23587
0.178467
0.18357
0.168572
0.173372
0.230185
0.146847
0.113971
0.128418
0.0750049
0.0858051
0.0710812
0.202742
0.187504
0.168289
0.0453953
0.0413946
0.0491131
0.0234574
0.0322462
0.0404767
0.02858
0.0300016
0.0216917
0.059354
0.0610302
0.0670854
0.0371221
0.0402744
0.0367274
0.0671085
0.0579771
0.0509315
0.101121
0.114609
0.204488
0.200179
0.0929614
0.0979295
0.141164
0.148195
0.259351
0.236322
0.132984
0.139004
0.101252
0.102665
0.132109
0.126532
0.098531
0.0998761
0.136472
0.138466
0.171321
0.164209
0.132526
0.134505
0.0587719
0.0600563
0.0794514
0.0729164
0.053581
0.0567477
0.0724582
0.0747177
0.101434
0.0961553
0.0698682
0.0709455
0.164321
0.0409777
0.0413159
0.0564129
0.0540829
0.0400879
0.0405906
0.0175956
0.0170882
0.202319
0.19801
0.122751
0.329772
0.261536
0.267088
0.250775
0.25611
0.323588
0.355393
0.284783
0.290868
0.272815
0.278751
0.348884
0.151432
0.212022
0.206824
0.258738
0.198649
0.203728
0.188593
0.193606
0.253011
0.0771165
0.140219
0.1361
0.244852
0.239225
0.174345
0.381969
0.309414
0.315742
0.296989
0.30316
0.375237
0.0510355
0.0698559
0.0690625
0.0714283
0.0706397
0.0514587
0.11964
0.0934134
0.0946557
0.166988
0.162155
0.090326
0.281899
0.21925
0.22456
0.208834
0.214
0.276058
0.305485
0.240275
0.2455
0.229851
0.235067
0.299564
0.105561
0.176174
0.171684
0.062442
0.063137
0.0843692
0.0464484
0.0461101
0.0321238
0.0632806
0.044159
0.0450194
0.0843477
0.0866236
0.111112
0.0483894
0.0657519
0.0634799
0.0682096
0.0671863
0.049453
0.0326507
0.0471019
0.0467795
0.0477223
0.0474156
0.0327946
0.0906631
0.0667272
0.0674628
0.0422223
0.0425026
0.059187
0.0450655
0.0312216
0.0350148
0.0164973
0.0148074
0.0175185
0.010869
0.0117557
0.0230953
0.0200138
0.018695
0.0940726
0.0928997
0.0662166
0.123808
0.12775
0.116824
0.122937
0.125179
0.138334
0.087526
0.0831436
0.0759719
0.103239
0.0921257
0.0941565
0.0686509
0.0982158
0.0956535
0.132598
0.0955961
0.103673
0.0858563
0.0894236
0.126427
0.155086
0.11815
0.120682
0.110389
0.11496
0.150916
0.0511989
0.0558169
0.0525942
0.0626548
0.0590809
0.055184
0.0701113
0.0659359
0.0693913
0.0816524
0.0577179
0.0635266
0.0464132
0.0502268
0.075273
0.0939557
0.0695632
0.0704995
0.0666869
0.0684225
0.0923913
0.0638857
0.0432509
0.0435064
0.0426756
0.0429684
0.0633966
0.0662683
0.0442408
0.0448324
0.0437367
0.043959
0.0654628
0.109866
0.0795988
0.0803603
0.0780229
0.07883
0.10841
0.116511
0.0828053
0.0839563
0.0811344
0.0819293
0.114632
0.0990564
0.0730813
0.073915
0.0713727
0.0722294
0.0978007
0.104217
0.0763638
0.0771977
0.0747245
0.0755347
0.102886
0.0619944
0.0421685
0.0424283
0.0416109
0.0418927
0.0615252
0.0807861
0.0609738
0.0617359
0.0467088
0.0496939
0.0697058
0.0347979
0.0521248
0.0502174
0.0599011
0.0555011
0.0374212
0.103452
0.0778357
0.0813311
0.0682121
0.0689968
0.0947207
0.0331255
0.0483459
0.0480273
0.0492542
0.0487189
0.0332239
0.0571031
0.0416305
0.0419315
0.0378303
0.0392962
0.0529122
0.293707
0.287355
0.21639
0.438187
0.362386
0.369323
0.348649
0.355491
0.430923
0.467906
0.390473
0.397651
0.376309
0.383361
0.460363
0.233184
0.306533
0.300088
0.409532
0.335219
0.341883
0.322151
0.328643
0.402544
0.188748
0.256413
0.250584
0.107215
0.108917
0.140325
0.0557499
0.0801382
0.0790622
0.0833021
0.081464
0.0563973
0.0637901
0.0897605
0.0860226
0.0975149
0.0939237
0.0690356
0.153855
0.12248
0.125561
0.0459018
0.0425432
0.0405016
0.049535
0.0466718
0.050029
0.0402762
0.0435424
0.0470906
0.0541772
0.0763304
0.0754866
0.0781008
0.0771977
0.0545328
0.134056
0.104121
0.10563
0.0959214
0.0972133
0.12476
0.0526942
0.07303
0.0722252
0.0746592
0.0738418
0.0530855
0.0819651
0.108405
0.106931
0.111417
0.109898
0.0829043
0.17374
0.140498
0.142577
0.128201
0.130468
0.161847
0.0777781
0.102265
0.100229
0.105458
0.103938
0.0790214
1.15546
1.15547
1.15592
1.1555
1.15556
1.15595
1.15561
1.15568
1.15599
1.15576
1.15588
1.15609
1.15603
1.15621
1.15623
1.15641
1.15662
1.15642
1.15683
1.15701
1.1566
1.15445
1.15452
1.15498
1.15457
1.15462
1.15504
1.15472
1.15476
1.15532
1.15518
1.15524
1.1554
1.15545
1.15554
1.15563
1.15589
1.15603
1.15601
1.15652
1.15671
1.15654
1.15724
1.1574
1.1571
1.15354
1.15363
1.15407
1.15373
1.15384
1.15422
1.15402
1.15419
1.1546
1.15456
1.1547
1.15481
1.15518
1.1554
1.15538
1.1562
1.15653
1.15631
1.15759
1.15795
1.15754
1.04239
1.00937
1.09512
1.15266
1.15279
1.1532
1.15296
1.15317
1.15349
1.15347
1.1539
1.15409
1.15423
1.15449
1.1545
1.15551
1.15595
1.15572
1.15751
1.0844
1.15759
0.87547
0.821146
0.904574
0.700907
0.673767
0.75289
1.15185
1.15203
1.1524
1.1523
1.15266
1.1529
1.15315
1.15402
1.15389
1.1543
1.15477
1.15464
1.15665
1.14518
1.15696
0.867742
0.787829
0.85228
0.595923
0.545502
0.605766
0.429969
0.403365
0.463761
1.1511
1.15137
1.15169
1.15177
1.15233
1.15247
1.1531
1.1546
1.15412
1.15491
1.15568
1.1554
1.04929
0.942863
0.988647
0.672441
0.597573
0.636202
0.410598
0.35983
0.39851
0.237504
0.208836
0.250684
1.15044
1.15081
1.15107
1.15139
1.15221
1.15225
1.15334
1.15557
1.15481
1.156
1.15707
1.1567
0.924426
0.822987
0.843796
0.57342
0.503024
0.517226
0.317453
0.263114
0.277199
1.14987
1.15037
1.15057
1.15116
1.15229
1.15222
1.15384
1.15677
1.15585
1.15737
1.15862
1.15823
0.884353
0.794507
0.794437
0.577538
0.516218
0.502635
1.14942
1.15008
1.15021
1.1511
1.15255
1.1524
1.15453
1.15807
1.15709
1.15883
1.16018
1.1598
0.903788
0.827555
0.816108
0.656308
0.612767
0.585155
1.14909
1.14992
1.14998
1.15119
1.15297
1.15274
1.15535
1.1594
1.1584
1.16029
1.16171
1.16133
0.942019
0.876092
0.864651
0.741089
0.711854
0.690827
1.14887
1.14989
1.14988
1.15141
1.15351
1.15323
1.15626
1.16074
1.15973
1.16175
1.16322
1.16284
0.971724
0.909032
0.902931
0.78318
0.755639
0.751002
1.14991
1.15382
1.16108
1.16319
1.1647
1.16433
0.988876
0.923287
0.920591
0.781132
0.744251
0.750005
0.0959613
0.0952127
0.1181
0.0825451
0.0681302
0.767564
0.709492
0.744681
0.395923
0.445304
0.445101
0.740279
0.830567
0.820766
0.776091
0.796305
0.79448
0.642716
0.74538
0.733551
0.810761
0.800504
0.705036
0.116219
0.143393
0.141369
0.721504
0.70921
0.603345
0.0600051
0.0813165
0.079537
0.106134
0.104419
0.0807225
0.256387
0.333012
0.326277
0.377754
0.369715
0.288424
0.15388
0.156399
0.192014
0.183918
0.149145
0.151471
0.0846909
0.109719
0.107885
0.139361
0.137346
0.110634
0.0779545
0.0765361
0.0558914
0.420215
0.286422
0.308598
0.348674
0.176615
0.184867
0.156002
0.085619
0.0970053
0.107143
0.061909
0.0643502
0.0547654
0.311088
0.394416
0.385973
0.341631
0.429338
0.355294
0.239941
0.246302
0.283637
0.119574
0.13351
0.122451
0.0343133
0.0345951
0.0423435
0.0932462
0.0916244
0.0712325
0.0273888
0.0304216
0.0337335
0.0208762
0.0224014
0.0193052
0.182652
0.190387
0.208443
0.205154
0.172116
0.176773
0.0135058
0.013655
0.0164077
0.153698
0.152514
0.12825
0.141685
0.154128
0.154371
0.0748131
0.0963519
0.0947989
0.123295
0.12092
0.0956447
0.102187
0.127546
0.125483
1.15493
1.15508
1.15501
1.15524
1.15515
1.15503
1.15546
1.1553
1.15537
1.15541
1.15546
1.15534
1.15574
1.15558
1.15556
1.15572
1.15564
1.15576
1.15617
1.15608
1.15589
1.15648
1.15626
1.1564
1.15615
1.15619
1.15635
1.15719
1.15692
1.15669
1.15736
1.15713
1.15745
1.15671
1.15689
1.15707
1.15817
1.15776
1.15756
1.15792
1.1523
1.15724
1.15754
1.15454
1.15461
1.15445
1.15498
1.15478
1.15475
1.15492
1.15484
1.155
1.15556
1.15546
1.1552
1.15607
1.15574
1.15591
1.15558
1.15564
1.15591
1.15717
1.15681
1.15643
1.15763
1.15722
1.15762
1.1566
1.15687
1.15723
0.993098
1.0842
1.14125
0.989419
1.03425
0.943397
1.15784
1.12494
1.07941
0.835923
0.921969
0.95286
0.898666
0.813645
1.07087
0.985081
1.15456
1.15451
1.1542
1.15526
1.15486
1.15497
1.15475
1.15478
1.15512
1.15657
1.15623
1.15571
1.15738
1.1568
1.1572
1.15614
1.15644
1.15697
0.923495
1.00152
1.08487
0.856552
0.92483
0.848721
1.09415
1.00745
0.937365
0.671752
0.743514
0.796307
0.658512
0.697715
0.626698
0.856292
0.774268
0.73423
0.528998
0.599045
0.625724
0.578445
0.508549
0.731417
0.652842
1.15515
1.15494
1.1544
1.15628
1.15557
1.15587
1.15512
1.15532
1.15595
1.03975
1.09297
1.15704
0.893029
0.990468
0.939117
1.11672
1.05105
0.956213
0.678837
0.730854
0.80764
0.59801
0.661099
0.610488
0.779367
0.716531
0.65276
0.441617
0.490969
0.541475
0.407598
0.446375
0.396888
0.561171
0.501089
0.462568
0.296923
0.347773
0.374662
0.327164
0.276045
0.443335
0.382857
1.15634
1.156
1.15514
1.11805
1.15694
1.15733
1.1562
1.15656
1.1533
0.870745
0.903697
1.0103
0.717839
0.806129
0.775305
0.888145
0.843576
0.753401
0.53801
0.564874
0.638172
0.435927
0.497349
0.471125
0.567161
0.529511
0.467519
0.299194
0.326594
0.378437
0.237334
0.27918
0.250481
0.352704
0.313841
0.272859
0.138672
0.171901
0.20014
0.1517
0.115615
0.229906
0.187528
1.15784
1.15745
1.15633
1.01641
1.12447
1.1115
1.15774
1.1416
1.03469
0.798906
0.808148
0.907022
0.639246
0.719739
0.713103
0.750618
0.732097
0.649419
0.495519
0.495637
0.564861
0.369864
0.43086
0.432202
0.450971
0.437423
0.375964
0.259776
0.254636
0.31196
0.147143
0.205602
0.203159
0.22723
0.211323
0.162549
0.0859838
0.10068
0.0928026
1.15941
1.15901
1.15773
0.985805
1.09332
1.09336
1.10222
1.09625
0.987737
0.806258
0.79876
0.885169
0.654853
0.723
0.734188
0.71164
0.715127
0.643383
0.55883
0.535346
0.592669
0.433711
0.482177
0.510571
0.441915
0.458958
0.405399
1.16095
1.16057
1.15919
1.00338
1.10505
1.11112
1.09572
1.09974
0.996474
0.852432
0.839883
0.913017
0.725553
0.778559
0.794201
0.74776
0.762828
0.706231
0.666698
0.640333
0.679532
0.584979
0.608733
0.639874
0.542455
0.575779
0.545132
1.16247
1.16209
1.16065
1.03483
1.13014
1.13561
1.11762
1.12401
1.02716
0.895397
0.886418
0.950819
0.791941
0.83485
0.844999
0.809123
0.822803
0.778168
0.742213
0.729117
0.756561
0.70611
0.711325
0.725211
0.668003
0.692089
0.684375
0.53409
0.601648
0.594448
0.615789
0.608661
0.541768
1.16396
1.16359
1.16211
1.0587
1.148
1.15084
1.14049
1.14452
1.05384
0.917567
0.913831
0.976817
0.821529
0.863653
0.8665
0.853137
0.859299
0.817856
0.754382
0.756541
0.785746
0.724073
0.735227
0.730032
0.733595
0.736734
0.729003
0.419802
0.489328
0.482406
0.503094
0.496139
0.426594
1.15356
1.15615
1.07066
0.868268
0.869437
0.822799
0.722006
0.712916
0.689175
0.316505
0.38204
0.3754
0.395245
0.388591
0.322753
0.44723
0.516942
0.509946
0.530884
0.523833
0.45419
0.341607
0.408482
0.401808
0.421747
0.415064
0.347933
0.0539482
0.0763061
0.0764154
0.0846624
0.0787757
0.0603796
0.120175
0.0977645
0.103459
0.08637
0.0748912
0.0878026
0.052542
0.0631442
0.0744193
0.055262
0.0444664
0.609913
0.660289
0.717461
0.699517
0.669126
0.633698
0.508816
0.500454
0.553683
0.849589
0.840153
0.751608
0.802784
0.833917
0.823506
0.853531
0.850778
0.798289
0.729688
0.756953
0.735829
0.80014
0.785178
0.740905
0.784056
0.819321
0.836923
0.504261
0.573183
0.566018
0.587407
0.580214
0.51161
0.768226
0.756928
0.655516
0.786234
0.813111
0.831936
0.780364
0.801175
0.759496
0.821133
0.85551
0.861418
0.840351
0.854254
0.801588
0.692914
0.790011
0.779242
0.393026
0.462024
0.455195
0.475632
0.468755
0.399644
0.147355
0.145387
0.118254
0.734696
0.751695
0.769703
0.702544
0.721212
0.715325
0.590074
0.696667
0.684076
0.291854
0.358358
0.352735
0.368922
0.362618
0.29785
0.0855741
0.0831484
0.0625362
0.110076
0.115026
0.124812
0.079495
0.102748
0.101107
0.0982331
0.101348
0.107579
0.0889533
0.09255
0.0907098
0.169127
0.214347
0.209075
0.226246
0.219978
0.175059
0.346909
0.339871
0.262216
0.498818
0.419554
0.426989
0.404887
0.412186
0.491013
0.525667
0.44981
0.45792
0.434494
0.442082
0.520644
0.281145
0.361854
0.354215
0.120206
0.152224
0.149596
0.156852
0.15457
0.122171
0.0896905
0.121284
0.119526
0.12497
0.123097
0.0907424
0.194742
0.159045
0.161856
0.153547
0.196215
0.192526
0.204399
0.200115
0.156567
0.127477
0.161414
0.159101
0.166195
0.163759
0.129271
0.475357
0.544904
0.537814
0.55901
0.551873
0.482504
0.144706
0.146894
0.181322
0.0857447
0.114547
0.112966
0.117822
0.116165
0.0867056
0.113745
0.11165
0.0862518
0.1089
0.135374
0.133398
0.367053
0.435102
0.428369
0.448506
0.441741
0.373477
0.122731
0.103033
0.106208
0.346435
0.244539
0.273072
0.248241
0.171376
0.199162
0.219761
0.0801034
0.0880275
0.0763547
0.107928
0.0975115
0.0909728
0.115198
0.106695
0.117039
0.0826958
0.0782962
0.0836959
0.0572583
0.0680898
0.073148
0.412025
0.403099
0.319186
0.556899
0.483366
0.492188
0.466229
0.474724
0.548993
0.377193
0.389514
0.333946
0.501115
0.489628
0.447675
0.345677
0.430609
0.421196
0.191576
0.216758
0.204675
0.236666
0.22562
0.203063
0.288834
0.259719
0.270586
0.153428
0.14154
0.129275
0.177218
0.160732
0.172539
0.138553
0.150171
0.168993
0.0328754
0.0283583
0.0323708
0.0381853
0.0350616
0.0216429
0.027448
0.0272265
0.0318274
0.0293631
0.0232581
0.0440824
0.0360166
0.0383672
0.0697412
0.0898778
0.0878639
0.134506
0.137256
0.145142
0.1188
0.125456
0.121296
0.193125
0.2054
0.230108
0.162096
0.17676
0.190428
0.0264164
0.0281858
0.0251577
0.0368219
0.0351755
0.0369851
0.0205838
0.0240601
0.0249379
0.105499
0.140248
0.136937
0.146569
0.143094
0.110374
0.16489
0.168251
0.202784
0.0942223
0.128976
0.126915
0.133867
0.131246
0.0957718
0.143409
0.182637
0.179608
0.189077
0.185768
0.145746
0.13492
0.171272
0.16868
0.176728
0.173935
0.136924
0.0152529
0.0140851
0.0112904
0.0109709
0.0129554
0.0120459
0.0165568
0.0142338
0.0152381
0.125324
0.150982
0.14923
0.0994991
0.0979092
0.0759577
0.0929316
0.118472
0.116022
0.131463
0.12951
0.103904
1.1554
1.15544
1.15591
0.431713
0.446178
0.478417
0.113336
0.0984535
0.140879
0.166977
0.169086
0.112406
0.125079
0.13926
0.127824
0.112707
0.0988518
0.712829
0.665095
0.680679
0.566081
0.629466
0.622641
0.641421
0.635745
0.575061
0.0505036
0.0605726
0.0605341
0.602479
0.623406
0.584415
0.444869
0.442676
0.401698
0.534239
0.49203
0.485516
0.611415
0.647364
0.645664
0.310018
0.290599
0.265285
0.358474
0.323698
0.340987
0.232779
0.208111
0.197484
0.243539
0.225038
0.255496
0.0416024
0.0461592
0.0507077
0.0465766
0.0420882
0.0363069
1.15494
1.15486
1.15468
1.15528
1.15506
1.15513
1.15431
1.15419
1.15406
1.1545
1.15434
1.15445
1.15394
1.15374
1.15367
1.15393
1.15383
1.15401
1.15395
1.15359
1.15361
1.15362
1.1536
1.15391
1.15441
1.15381
1.15393
1.15365
1.15372
1.15425
1.15529
1.1544
1.15461
1.15406
1.15423
1.15504
1.15645
1.15529
1.15555
1.15482
1.15505
1.15615
1.15774
1.15635
1.15663
1.15581
1.15608
1.15741
1.15906
1.15748
1.15777
1.15691
1.15719
1.15873
1.16041
1.15867
1.15897
1.15807
1.15837
1.16007
1.15927
1.15957
1.16142
0.102904
0.124248
0.131441
0.16526
0.162072
0.141631
0.0599139
0.0593081
0.0514842
0.0185669
0.00689446
0.000431305
0.0188791
0.00699422
0.000433491
0.00954007
0.00437109
0.000379846
0.00957642
0.00436501
0.000380615
0.00954469
0.00437253
0.000379678
0.00952637
0.00445639
0.000378755
0.00933817
0.00432154
0.000379165
0.01723
0.00646472
0.000427186
0.0174121
0.00650418
0.000429177
0.0203784
0.00756028
0.000440155
0.0199473
0.00735176
0.000438729
0.0101006
0.00457638
0.000384319
0.00987928
0.00447083
0.000383988
0.00998925
0.00453093
0.000383987
0.0100832
0.00456965
0.0003842
0.0100166
0.00454114
0.000384016
0.00958122
0.00436535
0.00038084
0.00961123
0.00443425
0.000380689
0.00983463
0.0044377
0.00038404
0.00971022
0.00429234
0.00038362
0.00963745
0.00443314
0.000380881
0.00969694
0.00434332
0.000382594
0.00944827
0.00445664
0.000379223
0.00951064
0.00446242
0.000378784
0.00941198
0.00442384
0.000379594
0.00932796
0.00426033
0.000380052
0.0180073
0.00664082
0.000430848
0.0218587
0.0083078
0.000448691
0.022181
0.00850192
0.000450823
0.0215912
0.0080485
0.000445373
0.0211533
0.00788654
0.000443461
0.0191718
0.00706984
0.000435812
0.00955807
0.00439871
0.000379901
0.00957057
0.00438785
0.00038019
0.00954215
0.00441105
0.000379216
0.00953564
0.00444047
0.000378902
0.00938447
0.00437755
0.000378292
0.0176606
0.00654574
0.000430509
0.0230492
0.00905587
0.000456608
0.0225918
0.00874075
0.000452961
0.0243451
0.0234319
0.00933001
0.0237705
0.00955781
0.0207599
0.00773374
0.000441716
0.0194681
0.00714161
0.000437691
0.0101199
0.00457842
0.000384434
0.00991973
0.00449789
0.000383961
0.00995743
0.00451893
0.000383976
0.0100636
0.00456084
0.00038413
0.0100415
0.00455162
0.000384116
0.00959838
0.00442196
0.000380634
0.00978204
0.0044002
0.000383987
0.00972031
0.00431227
0.00038405
0.00965924
0.00441691
0.00038114
0.0096787
0.00439263
0.00038174
0.00947582
0.00446369
0.000378997
0.0094941
0.004462
0.000378913
0.00936885
0.00437705
0.00037992
0.00931974
0.00427601
0.000380295
0.0163488
0.00613992
0.000424252
0.0161156
0.00610167
0.000423059
0.0145178
0.00581615
0.000413988
0.0130295
0.00525358
0.000406764
0.0142849
0.00576902
0.000413377
0.0114701
0.00455833
0.000394988
0.0121099
0.00488185
0.000399429
0.0128779
0.00517656
0.000405992
0.0121948
0.00489704
0.000400239
0.0114409
0.00454369
0.000393932
0.0111115
0.00475271
0.000388027
0.0110638
0.00476736
0.000387684
0.00935942
0.00440569
0.000378037
0.00935424
0.00441096
0.000378043
0.0252004
0.0154143
0.00596784
0.000418588
0.0151422
0.00590565
0.000417842
0.0247782
0.0135719
0.00549981
0.000409056
0.0136934
0.00541948
0.000410834
0.0117866
0.00477922
0.00039643
0.0118749
0.00481007
0.000397064
0.0125623
0.00515274
0.000402305
0.012455
0.00520783
0.00040119
0.011301
0.00468908
0.000390202
0.0112549
0.00471183
0.000389449
0.0108998
0.00479665
0.000386919
0.0109345
0.00478736
0.000387084
0.00961516
0.00439543
0.000380609
0.0166741
0.00623215
0.000424847
0.0170169
0.00633152
0.000425036
0.0159018
0.00607214
0.000421443
0.0147872
0.00588874
0.000415087
0.0131964
0.00539265
0.000407283
0.0140485
0.00565421
0.000412849
0.0115849
0.00467974
0.000395387
0.0120302
0.00485662
0.000398529
0.01273
0.00509419
0.000405064
0.0122899
0.00496999
0.000400356
0.0113975
0.00462327
0.000392338
0.0111562
0.00474021
0.000388393
0.0109382
0.00479493
0.000386677
0.010906
0.00481552
0.000386569
0.0110146
0.00477132
0.000387439
0.0102612
0.00453462
0.000386364
0.0102908
0.00453253
0.000386736
0.0105962
0.00468788
0.000386632
0.0105659
0.00471386
0.000386393
0.0108893
0.00483071
0.000386492
0.0108706
0.00486034
0.000386435
0.0106258
0.00467215
0.000386991
0.0106539
0.0046472
0.000387391
0.0102264
0.00455829
0.00038583
0.0101903
0.00457072
0.000385464
0.00936674
0.00440777
0.000378092
0.00933822
0.00440529
0.0156753
0.00603085
0.000419811
0.0149465
0.00589336
0.000416743
0.0133885
0.00551764
0.000407863
0.0138308
0.00547466
0.000412081
0.0116928
0.004736
0.000395861
0.0119559
0.00483285
0.000397779
0.0126443
0.00508259
0.000403739
0.0123407
0.00512669
0.000400798
0.0113451
0.00467145
0.00039104
0.0112037
0.00473044
0.000388874
0.0108851
0.00479343
0.000386776
0.010974
0.00477558
0.000387264
0.0103975
0.00461303
0.000386778
0.0103395
0.00457029
0.000386805
0.0104531
0.00465669
0.000386588
0.0105089
0.00470261
0.000386439
0.0107731
0.0047583
0.000387183
0.0108191
0.00482393
0.000386712
0.0107243
0.00470303
0.000387518
0.0106779
0.00465293
0.00038763
0.0101264
0.00456859
0.000385004
0.0101547
0.00456973
0.000385213
0.010116
0.00457046
0.00038472
0.010152
0.00457238
0.000384458
)
;

boundaryField
{
    topAndBottom
    {
        type            calculated;
        value           nonuniform List<scalar> 
12
(
1.15562
1.15486
1.15407
1.15326
1.15244
1.15162
1.1508
1.15
1.14925
1.14855
1.14793
1.14737
)
;
    }
    inlet
    {
        type            calculated;
        value           uniform 1.15625;
    }
    outlet
    {
        type            calculated;
        value           nonuniform List<scalar> 0();
    }
    wing
    {
        type            nutkWallFunction;
        value           nonuniform List<scalar> 
133
(
0.000206964
0.000207209
0.000184409
0.000184658
0.000184359
0.00018433
0.000183747
0.000205221
0.000205568
0.000208748
0.000208423
0.000187174
0.000186409
0.000186763
0.000187106
0.000186854
0.000184756
0.000185075
0.000186253
0.000185574
0.00018516
0.000185419
0.000184283
0.000184328
0.000184228
0.000183791
0.000206565
0.000209834
0.000210064
0.000209478
0.000209287
0.000207537
0.000184512
0.000184584
0.000184334
0.000184332
0.000183712
0.000206031
0.000210459
0.00021031
0.000209025
0.000207989
0.000187246
0.000186546
0.000186667
0.000187035
0.000186957
0.000185008
0.000186056
0.000185788
0.000185224
0.000185323
0.000184302
0.000184322
0.000184113
0.0001839
0.000203781
0.000203245