/*--------------------------------*- C++ -*----------------------------------*\
| =========                 |                                                 |
| \\      /  F ield         | OpenFOAM: The Open Source CFD Toolbox           |
|  \\    /   O peration     | Version:  v2012                                 |
|   \\  /    A nd           | Website:  www.openfoam.com                      |
|    \\/     M anipulation  |                                                 |
\*---------------------------------------------------------------------------*/
FoamFile
{
    version     2.0;
    format      ascii;
    class       volScalarField;
    location    "0";
    object      omega;
}
// * * * * * * * * * * * * * * * * * * * * * * * * * * * * * * * * * * * * * //

dimensions      [0 0 -1 0 0 0 0];


internalField   nonuniform List<scalar> 
3019
(
31.8693
31.8706
31.8719
31.8739
31.9377
31.9387
31.9393
31.9406
31.9432
31.9476
31.9541
31.9616
31.7347
31.7377
31.7408
31.7448
31.8052
31.8094
31.8129
31.8467
31.8538
31.866
31.8838
31.904
31.6014
31.6062
31.6109
31.6167
31.6747
31.6822
31.69
31.7257
31.7423
31.7704
31.8107
31.8542
31.4702
31.4764
31.4824
31.4901
31.5455
31.5569
31.5709
31.6132
31.6478
31.7062
31.7874
31.8802
31.3405
31.3481
31.3555
31.3651
31.4194
31.4355
31.4582
31.5112
31.579
31.6921
31.8783
32.1253
31.2123
31.2212
31.2301
31.2417
31.2961
31.3185
31.3542
31.4265
31.5398
31.7628
32.225
33.1124
31.0859
31.0961
31.1066
31.1206
31.1754
31.2057
31.2589
31.359
31.5366
31.9551
33.0734
37.2787
30.9615
30.9731
30.9854
31.0025
31.0585
31.0985
31.1724
31.3037
31.5624
32.23
34.3108
45.6294
30.8396
30.8527
30.8671
30.8877
30.9459
30.9969
31.0933
31.2558
31.6
32.4821
35.1755
52.3608
30.7207
30.7354
30.7522
30.7767
30.8377
30.9007
31.0198
31.2122
31.6364
32.6792
35.7836
59.7858
30.6053
30.6215
30.6408
30.6696
30.7341
30.8095
30.9507
31.1721
31.671
32.8559
36.5288
69.4421
30.4934
30.5112
30.533
30.5662
30.6349
30.7227
30.8848
31.1359
31.7085
33.0495
37.607
83.3476
51.6785
58.8377
68.0421
81.2897
44.3092
35.6308
51.093
46.616
36.3158
57.1953
51.777
63.0012
212.474
181.724
37.3024
65.8713
58.11
74.0392
350.896
260.595
67.2182
86.6843
612.841
461.814
121.891
162.692
79.3972
117.494
177.975
153.28
56.1208
211.204
235.775
168.542
206.042
254.79
217.679
64.182
296.2
354.916
238.712
291.45
456.013
355.656
75.7194
450.306
598.733
358.944
445.296
624.328
87.3252
849.9
604.298
836.872
35.0027
46.1613
41.8067
48.8378
95.4619
69.7794
55.124
149.794
125.58
121.516
98.2525
49.6473
1243
174.955
477.126
52.588
74.1354
508.488
168.694
179.868
1036.73
1223.35
135.429
795.885
693.229
1177.06
801.681
141.371
97.337
317.888
135.782
607.258
357.184
102.877
539.675
864.693
217.318
1491.43
218.267
185.146
1357.4
1204.52
1478.69
1376.21
190.477
324.23
328.037
260.056
263.171
490.382
501.822
404.523
410.422
183.774
642.41
648.908
86.9718
155.163
311.03
125.89
132.46
117.748
123.785
302.283
155.773
165.264
502.161
238.429
110.356
115.835
755.529
744.9
343.309
397.392
144.564
152.832
134.747
141.984
390.24
465.438
1095.82
1085.71
1600.43
1532.05
574.213
374.748
808.958
760.149
1082.93
1078.67
430.443
620.207
1671.13
1619.71
1827.14
721.75
1306.1
1333.49
272.657
317.266
1121.82
1150.69
785.084
274.876
302.578
228.89
264.259
780.725
939.279
351.649
399.979
310.186
336.986
858.816
500.479
190.073
217.852
731.724
748.262
1533
521.134
629.587
483.231
504.243
1520.13
673.212
680.9
651.337
670.591
1301.81
431.148
444.376
409.281
426.498
1278.2
1435.1
465.714
478.676
448.725
461.519
1424.38
1022.97
1023.93
1015.88
1023.14
1035.39
1046.95
1024.95
1031.94
693.904
703.635
683.302
691.034
760.442
990.3
707.463
732.125
1124.43
1098.96
470.597
1712.05
1743.86
1651.11
1700.75
1757.55
558.796
1512.23
1164.37
1071.66
873.489
382.525
1213.27
1470.93
1051.65
1112.95
1577.01
1632.93
1493.47
1557.57
425.56
1078.58
1078.78
1735.46
1687.45
625.556
688.048
1805.26
1753.12
198.026
97.3071
101.962
91.4898
95.8142
193.773
103.576
108.608
233.141
308.808
722.246
702.937
680.641
568.674
277.206
1269.29
1060.61
1320.22
1202.09
791.914
558.088
562.937
1147.89
810.45
834.995
568.693
576.698
811.291
161.648
182.669
479.631
635.412
988.674
809.503
1213.34
1173.74
794.88
1652.78
1301.69
1318.3
917.048
924.138
1503.82
1478.44
1499.13
1341.73
1367.21
1336.4
859.614
864.434
843.011
845.656
1229.74
1464.83
903.825
910.407
869.735
875.43
1394.89
731.219
724.702
312.709
339.493
741.717
733.505
525.686
513.35
250.793
1576.67
1585.59
1512.41
1524.76
1729.68
1594.2
1602.87
273.265
551.349
530.106
1092.9
792.547
795.878
1577.63
1133.1
1132.74
1124.54
1132.06
1554.52
1598.68
1623.79
1654.93
1131.7
1132.53
1131.92
1131.52
1637.84
1555.09
1575.38
1312.52
1541.37
1910.71
1287.77
1431.4
534.192
656.477
1038.27
1088.39
773.646
991.904
1278.05
1090.78
1178.57
667.814
755.608
1126.04
825.985
589.548
614.7
1060.26
1020.59
700.056
1143.15
1259.08
764.816
1140.92
1102.65
987.306
1085.11
1558.68
1511.87
932.536
947.98
1436.13
1457.31
1391.19
1414.11
853.029
856.173
1320.39
1253.89
847.509
849.935
891.316
897.288
1449.49
1412.21
881.157
886.258
1023.11
1515.02
1495.61
1545.48
1530.74
1023.32
1022.53
1428.34
1407.22
1474.51
1452.29
1023.43
1039.19
1631.56
1617.24
1654.07
1644.26
1043.08
1026.48
1572.44
1559.33
1602.75
1587.83
1028.92
1557.48
1567.34
696.96
983.819
980.797
990.538
987.059
700.191
1536.32
1547.2
1629.58
1648.49
823.615
1156.72
1058.84
1387.88
1374.47
927.648
712.16
999.165
994.426
1020.44
1006.1
719.124
1610.99
1619.34
1109.79
810.931
824.248
799.475
803.981
1103.08
1722.73
1733.02
1669.62
1688.75
1779.39
1869.05
1496.9
1029.91
1096.91
853.602
919.607
1266.69
1436.99
1799.76
1715.76
1450.84
1058.81
1674.2
1664.16
1696.34
1684.65
1073.59
1595.95
1614.64
1515.84
1537.19
1718.92
1139.28
1143.21
1134.11
1136.34
1703.33
1791.14
1172.6
1211.39
1148.61
1156.82
1771.57
31.7552
31.7647
31.8509
31.7689
31.7852
31.8611
31.792
31.8163
31.8772
31.8254
31.8534
31.8972
31.8622
31.6403
31.6605
31.7372
31.6694
31.7041
31.7622
31.7184
31.768
31.7998
31.7862
31.8435
31.8439
31.8616
31.5354
31.5759
31.6373
31.5937
31.6609
31.6893
31.689
31.796
31.7652
31.8387
31.9801
31.8578
32.0272
31.446
31.5162
31.5581
31.5462
31.6742
31.658
31.7343
31.9882
31.8243
32.1025
32.5502
32.0621
32.7287
31.3744
31.4834
31.5057
31.5341
31.7745
31.6906
31.896
32.4851
32.0771
32.8034
34.5574
32.8447
35.5877
31.3166
31.4734
31.479
31.5541
31.9494
31.8131
32.1594
33.2981
32.6681
34.0113
40.8489
35.5651
39.1695
45.068
38.3174
31.2672
31.4777
31.4736
31.5904
32.1359
31.9978
32.4248
34.0007
33.5027
34.5772
35.9314
35.5374
46.8293
52.6562
50.7785
31.2228
31.486
31.4797
31.6276
32.2906
32.1777
32.6335
34.4665
34.1317
35.3328
36.9927
36.7763
53.1493
62.7423
61.2481
31.1818
31.4951
31.4882
31.6623
32.4241
32.3249
32.8114
34.9048
34.571
35.9461
37.9755
37.6896
60.8004
81.8019
78.4942
31.1446
31.5071
31.4977
31.6986
32.561
32.4572
32.9979
35.4769
35.0306
36.7632
39.495
39.0587
70.9052
102.522
98.0945
31.5108
32.598
35.6536
37.9293
42.6819
41.0168
85.5141
132.815
125.994
60.0944
59.0898
51.0308
77.3959
73.8459
57.9468
96.6867
92.6385
66.7005
123.867
117.868
79.3376
65.9104
48.4246
40.2965
39.889
47.9439
37.4361
37.2076
35.4824
49.0045
39.3487
39.9513
38.7366
39.1837
48.2961
38.6596
38.2983
36.1224
54.6834
41.291
42.2689
40.1843
40.9943
53.9213
86.4074
82.9264
61.8736
207.298
155.408
158.616
138.337
140.982
185.619
40.4802
39.9684
37.0206
62.2194
44.132
45.4325
42.6143
43.7349
61.1182
108.927
104.067
72.4355
335.957
214.714
218.844
190.444
194.572
267.146
45.8999
47.2044
71.6053
142.902
135.252
87.7142
554.043
314.664
310.086
268.454
275.088
478.869
126.069
193.606
165.123
293.93
266.902
155.946
85.1214
100.207
91.1034
153.473
144.952
112.811
167.628
86.1264
90.0993
82.0856
84.9345
164.294
57.0777
72.4009
67.2277
216.658
388.486
372.602
493.709
481.543
227.212
174.199
317.186
300.89
368.486
356.363
200.903
249.245
182.775
186.543
161.881
165.186
222.798
65.4143
91.3455
87.6074
300.647
382.32
375.884
445.739
441.267
350.996
247.759
509.369
497.627
368.157
359.435
286.481
435.587
255.759
262.038
223.203
227.769
369.686
77.4833
115.976
110.622
455.337
591.956
587.358
815.619
811.836
592.524
363.35
455.991
450.492
582.818
578.341
440.313
311.483
145.617
856.981
1179.23
1177.49
609.635
821.173
818.49
1169.47
1141.28
811.363
36.5402
36.2645
34.8061
44.7165
38.0942
38.5937
37.1548
37.895
44.1301
55.8151
54.3625
47.9071
86.0483
62.568
65.3002
58.9156
61.5478
82.318
65.8634
64.3642
54.0963
139.455
77.519
80.9537
72.3375
76.3388
136.009
109.47
68.9051
71.3361
66.0636
68.2122
106.427
50.367
58.1035
57.0394
200.214
258.541
212.03
735.815
678.027
426.819
57.4948
75.7904
58.0039
69.6605
54.3502
122.352
77.7532
61.1561
296.6
305.106
536.845
172.282
224.007
218.64
235.246
229.656
176.012
228.142
202.322
130.47
462.479
501.626
747.406
148.572
258.398
236.243
119.904
110.318
91.3486
222.266
144.77
155.713
111.118
126.671
195.07
552.753
382.033
416.723
254.017
277.855
406.057
107.999
136.908
128.694
445.317
397.949
222.656
224.585
477.265
457.943
335.456
321.954
179.721
195.721
352.304
339.78
410.775
406.379
320.403
331.856
419.49
415.14
320.252
316.435
256.941
266.378
328.09
324.107
629.237
618.528
482.342
518.14
681.041
647.951
539.575
525.723
397.907
415.707
555.394
548.897
240.386
841.694
837.328
636.556
656.954
855.023
847.136
103.872
113.84
207.011
210.791
330.554
128.038
160.934
157.998
166.944
163.909
130.225
119.71
149.302
146.531
155.077
152.156
121.72
274.498
198.862
203.181
158.818
204.294
199.899
213.627
208.864
161.979
484.58
281.947
289.058
175.501
179.098
243.8
112.143
138.693
136.207
143.848
141.241
113.969
751.76
567.92
572.407
559.344
563.601
748.26
347.157
436.889
432.534
243.333
249.483
426.461
147.233
187.605
183.75
195.675
191.586
149.988
137.09
173.272
170.062
180.073
176.601
139.498
374.37
232.56
237.681
601.243
596.592
460.379
785.892
789.156
1089.1
584.857
805.691
793.566
473.507
463.144
368.412
780.22
593.969
611.657
577.448
583.945
767.103
1080.84
779.999
782.835
774.922
777.373
1079.39
435.359
573.922
569.535
826.865
823.928
614.912
769.493
1073.81
963.928
399.447
326.79
233.022
287.177
385.135
372.241
593.43
479.632
547.927
553.342
788.751
284.998
394.096
384.765
408.525
401.812
294.163
241.059
338.555
314.79
373.238
358.368
253.008
771.688
526.338
539.971
369.519
517.82
479.137
571.872
551.352
386.697
317.567
423.436
415.398
451.17
434.235
326.023
340.089
358.416
521.547
198.17
255.128
241.501
290.84
270.884
207.132
551.028
764.491
701.779
928.39
866.664
593.227
488.27
652.052
646.383
673.21
659.72
494.616
675.734
965.904
964.587
970.278
967.912
678.311
662.026
961.95
954.391
963.898
963.475
667.334
435.621
601.4
598.27
608.207
604.632
440.003
416.057
588.017
582.378
595.095
591.819
421.567
469.965
632.141
627.852
641.401
636.689
474.282
453.044
615.929
611.992
623.849
619.92
457.31
685.749
973.584
971.782
978.109
975.756
688.325
476.07
611.529
606.086
769.05
728.161
538.736
1045
726.936
750.102
643.194
688.082
980.357
391.355
507.442
488.469
565.125
560.532
420.681
1079.01
770.046
772.554
761.349
766.814
1079.54
630.99
833.52
830.058
898.382
869.041
668.612
149.352
152.316
202.475
98.828
120.236
118.159
124.557
122.369
100.38
92.9064
112.223
110.334
116.134
114.155
94.3473
189.64
143.698
146.487
105.221
129.073
126.794
133.776
131.399
106.897
227.934
168.546
171.983
392.74
387.804
304.808
719.058
516.266
521.437
500.557
509.761
713.736
643.053
469.189
487.001
436.316
450.812
599.428
281.67
350.797
343.331
168.354
200.159
185.577
228.435
214.604
175.318
449.933
301.795
322.369
729.047
534.52
538.629
526.022
530.341
726.924
316.574
401.932
397.407
428.186
423.837
335.664
738.729
550.942
555.124
542.709
546.803
735.974
521.485
400.516
404.812
392.008
396.256
517.385
253.874
312.634
308.83
337.289
332.369
269.68
541.501
419.273
426.255
409.206
413.885
535.086
31.8738
31.8744
31.9389
31.8754
31.8777
31.9399
31.8793
31.8816
31.9417
31.8848
31.889
31.9451
31.8943
31.9007
31.9506
31.9081
31.916
31.9579
31.9236
31.9301
31.9647
31.7399
31.744
31.8085
31.7456
31.7473
31.8105
31.7511
31.7525
31.8451
31.8158
31.8173
31.8476
31.8247
31.8275
31.8553
31.84
31.8444
31.8684
31.8623
31.8679
31.887
31.8875
31.8926
31.9069
31.61
31.616
31.68
31.6191
31.623
31.6848
31.63
31.6346
31.7223
31.6966
31.7007
31.729
31.7168
31.7238
31.7481
31.7508
31.7618
31.7795
31.7989
31.8121
31.8219
31.8505
31.8621
31.8639
31.4822
31.4902
31.5526
31.4956
31.5022
31.5619
31.5135
31.5246
31.6064
31.5868
31.5951
31.6202
31.628
31.6424
31.66
31.6968
31.7185
31.7245
31.7955
31.8243
31.8108
31.9112
31.9373
31.901
31.3575
31.3678
31.4286
31.3764
31.3876
31.4441
31.4051
31.4282
31.4989
31.4883
31.5038
31.5247
31.5657
31.5924
31.6023
31.7005
31.7484
31.7311
31.9335
32.0091
31.9367
32.2634
32.3472
32.1852
31.2354
31.2486
31.3079
31.2616
31.2791
31.3325
31.3055
31.3466
31.4064
31.4081
31.434
31.4495
31.5356
31.5832
31.5807
31.7994
31.905
31.8497
32.3799
32.6133
32.4001
33.6579
34.1174
33.3946
31.1164
31.133
31.1902
31.1514
31.1769
31.2271
31.2146
31.278
31.3284
31.3442
31.3819
31.3937
31.541
31.6231
31.6091
32.0198
32.2303
32.1353
33.3738
34.0874
33.6251
31.0016
31.0223
31.077
31.0471
31.0818
31.1285
31.1321
31.2186
31.2625
31.2911
31.3405
31.3501
31.5714
31.6942
31.675
32.2985
32.6301
32.5342
30.8912
30.9164
30.9687
30.9482
30.9927
31.0365
31.056
31.1647
31.2048
31.2445
31.3061
31.3142
31.6094
31.7689
31.7509
32.5356
32.9488
32.8785
30.7853
30.8153
30.8652
30.8545
30.909
30.9503
30.9848
31.1142
31.1518
31.2018
31.2757
31.283
31.645
31.8353
31.8193
32.7236
33.1937
33.1356
30.6838
30.719
30.7665
30.7656
30.8298
30.8689
30.9174
31.0668
31.102
31.1627
31.2494
31.2555
31.6799
31.8985
31.8825
32.9015
33.4317
33.3696
30.6723
30.7916
31.0554
31.1275
31.2277
31.2327
31.7188
31.9667
31.9489
33.1037
33.7167
33.6388
48.668
46.358
42.9398
41.8347
44.6922
50.4092
45.353
45.8688
42.9265
43.2357
47.1038
56.3202
49.6667
50.2681
46.3881
46.9104
52.4733
64.5919
55.3351
56.2173
50.8927
51.5465
59.0665
346.055
284.742
288.111
57.1431
58.1185
68.6357
596.524
455.873
464.458
365.925
370.845
467.509
174.378
133.25
135.763
118.602
121.001
156.854
289.539
285.531
232.84
241.716
297.35
293.467
449.942
356.035
361.03
291.549
295.089
360.361
472.262
479.394
632.848
98.1305
45.7098
42.3368
42.6323
39.8785
40.4109
42.6834
92.5386
79.5812
81.4534
64.9548
67.8807
73.8459
146.343
113.902
116.24
99.7266
102.41
129.097
117.125
94.2573
96.8441
83.2308
84.9499
100.957
83.1435
75.9336
69.2566
406.525
412.363
515.644
284.574
215.878
233.585
132.598
143.425
152.105
248.341
238.726
217.808
219.962
262.404
256.054
179.282
154.064
138.935
269.371
270.879
318.359
291.48
269.573
268.717
496.167
395.895
401.13
322.728
328.059
406.156
384.361
313.734
318.013
31.7579
31.7874
31.7853
31.7929
31.79
31.7611
31.8497
31.8196
31.8217
31.7736
31.8001
31.7964
31.8095
31.8047
31.7791
31.8591
31.8315
31.835
31.7995
31.8212
31.8153
31.835
31.8281
31.8076
31.8743
31.8504
31.8555
31.8347
31.8503
31.8427
31.8659
31.8583
31.8442
31.894
31.875
31.8807
31.8703
31.8802
31.8735
31.8865
31.8776
31.9127
31.8983
31.6462
31.6731
31.6681
31.685
31.6786
31.6529
31.7328
31.7053
31.7106
31.6795
31.7009
31.6924
31.7213
31.7105
31.6911
31.7547
31.7318
31.7408
31.734
31.7465
31.7333
31.7753
31.7605
31.7505
31.7893
31.7735
31.7861
31.8053
31.8062
31.7904
31.8376
31.8219
31.8244
31.833
31.8252
31.8382
31.8785
31.8663
31.8524
31.8784
31.8932
31.8724
31.8722
31.5471
31.5708
31.5608
31.595
31.5821
31.5606
31.6281
31.6045
31.6154
31.6138
31.6271
31.6099
31.6675
31.6463
31.6361
31.6738
31.6588
31.6771
31.7209
31.717
31.6908
31.7778
31.746
31.7566
31.7441
31.7422
31.768
31.8844
31.848
31.8119
31.9223
31.8851
31.9319
31.8344
31.8537
31.883
32.0714
31.9919
31.9584
32.0213
32.1103
31.9191
31.9601
31.4663
31.4844
31.4666
31.5283
31.5047
31.4895
31.5401
31.5214
31.5422
31.5814
31.5853
31.5548
31.6637
31.6211
31.6234
31.6284
31.6232
31.6589
31.8057
31.773
31.7142
31.9187
31.841
31.8899
31.7751
31.803
31.8647
32.2343
32.1065
32.0071
32.3343
32.2162
32.3839
31.9985
32.0908
32.1765
32.91
32.578
32.457
32.6886
33.0796
32.2384
32.4224
31.4062
31.4195
31.3907
31.4892
31.4521
31.4419
31.4758
31.4634
31.4967
31.5976
31.5889
31.5337
31.741
31.6569
31.6765
31.6303
31.6415
31.7129
32.0484
31.9713
31.8439
32.3248
32.1289
32.2405
31.9533
32.033
32.1889
33.2195
32.8832
32.5717
33.7972
33.2837
33.7818
32.6059
32.8991
33.2463
36.9465
35.2208
34.4518
36.0013
38.2562
33.6652
34.5757
31.3601
31.3707
31.3301
31.4741
31.4171
31.4106
31.4328
31.4246
31.476
31.6565
31.639
31.5469
31.9017
31.755
31.7856
31.6997
31.7262
31.8559
32.4334
32.3306
32.0886
33.0826
32.6499
32.7981
32.3666
32.5045
32.8694
35.0958
34.5946
33.693
37.837
35.9824
36.8445
34.4113
35.1637
36.876
42.3487
40.9332
42.8939
31.3227
31.3314
31.279
31.4759
31.3946
31.3903
31.4047
31.3994
31.4745
31.7324
31.7134
31.5809
32.0918
31.8802
31.9105
31.8172
31.849
32.0456
32.8024
32.7196
32.3636
33.8538
33.1963
33.3067
32.9411
33.0744
33.6882
31.2904
31.2981
31.2335
31.4839
31.3787
31.3752
31.3862
31.3824
31.4818
31.803
31.7862
31.6186
32.2548
31.9942
32.0199
31.9397
31.9676
32.2173
33.0762
33.0143
32.5858
34.3607
33.582
33.6619
33.4065
33.4975
34.2504
31.262
31.2687
31.1917
31.4927
31.3659
31.3633
31.372
31.3688
31.4904
31.8668
31.8511
31.6536
32.3913
32.0925
32.1161
32.0446
32.0687
32.3584
33.3098
33.2514
32.7675
34.7877
33.8936
33.9733
33.7394
33.8161
34.6772
80.6903
71.0739
71.9059
69.4872
70.2776
79.5909
31.238
31.2435
31.1535
31.5036
31.3569
31.3554
31.3608
31.3587
31.5005
31.9316
31.9149
31.6891
32.5253
32.1886
32.2139
32.1399
32.164
32.4908
33.5657
33.4969
32.9487
35.3152
34.2392
34.3404
34.0567
34.145
35.1668
101.01
86.3957
87.5428
84.1979
85.2933
99.5368
31.3542
31.3534
31.5149
32.24
32.2669
32.6365
34.4497
34.5676
35.8441
130.462
108.488
110.236
105.171
106.815
128.192
95.3094
82.0939
83.1428
80.0741
81.0826
93.9613
121.804
102.046
103.596
99.0963
100.559
119.803
55.5533
51.4285
55.0545
45.2881
48.1395
52.601
41.5673
44.0783
41.9638
41.9284
43.3375
40.8256
50.9443
46.5786
44.5256
48.5871
54.0701
44.3806
44.8535
49.7172
42.3165
41.9708
39.7308
47.6569
43.5721
43.9518
48.5252
49.0879
55.4833
41.6072
44.7042
44.2803
45.5856
45.1405
41.9293
40.44
43.0593
42.6816
43.8599
43.454
40.7062
53.186
47.438
47.9766
85.2274
74.4701
75.3684
72.7386
73.6043
84.0685
53.7037
54.4991
63.3762
44.5496
48.6533
48.0868
49.8758
49.2516
44.9794
42.9771
46.5252
46.0486
47.5421
47.0248
43.3469
60.0682
52.2301
52.9491
107.27
91.1094
92.3691
88.6975
89.8988
105.651
278.427
281.516
341.095
46.3769
51.2159
50.5344
52.6566
51.9196
46.7451
70.1146
59.148
60.2175
140.286
114.954
116.602
112.001
113.766
137.761
436.472
447.275
575.542
346.752
333.694
310.349
473.188
375.768
380.729
184.578
158.479
161.991
153.738
155.722
175.112
285.661
222.596
227.961
211.145
217.064
276.336
128.344
130.784
170.941
87.4048
104.939
103.228
108.492
106.694
88.7348
83.1933
98.3228
96.6807
101.559
99.9287
83.9094
160.558
123.438
125.901
381.966
301.632
306.172
294.113
297.753
376.962
489.71
366.32
370.673
357.496
361.928
485.655
230
281.421
277.163
312.195
241.886
246.104
232.894
237.532
306.849
364.44
287.105
290.613
280.084
283.618
360.405
90.0758
78.1348
79.1035
76.2677
77.2012
88.8309
305.022
301.196
244.711
505.433
383.516
387.764
374.98
379.257
501.523
345.485
350.907
443.286
365.032
298.648
302.307
114.142
96.2951
97.6855
93.6405
94.9604
112.36
313.9
367.157
357.68
118.522
41.6922
42.0285
45.2364
43.4586
40.8949
41.3185
75.4703
77.5995
89.4272
63.5563
67.495
65.6173
70.7992
69.2071
64.4507
63.6038
61.3641
60.3482
78.1854
70.6334
73.1643
109.284
111.584
142.899
78.7042
91.8247
90.2328
95.0471
93.4263
79.8061
73.5897
85.1489
83.1451
88.6636
87.0115
74.9662
132.557
104.728
107
90.1126
92.0537
113.002
69.6571
78.5565
77.3019
81.3957
79.8885
70.4333
66.8091
73.5976
72.2426
76.0912
74.8594
67.5018
103.643
86.6328
88.3391
61.9327
67.8136
63.4494
60.3907
64.9598
102.751
87.1321
98.2763
70.7444
77.9932
88.517
64.8757
69.6701
64.3458
524.547
418.919
426.88
219.529
175.526
181.148
165.962
170.568
210.955
250.976
199.491
205.508
187.041
193.462
243.84
183.332
199.457
252.576
171.825
158.364
150.091
171.579
154.965
168.261
428.726
323.97
330.86
311.707
318.404
411.588
272.679
267.834
222.12
472.494
348.317
352.993
337.481
343.249
466.498
331.053
258.033
261.867
250.167
254.153
326.563
348.199
272.948
276.547
265.613
269.32
344.027
108.796
120.422
187.108
228.293
136.086
157.423
124.854
133.788
117.414
324.758
273.015
275.576
385.721
390.791
490.335
416.243
333.79
339.754
305.981
309.791
379.191
31.8711
31.8733
31.9385
95.6518
92.6842
86.5099
37.9984
39.6727
39.8582
38.7081
39.321
40.1141
38.5598
38.1526
38.017
39.3007
40.1341
42.01
40.8908
40.9719
76.2756
68.0165
68.741
66.7944
67.3637
75.1085
62.261
59.5188
62.1313
39.5332
41.6452
41.3447
38.8819
40.5638
40.3189
41.068
40.81
39.0269
70.6147
66.281
66.3893
38.2782
39.5069
39.1792
40.0682
39.7995
38.4398
37.4328
37.9566
37.4428
38.8137
38.4068
37.6694
59.8265
55.9455
55.2126
53.8004
56.7096
58.4811
31.783
31.7795
31.7483
31.8433
31.8113
31.814
31.6632
31.657
31.6278
31.7174
31.6871
31.6925
31.5511
31.5412
31.5139
31.5986
31.5703
31.5787
31.4508
31.4363
31.4123
31.487
31.4616
31.4745
31.3656
31.3438
31.3229
31.3885
31.366
31.3856
31.2941
31.2632
31.2449
31.3022
31.2826
31.311
31.2328
31.1927
31.1763
31.2269
31.2096
31.2474
31.1778
31.1289
31.1137
31.1601
31.1444
31.1912
31.1265
31.0694
31.055
31.0988
31.0839
31.1391
31.0783
31.013
30.9993
31.0409
31.0268
31.0901
30.9859
30.9725
31.0443
38.8212
37.1951
37.0407
37.464
38.0889
38.8404
54.774
57.0391
58.8057
2617.43
6652.88
28985.6
2605.87
6640.74
29032.7
3747.2
9468.81
25617.6
3730.32
9439.54
25656.9
3745.8
9460.37
25609.7
3751.31
9435.47
25601.9
3834.79
9569.54
25515.9
2698.88
6909.67
28732.9
2695.98
6907.79
28797.5
2542.1
6453.18
29261.3
2561.77
6537.13
29215.8
3566.31
9058.05
26029.1
3635.33
9195.45
25913.2
3599.23
9119.35
25967.5
3571.07
9065.88
26017.8
3590.89
9104.37
25982.2
3729.38
9439.4
25671.2
3718.22
9372.01
25714.2
3650.92
9233.72
25888.7
3696.24
9365.04
25796.7
3710.31
9365.58
25723.7
3698.09
9368.45
25770
3784.18
9438.26
25593
3757.6
9430.09
25600.5
3800.63
9467.32
25583.8
3840.61
9575.12
25532.2
2665.21
6842.79
28934.9
2516.66
6338.96
29419.3
2515.24
6320.52
29451.4
2499.02
6364.84
29369.1
2517.53
6392.82
29337.2
2597.64
6643.09
29097
3738.12
9449.2
25629.2
3732.44
9440.6
25641
3746.49
9453.16
25603.4
3748.31
9444.22
25601.1
3809.32
9556.9
25509.3
2686.51
6899.32
28871.8
2497.9
6239.3
29483.7
2508.13
6294.83
29471.9
2481.23
2496.85
6222.57
2502.3
6235.62
2530.18
6411.68
29303.2
2590.09
6647.08
29161.7
3561.57
9053.77
26038.9
3621.7
9164.74
25933.7
3609.26
9138.52
25950.9
3576.8
9077.24
26006
3583.36
9090.09
25993.3
3722.69
9382.24
25703
3670.22
9285.56
25862.4
3694.59
9356.76
25829.9
3704.92
9367.1
25737.4
3701.17
9368.5
25749.1
3772.16
9425.77
25597.9
3764.47
9426.45
25598.7
3820.73
9514.32
25571
3845.11
9582.87
25550.2
2759.89
7181.72
28529.8
2775.05
7223.89
28452.3
2912.7
7579.11
27961.8
3090.45
8040.8
27438.8
2939.48
7653.53
27897.1
3326.46
8775.73
26587.7
3206.01
8417.21
26945.3
3111.05
8096.79
27374.1
3192.85
8379.55
26999.1
3326.99
8780.77
26533
3370.55
8794.86
26355.8
3378.61
8793.17
26346.6
3816.05
9544.82
25504.2
3817.82
9539.11
25498.5
2495.01
2828.03
7363.63
28237.4
2855.89
7447.6
28165.5
2496.92
3016.74
7847.85
27616.2
3008.3
7839.15
27680.6
3258.64
8571.33
26744.5
3242.77
8527.35
26793.8
3142.98
8169.63
27196.4
3155.68
8194.06
27151.5
3342.39
8794.51
26425.1
3348.37
8795.57
26403.1
3405.44
8782.95
26322.3
3400.46
8785.85
26325.7
3715.62
9417.67
25684.7
2730.88
7084.86
28597
2700.14
6996.46
28653.1
2788.05
7253.1
28373.8
2880.75
7483.81
28025.2
3067.4
7978.78
27499.2
2969.18
7743.62
27826.8
3299.82
8691.72
26642.6
3218.26
8455.92
26894.6
3131.96
8155
27310.9
3177.5
8347.99
27044.9
3330.82
8788.76
26487.1
3363.7
8796.29
26368.6
3385.07
8772.63
26318.5
3391.73
8765.98
26318.3
3387.68
8791.69
26338.6
3538.63
9012.29
26138.4
3533.44
9005.1
26160.4
3456.73
8862.81
26250.3
3461.27
8858.43
26241.7
3393.24
8754.71
26320
3395.11
8745.95
26322
3452.19
8863
26259.7
3447.94
8861.28
26273.9
3545.87
9017.85
26120
3553.75
9024.04
26103.1
3814.7
9550.76
25504.6
3825.66
9550.79
2804.23
7292.94
28303.3
2871.38
7476.83
28093.4
3040.19
7905.22
27556
2996.89
7823.26
27753.9
3276.71
8622.15
26694.9
3229.38
8489.12
26843.3
3137.75
8165.16
27251.8
3174.04
8259.15
27111.5
3337.48
8793.94
26452.9
3356.38
8796.15
26383.4
3405.83
8780.17
26321.1
3394.19
8788.76
26331.6
3504.8
8940.62
26204
3520.77
8977.74
26184
3490.09
8909.94
26221.3
3475.73
8882.71
26231.8
3420.14
8799.07
26317
3408.55
8773.7
26323
3432.84
8830.28
26305
3444.62
8858.82
26289.4
3567.72
9036.75
26075.1
3561.99
9032.3
26088.9
3568.46
9039.28
26064.3
3552.19
9048.3
26048.2
)
;

boundaryField
{
    topAndBottom
    {
        type            slip;
    }
    inlet
    {
        type            fixedValue;
        value           uniform 32;
    }
    outlet
    {
        type            inletOutlet;
        inletValue      nonuniform List<scalar> 0();
        value           nonuniform List<scalar> 0();
    }
    wing
    {
        type            omegaWallFunction;
        value           nonuniform List<scalar> 
133
(
28985.6
29032.7
25617.6
25656.9
25609.7
25601.9
25515.9
28732.9
28797.5
29261.3
29215.8
26029.1
25913.2
25967.5
26017.8
25982.2
25671.2
25714.2
25888.7
25796.7
25723.7
25770
25593
25600.5
25583.8
25532.2
28934.9
29419.3
29451.4
29369.1
29337.2
29097
25629.2
25641
25603.4
25601.1
25509.3
28871.8
29483.7
29471.9
29303.2
29161.7
26038.9
25933.7
25950.9
26006
25993.3
25703
25862.4
25829.9
25737.4
25749.1
25597.9
25598.7
25571
25550.2
28529.8
28452.3
27961.8
27438.8
27897.1
26587.7
26945.3
27374.1
26999.1
26533
26355.8
26346.6
25504.2
25498.5
28237.4
28165.5
27616.2
27680.6
26744.5
26793.8
27196.4
27151.5
26425.1
26403.1
26322.3
26325.7
25684.7
28597
28653.1
28373.8
28025.2
27499.2
27826.8
26642.6
26894.6
27310.9
27044.9
26487.1
26368.6
26318.5
26318.3
26338.6
26138.4
26160.4
26250.3
26241.7
26320
26322
26259.7
26273.9
26120
26103.1
25504.6
28303.3
28093.4
27556
27753.9
26694.9
26843.3
27251.8
27111.5
26452.9
26383.4
26321.1
26331.6
26204
26184
26221.3
26231.8
26317
26323
26305
26289.4
26075.1
26088.9
26064.3
26048.2
)
;
    }
    front
    {
        type            empty;
    }
    back
    {
        type            empty;
    }
    procBoundary0to1
    {
        type            processor;
        value           nonuniform List<scalar> 
49
(
30.3849
30.4046
30.4294
30.4671
30.5865
30.5865
30.6806
30.8528
73.044
88.2461
187.749
1649.81
38.2516
43.2807
73.044
47.7293
148.439
861.812
1179.98
245.575
30.6268
30.7542
31.1193
31.223
31.7294
31.985
33.1607
33.7997
486.236
639.952
100.337
31.5193
31.3528
32.6766
32.2948
36.0482
34.6944
61.3138
53.43
317.064
375.646
120.616
41.1409
31.0332
30.9594
25496.2
3839.45
25496.2
9582.65
)
;
    }
    procBoundary0to2
    {
        type            processor;
        value           nonuniform List<scalar> 
58
(
31.9669
42.5138
97.9361
1092.73
430.488
1173.34
1173.34
1012.06
2475.63
2474.77
31.8838
31.915
31.915
31.9056
31.8798
32.142
31.9343
33.2189
32.2815
40.1012
33.8912
56.9726
58.373
81.8454
127.804
97.9361
303.427
150.304
658.726
31.9346
45.7278
31.8917
31.9023
31.8888
31.8809
32.0453
31.9789
32.7788
32.4835
36.6956
36.6956
34.964
50.2709
58.373
63.9442
71.3661
110.987
229.575
182.062
38.2105
29505.6
6191.36
6191.36
29505.6
29517.6
6127.01
2475.63
6147.06
)
;
    }
}


// ************************************************************************* //
