/*--------------------------------*- C++ -*----------------------------------*\
| =========                 |                                                 |
| \\      /  F ield         | OpenFOAM: The Open Source CFD Toolbox           |
|  \\    /   O peration     | Version:  v2012                                 |
|   \\  /    A nd           | Website:  www.openfoam.com                      |
|    \\/     M anipulation  |                                                 |
\*---------------------------------------------------------------------------*/
FoamFile
{
    version     2.0;
    format      ascii;
    class       volScalarField;
    location    "0";
    object      p;
}
// * * * * * * * * * * * * * * * * * * * * * * * * * * * * * * * * * * * * * //

dimensions      [0 2 -2 0 0 0 0];


internalField   nonuniform List<scalar> 
3019
(
658.484
657.689
655.725
651.623
646.125
633.87
613.978
582.258
534.349
465.232
370.976
251.188
658.961
658.443
657.084
654.028
648.534
638.068
620.338
593.993
550.718
486.505
396.119
277.378
660.178
660.291
660.277
659.466
655.555
649.248
637.182
615.314
579.685
522.42
434.765
309.782
661.592
662.592
664.441
666.741
665.622
665.392
661.8
648.553
626.5
583.852
505.645
373.395
662.244
664.25
668.2
674.092
676.841
684.145
691.707
691.61
690.18
674.463
623.595
493.278
661.161
664.17
670.217
679.751
687.045
702.314
721.862
737.841
764.439
792.968
805.886
727.804
657.422
661.308
669.181
681.904
693.852
716.324
746.759
778.723
833.171
913.142
1037.93
1215.94
650.198
654.725
663.907
678.911
694.96
722.707
760.832
804.969
877.829
988.733
1178.94
1587.45
638.856
643.71
653.538
669.676
688.815
719.201
760.701
810.794
887.913
994.713
1136.76
1272.69
623.052
627.894
637.665
653.716
674.689
705.034
745.872
796.354
868.155
958.497
1058.68
1136.9
602.761
607.272
616.327
631.172
652.703
680.72
717.801
764.927
827.851
904.535
989.379
1068.58
578.244
582.144
589.938
602.698
623.624
647.515
678.611
719.856
772.199
837.758
919.444
1020.69
1304.88
1147.39
1075.28
1027.35
1588.21
1077.48
1139.57
1262.41
1006.09
1065.78
1128.37
1107.62
1131.33
1169.33
938.091
1013.18
1058.71
1050.81
1088.55
1098.16
1005.94
992.127
1055.66
1074.96
1549.31
1268.63
2180.09
1618.94
1172.82
1191.48
1185.69
1189.15
1176.52
1250.36
1192.08
1100.72
1126.08
1098.68
1129.35
1102.84
1174.5
1132.26
1076.55
1088.36
1045.24
1091.54
1080.64
1101.37
1091.41
1054.13
986.559
1059.55
1079.01
1061.23
1155.38
1290.63
1501.95
1479.76
1610.6
2060.31
1202.61
1195.69
1264.3
1282.99
1548.8
1431.78
1229.39
2977.86
2154.59
1794.59
2200.46
1064.34
1036.68
1026.23
1428.66
1250.03
1387.85
1269.99
1469.61
1178.5
1251.27
1349.2
1969.2
2141.42
2832.23
1519.54
2039.37
1875.49
2036.72
1487.14
1182.86
1180.78
1182.3
1213.7
1164.94
1178.17
1177.29
1165.97
1206.22
1114.11
1112.15
1157.2
1153.76
1087.44
1086.36
1093.86
1093.27
1022.35
1069.11
1068.45
2551.2
3016.91
1091.21
1076.11
1070.05
1086.26
1078.42
1092.26
1048.94
1039.87
1065.34
1109.4
1099.17
1089.24
1108.14
1110.1
1106.22
1082.97
1059.48
1051.83
1068.09
1061.85
1084.05
1091.25
1104.8
1101.23
1092.88
1103.71
1084.88
1097.7
1101.9
1106.9
1099.64
1096.85
1091.39
1073.63
1081.23
1092.08
1083.62
1064.03
1203.81
1193.2
2683.9
2552.64
1329.11
1306.57
1332.13
1404.11
1333.81
1539.24
1432.97
1358.31
1205.81
1255.15
1225.04
1314.56
1267.78
1216.8
1694.87
1733.66
1581.31
1744.75
1664.44
1178.19
1182.73
1184.88
1183.97
1183.19
1180.5
1190.57
1191.9
1186.98
1189.64
1167.21
1198.14
1189.98
1218.2
1202.04
1167.67
1174.99
1185.12
1183.88
1188.3
1185.86
1175.74
1123.01
1117.93
1133.13
1123.73
1111.08
1110.3
1115.37
1111.02
1178.89
1167.48
1191.1
1182.44
1146.9
1135.59
1163.54
1151.44
1097.48
1103.72
1090.61
1109.19
1099.92
1104.11
1110.99
1099.32
1084.85
1103.3
1096.26
1100.05
1100.75
1096.33
1104.36
1103.51
1108.94
1104.09
1097.59
1101.67
1098.45
1097.12
1091.65
1096.6
1098.37
1078.26
1079.31
1072.09
1065.54
1085.61
1079.52
1148.82
1135.14
1120.32
1154.61
1140.2
1154.6
1115.61
1102.96
1112.98
1122.08
1123.97
1132.78
1135.28
1145.7
1141.05
1214.03
1385.03
1416.92
1269.65
1289.48
1315.12
1295
1180.43
1199.25
1193.9
1276.41
1260.21
1235.99
1991.31
1793.92
1769.39
1931.44
1890.26
2031.92
1462.46
1504.94
1537.31
1177.75
1179.74
1189.27
1180.93
1181.77
1182.04
1201.97
1204.21
1191.54
1190.85
1167.28
1174.52
1173.09
1190.12
1186.02
1175.29
1173.52
1176.99
1178.94
1173.12
1174.94
1170.22
1117.06
1122.37
1119.75
1107.7
1110.67
1114.99
1164.87
1175.36
1165.51
1176.77
1172.41
1205.32
1201.73
1136.77
1168.01
1163.64
1144.49
1149.73
1161.18
1104.16
1099.48
1099.6
1093.94
1090.85
1089.18
1095.3
1093.44
1097.62
1065.99
1063.44
1084.49
1082.15
1079.56
1087.68
1085.23
1088.88
1073.62
1072.2
1076.7
1061.1
1066.83
1208.48
1175.24
3090.99
2909.17
2272.46
2138.68
2703.11
2457.86
2538.14
1354.32
1286.8
1222.42
1208.18
1188.02
1225.77
1246.92
1234.87
1703.84
1782.76
1834.96
2021.06
1907
1595.12
1559.31
1629.36
1179.95
1181.3
1178.9
1182.04
1181.71
1181.05
1196.67
1199.23
1191.89
1194.22
1176.48
1175.61
1167.96
1170.73
1181.63
1178.26
1177.38
1176.61
1172.91
1173.92
1176.8
1177.66
1121.93
1123.02
1123.14
1118.96
1121.74
1120.23
1128.78
1126.21
1133.64
1122.17
1122.23
1125.3
1111.21
1112.82
1111.82
1112.92
1113.26
1111
1113.2
1112.8
1115.53
1110.73
1110.92
1111.67
1185.91
1181.36
1175.22
1178.53
1182.53
1170.19
1174.34
1171.37
1195.28
1190.11
1151
1147.84
1142.96
1145.68
1148.84
1137.99
1133.32
1137.03
1159.57
1161.85
1166.02
1153.57
1157.69
1155.53
1159.52
1155.42
1098.75
1095.47
1094.07
1098.84
1097.25
1101.17
1104.76
1101.3
1106.79
1109.16
1100.75
1091.56
1088.26
1089.18
1093.02
1092.54
1092.18
1097.8
1093.86
1096.46
1106.72
1104.49
1107.21
1109.02
1111.19
1106.66
1107.69
1105.81
1098.35
1099.68
1096.38
1096.59
1077.98
1076.13
1076
1077.82
1076.73
1078.32
1084.28
1078.11
1077.37
1076.43
1077.29
1081.85
608.838
582.252
563.061
570.854
528.855
504.5
511.288
448.159
420.874
422.536
333.767
308.936
299.311
639.21
621.233
590.381
613.119
580.319
539.344
565.856
508.789
460.148
484.239
391.362
344.849
353.485
680.202
675.704
633.513
672.829
657.351
597.159
649.002
608.902
529.573
588.719
498.227
412.4
455.785
726.44
740.975
691.508
745.756
758.697
680.545
761.621
760.154
641.572
753.676
694.14
536.564
652.636
769.569
803.944
757.446
817.525
866.005
786.108
885.328
954.186
806.426
980.319
1053.55
765.471
1060.27
800.252
849.792
817.634
869.825
944.859
889.914
976.508
1104.26
1001.1
1163.7
1500.7
1173.42
1402.7
1558.79
1172.13
811.359
866.654
856.88
888.583
967.3
955.973
998.648
1111.57
1119.2
1179.98
1247.37
1250.43
1564.37
1653.87
1689.87
801.742
854.922
866.158
875.331
944.304
964.758
969.756
1050.65
1098.52
1116.9
1149.72
1175.9
1245.61
1247.94
1276.81
774.223
821.598
848.342
839.489
898.141
934.365
919.184
984.522
1034.01
1040.57
1062.17
1081.62
1126.83
1135.68
1150.18
732.287
772.238
810.616
787.427
837.479
884.264
855.831
916.195
968.03
972.694
994.08
1010.27
1062.34
1073.63
1081.81
757.747
820.042
897.214
899.508
924.79
942.942
1013.61
1031.87
1041.21
1312.69
1356.72
1342.54
1155.09
1169.63
1158.76
1085.02
1095.12
1082.5
1044.36
1052.37
1033.62
2074.16
1712.25
1467.38
1138.43
1593.08
1102.56
1125.21
1096.95
1180.31
1150.14
1114.74
1211.73
1166.49
1197.27
1026.77
1043.98
1023.09
1089.55
1061.98
1038.18
1101.55
1073.15
1098.46
1116.24
1130.6
1117.03
1136.99
1133.27
1127.98
1164
1159.62
1165.05
960.921
977.795
955.717
1032.98
997.275
975.416
1028.23
1006.99
1039.26
1064.27
1071
1056.45
1089.06
1082.67
1081.52
1094.44
1091.86
1095.63
964.814
937.134
981.555
1017.29
1028.32
1006.1
1059.45
1047.6
1041.19
1064.4
1061.5
1070.18
1487.03
1448.55
1549.45
1237.78
1269.17
1290.56
2130.62
2255.74
2325.68
1615.27
1707.32
1697.72
1180.31
1172.47
1159.18
1193.77
1177.18
1182.41
1171.31
1175.24
1189.08
1186.76
1184.19
1185.75
1187.1
1187.43
1179.44
1235.33
1211.8
1230.31
1186.16
1188.79
1195.78
1103.33
1099.96
1097.13
1122.97
1118.3
1121.26
1090.3
1099.05
1111.52
1126.93
1127.97
1130.64
1104.48
1105.58
1103.82
1168.53
1178.57
1186.01
1133.39
1136.32
1134.92
1080.22
1069.61
1067.19
1080.41
1079.16
1087.56
1039.57
1055.07
1061.89
1091.63
1095.15
1094.73
1085.07
1087.07
1082.33
1100.3
1101.91
1103.21
1094.25
1093.83
1091.29
1039.2
1013.35
1057.18
1061.25
1063.56
1077.29
1081.27
1083.31
1066.11
1065.46
1061.2
1202.88
1228.45
1170.79
1393.73
1281.81
1232.05
1308.1
1300.22
1429.58
1534.41
1600.09
1525.79
1824.12
1676.05
1555.78
1825.15
1712.71
1898.23
1204.71
1224.1
1222.45
1214.26
1228.04
1200.75
1283.66
1239.82
1223.37
1364.11
1375.37
1302.89
1512.66
1406.59
1401.34
1385.31
1409.11
1468.97
2900.81
3069.55
3153.32
2165.38
2309.3
2284.52
1754.38
2313.94
2015.77
2260.36
1774.27
2788.86
2439.98
2088.85
1053.37
1050.6
1060.99
1033.42
1041.95
1045.01
1035.18
1038.65
1029.93
1348.71
1420.13
1433.39
1500.26
1457.7
1426.83
1316.99
1282.07
1329.83
2041.71
2155.58
2057.37
2480.49
2270.82
2060.12
2502.81
2410.04
2586.9
1571.71
1598.11
1547.01
2028.01
1943.48
1945.38
1783.87
1811.55
1925.71
1184.57
1183.74
1184.85
1180.57
1187.05
1185.58
1196.95
1207.37
1223.25
1200.4
1189.92
1194.72
1115.18
1117.03
1115.8
1110.65
1111.68
1113.35
1159.64
1162.78
1159.85
1150.92
1153.03
1156.33
1090.77
1092.04
1088.55
1085.61
1088.85
1089.5
1096.07
1096.3
1094.64
1092.66
1094.5
1095.4
1031.69
1072.66
1073.15
1069.88
1067.81
1072.33
1072.44
2787.85
2871.93
1085.77
1084.08
1089.5
1074.01
1079.13
1081.01
1075.82
1077.4
1071.96
1083.5
1087.8
1090.47
1083.06
1085.31
1080.84
1093.38
1089.47
1087.42
1046.01
1053.77
1056.66
1047.95
1050.84
1042.93
1068.65
1058.65
1055.98
1106.37
1103.02
1106.18
1095.67
1099.49
1102.93
1093.3
1096.28
1092.33
1109.03
1107.27
1106.25
1108.96
1108.15
1109.64
1105.23
1106.67
1107.69
1073.71
1071.68
1080.82
1057.07
1064.33
1066.57
1059.44
1061.98
1054.49
1066.15
1072.6
1074.24
1068.75
1070.77
1064.04
1086.84
1077.61
1075.74
1095.22
1095.36
1091.55
1097.95
1098.85
1102.86
1083.99
1089.27
1090.23
1099.15
1100.51
1098.76
1103.83
1102.13
1100.53
1105.01
1103.6
1105.37
1098.3
1096.19
1097.01
1095.34
1095.63
1097.37
1091.29
1093.56
1093.47
1076.82
1078.95
1075.41
1061.68
1063.49
1068.89
2788.23
2944.28
2801.86
3364.92
3254.68
2419.38
2458.53
2619.12
1361.33
1337
1309.55
1378.24
1359.65
1385.12
1315.56
1336.62
1355.02
1500.34
1481.78
1522.94
1413.44
1445.32
1465.09
1389.48
1420.46
1388.76
1243.44
1227.47
1239.54
1210.38
1217.64
1233.34
1297.08
1279.55
1296.44
1251.87
1264.95
1281.63
1716.57
1654.27
1629.43
1678.93
1669.07
1728.08
1566.96
1615.97
1628.37
1182.79
1181.75
1181.51
1184.84
1181.3
1183.11
1183.91
1182.82
1182.48
1182.22
1182.67
1183.61
1191.38
1195.22
1193.6
1197.54
1196.67
1191.9
1188.13
1189.25
1188.02
1191.88
1190.3
1188.8
1194.92
1186.02
1188.25
1182.44
1184.12
1192.25
1212.16
1199.78
1204.76
1191.22
1195.14
1206.77
1184.39
1181.02
1181.54
1181.67
1180.99
1183.95
1187.23
1181.58
1181.54
1181.93
1181.91
1186.54
1189.09
1194.88
1197.34
1186.36
1190.6
1185.96
1089.68
1093.42
1094.57
1088.98
1087.94
1084.91
1099.04
1097.93
1098.41
1099.35
1097.83
1096.96
1095.51
1096.87
1097.97
1093.55
1093.85
1092.06
1096.49
1095.49
1095.28
1097.55
1096.23
1096.86
1070.87
1073.98
1075.17
1070.5
1071.99
1066.95
1144.22
1138.73
1142.89
1130.15
1134.48
1139.68
1124.28
1129.3
1125.14
1149.97
1154.67
1159.18
1144.85
1149.86
1145.11
1160.07
1154.78
1149.61
1111.18
1114.9
1119.45
1106.65
1110.62
1106.91
1116.9
1113.98
1110.02
1123
1125.34
1124.25
1126.26
1126.02
1123.67
1131.72
1128.85
1129.49
1138.07
1137.4
1134.42
1144.34
1140.86
1142
1138.15
1139.53
1142.81
1925.36
1934.29
2009.15
1792.16
1861.72
1856.34
1854.09
1862.01
1785.7
1119.05
1118.1
1116.2
1121.73
1119.94
1120.82
1117.9
1118.95
1120.88
1108.86
1110.15
1108.92
1111.66
1111.08
1109.9
1114.31
1112.57
1113.13
1168.49
1165.62
1162.25
1172
1168.9
1172.01
1163.14
1165.89
1168.76
1146.24
1149.61
1147.43
1153.6
1151.63
1148.01
1158.76
1155.24
1157.43
635.002
626.563
625.143
615.723
601.847
599.839
584.571
563.323
560.641
537.397
506.114
502.738
468.861
425.146
421.388
374.686
317.527
314.085
254.118
185.377
183.193
651.427
647.841
643.949
642.941
636.404
630.355
627.694
615.853
602.105
598.499
589.729
584.65
556.854
543.32
536.589
493.959
474.119
466.114
403.934
376.591
368.464
283.74
249.09
242.824
660.346
659.001
652.915
656.806
653.49
644.179
648.599
643.529
621.789
622.555
615.943
608.068
589.705
578.522
567.817
535.215
517.135
503.834
449.063
421.491
407.332
322.037
283.769
272.793
671.475
673.118
665.789
674.643
675.858
664.199
676.433
680.662
652.002
658.487
655.352
644.4
640.955
633.999
618.25
603.689
589.526
568.385
530.024
503.248
478.343
396.671
351.74
330.415
682.728
687.763
680.457
693.538
699.976
687.931
707.065
721.854
690.757
703.182
705.038
692.077
708.494
708.318
688.077
701.696
696.366
666.306
662.529
642.315
600.759
537.532
483.527
441.578
691.772
700.128
694.294
710.079
721.708
711.428
735.331
759.911
731.802
748.962
756.688
744.117
782.842
792.614
771.674
824.468
835.364
799.034
861.88
865.065
800.629
818.625
764.463
670.694
696.161
707.27
704.395
720.666
736.511
730.252
755.442
786.696
767.731
787.018
800.05
790.626
847.282
866.398
850.207
938.177
968.498
939.116
1090.14
1145.92
1079.52
693.894
706.75
707.925
722.295
740.677
740.075
762.632
796.068
790.531
808.473
824.67
820.65
883.642
907.489
901.063
996.313
1033.46
1026.04
683.817
697.257
703.025
713.461
732.507
738.161
755.057
786.668
795.17
809.02
825.852
827.72
885.367
908.427
911.502
988.242
1018.46
1027.01
665.65
678.583
688.927
694.099
712.182
723.794
733.364
760.577
781.356
789.992
805.638
812.44
859.72
879.922
889.108
946.225
969.795
983.39
639.868
651.391
665.904
665.144
681.03
697.852
699.452
720.734
751.593
754.864
768.439
779.104
815.273
832.588
845.869
889.13
909.367
925.375
634.932
661.958
708.802
706.814
717.782
731.551
756.12
770.454
787.335
818.603
836.728
856.472
1696.81
1671.07
1565.45
994.526
1125.75
1151.69
1144.35
1131.93
1248.31
1226.37
1237.77
1073.24
1063.65
1055.99
1120.24
1109.44
1117.87
1020.04
1006.94
999.616
1048.55
1041.52
1052.01
1088.61
1085.72
1085.84
991.83
983.827
998.312
1056.52
1051.96
1050.28
1070.73
1069.75
1073.43
1175.66
1171.39
1167.9
1193.06
1188.54
1187.95
1179.52
1180.57
1177.4
1173.09
1176.26
1178.03
1077.98
1073.58
1072.71
1085.07
1085.19
1088.27
1048.81
1047.16
1052.12
995.413
1322.39
1299.04
1272.68
1431.84
1419.89
1487.02
1678.42
1653.74
1595.73
1956.61
1935.6
2024.25
1200.74
1204.51
1198.35
1273.58
1257.37
1248.22
1305.35
1315.34
1292.65
1541.58
1492.21
1493.35
2355.75
2337.13
2189.04
1060.02
1059.41
1063.46
2252.22
2217.52
2118.38
2667.44
2633.93
2760.41
1183.73
1184.77
1182.7
1181.89
1183.19
1183.33
3184.93
3161.92
2990.07
1089.23
1088.77
1090.63
1093.99
1089.66
1090.09
1066.26
1062.28
1061.66
1079.29
1078.86
1082.17
1085
1081.26
1080.78
601.112
595.155
603.285
575.307
585.557
592.094
574.606
579.954
568.985
558.477
550.535
563.298
519.988
535.691
544.242
521.59
528.451
511.956
492.399
482.794
501.865
438.16
460.974
471.009
444.833
452.643
429.143
395.392
385.51
412.315
324.667
355.489
365.294
340.21
347.567
316.413
263.617
256.04
290.6
218.461
225.224
208.425
213.252
634.144
624.651
630.546
609.935
617.791
628.175
599.704
608.293
599.643
603.74
590.497
600.85
565.096
578.594
592.846
554.286
565.75
551.449
549.317
532.266
549.669
490.394
512.508
530.351
482.94
496.756
474.209
456.637
437.827
465.505
373.34
407.036
425.675
377.146
391.022
357.975
312.263
296.83
336.486
254.308
267.74
233.32
242.925
679.29
666.963
669.034
660.808
664.258
677.786
639.419
651.469
646.727
668.997
650.937
656.423
635.698
644.111
663.901
608.526
625.625
615.627
638.452
612.857
625.393
579.451
597.677
625.261
550.372
572.746
553.061
564.036
531.68
557.625
465.252
501.041
534.1
447.309
472.287
436.857
406.445
376.829
423.89
324.139
350.181
283.552
302.168
731.217
718.13
714.827
724.375
721.348
736.1
692.089
706.642
707.855
750.465
729.284
727.054
731.457
730.874
754.872
684.924
707.232
705.193
763.262
728.586
730.712
717.042
724.276
762.893
655.551
688.563
677.588
741.912
689.193
705.781
633.274
665.629
722.865
572.076
615.66
581.203
595.345
534.013
590.022
464.028
519.927
381.247
418.615
780.16
768.771
759.569
789.161
778.606
791.551
750.699
764.924
773.579
832.243
812.923
800.642
840.341
826.16
848.372
778.944
802.857
813.494
906.422
871.489
855.515
904.86
888.098
929.409
803.677
845.74
855.009
1007.49
934.909
920.807
944.684
944.555
1033.58
788.315
862.195
848.628
1031.86
882.823
928.009
793.279
1031.22
589.726
678.628
815.188
808.303
794.216
840.825
823.773
831.64
803.508
814.308
830.004
892.088
880.5
859.621
929.967
903.808
916.941
869.051
887.674
911.441
1012.76
993.412
959.579
1078.38
1032.43
1054.71
968.268
1003.14
1043.29
1236.24
1200.04
1133.1
1409.63
1284.61
1332.89
1125.56
1212.97
1293.68
1415.91
1393.23
1509.02
828.18
827.135
810.515
865.31
845.343
846.564
837.884
842.465
862.06
912.524
911.256
887.203
966.983
937.736
938.682
926.952
933.919
963.351
1032.97
1035.45
999.405
1120.8
1075.72
1070.52
1069.01
1075.7
1124.06
818.138
822.619
805.924
860.164
840.674
835.853
846.129
844.135
863.952
897.03
903.532
881.118
952.879
927.448
920.03
937.067
933.218
959.813
996.21
1008.02
979.779
1067.21
1037.3
1023.33
1061.61
1050.25
1083.37
788.909
797.758
782.539
831.593
814.093
804.685
829.754
822.478
840.536
858.219
869.593
850.135
911.161
889.955
877.786
911.195
901.124
923.268
940.756
955.562
933.092
1000.95
978.304
962.635
1008.71
993.671
1017.43
1140.47
1135.58
1131.58
1145.5
1141.47
1145.49
744.623
756.919
743.919
785.9
770.868
757.892
794.307
783.022
798.702
803.317
818.402
801.792
853.962
835.786
819.985
864.684
850.68
869.542
875.057
892.638
872.923
934.113
913.058
895.173
946.616
930.141
951.303
1076.12
1070.86
1069.06
1076.85
1074.74
1079.03
744.119
729.593
742.452
803.257
785.576
801.59
876.258
856.084
876.901
1034.94
1026.48
1024.37
1033.03
1031.11
1038.31
1088.11
1083.38
1080.96
1090.54
1087.77
1091.65
1047.03
1039.16
1037.43
1044.86
1043.31
1049.94
1999.93
1801.98
1837.79
1623.39
1725.52
1855.97
1523.71
1615.69
1539.94
1269.87
1219.33
1082.68
1587.23
1384.57
1419.25
1293.2
1508.97
1172.66
1157.96
1165.19
1123.5
1135.45
1124.47
1216.24
1206.55
1188.84
1080.44
1071.88
1081.18
1054.98
1063.03
1071.63
1046.59
1054.34
1044.52
1092.92
1101.18
1111.73
1081.21
1090.67
1080.87
1107.88
1099.17
1089.62
1120.84
1116.11
1112.36
1125.73
1121.8
1125.82
1020.95
1014.11
1026.64
991.544
1002.17
1009.24
986.795
994.318
981.523
1022.35
1031.38
1038.58
1016.8
1023.76
1012.65
1045.54
1034.55
1027.82
1066.34
1060.23
1058.85
1065.36
1063.81
1068.78
1086.52
1086.5
1088.85
958.305
970.201
978.372
951.272
960.96
947.811
990.172
975.21
965.981
1021.2
1012.81
1008.37
1019.51
1017.34
1025.04
1054.75
1053.71
1057.77
1045.96
1048.91
1040.92
1071.71
1067.72
1066.72
1480.75
1492.86
1460.67
1558.54
1525.82
1514.37
1246.96
1259.65
1248.28
1282.73
1268.56
1257.02
1177.76
1174.63
1178.08
1168.05
1171.35
1175.23
1163.43
1167.44
1163.59
1187.9
1188.53
1193.88
1179.27
1183.65
1182.32
1184.92
1184.54
1181.01
1184.75
1185.91
1185.04
1187.57
1186.5
1185.24
1187.59
1183.89
1183.06
1184.64
1184.4
1187.66
1178.9
1181.45
1182.01
1217.38
1227.31
1219.93
1241.62
1232.48
1223.24
1186.83
1189.6
1188.17
1192.42
1190.44
1187.63
1102.92
1098.39
1095.26
1106.94
1103.47
1107.25
1171.55
1174.01
1170.5
1181.58
1177.63
1174.94
1181.76
1179.96
1184.17
1075.82
1075.36
1079.39
1087.93
1084.27
1084.21
1057.32
1050.21
1048.79
1055.26
1053.92
1059.81
1037.94
1042.23
1043.8
1004.33
1355.51
1327.14
1357.23
1461.61
1403.12
1381.86
1771.33
1713.15
1750.3
1641.11
1674.11
1719.81
1575.91
1624.95
1595.34
1769.23
1820.86
1737.83
1967.81
1888.58
1829.96
1220.42
1211.81
1206.85
1217.62
1215.25
1224.87
1200.03
1207.06
1208.54
1267.24
1263.22
1279.86
1236.13
1248.9
1252.47
1234.56
1243.12
1230.8
1372.43
1341.82
1332.28
1348.87
1346.85
1375.91
1299.07
1321.4
1324.03
1476.12
1485.36
1528.89
1408.64
1445.14
1438.54
1444.29
1447.5
1407.62
1921.12
2103.59
2086.17
2044.16
2182.96
2729.15
2512.85
2543.47
2316.33
2430.4
2602.9
2149.38
2278.58
2195.1
1062.29
1057.63
1056.77
1370.51
1384.22
1361.38
1433.23
1406.52
1393.89
1296.82
1310.27
1294.22
1343.25
1324.19
1312.14
2407.89
2317.35
2366.27
2089.91
2177.71
2120.41
2676.69
2570.32
2503.22
1183.78
1183.95
1184
1184.52
1184.05
1183.6
1182.52
1182.87
1180.97
1186.66
1184.73
1184.73
1184.35
1184.65
1186.26
1200
1207.33
1202.84
1216.01
1210.22
1203.22
1191.33
1196.04
1193.53
1200.78
1197.45
1192.72
2835.76
3008.06
3363.02
3398.43
3145.54
3272.06
2957.84
3112.44
3026.94
1089.97
1087.66
1087.41
1064.81
1064
1067.45
1081.32
1077.47
1077.18
1083.02
1082.69
1086.06
646.363
641.459
640.652
1000.25
1005.71
993.253
803.721
891.203
1479.5
1407.29
1431.53
1457.74
1367.43
1320.96
1183.16
1288.77
1290.14
936.852
918.352
912.552
1159.76
1155.59
1151.4
1166.42
1161.68
1164.73
2063.02
1956.96
1973.03
1139.08
1148.84
1162.61
1197.51
1212.34
1231.35
1178.06
1194.18
1179.11
1181.39
1176.69
1172.71
1268.14
1296.66
1318.09
1252.42
1273.84
1247.05
1313.15
1364.4
1376.55
1337.48
1350.64
1305.97
2101.25
1993.53
1915.47
1771.97
1914.44
1928.9
610.867
617.532
621.608
609.951
612.739
606.192
635.659
640.243
647.046
627.657
633.168
628.351
670.587
671.664
680.756
654.973
662.995
661.027
711.421
707.865
717.598
689.62
699.139
701.172
750.941
742.517
751.32
725.786
735.311
741.787
781.231
768.738
774.767
757.102
764.748
775.192
795.23
780.514
782.592
776.664
780.82
793.761
790.433
775.372
773.269
780.07
780.024
793.634
768.281
754.251
748.369
766.677
762.615
775.527
731.657
719.518
710.392
738.427
730.853
742.196
697.838
687.296
696.512
971.198
874.499
940.821
1337.93
1382.39
1450.04
1892.47
1940.95
2040.85
1196.66
1177.66
1148.62
1220.77
1211.49
1189.39
1097.5
1100.1
1102.43
1105.61
1108.58
1112.6
1097.6
1102.25
1107.98
1082.81
1082.06
1082.11
1085.26
1088.31
1092.71
1172.47
1165.77
1150.98
1185.96
1188.84
1178.34
1287.79
1277.77
1242.12
1269.59
1259.04
1225.84
1101.46
1100.53
1100.37
1103.16
1103.74
1104.12
1098.26
1098.19
1098.25
1098.57
1098.67
1098.63
1097.85
1097.83
1097.91
1104.57
1105.62
1107.69
1099.63
1099.29
1099.08
1106.4
1107.57
1108.43
1118.4
1126.96
1135.55
1101.05
1100.54
1100.54
1114.33
1117.89
1122.47
1079.67
1079.42
1079.37
1080.71
1080.14
1079.77
1081.72
1082.15
1082.43
1092.74
1102.85
1113.83
1182.94
1162.98
1124.73
1417.76
1410.08
1362.37
1451.59
1438.22
1379.07
1374.09
1358.62
1317.56
1329.17
1323.48
1274.82
1243.1
1244.33
1229.88
1097.93
1099.51
1101.02
1101.08
1103.17
1105.22
1092.53
1093.59
1095.91
1086.5
1085.68
1086.16
1071.39
1071.91
1072.39
1187.61
1188.34
1171.84
1564.93
1537.82
1464.77
1495.65
1463.88
1382.74
1833.94
1638.27
1636.81
1705.09
1699.3
1307.29
1299.94
1259.52
1254.9
1248.57
1219.32
1102.27
1100.85
1100.71
1100.58
1100.55
1100.48
1099.02
1098.85
1098.8
1097.25
1097.48
1097.5
1097.44
1097.52
1097.62
1099.29
1099.99
1100.62
1110.34
1112.48
1114.11
1114.35
1118.56
1121.03
1102.94
1102.2
1102.48
1107.19
1106.74
1107.78
1079.34
1079.43
1079.77
1079.71
1079.72
1079.84
1085.86
1088.39
1090.31
1089.84
1095.15
1098.71
1161.48
1160.72
1146.3
1165.18
1167.79
1160.89
1152.48
1142.53
1129.21
1175.45
1176.81
1175.4
1156.83
1152.76
1144.87
1211.07
1217.01
1221.03
1190.79
1191.84
1192.33
1180.34
1182.95
1183.38
1189.03
1191.82
1193.84
1214.69
1225.43
1237.01
1174.79
1175.53
1177
1169.99
1170.24
1171.03
1071.69
1071.02
1070.92
1068.3
1069.43
1070.15
2062.01
1153.65
1146.66
1134.6
1156.08
1152.63
1142.48
1959.64
1170.41
1169.67
1168.98
1173.14
1177.29
1178.81
1198.63
1199.7
1200.4
1195.73
1196.8
1197.43
1178.01
1176.64
1176.43
1172.93
1166.68
1161.43
1193.84
1195.04
1197.53
1189.46
1190.45
1192.29
1151.1
1150.93
1151.37
1156.44
1156.6
1157.42
1097.78
1100.84
1102.28
1155.13
1148.17
1126.28
1155.81
1140.25
1119.13
1161.46
1159.69
1151.53
1157.49
1155.17
1151.28
1168.31
1164.43
1158.42
1164.66
1164.61
1159.82
1206.64
1209.71
1212.07
1190.89
1191.62
1191.62
1181.67
1183.78
1183.87
1180.03
1181.33
1180.28
1207.81
1211.01
1215.46
1179.32
1179.98
1181.33
1138.86
1140.34
1141.44
1135.45
1133.76
1133.67
1165.37
1165.65
1166.31
1115.49
1118.64
1121.66
1115.52
1118.25
1119.98
1115.1
1114.16
1113.88
1111.83
1110.2
1109.63
1130.23
1127.76
1126.75
1123.61
1120.34
1117.75
1119.66
1120.15
1120.98
1123.69
1126.7
1129.61
1112.67
1113.5
1114.52
1109.8
1109.72
1109.97
1072.26
1069.46
1068.39
1066.56
1067.32
1155.71
1149.44
1138.56
1159.3
1160.4
1156.16
1165.89
1159.05
1151.67
1170.35
1172.62
1169.9
1202.2
1203.94
1205.33
1192.98
1194.34
1195.08
1181.97
1185.32
1188.63
1173.34
1167.98
1161.51
1198.79
1198.56
1199.79
1184.18
1184.53
1185.54
1146.13
1146.25
1146.78
1161.27
1162.14
1163.68
1112.52
1113.34
1113.33
1114.31
1115.84
1116.35
1110.14
1109.17
1107.71
1109.28
1106.15
1103.08
1121.75
1121.37
1119.96
1119.97
1116.2
1111.76
1124.12
1125.54
1125.72
1124.64
1126.92
1128.03
1106.73
1107.43
1108.23
1108.21
1108.42
1108.79
1104.66
1105.34
1106.22
1099.93
1101.35
1101.92
)
;

boundaryField
{
    topAndBottom
    {
        type            slip;
    }
    inlet
    {
        type            zeroGradient;
    }
    outlet
    {
        type            fixedValue;
        value           nonuniform List<scalar> 0();
    }
    wing
    {
        type            zeroGradient;
    }
    front
    {
        type            empty;
    }
    back
    {
        type            empty;
    }
    procBoundary0to1
    {
        type            processor;
        value           nonuniform List<scalar> 
49
(
550.041
553.136
559.268
569.181
607.457
607.457
628.075
655.521
972.509
983.57
1018.25
1064.16
877.726
913.51
972.509
927.009
1009.23
1055.37
1060.38
1027.5
616.884
640.855
693.063
703.318
739.211
752.679
798.274
815.68
1045.25
1050.2
991.43
726.386
714.346
782.077
766.925
854.859
834.46
956.233
941.312
1035.2
1040.24
1000.28
900.63
683.351
673.689
1067.68
1068.43
1067.68
1070.06
)
;
    }
    procBoundary0to2
    {
        type            processor;
        value           nonuniform List<scalar> 
58
(
111.424
871.81
2622.63
2968.68
3631.26
2760.25
2760.25
3206.42
2190.76
2438.02
186.089
171.209
171.209
220.437
192.45
287.543
233.316
425.922
312.814
777.668
483.169
1320.12
1692.97
2323.33
3093.13
2622.63
3657.62
3272.31
3491.1
112.682
984.571
180.843
175.749
209.496
200.225
266.356
248.475
380.238
343.229
651.917
651.917
556.679
1129.97
1692.97
1875.64
2080.83
2896.94
3587.53
3446.58
695.298
1585.88
1810.54
1810.54
1585.88
1612.28
2044.12
2190.76
1952.3
)
;
    }
}


// ************************************************************************* //
