/*--------------------------------*- C++ -*----------------------------------*\
| =========                 |                                                 |
| \\      /  F ield         | OpenFOAM: The Open Source CFD Toolbox           |
|  \\    /   O peration     | Version:  v2012                                 |
|   \\  /    A nd           | Website:  www.openfoam.com                      |
|    \\/     M anipulation  |                                                 |
\*---------------------------------------------------------------------------*/
FoamFile
{
    version     2.0;
    format      ascii;
    class       volVectorField;
    location    "0";
    object      U;
}
// * * * * * * * * * * * * * * * * * * * * * * * * * * * * * * * * * * * * * //

dimensions      [0 1 -1 0 0 0 0];


internalField   nonuniform List<vector> 
3019
(
(99.9993 0.00196342 -1.51317e-19)
(99.999 0.00677963 5.10099e-24)
(99.998 0.0147614 -1.60747e-19)
(99.9966 0.0272315 -1.57512e-19)
(100 0.0212759 6.49508e-20)
(99.9984 0.0365082 0)
(99.9975 0.0593311 0)
(99.9967 0.0917983 -1.12555e-19)
(99.9957 0.135416 1.31892e-20)
(99.9949 0.189917 -8.72531e-20)
(99.9948 0.250078 1.05552e-20)
(99.996 0.30462 0)
(99.9928 0.00514893 6.373e-19)
(99.9893 0.0179514 1.69771e-19)
(99.9811 0.039664 1.18507e-18)
(99.9676 0.0739494 -4.99852e-19)
(99.9698 0.10254 7.12469e-20)
(99.9491 0.174624 -7.29516e-22)
(99.9226 0.284782 0)
(99.9114 0.387733 -5.02676e-20)
(99.8807 0.57754 -4.67668e-20)
(99.8538 0.820854 -8.22385e-20)
(99.8434 1.09759 -3.42116e-20)
(99.8641 1.35893 -4.50863e-20)
(99.9806 0.00607462 -6.37783e-19)
(99.9706 0.0220037 -1.36554e-18)
(99.9489 0.0513829 -3.05695e-18)
(99.9129 0.0998914 4.00188e-18)
(99.896 0.159909 -1.45708e-19)
(99.834 0.28007 -1.38662e-19)
(99.7499 0.465972 -2.34826e-19)
(99.6978 0.676451 0)
(99.5917 1.03362 1.86041e-19)
(99.4962 1.50671 4.02373e-20)
(99.4599 2.07139 -1.01994e-19)
(99.548 2.62732 -1.07124e-21)
(99.968 0.00337865 -3.20681e-19)
(99.949 0.0148195 2.40043e-18)
(99.9089 0.0427902 -6.86803e-19)
(99.8419 0.0950925 0)
(99.7929 0.176967 0)
(99.6705 0.327632 -1.12574e-18)
(99.4997 0.569447 -2.19391e-18)
(99.3567 0.877493 2.08564e-19)
(99.1121 1.38891 9.94772e-20)
(98.8669 2.10664 4.72503e-20)
(98.7449 3.01204 -1.32971e-19)
(98.9032 4.00353 3.71304e-20)
(99.9637 -0.00375359 0)
(99.9343 -0.00613428 0)
(99.8732 0.00908483 3.46008e-19)
(99.7704 0.0517982 5.15092e-19)
(99.6778 0.142697 3.75715e-19)
(99.4806 0.298744 0)
(99.1991 0.559669 0)
(98.9223 0.928702 0)
(98.464 1.5569 1.75473e-18)
(97.9681 2.47827 2.34925e-19)
(97.5671 3.82112 0)
(97.6777 5.5678 2.14043e-19)
(99.977 -0.0156022 0)
(99.9371 -0.0417372 0)
(99.855 -0.0515521 -6.9451e-19)
(99.7158 -0.0335688 1.3921e-18)
(99.5729 0.0496781 0)
(99.2966 0.181435 0)
(98.894 0.418011 4.56392e-19)
(98.4519 0.79301 1.76403e-19)
(97.7364 1.41383 2.53273e-19)
(96.8224 2.41303 -1.24967e-18)
(95.7547 4.17797 1.51628e-18)
(95.2369 7.21837 -1.43281e-18)
(100.017 -0.0318641 1.58419e-19)
(99.9675 -0.0910444 -1.70543e-19)
(99.867 -0.137432 3.48025e-19)
(99.6957 -0.158729 -1.25719e-18)
(99.5021 -0.101869 1.30847e-21)
(99.1536 -0.0246567 4.64611e-19)
(98.6405 0.140067 -2.36247e-18)
(98.0349 0.449628 -2.50017e-19)
(97.0806 0.924597 5.95742e-19)
(95.6588 1.73481 4.02112e-19)
(93.4712 3.30102 1.12246e-18)
(90.145 7.39559 2.77288e-18)
(100.092 -0.0516687 -1.58333e-19)
(100.035 -0.151308 1.70386e-19)
(99.9206 -0.243288 -2.16123e-19)
(99.7258 -0.315254 -1.42991e-19)
(99.488 -0.301579 2.69607e-19)
(99.0855 -0.303058 1.5647e-19)
(98.4926 -0.248836 1.22559e-18)
(97.7683 -0.070743 2.26967e-19)
(96.6674 0.141076 0)
(94.9439 0.464543 1.64944e-19)
(92.1391 0.840112 -9.36643e-19)
(86.6718 0.938266 9.91654e-19)
(100.207 -0.0737128 -7.63331e-20)
(100.145 -0.21846 -6.12468e-20)
(100.024 -0.36152 -2.09665e-20)
(99.8164 -0.49103 6.25458e-20)
(99.5459 -0.532079 -4.94199e-22)
(99.1147 -0.625238 0)
(98.484 -0.699571 2.00415e-19)
(97.7094 -0.683869 -1.31887e-21)
(96.5921 -0.752811 4.17289e-21)
(94.9112 -0.897148 -2.09773e-19)
(92.6149 -1.37749 -9.29372e-20)
(90.3227 -2.90691 -3.30329e-20)
(100.365 -0.0964587 1.5031e-19)
(100.303 -0.287783 2.35181e-21)
(100.181 -0.483415 0)
(99.9722 -0.67252 8.25388e-21)
(99.6827 -0.774016 -3.69051e-20)
(99.2485 -0.960673 3.82182e-20)
(98.6206 -1.16194 0)
(97.8529 -1.30165 -4.02787e-21)
(96.8043 -1.59406 1.5787e-19)
(95.2841 -2.00765 1.83886e-19)
(93.4297 -2.64466 0)
(91.8551 -3.45621 -2.0043e-20)
(100.567 -0.118401 -7.39527e-20)
(100.507 -0.354632 7.95674e-20)
(100.39 -0.600508 7.76411e-20)
(100.191 -0.846755 -7.12996e-20)
(99.8971 -1.00846 -3.63365e-20)
(99.4821 -1.28155 0)
(98.8887 -1.59674 -7.4504e-20)
(98.1643 -1.87046 5.70451e-20)
(97.2116 -2.32957 -2.82023e-19)
(95.8193 -2.90232 -1.62833e-19)
(94.1108 -3.56968 -4.15629e-19)
(92.6011 -4.13409 6.24624e-20)
(100.81 -0.138164 2.71769e-19)
(100.755 -0.41461 0)
(100.649 -0.705075 -7.74076e-20)
(100.469 -1.00149 0)
(100.181 -1.21946 0)
(99.8031 -1.56616 -1.05217e-19)
(99.2674 -1.97612 -2.58254e-20)
(98.6091 -2.36165 9.08245e-22)
(97.7631 -2.95523 7.16154e-20)
(96.4711 -3.67434 1.59107e-19)
(94.7743 -4.47094 -3.44369e-19)
(93.1392 -5.08815 2.93022e-22)
(89.9444 -2.79004 -9.60563e-22)
(91.7418 -3.37789 -1.5144e-20)
(92.5269 -4.04351 -6.18694e-20)
(93.0652 -4.94568 1.28815e-19)
(86.6058 2.01012 -2.8655e-18)
(93.2374 -2.37883 0)
(91.9153 -3.25285 2.00827e-20)
(90.5362 -2.564 -6.34904e-20)
(93.9502 -3.3488 -2.54852e-20)
(92.7074 -3.96017 -9.64412e-20)
(92.0322 -3.33768 -1.95522e-20)
(92.1729 -3.70665 8.11744e-20)
(91.4443 -4.08395 2.67921e-20)
(91.0345 -3.79068 -3.19116e-20)
(94.5976 -4.2397 3.4954e-19)
(93.2859 -4.86645 -1.59489e-19)
(92.7848 -4.05562 0)
(92.8004 -4.43937 4.23276e-20)
(91.7662 -4.61914 0)
(91.7702 -4.32458 5.7537e-20)
(93.3643 -5.00505 0)
(93.4694 -5.56837 4.76694e-20)
(91.738 -5.84995 5.9237e-20)
(91.7769 -5.24116 -5.58956e-20)
(86.6127 -5.75314 -5.61358e-20)
(89.9418 -4.6898 3.29089e-20)
(79.0908 -0.231578 4.59892e-18)
(85.7734 -5.71343 2.72793e-19)
(90.9935 -3.74015 0)
(90.79 -3.63984 -3.67409e-20)
(91.3369 -3.18872 0)
(90.6814 -3.67354 0)
(90.851 -3.78048 0)
(90.1177 -4.49458 -4.77921e-20)
(90.6546 -3.71183 0)
(91.7473 -4.29077 0)
(91.4979 -4.10935 -4.04131e-20)
(92.2703 -3.78969 -2.04791e-20)
(91.3402 -4.14667 7.82915e-20)
(91.5775 -4.31382 0)
(90.8693 -3.81112 5.5602e-21)
(91.3141 -4.13328 1.4978e-19)
(91.7696 -5.20103 -3.88992e-23)
(91.7627 -4.65005 -1.26707e-19)
(92.8636 -4.55537 -1.4759e-19)
(91.5874 -4.64289 1.12835e-19)
(91.4986 -5.20605 0)
(91.5863 -4.33208 2.66965e-20)
(91.5963 -4.61267 2.17203e-19)
(91.7329 -5.90015 -3.02044e-20)
(93.5159 -5.65105 6.36066e-20)
(91.2519 -5.88708 -2.28967e-19)
(91.5026 -5.24551 -6.14439e-20)
(91.2735 -5.84114 0)
(92.4154 -0.937176 -7.50874e-20)
(90.2117 -2.39773 6.90357e-20)
(87.7721 1.1 8.49698e-19)
(87.9303 -1.53423 -4.04184e-19)
(85.9772 -4.86997 -3.16615e-19)
(80.6366 0.184496 2.0437e-18)
(91.1519 -3.13388 -9.63701e-20)
(90.7491 -3.67137 1.81837e-20)
(90.0867 -4.31021 -2.98513e-21)
(89.877 -4.44708 -1.29431e-20)
(86.701 -4.98467 5.22359e-20)
(88.4792 -2.02521 6.15827e-21)
(89.3742 -6.7379 9.27793e-20)
(68.2044 -2.0564 9.58622e-18)
(78.5058 -11.3836 -1.61136e-18)
(82.7679 10.2969 -1.07019e-18)
(78.7845 1.42575 7.41521e-18)
(91.7988 -5.53605 1.79966e-19)
(92.7474 -5.49172 1.39337e-19)
(92.8522 -5.74544 0)
(87.2978 -9.66082 -4.18902e-18)
(89.1703 -7.06624 5.72297e-18)
(88.5363 -5.44574 1.97792e-20)
(89.2639 -6.98218 -2.40977e-18)
(87.1739 -9.13543 7.16078e-18)
(89.868 -5.06137 -1.23509e-18)
(89.448 -6.69186 -1.30168e-18)
(89.0041 -5.27208 0)
(81.6451 -4.00064 0)
(78.8257 -9.92336 1.28514e-20)
(70.3547 -1.62082 -4.4629e-18)
(86.6274 -9.40461 -1.29531e-19)
(80.096 -10.2229 1.42048e-18)
(82.7456 -4.75952 2.75618e-19)
(79.9715 -11.6147 -2.7604e-19)
(86.8246 -9.98095 3.58317e-19)
(90.7721 -3.63484 2.09191e-20)
(89.6389 -3.62294 -4.20173e-22)
(90.7786 -3.64234 0)
(90.4575 -4.03529 -3.93327e-20)
(89.9107 -4.0452 2.872e-18)
(89.8567 -4.91192 -1.28072e-18)
(89.6822 -3.62972 -2.38132e-20)
(89.8815 -3.94274 -5.66181e-21)
(90.5259 -3.92537 2.64238e-20)
(91.4866 -4.21141 1.51354e-19)
(91.5025 -4.22371 9.203e-20)
(91.0633 -4.00143 1.16313e-20)
(91.0958 -4.02647 1.17007e-20)
(91.5655 -4.89806 -1.19024e-19)
(91.561 -4.93131 -2.95664e-20)
(91.621 -4.44262 2.59497e-20)
(91.6216 -4.46269 -5.23862e-20)
(92.8905 -5.83466 8.53608e-22)
(91.4975 -5.4843 -7.59227e-19)
(91.4856 -5.52403 -2.65975e-19)
(72.5111 13.1494 0)
(67.6579 0.280494 -4.94546e-18)
(91.7683 -4.46179 1.1681e-20)
(92.3272 -4.41173 2.04603e-20)
(92.3947 -4.568 0)
(92.2165 -4.237 0)
(92.3022 -4.36466 -2.02536e-20)
(91.7654 -4.44344 -3.46485e-20)
(92.6221 -5.17901 4.51029e-20)
(92.7154 -5.41038 -9.19118e-20)
(91.8023 -5.49446 2.67406e-19)
(91.6654 -4.20392 -3.47624e-20)
(92.0759 -4.0865 -6.38262e-23)
(92.1843 -4.19707 -1.97044e-20)
(90.9311 -4.3194 1.22509e-18)
(90.9465 -4.27029 5.59889e-19)
(91.5513 -4.26933 1.30293e-20)
(91.7689 -4.93138 0)
(92.5104 -4.88796 -8.68231e-20)
(92.5923 -5.10371 0)
(92.4161 -4.62698 -2.10084e-20)
(92.4852 -4.81911 -2.15984e-20)
(91.7673 -4.89601 -5.31651e-20)
(91.5666 -4.74997 -1.16756e-19)
(90.2663 -4.68491 -4.01288e-20)
(90.3606 -4.54169 0)
(89.0554 -5.0928 1.48826e-18)
(89.1348 -4.9681 -1.31241e-18)
(91.4996 -5.07765 1.77472e-19)
(91.61 -4.3796 2.15398e-19)
(90.9131 -4.3915 -1.15353e-18)
(90.9313 -4.3393 0)
(90.3978 -4.51322 0)
(90.4893 -4.46462 1.11967e-19)
(91.6173 -4.53935 -3.26676e-19)
(91.5166 -5.35141 0)
(89.1055 -5.24685 1.45212e-18)
(89.0512 -5.14975 -2.7637e-20)
(88.8024 -5.59743 -3.86127e-18)
(91.4148 -5.71983 1.06447e-18)
(89.619 -5.9364 2.90301e-18)
(89.7199 -5.73091 -1.59167e-18)
(71.913 -8.09998 2.89122e-18)
(73.5456 -9.39184 0)
(88.3157 -8.40388 1.43297e-18)
(88.557 -8.00809 -2.85905e-18)
(88.6188 -7.84876 0)
(88.1932 -6.83857 1.30593e-19)
(89.0226 -6.30098 4.33194e-19)
(86.5499 -7.42495 4.86494e-19)
(87.8402 -7.00289 1.34963e-19)
(88.3453 -8.16898 -8.77463e-19)
(89.8751 -5.72035 2.3608e-18)
(89.8117 -5.39543 1.26007e-18)
(90.0806 -4.94313 -2.10233e-19)
(89.227 -6.11005 -8.01403e-20)
(89.691 -5.55966 -2.58688e-20)
(89.771 -5.92442 0)
(84.4046 -10.1902 2.2082e-19)
(84.2027 -7.7105 -2.70996e-19)
(86.0324 -7.52512 -6.94523e-22)
(83.7222 -11.4942 8.96239e-19)
(84.7179 -11.1941 2.62881e-20)
(89.5906 -3.58142 1.50298e-18)
(90.3756 -3.64075 4.99413e-19)
(90.2972 -3.61375 -2.79812e-18)
(90.3909 -3.69727 1.2332e-19)
(90.3826 -3.65475 -1.88236e-19)
(89.6043 -3.61752 9.84924e-20)
(90.193 -3.70031 6.60722e-20)
(90.1647 -3.82217 0)
(90.2638 -3.62297 -6.18911e-19)
(90.2085 -3.67326 0)
(89.9182 -4.3542 0)
(90.3188 -4.36014 0)
(90.382 -4.10036 -2.82457e-20)
(90.1425 -4.81094 0)
(90.2859 -4.4625 -2.18785e-19)
(89.9241 -4.47907 0)
(89.7557 -3.77228 1.50067e-18)
(90.4014 -3.82036 0)
(90.3963 -3.7188 0)
(90.3918 -4.02691 0)
(90.3993 -3.86226 7.03776e-19)
(89.7572 -3.80489 0)
(90.4802 -4.21817 0)
(90.489 -4.24642 -3.75018e-20)
(90.4739 -4.26913 -1.34899e-19)
(90.4871 -4.22035 1.16235e-18)
(90.4832 -4.24493 -6.22986e-19)
(90.447 -4.30137 -6.39898e-19)
(90.4998 -4.24991 -5.66625e-19)
(90.4984 -4.24019 6.17654e-19)
(90.2811 -4.04986 1.76706e-20)
(90.3869 -4.13718 5.75915e-19)
(90.1702 -3.87555 -6.85108e-20)
(90.248 -4.01408 -1.74956e-20)
(90.5498 -4.23477 7.2322e-20)
(90.4908 -4.26163 2.0894e-18)
(90.4228 -4.16072 0)
(90.5275 -4.22016 -1.46526e-19)
(90.2558 -4.85374 -6.64276e-19)
(90.2602 -4.74315 -1.21925e-18)
(91.5646 -4.78901 1.16897e-19)
(89.1417 -4.69602 1.54893e-18)
(89.1654 -4.79182 -7.88892e-19)
(89.2736 -4.45393 -1.48761e-18)
(89.1394 -4.62444 1.5517e-18)
(89.1089 -4.81334 -4.01394e-19)
(91.5162 -5.03309 9.60331e-19)
(89.2932 -4.92602 -8.93998e-18)
(90.1964 -4.88539 3.30212e-19)
(90.6108 -4.44256 -1.07967e-18)
(90.8998 -4.42098 2.19251e-18)
(91.6147 -4.39646 0)
(90.3816 -4.40433 1.53973e-19)
(89.5814 -4.3799 -3.21179e-19)
(90.4455 -4.32436 -1.2125e-18)
(90.3985 -4.3821 1.4651e-18)
(89.4328 -4.39264 1.46826e-18)
(89.3228 -4.4282 -1.52246e-18)
(89.5364 -4.37762 7.38093e-19)
(89.459 -4.38596 0)
(91.621 -4.51879 1.08145e-19)
(90.5129 -4.45526 4.43158e-19)
(90.5771 -4.44766 -4.20546e-19)
(89.0513 -5.31358 9.55971e-20)
(89.1063 -5.26277 -1.50254e-18)
(91.517 -5.38332 7.67916e-19)
(91.4379 -5.66542 1.46152e-18)
(88.8291 -5.53969 4.15756e-19)
(89.011 -5.33887 -1.63771e-18)
(91.2614 -3.98448 6.60189e-21)
(91.6842 -3.80039 1.83176e-20)
(91.8466 -3.91312 -3.73352e-20)
(91.4679 -3.63695 -8.95504e-21)
(91.6288 -3.75969 0)
(91.1988 -3.9413 -1.00305e-23)
(91.8975 -3.94861 1.88127e-20)
(92.0351 -4.05131 1.9097e-20)
(91.6302 -4.17937 -1.03542e-20)
(91.412 -4.17205 0)
(90.8985 -4.22765 7.42898e-23)
(90.848 -4.2327 -4.93578e-19)
(90.8381 -4.22395 -9.1367e-19)
(90.7951 -4.19945 0)
(91.2265 -4.09885 -3.57116e-20)
(89.5064 -6.39953 2.28423e-20)
(87.7231 -9.25837 2.36087e-18)
(87.1446 -9.79401 4.15548e-18)
(88.9585 -7.36225 -5.8228e-18)
(89.0628 -7.26058 2.44753e-18)
(88.998 -6.99305 0)
(89.209 -6.73825 3.34638e-20)
(89.8867 -5.24409 0)
(90.0311 -5.23587 -2.12743e-18)
(90.0591 -5.06645 1.14916e-18)
(89.3981 -6.48398 9.67832e-19)
(89.5571 -6.23469 6.79703e-19)
(89.5901 -6.39862 7.64382e-20)
(81.131 -7.1008 6.77677e-20)
(83.4965 -7.59282 0)
(83.4706 -10.3728 -1.57695e-18)
(81.3407 -11.7517 1.26621e-18)
(81.5907 -13.4569 1.30138e-17)
(79.968 -13.0575 -1.83882e-18)
(86.8026 -10.2756 -4.6529e-18)
(86.2966 -10.7851 -9.60859e-18)
(86.2445 -10.3761 2.62524e-18)
(89.3007 -3.49998 3.03318e-17)
(89.6911 -3.53004 -1.48903e-17)
(89.5462 -3.52834 2.28687e-18)
(90.0267 -3.67247 1.34982e-18)
(90.0113 -3.66347 -6.41908e-19)
(89.6122 -3.62206 3.10188e-18)
(89.1971 -3.69801 2.40565e-20)
(89.1582 -3.76832 0)
(89.4525 -3.53746 -2.31732e-18)
(89.4033 -3.54623 -1.79228e-18)
(89.9087 -4.16235 2.85279e-18)
(90.1797 -4.20848 -1.14435e-18)
(90.1811 -4.11003 -1.17094e-18)
(90.0833 -4.92163 -1.33105e-19)
(90.1135 -4.7892 2.73045e-19)
(89.8759 -4.77126 -4.29211e-20)
(89.7307 -3.65832 2.36668e-20)
(90.0779 -3.72142 -3.885e-20)
(90.0514 -3.689 -3.93556e-20)
(90.1676 -4.01809 1.82533e-20)
(90.1416 -3.94602 0)
(89.8301 -3.87368 5.69996e-21)
(90.9317 -4.2512 0)
(90.9059 -4.22977 -6.52767e-19)
(91.4325 -4.18344 -4.94477e-20)
(91.5414 -4.2549 -1.29282e-20)
(90.9521 -4.26263 -5.54382e-19)
(90.9422 -4.25579 5.40255e-19)
(90.6277 -4.10512 -5.09967e-19)
(90.5266 -4.02034 0)
(90.9699 -3.92802 -5.70266e-21)
(89.3659 -4.15226 -1.60068e-18)
(89.3984 -4.17732 0)
(89.145 -3.8678 1.57215e-18)
(89.1736 -3.95214 -1.58658e-18)
(89.2297 -4.27053 2.84147e-17)
(89.4302 -4.1987 -4.91944e-20)
(89.4602 -4.21665 4.94312e-20)
(91.1947 -4.08048 -2.3612e-20)
(90.7665 -4.18612 0)
(90.6627 -4.12851 3.19908e-20)
(90.2896 -4.6264 1.28699e-18)
(90.9295 -4.67523 -1.72275e-18)
(90.9124 -4.72263 -5.77853e-19)
(89.0715 -5.04852 0)
(90.3539 -5.13485 5.85471e-19)
(90.3415 -5.1698 1.18991e-18)
(90.4142 -5.06147 1.36869e-19)
(90.3711 -5.10258 -1.4293e-19)
(89.0864 -5.009 1.41882e-18)
(89.0036 -5.75574 -3.49485e-19)
(88.9728 -5.78018 1.13097e-20)
(89.0913 -5.22677 1.53847e-18)
(90.3477 -5.28212 -1.22846e-18)
(90.3519 -5.30609 0)
(90.3352 -5.21149 1.13395e-18)
(90.3391 -5.25129 1.29153e-18)
(89.0676 -5.19716 2.33209e-20)
(89.215 -5.71871 1.1152e-18)
(89.0583 -5.736 -2.9248e-18)
(90.0913 -5.69799 -6.23684e-19)
(89.4832 -5.69845 1.49399e-17)
(88.3399 -5.64181 -3.25385e-17)
(89.5651 -6.13902 6.91822e-20)
(89.7089 -5.44248 0)
(65.7967 -9.72875 2.43297e-18)
(68.2362 -11.7106 0)
(76.2362 -15.3477 -2.18275e-17)
(78.1684 -15.0085 8.33178e-18)
(70.9636 -13.1874 0)
(73.7928 -15.1095 3.9806e-17)
(72.5785 -16.2563 -2.9388e-17)
(88.0423 -8.83028 2.68808e-18)
(88.7635 -7.65637 -4.66097e-20)
(89.9088 -5.6215 -2.05348e-18)
(89.9831 -5.4262 0)
(89.8685 -5.46037 0)
(89.6894 -6.14122 0)
(89.6864 -6.0064 -6.79264e-20)
(89.7973 -5.80372 0)
(83.9243 -12.6781 7.34983e-18)
(82.8918 -13.1769 -1.26776e-17)
(82.5921 -11.6916 2.29041e-18)
(79.861 -14.5297 9.37586e-20)
(81.2511 -14.0654 0)
(85.5675 -10.8003 -1.66602e-18)
(85.6781 -11.3963 6.9646e-18)
(84.8676 -12.0649 0)
(89.9819 -3.62415 -1.14343e-18)
(89.957 -3.59407 4.82301e-18)
(89.5514 -3.52869 -6.03218e-18)
(89.6008 -3.62716 0)
(90.0035 -3.65732 0)
(90.0019 -3.6467 -1.6357e-19)
(89.2823 -3.6092 -2.36644e-20)
(89.2396 -3.64579 1.50736e-18)
(89.3639 -3.56081 2.31378e-20)
(89.3233 -3.58193 -7.49864e-19)
(90.1738 -4.40824 4.95662e-19)
(90.1756 -4.30386 0)
(89.9061 -4.25596 0)
(89.9075 -4.62387 0)
(90.1448 -4.65755 -1.3858e-19)
(90.166 -4.52783 6.31155e-19)
(90.0969 -3.81472 -6.83891e-19)
(90.0933 -3.76812 -5.77888e-19)
(89.7566 -3.71444 0)
(89.7834 -3.83042 -1.47374e-18)
(90.1166 -3.89321 0)
(90.1014 -3.8532 3.77518e-20)
(90.4767 -4.22503 -1.1852e-18)
(89.6524 -4.19177 1.46627e-18)
(89.6688 -4.18213 -2.27726e-20)
(89.6624 -4.22187 -1.47958e-18)
(89.6505 -4.20988 0)
(90.4798 -4.23664 0)
(90.4815 -4.25668 1.40445e-19)
(89.7146 -4.24199 0)
(89.7152 -4.27165 0)
(89.6936 -4.18448 -1.37909e-18)
(89.7137 -4.20582 -1.47111e-18)
(90.4895 -4.23509 0)
(90.4673 -4.25786 -6.30371e-19)
(89.6064 -4.20455 1.51401e-18)
(89.6369 -4.19132 0)
(89.5669 -4.25815 4.78562e-20)
(89.5811 -4.22756 0)
(90.4544 -4.27736 5.54906e-19)
(90.5072 -4.24832 0)
(89.6887 -4.21537 -2.32004e-20)
(89.6781 -4.22224 0)
(89.6672 -4.18905 0)
(89.6866 -4.19977 1.5136e-18)
(90.5073 -4.24318 -1.22521e-18)
(89.2968 -4.09194 1.56939e-18)
(89.3319 -4.12468 -9.50487e-23)
(90.3155 -4.08225 0)
(89.9495 -4.10752 -2.00307e-20)
(89.913 -4.07539 -1.27943e-18)
(90.0238 -4.16097 0)
(89.9868 -4.13556 2.02091e-20)
(90.351 -4.11117 -5.71825e-19)
(89.2213 -4.00664 6.74115e-21)
(89.262 -4.0514 1.5969e-18)
(89.5144 -4.26276 -8.08919e-19)
(89.5176 -4.26003 9.07519e-18)
(90.5765 -4.25927 -4.4133e-18)
(90.2026 -4.28404 1.45146e-19)
(90.1715 -4.26269 1.65265e-19)
(89.7732 -4.28585 -8.92733e-18)
(89.8931 -4.28193 -3.70624e-18)
(90.5294 -4.24969 -4.19744e-18)
(90.4586 -4.182 5.84842e-19)
(90.0962 -4.20444 -4.91659e-19)
(90.0603 -4.18389 -8.14401e-20)
(90.163 -4.24368 8.28726e-20)
(90.1294 -4.2242 -8.269e-20)
(90.4933 -4.20148 2.93215e-19)
(89.4866 -4.23513 0)
(89.513 -4.24995 -1.59271e-18)
(90.2652 -4.8227 6.57773e-19)
(90.8993 -4.84941 -5.95411e-19)
(90.891 -4.88451 0)
(90.9042 -4.77063 5.84059e-19)
(90.9025 -4.8131 -5.89532e-19)
(90.2655 -4.78851 -8.17919e-20)
(89.163 -4.74091 0)
(89.173 -4.77009 1.56209e-18)
(89.2227 -4.49271 -1.51861e-18)
(89.1716 -4.54553 0)
(89.0459 -4.81449 0)
(88.563 -4.8468 3.27133e-17)
(89.5689 -4.89657 -7.34099e-18)
(90.6638 -4.96065 0)
(90.5163 -5.00463 0)
(90.8579 -4.9156 0)
(90.8233 -4.96374 0)
(90.1529 -4.92023 0)
(89.9146 -4.37609 -3.64766e-18)
(89.0648 -4.3388 -4.04373e-18)
(89.4672 -4.32817 1.68936e-18)
(89.7054 -4.37949 0)
(90.4434 -4.34362 7.31882e-19)
(89.5617 -4.29988 9.6488e-20)
(89.5644 -4.28286 1.48867e-18)
(89.5076 -4.33008 -3.97113e-19)
(89.5524 -4.31329 6.80765e-19)
(90.4393 -4.3621 -8.19969e-19)
(89.4028 -4.40052 -1.47645e-18)
(89.3663 -4.41116 0)
(89.5113 -4.37733 -4.46765e-20)
(89.4851 -4.38052 0)
(89.0786 -5.29504 0)
(90.322 -5.37339 3.97761e-20)
(90.2993 -5.40105 -1.36561e-18)
(90.3485 -5.32749 1.22945e-18)
(90.3382 -5.34931 5.64851e-20)
(89.0965 -5.27831 3.02185e-18)
(88.9006 -5.44374 1.48032e-18)
(90.1933 -5.54207 -1.65523e-19)
(90.1204 -5.61913 3.21244e-19)
(90.2696 -5.43531 -1.29948e-18)
(90.2314 -5.48166 -1.48503e-18)
(88.9581 -5.38283 1.6483e-18)
(99.7642 0.610026 -9.73289e-20)
(99.7052 0.837881 4.62508e-20)
(99.9066 0.518219 4.82593e-20)
(99.6822 0.925966 -1.385e-19)
(99.6291 1.22778 -4.29668e-20)
(99.8856 0.74745 -2.66487e-21)
(99.6103 1.33974 -4.25715e-20)
(99.5891 1.7015 -1.77011e-20)
(99.8783 1.01827 3.42214e-20)
(99.5852 1.82662 6.84439e-20)
(99.6314 2.1923 3.45967e-20)
(99.8986 1.29056 -1.30752e-20)
(99.6538 2.30282 1.84028e-21)
(99.4524 0.838368 -1.03479e-19)
(99.302 1.17905 -1.01011e-19)
(99.62 0.933713 0)
(99.2491 1.31381 -1.24204e-19)
(99.0963 1.78853 1.14137e-21)
(99.519 1.37815 4.25068e-20)
(99.0508 1.97029 -9.0489e-20)
(98.9648 2.57176 4.2352e-20)
(99.4627 1.92556 7.49533e-20)
(98.9592 2.78512 -1.18629e-19)
(99.0404 3.43696 -3.4123e-20)
(99.515 2.49831 -2.08553e-20)
(99.105 3.64388 0)
(99.0374 0.933133 3.42943e-18)
(98.7452 1.3645 -2.13276e-19)
(99.1761 1.24318 1.00741e-19)
(98.6389 1.53948 -2.13199e-19)
(98.3185 2.16824 -4.89044e-19)
(98.9236 1.90676 -9.55681e-20)
(98.2187 2.41503 -8.40984e-21)
(97.9668 3.29911 0)
(98.7565 2.77065 -8.78793e-20)
(97.9156 3.64122 2.24989e-19)
(97.9581 4.77127 7.48723e-21)
(98.8277 3.76193 4.29433e-20)
(98.063 5.15813 -5.52364e-20)
(98.5683 0.846504 -2.92778e-19)
(98.0921 1.29551 0)
(98.5879 1.37253 -1.73231e-18)
(97.9173 1.48023 4.81265e-19)
(97.3401 2.18047 2.23609e-18)
(98.0906 2.2149 -4.69333e-21)
(97.1261 2.48447 0)
(96.4687 3.66587 -5.21049e-18)
(97.6419 3.44054 0)
(96.2711 4.16772 -2.6534e-18)
(95.952 6.07292 1.03758e-18)
(97.5676 5.11297 -1.69062e-19)
(96.0235 6.82719 3.40408e-19)
(98.1286 0.554492 -1.85013e-19)
(97.4782 0.926043 0)
(97.9283 1.23316 -4.90874e-19)
(97.2288 1.0791 -2.90428e-19)
(96.3026 1.69402 3.50258e-19)
(97.0741 2.10832 -2.35716e-18)
(95.9271 1.96847 -1.86104e-19)
(94.5691 3.12493 -5.45796e-18)
(96.0169 3.63651 0)
(94.036 3.68134 0)
(92.2735 6.34995 -9.01589e-18)
(95.2202 6.31741 -2.75127e-18)
(91.7632 7.82108 -2.17763e-18)
(97.8165 0.0721778 -4.87942e-19)
(97.0505 0.272083 6.79233e-20)
(97.3486 0.785417 -1.39844e-19)
(96.7398 0.355114 2.37328e-19)
(95.5535 0.677675 4.98236e-19)
(96.0731 1.48456 3.64811e-19)
(95.0571 0.813858 2.67292e-21)
(93.1267 1.32698 -1.1534e-18)
(94.1112 2.7907 2.44714e-18)
(92.2718 1.53148 5.52918e-19)
(87.7464 1.97353 4.24622e-19)
(91.0727 5.88688 4.91284e-18)
(88.3854 5.75063 4.77443e-18)
(85.8165 9.373 -2.07556e-17)
(89.9885 10.1769 -1.81341e-18)
(97.7042 -0.526629 0)
(96.908 -0.527933 5.81824e-20)
(96.9869 0.0794705 -3.73155e-19)
(96.58 -0.529875 -8.11353e-20)
(95.3584 -0.552783 -2.53246e-20)
(95.4508 0.372725 -9.57671e-22)
(94.8668 -0.575843 0)
(93.1016 -0.776809 -6.70852e-20)
(92.9916 0.756034 1.39191e-19)
(92.1432 0.174713 3.85208e-19)
(91.205 0.112218 8.21262e-20)
(91.1399 0.901658 -8.87185e-20)
(86.9602 -0.0391533 0)
(85.8418 -0.456031 1.04128e-18)
(85.4081 0.690256 -6.28055e-18)
(97.7998 -1.14977 -5.60397e-20)
(97.0421 -1.32379 1.50983e-19)
(96.9181 -0.731775 1.53902e-19)
(96.7299 -1.39308 1.50307e-19)
(95.6029 -1.64724 1.9081e-19)
(95.3888 -0.845934 2.02812e-19)
(95.1703 -1.75457 5.30812e-21)
(93.7357 -2.18584 0)
(93.2403 -1.19156 2.93077e-19)
(92.8257 -1.75589 5.74192e-22)
(92.2601 -2.00433 -1.6572e-20)
(91.9784 -1.62106 -3.30962e-19)
(90.6465 -2.99569 -2.93299e-20)
(90.5387 -3.33674 -6.38607e-20)
(90.1861 -3.30781 6.32169e-20)
(98.0727 -1.73416 6.16686e-20)
(97.3816 -2.04004 0)
(97.1104 -1.51154 1.39954e-19)
(97.0951 -2.15598 -1.59235e-19)
(96.0658 -2.54693 -1.59574e-19)
(95.7039 -1.88836 0)
(95.6752 -2.69295 1.81856e-19)
(94.3932 -3.17657 -2.21093e-19)
(93.9041 -2.45738 0)
(93.6118 -2.89097 -2.12458e-19)
(93.1703 -3.08879 9.28972e-22)
(92.9743 -2.8571 8.74305e-22)
(91.9644 -3.53875 2.05939e-20)
(91.7412 -3.70141 -3.30126e-20)
(91.5794 -3.58219 8.14853e-21)
(98.4869 -2.24683 -6.08828e-20)
(97.8716 -2.65704 -6.52087e-20)
(97.4914 -2.20397 1.42743e-19)
(97.6128 -2.80931 2.10146e-19)
(96.6624 -3.30996 -1.75731e-19)
(96.203 -2.74843 1.59778e-19)
(96.2951 -3.49009 0)
(95.0491 -4.05293 -3.71326e-19)
(94.5527 -3.39877 8.99086e-21)
(94.2697 -3.79017 -3.92148e-19)
(93.8295 -3.95794 5.65895e-19)
(93.6755 -3.73896 -1.45095e-19)
(92.6706 -4.22947 -1.03955e-19)
(92.4221 -4.33521 5.42453e-20)
(92.3298 -4.20357 0)
(98.0143 -2.79456 0)
(96.8331 -3.48389 -3.03039e-21)
(95.2302 -4.27182 2.32309e-19)
(94.966 -4.70141 2.62474e-19)
(94.4378 -5.04348 0)
(94.3181 -4.66392 4.55638e-20)
(93.2171 -5.23611 8.75788e-20)
(92.8851 -5.37392 8.10287e-20)
(92.7829 -5.14656 -7.93131e-20)
(89.7605 -3.26108 0)
(89.2462 -3.16323 2.4849e-21)
(89.5059 -2.62212 3.88187e-20)
(91.5266 -3.54302 -8.0726e-21)
(91.3667 -3.45192 0)
(91.6215 -3.30649 7.64675e-20)
(92.2959 -4.16058 -1.76395e-20)
(92.1835 -4.04488 0)
(92.4474 -3.95677 -2.06183e-20)
(92.7506 -5.07047 0)
(92.6601 -4.85999 3.92199e-20)
(92.995 -4.80909 -1.70981e-19)
(80.4193 1.5525 -2.01904e-18)
(84.2157 8.30896 7.53907e-18)
(87.7286 5.01073 -4.79524e-18)
(89.9032 11.5725 3.54647e-18)
(84.9321 11.3934 0)
(92.7588 -2.60646 5.8512e-20)
(92.5211 -2.32669 -6.18286e-20)
(93.0353 -2.08575 -2.10646e-19)
(91.4821 -3.00244 6.83989e-20)
(92.0857 -2.48246 1.00995e-19)
(92.4836 -2.85278 -1.00406e-19)
(91.4102 -1.79964 2.46807e-19)
(91.9337 -2.32346 -1.06379e-19)
(91.2922 -2.90981 -4.96044e-20)
(93.5173 -3.52409 9.90099e-20)
(93.3503 -3.30912 1.53065e-19)
(93.7847 -3.12399 2.57636e-20)
(92.4476 -3.68901 0)
(92.9977 -3.40068 -9.6388e-20)
(93.2505 -3.70075 -1.46923e-19)
(92.5988 -2.97692 2.13486e-20)
(92.906 -3.28902 -5.97322e-20)
(92.3506 -3.60066 -9.71803e-20)
(91.9544 -3.85847 0)
(91.7956 -3.74338 1.65438e-20)
(92.0706 -3.62289 4.0886e-20)
(91.3862 -4.05556 -2.66865e-20)
(91.5408 -3.99356 -4.74473e-20)
(91.5971 -4.02516 2.39714e-20)
(91.2015 -3.7421 1.14679e-20)
(91.2514 -3.78844 1.7273e-20)
(91.0834 -3.84287 -6.33281e-21)
(94.1447 -4.41866 -1.40509e-19)
(93.9842 -4.18404 4.18384e-19)
(94.4306 -4.01294 -3.62797e-19)
(93.0685 -4.48415 1.18691e-19)
(93.6305 -4.25316 0)
(93.8656 -4.60858 -1.26703e-19)
(93.3286 -3.81257 1.45104e-19)
(93.5556 -4.13148 0)
(92.9993 -4.36838 1.94668e-19)
(92.5277 -4.54235 -1.85682e-20)
(92.4499 -4.38507 -3.63638e-20)
(92.7366 -4.33095 -6.29377e-20)
(91.7734 -4.54311 9.47581e-20)
(92.0582 -4.54924 -3.28051e-20)
(92.0679 -4.60319 5.94478e-20)
(91.9464 -4.29837 -7.37879e-23)
(91.9717 -4.33512 -2.58272e-20)
(91.791 -4.35891 -1.16116e-19)
(93.9486 -4.74496 -1.60733e-19)
(94.231 -5.13825 -1.70388e-20)
(93.6274 -5.44818 3.88282e-20)
(93.0382 -5.70358 4.16264e-20)
(92.9208 -5.45619 0)
(93.301 -5.39035 -2.05262e-19)
(91.7768 -5.71715 -4.19378e-19)
(92.3286 -5.72174 1.38128e-19)
(92.4312 -5.83389 -2.3855e-20)
(92.2082 -5.23577 2.85688e-20)
(92.2314 -5.31195 -1.00659e-19)
(91.7987 -5.35057 7.16254e-21)
(87.3514 -5.70875 4.42737e-20)
(87.6972 -6.61013 1.74225e-19)
(86.4679 -6.91743 3.39023e-19)
(90.0501 -4.86258 3.26062e-19)
(89.7614 -5.2729 -1.69386e-19)
(89.71 -4.89299 5.61619e-20)
(79.7171 -1.72521 -7.75907e-20)
(78.101 -2.57213 1.53326e-18)
(77.2312 -0.688692 -6.58762e-18)
(85.7258 -6.73004 -1.55123e-19)
(84.6221 -6.6907 5.91958e-20)
(84.8439 -5.57333 -1.15694e-19)
(90.9058 -3.63068 -1.07566e-20)
(91.2697 -3.50575 -1.75266e-20)
(91.4172 -3.59808 -8.93614e-21)
(91.0419 -3.47082 0)
(91.2194 -3.48508 0)
(90.8816 -3.61474 -4.89163e-20)
(91.4899 -3.24314 -1.03492e-20)
(91.3102 -3.43012 -7.85281e-21)
(91.192 -3.35999 1.62195e-20)
(90.7032 -3.64856 -8.39087e-20)
(90.4975 -3.65558 8.26924e-20)
(90.4938 -3.69878 -2.16143e-19)
(90.4128 -3.82189 6.0035e-20)
(90.4137 -3.71551 1.16683e-19)
(90.8111 -3.70471 0)
(90.2581 -4.31936 4.96777e-20)
(90.2901 -4.41739 2.89378e-19)
(90.1219 -4.73855 -2.35765e-20)
(90.4926 -3.72072 2.67819e-20)
(90.4796 -3.8155 -1.04533e-19)
(90.6211 -3.7657 -1.35154e-20)
(91.7231 -4.25888 1.41867e-20)
(91.8902 -4.22865 2.51556e-20)
(91.9192 -4.26263 -2.54283e-20)
(91.6501 -4.05459 6.02153e-20)
(91.6994 -4.08258 -4.87256e-23)
(91.5469 -4.13267 -3.74735e-20)
(92.3619 -3.87256 2.05442e-20)
(92.142 -4.00609 -3.43149e-20)
(92.0044 -3.89727 8.43639e-21)
(91.3656 -4.15403 -3.63769e-20)
(91.246 -4.18209 -1.23712e-22)
(91.2214 -4.17424 -1.02031e-19)
(91.428 -4.32147 0)
(91.4223 -4.30536 1.98913e-19)
(91.5689 -4.29893 0)
(90.9415 -3.89779 0)
(90.4955 -3.98656 0)
(90.4233 -3.86533 -6.06103e-20)
(91.1967 -4.16422 2.03329e-19)
(91.171 -4.15506 -2.02378e-19)
(91.2865 -4.12485 1.90913e-19)
(91.7566 -5.07891 3.50385e-19)
(92.1653 -5.08196 3.45919e-20)
(92.1854 -5.15897 -8.49258e-20)
(92.0771 -4.66255 -5.32438e-20)
(92.0876 -4.72675 0)
(91.7567 -4.75185 -7.81034e-20)
(92.928 -4.67873 -4.30507e-20)
(92.632 -4.79048 -3.84068e-20)
(92.5529 -4.60261 -1.85741e-20)
(91.5788 -4.6759 1.42556e-20)
(91.3297 -4.66158 0)
(91.3457 -4.62741 5.04282e-19)
(91.0774 -5.19596 -9.39207e-19)
(91.0791 -5.1557 -9.24013e-19)
(91.495 -5.16602 6.75014e-22)
(91.595 -4.34733 -3.35521e-20)
(91.4408 -4.35545 -2.16858e-20)
(91.4343 -4.33915 1.15259e-19)
(91.362 -4.59759 -2.48852e-19)
(91.3774 -4.57193 2.46354e-19)
(91.6047 -4.58583 -2.01289e-19)
(92.4423 -5.87939 0)
(93.0797 -5.79112 4.22584e-20)
(91.2417 -5.92997 6.65102e-20)
(90.4033 -5.8871 7.37406e-20)
(90.4303 -5.85985 5.72243e-19)
(91.5077 -5.28324 6.21645e-20)
(91.0791 -5.27614 -1.09791e-18)
(91.0768 -5.23708 -1.35635e-19)
(90.4774 -5.82786 1.36904e-19)
(90.5806 -5.7786 0)
(91.3187 -5.79184 0)
(91.687 -1.15375 1.47869e-19)
(91.4122 -0.580071 1.5709e-19)
(92.248 -0.422275 -1.57525e-19)
(89.0388 -1.52705 4.3367e-20)
(90.6291 -0.673505 9.43168e-22)
(91.2165 -1.55632 -3.2965e-20)
(90.2384 1.12441 -4.31404e-20)
(90.4641 -0.277454 -7.83007e-20)
(88.6298 -1.05017 -1.90313e-19)
(87.2144 -2.14753 3.84553e-19)
(86.4749 -1.41701 7.21103e-19)
(87.4044 -0.874713 -2.21026e-19)
(83.4736 -3.7733 -4.04228e-19)
(85.4717 -1.89179 1.12522e-19)
(86.8846 -2.95873 9.65708e-20)
(83.7407 0.433895 -4.51718e-20)
(85.0721 -1.32757 2.44164e-19)
(82.6035 -3.04726 2.83219e-19)
(91.0278 -3.34944 3.47385e-20)
(90.8178 -3.34806 7.45901e-20)
(90.9225 -3.07049 2.67564e-20)
(90.5717 -3.85018 0)
(90.693 -3.54468 -9.20004e-21)
(90.9704 -3.47165 2.73342e-20)
(90.0335 -3.63835 -6.30311e-23)
(90.5681 -3.5659 -1.94137e-20)
(90.4852 -3.94144 -1.17723e-20)
(88.8877 -4.81479 -3.55603e-20)
(88.945 -3.64387 3.50083e-20)
(89.8066 -3.63801 0)
(87.3494 -3.2306 2.31273e-20)
(88.5943 -3.56866 -5.5633e-20)
(88.4433 -4.91546 -7.64657e-20)
(89.0125 -2.37699 1.42583e-19)
(88.641 -2.97578 2.02853e-19)
(87.9554 -2.65353 -2.03624e-19)
(69.175 -4.33454 0)
(66.5993 -5.40553 0)
(65.4955 -2.59495 3.28419e-19)
(78.2215 -12.9306 3.28107e-18)
(76.367 -12.6932 0)
(76.9054 -10.9808 2.77777e-18)
(81.8359 16.5439 0)
(75.2239 14.9114 -1.58999e-17)
(80.5688 7.42481 2.51398e-18)
(76.6126 12.1563 2.56894e-17)
(82.222 14.3639 0)
(71.0662 1.43166 -1.04236e-17)
(74.6074 10.3888 0)
(79.7976 6.2121 1.42672e-18)
(92.2907 -5.54906 -1.17656e-19)
(92.3083 -5.6349 5.93993e-20)
(91.7843 -5.66937 -5.41528e-19)
(92.7804 -5.57406 9.36776e-20)
(92.5716 -5.60803 -1.588e-19)
(92.544 -5.52377 5.32962e-20)
(92.632 -5.78046 0)