/*--------------------------------*- C++ -*----------------------------------*\
| =========                 |                                                 |
| \\      /  F ield         | OpenFOAM: The Open Source CFD Toolbox           |
|  \\    /   O peration     | Version:  v2012                                 |
|   \\  /    A nd           | Website:  www.openfoam.com                      |
|    \\/     M anipulation  |                                                 |
\*---------------------------------------------------------------------------*/
FoamFile
{
    version     2.0;
    format      ascii;
    class       volScalarField;
    location    "0.97";
    object      omega;
}
// * * * * * * * * * * * * * * * * * * * * * * * * * * * * * * * * * * * * * //

dimensions      [0 0 -1 0 0 0 0];


internalField   nonuniform List<scalar> 
3259
(
31.99021999
31.98897342
31.98437349
31.97889657
31.9742077
31.97051295
31.96892596
31.96759162
31.93384958
31.93274424
31.93169893
31.93070285
31.96069129
31.95802384
31.93875128
31.91299529
31.88990439
31.87341031
31.84727049
31.84049453
31.80378071
31.80028818
31.79714969
31.79437188
31.96392712
31.95933105
31.91988654
31.86361027
31.81193799
31.77380106
31.73257323
31.71777212
31.67662336
31.67075199
31.66525715
31.6604609
32.09120141
32.07290568
31.98469986
31.87261235
31.77011888
31.69658543
31.63077786
31.602807
31.55359836
31.54395473
31.53582192
31.5291213
32.61168776
32.54499917
32.28575265
32.01578559
31.79650272
31.6556233
31.54903874
31.49793889
31.43497721
31.42033429
31.40887323
31.39963374
34.76277883
34.30469986
33.21891871
32.45006001
31.9488397
31.66562452
31.49074664
31.40571453
31.32179451
31.29885693
31.28325271
31.2714967
45.51450556
42.58992053
35.85085362
33.43675261
32.29773192
31.75053064
31.45773626
31.32825624
31.21445565
31.18046938
31.15935392
31.14459701
69.45681241
41.99623688
35.25312331
32.89281044
31.92385028
31.45567074
31.26388858
31.11329273
31.06476869
31.03677272
31.01870683
129.307218
51.05305926
37.77660017
33.70481044
32.17150174
31.47566926
31.21094894
31.01876035
30.95346415
30.91713057
30.89523792
161.3271126
58.93379935
40.33655118
34.57055206
32.45399688
31.51610928
31.16717041
30.93106177
30.84695415
30.80132678
30.77528387
161.3564464
63.39325195
42.24636024
35.31274479
32.72367648
31.56235924
31.13025892
30.85027424
30.74742881
30.69177997
30.66105133
149.2290427
64.78997896
43.31386372
35.8309126
32.94222893
31.60180443
31.09652093
30.77579302
30.65375517
30.58835954
30.55292455
151.5730005
77.98050879
193.1845215
157.3096526
190.7999531
194.6050858
172.5166123
188.5774052
169.8777714
45.09071695
71.40315434
42.4145794
432.7244239
155.3099717
122.5431509
55.5257133
45.61120678
1438.215763
1016.595968
159.5119241
67.33286527
58.85749861
829.5012877
1130.722203
162.4619096
73.76508554
69.49105048
477.7979466
626.7126606
1796.677728
311.3528481
363.261038
988.6643301
455.4080875
119.3294677
369.6149651
697.7687429
1143.180817
1440.015977
177.8036266
1013.913518
887.4578038
721.2413098
1010.857033
175.415855
654.1072124
811.9851043
194.7888609
625.621563
496.695095
878.4349379
647.2122689
195.5358312
374.0413618
460.9521437
2664.397245
3087.941279
306.0666769
1583.869939
2507.22789
432.5202179
5096.814068
151.1725464
75.53737073
74.59088421
5412.072027
682.2453086
757.8837309
131.0706203
328.2871243
110.3363435
774.526982
985.0129907
179.3684637
381.6558134
324.4414367
480.7939041
392.2291411
181.9825873
69.2232159
136.1607404
68.25424647
71.60728104
3400.405137
305.1420875
2417.064798
328.9671284
1779.652692
275.3343297
1172.195841
1156.900581
951.9156568
972.8594921
1855.225723
4251.860578
533.9149181
2224.104896
1229.48854
4778.195206
2637.996598
555.6397576
573.4907276
650.5930883
4797.372302
696.8553448
660.9962249
1209.047778
1220.911398
939.3245356
329.3411151
321.091745
331.1758563
330.5656741
932.6880257
856.4872067
293.4767748
269.4502949
317.0665103
300.4796928
872.7946787
693.5250814
4957.905293
706.1461091
1162.392067
856.5685406
418.5474027
1042.291867
1720.761296
5643.900209
550.7066952
3086.785718
1738.131834
2368.634147
1006.440411
2750.927866
3958.767965
134.5050733
347.8951507
121.8070812
141.5272742
1352.877917
3266.861402
3422.013551
1087.461605
883.1843285
2431.68347
1790.752217
4105.540285
4050.16193
1080.924411
858.0561646
2943.866787
3254.663732
489.9010651
217.9709008
183.9620456
259.7554802
229.5129754
511.8256764
1173.795859
4049.23166
4112.214822
1371.782027
1694.983318
1560.929765
766.7784187
566.7370967
298.4245807
309.4481235
788.7117394
325.1444274
330.3516646
313.3145918
322.3511067
774.7476488
405.5858872
825.9689042
668.5153117
4673.452201
1512.412235
1842.576536
1360.024414
5046.678043
5119.335669
1188.181402
1547.417929
5627.95269
1180.320171
481.5301036
1180.10315
3888.0889
2620.942861
872.1426716
4634.84904
5434.219415
3454.844439
1011.074942
627.2254779
1635.868389
1111.821041
566.5358303
360.314665
1005.03342
3591.835056
4533.632051
1287.501493
1104.086791
3461.405181
3599.947212
2664.724625
2525.365433
903.773296
4419.072985
4337.118998
3157.083199
4297.930931
4300.563748
1052.898702
4196.590953
2741.627869
2776.999271
3132.061256
1675.37439
793.5448794
856.2713067
3544.887665
997.0814772
1126.783008
881.9390161
959.5026587
3317.225956
3401.061925
929.1346026
1095.45645
2115.635697
2207.562371
813.3456648
3124.962066
3148.931888
3985.193067
2165.925112
1813.649664
3041.439696
2141.643817
559.5249392
1527.900721
2022.583212
3940.507721
4007.004988
1183.221076
1317.767343
4142.894895
3919.615292
1468.152695
1713.797466
1172.959535
1366.885677
5198.857573
2701.052868
2948.923092
1829.355668
2591.299267
5509.507962
1235.87652
5358.698933
4586.393948
5336.966739
1322.552033
5584.776165
64.51248399
42.78786728
36.84052802
5507.319417
5482.524378
75.48986894
5744.669584
316.2079398
265.1334199
163.412917
298.1084779
213.8658334
448.1941422
1628.752322
293.5510327
318.4153912
53.79158992
63.07135764
119.8344671
378.3337365
725.6276966
1061.740449
798.4187304
887.2208511
2899.305252
638.4345113
562.0810208
339.0314121
1153.099138
1469.264584
528.0356907
4327.141458
3605.122584
5579.980703
4954.189783
778.3924198
2675.184647
4921.220754
3342.779287
3777.662209
5338.952051
1426.250425
1151.8965
691.1974637
171.854921
136.9180641
237.0814233
843.0108742
2222.910407
1575.522195
93.26487889
116.8609056
280.3052029
2775.55022
1820.003964
1407.009473
3546.142723
2818.395283
2032.392787
3770.285392
3433.393123
5428.352209
5132.665539
3662.130815
720.7346116
775.2642616
1542.755093
4935.679158
2563.632424
2876.398201
4146.712939
2404.369531
2830.630018
4848.502364
4792.568566
3007.581986
3196.190213
4924.64026
4838.87312
5038.313866
752.0411079
1505.496022
1259.149095
5591.302165
5405.193772
5314.679899
4074.214115
3766.42937
2122.017126
1218.806796
1327.953835
1364.553107
3205.593963
5419.155956
4588.878661
5476.58768
5233.463523
3669.829978
190.3078241
267.3226422
851.3926403
3468.94367
3387.938298
3557.095089
3537.562505
3345.643851
2171.106908
2151.193799
2190.958909
2174.070488
3351.974129
4141.715011
2336.155599
2353.712169
2243.243285
2308.950082
4212.666998
3076.480521
1970.732579
1779.289639
2135.824155
2078.247489
3158.11245
4032.087658
2392.885368
2409.02959
2371.612982
2380.719277
4074.273282
3649.208968
3580.806756
3744.699414
3570.080114
5737.597087
5946.835656
5522.142516
4108.301053
5792.599002
2310.581858
3251.254049
2276.902528
3057.674273
2285.504749
902.4356562
3162.64364
2303.153494
5100.516389
5305.43089
5571.764812
4113.94175
4752.533261
1016.384304
5273.931837
5554.444466
5186.12
2606.204383
1882.605409
2648.374597
1393.218088
2018.097047
2683.637825
2953.123868
2735.855875
3736.860902
2349.256042
2224.368219
3198.000102
2318.44259
3503.728126
3508.360285
2211.258248
2194.518233
2237.344619
2209.80888
3529.865208
2619.337357
1578.276604
1604.467183
4367.588174
4360.937698
3698.997445
4794.8124
4616.454883
4439.805938
4379.125843
4588.357069
3453.643328
1880.500568
2095.662245
1645.898371
1726.493047
2942.033917
5164.298466
4346.501156
2324.048453
5517.738253
5273.905931
5253.932249
3326.392536
5153.647006
4986.877838
1943.802011
2188.391049
4179.783701
2116.101052
1459.852201
1436.48059
1603.042932
1551.858552
2234.412721
3307.281518
3097.696551
2030.110852
2971.236786
3110.543416
2802.079183
2945.331999
1994.933992
2975.89464
2919.175244
3746.019766
2786.740413
3980.079684
2447.188099
2460.748989
2417.835157
2430.449177
3967.84626
3945.01058
2700.624874
3124.022939
2489.28355
2549.589354
3934.247057
4802.754108
4664.764871
5007.422037
3418.662537
4038.126298
2782.385496
4611.857034
4673.267366
4601.605472
4611.165364
2845.60341
2037.201317
3899.234697
3291.216608
4524.579749
4664.420428
2350.454899
5146.392394
3278.677562
3521.959113
2424.513338
2934.452546
5236.198533
5259.365485
5090.998178
3842.855662
4443.725351
5616.096398
5370.955532
31.95333046
31.95781319
31.95716039
31.9572237
31.96075608
31.95347107
31.9291418
31.94520073
31.91873481
31.88347576
31.92024955
31.8723864
31.83808272
31.89576538
31.8287549
31.80322569
31.87723631
32.02599971
31.95930844
32.03221873
32.03813879
31.96385685
32.02671169
31.97791532
31.93148101
31.95713441
31.8850239
31.87614718
31.8624927
31.79528591
31.82343947
31.77713288
31.72687984
31.78127259
32.36663083
32.07758821
32.38130458
32.40198398
32.07915258
32.35595894
32.23745779
32.01078181
32.18275114
32.01213088
31.90081151
31.95859251
31.81932512
31.79480441
31.7805505
31.68701905
31.71265671
33.71198534
32.57021513
33.77845398
33.77746916
32.55280948
33.53349751
33.08137977
32.35073888
32.89680437
32.42720496
32.08156277
32.29456768
31.97768604
31.8438131
31.89520641
31.70551765
31.68640097
42.83917779
34.58626018
42.95223613
40.53590989
34.39712569
38.46704055
35.67061009
33.44482356
34.94705717
33.45264409
32.61695838
33.10576122
32.36341626
32.05034753
32.18791154
31.80898512
31.721843
61.63860308
59.51851463
45.64430467
48.31205011
42.67488444
40.05811958
40.06413724
35.54522669
33.87489256
34.69021963
33.06688656
32.51044165
32.72106932
32.0225495
31.85197423
92.14288993
66.0824035
55.4265945
48.7448192
38.75868025
36.28633123
37.06773325
34.07900933
33.29839977
33.48575489
32.34114732
32.09438004
146.0877065
91.17485963
82.18360362
57.26142631
42.22066152
39.68093253
39.67071455
35.22001073
34.37305758
34.35617274
32.71677139
32.43262324
163.9772396
104.6782935
101.1631317
62.61117743
44.92973733
43.03997251
41.80314017
36.23001833
35.50711657
35.14425001
33.08082457
32.80992815
157.6255208
106.781199
106.969311
64.66439126
46.46939637
45.44510866
43.10603469
36.95438674
36.45859236
35.72421609
33.37675133
33.16034493
144.5162376
109.1212995
110.2059147
46.68808454
37.08414752
33.43563564
139.7384743
188.7907721
212.5820045
88.50914475
103.5344428
87.91359171
190.5603197
271.2275413
273.3897848
219.9636496
239.2226049
167.8897435
192.0933146
253.6317036
251.2493721
273.2819258
271.4188753
195.7511221
174.585515
203.6752247
199.9297774
229.9657203
225.4381685
186.6066636
195.8805351
192.4895039
167.8520726
1323.759439
1367.348021
1299.163229
61.7670625
1779.734992
1233.689038
63.57718867
68.55953153
79.39509962
44.33153857
57.6439747
51.02925615
412.677507
472.836912
505.2957745
195.3009734
229.9471782
188.9025847
79.52478313
68.55824958
99.64808354
52.12062839
61.07153033
66.06395514
51.3586988
56.0872588
48.7634549
1427.444087
2193.637566
2199.610684
1448.854496
1475.96866
1043.848432
99.63684302
93.402348
150.2431339
64.83231568
78.99782804
82.23108766
70.82622178
75.17082909
61.97537596
847.3669715
1035.744704
1004.491456
1526.493523
1512.621781
1117.956216
106.766869
105.4448017
163.9272268
72.69246563
88.44736537
89.45655586
84.87965704
86.92066856
71.25207848
494.8681676
634.8497663
606.9659295
912.2133559
844.0651505
602.0230758
1198.823744
1302.955956
2072.127243
331.5554112
538.9481383
480.8206714
428.1251878
415.1414746
355.7737691
950.7771178
1370.222853
1420.718547
553.8872814
588.7537162
476.4737836
153.4585064
179.9544781
132.1220012
391.3587082
300.3905667
276.3897639
426.8504967
407.3283635
613.7988104
1153.64231
1549.634533
1540.413712
2193.710895
2183.808905
1433.382056
261.9392869
269.6886806
179.6083119
994.8344439
509.4062156
521.5646342
546.3332022
551.0294516
909.6116131
786.0701202
461.4075329
443.9505742
520.9012471
518.998425
965.9122492
169.2416441
244.6522205
258.5145412
681.9581651
1033.178834
938.3146791
977.7955783
955.947373
796.585781
262.946154
256.5941083
193.8901485
606.0151463
457.3898939
467.768223
282.5698034
293.917832
547.3348312
846.5490157
533.9801328
541.2054582
478.3757714
488.897694
724.3867371
195.7904688
269.9385213
265.2245875
383.0241374
458.3849617
443.0806039
581.8498034
557.7568286
446.0649148
463.3198471
1103.747927
591.0608936
1167.385271
693.0574548
111.6946898
106.5116679
155.8881937
75.44486655
90.2788752
90.06716144
90.07520384
90.32253162
75.0946453
714.5077497
1077.928937
920.0545025
850.9773454
832.6113302
736.2358344
201.8584717
125.0853931
98.70156206
253.8419687
231.7943113
304.4738921
97.43992492
117.1796118
143.7236085
796.4356619
920.1128249
887.7167454
1318.052146
1223.75793
945.1674659
212.3259245
208.1201432
177.2632476
354.648395
256.5058471
251.0286296
241.7854773
248.4267516
345.9634791
438.8248442
267.8157282
278.7941544
253.4826478
264.4954968
425.7402512
184.0785398
221.0651908
216.4690563
106.2342008
117.1362955
132.653884
152.7677175
68.85158971
96.46010717
82.66381286
108.7826455
104.5629124
70.60420781
439.4583516
665.7579682
368.2727728
814.7860927
330.9046799
245.5932891
1213.680866
1035.664716
1717.678578
216.621279
309.8498554
404.1670383
1580.632698
1637.965389
1198.715358
1137.796412
1550.843822
1579.25169
1194.097463
1172.123516
936.6249013
995.0216168
1264.167409
1223.090466
694.4998246
663.5399415
514.1563677
1958.630839
1285.347889
1383.405382
955.1378422
988.7206309
1306.247816
1503.686665
1616.065066
2980.483632
576.998919
819.6162953
783.8616837
597.4896304
722.7388287
688.4886908
875.5287028
808.0163262
623.9877052
972.1971166
1015.787782
733.4479003
624.9194253
861.8105335
912.5818498
1596.734268
1589.793331
1200.359279
1239.037209
1639.574968
1610.325437
555.9191924
556.2928099
976.8933729
327.1536723
414.3081339
415.921563
407.5424745
411.3957259
324.6129724
331.4905884
415.9799638
414.5070068
416.8538215
416.6636935
331.5344054
916.4183704
553.7867822
555.2113888
491.9049261
476.365921
804.6190047
286.2422177
359.687723
367.9961561
336.6558298
347.127884
277.8151374
312.1223528
395.1531442
401.8415628
379.2589491
385.3896426
306.6228518
939.7494362
519.5305889
504.7418172
1200.925829
1076.074576
632.2240521
722.091639
851.2114826
832.9354018
994.146631
706.4932868
709.1405757
644.756546
674.1666954
951.9176603
431.3434496
534.771991
513.6928299
1100.520983
1593.166596
1443.863849
3229.017863
2863.931877
1578.364355
656.3474226
1933.700071
3551.868858
3180.37833
120.0008962
167.2867079
227.5188555
160.3729978
111.2077808
333.6129697
181.3696992
265.8263487
312.9897116
433.1427803
132.6148814
199.516346
165.4915976
232.5110937
223.7493434
139.6977305
2046.023271
2151.077402
1401.349954
1064.484796
1491.215662
1513.58663
1102.05529
1069.735177
866.4560951
2232.511629
1414.871861
1481.666957
1267.4302
1335.47107
1968.308828
1101.181438
1489.231892
1454.863702
1208.908736
1301.422075
908.1546649
345.9092808
319.8610811
436.0839074
207.2047673
250.1614891
265.2613466
218.2375738
234.4669474
195.2179723
250.4000997
310.3226121
322.7625684
281.216777
295.1888601
239.6351933
586.2532784
388.0785407
367.0181516
1568.399738
1559.8834
1164.301428
1413.801125
2136.495424
2025.821339
1642.015364
1184.691467
1218.464137
1128.035827
1154.868707
1600.799516
781.4266816
935.1265742
916.0933211
436.6585988
446.8807928
585.7893169
301.8770812
362.1756646
356.1740637
374.3005878
368.4420158
306.0807889
516.7008991
526.2248604
831.546075
327.1488665
405.3360659
401.0652387
412.1650513
409.1207113
329.1764931
316.3681141
385.8389377
380.3024117
396.2772079
391.3528597
319.7760149
742.8706012
498.0925274
508.0313216
493.8073152
475.6936204
394.769012
778.5667346
590.097875
616.0156071
541.8908208
565.3484175
699.5210204
859.037837
1374.188127
2399.025154
1277.211366
2019.192987
1798.401045
2683.642179
2290.409188
1398.318619
575.4657932
3545.24596
1865.54636
2087.945194
1506.178943
1675.86383
3111.88941
900.3154874
1141.542134
1071.113091
838.9492283
1250.447726
1551.429039
906.8565875
1136.626648
760.7193712
1723.145494
2013.335573
1307.030387
468.1829118
646.673663
805.3320255
457.1371299
556.6841889
423.0592609
1251.615077
800.9975731
684.8801793
1235.668692
1683.780069
1850.645502
1523.731292
1545.583499
1124.255758
1524.381806
1553.856891
2579.890725
918.1447316
1150.843496
1128.749054
1393.488369
1324.111031
1024.156053
1151.342861
1209.345567
1794.369078
812.880059
946.3814901
916.5413952
1027.141141
983.9456735
834.5566733
1034.41519
1383.49787
1294.31491
1595.797973
1494.836105
1083.083814
903.5351045
1125.56311
1076.872554
1225.614799
1175.50983
935.0590556
3115.251862
1708.170103
1804.474446
1856.120344
2110.939994
3867.149939
968.6454251
1306.269911
1202.110209
1587.454103
1430.89743
1036.436722
769.7360049
1071.561864
1133.650055
743.651355
790.6277352
587.4642634
1699.470996
1153.06981
1082.034363
1345.334289
1281.721512
1926.785941
1191.539085
1582.509992
1576.150869
1844.418641
1706.271513
1270.707996
1561.592
2782.103794
2484.676033
3077.880036
2905.664203
1635.792365
1219.809125
1769.878956
1681.970467
2132.51208
1901.497419
1282.516899
1891.784261
1746.918281
1168.285379
1436.56934
2393.85565
2083.646919
53.49099818
48.11519327
50.5310685
40.3848476
43.04854409
47.04017007
38.06115321
40.45232778
38.44155501
89.64632959
89.06020984
75.3225653
304.060331
228.7489842
234.4941004
217.1521164
222.5716229
274.0140364
261.1626021
377.7879626
452.3269054
255.3130421
322.0651567
227.5275199
888.3227074
419.4795916
376.9569589
710.2307306
1269.264989
2599.625818
313.7380996
473.0299755
403.1930806
518.0286025
516.2997883
323.0484975
75.93228652
67.94090969
60.2586046
91.77559093
77.65220764
83.89169232
406.6988646
436.0897711
394.4510104
848.2546228
595.1446291
525.7823771
719.2741476
640.9342506
915.8286744
825.7534598
978.4258538
930.7270119
1113.142762
1039.708235
855.1288386
2449.881107
1446.988709
1626.902805
612.0872066
500.0503104
520.073509
464.0160289
480.879164
585.9083306
1299.56353
859.7259815
784.9515667
990.7285718
929.8128493
1346.747308
503.3215258
643.969619
680.1812862
884.5293315
1322.678325
990.6901382
1034.014329
905.9749754
938.0003121
1234.287852
724.3456759
794.8631522
796.4687324
160.2534799
186.3329627
202.6044856
261.4239499
207.4379191
188.8995419
1011.162896
963.9651886
818.4604629
1974.846126
1265.032161
1366.100955
1103.710775
1173.5638
1756.42386
98.46211283
109.7792677
103.2610254
137.8395794
128.1086077
104.9616051
198.6137989
150.4456012
190.6811854
740.7401658
833.3305307
818.0982671
885.6239747
862.0595614
756.094471
1416.416544
1041.132274
1091.172979
894.7885354
874.7728955
736.6154078
1428.168147
1060.069754
1094.956202
988.3829378
1019.678625
1335.067445
202.3623498
256.6400099
228.66129
341.8685196
301.534909
229.7616391
584.4669094
391.1761484
500.0967372
31.97041271
31.9704056
31.99023558
31.967566
31.96225592
31.98681514
31.95455873
31.94618156
31.98163103
31.93789372
31.93024533
31.9763885
31.92362019
31.91826531
31.97232822
31.91475004
31.91040338
31.96978158
31.90766735
31.90567595
31.96825382
31.95491106
31.95658672
31.96156416
31.95249685
31.94824463
31.95488492
31.9296664
31.92150259
31.9334936
31.89746403
31.88915657
31.90747268
31.86805945
31.86172559
31.88567839
31.7977331
31.79581274
31.85168366
31.7889116
31.78341117
31.84360089
31.77953955
31.77755081
31.83800655
31.9767227
31.97990109
31.96681301
31.9722094
31.96209722
31.95157783
31.92462604
31.90861589
31.90586841
31.85783034
31.84126979
31.84944739
31.79763818
31.78402009
31.80036582
31.71419808
31.69455929
31.74284062
31.67978485
31.66852997
31.72441212
31.66045026
31.65570433
31.71273635
32.14974902
32.15823504
32.09479791
32.14005167
32.11239312
32.06132881
32.03430049
31.99777549
31.95757656
31.89077829
31.85726864
31.84524498
31.76987554
31.74323234
31.74968527
31.66345785
31.61617896
31.65188635
31.58740756
31.56578057
31.61518513
31.5502744
31.54047187
31.59352299
32.83682316
32.86789829
32.60941943
32.76040097
32.68154166
32.50603803
32.44523271
32.34759989
32.21914947
32.08425978
32.00837007
31.95382851
31.82001999
31.76987764
31.75459144
31.65850936
31.56749413
31.58759649
31.51745952
31.47866612
31.51975258
31.45118937
31.433249
31.48202843
35.9300689
36.07869174
34.70943696
35.09928797
34.69909666
34.06695534
33.66866046
33.35600553
33.0028561
32.62245921
32.4361535
32.30081654
32.01484674
31.91038016
31.86149931
31.72414063
31.55680206
31.55512659
31.47160816
31.41075239
31.442044
31.36574808
31.33457296
31.38028575
49.26258677
49.44366771
46.46004519
36.99258307
35.89438793
35.05184567
33.78684536
33.33997675
33.0722595
32.42333001
32.2161237
32.12117266
31.8743502
31.58331969
31.56485474
31.45353407
31.36219994
31.38419992
31.29484772
31.24599346
31.28777443
76.80288053
69.51265928
64.3792624
44.13439466
40.96717341
39.47477339
35.7999622
34.85218282
34.44456379
33.07857133
32.70886474
32.56764341
32.10468672
31.66045088
31.61672857
31.46222936
31.33006675
31.34404891
31.23656798
31.16748677
31.2052628
135.1316241
113.587672
108.8352473
53.28271164
47.49291522
45.87414906
38.39156382
36.79642344
36.33451331
33.92110472
33.34477604
33.17947943
32.38369931
31.77232807
31.71382965
31.49443573
31.31241482
31.31921979
31.18904312
31.09801277
31.13235962
162.6488408
136.8421357
135.4142872
60.39135329
52.91398844
51.76099289
40.81942242
38.66144101
38.28611306
34.77293569
33.99760515
33.8391073
32.66268389
31.89544046
31.83438013
31.53938519
31.30541497
31.30751442
31.15005553
31.03655136
31.06788279
160.3373754
138.110379
138.5953887
63.9826568
56.00579256
55.45292772
42.54520375
40.04580952
39.81023534
35.46955392
34.54656723
34.419526
32.89661152
32.00734322
31.95421645
31.58362709
31.30226192
31.30342629
31.11651303
30.98159962
31.01030696
147.7972135
130.289181
131.5270509
64.78746601
57.07461058
56.9340657
43.46591852
40.81813867
40.7137882
35.90620217
34.90474167
34.84255747
32.05358776
31.29942162
30.95723386
49.4586937
103.6525366
98.24697002
115.3255559
133.5225403
131.3202266
157.1681071
139.0821373
139.3114501
163.1786339
318.1856438
360.7855826
353.0198584
554.7160929
538.0675955
670.9783746
1013.987334
760.4219141
758.6467024
719.9179839
724.954
895.1386719
744.4137535
583.0489411
566.9639222
754.3278461
748.2503329
1001.964457
397.8851023
406.8809207
513.0228429
869.4078669
708.6554274
714.670346
343.3905723
132.517383
133.6343399
152.6362596
153.9919574
130.6896661
119.8464094
372.3491254
319.2597111
324.8472459
285.1606144
290.5471106
330.5151525
466.1490236
379.9473469
388.3892967
333.0118211
339.1240818
402.4315688
68.80485524
76.75550206
78.62233863
78.56831348
79.1177665
72.41568137
465.4994354
332.8926535
278.8472713
745.9737059
747.7870201
947.3353583
927.8138364
742.2083393
743.6293655
661.5010255
647.9183485
839.7650394
891.4452007
686.4114728
672.9488826
809.7342145
796.9835974
677.2183624
1101.095494
889.9321022
914.9229083
754.618645
774.3997129
883.1415932
451.3447472
441.0680224
467.9883926
535.5043622
473.1892422
458.9220028
661.1498025
669.7124508
801.2273992
764.996731
644.627765
653.1846241
809.4073092
718.6125504
739.0428558
59.98086037
55.73268002
58.43368799
311.7074071
274.897576
280.6561123
165.3258846
188.8691771
185.8394866
56.15772215
63.29315893
59.618016
106.5764602
97.34610539
102.6497684
345.8172123
402.378933
391.0591093
155.6543826
170.766705
148.2576087
249.2264035
212.3112311
226.0033721
31.95133307
31.95228376
31.95954321
31.95683493
31.95478001
31.95487797
31.95682519
31.95949829
31.96155657
31.9565859
31.95499906
31.94666555
31.94529438
31.95154224
31.92990984
31.93883009
31.939452
31.9497308
31.94335061
31.93671649
31.90595504
31.91277909
31.92256251
31.8927838
31.90373801
31.89576343
31.92612261
31.91390345
31.9053017
31.85996293
31.87327401
31.88383214
31.85513373
31.86467519
31.84954151
31.90073199
31.88189274
31.87444937
31.81893167
31.83938803
31.84756495
31.82623301
31.83297913
31.8110678
31.88082465
31.85637308
31.85122111
31.99455175
31.97165496
32.03712846
32.00631293
32.00292361
31.9983617
32.00356778
32.04108554
31.96649655
31.98116151
31.97870259
32.00971913
31.98404404
31.9927317
31.95210016
31.97012192
31.99488238
31.9430622
31.95172174
31.93826477
31.93299932
31.91632072
31.9351426
31.87765324
31.89766167
31.90903306
31.89154975
31.89271778
31.87513368
31.83950682
31.83790701
31.85844145
31.80209288
31.8190507
31.81751796
31.83670665
31.82674035
31.81129742
31.75880654
31.77018522
31.78584295
31.74286486
31.75606749
31.742234
31.79068184
31.77235494
31.76151543
32.24498436
32.1408859
32.39715314
32.27003985
32.26784094
32.24090108
32.25469492
32.41512389
32.08790967
32.1673808
32.16186354
32.31079424
32.21528393
32.23443781
32.12988644
32.17514962
32.27767022
32.03868478
32.09113843
32.06682452
32.12459244
32.04909609
32.08998336
31.96347049
32.00684658
32.06770768
31.92988406
31.96145051
31.9253205
31.90818469
31.87998863
31.92111001
31.80449888
31.84075003
31.86184065
31.81990362
31.82666773
31.79728182
31.74663572
31.7434708
31.77274533
31.69282179
31.71578117
31.71595946
31.73041987
31.72179974
31.70167436
33.21621642
32.80824782
33.84650609
33.28283356
33.29729305
33.15979876
33.2178036
33.86196471
32.57772704
32.8951738
32.86415974
33.37448235
33.04420984
33.13889429
32.74467354
32.88089437
33.24985547
32.42731396
32.62170924
32.54325776
32.72704388
32.50970945
32.62782249
32.28611221
32.39520895
32.57094015
32.15059276
32.25409033
32.16650138
32.17655711
32.08760816
32.18279744
31.92197232
32.00085661
32.07200389
31.89658503
31.93976418
31.87655784
31.82257693
31.79222061
31.85281017
31.69402058
31.73963126
31.75956025
31.71875513
31.72582537
31.68842961
37.93632829
35.74732334
42.93450511
38.10349568
38.34949865
37.13699295
37.70032131
41.48852321
34.56155481
35.99355763
35.70279483
37.33149736
36.03720051
36.70783237
34.68904173
35.23033858
36.55022068
33.7074334
34.4018578
34.02324108
34.3586297
33.80151874
34.22026044
33.12538264
33.43990228
33.86397699
32.80157966
33.079097
32.83579737
32.81581481
32.61998629
32.85408738
32.24269009
32.41727008
32.57034464
32.16849485
32.27596071
32.13591614
32.03961719
31.96868857
32.0938109
31.77316719
31.86275461
31.91406607
31.78643204
31.82040899
31.74464353
61.71995342
55.10321759
54.56878413
53.40746124
54.36820521
61.4877866
46.1489504
49.53925504
49.04129801
38.10943783
36.91464129
38.39238267
34.92297243
35.79201682
36.64753052
34.40452805
35.02606979
34.34019405
34.02192499
33.68011262
34.23531385
32.86249891
33.22892462
33.49294026
32.76592099
32.97495265
32.67351598
32.43995449
32.32095833
32.56410113
31.95942496
32.12214887
32.21005405
31.97420551
32.04395007
31.90172918
80.88978342
75.02162077
83.43701873
61.67370729
66.92953582
71.4854026
44.21947053
42.57271701
46.41129621
37.91980212
39.87233528
41.04208387
37.64268808
38.69711581
37.04400016
35.79965831
35.35347872
36.46681603
33.81542201
34.49030095
34.83266111
33.80585288
34.11912814
33.54012999
33.01521019
32.86162548
33.28338252
32.25495606
32.52465468
32.64021051
32.30592488
32.41137432
32.17130418
121.9808442
117.9656907
140.9244816
88.19511411
100.5498988
103.8837356
93.16371602
97.03276863
85.69797659
50.46331813
49.03504577
55.36207431
41.43682206
44.6159058
45.67279725
42.26886453
43.44055892
40.53337781
37.77065232
37.33705491
39.10034981
34.95222206
35.99013718
36.33078237
35.22875268
35.58777621
34.6521394
33.67628327
33.51361627
34.14512238
32.62232588
33.01547441
33.13995272
32.76314335
32.88845357
32.52707217
138.7435874
138.0031852
163.4938436
103.7057657
118.2740538
119.2705606
115.6261596
117.1450737
102.556188
54.76191363
53.90932777
61.60676202
44.37895003
48.41297256
49.09256913
46.70268718
47.58376887
43.70615214
39.43201456
39.11055463
41.37927265
36.01593314
37.36643911
37.62332324
36.7144271
37.02306115
35.75737062
34.28759599
34.14584262
34.96539682
32.99275649
33.50094093
33.61254357
33.26360126
33.38684297
32.90558101
136.560014
137.1683372
158.8382088
56.7549064
56.4423457
64.40563885
46.22464292
50.61275518
50.88259078
49.71151428
50.16308771
45.82236366
40.52232329
40.32741219
42.8895039
36.80609494
38.3475362
38.51932624
37.9259624
38.12040275
36.63236873
34.75231835
34.65113546
35.59973166
33.3080972
33.90096062
33.98362495
33.7155764
33.81743827
33.24230138
51.11678492
51.28324939
46.87593985
38.6790268
38.77357101
37.16998678
34.0578042
34.11093325
33.48567833
196.860429
170.9320297
163.5138296
182.5211943
176.0013749
205.0310113
272.3819896
230.7598196
229.1191984
232.7937692
231.7625732
273.0732702
226.7953287
193.2666724
187.4577933
202.81247
197.9418957
233.2796077
251.9046044
223.4831531
225.2289226
272.9651571
233.7141445
233.2665263
233.6116737
233.6897009
272.1575811
53.46457705
48.16132848
47.32233899
43.95613973
55.06795077
50.10583144
51.20654408
46.98499677
48.03034073
52.71837932
75.54107919
84.83730036
89.13565658
75.91781349
80.47717462
72.88109569
107.9595373
92.55071961
86.71901185
97.73903363
111.8227539
113.9375032
106.7934582
109.5217054
95.84040246
154.2076518
128.6538521
125.5616576
106.5024386
120.6680171
120.7491386
119.8904416
120.41444
106.0494133
163.7022317
139.3984773
139.2397598
889.1320017
769.821212
787.4466085
734.9927178
752.9127243
863.5225883
380.0894162
370.5215243
324.5209728
518.4649338
433.1914686
447.3021297
407.247456
418.6840517
498.1760883
162.1257038
145.4528264
136.722819
158.4027876
150.4336753
171.4715141
643.3403277
525.6219973
508.9899131
265.0519595
223.493454
220.7378023
227.5604177
225.4021012
267.4875259
757.3692988
759.9984139
1007.238526
522.7326645
582.6064156
601.7744926
572.1030576
579.3092476
522.7133831
902.9407891
729.2968302
733.2219072
610.4263817
594.9115712
765.1035938
519.8496925
557.0551003
565.9646887
537.1774637
548.2714256
519.2101895