/*--------------------------------*- C++ -*----------------------------------*\
| =========                 |                                                 |
| \\      /  F ield         | OpenFOAM: The Open Source CFD Toolbox           |
|  \\    /   O peration     | Version:  v2012                                 |
|   \\  /    A nd           | Website:  www.openfoam.com                      |
|    \\/     M anipulation  |                                                 |
\*---------------------------------------------------------------------------*/
FoamFile
{
    version     2.0;
    format      ascii;
    class       volScalarField;
    location    "2.11";
    object      p;
}
// * * * * * * * * * * * * * * * * * * * * * * * * * * * * * * * * * * * * * //

dimensions      [0 2 -2 0 0 0 0];


internalField   nonuniform List<scalar> 
3259
(
665.4716039
668.9079011
676.0311757
686.1622429
709.7395911
729.8613884
755.0997231
797.018909
848.648338
907.5492194
969.0449777
1065.849211
627.4535909
629.8120008
634.8698751
641.753117
661.3614781
674.6583398
689.6167222
719.2357445
748.7010721
775.248059
792.2183424
838.187311
586.9645805
588.1663489
590.8434547
594.2128952
609.9694123
615.7318994
620.7843256
636.1194345
643.2726062
638.2258195
605.3331618
509.7018206
544.9797476
545.0971953
545.458827
545.4949215
557.4515054
556.6249763
553.0938863
555.4687723
544.7938961
517.4726417
458.1171454
342.3363633
502.4659192
501.6613993
500.0415932
497.2362348
505.5886792
499.3298045
489.0024943
481.7797035
457.6144021
417.8795517
352.4525626
252.9159631
460.2997817
458.7544492
455.5434102
450.4896903
455.6659097
445.3117277
430.050561
416.7594448
385.0795175
339.9908534
277.1732458
195.0362381
419.1875314
417.0791035
412.6575711
405.9450075
408.5803741
395.4179048
377.0578962
360.1351145
325.9540349
280.2539022
222.3449447
153.1814692
379.666713
377.1690504
371.9076075
364.0882243
364.8166241
349.9766123
329.9235716
311.3938156
277.1428117
233.7825104
181.8039419
122.5172508
342.1213072
339.3942698
333.6339677
325.1858387
324.5926195
308.9769924
288.3196203
269.5525572
236.653553
196.6748464
150.6270219
99.73221717
306.7972707
303.9747718
298.0063578
289.3281514
287.8725097
272.182309
251.78967
233.5764816
202.8160729
166.5964277
126.0216195
82.16720316
273.8160538
271.0030181
265.0560868
256.4658448
254.4990766
239.2497972
219.7243939
202.5188476
174.2852813
141.859406
106.2028175
68.32686001
243.1967243
240.4722286
234.7169009
226.4498937
224.2519136
209.7917999
191.5650313
175.5703301
150.007358
121.2285781
89.97473662
57.21162761
214.8827253
212.3043571
206.8613647
199.080872
196.8649388
183.4166129
166.6842688
152.0723397
129.1674467
103.7961621
76.48300844
48.14835347
188.7645382
186.3722091
181.3235998
174.1364598
172.0604602
159.7547568
144.6028823
131.4554519
111.1209583
88.887932
65.1086775
40.64823035
164.6936677
162.5131261
157.9112541
151.3820737
149.5641788
138.4641798
124.9142213
113.2468599
95.35586432
75.99707418
55.39579805
34.35125919
142.4946051
140.5407655
136.4155891
130.578407
129.1047031
119.2291687
107.2609171
97.04859936
81.45797507
64.73046459
46.99864171
28.98783544
121.9763032
120.2563729
116.6217578
111.4889429
110.4248267
101.7640597
91.34862321
82.5237
69.09232801
54.77910568
39.65057901
24.35635359
102.9404163
101.4562203
98.31499291
93.88436326
93.27952809
85.80542984
76.91924215
69.3935487
57.9848527
45.89507231
33.14455524
20.29924648
85.17928159
83.93027162
81.27911803
77.5364858
77.44592058
71.11268979
63.70070474
57.42683957
47.90888184
37.87541769
27.31216956
16.69058153
68.51078891
67.49259092
65.32490158
62.2538729
62.69782835
57.46547278
51.41712201
46.428269
38.67029823
30.54905119
22.01348483
13.42900087
52.65411324
51.87137012
50.18739014
47.7610559
48.87756587
44.66181537
39.87961604
36.18784868
30.09194702
23.76520529
17.12552339
10.42916049
37.70963355
37.13783456
35.92549234
34.18734692
35.54860535
32.51121589
28.97198399
26.5292796
22.01679038
17.38884855
12.53920161
7.617881537
22.4148354
22.13986605
21.41948258
20.37195886
22.82233875
20.85284721
18.50787397
17.29978843
14.30561762
11.29353327
8.150783117
4.927746236
11.21817255
10.95039366
10.57032601
9.970995134
10.38550429
9.38146944
8.255538556
8.36328529
6.839579155
5.349604563
3.850446037
2.292479958
1077.733725
866.9361748
1009.20167
1071.350448
837.5481532
863.7218357
1049.339709
981.70758
1043.948099
1132.866551
577.1952858
1138.428803
1143.477308
1035.850118
1037.825776
967.597179
1043.804238
932.2486051
1137.942988
1048.93659
-302.0072478
1088.122848
1053.272255
1014.695361
1099.532353
1065.262481
1093.428065
1171.362556
1141.998733
1110.332992
1152.377158
1177.669311
1181.768039
1174.981306
1000.438077
956.1044114
939.3295687
958.8246951
482.299815
185.1107869
1099.371848
-290.3734667
141.6242598
-205.1036821
1094.737332
-238.6688362
108.6016472
649.4486297
606.0297578
829.1390824
718.407828
737.7750509
974.2983598
1062.877441
1047.767447
1027.17452
876.758037
645.5929002
1205.85121
1149.671777
815.9411819
942.3590511
904.3494391
1019.810658
994.353557
1011.283056
151.6861273
1019.918156
445.4832379
701.3689374
518.7602617
598.7947253
1116.796604
1068.972977
1072.503189
1054.38928
1066.028475
1107.249359
1095.180491
1078.768849
1201.112744
1156.851298
998.019486
984.6912802
958.2056572
635.6319366
543.8597523
1008.855366
267.3831917
422.2342166
317.7031884
1109.415194
-443.5416295
-10.41924047
212.1381431
-55.34341488
1065.263751
1117.657512
1101.312915
1113.737958
1148.838231
1137.96516
1123.364782
1148.217209
1154.69767
1148.115611
1037.518877
1132.483341
1138.951273
1143.136568
1051.922235
1159.197728
1143.51507
1153.986769
1195.460662
1180.455301
1165.057387
1185.584252
1193.891893
1188.825598
1168.692858
1172.051217
1178.224457
948.4308691
956.6038388
943.8872785
696.7306503
957.6649491
359.5041465
489.7212272
611.2118006
1105.284196
1106.38255
1102.496859
-354.4885765
-197.6993429
-175.1679162
-190.6296112
1088.090953
1094.62869
1101.398868
-89.86659385
1219.156948
1217.461821
1152.024591
1149.213251
1155.820729
1147.572929
947.8722774
989.1504061
1114.577128
1021.819529
1014.331724
1003.914314
1030.160669
389.1856973
373.8676354
1088.705545
967.6844806
738.583174
1118.199574
1130.485194
1125.478044
1060.212152
1198.725231
1188.512824
1214.710845
1208.526732
1161.425176
1165.994145
1162.440575
1168.579348
1164.231676
1180.413408
1174.268423
991.3584906
977.6682188
983.2356661
593.3151234
610.1846926
671.8007096
549.7818692
557.4012783
539.8767267
996.4533528
363.4503355
311.2339465
244.2559251
1105.155223
1106.671229
1109.338819
-421.5200429
81.04856135
22.10192663
194.5782192
182.1016858
194.9270158
3.389637877
-130.4221513
-111.1919799
-9.11622326
1076.525388
1088.722847
1081.898066
815.668832
857.3419088
872.7794336
922.0555807
939.0943647
991.1854733
738.5677943
764.3626555
834.7327314
773.3742903
799.8208861
892.51996
808.0544623
831.0512837
953.4372503
927.0688881
936.7993852
1003.697038
1032.097162
1056.451105
1090.905515
656.716852
666.5263346
741.2546834
669.1415037
672.1749681
769.3570217
671.0193406
658.2862572
789.3103733
743.9298597
742.5015713
811.4547251
798.1495591
794.6117771
869.3453445
575.1876275
570.8159391
642.1979659
568.3656119
553.6226677
641.0726491
545.6047711
508.4261986
617.4785125
490.571049
417.453502
543.9706864
374.3544418
499.3993711
484.4441361
548.4240655
478.0698962
452.2891604
526.6236795
440.7703487
394.8629528
476.8814192
375.5301203
304.6647368
383.743837
271.2262759
432.2080572
410.512672
464.7092639
401.8418777
370.3182565
429.8724721
357.5989508
311.6999549
371.548303
293.7745625
231.5402259
283.5543732
207.6602338
373.5128304
349.1830132
394.107751
339.6815222
306.4524926
352.7904882
293.71589
250.4936715
294.6227142
234.4962836
180.2671662
217.0976419
162.4899035
322.8789533
297.9596473
335.4983852
288.4934029
256.375437
292.8525211
244.4140295
205.0897168
237.8768544
190.9230222
143.7719354
169.8902804
129.3189337
279.4112569
255.1267339
286.5292302
246.0924885
216.1258893
245.4954417
205.2141947
170.1697872
195.5278525
157.7184556
117.2308916
136.3876332
104.8686096
242.0615752
219.127403
245.5421744
210.7305331
183.3525803
207.3090772
173.5581472
142.5912295
162.6793182
131.6661751
96.92114113
111.6563573
86.16110239
209.856727
188.6514305
211.0362597
180.9826427
156.3150009
176.112433
147.6167989
120.3520785
136.5927062
110.7809399
80.98576336
92.58081804
71.50037531
181.9480847
162.6414021
181.7663254
155.725875
133.7276368
150.2931981
126.0554631
102.1091655
115.4586779
93.74644304
68.17373348
77.529531
59.77549196
157.6459458
140.2676415
156.7355683
134.0928646
114.6321115
128.6583129
107.8946086
86.92597108
98.05693566
79.63662097
57.65424826
65.35410328
50.25114234
136.3574289
120.8662114
135.1615413
115.4004555
98.30049086
110.3143288
92.40822978
74.1169197
83.52351524
67.78074781
48.87112868
55.31351591
42.39809794
117.5878398
103.9053037
116.4157055
99.10736407
84.18043343
94.58172502
79.05377584
63.17476446
71.22320133
57.6889106
41.4276982
46.89721807
35.82872295
100.9219266
88.95199547
99.99383067
84.77716097
71.84405091
80.94360335
67.41316629
53.7142944
60.68363024
48.99031324
35.04484271
39.74204121
30.25329344
86.00794896
75.65160461
85.4839971
72.05603618
60.95420424
68.99723203
57.15813333
45.43714789
51.54402206
41.40193175
29.50553296
33.58792282
25.45481189
72.55334413
63.71407354
72.54960526
60.6567996
51.24194444
58.42506006
48.02771764
38.11086392
43.52416403
34.70173704
24.63924833
28.23146602
21.26713095
60.31659095
52.89906015
60.9136176
50.34210846
42.48700937
48.97122403
39.80903197
31.54952489
36.40535957
28.71510524
20.31299862
23.51179971
17.55651412
49.09508461
43.0028555
50.34633243
40.9113679
34.50477028
40.42567008
32.32417122
25.59850169
30.01005427
23.29512086
16.41727266
19.30258543
14.21675889
38.68404168
33.83855867
40.65028185
32.18353063
27.13315555
32.61057224
25.41786883
20.12436703
24.19011967
18.31513209
12.85698252
15.49913345
11.15869988
28.89510688
25.23770091
31.64158122
23.99630114
20.22775993
25.36844021
18.95173251
15.00891011
18.81625071
13.66319692
9.546843543
12.009171
8.306775957
19.5724201
17.05315391
23.1579002
16.20614395
13.65638235
18.55856917
12.79781564
10.14124896
13.77304793
9.234971588
6.406323707
8.748859237
5.592426897
10.57724177
9.159611787
15.0567237
8.689899932
7.294571445
12.05103551
6.830424465
5.403713239
8.949866439
4.922347662
3.356674565
5.638500122
2.952216476
2.233773381
1.820902069
7.217604467
1.686262337
1.241533817
5.720059594
1.073768763
0.5214099716
4.223487788
0.388562539
0.6980641248
2.589175473
0.5837937082
1101.820812
1133.569713
1108.622481
891.0421016
933.2821502
908.9607845
612.0937314
1024.619753
1083.41094
1047.648921
1132.678785
1094.796502
1035.313748
838.3075635
912.8992822
882.468196
950.2547479
920.7909478
843.2476765
1013.979758
945.4118432
976.9640903
1005.569949
1044.363842
1019.197179
1049.585477
1045.136711
1038.255687
1127.50383
1121.801532
1126.991861
447.8480715
646.8938893
678.7829412
597.2179106
417.0512894
592.2844541
566.4911346
1142.747915
1137.492666
1132.882132
1185.896849
1200.383215
1119.753838
1143.860973
963.2451638
974.7811362
930.3699969
1031.163847
1023.288078
1030.411818
926.3664405
947.8355587
991.6801628
912.8529973
905.1766269
1041.745099
1082.581031
1076.300679
1081.509638
1040.826443
1050.274941
1062.559548
1022.199477
1044.095185
1027.928013
1088.401677
1097.275221
1108.358872
1074.360281
1085.870537
1076.949897
1097.845489
1093.233382
1088.159687
1167.516748
1161.730121
1165.290453
1131.489637
1139.835524
1150.450822
1118.991994
1129.371765
1120.94473
1172.330715
1181.289789
1161.032481
1171.331261
1162.502254
1184.006714
1179.309189
1173.427911
985.6771313
990.6365652
1014.925563
959.7256957
981.9795895
970.7121136
437.1574603
483.2510987
521.1878241
216.8962993
269.1813167
231.1174098
92.65888282
131.3709447
173.8984189
-199.6637416
-38.57390404
638.0399638
689.486483
695.852041
682.1445534
682.1101265
624.1484825
814.6442398
728.0439321
718.2151738
710.340393
751.1603322
757.8813255
816.8224828
746.8272528
686.7138167
882.9384296
808.5055335
724.2411005
1057.689569
1051.917074
1057.018767
1040.832269
1046.30312
1052.535596
1032.532771
1039.605302
1034.089361
680.1626622
649.9381353
678.0569247
582.6209439
612.8079388
681.1888449
1211.79444
1215.228966
1210.200622
927.9871894
954.015169
722.2026039
938.4767082
958.2417355
951.8356764
914.1398245
941.5930937
924.6034613
1011.925762
1017.194508
1025.148456
998.5812756
1008.395062
1003.458469
274.8479318
727.659242
845.899332
792.3287999
654.3532406
881.2941864
660.9780752
771.5889741
710.199059
1066.893736
1071.441702
1077.548365
1058.782886
1065.173306
1060.229949
1074.603025
1069.845916
1063.325246
1103.724929
1098.251292
1102.097853
1089.957387
1094.088978
1099.678907
1083.271843
1088.69553
1083.936575
1195.45961
1201.710406
1207.634835
974.9469029
976.0538153
987.5780611
953.3157017
962.6113468
964.993344
392.4720184
351.012673
372.9411561
276.0189985
315.1300925
356.9780279
5.94696892
59.9127389
36.13712388
1112.613821
1117.016045
1122.546146
1105.487653
1111.320299
1106.600918
1120.650289
1115.896406
1109.751771
1145.843775
1141.467696
1145.465528
1133.372665
1137.323921
1142.120579
1127.826715
1132.68737
1127.984385
1154.152806
1157.928211
1163.503677
1147.194795
1152.460287
1148.378962
1159.386943
1156.114682
1150.840258
1190.270875
1184.963966
1190.018555
1175.763775
1180.152667
1185.341038
1169.139814
1174.720526
1170.051298
401.9884479
446.0542242
405.7616598
516.6845225
483.0689086
444.0533015
561.8479595
528.6974933
567.9725177
-149.6203357
954.7937017
956.4658088
941.1174289
1018.832096
1003.479915
976.4175723
1365.958578
1104.448709
1060.752155
1040.560044
1041.282082
1147.806287
945.3508726
1060.464948
1034.685094
763.7161938
793.3506631
726.0239123
734.1939968
743.4309164
755.8998091
770.0756044
786.2707352
803.6637756
686.9886082
693.4899097
719.067437
702.3803121
711.8995274
741.7414729
722.0782505
730.9278684
786.1972586
778.0585918
788.753603
808.8406882
824.0938216
836.6462544
862.9715689
875.1801941
888.0864461
922.6867112
1055.457024
1063.003246
1074.251192
636.2629977
640.3831015
667.6428364
645.4569575
650.6025109
682.0788307
655.431057
653.3604241
712.5165519
698.4278957
704.2974888
726.3671381
722.148828
727.6161909
755.9611922
740.3835828
742.790863
780.4270822
583.7383495
584.8750729
612.8863398
586.0183081
586.6926196
618.532994
586.5886943
575.8187187
633.9718166
615.6334389
616.7693964
638.3420556
617.5250836
616.2227506
643.4834381
606.2175867
599.3406587
633.5116636
563.95213
545.8720926
589.9281596
455.683784
435.9152836
489.7967612
531.1968319
529.7611724
557.4053627
527.6293829
524.5304716
555.3000351
520.500807
503.3715199
557.2469315
536.2882709
533.4521668
553.5164215
521.7636993
516.1056302
540.0750416
490.7106457
478.6173589
506.3404483
428.1887991
406.1288614
436.2052806
315.1497909
287.8479026
313.9664096
480.1871016
476.5497734
503.0738038
471.8222428
465.7845316
494.6218652
458.8098851
438.0890381
486.5166842
464.708008
459.0033254
476.6474203
438.0974296
429.4621237
449.5594693
396.4602266
382.6103394
404.2321144
331.257468
310.9049519
331.5403088
236.385185
209.7698176
225.8935132
431.6116885
426.3640238
451.255087
419.7991488
411.751652
438.1347946
402.7970384
380.35629
423.0797745
401.8152055
394.7244883
409.9040374
369.1865975
359.1068073
375.2433672
323.5143799
309.657401
326.0478352
261.8266149
243.9100009
258.654647
183.3562923
159.4266237
170.1976004
386.15615
379.8440185
402.8398746
372.1155273
362.868436
386.659584
352.7944208
330.1014328
367.2374042
347.2331742
339.5718853
352.5480807
312.8685446
302.6322885
315.684429
267.5995901
254.4658054
266.8676186
211.1082196
195.363741
206.0932614
144.5819949
125.3703941
132.7518635
344.1584054
337.2421535
358.2527273
328.9146032
319.122058
340.3589287
308.4481134
286.5789091
318.7621842
300.3160925
292.58786
303.6322119
266.310978
256.4828413
267.1799449
223.731921
211.7755155
221.5171864
173.2632811
159.3841749
167.4729201
116.2232906
100.599346
106.1386698
305.6859836
298.5431965
317.6049035
290.0562139
280.2441867
299.102863
269.459611
248.9145254
276.8085759
260.0343417
252.5631685
261.9815998
227.627731
218.4728921
227.3151165
188.5707933
177.8780243
185.6659243
143.9411315
131.7833802
138.0540318
94.91914318
81.95460438
86.15275002
270.6508425
263.5722381
280.7888343
255.2407329
245.7508592
262.4791194
235.2354777
216.2502934
240.4891977
225.3726208
218.3471183
226.413512
195.2316938
186.8652921
194.2471201
159.9662609
150.5013808
156.8322821
120.6726861
110.0696451
115.047145
78.40479199
67.58776628
70.85587587
238.8653881
232.0562711
247.5711442
224.0965084
215.1490005
229.9931344
205.1962658
187.8097565
208.9541437
195.4117847
188.9338921
195.8843313
167.8525434
160.3070795
166.5343709
136.3571063
128.0207374
133.2516876
101.8474961
92.61839074
96.64513659
65.32253179
56.25090968
58.85127941
210.0801733
203.6774057
217.6531736
196.228691
187.9363135
201.1479104
178.7480402
162.962978
181.4549161
169.3855582
163.497141
169.5209607
144.5028341
137.7666235
143.071495
116.60042
109.2788664
113.6635286
86.37288309
78.36513723
81.67530851
54.77517266
47.11773847
49.22888828
184.0200183
178.1067072
190.7075893
171.2559252
163.6763883
175.4605929
155.320355
141.1281705
157.3951076
146.6582969
141.3649197
146.6199399
124.4160118
118.4532054
123.0154625
99.85472341
93.44533283
97.16755284
73.461072
66.53306103
69.29767851
46.14271254
39.62361001
41.36704478
160.4063764
155.0287994
166.4103258
148.8220572
141.9861277
152.5320265
134.4834075
121.8250861
136.2195511
126.6854935
121.9737303
126.5903834
106.983492
101.7459028
105.7069422
85.49312546
79.9070411
83.1037163
62.53987441
56.5630585
58.90501393
38.97314212
33.37985014
34.84004255
138.9639317
134.1431045
144.4552504
128.5975192
122.5100424
131.9910019
115.8535294
104.6470403
117.4687329
109.0151133
104.8613051
108.9473165
91.7206842
87.15556359
90.62756929
73.04150258
68.20084126
70.9768034
53.1846743
48.04969193
50.06049292
32.93183051
28.10841247
29.34744105
119.4274084
115.1676938
124.5496504
110.2824173
104.9336346
113.5016207
99.10192352
89.2439874
100.7520823
93.26563267
89.6415745
93.28690495
78.23460853
74.29039095
77.36315835
62.12997188
57.96654873
60.40363409
45.07280802
40.6822938
42.43057288
27.76814249
23.603044
24.66666886
101.5454204
97.84038361
106.4221379
93.60303786
88.974886
96.76872208
83.96717895
75.3283467
85.73092823
79.11413198
75.9920977
79.27199266
66.20702138
62.83630399
65.58240858
52.46658167
48.92081745
51.08403653
37.95190491
34.23000035
35.76787275
23.29368125
19.70770563
20.63165659
85.08214792
81.91594761
89.81902459
78.30630035
74.36392581
81.51531222
70.17399683
62.66028147
72.12876032
66.29612705
63.64734404
66.62351125
55.37692402
52.53698434
55.01596938
43.81606981
40.83698122
42.77865809
31.6290181
28.50860532
29.87898582
19.35915245
16.29726044
17.11032131
69.8126716
67.16526657
74.50447035
64.16320227
60.8677327
67.48987577
57.46519655
51.04079931
59.71733704
54.59037438
52.38605683
55.11001781
45.52788651
43.18032038
45.44157677
35.98501105
33.52911742
35.29239618
25.94253755
23.36978885
24.60712013
15.84622597
13.2709763
13.9964041
55.53959959
53.37957483
60.25657212
50.96306207
48.28480581
54.46999536
45.55661787
40.23907072
48.31405444
43.8017193
42.01191743
44.53301435
36.47038278
34.58180198
36.66972141
28.8077759
26.83881194
28.46137126
20.75760415
18.6881462
19.82174197
12.6575171
10.54425291
11.201996
41.97428961
40.32491555
46.86979728
38.50655435
36.45288828
42.28780931
34.3600048
30.07197154
37.68369643
33.7219144
32.3274092
34.69278873
28.03170869
26.57544952
28.52980884
22.13795379
20.62631142
22.14166988
15.9547779
14.35710766
15.41229545
9.711344996
8.04431167
8.651703385
29.0338438
27.9190831
34.12543971
26.6351383
25.18045977
30.75416369
23.70039489
20.38703335
27.64910523
24.18465473
23.16835995
25.41659952
20.05995342
19.01409008
20.87019465
15.8435716
14.76533084
16.20423594
11.42759379
10.27974458
11.28044369
6.936502865
5.705880055
6.278750458
16.75655209
15.94510253
21.95222253
15.19592007
14.34428846
19.69164629
13.45845417
11.03759982
18.0582674
15.03935131
14.38955063
16.5554824
12.42033971
11.76544515
13.55478643
9.799008064
9.133583685
10.52685686
7.071871052
6.358124593
7.329472597
4.266653318
3.4693858
4.021915024
5.889088729
5.3752555
9.896332214
4.972506876
4.628364957
8.828771318
4.256216225
2.385607437
8.76617419
6.166778674
5.881370272
7.979525089
5.014389003
4.728740088
6.4641629
3.879406631
3.596514829
4.977747934
2.760684022
2.484741811
3.459637596
1.653890701
1.294300037
1.830262846
1085.263627
1096.038372
1087.637137
870.7897912
890.5787596
882.8544503
1092.527171
1079.32894
1058.264535
893.022173
882.9795551
855.3291045
1036.387477
1013.626509
1026.366901
988.976757
1002.217881
994.0542672
1139.631857
1146.976619
954.6035165
961.4743327
975.459167
58.58215248
822.9977486
788.9444692
792.730401
893.266929
859.7626844
886.3808868
820.339318
830.4256445
877.4144687
196.5770309
569.4646638
546.2525277
569.0697146
828.7224918
847.7510724
833.4831458
879.0576948
862.960389
842.6277437
888.7799319
913.6745827
896.0054554
950.6245544
931.9305194
905.2487932
956.3027564
988.792049
969.6156659
1027.484032
1008.071743
973.6649291
746.8339694
767.8108094
758.3155635
788.1335935
777.780098
755.4698716
821.3712412
800.0243524
811.8409134
782.3729834
809.5399909
798.761314
831.0875549
820.3550312
791.2300345
877.6320299
849.3972407
862.239922
815.8699036
852.0738571
841.6748497
872.9493618
862.4515378
823.4757482
937.9652999
901.0623726
914.2430769
1039.625062
1051.456853
1043.076743
1068.220136
1059.699552
1047.889044
1082.462788
1071.23611
1079.720243
660.0883414
682.0235424
677.4611042
691.207281
686.6970711
663.4289068
733.7630213
710.342336
716.3423007
671.1848035
699.0859651
695.383712
704.2509775
702.0847122
672.2951535
762.8894135
732.5696236
736.8706014
668.7662987
704.9556432
705.5036489
700.903031
703.7895744
664.5338594
785.0869131
744.426236
745.0720995
860.2979473
840.6453823
846.5071906
574.1935866
595.2587036
595.2956522
593.926094
594.927613
572.7647962
640.4230755
617.6008488
617.8616608
564.8125503
590.102823
592.3970744
581.8737672
586.7875186
559.9694634
642.7243512
614.2364891
611.1245966
535.6249841
566.6402993
575.2271244
542.3354853
555.7895887
523.3395272
626.6312429
590.2770873
578.7274154
469.3949665
505.8585474
525.7373316
454.8665761
483.5618384
445.6987107
571.2139104
524.925319
495.5357094
344.368884
383.6075187
411.9799692
335.7550716
301.6726487
417.2836511
375.8348369
494.9671642
513.9205858
517.6064864
505.0086829
509.774219
490.0270923
551.238476
530.2085589
526.3856457
470.72429
492.9511289
499.4699902
476.0114182
485.2119769
462.2005958
534.0869805
509.20181
500.8165869
427.4503454
452.302862
465.1170918
420.1555769
437.3628571
412.1795682
492.885748
464.2770973
447.502928
354.119522
378.884476
400.7072101
328.0929617
354.0342811
329.7240562
411.507519
381.1097128
354.1975821
244.0161517
264.5851155
291.7483536
231.3405004
213.5710303
274.3442899
251.4408185
425.6665535
442.0182734
448.2052689
427.7376173
435.2086008
418.4407501
471.0048743
452.7276027
445.8039587
392.3304324
410.3955802
419.5099297
388.9696606
400.2597109
381.8605657
440.3710619
419.7456001
408.7952377
343.618255
362.4445638
376.3997925
330.128363
347.0330644
328.3248967
388.8132786
367.1523463
350.0291994
274.6400119
292.0022371
311.754296
247.2726284
269.8617212
253.340038
307.7904682
287.9287886
264.5166268
182.0986599
195.248649
221.3733667
171.5030664
160.174305
197.9069672
183.9997824
366.0594933
380.1102174
387.4166171
363.4940442
372.1554326
357.9617412
402.3731179
386.9542327
378.4575971
329.4162493
343.8655754
354.0790897
320.9113375
332.8178305
318.3494573
364.5126253
348.1791343
336.3382498
280.1332879
294.3746313
308.108515
264.107056
279.7011713
265.7165879
310.9265485
294.7464064
278.7895165
217.7140816
230.2936503
247.6305994
191.5514802
211.3124036
199.415034
238.1694573
224.2006909
203.8015482
140.8103422
149.6656361
172.5307893
131.707061
123.6622346
149.8538445
140.4047301
315.1327787
327.1037027
334.8332068
309.913771
318.8093459
306.8322485
344.3513103
331.3088457
322.4179447
278.4151118
290.2210828
300.3919086
267.86545
279.3825043
267.7109973
304.6585827
291.6846596
280.0091754
231.8473552
242.8130778
255.6703541
215.2883739
229.333402
218.7206184
252.726702
240.6422817
226.183986
176.1373155
185.4188289
200.6707211
151.7647918
169.0631634
160.39303
188.4447284
178.3552785
160.3958168
112.095031
118.4976032
136.6778372
102.823485
96.98725726
116.1956941
109.2589393
271.7808982
281.9751031
289.6763068
265.1372519
273.8020535
263.6865762
295.3532766
284.35088
275.5967476
236.579196
246.2924254
255.9697789
225.40702
236.1028925
226.5874439
256.6312191
246.1067183
235.1852101
193.8881363
202.5790738
214.2216229
178.1139072
190.5315785
182.1990119
208.7484438
199.3673054
186.551802
144.7208064
151.8173653
165.250487
123.1857236
137.7722065
131.1960583
152.3149034
144.794168
129.5531617
90.63912316
95.44404592
110.3565003
81.8448292
77.48062454
91.5870023
86.5418147
234.7960171
243.5057584
250.8928585
227.5625357
235.7323672
227.1489232
253.9828918
244.6706795
236.3603324
201.9618747
210.0299236
218.9943387
190.9489354
200.6763894
192.8302129
217.5299268
208.9010382
198.9254242
163.4889444
170.4954986
180.8746141
148.9203163
159.8485874
153.1742845
174.3306724
166.8906114
155.6062967
120.3075646
125.8775939
137.6306762
101.530114
113.7893234
108.6602115
125.0274113
119.2354361
106.4320565
74.32758393
78.02044647
90.40422707
66.07172751
62.74912196
73.41629867
69.62076032
203.0961641
210.5779941
217.4873764
195.8147193
203.3553892
196.0239074
218.9024607
210.9766467
203.270907
173.0260225
179.7975143
187.9595484
162.6134614
171.3415284
164.7957333
185.3396587
178.1833445
169.2062256
138.7304653
144.4742019
153.6463308
125.4935684
135.1021773
129.6545174
146.8410214
140.8243452
130.9006724
100.8849275
105.3543207
115.598508
84.63348178
94.93693817
90.85021796
103.8237089
99.25564427
88.49128707
61.5993441
64.50716148
74.85511558
53.96590792
51.3820761
59.63493638
56.71221119
175.762684
182.2284057
188.5737386
168.7737481
175.6289912
169.3227858
188.9678467
182.1740257
175.1449983
148.5883718
154.3290984
161.6699391
139.0140109
146.7686461
141.2471724
158.5289048
152.5250453
144.5315239
118.2402645
123.0213465
131.0935711
106.3513532
114.7843275
110.2677079
124.4633231
119.5118796
110.7969439
85.1463287
88.78959469
97.69957076
71.13563991
79.81185735
76.49251578
86.9776174
83.30295782
74.2505373
51.44907879
53.78662131
62.47563201
44.48589098
42.4381142
48.94825354
46.65300708
152.0557777
157.6772617
163.428085
145.558989
151.7209138
146.258556
163.2430179
157.3792473
151.0449013
127.7488126
132.6625538
139.2014293
119.121807
125.9618021
121.2548455
135.9468702
130.8555761
123.7935972
101.0410453
105.0748738
112.1593427
90.47592603
97.85439729
94.05823225
105.9483854
101.8143399
94.18284252
72.18569596
75.20527997
82.93020646
60.10272772
67.4515126
64.71073855
73.33308001
70.32272744
62.66680325
43.19328987
45.10809909
52.45767
36.92796611
35.27876771
40.50086194
38.66650646
131.3573445
136.2789999
141.4355807
125.4693755
130.9562643
126.1889318
140.9826709
135.8847694
130.2315663
109.8067362
114.0532186
119.8299209
102.1573117
108.1569945
104.1019409
116.7245917
112.3616144
106.159022
86.42086699
89.86587482
96.0615853
77.12706079
83.55963754
80.32860761
90.41620661
86.91945738
80.25993706
61.34301913
63.88378174
70.56283404
50.92821692
57.1907717
54.89424375
62.09213273
59.58779215
53.07352204
36.36449935
37.95768943
44.22800208
30.80918395
29.46142369
33.71290976
32.22474066
113.1584131
117.497511
122.0766076
107.9419657
112.7847734
108.5928279
121.5761784
117.1104548
112.1098531
94.21262737
97.9166703
102.9811773
87.52831751
92.76235606
89.23401669
100.1895798
96.41202441
90.99326665
73.84950054
76.82434532
82.21716931
65.7581082
71.34170614
68.55986533
77.21991654
74.22639717
68.43897914
52.14652639
54.31209373
60.06853754
43.17991909
48.54868806
46.5975343
52.69225424
50.57873149
45.00176996
30.63693862
31.98004201
37.36800283
25.78392042
24.66700237
28.17737289
26.9528415
97.03656185
100.8919099
104.9189077
92.52268612
96.75837604
93.04201099
104.5282763
100.5853936
96.20144728
80.52870262
83.79104723
88.1962531
74.78064117
79.31719267
76.21593367
85.82087836
82.51709919
77.81212283
62.9190685
65.51653727
70.18185474
55.95807739
60.77763183
58.35483023
65.87534766
63.28291435
58.2796778
44.23897874
46.11058849
51.05101199
36.55421545
41.17284674
39.49483906
44.72058741
42.91357873
38.11889245
25.77061263
26.91701093
31.56693123
21.59696874
20.65767576
23.59892931
22.57657514
82.63845661
86.09271239
89.59608721
78.83853983
82.50540031
79.18212923
89.43055313
85.92013011
82.11449556
68.40418746
71.30548957
75.10208635
63.55666945
67.4558894
64.70260196
73.20807089
70.28965519
66.23632321
53.31045155
55.60342682
59.60717483
47.40933574
51.53877988
49.40460813
56.00991507
53.73931846
49.44378687
37.35389378
38.99103054
43.20844261
30.82123281
34.80066032
33.34041036
37.87538975
36.31146748
32.181098
21.58756637
22.57734471
26.59132229
18.05705925
17.25544309
19.75607655
18.88994608
69.67146291
72.79222424
75.79949027
66.58455324
69.71931939
66.72153144
75.94589095
72.7929954
69.52849488
57.55652881
60.16217906
63.3963762
53.57233831
56.88689974
54.41774026
62.02581702
59.42178593
55.96560308
44.77115843
46.81755171
50.21718838
39.86397465
43.36715354
41.46608135
47.33339507
45.32194452
41.66744304
31.28780361
32.73745347
36.30323297
25.80022483
29.22913986
27.93941568
31.92718922
30.5576618
26.99698543
17.94865976
18.81391277
22.26463835
15.01977402
14.32527039
16.4832158
15.73855048
57.89381397
60.73770599
63.277521
55.50911638
58.14722348
55.41845262
63.79575118
60.9386376
58.17947462
47.75287792
50.11705198
52.83047362
44.59651046
47.37215641
45.13434216
52.01101557
49.66331357
46.756882
37.09650756
38.94387286
41.78837952
33.12698059
36.05715735
34.34375179
39.61588673
37.81363738
34.74473663
25.87475385
27.17462998
30.15330803