/*--------------------------------*- C++ -*----------------------------------*\
| =========                 |                                                 |
| \\      /  F ield         | OpenFOAM: The Open Source CFD Toolbox           |
|  \\    /   O peration     | Version:  v2012                                 |
|   \\  /    A nd           | Website:  www.openfoam.com                      |
|    \\/     M anipulation  |                                                 |
\*---------------------------------------------------------------------------*/
FoamFile
{
    version     2.0;
    format      ascii;
    class       surfaceVectorField;
    location    "1.27";
    object      Uf;
}
// * * * * * * * * * * * * * * * * * * * * * * * * * * * * * * * * * * * * * //

dimensions      [0 1 -1 0 0 0 0];


internalField   nonuniform List<vector> 
6430
(
(101.299988 -0.354947706 5.373586474e-20)
(101.5007864 -0.1838276721 3.200803171e-21)
(101.2276398 -0.7188803161 -4.929199277e-20)
(101.4557525 -0.5553352132 5.057754281e-20)
(101.1017434 -1.100173794 -9.434801409e-20)
(101.3689136 -0.9377373288 -1.018968045e-19)
(100.8335954 -1.485463201 -1.402497052e-21)
(101.2251758 -1.358948711 -2.418262048e-22)
(100.9747702 -1.530722225 2.952778196e-19)
(100.6441128 -1.541086603 -8.014318718e-22)
(100.8374113 -1.626414105 2.042252083e-19)
(100.660801 -1.688875639 -8.042517662e-22)
(100.2809081 -1.98648948 0)
(100.4909769 -1.923375042 0)
(100.5203375 -2.099900907 0)
(100.2885855 -2.174811757 0)
(99.7876104 -2.520521389 1.119607059e-19)
(100.0548838 -2.446868048 1.115360816e-19)
(100.0725261 -2.668570788 -2.051294539e-19)
(99.73168543 -2.726582056 4.225093937e-20)
(99.83344341 -2.780309348 4.480697285e-20)
(99.21770532 -3.124464586 1.7807649e-19)
(99.38606803 -3.074609564 1.944313893e-19)
(99.38425717 -3.214259625 -1.877406035e-19)
(99.20353365 -3.274899347 1.985864706e-19)
(98.1841306 -4.053343332 1.369443904e-19)
(98.4459892 -3.982180354 -1.132404694e-19)
(98.40385507 -4.167614326 -1.280558912e-20)
(98.12220077 -4.254652773 3.094760421e-19)
(96.62252843 -5.271425996 -2.980828115e-19)
(96.97635935 -5.182126868 -4.795438495e-21)
(96.91846001 -5.416876605 -1.436536092e-19)
(96.54321172 -5.525874802 -1.765551814e-19)
(94.71991308 -6.719070226 -1.006771418e-19)
(95.14635974 -6.62881147 -4.167135277e-21)
(95.09815582 -6.928210428 9.599949355e-20)
(94.5763201 -6.983751162 -9.151786952e-20)
(94.7074564 -7.062998192 -9.152817229e-20)
(92.93594933 -8.202967595 2.998445749e-21)
(93.05937436 -8.199572624 -2.922339383e-19)
(93.03070307 -8.285608065 -1.17825955e-19)
(92.91719726 -8.298216355 -1.142383832e-19)
(101.6532829 -0.3834222698 0)
(101.8609729 -0.1954566137 0)
(101.5939356 -0.7768618571 0)
(101.8253291 -0.5915016689 0)
(101.4906727 -1.190909765 0)
(101.7578697 -0.9978973556 0)
(101.2568874 -1.617957693 0)
(101.6448237 -1.441689822 0)
(101.4097756 -1.657300944 0)
(101.0665985 -1.700076719 2.043900714e-19)
(101.2837772 -1.757791499 0)
(101.1067168 -1.849159304 0)
(100.7594972 -2.196422609 0)
(100.9635908 -2.106258507 0)
(101.0176816 -2.272108093 0)
(100.7956653 -2.381083568 0)
(100.3528016 -2.793064543 -3.125106068e-19)
(100.605512 -2.678386557 2.301833505e-21)
(100.659046 -2.882650979 5.239708092e-20)
(100.339078 -2.997867506 1.601822495e-21)
(100.4491407 -3.02285309 1.59806141e-21)
(99.89955341 -3.448996847 3.708935996e-19)
(100.0588279 -3.374149193 -1.856009551e-19)
(100.0839898 -3.503976578 -7.028637957e-22)
(99.91461 -3.590581096 -1.738254743e-19)
(99.07052498 -4.454179578 -1.896115093e-19)
(99.31286971 -4.347874451 0)
(99.31411967 -4.512168822 0)
(99.05307798 -4.639282519 -9.553755014e-20)
(97.81680436 -5.772893363 4.233159437e-19)
(98.14153797 -5.633781258 5.091198351e-20)
(98.14627342 -5.836022623 2.163631753e-19)
(97.80296335 -6.006011931 -1.627920953e-19)
(96.32024225 -7.455831793 -1.215661095e-19)
(96.72872389 -7.262162194 -8.94547212e-20)
(96.78476918 -7.537786343 -8.562392717e-20)
(96.27731983 -7.736986529 2.269755775e-19)
(96.45618302 -7.761581235 -3.357270602e-19)
(94.95193754 -9.667358062 2.441909881e-20)
(95.19307692 -9.616596597 3.438717629e-20)
(95.29135769 -9.87508064 2.940267307e-20)
(94.84354561 -9.810535012 -1.185047917e-19)
(94.84149377 -10.01164078 -2.590786355e-19)
(94.98841235 -10.05222198 2.339444355e-20)
(102.0294723 -0.4025496645 0)
(102.2391276 -0.2023611047 0)
(101.9847011 -0.8151027309 0)
(102.2128599 -0.6130209074 0)
(101.9060236 -1.247937115 0)
(102.1644739 -1.033434341 0)
(101.7091008 -1.697251324 0)
(102.0802578 -1.485470134 0)
(101.8672781 -1.725671313 0)
(101.5205495 -1.80246239 0)
(101.7537357 -1.833934073 0)
(101.5844048 -1.945494044 0)
(101.2809923 -2.32812107 0)
(101.4734055 -2.213550933 0)
(101.547444 -2.36570169 0)
(101.344085 -2.497176098 0)
(100.9687929 -2.942286308 4.862895001e-20)
(101.199476 -2.801902711 0)
(101.2793438 -2.976726172 -2.84447473e-21)
(100.9942219 -3.124579111 0)
(101.1045081 -3.143387524 1.092997778e-19)
(100.6437358 -3.602679326 1.721839932e-19)
(100.7866741 -3.507969062 -2.421204781e-19)
(100.8298117 -3.617137528 1.518189871e-19)
(100.6833136 -3.719965969 -1.659694337e-19)
(100.0526864 -4.581569253 1.537998428e-19)
(100.2645317 -4.450567866 1.536312429e-19)
(100.2974641 -4.574097904 -4.513275839e-22)
(100.0773768 -4.732720586 4.72221499e-19)
(99.13840948 -5.862572453 -2.97935759e-20)
(99.41885534 -5.678358425 4.512934275e-20)
(99.45934107 -5.824053608 3.448394332e-19)
(99.18009604 -6.033564795 3.227010617e-19)
(98.17886427 -7.497182429 2.615696861e-19)
(98.49968507 -7.236794807 6.683055921e-21)
(98.61288936 -7.397301052 9.653385423e-20)
(98.33266368 -7.697087265 3.334763565e-19)
(97.98377509 -9.687218447 3.791706385e-20)
(98.02540723 -9.304099018 -2.943548146e-21)
(97.63920432 -9.4079507 -7.430930099e-21)
(92.53803767 -8.992371937 -9.063628768e-21)
(97.57968901 -9.908695428 3.123908665e-20)
(102.4190098 -0.4121440653 0)
(102.6263177 -0.2048563539 0)
(102.3883717 -0.8335146087 0)
(102.6086963 -0.6206357082 0)
(102.3334863 -1.273329777 0)
(102.5776598 -1.045543917 0)
(102.1724939 -1.734234855 0)
(102.5199406 -1.494633001 0)
(102.3302114 -1.748463523 0)
(101.9913421 -1.853655179 0)
(102.2288226 -1.862233224 0)
(102.0720746 -1.987049192 0)
(101.8134347 -2.386162945 0)
(101.9903175 -2.25538256 0)
(102.0775675 -2.390938161 0)
(101.8957565 -2.536539344 0)
(101.5869031 -2.988321739 -2.672218171e-21)
(101.7921307 -2.835947843 1.647563843e-22)
(101.8876085 -2.979382708 1.647653643e-22)
(101.6375171 -3.157062244 -5.157600816e-20)
(101.7432526 -3.15507148 1.101182493e-22)
(101.3778165 -3.613142555 7.505022453e-20)
(101.4979599 -3.512514416 1.465390183e-19)
(101.5527247 -3.598281583 3.726606142e-21)
(101.4309225 -3.705533133 2.223915788e-19)
(100.9871933 -4.489973843 -1.297527475e-19)
(101.155138 -4.352346851 -1.334571458e-19)
(101.2029832 -4.444998394 -2.724533409e-19)
(101.0305488 -4.593742841 -2.049407107e-19)
(100.3561195 -5.594573588 -3.169886774e-20)
(100.577856 -5.401651057 -3.182865843e-20)
(100.6285599 -5.491977348 -2.273541944e-23)
(100.4136211 -5.697728912 -2.475067227e-20)
(99.73581056 -6.912268149 -1.885657258e-19)
(99.96227625 -6.651968853 2.831754653e-19)
(100.0481254 -6.711954065 2.732370763e-20)
(99.85551864 -6.983331999 -4.235141963e-21)
(97.70787116 -8.204674528 -2.03266964e-19)
(98.80550815 -7.826334191 0)
(97.98999437 -7.841654788 0)
(93.78888376 -7.663627762 -4.250947333e-20)
(102.8128991 -0.4130879959 0)
(103.0143722 -0.2035203063 0)
(102.7946219 -0.8342350172 0)
(103.0042997 -0.6161683804 0)
(102.7604778 -1.271077101 0)
(102.9880287 -1.037208937 0)
(102.6316831 -1.733357238 0)
(102.9527955 -1.474312724 0)
(102.7848289 -1.730354055 0)
(102.4616611 -1.860246681 0)
(102.6945992 -1.849004055 0)
(102.5528028 -1.981335876 0)
(102.33671 -2.381404372 0)
(102.495959 -2.241546757 0)
(102.5901919 -2.359118782 0)
(102.4301827 -2.51136623 0)
(102.1798497 -2.952372985 0)
(102.3593402 -2.795385575 0)
(102.4615121 -2.909765708 0)
(102.2430048 -3.106359726 0)
(102.3408251 -3.084111816 0)
(102.0507139 -3.524181948 3.548780792e-20)
(102.148926 -3.426273936 1.816444496e-20)
(102.2070268 -3.491498598 2.456474118e-20)
(102.108167 -3.59337564 -1.397721869e-20)
(101.799341 -4.26911611 1.310511346e-19)
(101.9307337 -4.139172958 -1.121033876e-19)
(101.9804009 -4.201548547 -8.700691679e-20)
(101.8467439 -4.336494407 2.284250346e-19)
(101.3519393 -5.14290489 4.610127094e-19)
(101.5222947 -4.971635296 1.820856426e-19)
(101.5626385 -5.020303855 5.333358923e-22)
(101.3966984 -5.195192794 2.447253136e-19)
(100.8377581 -6.09669604 -4.780898071e-20)
(101.0133205 -5.881112247 1.839109148e-20)
(101.058886 -5.897725342 1.748000042e-20)
(100.9025196 -6.10827099 -9.813567543e-21)
(99.09692947 -6.821512026 3.223352988e-19)
(99.97402483 -6.623612086 3.540727707e-20)
(99.463253 -6.527396226 -2.922977744e-19)
(95.77285911 -6.406862539 -2.886469138e-20)
(103.2032882 -0.4067348219 0)
(103.3964584 -0.1990261921 0)
(103.1951481 -0.8201227945 0)
(103.3926148 -0.6018094015 0)
(103.1778126 -1.24595296 0)
(103.3880531 -1.012157518 0)
(103.0762947 -1.699519005 0)
(103.3705345 -1.430361623 0)
(103.221897 -1.681761972 0)
(102.9193831 -1.828791668 0)
(103.1419322 -1.801614559 0)
(103.0150876 -1.936437786 0)
(102.8357112 -2.325778654 0)
(102.9774819 -2.182858099 0)
(103.073247 -2.283057177 0)
(102.9334034 -2.435703679 0)
(102.7312999 -2.854072431 0)
(102.8865828 -2.698444031 0)
(102.9881378 -2.787711873 0)
(102.7983592 -2.98969093 0)
(102.8862268 -2.954044269 0)
(102.6473287 -3.371632367 0)
(102.7302306 -3.276459474 0)
(102.7850071 -3.325271082 0)
(102.7019801 -3.42304142 0)
(102.4701721 -3.98795876 -1.126606379e-19)
(102.5737744 -3.87458007 1.048608366e-20)
(102.6161662 -3.915600193 2.690599851e-20)
(102.5102938 -4.030423827 1.058542814e-20)
(102.1122618 -4.656984354 -2.091462203e-19)
(102.2466192 -4.51575829 1.138704285e-20)
(102.2700512 -4.54060103 -2.177749009e-22)
(102.1367953 -4.681036776 1.142185392e-20)
(101.6203503 -5.34020527 3.106296949e-19)
(101.7664885 -5.172172602 1.498506127e-19)
(101.7775874 -5.169810061 3.044130872e-19)
(101.6409009 -5.329688198 2.982722726e-19)
(100.3498096 -5.797823968 2.28594764e-19)
(100.8802919 -5.693136801 7.657666212e-21)
(100.5543487 -5.593765954 0)
(97.62623149 -5.521368633 6.321220503e-21)
(103.5838805 -0.3945411548 0)
(103.7670899 -0.1920673727 0)
(103.5835652 -0.7942088322 0)
(103.7680417 -0.579800479 0)
(103.5789022 -1.202892571 0)
(103.7719702 -0.9742742135 0)
(103.4986785 -1.639388892 0)
(103.7671815 -1.369039484 0)
(103.6349389 -1.610866172 0)
(103.3549202 -1.767482002 0)
(103.5640179 -1.728737442 0)
(103.4507792 -1.861987831 0)
(103.3011175 -2.23259508 0)
(103.4267145 -2.091390287 0)
(103.5198526 -2.1759021 0)
(103.3973439 -2.324223433 0)
(103.2315825 -2.712932299 0)
(103.3658817 -2.563078611 0)
(103.4615579 -2.631837216 0)
(103.2959556 -2.829384568 0)
(103.3735146 -2.786416742 0)
(103.1701217 -3.172375663 0)
(103.2413847 -3.082140814 0)
(103.2896189 -3.118007873 0)
(103.2177842 -3.209336225 0)
(103.0116226 -3.693509368 0)
(103.1000438 -3.59198996 0)
(103.1312469 -3.617595153 0)
(103.0398731 -3.719317938 0)
(102.6759394 -4.211644699 -2.474105362e-20)
(102.7869046 -4.097113604 1.240754232e-21)
(102.7918778 -4.107674534 1.240740403e-21)
(102.679066 -4.220519034 3.629175562e-24)
(102.171797 -4.705770313 6.025123612e-23)
(102.2977035 -4.576970986 -3.360272229e-20)
(102.2794754 -4.565854861 -5.329308047e-21)
(102.1569546 -4.688665903 3.382283132e-20)
(100.8814971 -5.051029892 -1.074693116e-20)
(101.3011283 -4.954879015 4.309620689e-20)
(100.8735964 -4.881151932 6.670147724e-20)
(98.46826707 -4.829806187 4.033259589e-20)
(103.9498861 -0.3779880848 0)
(104.1221715 -0.1833317052 0)
(103.955102 -0.7596067592 0)
(104.1265143 -0.5523399275 0)
(103.9590812 -1.147017079 0)
(104.135903 -0.9273290877 0)
(103.8941947 -1.560919626 0)
(104.1392242 -1.296235665 0)
(104.0202138 -1.525201112 0)
(103.7628572 -1.685022795 0)
(103.9568165 -1.638758001 0)
(103.8554558 -1.767402608 0)
(103.7282841 -2.11438814 0)
(103.8397792 -1.978347689 0)
(103.927292 -2.049294952 0)
(103.8190345 -2.190182085 0)
(103.6784553 -2.546422492 0)
(103.7957479 -2.404845971 0)
(103.8825159 -2.458439801 0)
(103.7352853 -2.644554259 0)
(103.8029352 -2.599605495 0)
(103.6219749 -2.948940496 0)
(103.6846952 -2.865495532 0)
(103.724761 -2.8914089 0)
(103.6607598 -2.974903222 0)
(103.4573272 -3.388481692 0)
(103.5366928 -3.297519735 0)
(103.5559862 -3.31254348 0)
(103.4726852 -3.402532264 0)
(103.0995513 -3.804870657 0)
(103.2015449 -3.706572627 0)
(103.1904241 -3.707299038 0)
(103.0849026 -3.803297507 0)
(102.549629 -4.178958778 0)
(102.6669801 -4.07501189 0)
(102.6277147 -4.058422152 0)
(102.5089184 -4.158127924 0)
(100.5304791 -4.386124726 0)
(101.1865522 -4.329960006 0)
(100.4038799 -4.234424149 0)
(98.29966046 -4.195207989 0)
(104.2979514 -0.3584955158 0)
(104.4589614 -0.173457951 0)
(104.3065623 -0.7192701304 0)
(104.4654267 -0.5214538884 0)
(104.3155265 -1.082981798 0)
(104.4775932 -0.8747328103 0)
(104.2605913 -1.470818137 0)
(104.4849862 -1.217012602 0)
(104.3762254 -1.431235142 0)
(104.1404195 -1.589258323 0)
(104.3188873 -1.538868762 0)
(104.2274185 -1.66078731 0)
(104.1160771 -1.981787201 0)
(104.2158249 -1.853167381 0)
(104.2957686 -1.912857188 0)
(104.1986725 -2.044418239 0)
(104.0740153 -2.369185225 0)
(104.1779179 -2.235934535 0)
(104.2536126 -2.279607018 0)
(104.1206122 -2.44743147 0)
(104.1796786 -2.406780572 0)
(104.0102446 -2.718248931 0)
(104.0672234 -2.642243798 0)
(104.0985341 -2.660908013 0)
(104.0395552 -2.736221114 0)
(103.8252614 -3.088963111 0)
(103.8992058 -3.008385017 0)
(103.9069226 -3.016322439 0)
(103.8281704 -3.095305107 0)
(103.4335425 -3.42655869 0)
(103.5309284 -3.342088608 0)
(103.5059129 -3.337187677 0)
(103.4038526 -3.419119527 0)
(102.8340792 -3.719332162 0)
(102.9492362 -3.632489619 0)
(102.8947037 -3.613518112 0)
(102.7753599 -3.697019685 0)
(100.0613974 -3.819711954 0)
(100.9628883 -3.785854669 0)
(99.95958814 -3.693935236 0)
(98.10041277 -3.67748908 0)
(104.6260066 -0.3373182318 0)
(104.7758377 -0.1629968117 0)
(104.6361606 -0.675754865 0)
(104.7833364 -0.4888876725 0)
(104.6469837 -1.01474171 0)
(104.7960371 -0.8194085875 0)
(104.5975213 -1.374693107 0)
(104.804071 -1.135431019 0)
(104.7031553 -1.334128563 0)
(104.4870647 -1.486672535 0)
(104.6505799 -1.434865667 0)
(104.566995 -1.548766248 0)
(104.4657851 -1.843393724 0)
(104.5560757 -1.723393686 0)
(104.6273514 -1.774092785 0)
(104.5386755 -1.895373392 0)
(104.4219574 -2.19053119 0)
(104.516028 -2.06583387 0)
(104.5797543 -2.102626135 0)
(104.4576037 -2.25148446 0)
(104.5090872 -2.216158457 0)
(104.3437724 -2.491834041 0)
(104.3971316 -2.423319262 0)
(104.4196904 -2.43680899 0)
(104.3636682 -2.504146742 0)
(104.1305262 -2.805605147 0)
(104.2015727 -2.734651859 0)
(104.1985699 -2.738016333 0)
(104.1220413 -2.807094224 0)
(103.7010704 -3.082298925 0)
(103.7963411 -3.009620876 0)
(103.759641 -3.001786057 0)
(103.6590446 -3.071977779 0)
(103.0557222 -3.316443408 0)
(103.170821 -3.243152403 0)
(103.1031341 -3.223871476 0)
(102.9778849 -3.293630458 0)
(99.68862341 -3.349300634 0)
(100.7396303 -3.329350212 0)
(99.60906038 -3.244275976 0)
(97.99017542 -3.244643769 0)
(104.9330946 -0.3154964373 0)
(105.0722147 -0.1523928125 0)
(104.9432839 -0.6311540677 0)
(105.0798487 -0.4560425186 0)
(104.9534326 -0.9454971224 0)
(105.0913306 -0.7637183399 0)
(104.905927 -1.277624729 0)
(105.0973318 -1.054587953 0)
(105.0021244 -1.237727848 0)
(104.8038493 -1.382360937 0)
(104.9531355 -1.331153582 0)
(104.8758013 -1.436550131 0)
(104.7800627 -1.705560536 0)
(104.862989 -1.594648767 0)
(104.9251225 -1.63826845 0)
(104.8426302 -1.749058013 0)
(104.7277237 -2.01645167 0)
(104.8150371 -1.900733478 0)
(104.8665372 -1.932454972 0)
(104.7522895 -2.063644745 0)
(104.7972568 -2.033378612 0)
(104.6308826 -2.276711104 0)
(104.6821938 -2.215348848 0)
(104.6964127 -2.225213908 0)
(104.6418475 -2.285116647 0)
(104.385699 -2.543812181 0)
(104.4555502 -2.481502828 0)
(104.4429009 -2.482046818 0)
(104.3670938 -2.54240257 0)
(103.91899 -2.77342378 0)
(104.0135594 -2.710703544 0)
(103.9672516 -2.701651304 0)
(103.8670447 -2.762085141 0)
(103.2291197 -2.964073974 0)
(103.3466355 -2.901890311 0)
(103.2662006 -2.883171744 0)
(103.1301448 -2.941369121 0)
(99.39959583 -2.954977161 0)
(100.5367012 -2.943600887 0)
(99.33888669 -2.866419387 0)
(97.95079352 -2.878967162 0)
(105.219158 -0.293850423 0)
(105.3482575 -0.1419922516 0)
(105.2282164 -0.5870988974 0)
(105.3553109 -0.4239893588 0)
(105.2357595 -0.8776376357 0)
(105.3642623 -0.7094661959 0)
(105.1874487 -1.182902882 0)
(105.366234 -0.9767842647 0)
(105.2749706 -1.144870765 0)
(105.0924939 -1.280083617 0)
(105.2285712 -1.230928199 0)
(105.1560584 -1.327766413 0)
(105.0622207 -1.572628269 0)
(105.1395627 -1.470823001 0)
(105.1925165 -1.508943779 0)
(105.1143748 -1.609516688 0)
(104.996844 -1.850970604 0)
(105.0797988 -1.744673863 0)
(105.1192189 -1.7722368 0)
(105.0106099 -1.888047793 0)
(105.0500892 -1.861849992 0)
(104.8790933 -2.076835041 0)
(104.9294942 -2.022112054 0)
(104.9359525 -2.029514881 0)
(104.8817934 -2.082634254 0)
(104.6009504 -2.305800359 0)
(104.670708 -2.251138431 0)
(104.649515 -2.250083797 0)
(104.5735097 -2.302830578 0)
(104.0997156 -2.498906767 0)
(104.1943304 -2.444591523 0)
(104.1401986 -2.435405796 0)
(104.0397511 -2.487681618 0)
(103.3646413 -2.65628925 0)
(103.4868707 -2.603427582 0)
(103.3935805 -2.585680309 0)
(103.2432607 -2.634231168 0)
(99.18134727 -2.621701591 0)
(100.3609725 -2.615773507 0)
(99.13639521 -2.546564755 0)
(97.9645365 -2.567926599 0)
(105.4847978 -0.2729956569 0)
(105.6047242 -0.1320546413 0)
(105.4918576 -0.5447992572 0)
(105.6106438 -0.3935092022 0)
(105.4954015 -0.8128951126 0)
(105.6161259 -0.6579527152 0)
(105.4442231 -1.092881801 0)
(105.6126506 -0.9036360766 0)
(105.5238979 -1.057506193 0)
(105.3552164 -1.182514522 0)
(105.4792487 -1.136403631 0)
(105.4103772 -1.224922762 0)
(105.3157555 -1.447469584 0)
(105.3889999 -1.35449864 0)
(105.4330148 -1.388367859 0)
(105.357782 -1.479315658 0)
(105.2344567 -1.696507532 0)
(105.315003 -1.600147348 0)
(105.3430419 -1.624038016 0)
(105.2378529 -1.727733194 0)
(105.2725395 -1.703751446 0)
(105.0947782 -1.894228889 0)
(105.1450238 -1.845591251 0)
(105.1443609 -1.851352699 0)
(105.0899299 -1.898368179 0)
(104.7843372 -2.091997414 0)
(104.8546691 -2.044060546 0)
(104.8259912 -2.042269361 0)
(104.7492756 -2.088397058 0)
(104.2521589 -2.256647933 0)
(104.347224 -2.20947189 0)
(104.2866385 -2.200824404 0)
(104.185478 -2.246171947 0)
(103.470238 -2.387940667 0)
(103.5990096 -2.342993222 0)
(103.4927263 -2.326478834 0)
(103.3260583 -2.366930312 0)
(99.02179692 -2.338470007 0)
(100.2135001 -2.336086618 0)
(98.98981022 -2.2744573 0)
(98.01666496 -2.302040017 0)
(105.7310763 -0.2533745751 0)
(105.842744 -0.1227686807 0)
(105.7355141 -0.5051138996 0)
(105.8471146 -0.3651543293 0)
(105.7341001 -0.7524648046 0)
(105.8484871 -0.6100818434 0)
(105.6785754 -1.00911021 0)
(105.8386166 -0.8362300487 0)
(105.7512261 -0.9769057389 0)
(105.5944678 -1.091441391 0)
(105.7076637 -1.04900298 0)
(105.6414586 -1.129615056 0)
(105.5440752 -1.331785747 0)
(105.6144398 -1.247230306 0)
(105.649906 -1.277831539 0)
(105.5764412 -1.359882144 0)
(105.4454999 -1.5549807 0)
(105.5249065 -1.468250567 0)
(105.5422683 -1.489439408 0)
(105.4388102 -1.582051097 0)
(105.4695263 -1.560485787 0)
(105.2833504 -1.729475755 0)
(105.3340082 -1.686314383 0)
(105.3268918 -1.691090694 0)
(105.271705 -1.732671553 0)
(104.942279 -1.901813234 0)
(105.0135712 -1.859762979 0)
(104.978407 -1.857847619 0)
(104.9007169 -1.898226433 0)
(104.3826439 -2.044117535 0)
(104.478448 -2.003056256 0)
(104.412394 -1.99534127 0)
(104.3101063 -2.034729475 0)
(103.5521668 -2.154629358 0)
(103.6888302 -2.116451296 0)
(103.5695564 -2.10133785 0)
(103.385521 -2.134965538 0)
(98.91052038 -2.097048179 0)
(100.0926629 -2.097056176 0)
(98.88922445 -2.042490048 0)
(98.09567485 -2.074383555 0)
(105.959384 -0.2352900554 0)
(106.0637752 -0.114262136 0)
(105.9607696 -0.4686217873 0)
(106.0662942 -0.339287728 0)
(105.953775 -0.6971290903 0)
(106.0631466 -0.5664358468 0)
(105.8928488 -0.9325501689 0)
(106.0462885 -0.7752273326 0)
(105.9592983 -0.9038457992 0)
(105.8126916 -1.007995777 0)
(105.9162684 -0.9696017003 0)
(105.851904 -1.042814789 0)
(105.7503117 -1.226588694 0)
(105.8187929 -1.149920238 0)
(105.8462071 -1.17809277 0)
(105.7735562 -1.251996321 0)
(105.6338092 -1.427443607 0)
(105.7130115 -1.349639156 0)
(105.7205202 -1.368995482 0)
(105.6176215 -1.451504708 0)
(105.6450094 -1.432395403 0)
(105.4494364 -1.582566212 0)
(105.5009224 -1.544297102 0)
(105.4879845 -1.548580228 0)
(105.4317118 -1.585338024 0)
(105.0798901 -1.734196427 0)
(105.152351 -1.69728483 0)
(105.1116132 -1.695671798 0)
(105.032819 -1.731058685 0)
(104.4957499 -1.858811141 0)
(104.5925481 -1.823023809 0)
(104.5217356 -1.816459259 0)
(104.417952 -1.850689405 0)
(103.6154119 -1.95264401 0)
(103.760894 -1.920280305 0)
(103.6287867 -1.9066563 0)
(103.4270845 -1.934520057 0)
(98.8391296 -1.891422657 0)
(99.99600744 -1.892978969 0)
(98.82670467 -1.845061329 0)
(98.19288194 -1.879750822 0)
(106.171343 -0.2189358446 0)
(106.2694433 -0.1066172965 0)
(106.1693947 -0.4356844368 0)
(106.2698965 -0.3161340217 0)
(106.1564466 -0.6473537426 0)
(106.2619885 -0.5273658447 0)
(106.0893922 -0.863740383 0)
(106.2378138 -0.7209940206 0)
(106.150425 -0.8387284756 0)
(106.012335 -0.9328133031 0)
(106.1074783 -0.8986482471 0)
(106.0442515 -0.965027028 0)
(105.9373973 -1.132381092 0)
(106.0048148 -1.062988957 0)
(106.0247237 -1.089451573 0)
(105.9521216 -1.155943745 0)
(105.8027903 -1.314065535 0)
(105.8825179 -1.244414096 0)
(105.8809371 -1.262585562 0)
(105.7778002 -1.335960779 0)
(105.8024273 -1.319250703 0)
(105.5969364 -1.453039406 0)
(105.6495406 -1.419123532 0)
(105.6313731 -1.423294247 0)
(105.5737999 -1.455778677 0)
(105.2012681 -1.587842188 0)
(105.2749912 -1.555423076 0)
(105.2294754 -1.554412566 0)
(105.1495185 -1.585446925 0)
(104.5949621 -1.69834932 0)
(104.6929788 -1.667146515 0)
(104.6179271 -1.66185442 0)
(104.512332 -1.691590437 0)
(103.6639336 -1.778730225 0)
(103.8188256 -1.751388227 0)
(103.6741436 -1.73929303 0)
(103.4549225 -1.762255973 0)
(98.80101694 -1.717051702 0)
(99.92111327 -1.719390117 0)
(98.79604758 -1.677866967 0)
(98.30186607 -1.714100738 0)
(106.3686778 -0.2044265548 0)
(106.4614814 -0.09988159978 0)
(106.3632252 -0.4065067411 0)
(106.45972 -0.2958140538 0)
(106.3441326 -0.6033821138 0)
(106.446933 -0.4930528177 0)
(106.2704602 -0.8029243443 0)
(106.4152958 -0.6736837195 0)
(106.3268216 -0.7817029425 0)
(106.1957377 -0.866194435 0)
(106.2835864 -0.8363204894 0)
(106.22089 -0.8964453769 0)
(106.1080056 -1.049308258 0)
(106.1750429 -0.9865442792 0)
(106.18802 -1.011918665 0)
(106.1148381 -1.071715787 0)
(105.9553088 -1.214465211 0)
(106.0362134 -1.152450593 0)
(106.0262598 -1.169636199 0)
(105.9223513 -1.235540336 0)
(105.9446634 -1.220423512 0)
(105.729119 -1.340253232 0)
(105.783023 -1.310228445 0)
(105.7601522 -1.314577459 0)
(105.7011666 -1.343260857 0)
(105.3096551 -1.461389762 0)
(105.3846661 -1.432918649 0)
(105.3350387 -1.432724764 0)
(105.2538962 -1.459936931 0)
(104.68298 -1.560580482 0)
(104.7824064 -1.533398748 0)
(104.7034972 -1.529450621 0)
(104.5958269 -1.555237176 0)
(103.7008135 -1.630049162 0)
(103.8654564 -1.607080634 0)
(103.7085013 -1.596521267 0)
(103.4721733 -1.615263656 0)
(98.79078567 -1.570007811 0)
(99.86566042 -1.572475572 0)
(98.79198517 -1.537112989 0)
(98.41754856 -1.573752318 0)
(106.5532444 -0.1918167455 0)
(106.6416843 -0.09408042808 0)
(106.5441893 -0.3811787849 0)
(106.6376071 -0.2783804732 0)
(106.5188861 -0.565292357 0)
(106.6198991 -0.4635574614 0)
(106.4382287 -0.7501701714 0)
(106.5808048 -0.6333399813 0)
(106.4906076 -0.7327651965 0)
(106.3651285 -0.8082150377 0)
(106.446751 -0.7826029322 0)
(106.3840675 -0.837052842 0)
(106.2645932 -0.9772553223 0)
(106.3318292 -0.9204744056 0)
(106.3384486 -0.9452643399 0)
(106.2641908 -0.9990808321 0)
(106.0941022 -1.128054976 0)
(106.1767194 -1.073344654 0)
(106.1591264 -1.089678378 0)
(106.0538077 -1.149699459 0)
(106.0741923 -1.135419163 0)
(105.8486696 -1.243425669 0)
(105.9039717 -1.216868909 0)
(105.8769069 -1.221605912 0)
(105.8164544 -1.246925377 0)
(105.407626 -1.353498617 0)
(105.4839272 -1.328505584 0)
(105.4307469 -1.329272739 0)
(105.3483993 -1.353115394 0)
(104.761931 -1.443588824 0)
(104.8629416 -1.419954027 0)
(104.7804624 -1.417383464 0)
(104.6704831 -1.439678788 0)
(103.7283779 -1.504154261 0)
(103.9029605 -1.48502607 0)
(103.7340349 -1.475992851 0)
(103.4811128 -1.491047527 0)
(98.80344647 -1.447074175 0)
(99.82713485 -1.44917853 0)
(98.80966722 -1.419817252 0)
(98.53589297 -1.455799893 0)
(106.7266733 -0.1811334033 0)
(106.8118408 -0.08921824717 0)
(106.7139783 -0.359727965 0)
(106.8053695 -0.2638350224 0)
(106.6824865 -0.5330721444 0)
(106.7827385 -0.4388640939 0)
(106.5946691 -0.705258888 0)
(106.7362151 -0.599859749 0)
(106.6437348 -0.6917572028 0)
(106.5225644 -0.7587885295 0)
(106.5990198 -0.7373837127 0)
(106.535865 -0.7866509811 0)
(106.4094027 -0.9159148252 0)
(106.4773232 -0.8645148722 0)
(106.4781271 -0.8891521814 0)
(106.4023862 -0.9376687605 0)
(106.2216049 -1.054484598 0)
(106.3063423 -1.006605534 0)
(106.281835 -1.022477108 0)
(106.1744992 -1.077592062 0)
(106.1932801 -1.063858782 0)
(105.9578972 -1.161708705 0)
(106.0146568 -1.138247574 0)
(105.983851 -1.143542481 0)
(105.9219169 -1.16587977 0)
(105.497271 -1.262899835 0)
(105.5748588 -1.240983348 0)
(105.5185864 -1.242819436 0)
(105.43501 -1.263676687 0)
(104.8335358 -1.345701762 0)
(104.9362926 -1.325218272 0)
(104.8504581 -1.32404845 0)
(104.7379581 -1.343234598 0)
(103.7484496 -1.399019968 0)
(103.9330724 -1.383290608 0)
(103.7524787 -1.375782795 0)
(103.4835189 -1.387580247 0)
(98.83465897 -1.345883603 0)
(99.80324295 -1.347292225 0)
(98.84490682 -1.323747964 0)
(98.65392895 -1.358202553 0)
(106.8914846 -0.1723492689 0)
(106.9737455 -0.08531492303 0)
(106.8750833 -0.3421133033 0)
(106.964837 -0.2522010096 0)
(106.8374199 -0.5066045721 0)
(106.9372614 -0.4189427604 0)
(106.7419214 -0.6682272116 0)
(106.8835739 -0.5733613273 0)
(106.7882139 -0.6587118549 0)
(106.6700601 -0.7177781126 0)
(106.7422423 -0.7004365779 0)
(106.6782403 -0.7450701465 0)
(106.5444499 -0.864930308 0)
(106.6134883 -0.8183617094 0)
(106.6089831 -0.8432103422 0)
(106.531408 -0.8870542704 0)
(106.3402379 -0.993744747 0)
(106.4272459 -0.9515711201 0)
(106.396668 -0.9682613961 0)
(106.2863975 -1.017459167 0)
(106.3039041 -1.005831902 0)
(106.0587552 -1.094220121 0)
(106.1170103 -1.073465963 0)
(106.0829339 -1.079470822 0)
(106.0194873 -1.099208288 0)
(105.5803214 -1.188460377 0)
(105.6592096 -1.169265386 0)
(105.6002342 -1.172257559 0)
(105.5153828 -1.190465456 0)
(104.8992175 -1.265512871 0)
(105.0038825 -1.247840659 0)
(104.9148587 -1.248088242 0)
(104.7996349 -1.264492962 0)
(103.7625345 -1.312983504 0)
(103.957233 -1.300274498 0)
(103.7652688 -1.294287593 0)
(103.4808559 -1.303185591 0)
(98.88067853 -1.264422762 0)
(99.79194731 -1.264909235 0)
(98.89412671 -1.246919554 0)
(98.769506 -1.279226785 0)
(107.0468008 -0.1655453126 0)
(107.1292586 -0.08231202714 0)
(107.0267805 -0.3283948177 0)
(107.1178093 -0.2433762563 0)
(106.9830872 -0.4859758155 0)
(107.0852928 -0.4036989943 0)
(106.8810246 -0.6375680163 0)
(107.0237119 -0.5527373085 0)
(106.9256074 -0.6327403499 0)
(106.8091509 -0.684894004 0)
(106.8788504 -0.6716690667 0)
(106.8130615 -0.7117679406 0)
(106.6715756 -0.8239866087 0)
(106.7421838 -0.7816952083 0)
(106.7328258 -0.807289984 0)
(106.6529613 -0.8468931684 0)
(106.4514058 -0.9458566049 0)
(106.5408749 -0.9079460811 0)
(106.504676 -0.9264099798 0)
(106.391638 -0.9689179071 0)
(106.4081953 -0.9603927429 0)
(106.1532304 -1.04023929 0)
(106.2130987 -1.021889013 0)
(106.1760639 -1.028801964 0)
(106.1110588 -1.046193472 0)
(105.6582928 -1.129201794 0)
(105.7385185 -1.1124308 0)
(105.6771482 -1.116662075 0)
(105.5909585 -1.132500496 0)
(104.9602038 -1.201829931 0)
(105.066939 -1.186682038 0)
(104.9748454 -1.188367744 0)
(104.8567021 -1.202266438 0)
(103.7718642 -1.244629289 0)
(103.9766317 -1.234633058 0)
(103.7735805 -1.230166415 0)
(103.474326 -1.236459952 0)
(98.93848083 -1.200888591 0)
(99.79140176 -1.200401921 0)
(98.9544736 -1.18764264 0)
(98.88134875 -1.2174246 0)
(107.2044174 -0.1604296198 0)
(107.2799748 -0.0803971218 0)
(107.1803709 -0.3182402937 0)
(107.266057 -0.2376566214 0)
(107.1299555 -0.4708143806 0)
(107.228629 -0.3935712478 0)
(107.0169203 -0.6172557381 0)
(107.1601302 -0.540013498 0)
(107.0598878 -0.6147937965 0)
(106.9431807 -0.6602060797 0)
(107.0096083 -0.650456159 0)
(106.9423356 -0.6879725035 0)
(106.7925033 -0.793113545 0)
(106.8649794 -0.7546854383 0)
(106.8511234 -0.7813129652 0)
(106.7687456 -0.8170837074 0)
(106.5566716 -0.9098505008 0)
(106.6488807 -0.8755067774 0)
(106.6075668 -0.8961145295 0)
(106.4915262 -0.932530531 0)
(106.5073512 -0.9268452333 0)
(106.2428252 -0.9992930536 0)
(106.3043273 -0.9830893805 0)
(106.2646439 -0.9910278144 0)
(106.1980612 -1.006313719 0)
(105.7324594 -1.084327891 0)
(105.8140604 -1.06973392 0)
(105.7505391 -1.075272662 0)
(105.6629468 -1.088977976 0)
(105.0175538 -1.153670435 0)
(105.1265191 -1.140804389 0)
(105.0314377 -1.143955494 0)
(104.9101863 -1.155582466 0)
(103.7774912 -1.192848051 0)
(103.9922925 -1.185305261 0)
(103.7784285 -1.182383743 0)
(103.4649045 -1.186302916 0)
(99.00557367 -1.153976231 0)
(99.80001128 -1.152587403 0)
(99.02354759 -1.144729275 0)
(98.98879928 -1.171718816 0)
(107.3270644 -0.1579805278 0)
(107.4283815 -0.07906170427 0)
(107.3001916 -0.3126093455 0)
(107.4113072 -0.2341023941 0)
(107.2455089 -0.4623234865 0)
(107.3692703 -0.3871879987 0)
(107.1386042 -0.6060843079 0)
(107.2934362 -0.5307730005 0)
(107.1804155 -0.6023739439 0)
(107.0717746 -0.6427109631 0)
(107.133375 -0.6387531962 0)
(107.0659005 -0.6716621302 0)
(106.9086659 -0.7718443697 0)
(106.9830463 -0.7366428931 0)
(106.9655872 -0.7647491286 0)
(106.8800036 -0.797232986 0)
(106.6576043 -0.8851959566 0)
(106.7525696 -0.8538245192 0)