/*--------------------------------*- C++ -*----------------------------------*\
| =========                 |                                                 |
| \\      /  F ield         | OpenFOAM: The Open Source CFD Toolbox           |
|  \\    /   O peration     | Version:  v2012                                 |
|   \\  /    A nd           | Website:  www.openfoam.com                      |
|    \\/     M anipulation  |                                                 |
\*---------------------------------------------------------------------------*/
FoamFile
{
    version     2.0;
    format      ascii;
    class       volScalarField;
    location    "3";
    object      k;
}
// * * * * * * * * * * * * * * * * * * * * * * * * * * * * * * * * * * * * * //

dimensions      [0 2 -2 0 0 0 0];


internalField   nonuniform List<scalar> 
3259
(
34.94048977
34.95684555
35.00047005
35.09749646
35.25569983
35.5718757
36.12121167
36.76887438
37.78739688
39.29477124
41.8353762
44.26871875
34.82030213
34.84014975
34.89282957
35.00541989
35.19054608
35.55964354
36.17044633
36.87086483
37.97495736
39.61750435
42.39860505
42.8194547
34.70757008
34.73083428
34.79208197
34.91968052
35.12417415
35.5330765
36.18973507
36.9492529
38.12076694
39.86922355
42.76239692
38.84333685
34.59919336
34.62576397
34.69488234
34.83699406
35.06059181
35.50298377
36.19951472
37.01764583
38.2651784
40.1138105
42.88699223
33.8600128
34.49436423
34.52398609
34.59988347
34.75504665
34.99619273
35.4660151
36.19476723
37.06146687
38.39775909
40.33908431
42.61905952
27.49754778
34.38940918
34.42182827
34.50368744
34.67089199
34.92831463
35.4198319
36.17355936
37.07068641
38.4741391
40.46271694
41.99825725
23.99245531
34.2850712
34.31994239
34.4066972
34.58401695
34.85518854
35.36347855
36.13476975
37.05349021
38.48015994
40.43907047
40.98669583
22.72747299
34.17747529
34.2145312
34.30566079
34.49231959
34.77601719
35.29713701
36.08054614
37.01362313
38.44908873
40.29384072
39.86346123
22.08473914
34.06969036
34.10859475
34.20325643
34.39726424
34.6906373
35.22160175
36.01316087
36.9560168
38.38886511
40.07768688
38.65913273
21.93968996
33.9568636
33.99744244
34.09556882
34.29686981
34.5995344
35.13809653
35.93511096
36.88454398
38.30444228
39.7938042
37.40374243
22.25199287
33.84500775
33.88699489
33.98793782
34.1945723
34.50340482
35.04801554
35.84870811
36.80235779
38.19893545
39.4498106
36.13281404
22.89686487
33.72676853
33.77013146
33.87423478
34.0871489
34.40325035
34.95276544
35.75603205
36.71188137
38.07386674
39.06939092
34.86866261
23.71871201
33.61220036
33.6567284
33.76335157
33.98028849
34.29982203
34.85359648
35.65883176
36.61484833
37.92914493
38.66102942
33.60767862
24.5129704
33.48923595
33.53502933
33.64484252
33.86784831
34.19405391
34.75153889
35.55843359
36.51210886
37.76461762
38.22967601
32.35883694
25.18576398
33.37422605
33.42108143
33.53328926
33.75928072
34.08639987
34.64744141
35.4557575
36.40378116
37.58168698
37.78165654
31.13713356
25.70565044
33.24703706
33.2951744
33.41074172
33.64310136
33.97771906
34.54197837
35.35134833
36.2896217
37.38248802
37.32119555
29.95473208
26.07253869
33.13431267
33.1834851
33.3013735
33.53568899
33.8680981
34.43568513
35.24548853
36.16942132
37.16980099
36.85158396
28.82445097
26.29575542
33.00251893
33.05306993
33.1745252
33.4158516
33.75847555
34.32899663
35.13827489
36.04315065
36.94544788
36.37558532
27.75569055
26.39540022
32.89537504
32.94695513
33.0706745
33.3129138
33.64848065
34.22223837
35.02973299
35.91095775
36.71057261
35.89546432
26.74908188
26.39204458
32.75723005
32.81034043
32.93781136
33.18775556
33.53938902
34.11569432
34.91987888
35.77313249
36.46742538
35.41352802
25.79903477
26.31847541
32.66000837
32.71411672
32.84380888
33.09400569
33.43019666
34.00959577
34.80871013
35.63001894
36.21822696
34.93147501
24.88426308
26.20012466
32.51196227
32.56779431
32.70140058
32.95906351
33.32317866
33.90439283
34.6963869
35.48198981
35.9636865
34.45016004
23.99169531
26.05869462
32.43003661
32.48682356
32.62254823
32.88190901
33.21684089
33.80091413
34.58381307
35.32939621
35.70406309
33.97005434
23.13294886
25.90848824
32.24216204
32.30126689
32.44203179
32.70956077
33.11675011
33.70130906
34.47437299
35.17316323
35.44163003
33.49490529
22.31104134
25.76022538
44.30759862
43.32015958
41.72114976
44.38141913
42.29271908
43.87132995
44.34183654
43.9446504
32.52427592
35.3376877
41.73992925
35.49593581
33.26249567
39.92162077
32.46400199
43.89592163
31.91078803
77.45223691
33.17142398
31.92431328
49.6427025
34.34233786
41.89960014
41.38432657
42.5510144
42.08364933
34.48479059
37.32158386
43.13715642
42.70406935
43.27254305
37.47482858
35.60866489
35.46833159
41.18566066
40.69779585
32.04150628
32.88408858
41.19249255
42.03095954
32.7216479
72.66062027
42.63711584
63.44093812
32.64671386
46.57473838
40.56651048
42.68661777
43.37502559
43.77100394
42.28335682
34.43478698
41.47798905
32.95419
38.35768581
37.9183098
70.01409603
51.95227433
36.08276437
34.22129857
38.48703989
39.34300958
38.50511748
37.77555558
37.3554118
32.31258193
40.48127966
31.868043
90.13618058
42.88759062
41.23837972
45.80464488
32.9886847
32.03424141
38.97589577
38.4893384
33.36078899
34.84946555
39.51732844
39.11318519
35.95845888
34.83984069
32.26310767
37.15786408
36.45017243
73.30255905
80.25000431
31.80358592
84.36655536
64.61213785
41.11372089
32.92094431
72.07928004
46.3898631
82.48738563
48.76607192
32.16177032
40.03123786
39.64468328
34.96997044
36.35020663
40.56214936
40.15831877
32.34862911
32.38973894
33.40952033
31.88851864
33.10764316
32.29778272
32.32616913
31.94870942
41.06663465
40.69159709
36.69533956
37.89071595
41.51725965
41.17899237
33.58524841
33.65334261
35.72238869
35.33260188
33.40645541
33.49949168
32.12793483
33.13142338
32.41514402
110.0020595
32.18072469
41.10875203
59.23605082
52.17658273
32.03413007
32.07005731
32.78350692
70.96826966
77.01108763
74.27705528
56.92984682
32.56665378
31.97143009
32.00146992
42.13766915
32.78084962
32.73257532
32.44776832
33.69471144
32.44262442
32.5794608
34.54681318
33.65030921
39.1556941
32.36848423
34.06292466
33.9169919
31.85973198
88.6473813
90.01928983
62.88020588
80.48658201
70.316905
32.21029895
32.26136174
33.05385349
31.98769353
32.58852973
32.53136123
32.68239564
32.64223771
32.97617027
33.2670712
35.11028873
32.33993785
32.29809856
32.47469038
32.4113107
33.81759308
33.54289138
32.13260652
71.80797517
95.90917276
101.2595555
95.61055575
96.3916846
76.765446
31.9981074
75.43566863
54.82158679
59.10077274
32.84913691
32.09845128
32.16097719
71.96336205
80.04282664
77.82327084
63.90182605
70.34842584
84.96523457
80.29271842
52.57917406
76.07432518
66.63774383
32.16328409
31.93346026
32.34265663
36.74850586
37.46169316
37.74685661
38.7942539
39.22735346
40.9331969
36.84963247
37.62601628
37.49722117
37.93528893
39.07483022
38.85369621
39.54913113
41.44198067
41.03572719
41.96524133
43.1349904
42.95801041
44.13528469
42.97176171
43.32249576
36.93008564
37.75620301
37.66063321
38.08491101
39.29922726
39.13413665
39.8079892
41.83401608
41.55021522
42.50324721
43.3860545
43.48251546
42.70734424
39.40807627
40.24359134
37.00256805
37.88081608
37.78753223
38.22894707
39.51397266
39.35286269
40.05191142
42.12862477
41.91648626
42.89756296
41.72457632
43.081047
35.2619556
37.05389555
37.9969658
37.91258893
38.36900579
39.73197544
39.56881961
40.29177631
42.22022652
42.17890714
42.72870135
38.84436557
41.09726298
29.03495382
37.07121036
38.06728729
38.01980269
38.46201969
39.88529551
39.77795776
40.44377489
42.05760666
42.20971647
42.18771258
33.19268945
37.77116906
24.61290152
37.06026249
38.0772246
38.07437037
38.48228844
39.92509082
39.90802447
40.46155709
41.57030084
41.95709395
41.2673387
27.00654805
31.46802115
22.93462701
37.02547822
38.05352248
38.07440164
38.45985707
39.85705548
39.91478158
40.33777135
40.91291597
41.41690321
40.15216233
23.78024379
25.92593421
22.21913483
36.97188388
38.00361591
38.04324442
38.40634451
39.72857727
39.83013334
40.13765102
40.13615688
40.7281903
38.96627701
21.91204232
23.23927402
21.92775949
36.90353238
37.93298997
37.98775885
38.32762628
39.54892974
39.68831257
39.87116961
39.28592251
39.92906775
37.72051719
20.52574659
21.53930016
22.13136903
36.82376192
37.84505262
37.91253734
38.22717227
39.32405362
39.49686404
39.54040625
38.39167749
39.06551651
36.45054802
19.44162945
20.2271726
22.70918453
36.73516279
37.7419551
37.82065775
38.10696038
39.05359677
39.26092842
39.16729564
37.47398833
38.16368214
35.18450236
18.64996561
19.21608127
23.51072069
36.63965313
37.62443248
37.71394338
37.96719172
38.74389302
38.97926359
38.76541904
36.54577254
37.24261784
33.92216451
18.13527579
18.49792108
24.32382913
36.53830485
37.49210665
37.59277451
37.80755657
38.4093497
38.66183652
38.33929281
35.61226995
36.31268574
32.66901473
17.85732625
18.0425181
25.03186928
36.43139056
37.34473333
37.45667436
37.62902978
38.05718278
38.32293333
37.89496066
34.67982516
35.37871764
31.43930774
17.78773142
17.82559872
25.59023156
36.31871654
37.18299063
37.30561208
37.43366578
37.68943296
37.96661538
37.4373052
33.75560647
34.44768103
30.24589815
17.86249881
17.79371808
25.99500813
36.20003433
37.00825794
37.14045946
37.22412488
37.30928561
37.59539638
36.96967528
32.84666035
33.52664342
29.1007133
18.07252194
17.90215149
26.25320885
36.07527374
36.82223655
36.9627606
37.0026048
36.91986285
37.21271299
36.49504976
31.95957855
32.62280571
28.01569608
18.38482785
18.14295067
26.37941063
35.94453823
36.62634761
36.77412471
36.77014996
36.52314728
36.82129414
36.01572995
31.09834409
31.74213771
26.99238422
18.746452
18.47213283
26.3989024
35.8080905
36.42216496
36.57604932
36.52890454
36.1211336
36.42306522
35.53402756
30.26601151
30.88867149
26.02572628
19.11769888
18.83896739
26.34193733
35.66626228
36.21046453
36.36995948
36.28101108
35.71548648
36.02002051
35.05178995
29.46077327
30.06464252
25.10324829
19.47225473
19.20712423
26.23207796
35.51942965
35.99182931
36.15640747
36.02781245
35.30723768
35.61369627
34.56987842
28.67250895
29.26709481
24.19655833
19.79726526
19.55429251
26.0940474
35.36793195
35.76741051
35.93625419
35.76927884
34.89643898
35.20508299
34.08757979
27.89533652
28.48720604
23.3172858
20.08438957
19.86876928
25.94315451
35.21186083
35.53779856
35.71067567
35.5047415
34.48049431
34.79492814
33.6010855
27.12518175
27.72320566
22.46655928
20.33180912
20.14266366
25.78968853
35.04104416
35.28701722
35.48228704
35.2158744
34.02936334
34.38700546
33.07533585
26.31023636
26.97670831
21.59058926
20.55281541
20.37473179
25.63119752
43.43510081
43.75429445
44.4259796
40.44104306
41.03259782
43.49148569
42.4727509
42.89498487
42.6831803
41.59764721
44.48200764
43.22627238
43.38684032
43.443781
43.1828421
42.06181697
44.15089811
43.61695173
43.83266883
43.43679733
43.58199589
44.20669793
42.46216593
42.84460147
44.09181771
32.60011119
34.53536371
34.38691717
37.29776091
37.14985053
35.20614657
29.23709701
33.60366637
42.01492821
48.89339169
43.13291086
42.92074588
43.29339336
35.70464282
37.64286788
37.4586178
41.62125175
38.02961836
44.46170996
43.85437318
40.6033141
33.33383786
32.73503482
34.2718733
34.14919122
32.41278944
43.73871069
41.9040326
42.31560365
77.49257597
75.48025536
68.74931375
36.12009682
35.92828868
34.16206687
41.75243781
40.33366394
40.46699463
39.22713829
39.7832631
41.55190825
42.39996714
41.1612397
41.36033029
40.74642469
40.93571431
42.23555928
34.60723084
36.43328806
36.28500893
38.86811039
38.71097674
37.15978446
42.99670628
41.96939751
42.15968524
41.56773446
41.76923068
42.85170545
43.53243112
42.68758431
42.34169662
42.51740799
43.40420638
37.61484533
39.16086701
39.01750649
41.05172461
38.66587739
39.07717456
37.89061069
38.48527729
40.76338778
41.1422151
42.09642329
42.0721573
46.85465314
45.30689817
41.56999773
43.54116832
51.44163069
48.73256322
44.525134
41.4852498
43.5209507
43.46175281
42.60071176
43.34224514
43.97861224
43.94120879
43.85705939
43.90475789
43.45422045
39.56548334
40.01926837
42.48950911
36.42939656
35.5970631
35.44655129
38.17793678
37.59779181
43.31160484
35.01388432
34.73217281
32.72775642
38.20955329
36.63251626
36.84261647
36.29985984
36.4555288
38.06189651
58.75863355
43.08528038
43.15294861
46.77019908
45.79431733
57.99684963
33.84838339
33.92099999
36.20985478
33.77626013
34.15985919
38.41320617
39.02607992
36.12400175
36.5134775
35.39929586
35.8895887
38.76174387
37.63596619
36.01862517
36.16218848
35.73166499
35.8970798
37.48736256
40.61162767
42.76538919
50.79200883
49.19633538
53.41609007
58.81205651
42.60068317
90.54881835
104.6756853
38.81460946
37.5007728
37.67620414
37.07191578
37.29831193
38.66878809
33.87193199
35.67096529
35.35319769
36.72380731
36.58036204
34.72837463
39.37899195
38.12855065
38.27312614
37.83283099
37.98214919
39.25180825
35.84513459
33.72200398
33.78034959
37.05168518
35.32457332
35.61084504
33.92250061
35.09522982
36.51800693
49.73859952
51.7033356
68.29383029
41.32421544
44.21874241
43.40781092
60.18628511
55.53878583
44.77676086
39.90019758
38.69656763
38.83890274
38.41579767
38.55674144
39.77642498
35.08840834
37.0085014
36.86761454
38.09746444
37.85897453
35.99394718
40.42381097
39.30898943
39.48231345
38.98635089
39.14195772
40.29183018
40.94352021
39.9593225
40.09952406
39.65114492
39.81139499
40.82396127
36.95033084
38.53283933
38.32852698
39.44136833
39.30221027
37.75499866
41.40465478
40.49820755
40.62949659
40.23437615
40.36745407
41.29659337
42.75719667
42.37021416
41.09429443
57.43743646
46.71790964
47.59972905
45.0722038
45.47151811
54.64151411
43.17073784
33.96436087
33.47121419
33.66768385
32.94617984
33.30244239
33.79452874
38.37195519
33.85349914
33.56136694
89.20653615
88.18450137
56.56617377
84.22450986
100.7360077
100.2680496
98.74933932
100.3272636
82.27699618
35.29908776
35.42355031
35.59721761
35.82771125
36.12026006
36.55168916
35.22450538
35.37132572
35.38414489
35.57302128
35.83704389
35.81975945
36.15743362
36.6341657
36.56766921
36.78812206
37.01375944
36.99032528
37.82657326
38.15237338
38.10684263
39.36539333
39.87620796
39.79411874
44.2238191
44.04875935
44.10951668
35.15612404
35.32304331
35.34394919
35.54704716
35.8353456
35.83651515
36.18075242
36.69909606
36.65156391
36.89096025
37.13529276
37.11160124
38.01205844
38.36376223
38.32127787
39.6821349
40.24359084
40.16837657
35.0918406
35.27615186
35.29657904
35.51919595
35.82840735
35.83292454
36.19634704
36.7534341
36.712808
36.96810748
37.22747877
37.20436677
38.15664333
38.52922886
38.48806628
39.92991757
40.52796301
40.4592246
42.82396958
43.52839417
43.54059421
37.78808897
28.03490525
29.70216381
35.02836682
35.2270735
35.24913025
35.48598846
35.81157086
35.82144388
36.19851927
36.78779383
36.76325023
37.03172109
37.31120588
37.29238213
38.30266511
38.69796479
38.65411252
40.17900302
40.80132178
40.73303417
42.86050457
43.17518599
43.30458007
32.28670312
24.05458914
24.63313309
34.962544
35.17285532
35.19805022
35.44456423
35.78259784
35.79864129
36.18659198
36.79444342
36.79115599
37.06686914
37.36455089
37.35518356
38.42316908
38.84396682
38.81255633
40.38085065
40.98512948
40.94997126
42.49381691
42.36028285
42.62246958
26.17799475
24.36823555
23.86208231
34.89214158
35.11166828
35.14084083
35.39326873
35.74061781
35.76322932
36.15621669
36.77789427
36.7924717
37.06898391
37.37516918
37.37570734
38.48065722
38.92224431
38.91121735
40.47409851
41.02977081
41.03382395
41.78027689
40.84960863
41.30350634
23.54932028
28.13092728
26.93275223
34.81600783
35.04276705
35.07618917
35.33179736
35.68600213
35.71480943
36.1094542
36.73903894
36.76962136
37.04551273
37.35693582
37.36398431
38.4756148
38.91812816
38.92323824
40.41050067
40.88839161
40.94116655
40.70954045
38.88801164
39.37007455
22.57764238
32.08447701
31.29013144
34.73360057
34.96614908
35.00373841
35.26067402
35.62001861
35.65433441
36.04834098
36.68250787
36.72612052
37.00076891
37.31516553
37.32747766
38.43653409
38.87196199
38.88693065
40.24589253
40.60778604
40.68797211
39.56919301
37.06844489
37.53270698
22.00910722
33.54919758
33.23785379
34.64525059
34.88236119
34.92374749
35.1809376
35.5441477
35.58321694
35.97531681
36.61209293
36.66588296
36.93933219
37.25536587
37.27178011
38.36988984
38.79159698
38.81461239
40.0132638
40.23338073
40.33383582
38.34839979
35.17605962
35.6515342
21.97323833
34.49295327
34.30162198
34.55141151
34.79232883
34.83698284
35.09393026
35.45996844
35.50299399
35.89281756
36.5311011
36.59261306
36.86490196
37.18146457
37.2010955
38.27995759
38.68164249
38.71171301
39.71267681
39.80051749
39.91353067
37.08623822
33.2986254
33.76253358
22.38286901
34.96747833
34.88986856
34.45318401
34.69714628
34.74445549
35.00106364
35.36907864
35.41526004
35.8030353
36.44217459
36.50946622
36.78043793
37.09637837
37.1185788
38.16949924
38.54504355
38.58161973
39.35750335
39.32053974
39.44444901
35.81625442
31.49632867
31.93631761
23.09660236
35.02079059
35.03975072
34.35115469
34.59790273
34.64730775
34.90368831
35.27306603
35.32161701
35.70790389
36.34732147
36.41892918
36.68819005
37.00217548
37.0265055
38.03955506
38.38237798
38.42547288
38.96971396
38.80497765
38.93641569
34.55289152
29.6925148
30.14433087
23.92550948
34.76978088
34.85013782
34.24658183
34.49555503
34.5465409
34.80293809
35.17334684
35.22359301
35.60896537
36.24782856
36.32284892
36.58968415
36.9000126
36.92628102
37.8898654
38.19411182
38.24352048
38.55509873
38.26582704
38.40243264
33.2936414
27.92208647
28.35721691
24.69472673
34.38054598
34.48564485
34.1395965
34.39090845
34.44308196
34.69975264
35.07105309
35.12246262
35.50733929
36.14429646
36.22233232
36.48555705
36.79007648
36.81830798
37.72053622
37.9823017
38.03719718
38.11903252
37.709412
37.84984335
32.05006565
26.24883934
26.65600095
25.33159043
33.93049991
34.04645522
34.03160974
34.28465099
34.33762425
34.59488125
34.96702446
35.01921573
35.40374618
36.03680603
36.11783057
36.37579792
36.67204697
36.70233674
37.5333452
37.75095928
37.81045447
37.6675801
37.14078233
37.28385258
30.83734796
24.6987906
25.07291396
25.81186292
33.454489
33.57572931
33.92205991
34.17733387
34.23087618
34.48893156
34.8618578
34.9145588
35.29858794
35.92520911
36.00933967
36.26014088
36.54565914
36.57804409
37.33050166
37.50215553
37.56582326
37.20452232
36.56410501
36.70881496
29.66614307
23.28515921
23.62120348
26.14098494
32.96527492
33.08753461
33.81285214
34.06944495
34.12324136
34.38236779
34.75596066
34.80899511
35.19203762
35.80935745
35.89670206
36.13841788
36.41100806
36.44543041
37.1147624
37.23961319
37.30631977
36.73308212
35.98317463
36.12864884
28.5506019
22.0536965
22.34637711
26.33272141
32.48271913
32.60211855
33.70234511
33.96133179
34.01532133
34.27556218
34.64958206
34.70285745
35.08413409
35.68915583
35.77977627
36.0106436
36.2684946
36.30483704
36.88763912
36.96719942
37.03599468
36.25582332
35.40089713
35.54649559
27.49675667
20.97409882
21.23220464
26.4020818
32.01406745
32.12970209
33.59354968
33.85332652
33.90725453
34.16874982
34.5428601
34.59636308
34.97486828
35.56461961
35.65849399
35.87701584
36.11869523
36.15679449
36.65049238
36.68724371
36.75793505
35.77503469
34.82003758
34.96504147
26.50335514
20.02151052
20.25068439
26.37936191
31.56291137
31.67400248
33.48294057
33.74553817
33.79966775
34.06206002
34.43578739
34.4896611
34.86414562
35.43583491
35.53289152
35.7378322
35.96225402
36.00195492
36.40559379
36.40024813
36.47260717
35.29289116
34.24317537
34.38714157
25.56335595
19.17961663
19.38371055
26.29186602
31.13133839
31.23767155
33.37561052
33.63804655
33.69244811
33.95539108
34.32819737
34.38290684
34.75168503
35.30299032
35.40307979
35.59345508
35.79975135
35.84091274
36.15509799
36.10712455
36.18091379
34.8107882
33.67141272
33.8145063
24.6466949
18.46206716
18.6344178
26.16550836
30.72110934
30.82245779
33.26443917
33.53038452
33.58667501
33.84832815
34.21951522
34.27642674
34.63687251
35.16624274
35.2692509
35.44425184
35.63177798
35.67426224
35.89920002
35.80892984
35.88396832
34.32889534
33.10366328
33.24726348
23.75317436
17.85546067
18.00748843
26.01954938
30.33383279
30.43092415
33.15717915
33.42132261
33.48255875
33.73950836
34.10826992
34.17105963
34.51785653
35.02561737
35.13157898
35.29051961
35.45871274
35.50250907
35.63794294
35.50580779
35.58259836
33.84535567
32.53651107
32.68508109
22.88827229
17.33815613
17.47560418
25.86628354
29.96933918
30.06480293
33.03261642
33.30236867
33.38315751
33.62041209
33.98548362
34.06892407
34.38519956
34.87207929
34.99072903
35.13098399
35.27900789
35.32682635
35.36744563
35.19269901
35.27970351
33.35221316
31.96168221
32.13106166
22.05160435
16.89794499
17.02771304
25.71414293
29.62610627
29.72710497
44.16892794
44.22663361
44.35003951
42.57230425
42.75115945
43.30904305
44.41810598
44.20785563
44.21127455
43.93853258
44.13284741
44.10959281
44.21023219
44.20663713
44.29970043
43.6515453
43.7208416
43.99653957
44.53069306
44.49096657
43.84153547
43.50794325
43.57812558
40.73616935
44.08142255
44.05016988
43.68128842
32.82272042
32.97450341
41.73708233
64.35474645
70.53369431
73.92901462
40.48544976
41.59157387
43.21631277
41.53757955
36.96490112
36.94057855
36.72840329
37.42743823
37.17298067
37.20207394
38.06058868
38.0138876
37.70644295
38.7327984
38.35414732
38.40779401
39.71705473
39.63649859
39.15702946
40.82426757
40.18491897
40.27801002
37.08596014
37.03791524
36.8079029
37.56324289
37.28893172
37.34394519
37.23247319
37.26059862
37.53058246
38.27594092
38.19462855
37.86383713
38.96852275
38.56074159
38.65349319
38.4602795
38.51299839
38.91466137
40.08879058
39.94555657
39.42634297
41.24206583
40.54205885
40.71118719
40.36642571
40.46269234
41.14941503
43.92229226
43.98612285
44.18264768
43.08960436
43.64218368
43.55429157
43.81309348
43.72916667
43.2088865
37.18166683
37.15860474
36.91033094
37.72474547
37.42924955
37.45635282
37.37394354
37.40172742
37.69286014
38.44714445
38.40577145
38.04868012
39.24517919
38.80197291
38.84919166
38.70528561
38.75388619
39.19009707
40.38917708
40.31736361
39.74567458
41.74544486
40.97777546
41.05975931
40.80434268
40.89225953
41.65031159
41.59642309
41.45109877
40.03122991
37.27201244
37.250126
36.98569144
37.84981427
37.53672253
37.5637108
37.48330843
37.51003007
37.81867976
38.61235817
38.57046298
38.19269889
39.45967995
38.98994944
39.03771502
38.89607646
38.94298405
39.40622971
40.66365359
40.59618298
39.99064368
42.06333527
41.28754981
41.35853559
41.13847984
41.21411577
41.9927018
43.41206058
43.49039564
42.8741253
42.22458447
43.57119396
43.36958245
43.86296664
43.74247178
42.69676255
25.50842558
26.63542273
36.62155963
42.95299341
42.33266107
45.17390454
43.91244863
37.34293227
37.32813931
37.04363036
37.97129926
37.63633487
37.65630637
37.58977426
37.61405676
37.94309695
38.77756026
38.73926619
38.3372182
39.68138079
39.18434845
39.22928198
39.08592543
39.13571265
39.62612059
40.90863498
40.85883072
40.23837627
42.22211672
41.53265357
41.56696501
41.43100334
41.48764339
42.20364783
42.83469379
43.02071219
42.80944442
39.63878024
42.44820441
42.03883331
43.1076742
42.81113635
40.46306631
23.69361277
23.69318063
30.7363039
42.01838208
42.27628033
42.00195957
41.91966521
37.37438246
37.37076904
37.06998754
38.05544319
37.69865966
37.70557787
37.67361158
37.68788634
38.03943491
38.8939953
38.87129394
38.44475347
39.85511567
39.34011369
39.36764939
39.27041797
39.3075545
39.81927339
41.02887563
41.00983799
40.41547155
42.13458493
41.60755736
41.60087776
41.58991212
41.60786256
42.1844955
41.70208023
42.06448178
42.35401397
34.83985707
40.36002629
39.58468446
41.56176798
41.00083901
36.5108307
25.90592148
24.99655215
25.28225329
43.46360117
43.85723076
42.62671133
43.04691802
37.3695154
37.37332449
37.06535499
38.07829443
37.70973037
37.70758353
37.70931727
37.7104411
38.07792353
38.92553789
38.92607337
38.48286646
39.92846577
39.40917906
39.40784954
39.38885516
39.40386303
39.92398174
40.98493323
41.01368336
40.47307098
41.71111622
41.48915042
41.41293673
41.58367157
41.54695484
41.84019857
39.86919205
40.36679826
41.53326435
28.35570544
36.95773803
36.02120813
38.77864774
37.8612305
29.87515949
30.39608919
29.25501398
23.17410606
44.55301141
44.61298499
44.17086115
44.41758732
37.33859496
37.34844084
37.03604816
38.06221636
37.68957751
37.68044041
37.70326624
37.69721792
38.06921044
38.89968153
38.91011919
38.46873669
39.88020355
39.3838103
39.36925449
39.4036864
39.39533744
39.89947329
40.76159206
40.82871193
40.37674714
41.08954911
41.11061104
40.99750284
41.32116727
41.21928861
41.25702111
37.99135791
38.44290991
40.43432964
24.39101315
33.32089004
32.52776702
35.06304125
34.11386926
25.06283011
32.89467081
32.52304828
22.38354744
44.18875713
43.9258339
44.55148857
44.43164638
37.28725032
37.30174015
36.9867839
38.01820277
37.64490468
37.63062642
37.6698915
37.65801404
38.03143545
38.83572774
38.85487107
38.42225874
39.7657495
39.30843553
39.2828303
39.35175853
39.33144139
39.79962961
40.43044387
40.52172345
40.19382393
40.33892493
40.6263909
40.49188147
40.87928142
40.75558134
40.53654797
36.1265559
36.59932881
39.2699625
22.2978225
30.16712317
29.39621397
31.73617122
30.94863282
22.74474369
34.08094937
33.83223176
21.94043292
43.13705059
42.87903718
43.66160837
43.39800122
37.21997612
37.23809271
36.92180263
37.95238227
37.58138202
37.56302759
37.61523989
37.5987988
37.97065287
38.74009756
38.76674577
38.34945898
39.59838877
39.19126052
39.15604221
39.25470923
39.22417153
39.64494386
40.02338336
40.12997543
39.94435025
39.50343082
40.05973696
39.90721884
40.35256517
40.2084068
39.71800009
34.23160957
34.70195455
38.03516672
20.84651673
27.25070586
26.58637308
28.64845907
27.93461939
21.18424324
34.78798555
34.65020672
22.03773757
42.13141362
41.89246139
42.62529184
42.37628564
37.1401726
37.16115711
36.84462777
37.86852383
37.5027537
37.48106531
37.54377649
37.52366571
37.89102795
38.61657661
38.64992548
38.254189
39.38442112
39.0372815
38.99343594
39.11860452
39.07900849
39.44203741
39.56576078
39.68451762
39.62813083
38.61815625
39.43086495
39.26698074
39.75129047
39.59239229
38.8428074
32.38364497
32.84144667
36.76898862
19.68350677
24.76354285
24.21071068
25.95708497
25.35085181
19.94591597
35.04588866
35.03095103
22.53533039
41.20247804
40.98112515
41.65767608
41.42729761
37.05031992
37.0736265
36.75803218
37.7690869
37.41160019
37.38706685
37.45862561
37.43545795
37.79532426
38.46695019
38.50680905
38.13883667
39.12549233
38.84883646
38.79647858
38.94746653
38.89928204
39.19459384
39.06627468
39.19438049
39.26334217
37.70464979
38.76346527
38.59236085
39.10098412
38.9330873
37.93463024
30.59744516
31.04872399
35.50033055
18.82222134
22.67679425
22.22756693
23.67410793
23.1585989
19.01102705
34.92138963
34.98019503
23.30191896
40.33719157
40.12846062
40.76301859
40.5485831
36.9520595
36.97736719
36.66411532
37.65518039
37.30946021
37.28227773
37.36186015
37.33598477
37.68501285
38.2913711
38.3376741
38.00399732
38.82421157
38.62750613
38.56739016
38.74212098
38.68577667
38.90272524
38.53787628
38.67209369
38.86835455
36.77849129
38.07155092
37.89583423
38.4199093
38.24627796
37.01081483
28.79778467
29.24295195
34.2374274
18.23859202
21.0478797
20.70471127
21.80893717
21.41547539
18.35897468
34.58622985
34.68134518
24.12720406
39.51643376
39.31635685
39.92264193
39.71856884
36.84603172
36.87327383
36.56417754
37.52661134
37.19668605
37.16679008
37.25442401
37.22589128
37.56016397
38.0908151
38.14313682
37.84932206
38.49463836
38.37613224
38.30889872
38.50553715
38.4416769
38.57877761
37.98943862
38.12813755
38.44781114
35.84583589
37.36361412
37.18475864
37.71922535
37.54180151
36.07938988
27.07162729
27.49313012
32.98070826
17.90761675
19.79322007
19.52494348
20.37944313
20.0773882
17.96957966
34.16012103
34.27189299
24.86712828
38.7291224
38.53798894
39.1183963
38.922597
36.73209829
36.76134936
36.45866067
37.38296712
37.07287812
37.04016439
37.13619308
37.10488569
37.42028415
37.8688704
37.92617741
37.6753279
38.14679687
38.09871642
38.02625252
38.24015272
38.17005198
38.23539727
37.42635255
37.56822622
38.00744004
34.91241008
36.64523394
36.46464183
37.0053662
36.8254966
35.14539768
25.45767754
25.84955681
31.74384128
17.78662576
18.82012874
18.61521253
19.27500336
19.04219529
17.79847013
33.69574629
33.81413438
25.46561263
37.97917497
37.79783917
38.34929444
38.16297437
36.60990462
36.6412434
36.34745344
37.22471743
36.93776768
36.90224993
37.00673552
36.97259682
37.26559395
37.62856781
37.69027428
37.48400043
37.78269829
37.80303411
37.72720916
37.95270512
37.87818008
37.87512775
36.85321107
36.99721881
37.55278191
33.98555461
35.9217412
35.74061207
36.2838163
36.10281573
34.21622315
23.97002011
24.33107005
30.54065936
17.83185322
18.07439025
17.92309663
18.42485632
18.24383734
17.80783826
33.2099918
33.3323676
25.90743244
37.26821032
37.0964002
37.61893488
37.44238552
36.47934819
36.51276494
36.23028839
37.05306199
36.79163797
36.75347943
36.86604034
36.82916224
37.09713675
37.37234983
37.43764444
37.27770348
37.40528227
37.49537244
37.41669237
37.65064788
37.57336592
37.50066629
36.27397209
36.41915279
37.08733959
33.07220031
35.19807213
35.01764721
35.55957725
35.37868338
33.29872153
22.64867955
22.96078695
29.38214531
18.00795104
17.48858425
17.35286708
17.77492311
17.63076456
17.9507045
32.72254504
32.84367772
26.20170405
36.59473265
36.43205614
36.92688139
36.75963975
36.34070467
36.37610186
36.10704378
36.86972103
36.63531361
36.59476316
36.71469278
36.67529455
36.91656457
37.10431638
37.17220852
37.05905496
37.01797199
37.17679145
37.09560425
37.33734732
37.25736602
37.11559639
35.69204761
35.83765576
36.61423649
32.17945762
34.47897411
34.3001823
34.83768539
34.65803711
32.40013299
21.49742771
21.77118372
28.28244809
18.30022583
16.96932667
16.85321765
17.21911398
17.09247168
18.21969213
32.24622297
32.36409559
26.35995058
35.9570765
35.80297878
36.27157844
36.11324258
36.19446616
36.23170653
35.97778114
36.67613537
36.46977684
36.42708446
36.5536438
36.51196723
36.72539303
36.82816809
36.89792719
36.8291872
36.6229007
36.84874399
36.7655075
37.01383399
36.93152714
36.72228831
35.11010124
35.25548557
36.13588428
31.31179428
33.7678881
33.59149141
34.12220131
33.94455201
31.52555244