/*--------------------------------*- C++ -*----------------------------------*\
| =========                 |                                                 |
| \\      /  F ield         | OpenFOAM: The Open Source CFD Toolbox           |
|  \\    /   O peration     | Version:  v2012                                 |
|   \\  /    A nd           | Website:  www.openfoam.com                      |
|    \\/     M anipulation  |                                                 |
\*---------------------------------------------------------------------------*/
FoamFile
{
    version     2.0;
    format      ascii;
    class       surfaceScalarField;
    location    "3";
    object      meshPhi;
}
// * * * * * * * * * * * * * * * * * * * * * * * * * * * * * * * * * * * * * //

dimensions      [0 3 -1 0 0 0 0];
oriented        oriented;


internalField   nonuniform List<scalar> 
6430
(
0
0
0
0
0
0
0
0
0
0
0
0
0
0
0
0
-1.359514507e-05
0
1.829075123e-05
6.378356703e-05
7.312532175e-05
-0.000108273653
-0.0003312649213
0.0001162180175
0.0005304324833
-0.0003074518942
-0.001306861943
0.0003103157222
0.001584713477
-0.0002827847779
-0.00232091593
0.0002867557633
0.002498438417
-9.224235219e-05
-0.002726779068
9.307064009e-05
0.001360102878
0.001365847902
3.232476105e-07
-0.0006786439454
-1.37126237e-07
0.0006784578241
0
0
0
0
0
0
0
0
0
0
0
0
0
0
0
0
-2.034493522e-05
0
1.662911357e-05
8.734258033e-05
8.037581967e-05
-0.0001282095401
-0.0003937144487
0.0001241067915
0.0006154692849
-0.0003218303615
-0.0014392009
0.0003170415575
0.001727444392
-0.0002768527496
-0.002464673495
0.0002775080374
0.002633412629
-8.887194684e-05
-0.002821419266
8.887194685e-05
0.001408103891
0.001413315375
1.888619634e-06
-0.001408103891
-5.43964695e-06
3.551027318e-06
0.0007029912368
0.0007051126541
0
0
0
0
0
0
0
0
0
0
0
0
0
0
0
0
-1.022414856e-05
0
3.694693895e-06
4.080121878e-05
2.564077787e-05
-9.549935557e-05
-0.0002872286723
8.202440547e-05
0.0004842955543
-0.0002797142753
-0.00126762834
0.0002598640888
0.001555641615
-0.000275335782
-0.002336853247
0.0002705434245
0.002536878341
-0.0001007933195
-0.002880469062
0.0001106432336
0.002911379873
5.439646951e-06
-0.002915979952
-1.752959726e-05
0.002915979952
1.208995032e-05
0
0
0
0
0
0
0
0
0
0
0
0
0
0
0
0
-8.936555015e-08
0
0
2.274653614e-07
0
-3.896469215e-05
-9.891404094e-05
2.62556858e-05
0.000222760068
-0.000182985241
-0.0008252744029
0.0001539558429
0.001074533699
-0.0002346348516
-0.001829943365
0.0002149321666
0.002054409609
-0.0001284216963
-0.002564273425
0.0001285288144
0.002673988124
8.340198917e-06
-0.002848425237
-2.066132934e-06
0.002866690826
0
0
0
0
0
0
0
0
0
0
0
0
0
0
0
0
0
0
0
0
0
-2.540396999e-06
-2.263268127e-07
4.070853745e-07
1.706761135e-05
-7.068427178e-05
-0.0002965440984
4.777668549e-05
0.0004522017186
-0.0001393774628
-0.001009089789
0.0001120541498
0.0011996883
-0.0001089094168
-0.001698028415
9.657811994e-05
0.001825567607
-1.675888914e-05
-0.002064032397
2.082825469e-05
0.002093986743
0
0
0
0
0
0
0
0
0
0
0
0
0
0
0
0
0
0
0
0
0
0
0
0
0
-5.093665359e-06
-7.710332976e-06
7.676661901e-07
3.584044599e-05
-4.014853331e-05
-0.0002495838917
2.299115965e-05
0.0003473925009
-5.126526516e-05
-0.0006482322191
3.639559314e-05
0.0007358987803
-2.124652962e-05
-0.0009151704814
1.784937428e-05
0.0009407200824
0
0
0
0
0
0
0
0
0
0
0
0
0
0
0
0
0
0
0
0
0
0
0
0
0
0
0
0
0
-1.169464767e-07
0
0
1.289054702e-06
-4.86237887e-06
-3.530627985e-05
7.588904261e-07
5.470072105e-05
-4.671575606e-06
-0.0001065101753
1.60640603e-06
0.0001156094413
0
0
0
0
0
0
0
0
0
0
0
0
0
0
0
0
0
0
0
0
0
0
0
0
0
0
0
0
0
0
0
0
0
0
0
0
0
0
0
0
0
0
0
0
0
0
0
0
0
0
0
0
0
0
0
0
0
0
0
0
0
0
0
0
0
0
0
0
0
0
0
0
0
0
0
0
0
0
0
0
0
0
0
0
0
0
0
0
0
0
0
0
0
0
0
0
0
0
0
0
0
0
0
0
0
0
0
0
0
0
0
0
0
0
0
0
0
0
0
0
0
0
0
0
0
0
0
0
0
0
0
0
0
0
0
0
0
0
0
0
0
0
0
0
0
0
0
0
0
0
0
0
0
0
0
0
0
0
0
0
0
0
0
0
0
0
0
0
0
0
0
0
0
0
0
0
0
0
0
0
0
0
0
0
0
0
0
0
0
0
0
0
0
0
0
0
0
0
0
0
0
0
0
0
0
0
0
0
0
0
0
0
0
0
0
0
0
0
0
0
0
0
0
0
0
0
0
0
0
0
0
0
0
0
0
0
0
0
0
0
0
0
0
0
0
0
0
0
0
0
0
0
0
0
0
0
0
0
0
0
0
0
0
0
0
0
0
0
0
0
0
0
0
0
0
0
0
0
0
0
0
0
0
0
0
0
0
0
0
0
0
0
0
0
0
0
0
0
0
0
0
0
0
0
0
0
0
0
0
0
0
0
0
0
0
0
0
0
0
0
0
0
0
0
0
0
0
0
0
0
0
0
0
0
0
0
0
0
0
0
0
0
0
0
0
0
0
0
0
0
0
0
0
0
0
0
0
0
0
0
0
0
0
0
0
0
0
0
0
0
0
0
0
0
0
0
0
0
0
0
0
0
0
0
0
0
0
0
0
0
0
0
0
0
0
0
0
0
0
0
0
0
0
0
0
0
0
0
0
0
0
0
0
0
0
0
0
0
0
0
0
0
0
0
0
0
0
0
0
0
0
0
0
0
0
0
0
0
0
0
0
0
0
0
0
0
0
0
0
0
0
0
0
0
0
0
0
0
0
0
0
0
0
0
0
0
0
0
0
0
0
0
0
0
0
0
0
0
0
0
0
0
0
0
0
0
0
0
0
0
0
0
0
0
0
0
0
0
0
0
0
0
0
0
0
0
0
0
0
0
0
0
0
0
0
0
0
0
0
0
0
0
0
0
0
0
0
0
0
0
0
0
0
0
0
0
0
0
0
0
0
0
0
0
0
0
0
0
0
0
0
0
0
0
0
0
0
0
0
0
0
0
0
0
0
0
0
0
0
0
0
0
0
0
0
0
0
0
0
0
0
0
0
0
0
0
0
0
0
0
0
0
0
0
0
0
0
0
0
0
0
0
0
0
0
0
0
0
0
0
0
0
0
0
0
0
0
0
0
0
0
0
0
0
0
0
0
0
0
0
0
0
0
0
0
0
0
0
0
0
0
0
0
0
0
0
0
0
0
0
0
0
0
0
0
0
0
0
0
0
0
0
0
0
0
0
0
0
0
0
0
0
0
0
0
0
0
0
0
0
0
0
0
0
0
0
0
0
0
0
0
0
0
-0.0006778108795
0.0006778145447
3.195823688e-07
-0.0007021764946
0.0007021764946
1.888619633e-06
-0.002703532601
-9.255966219e-05
0.001348994675
0.001354855237
4.231045874e-06
0.000676910931
-4.053973454e-06
-0.001354898883
-0.002754307195
-8.699254846e-05
0.001350193499
0.001402234298
1.210181676e-06
0.0007000578036
-1.210181677e-06
-0.001402234298
0.0006814367821
-0.001360069466
4.219784076e-06
-3.415422235e-07
-0.0006895991829
0.0006895359386
4.047865969e-07
-6.406182442e-06
0.000342398534
7.398666201e-06
-0.0003433910177
8.456382421e-06
0.0003372440842
-0.0003377317997
-7.968666998e-06
-0.001449185587
0.001449185587
5.43964696e-06
0.0003384070969
8.769983351e-06
-0.0003387206978
-8.451068355e-06
0.0003377603123
9.097852959e-06
0.0007080562562
-1.153894863e-05
-0.0007047520617
3.28268994e-06
4.952064227e-06
0.0003427376609
-0.000343321855
-5.821988307e-06
-0.0006908073936
-2.133059547e-07
0.0006906791573
4.720529588e-06
-4.390680837e-06
0.0003424078121
-1.514662653e-05
0.0007081586212
5.321311024e-06
9.722950502e-06
-7.798361271e-06
0.0003365913772
5.428538809e-06
0.0003416905248
-0.0003384625291
-1.28342628e-05
3.772243756e-06
0.0003413703847
-0.0003419289278
-3.213700643e-06
6.139477104e-06
-0.0006848923238
-6.080738007e-06
0.0006848335847
-6.082102558e-06
-0.0006894711621
6.406784698e-06
0.0003443626127
0.0003447838673
6.352221941e-06
-0.0006783383117
-6.158128507e-06
0.0006781442183
-0.0006833641128
0.0006832967767
6.206813151e-06
0.0003399482317
4.471951886e-06
-0.0003406479398
5.120066742e-06
0.0003362995917
-0.0003366250824
-4.794576062e-06
6.3365147e-06
-0.0006741732874
-6.274477364e-06
0.0006741112501
-0.0006777606958
0.0006777633528
6.349565014e-06
-0.0006721426317
0.0006722033487
6.275797661e-06
0.0003356396128
5.522361869e-06
-0.000336041908
-5.260436277e-06
0.0003351337832
5.766265883e-06
-4.694500928e-06
0.0003357336563
-0.0006905467613
-5.815142127e-06
0.0003449600365
0.0003453197644
2.041707371e-05
-0.0007638787475
-4.215709e-06
0.0003585533379
0.0003891240448
0.0003929139313
8.318686482e-06
7.109374547e-08
-0.0004013037115
8.888685472e-05
-1.176209675e-05
0.0003157891733
-2.574953657e-06
2.388335307e-06
-0.0003462395337
7.011901867e-06
0.0003440082622
-0.0003446980362
-6.322127912e-06
-3.670680029e-06
0.0003390904617
4.528449962e-06
-9.259185502e-05
3.333579984e-05
-0.0002792064739
0.000343668586
7.994392944e-06
-0.0003446510771
0.0003463021322
-0.0004355396162
-3.354371032e-06
-2.70234883e-06
0.0003404020535
-1.041160294e-05
-5.87772925e-06
6.858050073e-06
-0.002882609945
0.002891622808
-9.18465955e-05
9.070574458e-06
-0.002891832569
0.001442646982
-7.860392771e-06
-1.21018168e-06
-0.001408103891
1.210181676e-06
-5.439646964e-06
-0.001425709943
0.001425709943
5.43964695e-06
0.001425709943
-2.53894954e-05
2.538949539e-05
-0.001425709943
0.0007056145268
-0.0007042907501
-1.286272534e-05
0.0003482618777
6.798885128e-06
-0.0003471897852
-7.870977592e-06
4.892323507e-06
-0.0003452608762
-5.210784032e-06
0.0003455793367
-5.127091186e-06
-0.0003446368697
0.0003444089245
5.355036406e-06
-1.517734093e-05
0.0007056452412
-3.203991752e-05
0.001425709943
3.203991752e-05
-7.397182787e-06
-0.0003331840987
0.0003326919477
7.88933383e-06
5.297658448e-06
-0.0003414411163
-7.744010003e-06
0.0003438874679
0.0004771091501
-0.0003883934173
-8.039704628e-05
-0.0006565804964
-8.55620608e-06
0.0003651592907
0.0003203944855
-0.0007021744766
-7.888338145e-06
0.000701518932
8.543882745e-06
-0.0003447351756
-4.824249291e-06
0.0003444323337
-4.170965251e-06
-0.0003466186739
0.0003465164355
4.27320365e-06
0.0003447050529
-3.589411845e-06
4.375200399e-06
-0.0003454908414
-4.828678067e-06
-3.392466147e-06
3.621748371e-06
0.0003444757706
-8.665387926e-05
0.0003413898753
1.977896625e-05
-0.0002745149623
0.0007021938297
-2.08466352e-05
2.152579758e-05
-0.0007028729921
-0.0003360519564
-3.589771336e-06
0.0005659960048
-6.112352037e-06
-0.0003400743891
0.000339501069
6.68567214e-06
8.94461067e-05
-2.922857064e-05
0.0002880443416
3.968600665e-06
-0.0003421685698
-4.033119604e-06
0.0003422330888
-0.0003434856738
0.0003440126763
4.365321048e-06
0.0003487121323
4.32767191e-06
-0.0003462409191
0.0003403838539
6.246896335e-06
-0.0003409549018
-5.675848499e-06
4.499429354e-06
-0.0003417638465
-4.408600673e-06
0.0003416730178
-0.0003414762834
0.0003412688611
4.176022974e-06
-0.0003332244477
-6.898874028e-06
0.000332726139
-0.0003403442903
0.0003415152882
4.12666053e-06
0.0003457060586
-0.0003467929176
-2.502552835e-06
-0.0003471736066
-4.22117348e-06
0.0003472238148
-8.582563668e-06
-0.0003887755644
0.0003913132626
6.044865456e-06
0.0003303962374
-6.638864571e-05
2.630113676e-05
-0.0002903087284
0.0003463064274
-0.0004325711594
-3.891472128e-07
-1.60001817e-06
0.0003439136106
2.081938549e-05
-8.676336877e-05
0.0003435178015
-0.0002775738182
-7.322109261e-06
0.0003439743781
4.737606536e-06
-3.270612775e-06
0.0003451118014
3.74977817e-06
-0.0003455909668
-5.607589031e-06
0.0003398790909
4.289823196e-05
-0.0004734846282
8.473292914e-06
0.000344929641
-0.0003449510636
-8.45187036e-06
0.0003397328602
-4.027513849e-05
-0.0002786383363
0.0003450923789
1.010880418e-05
-0.0003467278902
0.0004366237587
1.534480269e-06
5.025640276e-06
-0.0003384206281
-4.877713027e-06
0.0003382727008
-0.0003415135782
0.0003414306174
4.582390165e-06
6.883587405e-06
-0.0003407110802
5.93461659e-06
-0.0003399181654
-7.457567509e-06
4.633293086e-06
-0.0003384903289
-4.788718092e-06
0.0003386457539
-0.0003387996586
0.0003388700589
4.955239997e-06
9.890282021e-06
-6.865055858e-06
0.0003347350861
-0.0003397563347
3.017197999e-05
0.0003194746367
9.161132543e-06
-0.0003398196143
-3.786186854e-06
-0.0003429428115
0.0003423383175
0.0003370102866
-7.334115834e-06
-0.0003374745321
5.809662551e-06
-5.393703416e-06
0.0003365943275
0.0003355359838
8.944129065e-06
-0.0003433907682
0.000339875178
4.34188888e-06
-0.0003368666513
-4.337885012e-06
0.0003368626474
-0.0003380524409
0.0003382696528
4.416081202e-06
4.885669668e-06
-0.0003392953434
6.800733709e-06
-0.000333628037
-6.397144414e-06
4.632876971e-06
-0.0003340921891
-4.559323213e-06
0.0003340186354
-0.000336497864
0.0003364265695
4.413183418e-06
5.976103511e-06
-5.400114217e-06
0.0003345577939
-0.0003344411706
0.0003339349864
6.482287697e-06
-0.0003350085634
6.333658665e-06
0.0003366624585
-4.208614664e-06
-0.0003371483448
4.738734958e-06
-3.843613165e-06
0.0003357673367
0.0003350722771
-0.0003635361629
0.0003617932164
1.814040264e-06
-5.809879338e-06
3.952655747e-06
-0.0003616789393
-1.144959521e-05
-0.0003956639956
0.0003553405697
3.847621891e-05
-0.0003938167886
2.911431413e-07
0.0003497399765
-0.0003444679029
-3.345731961e-06
-6.557704494e-06
0.0003455420226
-1.198226913e-05
0.0003319384333
1.044007322e-05
4.573133857e-06
-3.707669308e-06
0.0003382249972
-0.0003392295507
4.961758323e-06
0.0003388409262
5.102799069e-06
-0.0003398038998
1.15914698e-06
-0.0002937173956
3.804178957e-05
-0.0004735814058
0.0003385696812
-2.315461489e-05
-0.0002773732768
-8.709897357e-06
0.0003439252076
0.0003422964653
-1.719336003e-06
-0.0003432794781
2.953381524e-06
1.928786966e-06
0.0003374142968
0.0003396477657
-9.481759118e-06
1.093065061e-05
-6.654529668e-06
-0.0003327223282
0.0003325842915
-6.283470693e-06
-0.0003322633848
0.0003318923258
-0.0004309777898
-3.307100423e-05
0.000464048794
0.0003425193523
-0.0003411022297
8.990439149e-05
0.0002827869408
2.81406962e-06
-0.0003707360998
-9.026368176e-06
0.0003711799043
-3.171543315e-06
-0.0003494253206
0.0003500357954
2.561068504e-06
0.0003640972431
4.26511575e-06
-1.331265883e-05
-0.0003550497001
-0.0003448074348
0.0003440172856
5.165349592e-06
-4.751888684e-06
5.460566335e-06
-0.0003455161125
-4.056532409e-06
-0.0003461861977
0.0003438528472
-4.174915542e-05
0.0003391706249
-0.0002776425032
0.0004372624158
-0.0004790115713
3.571600681e-06
0.0003876133013
-2.708765888e-05
-1.857622812e-05
0.0003569312899
2.458209193e-05
-0.0003629371537
0.000304084704
-0.0003680728853
-2.400464442e-06
5.175616313e-06
-5.101386483e-06
0.0003394268392
-0.0003383018758
0.0003380837887
-0.0003389503195
-0.0003456615322
0.0003253770906
-5.436082628e-06
5.574026903e-06
0.0003337970422
-5.231766549e-06
0.0003343534779
-5.900284026e-06
-0.0003322904329
0.0003319072463
-0.0003329493256
0.0003326230685
2.86386645e-06
0.0003414654914
-0.0003383965937
0.000337416847
-0.0003384785479
1.022185212e-06
4.197590462e-06
0.0003321970714
0.0003094166724
-4.879489039e-06
0.0003347199996
0.0003350854382
-3.661910061e-06
-0.0003471875399
0.000351448243
-0.0003511574973
0.0003507597304
-0.0003214903885
4.74655928e-06
0.000343044966
-7.524274541e-05
1.638834212e-05
-0.0002626359852
-1.02109041e-05
4.21377049e-05
-0.0004747088643
0.0003322874217
-0.0002737613747
0.0003366448337
0.0003494508554
0.0003484588204
2.040226668e-06
5.971173539e-06
0.0003473804563
-4.892809449e-06
5.011936919e-06
0.0003444770381
0.000339682449
-0.000340187239
5.031706716e-06
0.0003396125006
0.0003398094112
-0.0002845682439
2.140392038e-05
-8.809882218e-05
0.0003414907213
-0.0002747958195
-3.956111245e-05
0.0003392345255
-0.0002782694927
-1.852939805e-07
0.0003449300911
-0.0004345820832
0.000346297967
-0.0004748572217
0.0004356059021
-0.0004751670145
-0.0003413493609
0.0003427482677
-8.961481791e-05
-0.0002748891578
-7.36806033e-07
-3.518879089e-05
0.0004718125496
-0.0003457389053
0.0003124789014
-0.000345923761
-0.0003183000246
0.0005167263265
-0.0001084367774
0.001285366594
0.0002733539118
-0.0002668976463
-0.001009183377
0.001561270398
-0.0003052712551
0.002292110498
0.0003161142141
-0.0003151926787
-0.002075313319
0.002469592207
-0.0002824589699
0.0001284762828
-0.0001298874357
-0.002679500315
-0.0003793918131
0.0005927770358
-0.0001255676195
0.001387836579
0.0002872281441
-0.0002854028115
-0.001107634056
-0.001017913332
0.0002737145705
0.001667841214
-0.0003208089908
0.002392269285
0.0003147691047
-0.0003163781212
-0.002180947795
-0.002102781609
0.000314497948
0.002561027443
-0.0002790579744
0.0001195869575
-0.0001206265497
-0.002743791016
-0.002705712604
0.0001270077676
0.0001007343188
-0.002758650008
0.001371722512
0.001379263817
2.971618579e-05
0.001378940705
-2.971519926e-05
-0.001378941692
-2.972125931e-05
0.001360046524
-0.001360043437
2.971817238e-05
-3.353356577e-07
-0.0006835463643
0.000683485699
3.960009496e-07
-4.69955233e-06
4.762398142e-06
-0.0006834269586
4.825491662e-06
-0.0006783374045
-4.826398852e-06
-0.0003261517236
0.0005338649038
-0.0001073634195
0.00133876778
0.0002423396384
-0.0002593220197
-0.001051238039
-0.001149602582
0.0002819513735
0.001629320133
-0.0002959546329
0.002400631672
0.0003004973684
-0.0003072321053
-0.00217114226
-0.002251266602
0.0003137883251
0.002590844402
-0.0002775278123
0.0001462482418
-0.0001372968441
-0.002833124833
-0.002812148254
0.0001223479283
0.002845550292
8.892066332e-05
-0.002845541707
6.2270034e-05
0.001425709943
-3.445929815e-05
-2.781073587e-05
0.00141984035
-2.781073588e-05
0.001408103891
-0.001408103891
2.781073588e-05
-5.43964695e-06
-0.001413315375
0.00070592467
0.0007073907053
-6.875987772e-06
0.0007073907053
6.875987773e-06
-0.0007073907053
6.876660429e-06
0.0007029905641
-0.0007029912368
-6.875987769e-06
-0.0001454926654
0.0002919341331
-5.300180581e-05
0.0009541676651
0.0001470063891
-0.0001735896991
-0.0007050536138
-0.0009851716376
0.0002220145709
0.001218046967
-0.0002108773339
0.00199350494
0.0002390800032
-0.0002600168398
-0.001747586208
-0.002100939762
0.0002906485323
0.002215944094
-0.000250521382
0.002696820738
0.0001632577208
-0.0001634975949
-0.002569752932
-0.002809789657
0.0001542703858
0.002791846792
-0.0001251163816
0.002926173151
2.325405532e-05
-1.721665082e-05
-0.002901303142
-0.002915979952
9.070574439e-06
0.0029378679
1.355754864e-05
-6.568661709e-06
4.985179416e-05
-7.525150041e-06
0.0004201010376
4.746359111e-05
-6.929091842e-05
-0.0002618749479
-0.0005939098091
0.0001200693868
0.0006039032448
-9.670896805e-05
0.001227840142
0.000130031856
-0.0001592412588
-0.001015974686
-0.001586404569
0.0002147988285
0.001433425278
-0.0001663936853
0.001954501838
0.0001255150123
-0.0001400224734
-0.001801231122
-0.002424356782
0.0001592514773
0.002083703266
-0.0001186271214
0.002319405615
4.098670777e-05
-3.851291464e-05
-0.002266099473
-0.002812524872
2.914944463e-05
0.002348160063
-1.117628968e-05
0
0
0
3.919812692e-05
1.061853905e-06
-5.697788249e-06
-7.482360219e-06
-0.0001681287743
2.919256503e-05
9.987797866e-05
-1.447848286e-05
0.0004062381891
3.121094223e-05
-5.10321712e-05
-0.000288956784
-0.0008160999048
0.0001014719738
0.0005308597682
-6.131934651e-05
0.000893765384
5.301122947e-05
-7.135184074e-05
-0.0007796298442
-0.001548980714
0.0001086261718
0.0009955357848
-6.688612889e-05
0.001198644747
3.096839189e-05
-3.62740605e-05
-0.001150014534
-0.002009266806
4.149355086e-05
0.001226621607
-2.308619222e-05
0
0
0
0
0
0
0
0
0
0
0
7.61379574e-06
0
-8.258032419e-07
-5.041286128e-07
-0.0001615632584
1.600873161e-05
2.298916453e-05
-2.830662214e-06
0.0001183602947
3.571365926e-06
-1.088227979e-05
-8.172001423e-05
-0.0005515124972
3.623885681e-05
0.0001553577486
-1.247140238e-05
0.0002414533851
5.555831415e-06
-1.105434486e-05
-0.0002191185077
-0.0008715976996
2.452007735e-05
0.0002553865346
-8.843598135e-06
0
0
0
0
0
0
0
0
0
0
0
0
0
0
0
0
0
0
0
0
0
0
0
-1.894991543e-05
2.657107425e-07
0
0
0
0
0
0
-9.235647162e-05
1.755955629e-06
0
0
0
0
0
0
0
0
0
0
0
0
0
0
0
0
0
0
0
0
0
0
0
0
0
0
0
0
0
0
0
0
0
0
0
0
0
0
0
0
0
0
0
0
0
0
0
0
0
0
0
0
0
0
0
0
0
0
0
0
0
0
0
0
0
0
0
0
0
0
0
0
0
0
0
0
0
0
0
0
0
0
0
0
0
0
0
0
0
0
0
0
0
0
0
0
0
0
0
0
0
0
0
0
0
0
0
0
0
0
0
0
0
0
0
0
0
0
0
0
0
0
0
0
0
0
0
0
0
0
0
0
0
0
0
0
0
0
0
0
0
0
0
0
0
0
0
0
0
0
0
0
0
0
0
0
0
0
0
0
0
0
0
0
0
0
0
0
0
0
0
0
0
0
0
0
0
0
0
0
0
0
0
0
0
0
0
0
0
0
0
0
0
0
0
0
0
0
0
0
0
0
0
0
0
0
0
0
0
0
0
0
0
0
0
0
0
0
0
0
0
0
0
0
0
0
0
0
0
0
0
0
0
0
0
0
0
0
0
0
0
0
0
0
0
0
0
0
0
0
0
0
0
0
0
0
0
0
0
0
0
0
0
0
0
0
0
0
0
0
0
0
0
0
0
0
0
0
0
0
0
0
0
0
0
0
0
0
0
0
0
0
0
0
0
0
0
0
0
0
0
0
0
0
0
0
0
0
0
0
0
0
0
0
0
0
0
0
0
0
0
0
0
0
0
0
0
0
0
0
0
0
0
0
0
0
0
0
0
0
0
0
0
0
0
0
0
0
0
0
0
0
0
0
0
0
0
0
0
0
0
0
0
0
0
0
0
0
0
0
0
0
0
0
0
0
0
0
0
0
0
0
0
0
0
0
0
0
0
0
0
0
0
0
0
0
0
0
0
0
0
0
0
0
0
0
0
0
0
0
0
0
0
0
0
0
0
0
0
0
0
0
0
0
0
0
0
0
0
0
0
0
0
0
0
0
0
0
0
0
0
0
0
0
0
0
0
0
0
0
0
0
0
0
0
0
0
0
0
0
0
0
0
0
0
0
0
0
0
0
0
0
0
0
0
0
0
0
0
0
0
0
0
0
0
0
0
0
0
0
0
0
0
0
0
0
0
0
0
0
0
0
0
0
0
0
0
0
0
0
0
0
0
0
0
0
0
0
0
0
0
0
0
0
0
0
0
0
0
0
0
0
0
0
0
0
0
0
0
0
0
0
0
0
0
0
0
0
0
0
0
0
0
0
0
0
0
0
0
0
0
0
0
0
0
0
0
0
0
0
0
0
0
0
0
0
0
0
0
0
0
0
0
0
0
0
0
0
0
0
0
0
0
4.886074683e-06
-0.0006778212789
4.815887508e-06
-0.0006741092692
-4.879905763e-06
2.46656907e-07
-0.0006740376511
-3.127097309e-07
0.0006741037039
6.878150898e-06
-0.0007021759671
4.552949224e-06
-0.0006542517859
-6.881659732e-06
-1.347567516e-06
-0.0006514988091
-1.888619635e-06
0.0006547349962
-2.250011627e-05
2.251151609e-05
0.001354929655
-2.979231498e-05
-0.001354858599
0.001336886493
-0.001336877668
2.974085231e-05
-0.00267946909
0.001336869422
0.001342617115
0.0006687674603
-0.001336923427
4.021452022e-06
2.332840897e-05
0.001336895941
2.324157573e-05
0.001354938226
-2.325014712e-05
0.001402234298
-2.781073587e-05
-0.001402234298
0.001393523121
-0.001393588311
2.9781376e-05
-0.002824245271
0.001395850277
0.001442136765
-4.329793813e-06
0.0006938829145
-0.001393842715
1.348220056e-05
-2.322947104e-05
2.297326225e-05
0.00139377933
2.116052479e-05
0.001402234298
-2.116052478e-05
2.323615679e-05
0.001360051943
0.001378940902
-2.322966799e-05
0.0006889644047
-3.884927704e-06
-0.001379008454
-4.702384111e-06
4.768214546e-06
-0.0006895369925
-0.0006848902104
-4.701665673e-06
-0.000684883497
-3.37715372e-07
0.0006848858767
-0.0003438594775
7.867375417e-06
-7.374665259e-06
7.637596514e-06
-0.0003441224087
-6.74526909e-06
-0.0003440204139
-7.053535993e-06
7.371339775e-06
-0.0003380496034
0.0003379836995
-0.0003383214203
-6.715815153e-06
-7.459499597e-06
0.001449185587
-2.538949541e-05
2.53894954e-05
-0.001449185587
0.001431579535
-0.001431579535
-2.53894954e-05
-0.001431579535
-5.43964696e-06
0.001431579535
-3.203991752e-05
0.001431579535
-3.203991752e-05
0.001449185587
3.203991753e-05
-0.0007036526924
-2.184182617e-05
-0.0007073908887
2.183881103e-05
-0.0003395679401
8.518309181e-06
-7.516694707e-06
7.271213902e-06
-0.0003393224593
-0.0003388660527
-0.0003340346254
0.0003339655379
4.701964503e-06
7.13539781e-06
-0.0003335187628
-0.0006721953288
0.0006721986904
2.432953464e-07
4.877515338e-06
-0.0006722042595
0.0003627825017
-0.0003575187576
-9.986283609e-07
-0.0003504665512
-3.790428756e-06
0.0003510854366
-0.0007028139028
-1.055766576e-05
4.432961893e-06
4.186545006e-06
-6.105918998e-06
-0.0003439612051
0.0003435994502
-0.0003442448029
-0.0007588525955
0.0007600315455
-2.526517496e-06
4.417668168e-06
-0.0007637434664
-0.0006906137175
-4.635427951e-06
0.0007048665435
-1.882081179e-05
1.01626713e-05
1.195021816e-05
0.0003545833483
-0.0003605530248
-1.260655161e-05
-3.904238305e-06
0.0003702583407
-3.788989151e-06
4.02107635e-06
-0.000342161015
0.0003434379512
-0.0003432025011
-4.024439329e-06
-3.055227512e-06
0.0006859736082
-5.829193137e-06
-0.000686225153
7.370346784e-06
-4.184285692e-06
0.0003428197344
-3.517861133e-06
7.287965147e-06
0.0003427473965
-4.332535627e-06
4.411412181e-06
-0.0003447157463
-0.0003450413272
-4.403834626e-06
-0.0006892255138
0.0003449130118
0.0003448900936
0.0006816259446
-6.213717603e-06
-0.0006815703555
7.302146872e-06
-7.589401031e-06
0.0003403996205
8.26711323e-06
0.0003387586239
7.814675851e-06
0.0003412937826
-0.0006831591953
0.0003416206237
-0.0006831660998
-0.0003404389876
5.107039636e-06
-4.414810281e-06
4.820395583e-06
-0.0003408445729
-0.0003410416737
-4.800365134e-06
4.898086202e-06
-0.0003367228034
0.0003373070393
-0.0003373714911
-4.735913412e-06
-4.635881508e-06
0.0006756495368
-6.276392552e-06
-0.0006756476216
7.711115274e-06
-7.793190443e-06
0.000337679171
7.651539208e-06
0.0003373041749
8.073211795e-06
0.0003391575956
-0.0006769928855
0.000338782578
-0.0006769197131
0.0006685278119
-6.404158692e-06
-0.0006686535956
-8.047412389e-06
0.0003342970589
7.538197101e-06
0.0003358188268
-0.0006695526313
0.0003349512269
-0.0006696809923
-0.0003354776285
5.991426933e-06
-5.197083192e-06
5.37654722e-06
-0.0003356570925
-0.000336340905
-5.355481439e-06
-0.0006935607624
0.000346395602
0.0003467054998
-3.796995046e-06
3.877903823e-06
-0.0003466995827
-0.0003449499048
-4.117806408e-06
-6.205384813e-06
4.941561535e-06
-0.0003875117411
-0.0003471128641
-3.857737532e-06
-0.0007064280337
0.0003471110505
0.0003497457928
-0.0003395996912
3.049952373e-06
-4.658290988e-06
5.254103676e-06
-0.0003401955039
-0.0003330463982
-1.785142656e-05
-7.334999465e-06
7.114001349e-06
0.0003460891086
-6.043651801e-06
-4.902125003e-06
0.0003446691057
-0.0003451843927
9.048632052e-06
0.0003441301536
-7.393015419e-06
8.506589754e-06
-1.061051322e-05
-8.235990942e-06
-6.227003405e-05
0.002891832569
6.289545888e-05
-0.002869028663
0.002869028663
-0.0028683755
-1.210181666e-06
-0.001431579535
1.210181671e-06
3.567035036e-05
-2.116052477e-05
0.001431579535
0.001437449128
-1.45098256e-05
3.567035038e-05
2.116052478e-05
0.001408103891
0.001425709943
-2.116052477e-05
-1.210181676e-06
-0.001425709943
1.208995033e-05
0.001425709943
-1.208995034e-05
-0.00141984035
0.00141984035
5.213962552e-06
-0.00141984035
-0.00141984035
1.352601419e-05
0.001419840475
1.186335591e-05
-1.874016141e-05
8.538395456e-06
1.020176596e-05
-1.874016143e-05
-8.539213192e-06
0.0007036414392
0.0007073907053
8.538395452e-06
0.0007073913318
1.352538769e-05
-0.0007073907053
-7.39904713e-06
-0.0003462770989
6.486360816e-06
0.0003456651343
-0.000345426585
0.0003452541645
-5.429392354e-06
-0.0003450355562
6.393170881e-06
-6.565591325e-06
5.695408676e-06
6.472883892e-06
-6.084373284e-06
-0.0003442151161
-0.0003442894721
-1.518847991e-05
0.0007073918238
1.518798793e-05
-2.017630178e-05
2.017679376e-05
-0.0007073913806
-0.0007043171421
-2.01821855e-05
3.86899545e-05
-3.868995452e-05
-0.001419840659
1.851377802e-05
1.685125427e-05
7.850247614e-06
-7.421684739e-06
-0.0003331600373
-0.0003335858848
-2.571132169e-05
-0.0003741316908
0.0002681457819
-0.0002999860038
6.128900202e-06
0.0001389364073
4.88123283e-05
0.0006979377483
-7.90353172e-06
-0.0006985904227
-8.29607615e-06
0.0003477915582
4.930413353e-06
4.086532288e-06
-0.0003697064124
-7.235072227e-06
8.908338419e-06
-1.020330926e-05
-0.0007006954637
0.0003508411748
-0.0007000551127
0.0003447866634
-4.580099576e-06
-0.0003450308131
5.613244693e-06
-5.071384181e-06
4.596469072e-06
-4.266231254e-06
-0.0003459910276
-0.0003462979235
3.116992348e-06
-0.0007020944375
2.288490354e-05
0.0007007353316
-2.118384993e-05
1.505831306e-05
-0.0003549141709
1.352861854e-05
-1.919029853e-05
-1.158353822e-05
0.0003036859731
0.000352870305
1.911929801e-05
1.003136098e-06
0.0001054939491
0.0005604808114
-0.0003515396485
-0.0002925533446
4.38579868e-05
-0.0002010776611
0.0002526875225
-9.546784815e-05
0.0002881205583
-0.0002057863525
0.000342901034
-4.186757094e-06
3.974601984e-06
-4.276069051e-06
4.046675728e-06
4.900916989e-06
0.000344807168
-0.0003429982983
0.0003436231463
-0.0003446513166
-5.052609724e-06
-5.293023985e-06
-0.0003414293388
5.767461055e-06
0.0003407560479
-0.0003412286763
0.0003415350248
-4.323001831e-06
4.882442517e-06
-4.576093966e-06
5.126121468e-06
4.273863056e-06
-0.0003411468038
0.0003334530167
-0.000334018232
6.985978737e-06
0.0003504760222
-4.770792647e-06
-0.0003499264031
4.229956409e-06
-4.911431498e-06
6.800302841e-06
-1.115103583e-05
-0.000359790068
-0.0003585159951
5.783483037e-06
0.0003454325722
-7.241677151e-06
-0.0003459484581
0.0003468391317
-0.0003461330496
0.0003449807027
-5.337569678e-06
-5.49596431e-06
-6.453344107e-06
0.000343543967
0.0003441407287
0.000338619562
-4.73865118e-06
5.91257413e-06
-5.614432417e-06
6.135671496e-06
5.370551212e-06
0.0003411861877
-0.0003402433595
0.0003399994783
-0.0003395262317
-6.242568561e-06
-6.560787093e-06
-0.0003391085174
5.751139079e-06
0.0003400414881
-0.0003393310613
0.0003389438917
-4.950031843e-06
5.592852527e-06
-5.980022082e-06
5.13008905e-06
6.139677614e-06
-0.0003391628038
0.0003373054914
-4.339201517e-06
4.580915436e-06
-4.646915135e-06
4.72075944e-06
4.808594804e-06
0.000338591147
-0.0003377560507
0.0003379177304
-0.0003382287597
-5.046942737e-06
-5.681614175e-06
-0.000333867053
5.920630159e-06
0.0003344239495
-0.0003347290165
0.0003348166596
-4.424755903e-06
5.044228892e-06
-4.956585762e-06
5.195811271e-06
4.806423945e-06
-0.0003358072543
-4.985018648e-06
-0.0003449788485
0.0003446316787
-0.0003443625937
0.0003375081743
-7.421045014e-06
6.678503027e-06
-1.353292243e-05
7.664432073e-06
-8.772396934e-06
-0.0003460639942
0.0003122489985
-4.575106899e-06
-0.0003167002598
1.410282237e-05
-1.839827639e-06
-8.736947107e-07
0.0003512541766
-3.446864754e-07
-0.0003457775198
0.0003430639975
-0.000342852563
0.0004684763115
6.340334694e-06
2.544811231e-06
2.895297165e-05
0.0003734174943
-1.475716459e-05
-0.0005465828409
0.0003744581514
-0.0003613598973
0.0001079307144
0.0002780112749
-2.983386455e-05
4.293211863e-05
-1.935352399e-05
-9.016323113e-05
0.00020545641
0.00031098666
0
0
0
0
0
0
4.838749024e-05
5.718081762e-05
6.256615328e-05
-6.203841549e-05
-0.0001630103829
0
0
0
0
0
0
0
0
8.083016744e-05
8.41564996e-05
7.786248102e-05
-7.569090242e-05
-0.0002074853274
-0.0001734205084
6.843962315e-05
0.0005639445024
0.0001214019547
-0.0003559569812
-0.0001704857703
0.000176730894
0.0008051396487
-0.000160821155
0.0007625092897
0.001623624222
-0.001346065018
0.0003169881987
-0.0003304595782
0.0003361663811
0.00189081221
-0.0003294318389
0.001853794775
0.002538156547
-0.002352035557
0.000280974704
-0.0002354438611
0.000233066811
0.002666660337
-0.0002365298932
0.002628632458
0.000681566025
-2.663691741e-07
1.815797616e-06
-1.818452185e-06
0.0006815686796
1.875645893e-06
0.0006783979758
0
0
0
0
0
0
0
0
6.962188182e-05
5.599173795e-05
5.359072703e-05
-6.224002274e-05
-0.0001646521998
-0.0002151811339
7.474598446e-05
0.0006005871145
0.0001170509858
-0.0003805657278
-0.0001792875161
0.0001708433255
0.0008554789219
-0.000184156509
0.000871058166
0.001715642047
-0.00142525254
0.0003084182045
-0.000335057277
0.000327940803
0.001993102084
-0.0003389054069
0.002002022153
0.002637260926
-0.002463509163
0.0002779694182
-0.0002295675241
0.0002327125729
0.002760667885
-0.0002273619816
0.002750707901
0
0
0
0
0
0
0
0
1.249661048e-05
3.568042382e-06
1.586775334e-05
-2.450677926e-05
-4.8019929e-05
-0.0001373593582
4.40103326e-05
0.000425700719
6.761435023e-05
-0.0002424885835
-0.0001277087171
0.0001092672755
0.0006492629072
-0.0001445578816
0.0007202888249
0.001461086582
-0.001178163608
0.0002367475048
-0.0002854388741
0.0002640841653
0.00174079321
-0.0003032406337
0.001837194435
0.002456857212
-0.002247540262
0.0002624342281
-0.0002384394124
0.0002357471263
0.002628649978
-0.000238192547
0.002695426956
0.002906691691
-0.002851725723
0.0001189985829
-7.04865725e-05
7.944362814e-05
0.002931418797
0.00291563683
0.002938772954
-0.002938523063
-1.730429974e-05
4.412965681e-05
-4.412965681e-05
0.002938772954
0.002915979952
1.874016142e-05
0
0
0
0
0