/*--------------------------------*- C++ -*----------------------------------*\
| =========                 |                                                 |
| \\      /  F ield         | OpenFOAM: The Open Source CFD Toolbox           |
|  \\    /   O peration     | Version:  v2012                                 |
|   \\  /    A nd           | Website:  www.openfoam.com                      |
|    \\/     M anipulation  |                                                 |
\*---------------------------------------------------------------------------*/
FoamFile
{
    version     2.0;
    format      ascii;
    class       volScalarField;
    location    "3";
    object      nut;
}
// * * * * * * * * * * * * * * * * * * * * * * * * * * * * * * * * * * * * * //

dimensions      [0 2 -1 0 0 0 0];


internalField   nonuniform List<scalar> 
3259
(
1.147643241
1.14731675
1.147551996
1.148854598
1.150793714
1.155631218
1.162822409
1.031674942
0.8004675146
0.6399965765
0.526854451
0.4293270252
1.147443114
1.147143969
1.147506277
1.149043973
1.151403742
1.156929283
1.164585485
1.078122569
0.8616259001
0.6914432328
0.5484143327
0.2809071901
1.147289094
1.147011956
1.147495638
1.149283609
1.151982795
1.158040041
1.165889882
1.167156704
0.9627413394
0.800354678
0.6504156261
0.08148860445
1.147247728
1.146993397
1.147581653
1.149588138
1.15258376
1.159061484
1.166939017
1.167663606
1.123788161
0.9934792616
0.8300810924
0.04640993635
1.147191945
1.146949142
1.147623263
1.149851326
1.153152605
1.159940326
1.16767525
1.167569029
1.147288794
1.073500552
0.7396370323
0.03233210578
1.147208865
1.146977417
1.147715366
1.150113876
1.153647078
1.160639525
1.168084469
1.166913168
1.142616569
1.048159289
0.5994057097
0.02935785163
1.147161262
1.146931701
1.147713796
1.150275871
1.154043105
1.161142707
1.168134481
1.165746875
1.137321565
1.018010175
0.4576912733
0.03202391911
1.147167698
1.146945406
1.147755994
1.150421881
1.154328855
1.161450767
1.16786729
1.164101729
1.1309335
0.9857278696
0.3797980077
0.03561651105
1.147079521
1.14686175
1.147692279
1.150459503
1.154511471
1.161578513
1.167320959
1.16204971
1.123374744
0.9465995099
0.3270446567
0.0401964662
1.147045875
1.146843841
1.14769285
1.150511425
1.154605513
1.161551035
1.16653733
1.159629154
1.114544896
0.8977477837
0.2882821106
0.04611543626
1.146899425
1.14671464
1.147586025
1.150472032
1.154634275
1.161395852
1.165550204
1.156848136
1.104023
0.843501365
0.2586032378
0.05359402635
1.146819496
1.146663975
1.147563574
1.150479336
1.154611989
1.161136357
1.164378526
1.15365908
1.090846752
0.7925474482
0.2351233071
0.06253734613
1.146614516
1.146489283
1.147423821
1.150395503
1.154551429
1.160786413
1.163023572
1.149949261
1.074121074
0.7476646901
0.2159620273
0.07250869846
1.146493977
1.146408611
1.147383141
1.150374468
1.15445195
1.16035073
1.161470962
1.145550341
1.054039038
0.7082149325
0.2001312545
0.08313457449
1.146240707
1.146193718
1.147212097
1.150248589
1.154317546
1.159828312
1.159698098
1.140276431
1.031750517
0.6732972234
0.1870205258
0.09405957471
1.146088384
1.146087206
1.147152573
1.150197649
1.154141897
1.159216029
1.157673163
1.133977274
1.008473716
0.642224723
0.1761254815
0.1048992856
1.145803908
1.145844112
1.146955903
1.150028724
1.153929418
1.158509986
1.155356646
1.126599503
0.9850641939
0.614405066
0.1670009015
0.1153084676
1.145623129
1.145712045
1.146873649
1.14994351
1.153673545
1.157705131
1.15270633
1.118184909
0.9619951017
0.5893569349
0.1593686146
0.125040274
1.145332174
1.145461342
1.14666632
1.149738449
1.153379779
1.156791933
1.149671396
1.108840904
0.9395143716
0.5667517006
0.152771308
0.1340009804
1.145112984
1.145292628
1.146547422
1.14960557
1.15303995
1.155761237
1.146171713
1.098695693
0.9177215525
0.5461637108
0.1467819645
0.142306037
1.144853864
1.145068797
1.146358962
1.149386663
1.152658149
1.154599216
1.142306201
1.087863478
0.8965868716
0.5271060298
0.1413242689
0.1501085269
1.144568001
1.14483532
1.146173194
1.149168327
1.152228117
1.15329957
1.137956298
1.076456286
0.8760384973
0.5092418227
0.1362259358
0.1575230308
1.144388288
1.144682613
1.146042419
1.148985856
1.151755038
1.151860012
1.133208944
1.064589805
0.8560635399
0.4924233944
0.1314814717
0.1646326314
1.144024714
1.144379495
1.145782859
1.148626305
1.151260518
1.150301981
1.128226914
1.052450153
0.8368757878
0.4767955859
0.1271466006
0.1714904536
0.4343528457
0.3293504585
0.5279095205
0.5143357633
0.5379640208
0.4002528841
0.503447804
0.3928260838
0.0289397569
0.04821161532
0.2660238587
0.04918465721
0.03070192408
0.004680117891
0.02861885372
0.3873327383
0.01799908086
0.01022901763
0.03035637706
0.01833594508
0.01166211763
0.0432369469
0.1895858952
0.1759123213
0.2085148869
0.1951278549
0.0436010783
0.06530753546
0.2273613228
0.2133986101
0.2320067599
0.06664559517
0.04718123062
0.04617494128
0.1705731881
0.1603262003
0.0227741685
0.01156589497
0.02463308374
0.01598337341
0.02888909022
0.01135917709
0.01498082897
0.01159780128
0.02892163864
0.01205977279
0.02084771135
0.6103912276
0.3716816815
0.3822380035
0.2482459771
0.008205323324
0.00532170502
0.031862958
0.09405460404
0.08860694986
0.01094481545
0.01614819157
0.04936477665
0.03750255921
0.004381182681
0.121695311
0.1029913051
0.08673398339
0.08230061932
0.02821674351
0.02262730734
0.01776499794
0.01125638668
0.0219124542
0.02925422904
0.00286025047
0.02986543295
0.01934926801
0.1027899275
0.09601483369
0.03551354017
0.04577372514
0.110323527
0.104652864
0.04870671783
0.04227247441
0.02713710911
0.07959559465
0.07101371257
0.01238317589
0.01193525351
0.01696778176
0.01154771527
0.01232105609
0.01966016705
0.02975221179
0.007907999606
0.01279485395
0.01132182237
0.01195150748
0.02016098548
0.1178908069
0.1121282595
0.0462646634
0.05681275393
0.1265243414
0.1198921128
0.01916424342
0.0194505609
0.0315255365
0.01795567797
0.03014039063
0.01873998782
0.01890431014
0.01834857683
0.1351422838
0.1287367027
0.06003966254
0.06966412552
0.1428564747
0.1370575009
0.03088040744
0.03094770809
0.04754322645
0.04584247397
0.03048555232
0.03044990953
0.0216341898
0.03414784751
0.03386199003
0.008402950519
0.01379134823
0.02181517521
0.01243805336
0.01180862703
0.01784718544
0.01809072889
0.02933880517
0.01143785532
0.008275830633
0.01134758479
0.01131323281
0.02740000587
0.01736056561
0.01793966731
0.01501839308
0.01945807486
0.01926879953
0.01516244654
0.03353336446
0.02003429477
0.02093636384
0.04049043933
0.02794435173
0.003032225396
0.02822735932
0.04321459493
0.04283365014
0.01772895096
0.01122960475
0.008245800091
0.003988217984
0.01216764216
0.01224124397
0.01851670025
0.01867232317
0.03006376793
0.01877033194
0.01883276241
0.01878828486
0.0190729701
0.01901241728
0.02888324351
0.0288393615
0.04388413923
0.01804152057
0.01905068153
0.01856479907
0.01862761244
0.04123471491
0.04062832211
0.02694695099
0.01248047253
0.01046887229
0.01052915011
0.00782087876
0.01081871466
0.01203889268
0.01754848039
0.01191075696
0.0121611319
0.01206990122
0.02946047341
0.01819849674
0.01840313603
0.01111430317
0.01149387827
0.011377876
0.0116852893
0.01179746706
0.008302541524
0.008280504658
0.01175916065
0.01145923172
0.01168540253
0.01474101736
0.01819709188
0.02746983381
1.020445994
0.8391434724
0.7890895375
0.665355757
0.6314684879
0.5509509305
1.05954673
0.8903231236
0.8502507111
0.8412403687
0.7112341127
0.6750893031
0.6722666202
0.5616808343
0.5523188373
0.5257829743
0.5004038106
0.5194655582
0.4136045376
0.249042962
0.2636023408
1.141441925
0.9774077398
0.9101961727
0.9305651522
0.8031807482
0.7310574281
0.7634363965
0.6506464461
0.5745956646
0.5584333434
0.5149103539
0.4973176722
0.2750155487
0.1306470651
0.149884892
1.167592306
1.119872073
1.00757187
1.074651961
0.9681697015
0.8371801788
0.9369052714
0.8551489241
0.6906159902
0.8387951963
0.223114485
0.3351500843
0.05162715437
1.167648687
1.155941172
1.157250043
1.14823456
1.104716277
1.021811841
1.078308228
0.897110535
0.938365677
0.7661483441
0.1345320666
0.195970595
0.03531127102
1.167128744
1.153072328
1.155320817
1.143872001
1.089903753
1.101597305
1.055323025
0.8106430825
0.8792990521
0.6384944174
0.07540526731
0.1194820085
0.02925550143
1.166088739
1.149570926
1.152258451
1.138729696
1.071179384
1.085347444
1.025301018
0.6941679972
0.7827837478
0.4881845149
0.04696039891
0.06477353038
0.03118684959
1.164553205
1.145274386
1.148583135
1.132639504
1.051162172
1.066529508
0.9943516636
0.5933098542
0.6650104557
0.3960002292
0.04120429144
0.04420529443
0.03468313178
1.162598266
1.140152214
1.144069053
1.125376557
1.027181617
1.045556636
0.9572057401
0.5143312135
0.5715195079
0.3387243951
0.0404033776
0.0408030388
0.03893048744
1.160267245
1.134198689
1.138743462
1.11688546
0.9978434892
1.020453629
0.9108275535
0.4557793839
0.497988589
0.2969438794
0.04092147205
0.04045712282
0.04448208744
1.157578129
1.127279955
1.132568466
1.106856653
0.9606359009
0.989325638
0.8570250518
0.4108837646
0.4435258028
0.2653240701
0.04189112771
0.0411317732
0.05157153073
1.15449914
1.118993874
1.12535935
1.094451378
0.917483555
0.9501825558
0.8047250489
0.3750000046
0.4011736037
0.2405311824
0.04333131316
0.04219912788
0.06019267034
1.150933231
1.10865254
1.116629074
1.07864696
0.8741883521
0.9064762606
0.7583343581
0.3456782094
0.3671300997
0.2204145321
0.04538278334
0.04378665876
0.0699441831
1.146723614
1.095696062
1.105667718
1.0593184
0.833983927
0.8637871961
0.7176194564
0.3211861107
0.3391428384
0.2038122735
0.0481130101
0.04599234687
0.08043585955
1.141685896
1.080180957
1.092038379
1.037457299
0.7974168491
0.8245053434
0.6816415931
0.3005330376
0.3156873535
0.1900687156
0.0516048655
0.04892238909
0.09132349395
1.135652407
1.062718368
1.075966281
1.014331563
0.7642174242
0.7888107365
0.649664748
0.2830516294
0.2958825561
0.1786635179
0.05579436414
0.0525831249
0.102219144
1.128543101
1.044055683
1.058135759
0.9908980822
0.7340209713
0.7563975371
0.6210841878
0.2681517741
0.2791065993
0.1691276075
0.06077861152
0.05695359685
0.1127688349
1.12037942
1.024801779
1.039276308
0.9677144993
0.7064544186
0.7268915807
0.5953767211
0.2553210373
0.2647632301
0.1611267783
0.06658871929
0.06215395141
0.1226767356
1.11125566
1.005379922
1.019946653
0.9450702244
0.6812382292
0.6999360523
0.5721932214
0.2442759364
0.2524051669
0.1543660252
0.0730710569
0.06814274436
0.1318299071
1.101299283
0.9860470979
1.000530811
0.9231064104
0.6580604419
0.6752647898
0.5511482326
0.2344473886
0.2417207945
0.1481966465
0.08008192424
0.07475919851
0.1403022465
1.090628344
0.9668860453
0.9812383843
0.9018118277
0.6365000527
0.652531819
0.5317438839
0.2254721641
0.2321361902
0.1426132729
0.08751320362
0.08186466811
0.1482370425
1.079354316
0.9479180047
0.9621219738
0.8811213204
0.6162018603
0.6313170162
0.513588539
0.2171378899
0.2233587624
0.137382205
0.09525598063
0.08935031413
0.1557809425
1.06758817
0.9291938109
0.9432110134
0.8609820003
0.5969468419
0.6113082522
0.4964437113
0.2092838293
0.2151991119
0.1324907321
0.1031782103
0.09708432384
0.1630457373
1.055417582
0.9107437254
0.9245771406
0.8413473414
0.5785924153
0.5923689973
0.4801747304
0.2018880422
0.2075606022
0.1279546654
0.1111669287
0.1049070276
0.1701412383
1.042118157
0.8914394513
0.906465052
0.8210171427
0.5600496898
0.5746673873
0.4638533917
0.194586478
0.2005017904
0.1235804204
0.1196474097
0.11266687
0.1775997489
0.2686776285
0.2834548971
0.449696951
0.1562121563
0.1719245377
0.3378211852
0.03833448377
0.5159609252
0.5435981385
0.5285327005
0.5410280702
0.5335142438
0.515553152
0.490348512
0.505549025
0.5290440435
0.4476374672
0.4854716258
0.4716304446
0.5112963512
0.4908710948
0.4645754511
0.2294693929
0.2436853511
0.4084627408
0.029162098
0.04622799328
0.04540078829
0.06995151758
0.0686315922
0.04746007023
0.009682848259
0.009046052389
0.2293265407
0.01782998515
0.01989611084
0.04322333742
0.05218393837
0.05075548582
0.0733261481
0.07141368318
0.144593983
0.07082304572
0.4544473385
0.2883429996
0.00336753955
0.02582325724
0.01409773862
0.04453144191
0.0440693588
0.02853659436
0.3718749545
0.2093895528
0.2233027147
0.01416524393
0.013522002
0.005660645967
0.0606037188
0.05878068956
0.04140380448
0.1859821278
0.1358841678
0.1386705159
0.1149344435
0.125406708
0.1799623404
0.2042141182
0.1523233517
0.1561900996
0.1441605575
0.1475966633
0.1991316357
0.044613234
0.0631041396
0.06175678891
0.0871579372
0.08551953476
0.06422501091
0.2227201264
0.1695642739
0.1738221337
0.1607186841
0.1650104184
0.2179499123
0.2413288178
0.186218753
0.178018033
0.1821213383
0.2366476238
0.06754081159
0.09024799271
0.08878322493
0.1679173893
0.1057887541
0.112145104
0.09329548739
0.1026107634
0.1600643901
0.02474037035
0.01709439763
0.01762516932
0.01292024862
0.01316942629
0.01699318184
0.01404389433
0.01209927218
0.01263679857
0.01291300937
0.01642822244
0.5700193653
0.5384385533
0.5796811866
0.3505525995
0.4859580959
0.5123161844
0.4668335252
0.4807043347
0.3608393767
0.1174556077
0.1438715435
0.2631840259
0.00796115638
0.0335595515
0.02694480753
0.09557917711
0.1093988261
0.006622067702
0.05020072874
0.04784134791
0.03003223826
0.09216222326
0.0689873416
0.07121195046
0.06574099965
0.06701477526
0.09016942145
0.01226218354
0.03497543571
0.02499476738
0.03613337955
0.03030249699
0.01577308257
0.0314949017
0.03165672349
0.04996366601
0.009733332935
0.006862172813
0.002864104179
0.1145299062
0.05952633936
0.0660922248
0.05079066463
0.05709566844
0.1082055489
0.08540736609
0.06336306671
0.06426280707
0.06109483257
0.06189049275
0.08340762809
0.02756453815
0.01849408267
0.01323476697
0.01430176958
0.01243145184
0.01137953511
0.01778383136
0.005851691336
0.007708858606
0.1006090312
0.07880667348
0.08069676196
0.07396360744
0.07642771403
0.09849781109
0.03982861134
0.05652545013
0.05358197386
0.06531650743
0.06408981451
0.04502630626
0.1083551513
0.08553660931
0.0871337717
0.08238081327
0.08400649618
0.1065928502
0.04824612964
0.0311963629
0.03127203553
0.07868395128
0.05802805884
0.05898097738
0.04990216555
0.05121728289
0.07083512808
0.01247546282
0.01236883227
0.01201843358
0.01808244088
0.01378888117
0.01446126557
0.01156743985
0.01188470214
0.01341487497
0.1158960152
0.09185402921
0.09356509361
0.08866510727
0.09027465098
0.1140583064
0.04691218994
0.06753125353
0.06634099385
0.07854083725
0.075732178
0.0532965472
0.1242147365
0.09970335656
0.1021519018
0.09537924468
0.09741737981
0.1220105965
0.133027495
0.1089409817
0.1109272366
0.1045485702
0.1068541576
0.1309964251
0.06228207553
0.0835473047
0.08118408085
0.09327877353
0.09181192274
0.06871643079
0.1409388132
0.1168150834
0.1188645914
0.1128716071
0.1148182468
0.1390879053
0.01525780105
0.01597565388
0.02282138866
0.01242194405
0.01293648859
0.01261803308
0.01385706493
0.0132770026
0.01267213344
0.01386513763
0.03054610954
0.01505795649
0.02142616233
0.01385221022
0.01471045534
0.02884840587
0.002086231785
0.006627886388
0.006363202786
0.0088462979
0.007201107686
0.003871727039
0.0111861143
0.008404611287
0.009449293857
0.01016499658
0.00912628854
0.01128797768
1.150653089
1.152518181
1.155086526
1.158313189
1.162171774
1.08961901
1.151149317
1.153358698
1.152811762
1.156352972
1.160032138
1.159216103
1.16383691
1.131887658
1.115408578
1.037712289
0.9745651026
0.9638206174
0.8127439518
0.7672694117
0.7553060082
0.6493245156
0.6155848331
0.6078035379
0.4239864621
0.3705981215
0.3758658598
1.151704369
1.154208287
1.153775308
1.157495072
1.161392548
1.160721919
1.165260143
1.167601855
1.162687777
1.089559498
1.030684762
1.017232966
0.8772386539
0.8319485753
0.8158827921
0.7074819336
0.6688846701
0.6530564091
1.152302047
1.155053485
1.154623772
1.158569001
1.162618805
1.162029752
1.166452524
1.168397561
1.167824625
1.167334884
1.144912739
1.110196814
0.9956455692
0.9529370954
0.9188146198
0.8407367691
0.8056121925
0.7634217196
0.7001153083
0.6751134357
0.6163913853
0.06687024936
0.01437327011
0.01371967329
1.152893294
1.155841926
1.155445529
1.159525253
1.163634934
1.163157402
1.167328259
1.168756328
1.168531031
1.167697448
1.165566708
1.165624777
1.149744855
1.140054119
1.085035198
1.060211364
1.042764317
0.9672460661
0.8112096444
0.640216797
0.6681042471
0.04231900236
0.01735934942
0.01643320692
1.153427145
1.15652796
1.156187432
1.16031719
1.16440713
1.164051249
1.167931641
1.168613939
1.168770739
1.167459028
1.164842722
1.165088934
1.146232607
1.134822045
1.136392053
1.068063382
1.02426369
1.03275945
0.7083333474
0.4985081017
0.5405380184
0.03050956781
0.02363017824
0.02151323175
1.153872545
1.157082473
1.156811029
1.160918864
1.164921164
1.164696502
1.168151148
1.168043084
1.168528038
1.16667384
1.163500353
1.163896067
1.141375462
1.127443286
1.129372146
1.040667992
0.9809391908
0.9928997757
0.5604864759
0.3420274683
0.3776296173
0.02982786423
0.03709216755
0.03281023124
1.154209952
1.157492348
1.157295081
1.161323105
1.165178058
1.165080473
1.168038409
1.166999802
1.167811295
1.165376876
1.161591292
1.162123485
1.135835977
1.119377169
1.121527736
1.010473895
0.932782801
0.9444380685
0.4337953539
0.2479845076
0.2641814138
0.03297439637
0.05684386447
0.05178557014
1.154439306
1.157758511
1.157633194
1.16153795
1.165196305
1.16521519
1.167626373
1.16559348
1.166681763
1.163624812
1.159146832
1.159803506
1.129154234
1.109680523
1.112265577
0.9767013734
0.8802615653
0.8944300803
0.3649312328
0.2056797992
0.2149264573
0.03666178934
0.07357042604
0.06930578927
1.154570838
1.157895843
1.157833301
1.161584259
1.165002544
1.165123866
1.16695637
1.163861833
1.165190564
1.161477579
1.156232398
1.15700368
1.121293862
1.09821184
1.101255965
0.9353281674
0.8166965208
0.833345222
0.3162867135
0.1757289262
0.1822379525
0.04153457359
0.09101460756
0.08663286954
1.154626727
1.157927196
1.157915319
1.161489337
1.164626539
1.164835391
1.166067615
1.161838121
1.163384608
1.158967798
1.1528638
1.153749601
1.112100952
1.084592912
1.088248719
0.884302576
0.751311922
0.7670851526
0.280132545
0.1542460481
0.159022834
0.0478271185
0.1081571616
0.103963392
1.154624881
1.157876024
1.157903422
1.161279398
1.164095229
1.164378678
1.164987192
1.159520018
1.161289847
1.156091656
1.148999164
1.150017661
1.101022737
1.067612088
1.072266935
0.8302315487
0.6942945709
0.7076191888
0.2522532304
0.1382490721
0.1419690186
0.05571229481
0.1238774758
0.1201080369
1.154580866
1.157758635
1.157818496
1.160973355
1.163427687
1.163777473
1.163724411
1.156861066
1.158892996
1.152785368
1.144499519
1.145695893
1.087012673
1.045871965
1.051768849
0.7807592276
0.6465351373
0.6577128106
0.2299696138
0.1246903571
0.1278403501
0.0649505433
0.1377750018
0.134458723
1.154498273
1.157583108
1.157672377
1.160580076
1.162632414
1.163045957
1.162272609
1.153775153
1.156138061
1.148921462
1.139121137
1.140564444
1.069379105
1.019842484
1.026647551
0.7373286491
0.6060022341
0.6155660456
0.2117151119
0.1136956478
0.116219187
0.07511533287
0.1500015751
0.1470883309
1.154380416
1.157350674
1.157469507
1.160101165
1.161708449
1.16218712
1.160613397
1.150163242
1.152933497
1.144320223
1.132567519
1.134330886
1.04862047
0.9915842791
0.9987400407
0.6990883838
0.5709782717
0.5792833331
0.1966256521
0.1049334923
0.1069248864
0.08585983611
0.1606210182
0.1581095268
1.154223945
1.157060478
1.157209146
1.159534376
1.160649446
1.16119642
1.158721177
1.145892142
1.149165355
1.13880046
1.124616159
1.126741036
1.025982807
0.9629642186
0.9700841756
0.6651893831
0.5404122454
0.5476765557
0.1841051156
0.09790471959
0.09952445657
0.09679481317
0.1698870572
0.1676811076
1.154029026
1.156709855
1.156889798
1.15887594
1.159443751
1.160064999
1.156555655
1.14086001
1.144710206
1.132232419
1.115224856
1.117702698
1.002608861
0.9349877601
0.9418898925
0.6349845601
0.5135985566
0.5199862723
0.1736939786
0.09232446284
0.09358901001
0.1075559856
0.1781218103
0.1761399891
1.153794709
1.156298096
1.156509063
1.158120609
1.15807421
1.158779932
1.154074723
1.135015307
1.139482579
1.124588059
1.104528009
1.107313176
0.9792507591
0.9081204169
0.9147202056
0.6078945016
0.4898904503
0.4955561931
0.1649616553
0.08819034781
0.08908647207
0.1178212363
0.1856421252
0.1838149922
1.153518309
1.155822459
1.156066406
1.157262399
1.156520277
1.157324951
1.151225358
1.128349969
1.133431538
1.115929056
1.092753064
1.095784543
0.956310984
0.8825595039
0.8888204879
0.5834866128
0.4688186081
0.4738566086
0.1576747566
0.08513772418
0.0857979676
0.1273541754
0.1926528512
0.1909349722
1.153205377
1.155281079
1.155557467
1.156291629
1.154762824
1.155672679
1.147984745
1.120903635
1.12656647
1.106373049
1.080144262
1.083362899
0.9340003644
0.8583472185
0.8642803487
0.5614326462
0.4500304433
0.4545410375
0.1512027388
0.08299771413
0.08342934018
0.1361479718
0.1993287832
0.1976759366
1.15284084
1.154666754
1.154980927
1.15519221
1.152755817
1.153797156
1.144278955
1.112728816
1.118933329
1.096045701
1.066898765
1.070261602
0.9123762242
0.8353341501
0.8409866437
0.541267923
0.4330012689
0.4371257603
0.1453621211
0.08152507215
0.08180604209
0.1443264074
0.2058286365
0.2042002855
1.152446803
1.153975311
1.15432759
1.153949852
1.150490893
1.151683938
1.140139866
1.103902945
1.110588464
1.085059017
1.053157206
1.05663247
0.8913950416
0.8133151793
0.8187365223
0.5225259433
0.4172542445
0.4210999413
0.1399541341
0.08064747085
0.08076333327
0.1520515499
0.2122537624
0.2106233594
1.15197844
1.153192093
1.15359996
1.152542415
1.147919377
1.149319034
1.135482165
1.094503653
1.101611953
1.073525082
1.039041692
1.042599884
0.8709820799
0.7921458941
0.7973687134
0.5048981185
0.4024960189
0.4061462681
0.1348924336
0.08027921742
0.08027576265
0.1594419951
0.218633691
0.2169764964
1.151477504
1.152294703
1.152792986
1.15093388
1.144985039
1.146709339
1.130261365
1.084602664
1.092086556
1.061552181
1.02466413
1.028288124
0.8511118361
0.7717467392
0.7768243274
0.4882064167
0.3885557763
0.3921226088
0.1301738174
0.08033496016
0.08022022603
0.1666082091
0.2249832757
0.2232459238
1.150830987
1.151187166
1.151936166
1.148932785
1.141387695
1.143910718
1.123964739
1.073600674
1.082156156
1.049101819
1.009953215
1.013910902
0.8315381746
0.7518390898
0.7573043346
0.4722830452
0.3753458295
0.3791450868
0.1258283077
0.08080382203
0.08057915057
0.1736631457
0.2313427857
0.2293966785
0.3811716231
0.3865055359
0.4396340796
0.2577506939
0.2703022987
0.3240061202
0.5240741888
0.5266705002
0.5182031013
0.4159323529
0.4377522426
0.4254879737
0.5090846599
0.4992250808
0.491380835
0.3393613889
0.3442146534
0.3979687298
0.4634465879
0.4145726407
0.3823223114
0.3294437309
0.3335132158
0.01920750375
0.4131273015
0.4091791284
0.3775586814
0.01127761858
0.0102885363
0.005626731483
0.0111841388
0.01561303148
0.01473617121
0.02433171473
0.01890701422
0.0152068281
0.02331330336
0.9536732999
0.9438942741
1.012626855
0.8282722826
0.882647465
0.8932009568
0.7441242873
0.7335928979
0.7785783964
0.6561702429
0.6928640754
0.7028930802
0.60102625
0.5944862974
0.6233734004
0.549004534
0.5697533738
0.5744444576
0.9996196264
0.9859148755
1.05056
0.8750578491
0.9286253163
0.9433194826
0.9044394883
0.9163599521
0.8621459953
0.7953338122
0.780074377
0.8257872391
0.6972628877
0.7372414602
0.7520548206
0.7134983968
0.7249096427
0.6857555779
0.6354615441
0.6241648196
0.6594083882
0.5558867357
0.5919386795
0.6007015076
0.5793449466
0.5854310898
0.5538633447
0.3600890466
0.3653131722
0.4189386766
0.2536749472
0.30964702
0.3046190696
0.3199946513
0.3149025341
0.2588414424
1.081412255
1.053738974
1.114953302
0.9494271085
0.9994608136
1.026616474
0.9622316753
0.9762596509
0.9251953458
0.8869794031
0.8564023971
0.9018248246
0.7725105243
0.8136298106
0.8439949909
0.7724814906
0.7889165373
0.7468171787
0.7263123413
0.6939422247
0.7322716792
0.6168156789
0.656791177
0.6899408505
0.6165226242
0.6317100965
0.5909712815
0.2035634755
0.1989783646
0.1447535928
1.165630606
1.165582914
1.167480135
1.076465971
1.12708344
1.162345771
1.054568359
1.088136874
1.040358256
1.036066288
0.9931682133
1.032804013
0.9198778377
0.9556553747
1.001199801
0.8760036566
0.9137799125
0.8763458525
0.9067215318
0.8537235996
0.8862090975
0.7889414172
0.8223177486
0.8781664913
0.7284084806
0.7726254379
0.7363767156
0.6906601563
0.7113899354
0.7620636458
0.2532053747
0.5092569964
0.4792024888
0.5496980724
0.5371715421
0.2908687642
0.01567917141
0.01500190184
0.05787029872
0.04044180782
0.04379869474
0.03433472707
0.03737875133
1.165295851
1.165456033
1.167691027
1.156473812
1.161809206
1.161490245
1.162238559
1.162059618
1.156911685
1.137795979
1.139018467
1.149056053
1.107413159
1.12555597
1.123752883
1.05201833
1.111128417
1.083068626
1.040320214
1.0468773
1.082458711
0.9133761818
0.9939718184
0.9835621063
0.948241393
1.002904072
0.9269921319
0.5764382057
0.6119529134
0.7910652953
0.1528908769
0.3747832556
0.3368137128
0.4461654265
0.4091233273
0.1729916587
0.01986230064
0.01843837996
0.03844165544
0.05719296584
0.06319448476
0.04763914481
0.0520504621
1.164254064
1.164564825
1.167316924
1.153869849
1.160196526
1.159691503
1.161109059
1.160673678
1.154625654
1.131278121
1.133106047
1.145084574
1.094154772
1.116772079
1.114004092
1.121677126
1.119344401
1.09807609
1.004260196
1.014663794
1.061967813
0.8358169314
0.9434888886
0.9272771375
0.9717443859
0.9585452563
0.8588449028
0.4165186632
0.458304904
0.6751035063
0.0882220305
0.2388429518
0.2098293999
0.3032748757
0.2689774925
0.1035426404
0.02925064773
0.02610534736
0.02963691041
0.08691032107
0.09610599413
0.07013426626
0.07822179649
1.162622166
1.163083089
1.166397243
1.150513441
1.157942802
1.157287272
1.159159052
1.158570196
1.151424827
1.123571498
1.125545219
1.140090606
1.075796786
1.105074311
1.102141991
1.111082004
1.108091331
1.080662747
0.9562232073
0.9686689956
1.032959985
0.7237018572
0.8710801715
0.8513127739
0.9095377846
0.8908144337
0.7540193335
0.2851154609
0.3106371331
0.5223261902
0.05124464606
0.1465681976
0.1333543933
0.1856044817
0.1642742093
0.05687766307
0.04683404419
0.04169660448
0.03038911574
0.1236722837
0.1320688842
0.1054360255
0.1148049334
1.160430356
1.161026483
1.164978456
1.146428294
1.155040812
1.154212844
1.156579128
1.155829989
1.147531671
1.114742326
1.117112229
1.134273729
1.056520617
1.092527364
1.089000259
1.099107389
1.095896192
1.061642351
0.9078518317
0.9206159885
1.002594829
0.6162180245
0.7950681125
0.775654689
0.8318685233
0.813793327
0.6399835055
0.2248887378
0.2358360507
0.4139000347
0.04180266917
0.105611849
0.09988467876
0.1216482719
0.1120496483
0.04268546206
0.06510660039
0.06099539018
0.0338050189
0.1502102241
0.1542918486
0.1392721074
0.1456916524
1.157746572
1.158461027
1.163123691
1.141508555
1.15150353
1.150526212
1.153346943
1.152443925
1.142814402
1.104178743
1.106985588
1.127302746
1.033586262
1.077441547
1.073247487
1.085312353
1.081461406
1.039704359
0.8496326101
0.8653141511
0.9672194559
0.5319838173
0.7152755574
0.6954242071
0.7557085882
0.7354775381
0.551037456
0.1894548497
0.1972392428
0.3513189672
0.04038974923
0.0858983757
0.0821186564
0.09477101622
0.09009212701
0.04053475739
0.08225179487
0.07789502934
0.03773893706
0.165522937
0.1689888421
0.1581918462
0.1619280203
1.15460576
1.155433224
1.160883877
1.135768846
1.147372044
1.14624443
1.1495121
1.148461033
1.137283384
1.091723404
1.095038503
1.119133004
1.005840812
1.059489853
1.054429714
1.068869705
1.064292786
1.013361879
0.7833489789
0.799952694
0.9233898974
0.4688685617
0.6405546342
0.6242097482
0.676224078
0.657901726
0.4828975303
0.1640816956
0.169687484
0.3062832898
0.04073536934
0.07304159861
0.07061331652
0.07870123891
0.075732349
0.04056425092
0.09970515745
0.09536819578
0.04295588202
0.1787342244
0.1818031296
0.1723381593
0.1755857979
1.150999602
1.151947719
1.158285092
1.1291157
1.142615382
1.141314902
1.145077102
1.143868481
1.130876658
1.076631045
1.080729826
1.109543717
0.9706914148
1.037314517
1.030837025
1.049074723
1.043384103
0.980273418
0.7215554125
0.7361208615
0.8706747281
0.4211443673
0.5806801218
0.5677422313
0.608833341
0.594353312
0.432011581
0.1457984201
0.1497972836
0.2724829243
0.04160823792
0.06493847834
0.06348603158
0.06855097987
0.06665143428
0.04135814813
0.1162623989
0.1122995824
0.04964326069
0.1905511875
0.1933292764
0.1847868848
0.1877005183
1.146841816
1.147941663
1.155310054
1.121228364
1.137085945
1.135547787
1.139963273
1.138555849
1.123346776
1.057365112
1.06264671
1.09783845
0.9284986467
1.00890753
1.000856211
1.02393746
1.016620521
0.9394341017
0.669374039
0.6815548178
0.8172930286
0.3832723805
0.5327542431
0.5222016104
0.5554777339
0.5438351029
0.3919916236
0.1311497169
0.1346216169
0.246237938
0.04292071341
0.05990368034
0.05905594841
0.06212828635
0.06090995274
0.04254449814
0.1310420051
0.1275228121
0.05791224328
0.2012814342
0.2037699923
0.1960668274
0.1987158499
1.141938615
1.143248819
1.151878817
1.111468928
1.130452008
1.128566784
1.133934499
1.132238785
1.114125208
1.033278106
1.03969788
1.082946454
0.8847854035
0.9752584601
0.96644962
0.9925223105
0.9839698034
0.8955618718
0.6254924353
0.6358049567
0.7693611385
0.3524979082
0.4933266284
0.4845100234
0.5121381678
0.5025274576
0.3596445206
0.1189002319
0.1217084212
0.225075733
0.04480452029
0.05721723463
0.0567967012
0.05833898105
0.05772946085
0.04427272683
0.1440800574
0.1409801786
0.06741916588
0.2108489551
0.2130946573
0.2061927353
0.2085500517
1.136008352
1.137604009
1.147847227
1.09918948
1.122254517
1.119912541
1.126576365
1.124474457
1.102514513
1.005853348
1.012897905
1.064439149
0.8436873697
0.9399124404
0.9311421197
0.9575982822
0.9487400964
0.853622328
0.5878783774
0.5967788383
0.7273205706
0.3269165062
0.4601177865
0.4526056521
0.4760494473
0.4679280033
0.3329006741
0.1090608803
0.1113217923
0.2076776095
0.04736443686
0.05594363226
0.05578152628
0.05643671802
0.05616179814
0.04665954669
0.1555067187
0.1528081589
0.07775547965
0.2195541104
0.2216224816
0.2152922586
0.2174444488
1.128774105
1.130715969
1.143034056
1.084271393
1.112142571
1.109305532
1.117447153
1.114857344
1.088227993
0.9772372691
0.9844094547
1.043087
0.8062291646
0.9054040947
0.8970567627
0.9224569672
0.9138746175
0.8152583629
0.5551855202
0.5629484597
0.6902359853
0.3053746734
0.4317225345
0.4252666974
0.4453785728
0.4384255936
0.3104305776
0.1012138657
0.1030170893
0.1932707045