/*--------------------------------*- C++ -*----------------------------------*\
| =========                 |                                                 |
| \\      /  F ield         | OpenFOAM: The Open Source CFD Toolbox           |
|  \\    /   O peration     | Version:  v2012                                 |
|   \\  /    A nd           | Website:  www.openfoam.com                      |
|    \\/     M anipulation  |                                                 |
\*---------------------------------------------------------------------------*/
FoamFile
{
    version     2.0;
    format      ascii;
    class       volScalarField;
    location    "3";
    object      omega;
}
// * * * * * * * * * * * * * * * * * * * * * * * * * * * * * * * * * * * * * //

dimensions      [0 0 -1 0 0 0 0];


internalField   nonuniform List<scalar> 
3259
(
30.44542811
30.46834761
30.50011691
30.54999
30.63598575
30.7813385
31.06339487
31.55188836
32.73944143
35.3981603
43.39445741
103.1118848
30.34599424
30.37120946
30.40752829
30.46482181
30.56316806
30.73622913
31.0586443
31.6149292
32.94582465
35.92859003
45.73791341
152.4327472
30.2518086
30.27940041
30.3200124
30.38386716
30.49018987
30.68380646
31.04044012
31.65749105
33.09813699
36.33986116
48.21012785
476.6720096
30.15843267
30.18828537
30.23304028
30.30389137
30.41912703
30.63080281
31.02091384
31.70232046
33.26549901
36.83521227
51.66602712
729.5854177
30.06852025
30.10071225
30.14916532
30.22568733
30.34827531
30.57572385
30.99728904
31.74242031
33.46825951
37.57714353
57.62158689
850.4719108
29.97658946
30.01090323
30.06293064
30.14561663
30.27642967
30.51751309
30.96827355
31.76816186
33.67195972
38.60359523
70.06649515
817.2415209
29.88688021
29.92326602
29.97846441
30.06584579
30.20267473
30.45575564
30.93374123
31.7851937
33.83401946
39.72364077
89.55096639
709.7030475
29.79291985
29.83100243
29.88933273
29.98232228
30.12661171
30.39055809
30.89438881
31.79586645
33.99765656
40.8772461
104.9596375
620.0702564
29.70124541
29.74080768
29.80176572
29.898718
30.04789312
30.32218775
30.85112161
31.80244055
34.17280415
42.33858824
118.2075045
545.8114116
29.60375373
29.64435193
29.70792127
29.81010799
29.96654182
30.25101393
30.80493872
31.80718926
34.36778762
44.32626282
129.7470119
482.5280789
29.51000498
29.55137548
29.61689762
29.72221085
29.88253994
30.17749328
30.75689747
31.81260932
34.59976419
46.76911294
139.7229762
427.2279288
29.40895987
29.45076516
29.51839494
29.62864941
29.79637374
30.10220568
30.70825444
31.82212319
34.90303902
49.29596455
148.2994733
379.2727622
29.31429866
29.3563393
29.42535351
29.53791839
29.70835354
30.02584808
30.66045489
31.84040339
35.31179664
51.70904809
155.6184624
338.0693754
29.21012811
29.2522483
29.32311042
29.44071626
29.6192959
29.94916796
30.61500008
31.87298503
35.82848097
53.98033034
161.6880733
302.9517398
29.11624568
29.15831845
29.23024378
29.34955195
29.5294826
29.87290538
30.5732652
31.9254
36.42516904
56.11438044
166.490461
273.2911616
29.00913885
29.05117013
29.12493291
29.24984361
29.43981077
29.79770595
30.53655337
32.00207142
37.06838108
58.11236193
170.0760834
248.5482959
28.91796095
28.95986003
29.03457179
29.16074032
29.3502337
29.72411593
30.50615466
32.10495052
37.73337943
59.97929705
172.6005711
228.0470461
28.80748309
28.84936933
28.92605058
29.05868967
29.26172287
29.65262545
30.4832844
32.23362286
38.40502702
61.72080647
174.1603302
211.0951886
28.72125291
28.76304412
28.84071322
28.97434092
29.17380837
29.58374569
30.46934377
32.38603268
39.07398729
63.33543293
175.0923143
196.9541157
28.6061118
28.64799758
28.72782296
28.86881938
29.08779442
29.51794301
30.4665335
32.55963659
39.73691724
64.84049987
175.7643377
184.9427892
28.52766575
28.56956438
28.65054488
28.79275248
29.0026984
29.45575858
30.47231128
32.75228892
40.39566952
66.27030054
176.0791919
174.5412149
28.405444
28.44757997
28.5309417
28.680797
28.92064354
29.39773299
30.49008732
32.96184923
41.05263252
67.64990327
176.1169426
165.4278393
28.33831572
28.38063862
28.46539332
28.61820174
28.84019586
29.34463718
30.51847873
33.18592386
41.70725819
68.98545992
175.9407509
157.3715248
28.18309924
28.22600985
28.31429319
28.47711273
28.76564391
29.29779276
30.55624055
33.42026519
42.3499288
70.25003226
175.474934
150.2137573
102.0083074
131.5321065
43.08840597
86.0767924
45.32848305
107.6000041
87.67404631
111.8679543
1123.861407
732.9704153
156.9029539
721.6871647
1083.401014
8530.045974
1134.357173
113.3287153
1772.912088
7571.815762
1092.733297
1741.078146
4256.748565
794.2822129
221.0058934
235.2554175
204.0670335
215.6721773
790.9160033
571.4743881
189.7295278
200.1140932
186.5141476
562.3001562
754.7209858
768.1294356
241.4544813
253.8436998
1406.923211
2843.194466
1477.512604
2493.115142
1132.664534
6396.644732
2769.884441
5470.083214
1128.798899
3861.991364
1887.49532
47.52734417
116.6993902
110.7718022
170.3284674
4196.639866
7794.116526
1034.247668
407.823585
427.9383261
6397.010197
3217.219346
730.9415097
912.5056873
8784.623399
323.2910886
373.8676526
435.5335026
453.889802
1145.156312
1717.467956
1793.866969
8007.559007
1573.16229
1390.005657
16014.20763
1104.577481
1655.578981
379.1801076
400.868667
939.3822421
761.3421335
358.1949337
373.7421383
738.2648736
824.1732044
1188.89258
466.8331739
513.2835773
5919.528214
6723.778782
1874.351425
7305.908862
5244.042181
1975.54009
1106.504099
6362.414771
3625.6657
7076.358599
4080.328109
1595.247929
339.5619972
353.5654925
755.8678237
639.8247597
320.587714
334.9538001
1687.967973
1665.234186
1059.760564
1775.95737
1098.447713
1723.468714
1709.989356
1741.209126
303.8770213
316.0838847
611.1849736
543.9057143
290.6221767
300.4504831
1087.590845
1087.426006
751.3665218
770.7394218
1095.812701
1100.150779
1485.053757
970.2346063
957.2722687
12533.63367
2333.399473
1786.324451
4690.774153
3835.936529
1794.912154
1772.734394
1117.411112
6165.831265
6720.847439
6421.273264
5032.146672
1188.563752
1841.612238
1783.838538
2805.737532
1684.69131
1698.734541
2140.008753
1004.811536
1619.354451
1556.11839
853.2091464
1204.190011
12913.18717
1146.706068
788.2273272
791.8305303
1797.045524
7635.197343
7892.471244
9256.37158
5940.490117
5526.328959
1739.526942
1727.763677
1099.458111
1704.162378
1730.416867
1731.470513
1713.545162
1716.890452
1141.705926
1153.530088
800.0678455
1792.528391
1695.377591
1749.261614
1739.960546
820.1243334
825.6036588
1192.439417
5753.626315
8680.021818
9037.235825
8491.536308
8512.139769
6376.454051
1823.411867
6333.406759
4507.934561
4896.541541
1115.024068
1763.796853
1747.581344
6327.413615
6963.952878
6709.597326
5468.570301
5963.010997
7377.44622
7010.960263
4471.337335
6638.693332
5702.648552
2181.890389
1754.866133
1177.388143
31.54191292
32.32311677
32.70156587
34.4281192
35.30761096
39.97478388
31.60449514
32.48373212
32.35322615
32.90575
34.83277423
34.5004898
35.82345323
41.35518517
40.18879557
43.90734763
52.0432484
50.6007735
106.7088987
172.5475852
164.3479175
31.64678927
32.60334631
32.51501284
33.05982224
35.14805532
34.91395286
36.2343156
42.61647703
41.6645463
46.29514554
54.55239107
55.97722879
155.2906533
301.6376698
268.4966498
31.69134284
32.72689071
32.63316575
33.22138722
35.49343366
35.22826783
36.69532119
44.31831384
42.97378445
50.70651809
187.0097153
128.5425516
683.0117993
31.73377059
32.87102037
32.76093111
33.41565142
35.96577354
35.59534417
37.36573206
47.0624576
44.8945324
55.77079384
288.7368533
209.7113752
822.2573979
31.76274302
33.01378965
32.90843732
33.62440871
36.59524559
36.10934557
38.32359756
51.88178073
48.00382346
66.07373758
440.1905946
316.1243232
841.3084829
31.78168286
33.12298854
33.04325546
33.79405014
37.27208666
36.76981475
39.46310049
59.8850725
53.59985318
84.53225663
575.0919643
485.8160574
735.3941585
31.79371973
33.22655511
33.14901681
33.95595591
37.9171326
37.42492007
40.56690689
68.9570815
62.28007824
101.3942906
577.1302687
586.4893458
640.6323101
31.80108293
33.33205466
33.25257712
34.12754981
38.67726662
38.09466841
41.93210439
78.03562339
71.26299233
115.0382954
542.3319439
569.5476293
563.2541725
31.80606237
33.44474855
33.35936504
34.31652363
39.63440176
38.89281338
43.77466345
86.19504062
80.18068815
127.0291116
501.5886664
532.3982196
497.5344078
31.81103807
33.57200883
33.47483043
34.53669649
40.93544035
39.92301677
46.13681498
93.4368325
88.07946745
137.3812335
464.0989755
491.7651495
440.3434261
31.81913396
33.72847338
33.60762743
34.81832189
42.56599103
41.31935298
48.67164964
99.93063432
95.13009275
146.2783412
430.403887
455.3667867
390.5910895
31.83473389
33.9370823
33.77481765
35.19890486
44.31984587
43.00086531
51.11916482
105.7219447
101.4425618
153.9016697
399.6069534
422.4556429
347.7605721
31.86321831
34.21761557
34.00006521
35.69045584
46.05526372
44.75852003
53.42565961
110.877366
107.0719521
160.2897322
371.1537943
392.2939213
311.2028568
31.9101696
34.57266405
34.29977835
36.27043717
47.72558144
46.47990899
55.59367422
115.3943854
112.0688468
165.4102183
344.6909754
364.3648451
280.2152048
31.98048656
34.98856493
34.67172973
36.90476284
49.31768338
48.13146376
57.62557583
119.2560048
116.4234941
169.2897269
320.1488016
338.3921764
254.3066504
32.07678494
35.44663235
35.09990014
37.56604796
50.82863714
49.70322421
59.52441877
122.4927952
120.1212852
172.0636491
297.3500297
314.3287252
232.8055341
32.19915779
35.93108181
35.56586475
38.23710901
52.26078551
51.19431009
61.29740795
125.1740902
123.2150163
173.873619
276.0952313
291.903415
215.0318925
32.34587641
36.43035514
36.05494914
38.90732033
53.61288565
52.60665459
62.94330063
127.3082587
125.7586685
174.8596181
256.5509902
271.0799661
200.2497231
32.51440461
36.93755099
36.55664464
39.57171582
54.89029776
53.93893739
64.47272342
129.0951104
127.7865711
175.616162
238.7267671
251.9953098
187.7513582
32.70248978
37.45060207
37.06536563
40.23124333
56.11230719
55.20040473
65.91855781
130.6625737
129.5129488
176.0232255
222.5064782
234.6204373
176.9603435
32.90803503
37.96934875
37.57985832
40.88859459
57.29816795
56.41174776
67.31045535
132.0474698
131.0317737
176.1258552
207.8322551
218.8497344
167.5047473
33.1288159
38.49294957
38.09990943
41.54474638
58.45820185
57.58973949
68.66353428
133.2894979
132.376039
175.9918255
194.657278
204.6547629
159.1158097
33.36296595
39.02063508
38.62379255
42.19986176
59.59375443
58.73860431
69.97678838
134.3575452
133.566801
175.5821814
182.8944035
192.0049029
151.578117
33.62482836
39.58431183
39.14357973
42.89298307
60.7613288
59.83810151
71.30558154
135.211021
134.5459722
174.7088188
171.7781895
180.8404883
144.3200099
161.6625137
154.3606933
98.7909291
258.8853775
238.6663263
128.7411435
980.7587907
50.11730837
48.63674415
42.66873193
81.83436007
53.71458012
55.35193186
55.48388364
52.53856292
44.16021454
95.06139665
58.48742197
62.60040145
55.93897122
57.83937027
92.7281138
185.0450093
175.8193559
107.945752
1117.893205
747.0660365
757.4079321
533.1944495
541.2937299
741.8056148
3019.472806
3714.732672
183.2100553
2742.200359
2167.906643
919.8406656
829.6306242
703.4637191
513.3621341
524.5299798
287.8491269
536.9667172
97.83688053
152.0909931
12057.26421
1290.845595
2322.006082
769.6106802
774.8964848
1135.832435
117.6167154
200.1247533
189.4988321
5470.613591
5573.697894
9317.482523
596.0046271
611.2260498
825.0948746
224.4970434
296.8238655
291.8211876
341.3001108
317.2339323
230.8922421
207.6250531
270.2227809
264.8076312
282.6461371
277.3485077
212.098691
775.7167042
577.3517917
587.5468846
445.9503247
452.6565404
578.587437
193.0526306
247.5132086
242.5449759
258.6366027
253.1308694
196.6126299
180.3863771
229.2335418
237.8506036
233.4564878
183.4128131
556.9202449
433.9250751
439.4693539
244.4757198
365.5008296
348.4519
406.1355136
375.0608223
254.6686852
1559.432269
2189.634742
2111.312137
3523.541377
3223.384027
2330.926898
2995.19044
4251.630175
3837.420771
3448.083458
2523.614243
56.88109269
55.73199324
46.91343925
123.6397767
72.96489642
75.33758952
63.39554955
64.34036254
120.4253839
336.8547839
278.1597207
161.4441035
4575.892599
1060.713314
1315.524383
399.4378058
343.6763735
6540.495627
697.4776103
725.9865018
1089.754155
414.5901861
531.0034481
517.365642
552.1647074
543.9924054
422.1153457
4791.857289
1032.528348
1439.170625
1294.376548
1428.032352
3676.950868
1074.725799
1071.525927
724.7237377
3470.163854
4977.994598
13095.61849
340.7501257
606.8574373
552.4625266
696.9646118
628.5868907
358.2232545
440.6641712
568.4482625
562.7234498
584.8557642
580.0095976
449.4476516
1401.595996
1748.336448
3291.953857
2950.456483
3921.627661
4415.73724
1916.615722
15473.9567
13578.62307
385.7964736
475.8578321
466.886195
501.2183298
488.0207711
392.585253
850.4422037
631.0602607
659.796479
562.2438914
570.7671697
771.2907745
363.4251947
445.757097
439.2456035
459.2432327
452.1334768
368.2405357
742.9639404
1080.959472
1080.209491
470.8925337
608.7498708
603.76831
679.7801304
685.2224061
515.5352707
3819.988128
4055.941974
5682.423575
2092.921056
2977.080024
2746.618096
5203.077423
4673.132332
3337.844069
344.2758366
421.2832901
415.1003461
433.268496
427.1048519
348.7376433
747.9592912
548.020353
555.7290055
485.0656776
499.9060575
675.3523271
325.434905
394.2594391
386.505907
408.7508872
401.7964535
330.2322204
307.7823889
366.7978926
361.4939423
379.2605182
372.5769394
311.6417966
593.273916
461.2098435
472.1187525
422.8332646
428.0730552
549.4318931
293.7775185
346.6864585
341.8132862
356.461445
351.5769941
296.9100246
2550.097929
2362.380934
1644.761711
4439.134874
3318.437139
3446.533144
2935.290493
3036.326857
4153.10817
3113.617692
1111.904638
2222.8258
1571.335236
2378.405996
2263.862105
1171.452207
13332.34956
5107.736789
5274.288447
10084.05292
12245.96343
8334.611963
6565.365174
8928.119759
8463.889671
8493.589442
9710.88285
6567.563611
30.6774371
30.73578438
30.81779313
30.93093612
31.07996673
31.37044756
30.59942342
30.66810507
30.69377503
30.76311656
30.89314745
30.89998435
31.0674402
31.40781298
31.37480533
31.56275034
31.78724991
31.76997611
32.78414657
33.26667919
33.20949725
35.51389578
36.69880468
36.54906345
104.3047905
118.8585608
117.3544112
30.52530232
30.60369928
30.63330352
30.71032268
30.85549813
30.87433309
31.04950652
31.43117313
31.41288829
31.62563726
31.87745034
31.86138123
32.98391982
33.51802077
33.46976335
36.02969446
37.38616502
37.24995605
30.45368242
30.54070856
30.56976644
30.65781661
30.81698593
30.83649491
31.0311361
31.45627424
31.43691888
31.66881072
31.94171574
31.92522953
33.13764156
33.71402909
33.66336325
36.44985026
37.96382606
37.81148491
48.93851133
59.55844042
58.20888084
565.0956791
1950.489
2164.932296
30.38300855
30.47741454
30.50695977
30.60389445
30.77560652
30.79672951
31.00971727
31.47601682
31.46108169
31.71345554
32.01121448
31.99347069
33.31405654
33.94397172
33.8806081
36.99729225
38.76606148
38.5231817
52.83529956
67.43838367
64.81710041
762.9363009
1385.684945
1498.985146
30.31187896
30.41245566
30.44320431
30.54730597
30.73031496
30.75349244
30.98348456
31.48554215
31.47850537
31.75003854
32.07690635
32.06208769
33.52126685
34.22912605
34.1541955
37.80754152
40.01423645
39.65102547
59.99126974
84.97411117
78.85193664
858.0257484
1031.233675
1109.181669
30.23916439
30.34500054
30.37733905
30.48728884
30.68071808
30.70605026
30.95165958
31.48676172
31.48616934
31.77321942
32.12304069
32.11258153
33.71428464
34.52257404
34.45384898
38.8924218
41.8270278
41.32725674
74.54288138
119.4337076
109.3757069
789.507425
758.4061308
820.8644442
30.16436289
30.2747289
30.3087689
30.42374443
30.62708047
30.6543713
30.91461199
31.48161541
31.48592714
31.78843985
32.16013763
32.15147513
33.8742702
34.76766297
34.70555117
39.99163251
43.83484726
43.34976312
93.84503564
156.8162947
149.0266631
684.7022194
564.4316639
604.2249097
30.08698715
30.20159104
30.23733129
30.35688506
30.56997217
30.5989269
30.87318152
31.47109905
31.47912454
31.79785145
32.19192297
32.1843118
34.0401098
35.02986777
34.96191147
41.2059342
46.13149959
45.4903888
108.4291764
180.2240426
174.6304641
600.3282332
456.0147247
479.5826459
30.00703764
30.12564678
30.16301868
30.28703027
30.5099314
30.54028673
30.82833064
31.45742209
31.46771361
31.80374108
32.22134749
32.21405495
34.21929892
35.32250842
35.24576811
42.7799196
49.26356328
48.39991249
121.2456868
200.1722789
195.6317755
529.0348842
378.9826072
395.9423503
29.92431293
30.04707804
30.08595037
30.21459529
30.44750162
30.47897949
30.78107744
31.44250515
31.45358192
31.80839194
32.25139394
32.24364756
34.42129738
35.66466464
35.57248662
44.90847125
52.97469178
52.03272483
132.3881816
215.8799258
212.3124883
467.9953489
323.3024778
335.5976358
29.83928771
29.96620152
30.00635012
30.14008834
30.38332067
30.41558619
30.73255702
31.42867223
31.43871989
31.81446534
32.28581842
32.27652935
34.66731246
36.1039782
35.98135732
47.40545382
56.63379981
55.74248074
141.9853152
227.8230746
224.9527251
414.5692155
282.7050709
291.7352712
29.75205609
29.88351948
29.92464525
30.06415966
30.31822812
30.3508341
30.68415818
31.4189167
31.42561851
31.82569024
32.33044213
32.31791763
34.99458286
36.69892614
36.53414239
49.91258839
60.01990521
59.19972223
150.2498132
238.1300005
235.7966858
368.36504
252.3663975
259.1883744
29.66360595
29.79963579
29.84137965
29.98753711
30.25319647
30.28564158
30.63736088
31.41671794
31.4173974
31.84698463
32.39340524
32.37544464
35.43164927
37.45099113
37.25087587
52.29024911
63.14469631
62.38556027
157.2568019
245.5862385
243.9977221
328.7574692
229.201233
234.4553415
29.57395676
29.71520148
29.75722621
29.91097127
30.18920378
30.22100487
30.59359764
31.42536219
31.41753831
31.88404462
32.48378208
32.45817285
35.97158104
38.30466305
38.08518296
54.52677144
66.04351492
65.33908571
163.000429
250.1473912
249.2965094
295.0342276
211.245703
215.3346221
29.48440802
29.63082022
29.67279024
29.83514931
30.12711941
30.15787434
30.55415478
31.44868937
31.42962013
31.94220516
32.60850086
32.57388837
36.58282083
39.20286814
38.97646763
56.62685102
68.72675933
68.07640786
167.4985938
252.2737484
251.9271627
266.6657652
196.9219407
200.2356126
29.39445987
29.54702403
29.58870952
29.76067615
30.06774392
30.09707114
30.52044039
31.48958574
31.45716662
32.02535121
32.76976741
32.72609447
37.233365
40.10978232
39.88345513
58.59122356
71.19199331
70.59573861
170.7954606
252.2100698
252.3929196
243.0453758
185.0715242
187.8479429
29.30577848
29.4642403
29.5053817
29.6880718
30.01185965
30.03934927
30.49372533
31.54966917
31.50263349
32.13480491
32.96521932
32.91338998
37.90118318
41.00735155
40.78440548
60.42673856
73.45147188
72.9052514
173.074172
250.0692768
250.8391745
223.4972423
174.9749369
177.3637621
29.21700059
29.38282739
29.42332825
29.61779645
29.96020281
29.98540507
30.47547021
31.6295093
31.56765545
32.26965317
33.19001868
33.13136444
38.57284893
41.88635357
41.66870047
62.13651269
75.51086181
75.01529988
174.3890859
246.3549387
247.4674545
207.312259
166.1748957
168.2756266
29.13058709
29.30310825
29.34276789
29.55028728
29.91338081
29.93612613
30.466318
31.72852554
31.65236577
32.4275938
33.43876972
33.37459175
39.24034056
42.74172843
42.53010624
63.72097337
77.37262689
76.92383874
175.2835652
241.2296619
242.7285694
193.7550855
158.3459793
160.2319586
29.04385358
29.2253484
29.26426487
29.48605411
29.87257743
29.89230899
30.46822235
31.84588591
31.75603995
32.60615151
33.70727872
33.63846266
39.90195363
43.57567343
43.36883046
65.20410624
79.08331413
78.66647242
175.8598165
235.2603454
236.9471747
182.1694761
151.24882
152.9756507
28.96065176
29.14971078
29.1879432
29.42536111
29.8378697
29.85446414
30.48019465
31.98015774
31.87776656
32.80324343
33.99278963
33.91994261
40.56012913
44.39499651
44.1911565
66.62021025
80.69759186
80.30042984
176.1055153
228.9230767
230.7286865
172.0831414
144.7376432
146.3392184
28.87592165
29.07614848
29.11466383
29.3684013
29.81003361
29.82324812
30.50410969
32.12985414
32.01603868
33.01669653
34.29292421
34.21663744
41.21692151
45.20496806
45.00298007
67.99172761
82.24593966
81.86032002
176.0897459
222.4169747
224.3203657
163.1913183
138.7427192
140.2498642
28.79533386
29.00414497
29.04472803
29.31489718
29.78927127
29.79923376
30.53971196
32.29350114
32.16922578
33.24426274
34.60520546
34.52583788
41.87222105
46.007072
45.80520603
69.3259132
83.73704126
83.35423755
175.8285403
215.823299
217.845362
155.2521553
133.2069643
134.671229
28.70327335
28.92871781
28.98004116
29.26229673
29.77558261
29.78285241
30.59277428
32.48142454
32.33426973
33.48672488
34.93132885
34.84214074
42.532558
46.80881785
46.58589936
70.61912024
85.15262381
84.74608474
175.2515373
209.1230906
211.3166113
148.0690842
128.0615092
129.5882101
115.8767475
114.4269086
100.8794394
165.168534
158.1605471
133.6673611
84.59861658
71.40076819
72.46753978
105.6386508
85.06276929
86.82828318
73.5955481
74.72520692
89.27697636
128.6284967
127.0162126
110.5527552
96.08592277
107.3176621
114.6716636
132.0648693
130.6638643
2073.438335
88.51513095
90.2832186
113.8787489
2910.430086
3204.975173
7417.642455
5754.10835
4517.616864
5016.840097
1593.597152
1834.029957
2374.982202
1354.517871
31.75368853
31.73722882
31.53163523
32.2907473
31.9875419
32.01128891
33.16219208
33.10707354
32.65842961
34.3408911
33.65803317
33.72755048
36.43299403
36.29329736
35.19797115
39.7048957
37.7308891
37.91672952
31.84475095
31.80087993
31.57181315
32.41175051
32.07785766
32.13458958
32.0342033
32.05920337
32.38730877
33.41901984
33.30592287
32.8153285
34.6534249
33.90753544
34.04932457
33.786065
33.85840053
34.59173608
37.1085125
36.80163848
35.59247056
40.69998348
38.41416504
38.84447159
38.07004246
38.27300522
40.49096006
121.9761964
120.406616
105.4632817
169.8614895
140.9417203
142.9795306
136.9182057
138.8657186
166.9318719
31.9092765
31.89339415
31.63605185
32.57398807
32.20260882
32.22481887
32.15801824
32.18032834
32.54454661
33.6145582
33.5662461
33.02176937
35.06978316
34.23538253
34.29656482
34.11333603
34.17425719
34.99181428
37.66514225
37.52521217
36.13158572
42.28729846
39.44344537
39.64789345
39.04607583
39.24111864
41.96555782
204.3412896
208.3196274
276.5474012
31.97583544
31.95836654
31.67993213
32.69479537
32.29311034
32.31715702
32.24737986
32.26997808
32.66349894
33.82221249
33.7665327
33.17839888
35.39902307
34.49100001
34.56276043
34.35895091
34.42352438
35.31149841
38.31332107
38.1312222
36.56715808
43.79722662
40.35319648
40.63835592
39.86582283
40.09499192
43.36177887
62.85589256
61.13439827
49.77374643
166.7602219
85.55836104
90.50366695
78.14981804
81.43110413
146.7904698
1626.898827
1775.469738
632.821334
1062.093802
966.527914
1315.691383
1174.797099
32.0458811
32.02878382
31.7238289
32.83368707
32.3945917
32.42068241
32.34256337
32.36843977
32.79688281
34.08129485
34.0110958
33.36409751
35.83249888
34.81332737
34.90917139
34.63986807
34.72286612
35.70859516
39.32311841
39.02924509
37.17312804
46.22642626
41.78453835
42.26165764
40.98759655
41.36750917
45.52751462
74.3092553
70.30069022
54.1161958
259.2619065
113.2606747
124.8133069
96.61814125
104.6411522
233.9018345
1192.893673
1284.992536
799.5572394
734.6774462
668.9868663
881.6690504
805.3658606
32.10156924
32.08990024
31.75657508
32.98070681
32.49333954
32.51345533
32.44622999
32.47069959
32.94525354
34.38057768
34.3050803
33.57372402
36.42548265
35.22662719
35.33887323
35.01044736
35.11658652
36.26276336
40.85482605
40.41716896
38.057153
50.41126035
44.09967925
44.86347832
42.79923067
43.4073011
49.11771073
100.1205562
91.78274422
62.7370671
394.9110769
168.9814415
188.6517546
137.0432281
152.43223
352.6163769
885.6529166
957.5261269
853.0664275
500.0971189
456.3423037
607.7872287
550.3187085
32.14244187
32.13297902
31.77764284
33.09678365
32.56614255
32.58273416
32.53161608
32.54912065
33.07026445
34.64446895
34.58419326
33.75421764
37.11524918
35.66201717
35.75569196
35.45089834
35.5601221
36.94397893
42.86126181
42.34024579
39.18164454
57.63577335
47.62954292
48.64597126
45.71956468
46.63929239
55.48955672
139.835251
129.9483995
79.51595215
553.3398632
252.1538685
270.1163962
208.9316345
230.4758043
525.2529355
649.0169643
701.616219
762.5791504
360.2505757
337.8008777
418.935188
386.8961551
32.17650656
32.16846591
31.7911872
33.20069521
32.63051585
32.64600686
32.59895092
32.61484673
33.17486688
34.89567106
34.83098491
33.91486174
37.74673479
36.04835136
36.15174025
35.8506246
35.9480558
37.58278224
44.89894786
44.34934049
40.27224753
66.68021297
51.70703038
52.85535358
49.67271403
50.65080684
64.46575694
168.9340173
163.006927
97.69105158
583.4798026
315.50333
325.6532175
288.2329581
304.4531579
587.1514304
505.2432567
533.2050206
662.136812
294.1794236
284.6931598
319.8880911
304.9704335
32.20674646
32.19939152
31.79952759
33.30522808
32.69195769
32.70731777
32.66137022
32.6766563
33.27875058
35.17159517
35.09970814
34.08335417
38.47356622
36.48312581
36.60183767
36.25846368
36.36878874
38.27975641
47.58579578
46.82891572
41.55605399
75.82735343
56.79823737
58.22616045
54.09397492
55.41376756
73.56405183
190.686889
185.5580476
111.7786575
552.0663764
351.195502
357.9724177
334.8721211
343.5220573
561.1170549
414.349005
434.3310741
581.3738975
260.6107127
253.7388661
276.0041646
268.0079776
32.23609081
32.22868439
31.80490604
33.41558663
32.7543121
32.77052138
32.72278725
32.73841927
33.38715169
35.48526798
35.40217596
34.26711468
39.36844507
36.99068981
37.13480538
36.72543907
36.85468139
39.12219781
51.09266041
50.16543569
43.25837911
84.25267558
62.53914159
63.93238644
59.67336344
61.11612907
82.24933364
208.6254012
204.5050921
124.1829639
511.7547004
373.0847405
376.506506
364.0153505
368.8598037
522.2392317
348.9085865
363.3308404
513.0318954
235.7210197
230.4276142
247.3351926
241.3423303
32.26775451
32.25941289
31.80963652
33.53821388
32.82185263
32.84024876
32.78711664
32.80417838
33.50588915
35.8679761
35.76280081
34.47740582
40.57357521
37.6330234
37.82696488
37.28867322
37.45409612
40.23575126
54.83398794
53.91032871
45.51427709
91.69814262
67.90462334
69.16339594
65.29092247
66.61423684
89.91149569
222.1124546
219.2392671
134.9405241
473.0675404
381.3385143
381.3549229
378.6537409
380.3496817
482.2729466
301.4378594
311.9419528
453.9454113
216.2278734
211.9757851
225.4363243
220.7095536
32.30639081
32.29574088
31.81659508
33.68545438
32.90129506
32.92425671
32.85950214
32.87977307
33.64528663
36.38000702
36.23669907
34.73993525
42.13844842
38.50584448
38.76328904
38.03695837
38.26332564
41.72149358
58.36239891
57.50730457
48.04071587
98.37559842
72.76050031
73.90318237
70.3916318
71.58987548
96.77408382
233.3016487
230.6369862
144.1708408
438.5346804
378.5542744
376.3815082
381.0520025
380.2104231
446.8504244
266.4900435
274.3053927
402.3660221
200.4019483
196.9301768
207.9036986
204.0530895
32.35905941
32.34411142
31.82983729
33.87875219
33.0040196
33.0350656
32.94886979
32.97536285
33.82475559
37.05814618
36.87386003
35.09314534
43.87980568
39.60745557
39.90626036
39.03400515
39.3160202
43.43946126
61.61205812
60.82383172
50.52029872
104.3367647
77.17311154
78.214758
75.01864089
76.10783727
102.9094362
242.2012489
240.2705718
152.1151434
407.0703558
367.8590871
364.5407363
373.8313008
370.9626779
414.6791037
240.0486956
246.0015693
357.8686231
187.4158387
184.5018423
193.618082
190.4510141
32.43464861
32.41310116
31.854568
34.14025699
33.14460799
33.18722555
33.06870725
33.10514619
34.0677275
37.86915378
37.6574348
35.55799513
45.62666189
40.8294758
41.14183851
40.21053282
40.51865948
45.19419929
64.62125515
63.88989538
52.8622628
109.64829
81.20445506
82.15707971
79.23383918
80.22986708
108.3788429
248.224911
246.9698839
158.8072414
378.0814876
353.8064883
350.0252643
361.1025561
357.4919049
385.1211795
219.6697437
224.2805178
319.8119078
176.3989858
173.890251
181.6990381
179.000187
32.54158484
32.51156823
31.89639057
34.47750016
33.3346453
33.39040807
33.23306431
33.28218258
34.38643777
38.75094779
38.52683173
36.11906573
47.31507931
42.07924025
42.39001822
41.45467385
41.76727448
46.89973022
67.41233551
66.73475267
55.06441398
114.3264754
84.88144818
85.74535004
83.0874417
83.99486056
113.2149995
251.5236164
250.9249386
164.2454885
351.1335464
338.3821983
334.4066966
346.1979813
342.2632872
357.6903684
203.7155491
207.3795705
287.4649886
166.8763919
164.6936221
171.4702346
169.1339393
32.68462895
32.64542546
31.96053137
34.8799424
33.57655869
33.64454956
33.44937512
33.51144777
34.77421478
39.65667519
39.42974352
36.74279918
48.92739319
43.31110401
43.61374101
42.69909287
43.00613603
48.53190045
69.98630065
69.36353601
57.13041655
118.3544799
88.19841722
88.96982102
86.58626175
87.40319363
117.4065996
252.4528586
252.4546442
168.4374257
326.103666
322.556044
318.512319
330.4460113
326.4520441
332.1831387
190.741051
193.7620698
260.3481804
158.5599711
156.6419831
162.5823255
160.5389826
32.8634901
32.8155924
32.05022419
35.32912263
33.86409582
33.94199146
33.71523877
33.78845262
35.21345225
40.56041201
40.3355119
37.39930981
50.45842585
44.50603619
44.79824475
43.91382393
44.21119115
50.08322485
72.3466242
71.77575121
59.06170465
121.739747
91.15159803
91.83688064
89.71858958
90.44463854
120.9442198
251.3688814
251.9022646
171.4708491
302.9298578
307.021715
303.296829
314.6060138
310.7021341
308.5705086
179.8367112
182.4050726
237.809265
151.2292601
149.5294853
154.7825738
152.9792669
33.0742982
33.01888825
32.1661777
35.80821653
34.18742448
34.27271727
34.0219354
34.10377633
35.68640388
41.4496099
41.22914893
38.06911934
51.9102404
45.65794963
45.93887957
45.08763817
45.37415234
51.55463747
74.50668757
73.98556627
60.86596902
124.5579608
93.77137884
94.375324
92.50189438
93.14563951
123.8982368
248.3334947
249.3060385
173.5200338
281.2803707
292.8263224
289.3168818
299.7964225
296.1973995
286.5154094
170.435175
172.669142
219.1735872
144.714801
143.1957023
147.8790192
146.2746188
33.31170537
33.25015916
32.30703814
36.304642
34.53691936
34.62744972
34.35946453
34.44755507
36.17946331
42.31704242
42.1024892
38.74026663
53.28245977
46.76326541
47.03211336
46.21672903
46.49147109
52.94700068
76.46431804
75.99389424
62.54373397
126.8198739
96.06130413
96.58344598
94.95880592
95.51923821
126.2996592
243.9481462