/*--------------------------------*- C++ -*----------------------------------*\
| =========                 |                                                 |
| \\      /  F ield         | OpenFOAM: The Open Source CFD Toolbox           |
|  \\    /   O peration     | Version:  v2012                                 |
|   \\  /    A nd           | Website:  www.openfoam.com                      |
|    \\/     M anipulation  |                                                 |
\*---------------------------------------------------------------------------*/
FoamFile
{
    version     2.0;
    format      ascii;
    class       volScalarField;
    location    "3";
    object      p;
}
// * * * * * * * * * * * * * * * * * * * * * * * * * * * * * * * * * * * * * //

dimensions      [0 2 -2 0 0 0 0];


internalField   nonuniform List<scalar> 
3259
(
676.9862424
680.5413271
687.9053554
698.3741121
722.7513236
743.5472538
769.4575614
812.1446174
861.6331814
917.6291559
978.2037945
1075.64468
637.9129297
640.3302526
645.5123723
652.5469161
672.6938493
686.2539797
701.2967268
731.1725152
759.1919252
784.4452727
801.3864335
848.1861686
596.2984389
597.4990582
600.1757542
603.5130497
619.5745305
625.1919225
629.8721394
645.0282585
651.4961811
646.3197564
613.9672285
519.0780087
553.1687368
553.2338674
553.4848946
553.3318496
565.3938359
564.109962
559.8400791
561.5659396
550.0419163
522.7371571
464.2710588
354.1739831
509.5376191
508.6433196
506.8322482
503.7262846
512.005225
505.0814221
493.7482341
485.3458056
459.6232624
419.0183395
353.7900398
257.7385646
466.3190352
464.6596836
461.2044087
455.781454
460.7586358
449.6276737
433.2499565
418.6610828
384.7984042
337.7127019
274.0104137
191.8805015
424.2438257
422.0085996
417.3144086
410.2001763
412.5661452
398.5979648
379.1299437
360.9897855
324.9022817
277.0100359
217.4542777
147.350956
383.8632272
381.2358101
375.6945967
367.4693592
367.904332
352.2873195
331.1575553
311.6181091
275.8062439
230.820381
177.3193693
117.2109892
345.5661749
342.7138031
336.6836549
327.845676
326.9682715
310.6363782
289.0253476
269.4111027
235.2712586
194.1290304
146.9820473
95.52142978
309.5968083
306.6580556
300.441213
291.4066445
289.6779125
273.3590458
252.1495862
233.2375683
201.5130335
164.497479
123.1046228
79.00040675
276.0698025
273.1520867
266.9831354
258.0778907
255.8621593
240.0737096
219.8942216
202.083174
173.1183091
140.1663931
103.8988731
66.01697816
244.9945378
242.1779943
236.228305
227.6888271
225.2706542
210.3563771
191.6051537
175.1126002
148.9979636
119.8721531
88.15783757
55.57480539
216.3037579
213.6460776
208.0359249
200.0235635
197.6181297
183.7938506
166.6340577
151.6294452
128.3163834
102.7124517
75.06209112
47.00996864
189.8773105
187.4178104
182.2277655
174.8460445
172.6102332
159.9966099
144.5016639
131.0458494
110.4167621
88.02570228
64.0067549
39.86193685
165.5565265
163.3198864
158.6000129
151.9094656
149.9586229
138.6086
124.785553
112.8790511
94.78153904
75.3156135
54.54766068
33.80327475
143.1564782
141.1563291
136.9338585
130.9641948
129.3812981
119.3042384
107.1202598
96.72636441
80.9957087
64.1972295
46.35137514
28.59498336
122.4777143
120.7199722
117.0060237
111.7654803
110.6127002
101.7906594
91.19834312
82.24836324
68.72544853
54.36808517
39.16564998
24.0598319
103.3145609
101.7998587
98.5947238
94.07747409
93.40137691
85.79970784
76.77404978
69.15981973
57.69788793
45.58468573
32.78531821
20.0604972
85.45306259
84.17979402
81.47789027
77.66660676
77.51915344
71.08594411
63.56783032
57.23027655
47.68805894
37.6464309
27.05000678
16.48895412
68.70565129
67.66855793
65.46130464
62.33715154
62.73514027
57.42615095
51.30757499
46.26407892
38.50374313
30.38499333
21.82521727
13.25486453
52.78698661
51.99002503
50.27603909
47.80957147
48.89112516
44.61629169
39.780009
36.05572392
29.97007512
23.65281003
16.99579698
10.27948762
37.79282563
37.21106281
35.97726156
34.21080458
35.54677527
32.4656892
28.88757492
26.42562372
21.93142889
17.31756795
12.45597404
7.491579094
22.45916654
22.17822216
21.44462723
20.37918556
22.81503946
20.81326625
18.44175795
17.22288378
14.24942027
11.25352986
8.103482926
4.82466342
11.22258164
10.95263825
10.56722256
9.961621033
10.37942076
9.355548281
8.213116766
8.314702843
6.803273043
5.3274739
3.831011976
2.21861097
1087.483772
877.0241764
1018.274614
1080.995911
846.7545992
873.7043212
1059.080186
991.8062857
1054.996939
1143.052511
586.4459099
1148.581091
1153.653481
1047.4588
1048.818467
977.7300252
1054.867815
943.04984
1148.157056
1059.790803
-294.1973126
1098.630964
1063.582685
1025.24243
1109.562266
1075.49958
1103.890633
1181.25989
1151.771079
1120.297083
1162.086969
1187.534042
1191.652701
1184.89865
1011.064608
966.9564593
951.3061072
970.8115103
492.0761879
194.1115227
1109.861272
-282.604309
150.4905344
-197.2585148
1105.270398
-230.7693626
117.4305857
658.3049298
615.1644813
838.9963543
727.8768182
746.8741865
985.3503661
1073.609274
1058.379505
1037.954756
887.4028989
654.9687143
1215.603205
1159.722254
828.497383
953.2504651
915.014858
1030.647394
1005.375244
1022.555069
160.6287727
1031.242771
455.446612
711.3802896
528.546376
611.1163119
1127.115196
1079.74709
1082.919866
1064.95076
1076.689342
1117.583834
1105.433605
1089.14511
1210.901432
1166.869854
1009.402658
995.7770608
969.5922525
646.3622362
554.0952327
1020.311645
276.668386
432.0126574
327.1094501
1119.772984
-436.0677415
-2.003677296
221.2134
-47.06457947
1075.94647
1127.763907
1111.53004
1124.032759
1158.872041
1147.931788
1133.437993
1158.410308
1164.868142
1158.255881
1048.675552
1142.725
1149.214542
1153.354591
1062.787378
1169.03103
1153.449328
1163.984994
1205.22944
1190.159783
1174.859871
1195.488875
1203.765164
1198.678526
1178.643319
1182.021012
1188.161143
960.0986154
968.1378009
955.5683654
707.9767488
969.459116
369.0110311
499.6916693
621.6532675
1115.801912
1116.838827
1112.937135
-346.7973117
-189.8534444
-167.1990192
-182.6421329
1098.669766
1105.224136
1111.950444
-81.57407661
1228.926564
1227.265482
1162.095971
1159.309906
1165.953579
1157.635721
959.2682803
1000.783963
1127.172741
1032.986291
1025.436262
1015.110904
1041.387908
398.926742
383.4918491
1101.051861
979.6705855
749.6532285
1128.540867
1140.786416
1135.757047
1071.044586
1208.616731
1198.43781
1224.540808
1218.385693
1171.465525
1175.997001
1172.423876
1178.599427
1174.285732
1190.370322
1184.25685
1002.645998
989.064077
994.7431044
603.8208666
620.8689849
682.8899014
560.2208192
567.8355653
550.2074857
1008.074518
372.9813448
320.5757667
253.4118519
1115.552701
1117.091004
1119.720826
-413.9523256
89.71025246
30.58242807
203.5324034
190.9933232
203.8942636
11.76225348
-122.2797019
-103.0489031
-0.7928588087
1087.208214
1099.370191
1092.531991
831.5097953
871.6122915
886.3000094
933.0661122
949.3448998
1000.199392
751.2450488
775.9022127
848.4349636
784.4434665
809.5542312
903.246605
817.469755
840.1527033
962.5082531
936.2800517
946.240181
1013.020361
1042.049436
1066.616096
1100.878218
666.3627117
675.5394933
752.153516
677.949204
680.6107055
778.7760244
679.6820916
667.025438
798.381655
753.0277973
751.7022412
820.8525325
807.9614266
804.5456418
879.6935416
581.868524
577.2115258
650.5314172
574.472654
559.6022527
649.2888106
551.7311531
515.2388111
625.9580208
497.6471444
424.416812
552.9671315
386.2675539
503.5102211
487.5338872
553.8853563
480.8898957
454.5601192
531.7772987
442.964885
397.2739709
482.7672942
378.1607494
305.9270694
389.3260765
278.286868
434.4592364
411.1711885
467.0573241
401.9637606
369.0635856
431.1475888
355.9881501
309.4810054
372.7096645
291.5435843
227.6044291
283.4172857
206.2050198
374.58153
348.8042196
394.4148122
338.7569179
303.7746027
350.9367611
290.4718295
246.0761943
291.5584111
229.72129
173.9446827
212.2178871
156.7299857
323.2317553
297.1008674
334.962758
287.1999567
253.7489235
290.1494354
241.3668665
200.9771789
233.4054993
186.2806079
138.6033147
163.6074498
123.7771276
279.3412631
254.0789394
285.6018574
244.7063101
213.7534572
242.9182928
202.5576706
166.7595488
191.577158
153.8775869
113.7344127
131.7054686
100.374061
241.7596478
218.0547466
244.4765847
209.4003689
181.319424
205.0170997
171.3491896
139.8121847
159.4346415
128.5780056
94.31197673
108.4152504
82.75058294
209.4371501
187.6389674
209.9729038
179.7786455
154.6335594
174.1681165
145.8284739
118.1182102
133.9578294
108.3367375
78.94031447
90.13887634
68.99245648
181.4909791
161.7312202
180.7765849
154.6763518
132.3666159
148.696011
124.6213555
100.3298938
113.3469327
91.81702851
66.51561043
75.59334362
57.98738727
157.1968647
139.475946
155.8543194
133.2029426
113.5408184
127.3696812
106.7479997
85.51822422
96.3781168
78.12440269
56.29016249
63.77573969
49.0032025
135.9383179
120.1933094
134.3999228
114.6610203
97.42954526
109.2824334
91.49480818
73.0073835
82.19666341
66.60564628
47.75116805
54.01407377
41.53569278
117.2090041
103.3435836
115.771504
98.50226325
83.48918389
93.75916144
78.33045132
62.30334533
70.17839714
56.78252649
40.52540438
45.83365103
35.23013092
100.5879951
88.49045688
99.45825067
84.28849399
71.30014864
80.29194376
66.84554426
53.03359787
59.86389129
48.29720322
34.33595899
38.89013489
29.82789689
85.72106191
75.27825718
85.04565169
71.66681086
60.53185867
68.48591987
56.71868884
44.91182116
50.90500672
40.8793705
28.96972648
32.92441296
25.13866669
72.30938455
63.4161725
72.19633641
60.3512091
50.92001043
58.0296755
47.69403554
37.71276599
43.03330577
34.3145032
24.25676901
27.73604493
21.01635593
60.111109
52.66454745
60.63264926
50.10595037
42.2470619
48.6714341
39.56136471
31.25260726
36.03519809
28.43106899
20.0610403
23.16399404
17.34688539
48.9227991
42.82104277
50.12592361
40.73222536
34.33070698
40.2036015
32.14525498
25.38345602
29.73503614
23.09021497
16.27187915
19.07964308
14.03617216
38.54440965
33.70109195
40.48025602
32.05131255
27.01165101
32.45077882
25.29362203
19.97674576
23.9933475
18.17193242
12.79274488
15.37645087
11.00306024
28.78454036
25.13715855
31.51398755
23.90250855
20.14819836
25.25833447
18.8711007
14.91616096
18.68346188
13.56929643
9.54071829
11.96156771
8.174656212
19.48880935
16.98324272
23.06557433
16.14337347
13.6093263
18.48801073
12.75097467
10.09141381
13.69218783
9.179637356
6.43757978
8.75395822
5.483475662
10.52117327
9.114207242
14.99353978
8.649926872
7.268290061
12.01051414
6.805742391
5.385649652
8.908924759
4.896335682
3.408584418
5.67619148
2.867702642
2.209958475
1.790886641
7.176975215
1.652431499
1.192895638
5.695714759
1.020169498
0.5028033607
4.213337826
0.4456045994
0.6829437189
2.648080292
0.3982592631
1111.731126
1143.295995
1118.207169
901.5367785
943.9334917
919.1439698
621.7985104
1033.883924
1092.459769
1056.6088
1142.016341
1103.909757
1044.662901
847.7499898
922.3594161
891.6876875
960.2807615
930.3592505
852.7975615
1023.393465
954.9607812
986.9475356
1015.999171
1054.594656
1029.188284
1060.486162
1055.975458
1049.155389
1137.66348
1131.996287
1137.21011
456.8700794
655.9821402
688.1185167
606.3907978
426.0998929
601.9629902
575.8158195
1152.863097
1147.581299
1143.007088
1195.571262
1210.119197
1129.289628
1153.526584
974.6665062
986.2103446
941.4722223
1042.087549
1034.291677
1041.471732
936.5365906
958.4625291
1002.171175
923.6181678
916.3420723
1053.001631
1093.061171
1086.827748
1092.064336
1051.212624
1060.746712
1072.946353
1032.91939
1054.665158
1038.393081
1098.498747
1107.431029
1118.444038
1084.666383
1096.099814
1087.115941
1108.263217
1103.624696
1098.594656
1177.393467
1171.639895
1175.220715
1141.325072
1149.717931
1160.268247
1129.008312
1139.320404
1130.844027
1181.916726
1190.91697
1170.785814
1181.021214
1172.150034
1193.839347
1189.12093
1183.272028
996.3810019
1001.571694
1025.696655
970.8862417
992.965998
981.4901941
446.8700223
493.1023738
531.1697662
225.9586647
278.4028844
240.2544396
101.381843
140.1295358
182.7978937
-191.636958
-30.14350857
646.968542
698.5641941
704.8480146
691.4783654
691.2907313
633.1367432
824.1442852
737.3487441
727.6696121
719.7790917
760.835849
767.5136031
826.0497859
756.699394
696.3506142
893.4227293
818.5648336
734.1405706
1068.38635
1062.685158
1067.828101
1051.498252
1057.01973
1063.190976
1043.369398
1050.382797
1044.811806
690.1231898
659.1702279
687.9424251
591.6259197
622.0764856
690.8959676
1221.565993
1224.97117
1219.919476
939.6320886
965.9617676
736.1462583
949.4135595
969.5068321
963.0013149
924.9489535
952.6812152
935.4480839
1022.820318
1028.156755
1036.043223
1009.693379
1019.432357
1014.415356
284.1992713
737.7093655
856.5747234
802.7208012
665.1098626
892.6725735
671.0862642
783.3538616
721.5101344
1077.357763
1081.938631
1087.998209
1069.381953
1075.718565
1070.738049
1085.210166
1080.423697
1073.958132
1114.034107
1108.600898
1112.473053
1100.251872
1104.411467
1109.960759
1093.678178
1099.05841
1094.268957
1205.281436
1211.552333
1217.443043
986.0999579
987.3124431
998.7651469
964.8429086
973.9233768
976.2194521
402.0991159
360.4929288
382.5550176
285.2928146
324.5020972
366.4854355
14.39480108
68.51094302
44.70760954
1122.757565
1127.185542
1132.679476
1115.73138
1121.525615
1116.778768
1130.905808
1126.127975
1120.02172
1155.857224
1151.518331
1155.539149
1143.375641
1147.350644
1152.111161
1137.925348
1142.749602
1138.020575
1164.020471
1167.817166
1173.359108
1157.15118
1162.382049
1158.278076
1169.350274
1166.057922
1160.818142
1200.017995
1194.743457
1199.819484
1185.501916
1189.911455
1195.067007
1178.963225
1184.51104
1179.819925
411.6208
455.7999904
415.3793566
526.8171511
492.9922464
453.8305572
572.0455554
538.7242892
578.2296057
-141.4554664
966.2981195
968.1036072
952.6473637
1030.872652
1015.467854
988.0948627
1380.042153
1116.371336
1072.902296
1053.28563
1055.631347
1162.380203
957.538566
1073.932638
1047.245434
775.2290107
805.2853978
737.1759166
748.0873214
757.6568871
770.58574
785.2821464
801.9769682
819.6200231
699.1945053
705.8761491
732.3925684
715.016586
724.7767459
755.8033711
735.0583357
743.7530833
801.421797
792.3668789
802.7184189
823.6217378
836.4880547
848.4060835
875.2052651
885.111442
897.5616089
932.2384389
1065.310234
1072.914399
1084.106066
646.7310919
650.8829974
679.1053756
655.9762299
661.1141327
693.7943405
665.796604
663.1241472
724.5584229
709.599131
715.2595362
738.0547229
732.0989089
737.2547677
766.0544735
749.3966417
751.7913748
789.5034363
592.4821964
593.501714
622.4428409
594.4630085
594.8973492
627.8612165
594.4637778
582.7691716
643.0062445
623.7805965
624.7606782
647.0628726
624.956358
623.7756529
651.5874631
613.7100065
606.9939963
641.6236644
572.252961
554.3271816
598.667199
465.9276055
443.6300074
498.0124758
538.3481736
536.6706827
565.1591518
534.2130812
530.7033122
562.4512986
526.1951677
507.8772473
563.5754986
541.6908329
538.5935279
559.4164387
526.244225
520.4437877
545.199562
495.0031429
483.0230563
511.7681795
433.2626829
411.5966166
442.7547524
326.0658605
289.9758257
317.5202976
485.9122602
481.9562676
509.2075552
476.8164942
470.2684485
499.9018762
462.7221565
440.7923072
490.518027
467.7891671
461.6038628
479.7812443
439.3788617
430.3780647
451.2718425
396.588771
382.5994009
405.3034429
331.3190857
310.8828813
332.9547534
239.0286533
207.2162518
224.2630154
436.1242932
430.5215103
456.0108082
423.5109928
414.9273578
441.9200348
405.3894819
381.8455541
425.4318098
403.4048748
395.8364525
411.3167763
368.6261446
357.9372549
374.3970831
320.7335211
306.4625758
323.4137864
257.9153283
239.1996391
254.8628322
178.8930424
155.2275581
166.2273915
389.6687462
382.9971344
406.4706526
374.8296059
365.0609105
389.306219
354.3962365
330.8177274
368.5040645
347.899954
339.8178553
352.9666196
311.714849
300.9735159
314.0937822
264.4046474
250.8128652
263.1278723
206.2903138
189.5801216
200.1328224
138.8857619
120.388349
127.973999
346.8674245
339.6086464
360.991379
330.8755042
320.6241361
342.1760551
309.3921092
286.8063107
319.3448981
300.4273751
292.3484285
303.4877071
264.9458921
254.7287119
265.4272488
220.8645092
208.604264
218.2152279
168.9950945
154.5604418
162.3315459
111.1812026
96.19100531
101.5792775
307.7519415
300.3018708
319.6518789
291.4551639
281.2505429
300.3362911
269.9721741
248.8511727
276.9632619
259.8299979
252.0744916
261.5388992
226.2568951
216.8095069
225.6179389
186.1372273
175.2591812
182.9108396
140.4880721
128.0009684
134.0306001
90.9871863
78.38098647
82.36645178
272.215249
264.8692021
282.3041047
256.2270975
246.4108719
263.2960023
235.4799226
216.0150221
240.3887774
225.0011746
217.7507741
225.834699
193.9591559
185.3784642
192.7117826
157.9745141
148.3857555
154.5986882
117.9197178
107.1435078
111.922881
75.46883098
64.72593898
67.83411424
240.0399611
233.0037718
248.6844091
224.7804476
215.5626702
230.5221906
205.302336
187.5046445
208.6996876
194.9648975
188.312796
195.2630154
166.7238965
159.0269584
165.2015575
134.754854
126.3213816
131.4564399
99.67500409
90.38610385
94.25644753
63.19839775
53.9240769
56.40426316
210.9529667
204.3597183
218.4613428
196.691665
188.1696157
201.461537
178.7358966
162.6335068
181.1436597
168.9287448
162.9049892
168.918581
143.5335641
136.6949141
141.9486381
115.3176634
107.9172655
112.2237856
84.6628232
76.66315557
79.85475239
53.27849952
45.20475176
47.22089114
184.6610972
178.5898154
191.2850894
171.5598927
163.7931964
175.6298675
155.2412392
140.8016624
157.066638
146.2223794
140.8251598
146.0658039
123.6030572
117.5737742
122.0901197
98.83072144
92.35963329
96.01802997
72.12674627
65.23067266
67.90547287
45.10468857
38.05022708
39.71397785
160.8702167
155.3630865
166.8152052
149.0109848
142.0241271
152.6054485
134.366004
121.5168122
135.8982006
126.285675
121.4955732
126.0964392
106.3134485
101.0337442
104.9554582
84.67955085
79.04625707
82.19097341
61.50702435
55.56576332
57.83895665
38.25573147
32.09681634
33.48843773
139.2928472
134.3667772
144.7313961
128.7041894
122.4961647
132.0002924
115.7174669
104.3658123
117.1678869
108.658366
104.4468357
108.5169533
91.17601187
86.58482622
90.02375793
72.39987307
67.52317806
70.25681017
52.39118056
47.28763275
49.24422892
32.4292741
27.07791445
28.25694877
119.654243
115.3097142
124.730409
110.330884
104.8859196
113.4690043
98.95788079
88.99689579
100.479645
92.95508204
89.28956738
92.9194965
77.79770191
73.83820611
76.88329249
61.62948774
57.43847223
59.84090873
44.46880361
40.10858252
41.81359226
27.40414293
22.79217026
23.80395539
101.6957312
97.92295683
106.5328522
93.61172601
88.90861476
96.70926845
83.81750999
75.11048957
85.49400401
78.8493322
75.6985178
78.9645811
65.86150788
62.48305538
65.2061221
52.08262459
48.51610266
50.65069552
37.50215943
33.80630565
35.30956217
23.01437189
19.0842919
19.96425537
85.17585726
81.95638628
89.87939882
78.28880211
74.29040472
81.44479467
70.03440778
62.47154089
71.92088084
66.07202677
63.40473636
66.36878777
55.10772534
52.26559455
54.72558008
43.52776397
40.53317802
42.45161751
31.29638159
28.20775767
29.54931182
19.13117391
15.83199057
16.60813877
69.86470454
67.17633612
74.52945825
64.12923217
60.7921992
67.41463754
57.3412879
50.87684912
59.53748622
54.40211691
52.18747752
54.90109554
45.32165204
42.9759469
45.22172792
35.77368232
33.30594799
35.05076184
25.70077655
23.17374985
24.38684776
15.65200013
12.93750758
13.63233762
55.56296993
53.37138458
60.25734217
50.91982061
48.20879926
54.39492175
45.45216989
40.10547968
48.15720672
43.64614875
41.85186822
44.36346394
36.31583319
34.43181152
36.50718299
28.65775002
26.6798963
28.28769761
20.58500312
18.57679849
19.690936
12.4896704
10.31834734
10.95139542
41.97793452
40.30475626
46.85507113
38.46028004
36.38118211
42.2128211
34.2675497
29.96371765
37.556464
33.59712452
32.20210738
34.5593092
27.91967385
26.46952296
28.41372982
22.03677285
20.51902861
22.02248917
15.83766673
14.31229743
15.35285404
9.567572733
7.903093746
8.491325874
29.02440842
27.89410607
34.10234398
26.59171061
25.11882445
30.68698006
23.62459232
20.3033619
27.54703821
24.0877257
23.0733721
25.31437709
19.98257613
18.94357317
20.79158446
15.78105466
14.6992471
16.12877621
11.35428652
10.2812001
11.2723443
6.816000527
5.628992251
6.187519753
16.74479646
15.92281237
21.92851264
15.1617222
14.29823479
19.63693801
13.40360307
10.98120522
17.98098831
14.96918272
14.3221184
16.481305
12.37018848
11.72180622
13.50534452
9.76510042
9.098607661
10.48511326
7.03205024
6.387391674
7.353473185
4.169510594
3.439408707
3.981648688
5.870310831
5.354655648
9.879122688
4.949152704
4.602317611
8.794131809
4.228857695
2.362047518
8.717949315
6.126719045
5.8419073
7.932373876
4.981734702
4.699056482
6.432329901
3.857082545
3.577249925
4.957862184
2.753295351
2.533255327
3.494599111
1.580752639
1.292458601
1.827727973
1095.064796
1105.782653
1097.328567
880.9854892
900.8666591
893.0082665
1102.073275
1088.781249
1067.8065
903.0617124
892.8320322
865.1441247
1046.013025
1023.327974
1036.19673
999.1828121
1012.382009
1004.124444
1149.057523
1156.440285
964.7531639
971.7466963
985.7034093
67.28860464
832.7302312
798.5760428
802.4505384
903.9540232
870.057944
896.8155812
830.7989066
840.6680678
887.9156255
205.6456742
579.4620583
556.977378
578.9402391
844.1599144
864.0516802
850.2062437
894.0881709
878.6898548
857.532016
901.4799642
926.950958
910.2047542
961.964516
944.234178
917.0934147
965.9270181
998.5033475
980.0682444
1036.423496
1017.256561
982.8586343
759.2236828
780.9567064
771.7835621
800.3565693
790.4906009
767.4549587
835.7002747
813.5434578
824.829261
792.9653574
820.6857303
810.4587924
841.1853034
830.9556062
801.366574
889.0988361
860.5167184
872.7482309
825.0680117
861.4194148
851.3439696
882.0648258
871.6020414
832.5603574
947.1651107
910.2510341
923.3486466
1049.644098
1061.420894
1052.973222
1078.320123
1069.73208
1057.980755
1092.377157
1081.20958
1089.756115
669.5562087
692.2456613
687.8567283
700.8657241
696.635286
672.6764397
745.0634175
720.9618294
726.6230984
679.7843905
708.2447381
704.7814234
713.0393658
711.0872279
680.9292249
772.6186366
741.9426538
746.010146
677.2974372
713.898383
714.2776108
709.8149929
712.631699
673.1343988
794.1103689
753.3859101
754.0875745
870.5173371
850.7692772
856.7137169
580.7110584
602.4669695
602.7123849
600.9301029
601.9266534
579.2302679
648.9435595
625.3960333
625.5735769
570.7593562
597.0406912
599.383202
588.5990335
593.5265526
565.8650709
650.7623674
621.8844753
618.6036064
541.9399873
573.7014206
582.0911419
549.8806255
563.0894174
529.8989689
634.9266148
598.1545437
586.8210353
476.8121996
513.8987638
533.5343782
463.0282762
491.5307719
453.0911226
579.9668364
533.3406329
504.3323799
349.3991214
390.194128
423.3696597
342.3471725
307.5157635
425.6293668
383.3415134
498.704696
518.3245502
522.3286291
508.8923657
513.8933089
493.4210193
556.9335262
535.0967319
531.0576438
473.3100878
496.4411917
503.1443392
479.2874949
488.5645738
464.6053896
539.1801577
513.4585169
505.066619
429.6409127
455.6170264
468.3744871
423.7942929
440.8044026
414.4427558
498.5270195
468.8583333
452.3148055
356.967222
383.1001016
404.5956693
330.7860735
358.4968567
332.7315028
418.1437302
386.7861351
358.3459084
243.5070246
265.3423763
300.9551371
233.3346709
214.3177432
279.0051591
254.7319932
427.423099
444.1659415
450.8490844
428.858561
436.8336521
419.6573005
473.7295762
454.8577068
447.4920278
391.9497885
410.6084699
420.1580145
388.4523776
400.0825412
381.0189737
441.8405465
420.3455773
409.1301157
341.7186505
361.4298304
375.6004371
328.9213597
345.8748132
326.2132711
389.89011
367.0719663
349.9652567
271.963457
290.5976561
310.6102302
244.4797935
267.9272591
249.9236637
309.1767525
287.6276099
263.0121924
178.4310928
192.024215
221.9010455
168.2601068
155.5553218
197.3708261
182.1255323
366.677761
380.9585793
388.7297864
363.3024128
372.5024595
358.0974935
403.253674
387.5471059
378.4914883
327.9191744
342.5005016
353.3143974
318.3423052
330.8390196
316.2632465
363.1395603
346.4242287
334.0420123
276.3880197
290.8068943
305.0025703
259.936359
275.7723261
261.5780731
308.0204747
291.2295444
275.0699282
211.9051559
224.902792
243.1786423
185.4631383
204.8201823
192.4374635
233.4794115
218.478944
198.2038714
136.2289
145.2727966
167.200835
123.458748
114.6447411
143.890158
133.2011782
315.0999089
327.200586
335.334986
309.1412766
318.4810175
306.394449
344.3062197
331.1102335
321.7520911
276.6773245
288.5139144
299.1585173
265.2003467
277.1948939
265.5256369
302.5129675
289.5093489
277.3160993
228.4235581
239.2718002
252.5456509
211.0361812
225.4380724
214.9738634
248.5775469
236.6046767
221.8056965
170.7513671
179.889802
195.9430527
146.278154
162.6952651
154.3694985
181.2926146
171.4663268
154.4445156
107.2649648
113.3449739
131.014975
93.73756433
88.75165215
106.7478484
99.76888354
271.3940927
281.6555631
289.6912918
264.1172913
273.1368209
262.9728374
294.8240906
283.7465052
274.6162962
234.8546145
244.5482931
254.5887749
222.9589515
233.9998889
224.5308569
254.4618259
243.9654485
232.6681378
190.9945179
199.5456706
211.4571403
174.5292593
187.2585588
179.0858354
205.152985
195.9310617
182.7829749
140.451809
147.289573
161.2040996
119.3951853
133.1412253
126.885831
146.7680424
139.7562977
125.3757174
86.62357885
91.20718949
105.5831779
75.14189591
71.21748182
84.01501131
79.41899614
234.2403744
242.9798259
250.6365502
226.4857295
234.9322766
226.3354384
253.2314658
243.8908632
235.2854906
200.3804034
208.4054645
217.6412545
188.8276019
198.7922332
191.0106602
215.5261763
206.9551532
196.7174918
161.1318225
168.0096791
178.5537375
145.9913532
157.1809963
150.6437359
171.3714264
164.0799292
152.5219445
116.9763262
122.3271119
134.363684
98.73406815
110.3079357
105.4220146
121.0070301
115.4919782
103.4252441
71.13363926
74.64284953
86.73906497
60.99726806
58.02062126
67.57987792
64.17910741
202.4789799
209.9690076
217.0901052
194.7820965
202.5339644
195.2081662
218.0815374
210.1532919
202.221122
171.6409329
178.360942
186.7202114
160.8456832
169.7251852
163.2482238
183.5867324
176.4983544
167.3506069
136.8339846
142.4709368
151.7583007
123.1312157
132.9465069
127.6128683
144.4412505
138.5493589
128.4044601
98.32932996
102.6188678
113.003821
82.47069872
92.34161637
88.44383126
100.8116977
96.45835649
86.19809346
59.02380102
61.79375716
72.13808519
50.15400227
47.83722644
55.23203671
52.61476521
175.1516681
181.6109088
188.1201202
167.8355767
174.8494002
168.5600906
188.1611898
181.3796031
174.1801609
147.4135439
153.101751
160.5805611
137.577331
145.4242107
139.9679775
157.0499393
151.1138989
143.0160378
116.7183306
121.4129697
129.5775802
104.4664321
113.0528356
108.6299192
122.5302454
117.6820478
108.8012602
83.19827027
86.70441593
95.65171358
69.39220392
77.91827849
74.74996624
84.75084402
81.24760562
72.41499449
49.34102343
51.57256472
60.52514856
41.64705431
39.80521649
45.6540017
43.59400888
151.4879678
157.0966956
162.9744753
144.7372068
151.0167861
145.5756082
162.498786
156.6546235
150.1932009
126.7760332
131.6409344
138.2720483
117.9679963
124.8668278
120.2168299
134.7311554
129.7013299
122.5740297
99.82437028
103.7875651
110.9464533
88.98269035
96.47128439
92.75174974
104.3998004
100.3505864
92.59930766
70.69729033
73.61373571
81.3216445
58.67101907
66.10193397
63.47405381
71.73104032
68.85149093
61.16373421
41.45734186
43.28565284
51.09044425
34.83614698
33.34348354
38.06079921
36.40662781
130.8478057
135.7541487
141.0078254
124.7672713
130.3390215
125.5938132
140.3213819
135.2454307
129.4998549
109.0142672
113.2180925
119.0542057
101.2354413
107.27565
103.2681515
115.74117
111.4304104
105.183551
85.4534092
88.84081226
95.09428773
75.94913842
82.46077437
79.29206881
89.18253039
85.75494093
79.00965431
60.20355194
62.66563659
69.31043595
49.75038689
56.24433643
54.03012549
60.959983
58.55222327
51.83608593
34.94180217
36.46109465
43.28175723
29.28024558
28.04867419
31.92324435
30.57035495
112.7121066
117.0352544
121.6872145
107.3534049
112.2552649
108.0847134
121.0031067
116.559276
111.4937842
93.57425801
97.24220262
102.3441699
86.7954687
92.05820857
88.56906805
99.40110947
95.666736
90.21669014
73.08494096
76.01289934
81.44984869
64.83206254
70.47368439
67.74241055
76.24254708
73.30515129
67.45528783
51.273178
53.37876396
59.10059542
42.22518214
47.8949001
46.00229577
51.90392111
49.86039082
43.99314299
29.48439986
30.76328232
36.71310002
24.67000157
23.63798925
26.87217176
25.74704785
96.65359235
100.4932469
104.5735748
92.037208
96.31236809
92.61591785
104.0412318
100.1190624
95.6912867
80.01988326
83.2519562
87.68012615
74.2025503
78.75915264
75.69027828
85.19328298
81.92510859
77.19814829
62.31991804
64.87910443
69.57813258
55.23335999
60.09708173
57.7154866
65.10593073
62.55906556
57.50869254
43.57637384
45.39968244
50.30910171
35.79879913
40.72212443
39.08200878
44.17849636
42.41980118
37.31584105
24.85404249
25.94449161
31.10509899
20.78514532
19.90722343
22.64820814
21.69805981
82.31654854
85.75590234
89.29746557
78.44430446
82.13637375
78.83111149
89.02394586
85.5325574
81.69858793
68.0037525
70.87976743
74.68952215
63.10605383
67.01874512
64.29230139
72.71331601
69.82438004
65.75607696
52.84700219
55.10839916
59.13792234
46.84768517
51.01125985
48.91109286
55.40971632
53.17629363
48.84427366
36.85936774
38.45817859
42.64603256
30.24406419
34.47695314
33.03767781
37.49637257
35.96244262
31.56146792
20.87431536
21.81632999
26.25275918
17.46310442
16.70554903
19.06210743
18.24805218
69.40417856
72.51198154
75.54532529
66.26897604
69.41845089
66.43612965
75.61227437
72.47607595
69.19447427
57.24618495
59.83089579
63.07127939
53.22711439
56.5498662
54.10284426
61.64112321
59.06150097
55.59591021
44.41954983
46.4400549
49.85899065
39.4364195
42.96606602
41.09282526
46.8722873
44.89159813
41.20907084
30.9284267
32.34682016
35.88604731
25.38168121
28.97291421
27.69500138
31.64218768
30.28801792
26.54071255
17.40780306
18.23266383
22.00043027
14.58178384
13.91881448
15.97379094
15.26634475
57.67410652
60.50676999
63.06301973
55.25982503
57.90473754
55.18910681
63.52524455
60.68243377
57.91470497
47.51672427
49.86372963
52.57820039
44.33767879
47.11737932
44.89761509
51.71718556
49.38951444
46.47811737
36.83532763
38.66199753
41.52096002
32.80713797
35.75798345
34.06646858
39.26890081
37.49129867
34.40063547
25.62894138
26.90186796