/*--------------------------------*- C++ -*----------------------------------*\
| =========                 |                                                 |
| \\      /  F ield         | OpenFOAM: The Open Source CFD Toolbox           |
|  \\    /   O peration     | Version:  v2012                                 |
|   \\  /    A nd           | Website:  www.openfoam.com                      |
|    \\/     M anipulation  |                                                 |
\*---------------------------------------------------------------------------*/
FoamFile
{
    version     2.0;
    format      ascii;
    class       surfaceScalarField;
    location    "3";
    object      phi;
}
// * * * * * * * * * * * * * * * * * * * * * * * * * * * * * * * * * * * * * //

dimensions      [0 3 -1 0 0 0 0];
oriented        oriented;


internalField   nonuniform List<scalar> 
6430
(
-0.007185222847
0.9314829786
-0.0145478644
0.931037167
-0.02201311696
0.9300213057
-0.007242664477
0.9284186002
-0.0226725555
-0.4592299226
0.4602776337
-0.008290375593
-0.4572702109
0.009438505515
0.4585574606
-0.01072575516
-0.4570666111
0.01201355124
0.4579173861
-0.006491205237
-0.006514725439
-0.229477226
0.006777648835
0.2292703901
-0.006777924811
-0.2280998393
0.006220916742
0.2276529666
-0.00605475939
-0.2232594434
0.00603731441
0.2234579321
-0.006417296534
-0.2162650658
0.00836026243
0.2172667155
-0.004657372476
-0.004704539614
-0.05257000019
0.003133513081
0.05263513891
-0.003198651803
-0.003657183792
0.9351401624
-0.007411832279
0.9347918155
-0.0113669082
0.9339763817
-0.007724815754
0.9326915834
-0.007915075638
-0.4633548238
0.4644668629
-0.008836854782
-0.4616399013
0.01007431432
0.4629684111
-0.0114028241
-0.4595316095
0.01284758819
0.4606096137
-0.006979601591
-0.007109993321
-0.2284662076
0.007078734107
0.2281798482
-0.007010026782
-0.2265340505
0.006594803789
0.2261489496
-0.006493157577
-0.2240068427
0.006757191678
0.2242114942
-0.007131237521
-0.2208696503
0.009418689853
0.2219799388
-0.005252813974
-0.005276164275
-0.05449960513
0.007362499133
0.1094008696
-0.05444643242
-0.003899299177
-0.003918032009
-0.003835978789
0.9389761412
-0.007768442878
0.9387242796
-0.01189640893
0.9381043477
-0.00809465144
0.9371167092
-0.008226883228
-0.4656721595
0.4668620213
-0.009284513211
-0.4643207539
0.01057055901
0.4656861491
-0.01193595426
-0.4620988652
0.01340667572
0.4640180676
-0.007637399873
-0.007748390745
-0.227680369
0.008381097971
0.2277167492
-0.008601070178
-0.225112279
0.008854146717
0.2248614296
-0.008871460386
-0.2244881219
0.009000154464
0.224442414
-0.009149679299
-0.2248650212
0.01012070179
0.2253626958
-0.01065913716
-0.1125140714
0.01381727865
0.2243762253
-0.01352641851
-0.112153014
-0.003921020758
0.942897162
-0.00792995393
0.9427332128
-0.01211398114
0.9422883749
-0.008254480107
0.9415698041
-0.008312595904
-0.4680681354
0.4692744237
-0.009460768444
-0.467045766
0.01074276866
0.4683920914
-0.01208909409
-0.4659643922
0.01352412556
0.4675057165
-0.007547358885
-0.007518228972
-0.2287757046
0.009432530702
0.2295095678
-0.01027753092
-0.2246837579
0.01222269263
0.2249215641
-0.01268072873
-0.2241516333
0.01358000437
0.2241280474
-0.01376118206
-0.2259329902
0.01415980604
0.2259637387
-0.01430037629
-0.2226131154
0.0148145671
0.2217366323
-0.01396262373
-0.003921189446
0.9468183514
-0.007918035276
0.9467300586
-0.01206164611
0.9464319858
-0.008229351866
0.945938644
-0.008201134206
-0.4704542456
0.4716309187
-0.009406025005
-0.4697089612
0.01064261375
0.4709926616
-0.0119263142
-0.4689847061
0.01327603381
0.4704029961
-0.007378237129
-0.00731608671
-0.2329763638
0.008146752541
0.2342898975
-0.009474994241
-0.2268816043
0.01381202849
0.2280007151
-0.01506388933
-0.2248178334
0.01807739979
0.2254067361
-0.01882957771
-0.2262530936
0.02044961284
0.2265341911
-0.02084591832
-0.2188114573
0.02092619061
0.2178872197
-0.02003597676
-0.003851231686
0.9506695831
-0.007763705762
0.9506425327
-0.01178977184
0.9504580518
-0.008044251877
0.9501385233
-0.007945399214
-0.472764927
0.4738833764
-0.009162701294
-0.4722316404
0.01032701911
0.4734260454
-0.01152142409
-0.471753617
0.01275874339
0.4730324356
-0.007064704988
-0.006972856945
-0.2355902696
0.007729611058
0.2359283847
-0.008067726135
-0.232705745
0.009895763934
0.234638534
-0.01185235702
-0.2284673736
0.01716584929
0.2298999541
-0.01867908098
-0.2282160658
0.02232324131
0.2290656146
-0.02324558692
-0.2160717571
0.02356165432
0.2159258011
-0.02343785071
-0.003725812493
0.9543953956
-0.007497476227
0.9544141965
-0.01134847938
0.954309055
-0.007734764048
0.954110749
-0.00758594102
-0.4749527165
0.4759983741
-0.00878042159
-0.4745678076
0.009858185032
0.4756599968
-0.01095037429
-0.4742384729
0.01206578265
0.4753736097
-0.006655628357
-0.006545291054
-0.2368677662
0.007234246483
0.2371573544
-0.007523834684
-0.2362358367
0.008389130503
0.236521583
-0.008674876771
-0.235007437
0.009513436419
0.2354363968
-0.009943568265
-0.2322916246
0.01397185492
0.2335079276
-0.01520344883
-0.216839212
0.01647017391
0.2174523176
-0.01708931356
-0.00355980555
0.9579552012
-0.007150711474
0.9580051024
-0.01078917211
0.9579475156
-0.007340722017
0.9578226181
-0.007160319258
-0.4769918806
0.4779575767
-0.008306418124
-0.4766972233
0.009292218453
0.4776844121
-0.01027940725
-0.4764383377
0.01127327127
0.477434388
-0.006187078022
-0.006082243469
-0.2379585622
0.006693193706
0.2382052113
-0.006939842774
-0.2372952743
0.007660834548
0.237527955
-0.007893515302
-0.2361556794
0.008561880775
0.2363678827
-0.008774084103
-0.2346825993
0.009359023363
0.234809569
-0.009485993102
-0.2190573044
0.00916581646
0.2194809926
-0.009589504636
-0.003367411799
0.961322613
-0.006752855726
0.9613905463
-0.01015825144
0.9613529114
-0.006895026948
0.9612593023
-0.006699908684
-0.4788705751
0.4797568891
-0.007781340887
-0.4786181608
0.00867654275
0.4795046047
-0.009562986611
-0.4783654793
0.01044421945
0.4792354823
-0.005702365732
-0.00561185667
-0.2388870645
0.006146215294
0.239097108
-0.006356258715
-0.2381600214
0.00695893838
0.2383509275
-0.007149844547
-0.2369351202
0.007689679685
0.2371039271
-0.007858486524
-0.2350949047
0.008298366347
0.2351629232
-0.008366384843
-0.2207588983
0.008097649488
0.221178692
-0.008517443113
-0.003160225117
0.9644828381
-0.006327463255
0.9645577845
-0.009492384955
0.964517833
-0.006425680597
0.9644213519
-0.006228753896
-0.4805896142
0.4813988972
-0.007234963578
-0.4803412142
0.008044187773
0.4811344342
-0.008837407833
-0.4800482064
0.009617292401
0.4808076126
-0.005226298842
-0.00515039975
-0.2396783327
0.005615859249
0.2398577363
-0.005795262871
-0.2388722149
0.00630225404
0.2390305248
-0.006460563874
-0.2375592655
0.006903405368
0.2376959684
-0.007040108273
-0.2353009031
0.007372155072
0.2353278619
-0.007399113865
-0.2223923299
0.007198290396
0.2227770024
-0.007582962877
-0.002948731588
0.9674315697
-0.005895549689
0.9675046026
-0.008823045007
0.9674453284
-0.00595678514
0.9673198797
-0.005764787711
-0.4821552965
0.4828920531
-0.006693541787
-0.4818826245
0.007423762384
0.4825920409
-0.008133178725
-0.4815172728
0.008824119576
0.4821815259
-0.004777442848
-0.004710929777
-0.2403553383
0.005118849103
0.2405093609
-0.00527287174
-0.2394655135
0.005703028211
0.2395984587
-0.005835973378
-0.238067729
0.00620522656
0.2381801408
-0.006317638406
-0.2353623336
0.006567546777
0.2353605895
-0.006565802685
-0.2238588283
0.00643557639
0.22419342
-0.00677016817
-0.002740325901
0.9701718956
-0.005471755042
0.9702360317
-0.008171465564
0.9701450389
-0.005502590438
0.9699716616
-0.005320657009
-0.4835779252
0.4842478396
-0.006172504876
-0.4832614039
0.006831453546
0.4838965479
-0.007466597505
-0.4828045246
0.008080218748
0.483389206
-0.004364251076
-0.004300649135
-0.2409376137
0.00466202076
0.2410706501
-0.004795057101
-0.2399660858
0.005163489768
0.2400792249
-0.005276628918
-0.2384875262
0.005589189868
0.2385809465
-0.005682610229
-0.2353238502
0.00586911559
0.2353027807
-0.005848046119
-0.2251158412
0.00578188515
0.22539608
-0.0060621239
-0.002540717742
0.9727126134
-0.005067259531
0.9727625735
-0.007553488014
0.9726312674
-0.00507334159
0.9723969217
-0.004905406509
-0.484869728
0.4854789742
-0.00568258781
-0.4844963496
0.006277941181
0.4850662142
-0.006847805803
-0.4839386089
0.007394207234
0.4844554334
-0.003984423515
-0.003926608247
-0.2414418271
0.004245737841
0.241557624
-0.0043615347
-0.2403940858
0.004680360074
0.2404916614
-0.004777935663
-0.2388373653
0.005045876875
0.2389156114
-0.005124122983
-0.2352190221
0.005261533106
0.2351854142
-0.005227925282
-0.2261569435
0.005215680797
0.2263849198
-0.005443657076
-0.00235337473
0.9750659881
-0.004688720574
0.9750979194
-0.006978147175
0.974920694
-0.004675547094
0.9746169777
-0.004522656062
-0.4860435994
0.486598518
-0.005230465781
-0.4856052063
0.005769619121
0.4861181572
-0.006282570029
-0.4849423524
0.006771136486
0.4854015779
-0.00364024187
-0.003590120183
-0.2418820473
0.003870946577
0.2419836802
-0.003972579497
-0.240765008
0.004251478004
0.2408502421
-0.004336712092
-0.2391311817
0.0045689174
0.2391971858
-0.004634921417
-0.2350716662
0.004734203121
0.2350302662
-0.004692803167
-0.2269966278
0.004723875001
0.2271778023
-0.00490504955
-0.002181337371
0.9772473255
-0.004341931303
0.9772585133
-0.006453254685
0.9770320173
-0.004313110335
0.9766539602
-0.004177126933
-0.4871122342
0.4876190804
-0.004819956615
-0.4866042003
0.005309888761
0.4870678623
-0.00577355072
-0.4858354524
0.006212657695
0.4862459931
-0.003333724208
-0.003289474136
-0.24226976
0.003538824676
0.2423598099
-0.003628874625
-0.2410905103
0.003875666113
0.2411658741
-0.00395102986
-0.2393797101
0.00415435149
0.2394357935
-0.004210434907
-0.2348984879
0.004279995331
0.2348526397
-0.004234147159
-0.2276595204
0.004298488895
0.2278009876
-0.004439956055
-0.002026042193
0.9792733677
-0.004029496737
0.9792619678
-0.005981955469
0.9789844761
-0.003987968917
0.9785295788
-0.003869605157
-0.488088108
0.4885528904
-0.004452751304
-0.4875082596
0.004899950226
0.487929527
-0.005321217671
-0.4866351764
0.00571822754
0.4870047249
-0.003063857581
-0.003023918507
-0.2426145148
0.003247604639
0.2426951193
-0.003328209228
-0.2413794987
0.003549112287
0.2414468914
-0.003616504923
-0.2395914041
0.003796290973
0.2396393918
-0.00384427869
-0.2347113838
0.003890548107
0.2346634783
-0.003842642532
-0.2281747008
0.003931501116
0.2282838613
-0.004040661639
-0.001888356248
0.9811617239
-0.00375291092
0.9811265225
-0.005565871394
0.9807974365
-0.003700791295
0.9802648621
-0.00360036333
-0.4889829948
0.4894114221
-0.004129218697
-0.4883308221
0.004539687247
0.4887159468
-0.004924811953
-0.4873562501
0.005286222106
0.4876910412
-0.002827838291
-0.00279317494
-0.2429242498
0.002993835979
0.2429971607
-0.003066746853
-0.2416388717
0.003266652497
0.2416997616
-0.003327542433
-0.239772938
0.003487980885
0.2398142661
-0.003529309011
-0.2345187613
0.003557302364
0.2344704669
-0.003509007968
-0.2285709908
0.003615188697
0.2286545957
-0.003698793627
-0.001768719362
0.9829304433
-0.003512869959
0.9828706731
-0.005205513787
0.9824900804
-0.003451958125
0.9818803481
-0.003369041736
-0.4898080058
0.4902053894
-0.003849341736
-0.4890841091
0.004228656532
0.4894388475
-0.004583394948
-0.4880110383
0.004915372579
0.4883176475
-0.002626910192
-0.002595071651
-0.2432054841
0.002776483797
0.2432720883
-0.002843087981
-0.2418741043
0.003025929453
0.2419296866
-0.003081511809
-0.2399296813
0.003226054273
0.2399655337
-0.003261906634
-0.2343265614
0.003275605988
0.2342791235
-0.003228168162
-0.2288741214
0.003345731962
0.2289379927
-0.00340960326
-0.00166693229
0.9845973756
-0.003308728592
0.9845124694
-0.004899427108
0.9840807789
-0.003238972346
0.9833944874
-0.003174594044
-0.490573354
0.4909449183
-0.003610536582
-0.4897792946
0.003963806652
0.490108717
-0.004293229006
-0.4886122069
0.004600917295
0.4888961105
-0.002457515239
-0.002427305692
-0.2434634932
0.002592748852
0.2435249764
-0.002654231968
-0.2420896715
0.002823262753
0.2421409346
-0.00287452584
-0.2400660624
0.003006030294
0.2400974114
-0.00303737936
-0.2341392425
0.003040090546
0.2340935812
-0.002994429246
-0.2291058189
0.003118509796
0.2291547055
-0.003167396388
-0.001582937891
0.9861803134
-0.003140483876
0.9860700154
-0.004647082651
0.9855873776
-0.003063175817
0.9848274915
-0.003016910901
-0.4912889937
0.4916389038
-0.003413086015
-0.4904262998
0.003744843602
0.4907350112
-0.004053555008
-0.4891711585
0.004341344894
0.4894377927
-0.002317547651
-0.002290431397
-0.2437027514
0.002441628512
0.2437602172
-0.002499094362
-0.2422893339
0.002657253809
0.2423371597
-0.002705079659
-0.2401857345
0.002826057784
0.2402134238
-0.002853747097
-0.233959923
0.002848291382
0.2339165718
-0.002804940092
-0.2292834682
0.002932035179
0.2293210771
-0.002969644013
-0.001517296862
0.9876976103
-0.00300832174
0.9875610403
-0.004448613772
0.9870276697
-0.002916504929
0.986187142
-0.002891759394
-0.4919622194
0.492299357
-0.003253642542
-0.491034106
0.003569425374
0.4913264588
-0.003861778232
-0.4896962344
0.004133589295
0.4899477858
-0.002202933299
-0.002182207359
-0.2439276527
0.002321008635
0.2439821488
-0.002375504673
-0.2424764326
0.002525418586
0.2425215978
-0.002570583746
-0.2402919304
0.002683270389
0.2403167283
-0.002708068353
-0.2337903085
0.002696834423
0.2337495233
-0.00265604923
-0.2294204227
0.002783837887
0.2294495345
-0.002812949667
-0.001467295435
0.9891649057
-0.002909116372
0.9890028612
-0.004300651625
0.9884192049
-0.00281713117
0.9875075839
-0.002803962294
-0.492609379
0.4929299538
-0.003137705993
-0.4916109557
0.003438124145
0.4918900659
-0.003717234373
-0.4901933709
0.003976951704
0.4904337662
-0.002115797578
-0.00210154942
-0.2441417248
0.002228775858
0.2441939518
-0.002281002866
-0.2426538575
0.002424688807
0.2426970083
-0.002467839638
-0.2403876149
0.002574206207
0.2404102251
-0.002596816394
-0.2336312024
0.00258184509
0.2335931207
-0.002543763376
-0.2295266271
0.002670781392
0.2295492861
-0.002693440415
-0.001442002557
0.9906069083
-0.002851925184
0.9904127838
-0.004214356853
0.9897816366
-0.002759983419
0.9887935945
-0.002740384082
-0.4932284446
0.4935245373
-0.003056076119
-0.4921636724
0.003347746764
0.4924339455
-0.003618019812
-0.4906700822
0.003869146725
0.4909022081
-0.002054025731
-0.002047246836
-0.2443477539
0.00216363069
0.2443983671
-0.002214243899
-0.2428241387
0.002353473441
0.2428658527
-0.002395187479
-0.2404755861
0.002497094957
0.2404966932
-0.002518202022
-0.2334831032
0.002501340832
0.2334478871
-0.0024661248
-0.22960947
0.00259162085
0.2296272077
-0.002609358621
-0.001412077688
-0.002807057455
-0.004151470372
-0.002728786266
-0.002668920785
-0.493826985
0.4941212156
-0.003023016839
-0.4926988353
0.003301417687
0.4929620847
-0.003564667045
-0.491132532
0.003810250724
0.4913591903
-0.002021642821
-0.002015266227
-0.2445480828
0.002125687818
0.2445975617
-0.00217516672
-0.2429894711
0.002311271985
0.2430302347
-0.002352035602
-0.2405586698
0.002451363057
0.2405790746
-0.002471767826
-0.2333468407
0.002455123616
0.2333146252
-0.002422908129
-0.2296744338
0.002547199058
0.2296882944
-0.002561059584
0.003089183718
-0.003162360068
-0.05249682384
0.003627778906
-0.003736723278
-0.05439066075
0.008006974442
-0.2152964336
-0.00443291583
-0.004542690824
0.1055482265
-0.003066465845
-0.1052389444
0.005846367463
0.02507188854
-0.2195579518
-0.0212039293
-0.005179657784
0.1091728696
-0.003606087607
-0.1087825437
0.00684354067
-0.003155341837
0.006005870028
0.1058312114
0.05317203337
0.003342824924
-0.003423822356
-0.05309103594
0.02613365913
-0.0003405872882
-0.02668867627
0.0008956044275
-0.02772986608
-0.0008520951676
0.001245696053
0.02733626519
0.007254274386
-0.007530758504
-0.1122375873
-0.001385751575
-0.02796574136
0.001621626862
0.02715308534
-0.000879596071
-0.02765924084
-0.003200730723
0.04576693422
0.004326501535
-0.02498568411
-0.02190702092
-0.0002644041678
0.0007086709741
0.02568939232
0.003370452157
0.05325236133
-0.00345078012
-0.02227307635
0.02209999825
-9.132607142e-05
0.02723560879
-0.005557275015
-0.01266271912
-0.01221634537
0.02666637402
-0.0003653838542
-0.02266369116
5.002751821e-05
0.005543586605
0.0257380681
-0.02414473474
-0.001239256193
0.001669653024
0.02371433791
-0.05191575169
0.003563054323
0.052005484
-0.003652786628
0.05223115127
0.003646550625
-0.05218026085
-0.001871444869
-0.001825996173
-0.051844724
0.003372526958
0.05186352273
-0.003391325686
0.003508028976
-0.003540078827
-0.05188370183
-0.0008026332413
-0.02461177116
0.001269669662
-0.02499110988
-0.001158149373
0.001428524681
0.02472073457
-0.05156986217
0.003191876422
0.05161959887
-0.003241613127
0.003347275516
-0.00340736263
-0.05178463689
0.003137636773
-0.003173622686
-0.05153387625
-0.0009735924627
-0.02531123859
0.001293721171
0.02467415662
-0.0005408159735
-0.02510693311
0.02423951128
-0.0007235040357
0.003666729899
0.05225631415
-0.001859330886
-0.001832561897
0.052547999
0.01411005422
-0.05240523562
-0.005384300203
-0.008868517398
-0.01219174749
0.02502711149
-0.02434211763
0.01150675363
0.01192233526
-0.0154202345
-0.008693848242
0.02422283149
-0.02417800513
0.005151546366
-0.02460843383
-0.00591906631
0.005899520244
0.02462797989
0.02366238061
-0.0002733183832
-0.02419169547
0.02912635314
-0.02316654224
-0.0004162242968
-0.006049824553
-0.02464543005
0.00608682078
-0.006977156426
0.01382690197
0.0222766076
0.02293643369
-0.0005133092737
0.02554491433
0.0252890841
-0.02541550423
0.009767301578
-0.01052788743
-0.224122395
0.2249461093
0.01297149932
-0.007305955815
-0.1116709363
-0.111686442
0.006949159855
0.1095862088
0.1108868731
0.007486672291
-0.007999732045
-0.1103738133
-0.007871749981
0.09295345546
-0.09326060963
0.00817890417
-0.00314278888
0.004397393328
0.04451232978
-0.004771549923
-0.02624051996
0.003708787115
0.02730328277
-0.02625421844
0.002057500111
0.02656241265
-0.002365694317
0.02651249618
0.001769781654
-0.001618822312
-0.02666345552
0.02942451392
-0.005331694009
0.08706379956
-0.01130833978
-0.08362720976
0.0263624565
0.0009144336481
-0.0005223745104
-0.02675451564
-0.02471869099
0.004271914711
0.02660236158
-0.006155585306
-0.03132845522
0.02342982254
0.03292574417
0.0241536738
0.05381514563
-0.01897797828
-0.00644284214
0.004068045552
0.0540276483
-0.004173832506
-0.05392186134
0.001727112324
0.02631578572
-0.001530401862
0.02573347443
0.001847447513
-0.001692018223
-0.02588890372
-0.0004888384691
0.02425651477
-0.02473714973
0.000969473431
0.0251260388
0.02133433
-0.02161545949
-0.0002077089774
0.02242161199
-0.004325430524
-0.01720270196
-0.0008934795047
-0.009023600227
0.05078183332
-0.05041657078
0.008658337692
0.002679592594
0.02423067096
-0.01940611996
0.02537554602
0.0005239829843
-0.0001316702039
-0.0257678588
-0.03063201886
0.02581959812
4.087081712e-05
-0.02546102319
0.001839975837
0.02547794053
-0.001856893174
0.002027021314
-0.002423764028
-0.02585747572
-0.006004312598
-0.02446782432
0.004231616961
-0.0005524503207
-0.02595731314
0.001000049204
0.02550971425
-0.02581061175
0.0016963365
0.02569372145
-0.001579446202
0.00177553103
-0.001710881442
-0.02552567278
0.0008820526376
0.02595389242
-0.0004734885581
0.003649861009
-0.004627638511
-0.02374091348
-0.001251443803
0.00168542429
0.02382253428
0.002176406848
0.02567126043
-0.00211419285
0.02652540942
0.009376375728
-0.009850953092
-0.02605083205
-0.002259850237
0.02759238392
-0.02195447186
-0.003378061818
-0.004941856099
0.009530668575
0.01783279952
0.02046967835
-0.0003867921582
-0.01843692522
0.02410344409
-0.004952491933
-0.0007140269373
0.02071361906
-0.005007353642
-0.02003169594
0.02439216225
-0.005348150848
-0.02452573844
0.00548172704
0.02499406193
-0.0001709662255
0.01481685462
-0.000832020599
-0.0241957664
-0.006529922015
0.006322104243
0.02440358418
-0.00460170757
-0.01313767013
-0.000697547512
-0.006768649673
-0.02412035951
0.006693242778
-0.01468415911
-0.02195217235
-0.02615246984
0.001738076425
0.02605376969
-0.00163937628
0.001635785745
-0.001563517754
-0.02588287974
-0.02641127542
0.0009779452644
-0.02568608434
0.003065824573
0.02689217447
-0.0257516661
0.00181564891
0.02589647195
-0.001960454757
0.001657501851
-0.001709096499
-0.02610087519
-0.02387160022
0.02303166049
-3.965634091e-05
0.00235260171
-0.02621157171
-1.263021805e-05
-0.02772170027
0.002415061138
0.02187150851
0.0001665114675
6.197828014e-05
-0.0001330744755
0.02620170445
0.000597744049
-0.02272460514
0.02247970382
0.0001118268542
-5.832851353e-05
-0.02354413002
0.0008663666017
1.407226233e-05
-0.02551267087
0.001612906198
0.02550732277
-0.0016075581
0.001759910649
-0.0019079532
-0.02560362355
-0.02482299068
0.002786767356
-0.02631129085
0.001211812123
0.02598153137
-0.02565445283
0.001557710172
0.02561160102
-0.00151485836
0.001589378921
-0.001563428627
-0.02553862116
-0.02472470708
0.02431767719
-0.0001337860735
0.0004726222388
-9.628769264e-05
-0.02510104163
0.0008990547962
-0.02553336567
-0.001197429576
0.02384538405
0.001591556805
-0.02381831973
0.02312853146
-0.0005076413081
-0.0002241465791
0.006854784159
-0.007354761804
-0.02384213998
0.02529768793
-0.02481686935
0.006373965575
0.02623623609
0.01056820547
0.0002222846713
0.005258277842
-0.005480562512
-0.01840436198
-0.004370634321
0.005350099422
0.02433125042
0.02097418469
-0.00520242173
0.02224468808
-0.002496252232
-0.02200828609
-0.02163033252
0.0213471202
9.893938243e-06
0.0002348880165
-0.02180415764
-6.106289724e-05
-0.02460616513
0.000649357678
-0.01937499326
-0.0004344182343
0.01480249267
-0.0009755907025
-0.005430473218
0.0208113076
-0.0005783417148
0.02351749041
-0.006671356019
-0.001494798421
0.02209391795
0.002337314161
-0.02078010854
0.01929402698
-8.716863876e-06
5.370239316e-05
0.02572556412
-0.02583135512
0.02257526346
0.0002180822972
-3.645684429e-05
0.02244725825
0.0001806310185
-5.262580204e-05
0.01500766188
-0.01499563124
-1.203063547e-05
-0.004816265544
0.003696926861
-0.03102075727
-7.079979213e-06
-0.0221686807
0.0199260934
0.02722009435
-0.02062077833
0.02673849877
0.001809542869
-0.001704154639
-0.026843887
-0.0003832714956
0.0223195653
-0.02310891458
0.00117262078
0.0006910322198
-0.0002067972559
-0.02522138469
0.02544664677
-0.02592753364
0.001171919087
0.02501372045
0.001402399754
4.925176481e-05
-0.01227389979
-0.003941923704
-0.0009868784706
-0.01091274489
-0.001361154897
0.01200502231
-0.001930558859
-0.01045773494
0.01900644784
-0.004786050644
-0.01886778745
0.004647390253
0.003178911499
0.004140578429
0.02027289399
-0.02227745728
0.02212369757
2.208950781e-05
8.223429996e-05
0.0001200122374
0.0005160799453
0.002411332577
-0.0001358644708
0.02198651022
-0.02213711411
5.431619724e-05
0.02181690163
3.582251394e-05
0.02229426419
0.0001157610412
3.723301708e-05
8.525597924e-05
7.189410576e-05
-0.02229724173
-0.004499077483
0.002332483714
-0.001501193979
0.002436954285
0.01951150575
-0.02102709785
1.439813019e-05
1.679702284e-05
0.02156268072
3.007433435e-05
2.794155404e-05
0.02473459327
0.001964551477
-0.003497572436
0.003415296354
-0.003517178134
0.001013290826
-0.01862276277
-0.004344999919
0.01885362361
-0.01527606797
-0.002564264807
0.01569784646
0.01120987113
-0.001679202549
-0.002566029181
-0.001500167664
-0.00335599243
-0.001451861761
-0.005531901799
0.018722601
-0.02172298444
-0.005788827988
0.02197991063
-0.021090327
-0.005585149372
-0.0001997349422
0.0005876317416
-0.0219689821
-3.491048209e-05
-1.625076085e-05
-0.0005064102842
-0.01963310967
0.02571065721
-0.005393790483
-0.0006837570541
-0.01394761011
-0.005009739257
-0.0006757602939
-0.01983402239
-0.005858012176
0.01203421418
-0.006157579366
-0.001103455947
-0.01297385396
-0.0009737561547
0.00587696006
-0.006479829163
0.02722526539
-0.0005369977206
0.02094465421
-0.0149073559
0.0002231967934
0.004417311369
-3.064028452e-05
0.004559056971
0.006388766211
-0.006274422398
-0.229789833
-0.005912742618
0.2290007602
-0.2292077501
0.005837093052
-0.005782277858
-0.2285083885
-0.005876727352
0.2247656194
-0.2248426049
0.00573599415
-0.006165397715
-0.2231485806
0.2178222445
-0.2170583718
0.007220480698
0.02190431569
-0.02185313087
-0.2287334195
-0.02150046785
0.2270710978
-0.2274628496
0.02161019188
0.006632015326
0.2283003523
-0.02143391598
-0.2268816284
-0.02186315054
0.2246996609
-0.2246265778
0.02158035494
0.005924940822
0.224661475
-0.02232742565
-0.2237091206
0.2217035743
-0.2205520212
0.02391085881
0.007518047468
0.2186448615
0.2182991093
0.008622888358
-0.004814255169
-0.00484102697
0.1083398758
-0.005424946001
-0.1080518407
0.005136910956
-0.107226857
-0.005162752054
0.004893285141
0.1074963239
0.05285954692
0.003228521468
-0.003311553417
-0.05277651497
0.0522320546
-0.05217412242
0.003450096802
-0.05203130147
0.003323155717
0.05208067271
0.008004702332
-0.008118741991
-0.2277621784
-0.008112376935
0.2255656935
-0.2258746169
0.0081507529
0.00673710868
0.2266444713
-0.008073318421
-0.2254256495
-0.008218903375
0.2244977488
-0.224611678
0.008110077933
0.006543736246
0.2247006902
-0.008423602703
-0.2244714433
0.224749427
-0.2242301079
0.009189545977
0.008446999037
0.2226632332
-0.01063816101
0.2230940274
0.009524015084
0.2225304733
-0.005957084961
-0.1106998688
-0.1105720754
-0.005939605126
-0.1099100566
-0.005858544606
0.005538854216
0.110229747
0.1098797118
0.007450261974
-0.003957074587
-0.003972029605
0.05483601277
-0.004336017616
-0.05463184162
0.004131846475
-0.05420753658
-0.004137123665
0.004013688971
0.05433097128
0.009309847573
-0.009973383434
-0.2282445731
-0.01139622665
0.225381582
-0.2252181858
0.01101029969
0.008818484178
0.2253392244
-0.01170398033
-0.2246119914
-0.01227166507
0.2239865077
-0.2240675314
0.01212770694
0.008916669299
0.2243551693
-0.01239066509
-0.2242391859
-0.01276394607
0.2253891892
-0.2253733542
0.01262128308
0.009698188234
0.225093239
-0.01293928449
-0.2258559832
-0.013744431
0.2276996983
-0.2275113306
0.0135251559
0.01254912571
0.2262142622
-0.01297369242
-0.2234007661
0.008660863416
-0.01006397199
-0.2316115536
-0.0138045612
0.2280737889
-0.2270594118
0.01265378533
0.0116726003
0.2257272467
-0.01484281207
-0.2260011309
-0.01724191935
0.2249445002
-0.2244462628
0.01656102597
0.0133489983
0.2239982561
-0.01781169083
-0.2244266308
-0.01898785522
0.2256445672
-0.2254616034
0.0186661282
0.01403717671
0.2253759082
-0.01927589011
-0.2260845424
-0.01939242542
0.2268390115
-0.2272610276
0.01975866154
0.01476790952
0.2277045601
-0.01844048928
-0.2197977304
0.007843340028
-0.008193612117
-0.2352399975
-0.01153082712
0.2343546236
-0.2324889192
0.009638042867
0.0124514585
0.2293242146
-0.0133558067
-0.2309320605
-0.01818225505
0.2291466423
-0.2277622959
0.01670044854
0.01720056877
0.2256569012
-0.01952150784
-0.2272315716
-0.02267912884
0.2279057602
-0.2270858056
0.0217633794
0.01999875177
0.2259632694
-0.02347306022
-0.227508284
-0.02366470281
0.2243450376
-0.2250163637
0.02429270441
0.02140486413
0.2263050656
-0.02329630699
-0.2164662901
0.00736476832
-0.007665628114
-0.2365669064
-0.008571373828
0.2364402922
-0.2361384334
0.008269514969
0.008754529462
0.2354892096
-0.008872346557
-0.235934864
-0.01066115088
0.2354697322
-0.2343429799
0.009528114681
0.01551245654
0.2307272166
-0.01244149192
-0.2332397576
-0.01710219404
0.232662911
-0.2312985672
0.01570852092
0.02125630209
0.228892752
-0.01829634275
-0.2311268643
-0.01927920208
0.2226458104
-0.2228389019
0.01945545718
0.02414478268
0.2237247848
-0.01978273213
-0.2163454431
0.006829111565
-0.007085307861
-0.2377023659
-0.007839740245
0.2375109863
-0.2372624949
0.007591248805
0.008101606003
0.2367278167
-0.008084495487
-0.237050519
-0.008790922637
0.2364795771
-0.2362491508
0.008560496236
0.009237816516
0.2357453521
-0.009016181309
-0.2359304208
-0.009645330486
0.235136173
-0.2349398823
0.009449039811
0.01253327293
0.2340884423
-0.00979152229
-0.2345364075
-0.009460325632
0.2225781679
-0.2227351522
0.009617309965
0.01646690554
0.222638725
-0.009877128179
-0.2186405019
0.006281057048
-0.006499044234
-0.2386690773
-0.007128936217
0.2383943579
-0.2381889478
0.006923526142
0.007423968303
0.2377478526
-0.007329291088
-0.2379596665
-0.007897787623
0.2372809335
-0.2370969465
0.007713800653
0.008344348061
0.2366971098
-0.008076181706
-0.2367567261
-0.008548106928
0.2357704663
-0.2356320261
0.00840966672
0.009179151909
0.2353160444
-0.008628838384
-0.2350141732
-0.008345295993
0.2222221307
-0.2222748326
0.008397997916
0.009292818425
0.2224511659
-0.008769616548
-0.2203345778
0.00574739783
-0.005933370204
-0.2394923603
-0.006462502704
0.2391279367
-0.2389567674
0.006291333389
0.006762811633
0.2385904846
-0.006628239769
-0.2387064779
-0.007092929742
0.2379276402
-0.2377780932
0.006943382811
0.007515246413
0.2374553667
-0.007236829044
-0.2374153662
-0.007593137316
0.2362147051
-0.2361185289
0.007496961078
0.008171666522
0.2358971661
-0.007629058366
-0.2352649821
-0.007410476246
0.2222175607
-0.2221904563
0.007383371792
0.00812839296
0.2221913872
-0.00780594201
-0.2219968641
0.005241342482
-0.005400745985
-0.2401959348
-0.00584873518
0.2397427123
-0.239598686
0.005704708927
0.006138511087
0.2392916797
-0.005987478084
-0.2393267706
-0.006373420685
0.2384588626
-0.2383351788
0.006249736836
0.006761051234
0.2380699943
-0.00649136106
-0.2379497886
-0.006759898003
0.2365173195
-0.2364528339
0.006695412449
0.007284786294
0.2363020739
-0.0067643531
-0.2353578785
-0.006616799379
0.2224789141
-0.2223932114
0.006531096669
0.007154596437
0.2222612547
-0.006964736351
-0.2235108913
0.004772038287
-0.004909399809
-0.2408002522
-0.005291992861
0.2402634042
-0.2401409261
0.005169514766
0.005564887539
0.239880853
-0.005409617676
-0.239848461
-0.005735002139
0.2389023743
-0.238798564
0.005631191871
0.006087011204
0.238577078
-0.005832750543
-0.2383897778
-0.006033576951
0.2367134264
-0.2366728238
0.005992974311
0.006509691467
0.2365751748
-0.006016609556
-0.2353408176
-0.00593533892
0.2229257846
-0.2228006634
0.005810217732
0.006338362469
0.222576128
-0.006229103607
-0.2248220765
0.004345242402
-0.004464544461
-0.2413225251
-0.004794734702
0.2407095058
-0.2406040811
0.004689310012
0.005045623176
0.2403812708
-0.004895836802
-0.2402929837
-0.005173926373
0.2392774534
-0.2391892826