/*--------------------------------*- C++ -*----------------------------------*\
| =========                 |                                                 |
| \\      /  F ield         | OpenFOAM: The Open Source CFD Toolbox           |
|  \\    /   O peration     | Version:  v2012                                 |
|   \\  /    A nd           | Website:  www.openfoam.com                      |
|    \\/     M anipulation  |                                                 |
\*---------------------------------------------------------------------------*/
FoamFile
{
    version     2.0;
    format      ascii;
    class       pointVectorField;
    location    "3";
    object      pointDisplacement;
}
// * * * * * * * * * * * * * * * * * * * * * * * * * * * * * * * * * * * * * //

dimensions      [0 1 0 0 0 0 0];


internalField   nonuniform List<vector> 
6962
(
(0 0 0)
(0 0 0)
(0 0 0)
(0 0 0)
(0 0 0)
(0 0 0)
(0 0 0)
(0 0 0)
(0 0 0)
(0 0 0)
(-0.000719781322 0.0001953857653 5.606626274e-15)
(0 0 0)
(0 0 0)
(0 0 0)
(0 0 0)
(0 0 0)
(0 0 0)
(0 0 0)
(0 0 0)
(0 0 0)
(0 0 0)
(0 0 0)
(0 0 0)
(0 0 0)
(0 0 0)
(-0.001279742867 0.0001314745068 9.964251646e-15)
(-0.001166716573 0.0001692620527 9.076073226e-15)
(-0.0009985041383 0.0001869134866 7.771561172e-15)
(-0.004967334236 0.001030749884 4.242439733e-14)
(-0.005337115263 0.0008613162071 4.557465516e-14)
(-0.008095133752 0.001384947371 7.260858581e-14)
(-0.007642715804 0.001677721479 6.857014956e-14)
(-0.01625697988 0.004295206782 1.717653797e-13)
(-0.01655969392 0.003427667157 1.748323708e-13)
(-0.01882460912 0.004170248363 2.111782971e-13)
(-0.01857430922 0.005245695131 2.08569273e-13)
(-0.0220847121 0.007756783295 3.057692988e-13)
(-0.02216485104 0.006114307764 3.064493104e-13)
(-0.02204966414 0.006594072107 3.306244167e-13)
(-0.02191804499 0.008347839221 3.292227602e-13)
(-0.01776572351 0.009016696907 0)
(-0.01780758697 0.0070701689 0)
(-0.01574066009 0.007024405364 0)
(-0.01571991692 0.007997334297 0)
(-0.01569944304 0.008970359811 0)
(-0.009521951609 0.008833596062 0)
(-0.00953145375 0.008347564375 0)
(-0.009019666138 0.008336574676 0)
(-0.009010212288 0.00882247172 0)
(0 0 0)
(0 0 0)
(0 0 0)
(0 0 0)
(0 0 0)
(0 0 0)
(0 0 0)
(0 0 0)
(0 0 0)
(0 0 0)
(0 0 0)
(0 0 0)
(0 0 0)
(0 0 0)
(-0.001213634318 -8.070878866e-05 9.492406861e-15)
(-0.001371519141 -3.296457502e-05 1.072752998e-14)
(-0.001465553757 2.694807123e-05 1.146305273e-14)
(-0.005911427131 0.0001333988112 5.069555886e-14)
(-0.005721483118 -0.0001374083946 4.90579799e-14)
(-0.00853514264 -0.0002017197652 7.686906667e-14)
(-0.008762574638 0.0002218341006 7.893685705e-14)
(-0.01730922489 0.0006136540089 1.834643548e-13)
(-0.01703151314 -0.0003776127205 1.804389971e-13)
(-0.01926714577 -0.0004236929407 2.168265567e-13)
(-0.01953761043 0.0007663488345 2.200045701e-13)
(-0.02260896682 0.001151346072 3.137073934e-13)
(-0.02243180228 -0.0005476108092 3.108624469e-13)
(-0.02214640174 -0.0005929885292 3.328587406e-13)
(-0.02227194439 0.001222695409 3.352457201e-13)
(-0.01770492276 0.001206327867 0)
(-0.01774896401 -0.0007404675868 0)
(-0.01567627126 -0.000787356948 0)
(-0.01565425575 0.0001858146704 0)
(-0.01563223001 0.001159438506 0)
(-0.009414242204 0.001018772468 0)
(-0.009436267948 4.514863277e-05 0)
(-0.008399966795 2.170497519e-05 0)
(-0.008388948808 0.0005087430017 0)
(-0.008377941051 0.0009953288109 0)
(-0.008896091627 0.00100705064 0)
(0 0 0)
(0 0 0)
(0 0 0)
(0 0 0)
(0 0 0)
(0 0 0)
(0 0 0)
(0 0 0)
(0 0 0)
(0 0 0)
(0 0 0)
(0 0 0)
(0 0 0)
(0 0 0)
(-0.0002834671127 -6.706253475e-05 2.220446049e-15)
(-0.0005143537132 -9.981103984e-05 4.024558464e-15)
(-0.0007641669578 -0.000115781353 5.967448757e-15)
(-0.004384211528 -0.0007200919815 3.760880496e-14)
(-0.003745791114 -0.0007909253919 3.214095656e-14)
(-0.006101432024 -0.001345080893 5.498379529e-14)
(-0.006901935642 -0.001180820784 6.218636717e-14)
(-0.01492548245 -0.002922826665 1.580957587e-13)
(-0.01383742528 -0.00351570564 1.46632706e-13)
(-0.01606021465 -0.004308100173 1.807165528e-13)
(-0.01716571824 -0.003542880647 1.930816618e-13)
(-0.02084163269 -0.005224105754 2.88227775e-13)
(-0.01992553897 -0.006504252745 2.755712325e-13)
(-0.02008975793 -0.007102735708 3.010230953e-13)
(-0.02087241685 -0.00566983395 3.128330928e-13)
(-0.01767757656 -0.006515060758 3.554240235e-13)
(-0.0174119763 -0.008308477521 3.495537193e-13)
(-0.01570964116 -0.00850632481 3.562566908e-13)
(-0.01579843247 -0.006624921242 3.590738817e-13)
(-0.009590427695 -0.006769313783 0)
(-0.009634479183 -0.008716561454 0)
(-0.007561831655 -0.008763449792 0)
(-0.007517780167 -0.006816202121 0)
(-0.008554126542 -0.00679275744 0)
(0 0 0)
(0 0 0)
(0 0 0)
(0 0 0)
(0 0 0)
(0 0 0)
(0 0 0)
(0 0 0)
(0 0 0)
(0 0 0)
(0 0 0)
(0 0 0)
(0 0 0)
(0 0 0)
(0 0 0)
(0 0 0)
(-6.962714678e-06 -2.238919681e-06 5.551115123e-17)
(-0.00166647607 -0.0005869053124 1.432187702e-14)
(-0.001046100788 -0.0004176444155 8.992806499e-15)
(-0.002433239033 -0.001019093777 2.198241589e-14)
(-0.00334228617 -0.001233717964 3.017031069e-14)
(-0.009731654821 -0.004186396468 1.033895192e-13)
(-0.008199061109 -0.004012540645 8.720801858e-14)
(-0.01014387878 -0.005259810015 1.146027717e-13)
(-0.01178406964 -0.00536724634 1.329492072e-13)
(-0.01600757344 -0.00890316141 2.21975216e-13)
(-0.01436514527 -0.009106529796 1.995625887e-13)
(-0.01499729169 -0.01028970174 2.256805853e-13)
(-0.01654494925 -0.0099590422 2.484956685e-13)
(-0.01541461218 -0.01242558367 3.094469125e-13)
(-0.01432852202 -0.01315274734 2.881722638e-13)
(-0.01334661984 -0.01383643895 3.027300632e-13)
(-0.01425571456 -0.01298568677 3.227973444e-13)
(-0.009320633052 -0.01396927872 3.445577157e-13)
(-0.008870640688 -0.01509998833 3.283345817e-13)
(-0.00705843031 -0.01529275313 3.316930064e-13)
(-0.007396056533 -0.01411637437 3.47152862e-13)
(0 0 0)
(0 0 0)
(0 0 0)
(0 0 0)
(0 0 0)
(0 0 0)
(0 0 0)
(0 0 0)
(0 0 0)
(0 0 0)
(0 0 0)
(0 0 0)
(0 0 0)
(0 0 0)
(0 0 0)
(0 0 0)
(0 0 0)
(-6.112725694e-06 -3.300455573e-06 5.551115123e-17)
(0 0 0)
(-6.294721141e-05 -3.884476787e-05 5.689893001e-16)
(-0.0003720144118 -0.0002112069423 3.358424649e-15)
(-0.003756421731 -0.002509815845 4.013456234e-14)
(-0.002504016215 -0.001822604376 2.678413047e-14)
(-0.003729985599 -0.002884774563 4.243827512e-14)
(-0.005204400171 -0.003692050574 5.910549827e-14)
(-0.008928916985 -0.007780370238 1.250111126e-13)
(-0.00711779269 -0.00677489686 9.997558337e-14)
(-0.007887176041 -0.008136889421 1.201538868e-13)
(-0.009703588355 -0.009159567192 1.472988398e-13)
(-0.01011687337 -0.01279034853 2.05752082e-13)
(-0.008540145499 -0.01181796182 1.746103262e-13)
(-0.008189110938 -0.01280645083 1.891542478e-13)
(-0.009624202929 -0.01374275922 2.209621375e-13)
(-0.00665338977 -0.01563241186 2.505773367e-13)
(-0.00573181165 -0.01479476058 2.180061687e-13)
(-0.004572104935 -0.01510220162 2.223082829e-13)
(-0.00530906588 -0.01592428581 2.549072065e-13)
(0 0 0)
(0 0 0)
(0 0 0)
(0 0 0)
(0 0 0)
(0 0 0)
(0 0 0)
(0 0 0)
(0 0 0)
(0 0 0)
(0 0 0)
(0 0 0)
(0 0 0)
(0 0 0)
(0 0 0)
(0 0 0)
(0 0 0)
(0 0 0)
(0 0 0)
(0 0 0)
(0 0 0)
(-0.000161518108 -0.000146329778 1.734723476e-15)
(0 0 0)
(-0.0001174107953 -0.0001206739299 1.346145417e-15)
(-0.0005821035177 -0.0005616144772 6.64746036e-15)
(-0.002483317319 -0.002968348607 3.520794767e-14)
(-0.001384675955 -0.001767257462 1.967870311e-14)
(-0.001865769997 -0.002588713855 2.883804306e-14)
(-0.003075211252 -0.003992805386 4.737876758e-14)
(-0.004030752612 -0.007068325299 8.393286066e-14)
(-0.00277485207 -0.005214263125 5.812017534e-14)
(-0.002817078609 -0.006005989882 6.694644838e-14)
(-0.004005803407 -0.007960686867 9.452161276e-14)
(-0.0029532938 -0.009828390351 1.166011732e-13)
(-0.002142360155 -0.007693192875 8.57092175e-14)
(-0.001707383374 -0.007959211066 8.865130852e-14)
(-0.002351927543 -0.01012028332 1.20015109e-13)
(0 0 0)
(0 0 0)
(0 0 0)
(0 0 0)
(0 0 0)
(0 0 0)
(0 0 0)
(0 0 0)
(0 0 0)
(0 0 0)
(0 0 0)
(0 0 0)
(0 0 0)
(0 0 0)
(0 0 0)
(0 0 0)
(0 0 0)
(0 0 0)
(0 0 0)
(0 0 0)
(0 0 0)
(0 0 0)
(0 0 0)
(0 0 0)
(0 0 0)
(0 0 0)
(0 0 0)
(0 0 0)
(-1.815727599e-05 -2.994812801e-05 2.775557562e-16)
(-0.0003253228803 -0.000732529538 6.89726054e-15)
(-3.662811263e-05 -8.6849488e-05 7.771561172e-16)
(-7.998519982e-05 -0.0002160761714 1.942890293e-15)
(-0.0004118587428 -0.001055685513 9.950373858e-15)
(-0.0004223762582 -0.001852977943 1.745825706e-14)
(-0.0001367152966 -0.0006344999571 5.689893001e-15)
(-0.0001171214618 -0.0007148834308 6.411537967e-15)
(-0.0003455897623 -0.001989316785 1.873501354e-14)
(0 0 0)
(0 0 0)
(0 0 0)
(0 0 0)
(0 0 0)
(0 0 0)
(0 0 0)
(0 0 0)
(0 0 0)
(0 0 0)
(0 0 0)
(0 0 0)
(0 0 0)
(0 0 0)
(0 0 0)
(0 0 0)
(0 0 0)
(0 0 0)
(0 0 0)
(0 0 0)
(0 0 0)
(0 0 0)
(0 0 0)
(0 0 0)
(0 0 0)
(0 0 0)
(0 0 0)
(0 0 0)
(0 0 0)
(0 0 0)
(0 0 0)
(0 0 0)
(0 0 0)
(0 0 0)
(0 0 0)
(0 0 0)
(0 0 0)
(0 0 0)
(0 0 0)
(0 0 0)
(0 0 0)
(0 0 0)
(0 0 0)
(0 0 0)
(0 0 0)
(0 0 0)
(0 0 0)
(0 0 0)
(0 0 0)
(0 0 0)
(0 0 0)
(0 0 0)
(0 0 0)
(0 0 0)
(0 0 0)
(0 0 0)
(0 0 0)
(0 0 0)
(0 0 0)
(0 0 0)
(0 0 0)
(0 0 0)
(0 0 0)
(0 0 0)
(0 0 0)
(0 0 0)
(0 0 0)
(0 0 0)
(0 0 0)
(0 0 0)
(0 0 0)
(0 0 0)
(0 0 0)
(0 0 0)
(0 0 0)
(0 0 0)
(0 0 0)
(0 0 0)
(0 0 0)
(0 0 0)
(0 0 0)
(0 0 0)
(0 0 0)
(0 0 0)
(0 0 0)
(0 0 0)
(0 0 0)
(0 0 0)
(0 0 0)
(0 0 0)
(0 0 0)
(0 0 0)
(0 0 0)
(0 0 0)
(0 0 0)
(0 0 0)
(0 0 0)
(0 0 0)
(0 0 0)
(0 0 0)
(0 0 0)
(0 0 0)
(0 0 0)
(0 0 0)
(0 0 0)
(0 0 0)
(0 0 0)
(0 0 0)
(0 0 0)
(0 0 0)
(0 0 0)
(0 0 0)
(0 0 0)
(0 0 0)
(0 0 0)
(0 0 0)
(0 0 0)
(0 0 0)
(0 0 0)
(0 0 0)
(0 0 0)
(0 0 0)
(0 0 0)
(0 0 0)
(0 0 0)
(0 0 0)
(0 0 0)
(0 0 0)
(0 0 0)
(0 0 0)
(0 0 0)
(0 0 0)
(0 0 0)
(0 0 0)
(0 0 0)
(0 0 0)
(0 0 0)
(0 0 0)
(0 0 0)
(0 0 0)
(0 0 0)
(0 0 0)
(0 0 0)
(0 0 0)
(0 0 0)
(0 0 0)
(0 0 0)
(0 0 0)
(0 0 0)
(0 0 0)
(0 0 0)
(0 0 0)
(0 0 0)
(0 0 0)
(0 0 0)
(0 0 0)
(0 0 0)
(0 0 0)
(0 0 0)
(0 0 0)
(0 0 0)
(0 0 0)
(0 0 0)
(0 0 0)
(0 0 0)
(0 0 0)
(0 0 0)
(0 0 0)
(0 0 0)
(0 0 0)
(0 0 0)
(0 0 0)
(0 0 0)
(0 0 0)
(0 0 0)
(0 0 0)
(0 0 0)
(0 0 0)
(0 0 0)
(0 0 0)
(0 0 0)
(0 0 0)
(0 0 0)
(0 0 0)
(0 0 0)
(0 0 0)
(0 0 0)
(0 0 0)
(0 0 0)
(0 0 0)
(0 0 0)
(0 0 0)
(0 0 0)
(0 0 0)
(0 0 0)
(0 0 0)
(0 0 0)
(0 0 0)
(0 0 0)
(0 0 0)
(0 0 0)
(0 0 0)
(0 0 0)
(0 0 0)
(0 0 0)
(0 0 0)
(0 0 0)
(0 0 0)
(0 0 0)
(0 0 0)
(0 0 0)
(0 0 0)
(0 0 0)
(0 0 0)
(0 0 0)
(0 0 0)
(0 0 0)
(0 0 0)
(0 0 0)
(0 0 0)
(0 0 0)
(0 0 0)
(0 0 0)
(0 0 0)
(0 0 0)
(0 0 0)
(0 0 0)
(0 0 0)
(0 0 0)
(0 0 0)
(0 0 0)
(0 0 0)
(0 0 0)
(0 0 0)
(0 0 0)
(0 0 0)
(0 0 0)
(0 0 0)
(0 0 0)
(0 0 0)
(0 0 0)
(0 0 0)
(0 0 0)
(0 0 0)
(0 0 0)
(0 0 0)
(0 0 0)
(0 0 0)
(0 0 0)
(0 0 0)
(0 0 0)
(0 0 0)
(0 0 0)
(0 0 0)
(0 0 0)
(0 0 0)
(0 0 0)
(0 0 0)
(0 0 0)
(0 0 0)
(0 0 0)
(0 0 0)
(0 0 0)
(0 0 0)
(0 0 0)
(0 0 0)
(0 0 0)
(0 0 0)
(0 0 0)
(0 0 0)
(0 0 0)
(0 0 0)
(0 0 0)
(0 0 0)
(0 0 0)
(0 0 0)
(0 0 0)
(0 0 0)
(0 0 0)
(0 0 0)
(0 0 0)
(0 0 0)
(0 0 0)
(0 0 0)
(0 0 0)
(0 0 0)
(0 0 0)
(0 0 0)
(0 0 0)
(0 0 0)
(0 0 0)
(0 0 0)
(0 0 0)
(0 0 0)
(0 0 0)
(0 0 0)
(0 0 0)
(0 0 0)
(0 0 0)
(0 0 0)
(0 0 0)
(0 0 0)
(0 0 0)
(0 0 0)
(0 0 0)
(0 0 0)
(0 0 0)
(0 0 0)
(0 0 0)
(0 0 0)
(0 0 0)
(0 0 0)
(0 0 0)
(0 0 0)
(0 0 0)
(0 0 0)
(0 0 0)
(0 0 0)
(0 0 0)
(0 0 0)
(0 0 0)
(0 0 0)
(0 0 0)
(0 0 0)
(0 0 0)
(0 0 0)
(0 0 0)
(0 0 0)
(0 0 0)
(0 0 0)
(0 0 0)
(0 0 0)
(0 0 0)
(0 0 0)
(0 0 0)
(0 0 0)
(0 0 0)
(0 0 0)
(0 0 0)
(0 0 0)
(0 0 0)
(0 0 0)
(0 0 0)
(0 0 0)
(0 0 0)
(0 0 0)
(0 0 0)
(0 0 0)
(0 0 0)
(0 0 0)
(0 0 0)
(0 0 0)
(0 0 0)
(0 0 0)
(0 0 0)
(0 0 0)
(0 0 0)
(0 0 0)
(0 0 0)
(0 0 0)
(0 0 0)
(0 0 0)
(0 0 0)
(0 0 0)
(0 0 0)
(0 0 0)
(0 0 0)
(0 0 0)
(0 0 0)
(0 0 0)
(0 0 0)
(0 0 0)
(0 0 0)
(0 0 0)
(0 0 0)
(0 0 0)
(0 0 0)
(0 0 0)
(0 0 0)
(0 0 0)
(0 0 0)
(0 0 0)
(0 0 0)
(0 0 0)
(0 0 0)
(0 0 0)
(0 0 0)
(0 0 0)
(0 0 0)
(0 0 0)
(0 0 0)
(0 0 0)
(0 0 0)
(0 0 0)
(0 0 0)
(0 0 0)
(0 0 0)
(0 0 0)
(0 0 0)
(0 0 0)
(0 0 0)
(0 0 0)
(0 0 0)
(0 0 0)
(0 0 0)
(0 0 0)
(0 0 0)
(0 0 0)
(0 0 0)
(0 0 0)
(0 0 0)
(0 0 0)
(0 0 0)
(0 0 0)
(0 0 0)
(0 0 0)
(0 0 0)
(0 0 0)
(0 0 0)
(0 0 0)
(0 0 0)
(0 0 0)
(0 0 0)
(0 0 0)
(0 0 0)
(0 0 0)
(0 0 0)
(0 0 0)
(0 0 0)
(0 0 0)
(0 0 0)
(0 0 0)
(0 0 0)
(0 0 0)
(0 0 0)
(0 0 0)
(0 0 0)
(0 0 0)
(0 0 0)
(0 0 0)
(0 0 0)
(0 0 0)
(0 0 0)
(0 0 0)
(0 0 0)
(0 0 0)
(0 0 0)
(0 0 0)
(0 0 0)
(0 0 0)
(0 0 0)
(0 0 0)
(0 0 0)
(0 0 0)
(0 0 0)
(0 0 0)
(0 0 0)
(0 0 0)
(0 0 0)
(0 0 0)
(0 0 0)
(0 0 0)
(0 0 0)
(0 0 0)
(0 0 0)
(0 0 0)
(0 0 0)
(0 0 0)
(0 0 0)
(0 0 0)
(0 0 0)
(0 0 0)
(0 0 0)
(0 0 0)
(0 0 0)
(0 0 0)
(0 0 0)
(0 0 0)
(0 0 0)
(0 0 0)
(0 0 0)
(0 0 0)
(0 0 0)
(0 0 0)
(0 0 0)
(0 0 0)
(0 0 0)
(0 0 0)
(0 0 0)
(0 0 0)
(0 0 0)
(0 0 0)
(0 0 0)
(0 0 0)
(0 0 0)
(0 0 0)
(0 0 0)
(0 0 0)
(0 0 0)
(0 0 0)
(0 0 0)
(0 0 0)
(0 0 0)
(0 0 0)
(0 0 0)
(0 0 0)
(0 0 0)
(0 0 0)
(0 0 0)
(0 0 0)
(0 0 0)
(0 0 0)
(0 0 0)
(0 0 0)
(0 0 0)
(0 0 0)
(0 0 0)
(0 0 0)
(0 0 0)
(0 0 0)
(0 0 0)
(0 0 0)
(0 0 0)
(0 0 0)
(0 0 0)
(0 0 0)
(0 0 0)
(0 0 0)
(0 0 0)
(0 0 0)
(0 0 0)
(0 0 0)
(0 0 0)
(0 0 0)
(0 0 0)
(0 0 0)
(0 0 0)
(0 0 0)
(0 0 0)
(0 0 0)
(0 0 0)
(0 0 0)
(0 0 0)
(0 0 0)
(0 0 0)
(0 0 0)
(0 0 0)
(0 0 0)
(0 0 0)
(0 0 0)
(0 0 0)
(0 0 0)
(0 0 0)
(0 0 0)
(0 0 0)
(0 0 0)
(0 0 0)
(0 0 0)
(0 0 0)
(0 0 0)
(0 0 0)
(0 0 0)
(0 0 0)
(0 0 0)
(0 0 0)
(0 0 0)
(0 0 0)
(0 0 0)
(0 0 0)
(0 0 0)
(0 0 0)
(0 0 0)
(0 0 0)
(0 0 0)
(0 0 0)
(0 0 0)
(0 0 0)
(0 0 0)
(0 0 0)
(0 0 0)
(0 0 0)
(0 0 0)
(0 0 0)
(0 0 0)
(0 0 0)
(0 0 0)
(0 0 0)
(0 0 0)
(0 0 0)
(0 0 0)
(0 0 0)
(0 0 0)
(0 0 0)
(0 0 0)
(0 0 0)
(0 0 0)
(0 0 0)
(0 0 0)
(0 0 0)
(0 0 0)
(0 0 0)
(0 0 0)
(0 0 0)
(0 0 0)
(0 0 0)
(0 0 0)
(0 0 0)
(0 0 0)
(0 0 0)
(0 0 0)
(0 0 0)
(0 0 0)
(0 0 0)
(0 0 0)
(0 0 0)
(0 0 0)
(0 0 0)
(0 0 0)
(0 0 0)
(0 0 0)
(0 0 0)
(0 0 0)
(0 0 0)
(0 0 0)
(0 0 0)
(0 0 0)
(0 0 0)
(0 0 0)
(0 0 0)
(-0.009000790361 0.00930895767 0)
(-0.00951248446 0.009320080989 0)
(-0.00888507364 0.001494088666 0)
(-0.009403224217 0.001505810495 0)
(-0.0156793207 0.009943845727 0)
(-0.01565901748 0.01091732755 0)
(-0.01772457951 0.01096342217 0)
(-0.009503098548 0.009806974957 0)
(-0.0105282021 0.009829396135 0)
(-0.01054760089 0.008855893851 0)
(-0.009446229972 0.01272678793 0)
(-0.01561020426 0.002133062342 0)
(-0.01574189449 0.003081840317 0)
(-0.01781145385 0.003131237751 0)
(-0.00939221646 0.001992396304 0)
(-0.01042856283 0.002015840985 0)
(-0.01045058858 0.001042217149 0)
(-0.01056698843 0.007882889006 0)
(-0.009541158261 0.007860587124 0)
(-0.009601146113 0.004940889962 0)
(-0.00908909024 0.004929758459 0)
(-0.009078763878 0.005416223948 0)
(-0.009590818728 0.005427400673 0)
(-0.005498705795 0.004851566619 0)
(-0.005477744758 0.005092926275 0)
(-0.005742786083 0.005099465094 0)
(-0.005758216235 0.004857392133 0)
(-0.005397578114 0.008741604783 0)
(-0.005673120192 0.008748969339 0)
(-0.005683118621 0.008506999723 0)
(-0.005411558962 0.008499996729 0)
(-0.008532100798 -0.005819133604 0)
(-0.009568401951 -0.005795689947 0)
(-0.005388960668 0.008984329558 0)
(-0.005666899927 0.008991929323 0)
(-0.009455704282 0.01223998645 0)
(-0.008944011205 0.01222881791 0)
(-0.005125557194 0.008734591355 0)
(-0.005111910231 0.00897684039 0)
(-0.005269767591 0.0009277290449 0)
(-0.005259611711 0.001418858613 0)
(-0.005516348071 0.001423309269 0)
(-0.00577478714 0.001426893547 0)
(-0.005786886148 0.0009380701807 0)
(-0.005775630005 0.004615635516 0)
(-0.005520607444 0.004610228243 0)
(-0.009611650293 0.00445456423 0)
(-0.009099547152 0.004443522147 0)
(-0.005297672444 0.004606225542 0)
(-0.00527397054 0.004847342213 0)
(-0.004752869657 0.0009160355539 0)
(-0.004745929041 0.001407237859 0)
(-0.005004200347 0.001414437932 0)
(-0.005144431893 0.00849345597 0)
(-0.00524904372 0.005088204949 0)
(-0.002768547742 0.006612810206 0)
(-0.002503932687 0.006605828582 0)
(-0.002489638682 0.006846479409 0)
(-0.00275216347 0.006853458992 0)
(-0.005530245322 0.006804596382 0)
(-0.005769682917 0.006808519964 0)
(-0.005776535263 0.006565619524 0)
(-0.005541386571 0.006562109682 0)
(-0.007519871266 0.006843362778 0)
(-0.007529605653 0.006357064876 0)
(-0.007023147044 0.006346512445 0)
(-0.007013639789 0.00683277024 0)
(-0.007560053331 0.004897158692 0)
(-0.007053504279 0.004886604216 0)
(-0.007047914049 0.005129714187 0)
(-0.007042867503 0.005372791214 0)
(-0.007549637549 0.005383576914 0)
(-0.007480683056 0.008789634591 0)
(-0.007490315746 0.008303832082 0)
(-0.006982727617 0.008293208855 0)
(-0.006972691 0.008778866491 0)
(-0.007003545674 0.007318969515 0)
(-0.00751009268 0.007329614435 0)
(-0.00551500424 0.007046311662 0)
(-0.005759090467 0.00705074761 0)
(-0.00542575734 0.01069537294 0)
(-0.005674583664 0.01070027808 0)
(-0.005681987878 0.01045698292 0)
(-0.00543596121 0.01045232209 0)
(-0.007442555614 0.01073701628 0)
(-0.007452215927 0.01024999278 0)
(-0.006944675065 0.01023928014 0)
(-0.006934925333 0.01072625636 0)
(-0.006963224874 0.009265306196 0)
(-0.00747121693 0.009276074296 0)
(-0.007413537432 0.01219573319 0)
(-0.006905096228 0.01218481919 0)
(-0.006925001874 0.01121291195 0)
(-0.007432859288 0.01122363176 0)
(-0.005413830093 0.01093820381 0)
(-0.005665961533 0.01094340995 0)
(-0.005178985536 0.01069065001 0)
(-0.005162614609 0.01093310889 0)
(-0.005193623018 0.01044801618 0)
(-0.007570734306 0.004411017939 0)
(-0.0070646786 0.004400655603 0)
(-0.007058910553 0.004643625817 0)
(-0.00749549603 0.002892843464 0)
(-0.006986803996 0.00290101713 0)
(-0.007045469603 0.003173768281 0)
(-0.007072677215 0.003425085624 0)
(-0.00757934473 0.003428403601 0)
(-0.005455815985 0.002868463714 0)
(-0.00554497293 0.003143578714 0)
(-0.005786370197 0.00314487718 0)
(-0.005703324128 0.00286383761 0)
(-0.005329464801 0.002930079286 0)
(-0.005388983174 0.003151134839 0)
(-0.002917604396 0.002732724308 0)
(-0.002908186258 0.002974842785 0)
(-0.003152645525 0.00297498891 0)
(-0.00316221887 0.002733009678 0)
(-0.002819483651 0.004664044217 0)
(-0.003071659081 0.004667305817 0)
(-0.003080424736 0.00442462964 0)
(-0.002829143511 0.004421840718 0)
(-0.005293596291 0.006801007355 0)
(-0.005273080043 0.007042105603 0)
(-0.003008608952 0.006875367588 0)
(-0.003078745142 0.006676474208 0)
(-0.002810389063 0.004906260504 0)
(-0.003064395217 0.004910196947 0)
(-0.003016873652 0.006367635614 0)
(-0.002770946888 0.006366958597 0)
(-0.005311965262 0.006559227101 0)
(-0.002510813678 0.006361661933 0)
(-0.002569913098 0.004661836933 0)
(-0.002559200328 0.004903383185 0)
(-0.01576437424 -0.004681852291 0)
(-0.01778922866 -0.004624188821 3.583799923e-13)
(-0.009546386437 -0.004822518328 0)
(-0.01058273281 -0.004799073648 0)
(-0.01161907919 -0.004775628967 0)
(-0.01166312044 -0.006722424421 0)
(-0.01047261432 6.859331338e-05 0)
(-0.009502334949 -0.002875270657 0)
(-0.008466033796 -0.002898714315 0)
(-0.008444008053 -0.001925090479 0)
(-0.009480309205 -0.001901646821 0)
(-0.005357026328 -0.00296904764 0)
(-0.005335000584 -0.001995423805 0)
(-0.006371315304 -0.00197197984 0)
(-0.006393341047 -0.002945603676 0)
(-0.005798095252 0.000450584029 0)
(-0.005280260042 0.0004393217833 0)
(-0.005484918695 0.005826010262 0)
(-0.005745350042 0.005832128078 0)
(-0.005732855463 0.00558643723 0)
(-0.005461786675 0.00557953583 0)
(-0.006524788702 0.005849896614 0)
(-0.006528142398 0.00560565017 0)
(-0.006268434006 0.005599774933 0)
(-0.006267925187 0.005844266715 0)
(-0.006544472123 0.004875812586 0)
(-0.006285712364 0.004870004054 0)
(-0.006277594833 0.005112830628 0)
(-0.006537979505 0.005118811653 0)
(-0.004762426018 0.0004276071156 0)
(-0.00432069352 -0.002992492014 0)
(-0.004298667776 -0.002018868178 0)
(-0.005376342691 0.01166489331 0)
(-0.005112236863 0.01165860188 0)
(-0.005096339044 0.01190034755 0)
(-0.005364440856 0.01190700085 0)
(-0.005425506059 0.00971948059 0)
(-0.005405200665 0.009473658287 0)
(-0.005139005163 0.009467138602 0)
(-0.005178426747 0.009714750706 0)
(-0.005499939929 0.002591613141 0)
(-0.005164782911 0.002534261713 0)
(-0.007308108958 0.002432083545 0)
(-0.006789053948 0.002420341256 0)
(-0.006828825165 0.0026442982 0)
(-0.007341549455 0.0009718831073 0)
(-0.006823252983 0.0009606104267 0)
(-0.006811973896 0.001447190098 0)
(-0.007330395803 0.001458918065 0)
(-0.00655150331 0.004633006681 0)
(-0.006294819659 0.004627426096 0)
(-0.006572395315 0.003903498531 0)
(-0.006321944078 0.003898420897 0)
(-0.00631390676 0.004141701734 0)
(-0.0065660754 0.004146863465 0)
(-0.005587011178 0.003885324024 0)
(-0.005566624724 0.004127284861 0)
(-0.005811961116 0.004131658602 0)
(-0.005827446721 0.003889134447 0)
(-0.002581230816 0.004420349612 0)
(-0.002886174207 0.003212061381 0)
(-0.005372150569 0.003882001679 0)
(-0.005348835793 0.004123805781 0)
(-0.00387114882 0.00370633842 0)
(-0.003855698057 0.003945922447 0)
(-0.004096618679 0.003959290511 0)
(-0.004171878093 0.003766530599 0)
(-0.003196592377 0.0008785665255 0)
(-0.003186035652 0.001365614987 0)
(-0.003705508853 0.001378271634 0)
(-0.003715252773 0.0008907523363 0)
(-0.00319375321 0.002498268743 0)
(-0.002948553656 0.002497246219 0)
(-0.005463659121 0.007773366338 0)
(-0.005209852002 0.007768031806 0)
(-0.005188043377 0.008010458164 0)
(-0.005445904246 0.008016201116 0)
(-0.005203213133 0.005557895806 0)
(-0.005182127487 0.005761563663 0)
(-0.002740727128 0.007626389905 0)
(-0.002671942266 0.007823549305 0)
(-0.002683966332 0.007319838681 0)
(-0.006510341586 0.00682251553 0)
(-0.006515207245 0.006579434412 0)
(-0.006265477509 0.00657446359 0)
(-0.006260656049 0.006817590953 0)
(-0.006268204574 0.006087916676 0)
(-0.006521367069 0.006093146135 0)
(-0.005520564427 0.006073129743 0)
(-0.005763192038 0.006077442204 0)
(-0.005721212483 0.007779102333 0)
(-0.005734225215 0.007535888807 0)
(-0.00548117782 0.007530571462 0)
(-0.006487467882 0.00779562249 0)
(-0.006493300589 0.007551794085 0)
(-0.006240953108 0.007546537819 0)
(-0.006233855216 0.007790292357 0)
(-0.006254577587 0.007060282676 0)
(-0.006505028824 0.00706536031 0)
(-0.00538869615 0.01142302222 0)
(-0.005128771716 0.01141709685 0)
(-0.005202403552 0.009960882289 0)
(-0.005439684072 0.009964757072 0)
(-0.00583611612 0.003645913154 0)
(-0.005600096961 0.003642881314 0)
(-0.006575642199 0.003659973589 0)
(-0.006326005976 0.003654869147 0)
(-0.006475446095 0.002891032539 0)
(-0.006218004719 0.002882946344 0)
(-0.006286049847 0.003157086049 0)
(-0.006539005879 0.003163441959 0)
(-0.003953971603 0.002756848133 0)
(-0.003917224663 0.002987806311 0)
(-0.004207391898 0.003005681819 0)
(-0.004318494954 0.002802693028 0)
(-0.00412236606 0.003463355745 0)
(-0.003878323694 0.003463581011 0)
(-0.005393935072 0.003640841632 0)
(-0.003816008038 0.004687176211 0)
(-0.003889264247 0.004491565799 0)
(-0.003589007756 0.004431474805 0)
(-0.003575736297 0.004673325132 0)
(-0.003615798721 0.003702009614 0)
(-0.003604428783 0.003943405264 0)
(-0.002863313254 0.003694804697 0)
(-0.002850879257 0.003937035928 0)
(-0.003099757384 0.00393805118 0)
(-0.003110361517 0.003695507084 0)
(-0.005231240065 0.007525595934 0)
(-0.002862070405 0.0072879434 0)
(-0.002788243824 0.005635966527 0)
(-0.003044161241 0.005640217677 0)
(-0.003050117069 0.005396346813 0)
(-0.002794633781 0.005392105484 0)
(-0.00355851941 0.004912778715 0)
(-0.00374238666 0.004883728503 0)
(-0.002783827417 0.00588018893 0)
(-0.003042225565 0.005885582077 0)
(-0.00530040275 0.00607113531 0)
(-0.006464613616 0.008767870236 0)
(-0.006469420754 0.008525375977 0)
(-0.006213009456 0.008519756308 0)
(-0.006207119042 0.008762135571 0)
(-0.006226710056 0.008034136315 0)
(-0.006481180912 0.008039531107 0)
(-0.005708062041 0.008022403233 0)
(-0.005680856692 0.009724985774 0)
(-0.005672502053 0.009480293479 0)
(-0.006447290932 0.009741600466 0)
(-0.006450946858 0.009497994287 0)
(-0.006195574636 0.00949244337 0)
(-0.006193228095 0.00973616966 0)
(-0.006201982053 0.009005210551 0)
(-0.006459115876 0.00901089181 0)
(-0.004891294638 0.008729110785 0)
(-0.004869385457 0.008969182135 0)
(-0.004848315659 0.009198549439 0)
(-0.005113077848 0.009220827159 0)
(-0.005390656356 0.009228373518 0)
(-0.005543669246 0.004369006602 0)
(-0.005323113768 0.00436541969 0)
(-0.005428215914 0.00825849446 0)
(-0.005165854622 0.008252287739 0)
(-0.004937310244 0.008247841426 0)
(-0.004913238114 0.008488723497 0)
(-0.005462123059 0.005335266372 0)
(-0.005224882066 0.005328044363 0)
(-0.002602363594 0.008022998236 0)
(-0.002485858612 0.008361373216 0)
(-0.006428873719 0.01071571314 0)
(-0.006434065138 0.01047223219 0)
(-0.006181987964 0.01046702728 0)
(-0.006176615659 0.01071050414 0)
(-0.006190474558 0.009979886743 0)
(-0.006443229034 0.009985152216 0)
(-0.005686546319 0.009969482045 0)
(-0.005638777361 0.01167105645 0)
(-0.005647739783 0.01142888242 0)
(-0.006407740948 0.0116878641 0)
(-0.006412910883 0.0114453328 0)
(-0.006159254018 0.01143995642 0)
(-0.006153542445 0.01168243022 0)
(-0.006170927825 0.01095392862 0)
(-0.006423591857 0.01095919205 0)
(-0.004933960743 0.01068610234 0)
(-0.004913359701 0.01092814881 0)
(-0.004892482377 0.01117000805 0)
(-0.005145688047 0.01117532898 0)
(-0.005401291923 0.01118083989 0)
(-0.005441965596 0.01020890477 0)
(-0.005203623389 0.01020496073 0)
(-0.00497067145 0.01020154583 0)
(-0.004953713663 0.01044394619 0)
(-0.005591270458 0.003397047222 0)
(-0.005827481757 0.003399585715 0)
(-0.006070756039 0.003403912806 0)
(-0.006034366161 0.003150487453 0)
(-0.005959647446 0.002873346348 0)
(-0.004584826388 0.002809803971 0)
(-0.004500586234 0.003058147645 0)
(-0.004729907704 0.002783043469 0)
(-0.005405726445 0.003396016906 0)
(-0.00312102352 0.003454004929 0)
(-0.002874895305 0.003453232866 0)
(-0.003624282816 0.003459779517 0)
(-0.00369067428 0.002749217645 0)
(-0.00365667138 0.002981278532 0)
(-0.005077002667 0.00679769105 0)
(-0.005053649726 0.007038182187 0)
(-0.005031163263 0.007279371599 0)
(-0.005252315935 0.007283560203 0)
(-0.00549837076 0.007288176421 0)
(-0.002714802049 0.007085579635 0)
(-0.002934768366 0.007084809711 0)
(-0.003202750897 0.006339535771 0)
(-0.003275112797 0.006142457292 0)
(-0.003031813142 0.006127451837 0)
(-0.002776496744 0.006123033304 0)
(-0.005541875952 0.006318477113 0)
(-0.005320754122 0.006316325225 0)
(-0.005124619388 0.006317046095 0)
(-0.005101132724 0.00655644833 0)
(-0.002531707032 0.005631294161 0)
(-0.002524861091 0.00587451146 0)
(-0.004813170736 0.01213609215 0)
(-0.00483207494 0.01189405254 0)
(-0.004600889346 0.01188895829 0)
(-0.004580127551 0.01213091064 0)
(-0.004851463284 0.01165261206 0)
(-0.004621584005 0.01164777359 0)
(-0.004954591775 0.009712130237 0)
(-0.004829619929 0.009401773668 0)
(-0.004798851385 0.009735663443 0)
(-0.006307956984 0.002630705098 0)
(-0.006043280131 0.002622455219 0)
(-0.006280151781 0.001923803612 0)
(-0.006019181481 0.001919709623 0)
(-0.006009868747 0.00216336881 0)
(-0.006272251151 0.002167042296 0)
(-0.005247253388 0.001920344677 0)
(-0.00523141168 0.002173810035 0)
(-0.005484170078 0.002165502136 0)
(-0.00549936208 0.001918356362 0)
(-0.005793947187 0.004373944581 0)
(-0.006048869238 0.004379394825 0)
(-0.006062008427 0.004136591363 0)
(-0.006073071509 0.003893559956 0)
(-0.00383502365 0.004184211935 0)
(-0.004018943446 0.004154438994 0)
(-0.005007120597 0.001922151468 0)
(-0.005019152755 0.002192083106 0)
(-0.004224876371 0.001884999902 0)
(-0.004228819833 0.002133483464 0)
(-0.004500234802 0.002150482302 0)
(-0.004490522676 0.001897796199 0)
(-0.004330615787 0.002545704884 0)
(-0.004051485184 0.002544367206 0)
(-0.004985398144 0.007763768521 0)
(-0.004961830394 0.008006155083 0)
(-0.004688697823 0.01092388082 0)
(-0.004666057874 0.01116565494 0)
(-0.004711209699 0.01068196806 0)
(-0.004871696681 0.01141141692 0)
(-0.004643471924 0.0114068421 0)
(-0.004977710391 0.009958197161 0)
(-0.004778271565 0.009958571815 0)
(-0.004756147528 0.01019814061 0)
(-0.004733680874 0.01044005439 0)
(-0.006078806611 0.003650046058 0)
(-0.003903674073 0.003227795283 0)
(-0.004155252739 0.003230636178 0)
(-0.004393302595 0.00324190328 0)
(-0.004306488331 0.00343363263 0)
(-0.003595243425 0.004186433906 0)
(-0.003342038068 0.004184099149 0)
(-0.00333470179 0.004428391232 0)
(-0.003325007637 0.004670910669 0)
(-0.005008418711 0.00752136958 0)
(-0.003314656292 0.005158280491 0)
(-0.003302503588 0.005399477453 0)
(-0.003544056557 0.005413493251 0)
(-0.003616800249 0.005219138102 0)
(-0.003286077919 0.005639356139 0)
(-0.003470402338 0.00561049725 0)
(-0.003318160243 0.004913992201 0)
(-0.003346082077 0.005947338083 0)
(-0.005146144284 0.006095561695 0)
(-0.007648269363 0.002051261511 6.86395385e-14)
(-0.00493732272 0.001253107563 4.217459715e-14)
(-0.01613542534 0.005189096222 1.705857677e-13)
(-0.01344829743 0.004060392727 1.342259637e-13)
(-0.01333698634 0.003303170774 1.330602295e-13)
(-0.01844788622 0.00633628896 2.073202721e-13)
(-0.02196851839 0.009376031586 3.046174424e-13)
(-0.02144208225 0.00847927213 2.757516437e-13)
(-0.0215661235 0.00701853994 2.770145224e-13)
(-0.02181441214 0.01009921582 3.282096817e-13)
(-0.01961059651 0.01090770187 3.561040351e-13)
(-0.01967502765 0.008989343568 3.565203688e-13)
(-0.01768425871 0.01290975885 0)
(-0.01561928456 0.01286367753 0)
(-0.01355688804 0.01281765452 0)
(-0.0145876793 0.01284065682 0)
(-0.008620078303 0.0006315346801 7.741030039e-14)
(-0.005777808585 0.0003942068718 4.94049246e-14)
(-0.01720121157 0.001579909101 1.817157536e-13)
(-0.01453033875 0.001236499524 1.44995127e-13)
(-0.01465852098 0.0004665832699 1.467437283e-13)
(-0.01390364363 0.002694719166 1.386252224e-13)
(-0.01945615384 0.001928940461 2.183392356e-13)
(-0.0226243968 0.002822410299 3.126804371e-13)
(-0.02223790465 0.002568493259 2.852440506e-13)
(-0.02225552197 0.00104582994 2.865208071e-13)
(-0.02169855254 0.005546304462 2.783606678e-13)
(-0.02231848502 0.00301232192 3.345240751e-13)
(-0.01980676067 0.003165758332 3.579914143e-13)
(-0.0197109534 0.001247693977 3.581301922e-13)
(-0.01974131382 0.007067005561 3.569505802e-13)
(-0.01785094006 0.005117792759 0)
(-0.01578321312 0.005077395263 0)
(-0.01576176503 0.006051484616 0)
(-0.01371800672 0.005031580159 0)
(-0.01369678985 0.006005448518 0)
(-0.01472893777 0.006028481505 0)
(-0.0147502903 0.005054616215 0)
(-0.01363551001 0.008924256799 0)
(-0.01466707004 0.008947276487 0)
(-0.01468740724 0.007974293126 0)
(-0.01365562109 0.007951268323 0)
(-0.009560646473 0.006887132108 0)
(-0.009048726265 0.006876003674 0)
(-0.009039036076 0.007362347821 0)