/*--------------------------------*- C++ -*----------------------------------*\
| =========                 |                                                 |
| \\      /  F ield         | OpenFOAM: The Open Source CFD Toolbox           |
|  \\    /   O peration     | Version:  v2012                                 |
|   \\  /    A nd           | Website:  www.openfoam.com                      |
|    \\/     M anipulation  |                                                 |
\*---------------------------------------------------------------------------*/
FoamFile
{
    version     2.0;
    format      ascii;
    class       volVectorField;
    location    "3";
    object      U;
}
// * * * * * * * * * * * * * * * * * * * * * * * * * * * * * * * * * * * * * //

dimensions      [0 1 -1 0 0 0 0];


internalField   nonuniform List<vector> 
3259
(
(101.4230428 -0.1958135708 6.845720598e-21)
(101.3637403 -0.5911079203 1.080595913e-19)
(101.2489932 -0.9990848721 -2.176488039e-19)
(101.059985 -1.449417132 -4.718552584e-22)
(100.7254227 -1.771631323 -1.720793474e-21)
(100.3224873 -2.272992865 0)
(99.8000082 -2.89680466 -9.405462385e-22)
(99.11488688 -3.495951625 8.304158482e-20)
(98.03513862 -4.389378742 2.663298431e-19)
(96.55113192 -5.53697982 -5.490799358e-19)
(94.68242673 -7.024884782 -6.008087109e-19)
(92.67802879 -8.539837537 -1.483060375e-18)
(101.8096586 -0.2113451558 0)
(101.7602626 -0.6392264909 0)
(101.6651127 -1.079250689 0)
(101.507345 -1.563112751 0)
(101.2098126 -1.935659374 0)
(100.8707346 -2.488571198 0)
(100.4526327 -3.170109103 1.053694107e-19)
(99.89367339 -3.821791279 -1.608802048e-19)
(99.02265624 -4.778128582 0)
(97.84357644 -6.007784239 -6.440246934e-19)
(96.40303306 -7.693473216 0)
(94.91842151 -10.04186186 -1.217314927e-19)
(102.2209509 -0.2213677713 0)
(102.1823821 -0.670507973 0)
(102.1092346 -1.131080958 0)
(101.984914 -1.629752479 0)
(101.7254554 -2.031961657 0)
(101.4619454 -2.608650334 0)
(101.1483461 -3.295630241 -9.978438713e-20)
(100.7235147 -3.970164106 0)
(100.0766024 -4.905733995 -1.908952794e-19)
(99.21425794 -6.083022261 5.708639308e-19)
(98.31447407 -7.63532854 -3.790039877e-19)
(97.65943744 -9.841211444 0)
(102.6466171 -0.2260612994 0)
(102.6184206 -0.6850106521 0)
(102.5663888 -1.154685116 0)
(102.4740573 -1.654218827 0)
(102.251417 -2.071037524 0)
(102.0560481 -2.646988568 0)
(101.8328001 -3.310005472 -6.955293126e-22)
(101.518541 -3.977286455 3.22107385e-19)
(101.0598961 -4.83083445 3.132875793e-19)
(100.4375294 -5.850021025 3.772799777e-20)
(99.84776571 -7.056494276 1.3328444e-19)
(96.99142175 -8.069287751 0)
(103.0768127 -0.2260433432 0)
(103.0577052 -0.6846236154 0)
(103.023701 -1.153102812 0)
(102.9589472 -1.642221949 0)
(102.7698903 -2.060808202 0)
(102.6313588 -2.617085455 0)
(102.4781892 -3.235724508 0)
(102.2426815 -3.865188123 2.58130945e-20)
(101.9056382 -4.616892359 -2.740045266e-19)
(101.4146475 -5.440954426 1.270151817e-21)
(100.9169923 -6.314000691 -9.27640667e-21)
(95.73350811 -6.520119747 -2.291729965e-19)
(103.5028422 -0.2221074229 0)
(103.4912463 -0.6719239666 0)
(103.4715409 -1.13066219 0)
(103.428746 -1.600374749 0)
(103.2683819 -2.009822504 0)
(103.1727339 -2.534089909 0)
(103.0677716 -3.098509407 0)
(102.8766763 -3.668925857 0)
(102.5950356 -4.31005067 5.756966976e-20)
(102.1394859 -4.964383401 -4.809813652e-20)
(101.6607953 -5.607112121 -3.263179998e-19)
(94.7574165 -5.435806404 9.203211597e-20)
(103.9177583 -0.2150678338 0)
(103.9120161 -0.649554907 0)
(103.9028433 -1.091948737 0)
(103.8761333 -1.536188919 0)
(103.7381871 -1.928420472 0)
(103.671603 -2.414042382 0)
(103.5942237 -2.92127711 0)
(103.4234404 -3.427169477 0)
(103.1494841 -3.963059216 0)
(102.6794497 -4.482202515 0)
(102.1426602 -4.963412042 0)
(94.96935652 -4.782228936 4.730578181e-20)
(104.316348 -0.2057400976 0)
(104.3147964 -0.6201360003 0)
(104.3125226 -1.041491008 0)
(104.2963 -1.456919112 0)
(104.1745837 -1.826733118 0)
(104.1248087 -2.271015071 0)
(104.0587933 -2.724459636 0)
(103.8898737 -3.166167649 0)
(103.5998704 -3.612758981 0)
(103.0982296 -4.026692317 0)
(102.4353341 -4.385717123 0)
(95.68160442 -4.261733049 0)
(104.6950009 -0.194899119 0)
(104.6960874 -0.5861350049 0)
(104.6974157 -0.9834531594 0)
(104.6867084 -1.368868491 0)
(104.5758255 -1.713403637 0)
(104.5328116 -2.116688013 0)
(104.4651233 -2.521559892 0)
(104.2868743 -2.90380456 0)
(103.9678153 -3.277168592 0)
(103.4285055 -3.611545509 0)
(102.6016028 -3.880000893 0)
(96.42415742 -3.806404482 0)
(105.0515124 -0.1832205357 0)
(105.0538976 -0.5497043815 0)
(105.0560601 -0.9214522948 0)
(105.0466851 -1.277035584 0)
(104.9424324 -1.595299168 0)
(104.8983794 -1.959859713 0)
(104.8197414 -2.320949048 0)
(104.6253061 -2.651089002 0)
(104.2712515 -2.965297793 0)
(103.69359 -3.239618132 0)
(102.6821198 -3.440914366 0)
(97.12982884 -3.411705098 0)
(105.384898 -0.1712517811 0)
(105.3874886 -0.5125764089 0)
(105.3883298 -0.8584216582 0)
(105.3769853 -1.185272105 0)
(105.2760072 -1.477570099 0)
(105.2253078 -1.806591164 0)
(105.1294703 -2.128074906 0)
(104.9150521 -2.414362741 0)
(104.5244364 -2.680988528 0)
(103.9099861 -2.909640574 0)
(102.7023582 -3.060067838 0)
(97.75905677 -3.066338533 0)
(105.6951576 -0.1594167673 0)
(105.6970912 -0.4760635692 0)
(105.6950251 -0.796576743 0)
(105.6792707 -1.096413702 0)
(105.578954 -1.363879092 0)
(105.5177918 -1.660829356 0)
(105.4012155 -1.946556833 0)
(105.164439 -2.196762648 0)
(104.7384119 -2.425111187 0)
(104.0889017 -2.618502186 0)
(102.6811245 -2.729926502 0)
(98.29572086 -2.761802193 0)
(105.9830005 -0.1480330914 0)
(105.9836157 -0.4411218318 0)
(105.9775246 -0.7375082824 0)
(105.9556547 -1.012448389 0)
(105.8540169 -1.256700025 0)
(105.7798906 -1.524950425 0)
(105.6409376 -1.779426873 0)
(105.3806 -1.999391907 0)
(104.9216769 -2.197033556 0)
(104.2381541 -2.362702334 0)
(102.6324879 -2.444036707 0)
(98.73849865 -2.493092925 0)
(106.249624 -0.1373298047 0)
(106.24843 -0.4084219085 0)
(106.237563 -0.6823088851 0)
(106.2084493 -0.9346875045 0)
(106.1040351 -1.157589137 0)
(106.0154059 -1.400427325 0)
(105.8533705 -1.627971227 0)
(105.5695248 -1.822417729 0)
(105.0807636 -1.99537089 0)
(104.3636212 -2.138878994 0)
(102.5663772 -2.196880399 0)
(99.09451644 -2.256571623 0)
(106.4965683 -0.1274627023 0)
(106.4932145 -0.3784077203 0)
(106.4771028 -0.6316871434 0)
(106.440051 -0.8639287814 0)
(106.3317768 -1.06746928 0)
(106.2278025 -1.288010337 0)
(106.0426745 -1.492503308 0)
(105.7361143 -1.665395062 0)
(105.2205886 -1.818441746 0)
(104.4698488 -1.944016114 0)
(102.4897574 -1.983849959 0)
(99.37491302 -2.049391634 0)
(106.7256136 -0.1185295987 0)
(106.719859 -0.3513473597 0)
(106.698242 -0.5860600699 0)
(106.652873 -0.8005912856 0)
(106.5399414 -0.9867749153 0)
(106.4202567 -1.187919893 0)
(106.212477 -1.372781349 0)
(105.8844362 -1.52751373 0)
(105.3449078 -1.664464921 0)
(104.5604132 -1.775404811 0)
(102.4076088 -1.801062493 0)
(99.59247429 -1.869231835 0)
(106.9386406 -0.110586849 0)
(106.9303268 -0.3273839723 0)
(106.9030925 -0.5456404255 0)
(106.849248 -0.74485052 0)
(106.7310666 -0.9156390826 0)
(106.5956278 -1.100073801 0)
(106.3658392 -1.268205653 0)
(106.0178677 -1.407824764 0)
(105.4566336 -1.531741517 0)
(104.6381388 -1.630677852 0)
(102.323433 -1.645262427 0)
(99.75965255 -1.714037296 0)
(107.1376642 -0.1036595943 0)
(107.1266849 -0.3065700813 0)
(107.0938141 -0.5104961978 0)
(107.0314871 -0.6966993503 0)
(106.9075378 -0.8539993262 0)
(106.7565255 -1.024204761 0)
(106.5054518 -1.177792511 0)
(106.1391749 -1.305380153 0)
(105.558093 -1.418687508 0)
(104.7053116 -1.507762797 0)
(102.2397217 -1.513797401 0)
(99.88747777 -1.581826855 0)
(107.3244439 -0.09776064292 0)
(107.3107474 -0.2889142801 0)
(107.2722854 -0.480603959 0)
(107.2015714 -0.6561049542 0)
(107.0715601 -0.8016579989 0)
(106.9053144 -0.9598507973 0)
(106.6339906 -1.101019945 0)
(106.2506115 -1.219104882 0)
(105.6511913 -1.323851206 0)
(104.7638163 -1.404858046 0)
(102.1583509 -1.404428799 0)
(99.98519817 -1.470824255 0)
(107.50171 -0.09287148505 0)
(107.4852029 -0.2743629357 0)
(107.441164 -0.4558751222 0)
(107.3621624 -0.6227572814 0)
(107.2252305 -0.7583755941 0)
(107.0441094 -0.9065177975 0)
(106.7539072 -1.037881162 0)
(106.3541074 -1.147925169 0)
(105.7375447 -1.245925035 0)
(104.8152167 -1.320402412 0)
(102.0805972 -1.315320747 0)
(100.0601707 -1.379519349 0)
(107.6684791 -0.08904312653 0)
(107.6492704 -0.2629860552 0)
(107.5997836 -0.436276984 0)
(107.5127258 -0.5971439948 0)
(107.3704693 -0.7237815233 0)
(107.1748267 -0.8638039217 0)
(106.8667662 -0.9883379202 0)
(106.451574 -1.090919476 0)
(105.8185883 -1.18378474 0)
(104.8609059 -1.25310616 0)
(102.0071403 -1.244842853 0)
(100.1180148 -1.30666505 0)
(107.8375364 -0.08608925539 0)
(107.8151002 -0.2544599138 0)
(107.7598369 -0.4215758777 0)
(107.6635911 -0.5763547789 0)
(107.5099432 -0.6978650548 0)
(107.2991515 -0.831800102 0)
(106.9738894 -0.9512399848 0)
(106.5444715 -1.047544327 0)
(105.8955539 -1.13653233 0)
(104.9021629 -1.201939647 0)
(101.9383011 -1.191723425 0)
(100.1629037 -1.251237486 0)
(107.9687035 -0.08460996382 0)
(107.9443018 -0.2497857569 0)
(107.8846438 -0.4130097569 0)
(107.7830947 -0.5676732159 0)
(107.6420546 -0.6798734882 0)
(107.418367 -0.8097713889 0)
(107.0766848 -0.9260176478 0)
(106.6340038 -1.017140936 0)
(105.9695297 -1.103378078 0)
(104.940203 -1.166041402 0)
(101.8743013 -1.154952654 0)
(100.197945 -1.212486835 0)
(108.2216245 -0.08282010061 0)
(108.1927076 -0.2456530671 0)
(108.1242615 -0.40594058 0)
(108.005803 -0.55381594 0)
(107.765682 -0.6710635312 0)
(107.5281755 -0.7981712435 0)
(107.1720479 -0.9127493804 0)
(106.7211066 -0.9992539052 0)
(106.0413912 -1.083547416 0)
(104.9762245 -1.144623059 0)
(101.815613 -1.133831755 0)
(100.2253799 -1.190108979 0)
(92.56767478 -8.447666732 -1.722040534e-21)
(94.6872382 -9.82165979 4.114060977e-19)
(94.29184657 -6.803438944 -6.629034138e-21)
(92.69145557 -8.239972971 1.500199407e-19)
(95.94580606 -7.589547261 0)
(94.76236809 -9.536568137 -1.229190607e-19)
(92.91300438 -8.399639196 -5.799768476e-19)
(93.53334494 -9.113862009 6.126874772e-21)
(90.68926768 -9.926647492 0)
(90.65168617 -9.219480913 -4.832538625e-19)
(97.86619998 -9.937772753 0)
(90.62442543 -9.168665864 -9.488609886e-19)
(89.89876364 -9.150167967 4.484926573e-21)
(80.63873465 -9.091358377 1.458378713e-19)
(90.71635574 -9.989475784 -4.90829864e-19)
(93.66802487 -9.206523674 -4.461644652e-19)
(89.30116926 -9.869031754 1.727166186e-18)
(45.44907337 -6.572585131 9.275604736e-19)
(89.91083833 -9.196862355 1.524907951e-18)
(89.28456298 -9.806171212 0)
(86.24271925 -27.94834901 1.186791185e-19)
(90.90719187 -9.588580462 5.281132729e-19)
(92.4840809 -9.367269 -1.078950334e-18)
(92.84917766 -9.662834645 2.61141382e-19)
(92.04516294 -8.988099186 -5.471544639e-21)
(92.37090549 -9.27004766 5.414477179e-19)
(90.88619471 -9.524991286 -5.265915643e-19)
(90.55358893 -8.895505634 -4.909689228e-22)
(91.63510929 -8.6278916 5.753720837e-19)
(91.94131262 -8.896142043 -4.869541027e-21)
(91.53365064 -8.538196348 4.626424163e-21)
(90.50615241 -8.854021733 5.263892391e-19)
(90.10259189 -8.876476598 3.181154834e-21)
(90.15018385 -8.914493888 3.050036743e-21)
(92.98192006 -9.761902755 7.690451494e-19)
(93.39326053 -10.04872276 1.727072529e-19)
(91.67633018 -10.86081956 0)
(91.51986985 -11.03583818 0)
(89.00583591 -23.55035986 -2.420505457e-19)
(87.61235045 -26.20049489 0)
(90.13146399 -9.472952481 -5.544791585e-19)
(78.59527529 -26.14142352 -2.884995076e-19)
(87.09249795 -26.41286008 5.824459914e-20)
(80.08198257 -26.31578378 0)
(90.14608274 -9.543808906 -2.797203743e-19)
(87.11785853 -27.94594115 -1.163383103e-19)
(90.74945045 -26.97096932 1.102991272e-19)
(97.85655899 -7.713337118 3.802009646e-19)
(97.47630494 -9.427477057 -3.515931824e-19)
(95.11120946 -9.647157635 0)
(96.18595501 -10.16482845 0)
(80.6763449 -8.348331641 0)
(78.26046491 -8.723925654 5.186856471e-19)
(90.71766477 -9.803349305 -2.29675354e-19)
(92.11215543 -9.726056694 4.273835518e-19)
(92.26840258 -9.897127077 0)
(49.3127087 -6.901212924 -1.580405302e-18)
(74.20033869 -11.21443842 7.746005653e-19)
(89.93030009 -8.657070575 1.052201938e-18)
(90.09669979 -9.026143383 1.663699547e-21)
(90.45485873 -9.865056118 0)
(93.39312351 -10.19438222 5.774665606e-20)
(93.76582442 -10.61834583 0)
(92.32639845 -9.954627597 0)
(92.53041341 -10.12239254 4.28434881e-19)
(90.8882816 -10.23714738 0)
(90.91017812 -26.65894414 -6.414880961e-20)
(89.47146266 -10.13794392 2.909280249e-19)
(62.68982064 -19.7497347 1.078566888e-18)
(87.220806 -19.04577724 1.164406759e-18)
(88.98945159 -23.05315341 1.089402512e-18)
(86.28279698 -10.3568283 0)
(90.05455708 -9.34673477 -5.263726583e-19)
(89.40266372 -9.766973829 3.876244419e-18)
(91.91927823 -9.523942487 -4.542309873e-19)
(92.05986154 -9.674126687 -4.433609464e-19)
(90.80950014 -9.750599235 -1.440008609e-18)
(90.82144679 -9.394628767 0)
(91.73587942 -9.326255346 3.239566009e-22)
(91.87366479 -9.465184339 0)
(89.96072141 -8.71644797 -5.408195763e-21)
(90.21406598 -9.031065397 -5.355529402e-19)
(90.93612453 -10.33061905 4.950122221e-19)
(92.60588869 -10.16894945 -4.232809827e-19)
(92.74847965 -10.24090835 0)
(66.1470608 -19.40256036 -4.550519003e-18)
(64.39658185 -19.77989755 -7.37866365e-19)
(89.48981355 -10.26811509 0)
(67.4445205 -21.73594004 5.102005832e-19)
(72.0558233 -22.00311547 -4.103868303e-19)
(88.60855966 -25.24813181 2.048853332e-19)
(90.10563586 -9.359880347 0)
(79.02445096 -26.48697822 0)
(84.95315435 -26.78171536 1.411056724e-21)
(67.91643506 -22.07535076 -4.616244524e-20)
(83.91584966 -26.75928693 -7.917041151e-20)
(89.5727473 -9.731305314 -2.55091012e-18)
(91.54514599 -9.13665433 0)
(91.68842023 -9.273330996 6.880540234e-22)
(90.77913909 -9.364145167 0)
(90.64623576 -9.033698433 6.115645737e-19)
(91.37414801 -8.950806405 2.275833225e-19)
(91.50074982 -9.082768003 -9.107749199e-19)
(88.57247128 -9.013651428 -1.182913003e-18)
(88.61094768 -8.980197679 0)
(89.91471429 -9.104668697 3.666079885e-19)
(89.33991992 -9.948516974 5.794522947e-19)
(89.93913726 -9.255284256 5.14654077e-19)
(88.59554954 -9.16162675 0)
(88.56920759 -9.071115465 0)
(89.291297 -9.74327579 -5.555907154e-19)
(91.1891669 -8.77867092 9.338961593e-19)
(91.33096539 -8.902436781 -2.070487725e-21)
(90.64727249 -9.009631411 -5.067483962e-19)
(90.36720823 -8.701654054 -1.031281055e-18)
(90.99574942 -8.591024794 9.381473903e-19)
(91.14034026 -8.728213027 -9.350107636e-19)
(89.4321818 -8.867437412 0)
(89.36775353 -8.824378803 5.727985979e-19)
(90.05009995 -8.831650707 -1.630500874e-18)
(90.18932112 -8.95112191 5.617185052e-19)
(89.5243759 -8.930020117 0)
(89.48467137 -8.899994 0)
(90.71053423 -10.47833077 -1.766046586e-18)
(91.85395377 -10.33349665 2.12281845e-18)
(91.88556316 -10.51723597 -2.627340231e-18)
(38.53005949 -12.45945531 0)
(89.02672273 -10.66921967 -1.601461022e-19)
(88.77103586 -24.92199737 8.231724179e-20)
(73.31383673 -21.82721014 0)
(75.68637363 -21.38958749 0)
(88.83588362 -9.351110329 9.353098744e-19)
(88.84801163 -9.285898832 3.092567359e-19)
(90.12877551 -9.414555463 1.389366249e-21)
(79.17109156 -26.31908795 3.501865113e-19)
(74.77613887 -25.17903927 0)
(75.51783409 -25.20728173 5.578959491e-19)
(81.82655989 -26.60310296 0)
(90.13362043 -9.617284909 1.140901898e-18)
(88.85775526 -9.494351944 -1.973998206e-18)
(88.85332056 -9.426906493 0)
(89.34955959 -27.8984271 3.808487745e-21)
(88.00832997 -8.462380719 1.290404014e-18)
(88.00371671 -8.52064179 -6.556433625e-19)
(87.92151126 -8.854257581 0)
(89.98700393 -9.055527742 3.084624428e-22)
(88.75548214 -8.965382805 -1.028999204e-18)
(88.97446585 -8.955494213 0)
(92.60687212 -10.25207431 -3.203004061e-19)
(92.21794747 -10.57063694 -4.481217417e-19)
(80.02315974 -9.21976317 -1.53641996e-19)
(90.81301238 -10.14799195 9.968072837e-19)
(91.6452949 -10.16291529 4.700368232e-19)
(91.71940163 -10.23629293 0)
(89.39632152 -10.04932958 -1.441818117e-18)
(63.41132623 -20.17926601 1.683375539e-18)
(62.73876508 -20.26586862 -5.290193509e-18)
(45.67880298 -1.923118071 -1.56413686e-19)
(61.92171556 -15.37795667 0)
(66.20748312 -18.86996811 2.5455153e-18)
(88.78296079 -9.259710951 0)
(88.67571236 -9.2397833 1.221987962e-18)
(89.98991352 -9.313140553 -1.048017577e-18)
(89.31671788 -9.740126569 -5.266255979e-19)
(88.1566771 -8.765226063 6.56908424e-19)
(88.24744491 -8.802547211 0)
(88.01683514 -8.607465257 6.094937104e-21)
(88.06959906 -8.699429533 -1.311285216e-18)
(89.51901491 -8.993120441 -1.183175495e-18)
(89.51723329 -8.961258828 8.992147496e-19)
(90.20548222 -8.984880354 2.798200749e-19)
(88.3692122 -8.867856331 -1.034250647e-18)
(88.36166803 -8.865457178 3.185610894e-18)
(88.31564267 -8.828304414 -3.267784114e-19)
(88.36525868 -8.848978026 6.625624286e-19)
(91.79123681 -10.30043155 0)
(91.90433474 -10.38334684 0)
(91.10388026 -10.46293473 -4.861880839e-19)
(67.05202217 -19.83086704 2.808700535e-19)
(56.25222358 -17.20479548 0)
(53.11363181 -16.00452168 2.604146417e-18)
(57.31563014 -18.1119916 -2.316051887e-18)
(57.61388448 -17.8602742 0)
(65.96719309 -19.81103832 -3.055097036e-19)
(89.6609922 -10.42710247 1.477344752e-19)
(69.00274388 -21.7601633 1.026494695e-19)
(77.14659768 -23.68728902 -1.638973253e-19)
(76.00853841 -23.81105277 -2.559649957e-19)
(90.12624104 -9.377698574 -5.346651401e-19)
(88.8659307 -9.252072789 0)
(88.85441979 -9.248083655 0)
(79.43145952 -26.52180945 0)
(71.42263462 -23.46819937 -7.343570163e-19)
(71.88586676 -23.75148619 -8.595298411e-20)
(74.80054016 -23.68759197 0)
(72.91517425 -23.50395602 -2.05800273e-19)
(67.12285606 -22.12215949 1.158753061e-18)
(71.12615372 -23.7530301 4.57859508e-20)
(82.8947543 -26.79677264 3.931599205e-20)
(75.1201645 -24.96288254 -1.311507897e-19)
(76.58312308 -25.02994704 0)
(88.40480533 -9.628481685 0)
(88.84981388 -9.528864285 -1.520408007e-18)
(90.13512063 -9.680868847 -2.81503007e-19)
(98.92681949 -3.394325126 -1.015820786e-18)
(98.11978908 -4.024981532 2.289994845e-19)
(97.79461513 -4.262186717 -5.065258501e-19)
(96.6658595 -5.071579564 0)
(96.23928508 -5.377959705 0)
(94.81386395 -6.414783576 1.792462303e-18)
(99.69635088 -3.756525136 4.420644906e-19)
(99.03728887 -4.446662566 -4.493589556e-21)
(98.34501847 -4.145519807 -2.251756733e-18)
(98.77281323 -4.705019477 4.74882353e-19)
(97.85847329 -5.588623096 1.09421634e-18)
(96.95858535 -5.221716898 1.313207731e-19)
(97.51460602 -5.925931053 -6.152642001e-19)
(96.36677824 -7.10077599 -5.2128367e-19)
(95.18452839 -6.610515711 -5.899703232e-19)
(95.09597719 -7.224576589 0)
(94.57019812 -7.829672914 -1.03506514e-18)
(93.90353961 -7.490792392 -5.615829245e-19)
(93.02707783 -8.781508124 0)
(92.57519782 -9.154696764 0)
(92.23806838 -8.879673599 5.365656163e-21)
(100.5181915 -3.947425141 4.878569391e-20)
(100.0172848 -4.639108981 0)
(99.27181112 -4.517921116 -8.84947981e-19)
(99.81584381 -4.895835651 4.058966105e-19)
(99.13167213 -5.76589492 0)
(98.16458717 -5.667769315 -4.60172122e-19)
(98.88091848 -6.097667206 2.57611008e-20)
(98.10283108 -7.252168019 1.403889092e-20)
(96.78433361 -7.200738198 -4.769636521e-19)
(96.88987755 -7.744434971 0)
(96.58484046 -8.263664204 -4.340104071e-19)
(95.80188467 -8.321997106 9.024213752e-19)
(95.31718978 -10.13990095 -1.132237829e-19)
(95.09997107 -10.86128393 4.13101101e-19)
(94.32598706 -10.5499618 4.41220806e-19)
(101.3253765 -3.987709666 -2.121194639e-20)
(100.9725024 -4.629426636 -3.296275731e-19)
(100.2625112 -4.6536809 2.783863681e-19)
(100.8243268 -4.86533813 0)
(100.3277152 -5.643310325 -2.500626686e-19)
(99.44295498 -5.760505601 1.872553659e-19)
(100.1518393 -5.929016301 -8.001163399e-20)
(99.65097847 -6.882954156 -4.490602687e-19)
(98.52070835 -7.196505233 3.840864521e-19)
(99.51547619 -7.232452999 1.491926039e-19)
(99.41124657 -8.365398412 2.674891278e-19)
(98.15277081 -9.226718551 3.345210575e-20)
(97.2149903 -8.514660133 0)
(102.0699474 -3.902753214 -1.407681297e-19)
(101.8171712 -4.478625035 3.48662166e-19)
(101.1953306 -4.603630117 6.450344661e-19)
(101.7088144 -4.681480903 2.032777348e-19)
(101.3319169 -5.326549907 1.304082415e-19)
(100.5999661 -5.578103387 -9.756568551e-21)
(101.1956692 -5.553364269 2.007904656e-21)
(100.7918585 -6.258401457 -2.998581911e-20)
(99.97569417 -6.741110953 1.461118708e-19)
(100.6844665 -6.499063612 1.076365438e-19)
(99.87484017 -7.170904178 2.190912632e-20)
(99.65587516 -8.060641359 2.249701185e-19)
(96.07713587 -6.870552731 -2.203058016e-20)
(102.7264884 -3.72363593 0)
(102.5268596 -4.22218864 -1.356291308e-19)
(102.0077233 -4.422349007 -2.783972227e-19)
(102.4367221 -4.392367109 1.220492747e-19)
(102.105337 -4.911367343 -1.057307917e-19)
(101.5463405 -5.228590979 1.269328833e-19)
(101.9786931 -5.08564833 3.092453266e-19)
(101.5927371 -5.605467633 1.880608379e-19)
(101.0195617 -6.093258532 1.061906435e-19)
(101.5006249 -5.777819285 -1.857833466e-19)
(99.0220964 -6.037228386 -1.105277489e-19)
(99.77410919 -6.881151409 8.118138272e-20)
(94.89821978 -5.658019345 2.106863037e-19)
(103.2946511 -3.490350168 0)
(103.108222 -3.911041252 0)
(102.6831113 -4.147620276 1.474771046e-20)
(103.0215671 -4.051134554 0)
(102.6892718 -4.466129546 2.375911464e-20)
(102.2665566 -4.801070267 -1.043120693e-19)
(102.5573494 -4.601326075 -1.091619849e-20)
(102.158286 -4.994415914 -4.916845e-22)
(101.7527405 -5.447837943 1.663486513e-19)
(102.0445037 -5.118719207 8.817961004e-21)
(97.71783748 -5.081690904 -9.223473718e-21)
(98.67888393 -5.773652736 -1.548496919e-19)
(94.82601829 -4.92202489 -1.003969639e-19)
(103.7802056 -3.232255551 0)
(103.586778 -3.584812092 0)
(103.2367385 -3.829836432 0)
(103.4957822 -3.699464606 0)
(103.1430792 -4.031166127 0)
(102.8132342 -4.355206146 0)
(103.0028901 -4.137042516 0)
(102.5647363 -4.437953229 0)
(102.2723894 -4.849945921 2.692675765e-20)
(102.3758263 -4.523590526 0)
(97.15454507 -4.393402807 0)
(97.48973671 -4.888780132 -4.884199553e-20)
(95.49775066 -4.385268741 0)
(104.1935278 -2.969022919 0)
(103.9813762 -3.264780593 0)
(103.6926025 -3.503644089 0)
(103.8825149 -3.359083276 0)
(103.5025083 -3.627075863 0)
(103.2407112 -3.9268618 0)
(103.3528355 -3.711292718 0)
(102.8535855 -3.942677506 0)
(102.6466845 -4.308057565 0)
(102.5692581 -3.999852989 0)
(96.97726068 -3.839062839 0)
(97.09366988 -4.245268871 0)
(96.23976041 -3.914213863 0)
(104.5456255 -2.713201728 0)
(104.3087261 -2.962505032 0)
(104.068923 -3.18724624 0)
(104.200602 -3.040765759 0)
(103.7919364 -3.260386137 0)
(103.5806289 -3.531795019 0)
(103.632425 -3.328570901 0)
(103.0563086 -3.508762948 0)
(102.911339 -3.828709847 0)
(102.668495 -3.544900579 0)
(96.95849326 -3.380268579 0)
(96.95928583 -3.715998015 0)
(96.95950848 -3.50532516 0)
(104.8466995 -2.472083557 0)
(104.5827321 -2.683733436 0)
(104.3817481 -2.890476185 0)
(104.4651986 -2.749399605 0)
(104.0291833 -2.932145752 0)
(103.8555661 -3.17475289 0)
(103.859766 -2.988356927 0)
(103.195015 -3.129483816 0)
(103.096282 -3.409084353 0)
(102.7018387 -3.150248852 0)
(97.06031272 -2.999778538 0)
(96.97409284 -3.278505548 0)
(97.61011263 -3.148600433 0)
(105.1054712 -2.249530937 0)
(104.8145012 -2.430675737 0)
(104.6442567 -2.618026054 0)
(104.6880939 -2.486431313 0)
(104.2269119 -2.640816365 0)
(104.0819213 -2.855945152 0)
(104.04722 -2.687835689 0)
(103.2856074 -2.798426168 0)
(103.2216542 -3.042437505 0)
(102.6894738 -2.808074025 0)
(97.24717187 -2.681074379 0)
(97.10034569 -2.914889166 0)
(98.17049838 -2.834410393 0)
(105.3293284 -2.047031725 0)
(105.0127708 -2.20356744 0)
(104.866909 -2.37148484 0)
(104.8783521 -2.251514656 0)
(104.3938952 -2.383798348 0)
(104.2712606 -2.573459581 0)
(104.2032746 -2.42352829 0)
(103.3400552 -2.510056248 0)
(103.3022024 -2.722529638 0)
(102.6466127 -2.511680071 0)
(97.48844555 -2.411591538 0)
(97.30346051 -2.609484284 0)
(98.63630941 -2.557125187 0)
(105.5245654 -1.864959593 0)
(105.1844784 -2.001627918 0)
(105.0579522 -2.150767091 0)
(105.0429676 -2.043397963 0)
(104.536417 -2.158153349 0)
(104.4316126 -2.324560076 0)
(104.3342178 -2.192006029 0)
(103.3675597 -2.259544571 0)
(103.3491542 -2.444055493 0)
(102.5841213 -2.2553009 0)
(97.75949347 -2.182273515 0)
(97.55424109 -2.350800587 0)
(99.01308337 -2.312849876 0)
(105.6963267 -1.702994905 0)
(105.3350195 -1.82360981 0)
(105.2239154 -1.954936873 0)
(105.1872163 -1.860453096 0)
(104.6591832 -1.961092163 0)
(104.5688017 -2.106313173 0)
(104.4448857 -1.990170699 0)
(103.37498 -2.042656833 0)
(103.3710723 -2.202325315 0)
(102.5095989 -2.034132138 0)
(98.04139459 -1.98616355 0)
(97.82958129 -2.130367822 0)
(99.31121183 -2.098570333 0)
(105.8488714 -1.560398757 0)
(105.4685893 -1.668028541 0)
(105.3698617 -1.782670755 0)
(105.3151082 -1.700905418 0)
(104.7658672 -1.790058466 0)
(104.6872371 -1.915987196 0)
(104.5390734 -1.815234746 0)
(103.3674264 -1.855698642 0)
(103.3743266 -1.993242833 0)
(102.4284515 -1.844114331 0)
(98.31999825 -1.818012086 0)
(98.11181053 -1.941672984 0)
(99.54326973 -1.911854932 0)
(105.9857434 -1.436230249 0)
(105.5884622 -1.533357646 0)
(105.4997332 -1.632455628 0)
(105.4297469 -1.563019049 0)
(104.8593771 -1.642769726 0)
(104.7903825 -1.751089621 0)
(104.6197782 -1.664739026 0)
(103.3487697 -1.695556971 0)
(103.3636728 -1.813254309 0)
(102.3445184 -1.68183662 0)
(98.58536941 -1.674064358 0)
(98.38789004 -1.779874717 0)
(99.72194858 -1.750606644 0)
(106.1098592 -1.329540064 0)
(105.6972187 -1.418145369 0)
(105.6166046 -1.502785749 0)
(105.533581 -1.445188434 0)
(104.9420407 -1.517222239 0)
(104.8809785 -1.609417898 0)
(104.6893989 -1.536548596 0)
(103.3219801 -1.559623908 0)
(103.342736 -1.659399574 0)
(102.260491 -1.544504967 0)
(98.83105886 -1.551503056 0)
(98.64882476 -1.641515063 0)
(99.85867305 -1.61282631 0)
(106.2235703 -1.239280765 0)
(105.7969486 -1.321008094 0)
(105.7229237 -1.392219005 0)
(105.628609 -1.345925758 0)
(105.0157821 -1.411645664 0)
(104.9612445 -1.489020603 0)
(104.7499136 -1.428797686 0)
(103.289373 -1.445669276 0)
(103.3142894 -1.529152656 0)
(102.1783898 -1.42980424 0)
(99.05330898 -1.448175378 0)
(98.88891305 -1.52393536 0)
(99.96315589 -1.496674304 0)
(106.328873 -1.164409188 0)
(105.8894009 -1.240670216 0)
(105.8206806 -1.299396766 0)
(105.7165073 -1.26388711 0)
(105.0822022 -1.324490589 0)
(105.0330163 -1.388185994 0)
(104.8029545 -1.33986212 0)
(103.2529477 -1.351832771 0)
(103.2805554 -1.420390098 0)
(102.0996477 -1.335790721 0)
(99.25066631 -1.362600966 0)
(99.10498894 -1.42516662 0)
(100.043224 -1.400570929 0)
(106.427684 -1.10390427 0)
(105.9761299 -1.175997261 0)
(105.9115622 -1.223072219 0)
(105.798755 -1.197891137 0)
(105.1426932 -1.254436496 0)
(105.0978295 -1.305419717 0)
(104.8499481 -1.268381117 0)
(103.2142787 -1.276595571 0)
(103.2434361 -1.331329859 0)
(102.0250756 -1.260790917 0)
(99.42361252 -1.293685649 0)
(99.29614119 -1.343843472 0)
(100.1049076 -1.323208631 0)
(106.5216076 -1.057186498 0)
(106.0584699 -1.126105127 0)
(105.9970795 -1.162170233 0)
(105.8766334 -1.146994205 0)
(105.1985101 -1.200423431 0)
(105.1570384 -1.239466351 0)
(104.8921977 -1.213268872 0)
(103.1745936 -1.218759473 0)
(103.2044094 -1.2605474 0)
(101.955061 -1.203437457 0)
(99.57378222 -1.240680054 0)
(99.46320601 -1.278968952 0)
(100.1527064 -1.263506931 0)
(106.6118725 -1.023593816 0)
(106.1375541 -1.090221525 0)
(106.0785046 -1.115849578 0)
(105.9512623 -1.110385749 0)
(105.2508309 -1.161567947 0)
(105.2118726 -1.189320109 0)
(104.9309311 -1.173628332 0)
(103.1348327 -1.177334707 0)
(103.1646232 -1.206895927 0)
(101.8898184 -1.162658834 0)
(99.70350357 -1.203010087 0)
(99.60802726 -1.229841266 0)
(100.1899622 -1.220638747 0)
(106.6995493 -1.002616211 0)
(106.214361 -1.067637882 0)
(106.1569337 -1.083356239 0)
(106.0236379 -1.087309066 0)
(105.3008244 -1.137063519 0)
(105.2634968 -1.154127979 0)
(104.9673833 -1.148670432 0)
(103.0958212 -1.15160069 0)
(103.1249736 -1.169447668 0)
(101.8296429 -1.137694962 0)
(99.81548373 -1.180418038 0)
(99.73304055 -1.19595018 0)
(100.2191737 -1.194115523 0)
(106.7954844 -0.9930710725 0)
(106.2983341 -1.056939426 0)
(106.233215 -1.063975536 0)
(106.1027609 -1.076159048 0)
(105.3555151 -1.124813476 0)
(105.3130142 -1.133063463 0)
(105.0072995 -1.136267756 0)
(103.0550828 -1.140703495 0)
(103.0863968 -1.147581785 0)
(101.7698649 -1.128853683 0)
(99.92240383 -1.172730529 0)
(99.8407384 -1.177218119 0)
(100.2438503 -1.182614662 0)
(92.13056524 -8.789671351 5.240640153e-21)
(91.81622355 -8.524351394 5.556666516e-19)
(92.24515646 -8.206464546 1.022210781e-18)
(94.11587742 -10.43385211 4.502620383e-19)
(93.69128979 -10.06313137 4.710502951e-19)
(94.22602824 -9.593159541 -4.373338264e-19)
(90.9668255 -19.73857234 3.225129191e-19)
(93.69744257 -7.36296306 0)
(93.11922869 -6.982962347 0)
(93.91901295 -6.566428376 1.277869912e-18)
(92.07408105 -7.758235004 -7.938691351e-19)
(92.84716176 -7.162276715 -1.226164889e-18)
(93.43007491 -7.57644943 1.155307981e-20)
(95.52985402 -8.255045742 -4.64740578e-19)
(94.81129681 -7.935212557 1.016484288e-18)
(95.52899109 -7.40928271 -1.674630175e-19)
(93.91108859 -9.021688156 -7.860477634e-19)
(94.57262009 -8.191665665 -5.045326192e-19)
(95.3259317 -8.548265723 -4.714387369e-19)
(93.64054926 -7.709059822 1.133409859e-18)
(94.32276568 -8.08110524 5.30376964e-19)
(93.64015794 -8.87151118 0)
(93.07043953 -9.533384184 0)
(92.69296012 -9.248390651 5.166947218e-19)
(93.14778777 -8.874914742 9.501688414e-19)
(90.67575789 -9.87869431 0)
(91.45974271 -9.904630967 2.612725055e-21)
(91.49445854 -9.960626765 0)
(91.07292855 -9.207216802 0)
(91.11349627 -9.257233617 2.108390496e-22)
(90.68734008 -9.272399364 4.870469924e-19)
(80.69232013 -7.404963407 0)
(80.75618983 -8.321249414 0)
(96.63398785 -10.14435659 -3.916759806e-19)
(76.83700149 -10.92499605 -3.739410604e-19)
(82.72637841 -11.04452026 -2.723451069e-19)
(91.50054064 -18.89817111 -3.222301998e-19)
(92.73086664 -16.71796981 -9.074639709e-19)
(90.61386867 -9.117283852 5.891307043e-19)
(91.00917233 -9.104775751 -2.332745616e-19)
(91.03691472 -9.156203909 4.6599852e-19)
(90.95069454 -8.537451827 -4.667180616e-19)
(90.33000558 -8.6473464 -5.118192086e-19)
(92.14218838 -8.115309602 -5.102066723e-19)
(91.71369573 -8.435810453 -5.506544883e-19)
(79.76563896 -9.284412209 -4.979597762e-19)