/*--------------------------------*- C++ -*----------------------------------*\
| =========                 |                                                 |
| \\      /  F ield         | OpenFOAM: The Open Source CFD Toolbox           |
|  \\    /   O peration     | Version:  v2012                                 |
|   \\  /    A nd           | Website:  www.openfoam.com                      |
|    \\/     M anipulation  |                                                 |
\*---------------------------------------------------------------------------*/
FoamFile
{
    version     2.0;
    format      ascii;
    class       surfaceVectorField;
    location    "3";
    object      Uf;
}
// * * * * * * * * * * * * * * * * * * * * * * * * * * * * * * * * * * * * * //

dimensions      [0 1 -1 0 0 0 0];


internalField   nonuniform List<vector> 
6430
(
(101.3933864 -0.3931721184 5.74591837e-20)
(101.6181725 -0.2035752315 3.424681399e-21)
(101.3063728 -0.7965456558 -5.256568139e-20)
(101.5639977 -0.6151448824 5.407992674e-20)
(101.154238 -1.219655199 -1.009085838e-19)
(101.4587144 -1.039118592 -1.089579465e-19)
(100.8377719 -1.647499211 -1.495866449e-21)
(101.2838706 -1.506223219 -2.361007839e-22)
(100.9950409 -1.698708415 3.146748363e-19)
(100.6212142 -1.709324408 -8.575886261e-22)
(100.8370832 -1.804653917 2.183278676e-19)
(100.6338602 -1.874665992 -8.60606112e-22)
(100.1910796 -2.207526649 0)
(100.4323885 -2.137006335 0)
(100.4601981 -2.334344181 0)
(100.1975935 -2.419622983 0)
(99.64115404 -2.811803514 -9.488921652e-22)
(99.93656678 -2.727588548 -4.695310772e-22)
(99.96503487 -2.976122989 -2.278448202e-19)
(99.58894918 -3.038946028 2.231088875e-21)
(99.70603747 -3.096819439 -3.138804101e-22)
(99.02147875 -3.445391527 -4.63149872e-19)
(99.21443439 -3.399013389 -1.911317747e-19)
(99.21103654 -3.541074338 1.108028278e-19)
(99.00057047 -3.59810167 -4.959567185e-20)
(97.91537496 -4.325933553 -1.188408426e-19)
(98.19015274 -4.267381834 -9.933075955e-19)
(98.15865343 -4.445124771 3.817717551e-19)
(97.86788197 -4.519108442 5.17105277e-19)
(96.39540699 -5.457502739 -2.746522007e-19)
(96.75463735 -5.379448348 -2.092537224e-19)
(96.71219931 -5.606416795 -2.743935379e-19)
(96.33479159 -5.705275438 -1.391174071e-19)
(94.48700076 -6.914165555 -3.035178305e-19)
(94.93352773 -6.811532252 -5.953944936e-19)
(94.88839205 -7.124608634 -3.006888206e-19)
(94.34186007 -7.189161354 -2.001376213e-19)
(94.48207292 -7.260541284 1.587870608e-19)
(92.62656459 -8.493939612 -7.441565843e-19)
(92.75653207 -8.486058117 -1.182502585e-18)
(92.7313853 -8.576873763 -4.983754865e-19)
(92.61285524 -8.594248312 -7.421386818e-19)
(101.7849613 -0.4247106947 0)
(102.0171453 -0.2163564635 0)
(101.7126863 -0.8607400162 0)
(101.9735808 -0.6548672319 0)
(101.5862288 -1.320045082 0)
(101.8901851 -1.105165823 0)
(101.3089937 -1.794173906 0)
(101.7500227 -1.596432615 0)
(101.4793556 -1.838363869 0)
(101.0919219 -1.886283904 2.185049242e-19)
(101.3345397 -1.949571864 0)
(101.1313826 -2.052457272 0)
(100.7287587 -2.441410386 0)
(100.9618387 -2.339870937 0)
(101.0186365 -2.524253848 0)
(100.7691218 -2.648432029 0)
(100.2825154 -3.112489706 -1.744451865e-19)
(100.5600737 -2.98399447 5.268056685e-20)
(100.6276955 -3.208919037 4.838022398e-20)
(100.2764074 -3.334250179 -2.675067268e-19)
(100.4009808 -3.364022013 5.227417699e-20)
(99.79199722 -3.78906831 1.427473448e-19)
(99.97320579 -3.718179136 -3.470947098e-20)
(99.99861486 -3.847788405 -1.326011309e-19)
(99.80119841 -3.931895343 4.125480664e-19)
(98.89343665 -4.741450761 2.392887763e-19)
(99.14724485 -4.648143528 -4.425245361e-19)
(99.15631978 -4.805188231 1.039478558e-19)
(98.88861692 -4.916748945 -1.166469946e-19)
(97.67403571 -5.966526498 -6.281216569e-19)
(98.00406338 -5.837880975 -5.521069712e-19)
(98.01901759 -6.034644262 -7.196938817e-20)
(97.67487982 -6.191079298 3.426387207e-20)
(96.16970636 -7.641007216 0)
(96.59396395 -7.440692197 -2.384689136e-19)
(96.65114692 -7.719164732 0)
(96.12640675 -7.9266025 -3.008840289e-19)
(96.31072286 -7.953482344 0)
(94.77551641 -9.8955899 2.294970057e-19)
(95.01510526 -9.838066271 -6.086707434e-20)
(95.11613484 -10.09081506 -1.174766497e-19)
(94.67325261 -10.03809183 -3.84185263e-20)
(94.67690152 -10.23301469 -3.297869688e-19)
(94.82321328 -10.26499511 -4.057952508e-20)
(102.201667 -0.4454742526 0)
(102.4356233 -0.2237144672 0)
(102.1458074 -0.9021533943 0)
(102.4025613 -0.677759102 0)
(102.0470743 -1.381536282 0)
(102.3405169 -1.142882694 0)
(101.8119448 -1.880072335 0)
(102.2327725 -1.641985298 0)
(101.9875983 -1.910784631 0)
(101.597504 -1.997723006 0)
(101.8571008 -2.030773345 0)
(101.663853 -2.156430893 0)
(101.3137146 -2.584293415 0)
(101.5320941 -2.455129256 0)
(101.6116407 -2.623085747 0)
(101.3849815 -2.772257406 0)
(100.974942 -3.271710478 -5.372185256e-20)
(101.2281731 -3.113848734 -4.98950809e-20)
(101.3217759 -3.305699182 -4.95202449e-20)
(101.0066593 -3.470780727 -4.116890723e-19)
(101.1308437 -3.492144622 9.428383088e-20)
(100.6205724 -3.958794968 2.441461839e-20)
(100.78 -3.867782302 0)
(100.8251024 -3.977467823 -1.789066239e-19)
(100.6564933 -4.078141478 1.988982279e-19)
(99.9452423 -4.900814098 1.080060239e-19)
(100.1695291 -4.782062651 4.375569718e-20)
(100.2057314 -4.90417189 -4.285831901e-21)
(99.97689064 -5.045128577 -4.452809682e-21)
(99.04663713 -6.090358194 2.978280311e-19)
(99.32866346 -5.921883732 3.787930133e-19)
(99.37666025 -6.065576741 1.953866223e-19)
(99.0973663 -6.255387249 4.970457885e-20)
(98.0859345 -7.674417677 3.537690346e-23)
(98.41762926 -7.416134541 2.732163184e-21)
(98.53069992 -7.580594908 -1.898013075e-19)
(98.23830735 -7.874636515 -3.655296282e-19)
(97.84426115 -9.907712434 0)
(97.90761298 -9.500577334 1.672587041e-20)
(97.56682511 -9.634230948 1.477893574e-19)
(92.45140125 -9.118351693 0)
(97.50866096 -10.13035619 -2.267288431e-19)
(102.6325192 -0.4553237831 0)
(102.8633788 -0.2260523211 0)
(102.592404 -0.9208562887 0)
(102.8398836 -0.6848171281 0)
(102.520223 -1.406721377 0)
(102.7969645 -1.153893941 0)
(102.3256331 -1.917194311 0)
(102.7185735 -1.648220214 0)
(102.5001914 -1.930468162 0)
(102.1202434 -2.050311279 0)
(102.383424 -2.057235327 0)
(102.2054483 -2.197368121 0)
(101.9083059 -2.642254864 0)
(102.107761 -2.495126853 0)
(102.202071 -2.643516083 0)
(102.0007791 -2.807825825 0)
(101.6640157 -3.312880944 -2.93450976e-24)
(101.8891523 -3.141127756 -3.47763375e-22)
(101.9975382 -3.296131126 -3.477785261e-22)
(101.7208363 -3.499547544 -2.315998502e-22)
(101.8378529 -3.492789302 -2.317881494e-22)
(101.4218316 -3.982502252 1.505032974e-19)
(101.5580748 -3.880061041 1.612938442e-19)
(101.6131317 -3.968354055 7.723933615e-20)
(101.4719074 -4.078257388 3.476667349e-19)
(100.9421751 -4.848091493 1.565362242e-19)
(101.1275849 -4.717526555 4.790890501e-19)
(101.1728386 -4.809977857 4.164588737e-23)
(100.9869359 -4.950185471 3.117930339e-19)
(100.2943101 -5.889578327 -2.122778144e-20)
(100.5187966 -5.714310744 1.397097719e-20)
(100.5721537 -5.805269686 -6.023706909e-20)
(100.3568721 -5.992679743 -1.805425195e-20)
(99.68102259 -7.14463361 1.412536388e-19)
(99.91178426 -6.898977258 1.397041335e-19)
(99.99946683 -6.964628361 1.119366093e-19)
(99.80740565 -7.219596711 -6.337890117e-20)
(97.10076943 -8.292234265 0)
(98.32466276 -8.055608813 1.125501782e-19)
(96.85423372 -7.858533866 9.472480302e-20)
(93.37579419 -7.644748967 0)
(103.0672592 -0.4553698114 0)
(103.2911527 -0.2240753831 0)
(103.0407026 -0.9195256389 0)
(103.2758873 -0.678273791 0)
(102.9913241 -1.400725364 0)
(103.249003 -1.141882501 0)
(102.8329116 -1.911357999 0)
(103.1951829 -1.621298349 0)
(103.0015987 -1.904804136 0)
(102.6408303 -2.052120369 0)
(102.8975496 -2.036678806 0)
(102.737236 -2.184653351 0)
(102.4894089 -2.628563659 0)
(102.6679683 -2.471864765 0)
(102.7695094 -2.599304149 0)
(102.5933388 -2.770018396 0)
(102.3202151 -3.25898874 0)
(102.5167519 -3.083505704 0)
(102.629649 -3.204610443 0)
(102.3876603 -3.427752441 0)
(102.4943756 -3.398089508 0)
(102.1564387 -3.883939071 -5.733661969e-20)
(102.2697878 -3.776304387 1.376307617e-20)
(102.3262837 -3.843785427 8.526327987e-21)
(102.2097234 -3.956299189 -3.08541304e-20)
(101.8073846 -4.649144308 -3.571771603e-20)
(101.9566243 -4.519933484 -2.761983138e-19)
(101.9991554 -4.581674386 -1.3754438e-19)
(101.8495576 -4.71680649 -2.011000767e-19)
(101.3052289 -5.497139442 1.638901355e-21)
(101.4805098 -5.334914199 6.411311587e-20)
(101.515966 -5.382848568 3.702487682e-21)
(101.3475039 -5.548737597 -1.457084354e-19)
(100.8004352 -6.406559167 4.929579839e-20)
(100.9683337 -6.203713229 4.866528351e-20)
(101.0230649 -6.222796682 -2.685995668e-20)
(100.8929596 -6.42777336 -1.051672198e-19)
(95.9037245 -6.695348832 -1.255654177e-19)
(97.75655776 -6.71700384 -6.136416991e-20)
(95.56796783 -6.360060435 -7.846601388e-20)
(93.85312208 -6.433071096 -2.21789728e-20)
(103.4970444 -0.4472455796 0)
(103.7112947 -0.2185876284 0)
(103.4813933 -0.9016032704 0)
(103.7026871 -0.6607394368 0)
(103.4501434 -1.369152461 0)
(103.6882182 -1.111305463 0)
(103.3218385 -1.868366479 0)
(103.6533599 -1.568281834 0)
(103.4814063 -1.845406855 0)
(103.1449606 -2.011185957 0)
(103.3889771 -1.97810916 0)
(103.2459333 -2.128138728 0)
(103.0398517 -2.557806376 0)
(103.1981079 -2.398564419 0)
(103.3004681 -2.506080708 0)
(103.146837 -2.675978188 0)
(102.9243192 -3.136002892 0)
(103.0943544 -2.963359282 0)
(103.203324 -3.056029939 0)
(102.9921941 -3.282092909 0)
(103.0869308 -3.238670202 0)
(102.8015315 -3.696277717 0)
(102.8981849 -3.590992362 0)
(102.9490704 -3.640281257 0)
(102.8501173 -3.748072537 0)
(102.5160942 -4.351089255 8.971003945e-20)
(102.6390192 -4.229009651 3.61851874e-20)
(102.6700562 -4.26753527 2.872496224e-20)
(102.5452336 -4.391941388 5.679695689e-20)
(102.0592126 -5.024882154 1.301774284e-19)
(102.2029912 -4.882827505 -7.619109283e-20)
(102.2141785 -4.903505803 2.307610549e-20)
(102.0732078 -5.045559471 -1.163969004e-19)
(101.5807336 -5.692343624 -2.5614899e-19)
(101.7068272 -5.528144053 -7.872833554e-20)
(101.7327306 -5.523660186 -1.459215032e-20)
(101.6097831 -5.686814604 -8.607665103e-20)
(94.82695287 -5.546806283 1.516072137e-19)
(96.72107928 -5.618007916 -5.17622819e-20)
(94.72979012 -5.339102121 9.001084135e-20)
(94.65005146 -5.616193456 -7.101911085e-22)
(103.9148873 -0.4326805821 0)
(104.1177544 -0.2104039657 0)
(103.9074296 -0.8706858933 0)
(104.1141264 -0.6348454536 0)
(103.8894883 -1.317904933 0)
(104.1083352 -1.066719872 0)
(103.7841708 -1.796484508 0)
(104.0867015 -1.496554015 0)
(103.9327704 -1.761918713 0)
(103.6222792 -1.937408144 0)
(103.8504143 -1.891866913 0)
(103.7227945 -2.039350038 0)
(103.549598 -2.446056945 0)
(103.6895015 -2.289672519 0)
(103.7879112 -2.379474142 0)
(103.6530635 -2.543345555 0)
(103.4664499 -2.96741379 0)
(103.6143729 -2.802411486 0)
(103.714107 -2.872776466 0)
(103.5275597 -3.091327616 0)
(103.6100178 -3.040785623 0)
(103.3589764 -3.458759822 0)
(103.4433038 -3.360077326 0)
(103.4853403 -3.395082923 0)
(103.3983222 -3.494581832 0)
(103.0854784 -4.007096885 0)
(103.1931108 -3.896484209 0)
(103.2101686 -3.918964657 0)
(103.0994955 -4.02920426 0)
(102.6183486 -4.541664142 -5.44891588e-21)
(102.7463334 -4.418688537 0)
(102.7366294 -4.423574321 0)
(102.6094097 -4.544591432 0)
(102.0936011 -5.040883362 4.3986217e-21)
(102.2075286 -4.907589761 1.346138333e-20)
(102.1859492 -4.887631792 -5.436691687e-21)
(101.9782064 -5.009074043 3.065814474e-20)
(94.89763567 -4.85203334 -2.644698752e-20)
(96.23036566 -4.845206832 -8.354740149e-21)
(95.05436899 -4.715078236 3.481812812e-20)
(95.88022376 -5.019376652 2.366473201e-20)
(104.3155723 -0.4134021077 0)
(104.5061039 -0.2003197656 0)
(104.3136595 -0.8304159185 0)
(104.5058473 -0.6031359961 0)
(104.3044113 -1.252952283 0)
(104.5052654 -1.012472926 0)
(104.2151573 -1.704963887 0)
(104.49164 -1.41289508 0)
(104.3519588 -1.663063351 0)
(104.0671715 -1.841023236 0)
(104.2778612 -1.787685573 0)
(104.1634342 -1.92925749 0)
(104.0142316 -2.307960486 0)
(104.1385459 -2.158220521 0)
(104.2296339 -2.232967336 0)
(104.1096803 -2.387506039 0)
(103.9464029 -2.774367729 0)
(104.0766718 -2.618341951 0)
(104.1637151 -2.673820345 0)
(103.9954907 -2.873700893 0)
(104.0670347 -2.825664794 0)
(103.8349532 -3.199215437 0)
(103.9107482 -3.108775525 0)
(103.9425803 -3.133250281 0)
(103.8634073 -3.22333617 0)
(103.5477818 -3.656116828 0)
(103.6462359 -3.55821391 0)
(103.649316 -3.569881278 0)
(103.5465552 -3.666286717 0)
(103.0505005 -4.081873824 0)
(103.1694704 -3.976721215 0)
(103.143099 -3.972790416 0)
(103.0238818 -4.075282909 0)
(102.4054629 -4.45466183 0)
(102.5410105 -4.346968585 0)
(102.460867 -4.319115432 0)
(102.152479 -4.405941989 0)
(95.58933713 -4.323508068 0)
(96.38762945 -4.257230125 0)
(95.77422058 -4.201904187 0)
(96.86327078 -4.454019803 0)
(104.6955442 -0.3910366137 0)
(104.8734646 -0.1890596578 0)
(104.6967516 -0.7841671864 0)
(104.875155 -0.5679191644 0)
(104.6920621 -1.179614637 0)
(104.8767699 -0.9524518271 0)
(104.6127878 -1.601260322 0)
(104.8665578 -1.322950705 0)
(104.7379079 -1.556127903 0)
(104.4770536 -1.731021855 0)
(104.6704241 -1.673709126 0)
(104.5665862 -1.807092635 0)
(104.4333757 -2.155806079 0)
(104.5450786 -2.014989027 0)
(104.6267957 -2.077549706 0)
(104.5179549 -2.220851512 0)
(104.3668549 -2.572373423 0)
(104.4841099 -2.425503819 0)
(104.5566668 -2.471054878 0)
(104.4025083 -2.648567456 0)
(104.4644242 -2.606528876 0)
(104.2401119 -2.936417527 0)
(104.3105176 -2.854721455 0)
(104.3317659 -2.871717922 0)
(104.2573202 -2.952279942 0)
(103.9251288 -3.318130691 0)
(104.0183686 -3.232205471 0)
(104.0084339 -3.236960471 0)
(103.909986 -3.320875312 0)
(103.3906226 -3.661424905 0)
(103.5045672 -3.571611558 0)
(103.4642843 -3.563025585 0)
(103.3487216 -3.650016964 0)
(102.5853753 -3.9399339 0)
(102.7564726 -3.854327147 0)
(102.6150557 -3.822150979 0)
(102.209359 -3.885919574 0)
(96.33185623 -3.860315433 0)
(96.69171871 -3.761100552 0)
(96.51504024 -3.754440609 0)
(97.63326833 -3.956081334 0)
(105.052705 -0.36699862 0)
(105.2182227 -0.1772361584 0)
(105.0549789 -0.7348116659 0)
(105.2206594 -0.5311403952 0)
(105.0513726 -1.102355703 0)
(105.2220404 -0.8899369765 0)
(104.9771845 -1.492435396 0)
(105.211515 -1.231153844 0)
(105.0910761 -1.446696991 0)
(104.852103 -1.614659196 0)
(105.0286674 -1.55632832 0)
(104.9332265 -1.68040032 0)
(104.809342 -1.999137828 0)
(104.9111993 -1.868351591 0)
(104.9824207 -1.921296932 0)
(104.8816306 -2.052585724 0)
(104.733982 -2.370752389 0)
(104.8423107 -2.233722541 0)
(104.8996646 -2.272135628 0)
(104.7557943 -2.428013399 0)
(104.809431 -2.392196819 0)
(104.5853876 -2.682141759 0)
(104.652665 -2.608993844 0)
(104.6636717 -2.62079533 0)
(104.5917405 -2.692340474 0)
(104.2359064 -3.003027394 0)
(104.3264992 -2.927876441 0)
(104.3049876 -2.928436085 0)
(104.2086404 -3.001423402 0)
(103.6629789 -3.284089351 0)
(103.7745781 -3.207156965 0)
(103.7226315 -3.196461567 0)
(103.6075643 -3.270665864 0)
(102.6752643 -3.492901434 0)
(102.8892031 -3.424926863 0)
(102.6870279 -3.390740021 0)
(102.1896539 -3.437451273 0)
(97.04463155 -3.458509693 0)
(97.05196169 -3.344153494 0)
(97.21248986 -3.366432884 0)
(98.25457783 -3.522863125 0)
(105.3861932 -0.3424377643 0)
(105.5399083 -0.1653342742 0)
(105.3879092 -0.6846533143 0)
(105.5421187 -0.4943199891 0)
(105.3826576 -1.024624899 0)
(105.5414093 -0.8274992006 0)
(105.3096678 -1.383529239 0)
(105.5277237 -1.140842903 0)
(105.4130996 -1.338935713 0)
(105.193694 -1.497463785 0)
(105.3544351 -1.440266897 0)
(105.2654724 -1.55464912 0)
(105.1456741 -1.844662657 0)
(105.2401218 -1.724250931 0)
(105.3004671 -1.769710374 0)
(105.2052143 -1.889020724 0)
(105.0544939 -2.175698557 0)
(105.1572944 -2.049499379 0)
(105.1994166 -2.081868052 0)
(105.0629417 -2.219485643 0)
(105.1095914 -2.188076998 0)
(104.8808039 -2.443219798 0)
(104.9465765 -2.378094822 0)
(104.9480128 -2.38636538 0)
(104.8770865 -2.449650054 0)
(104.4948022 -2.715190094 0)
(104.5843459 -2.649490458 0)
(104.5528151 -2.647679259 0)
(104.4572526 -2.711253602 0)
(103.8848554 -2.94899418 0)
(103.9959537 -2.882799796 0)
(103.9339082 -2.871501501 0)
(103.8168633 -2.93502365 0)
(102.7020699 -3.105153108 0)
(102.962009 -3.0511251 0)
(102.7013089 -3.016563044 0)
(102.1216808 -3.050314836 0)
(97.68456277 -3.107464706 0)
(97.42970482 -2.989814815 0)
(97.83056752 -3.02647821 0)
(98.74734545 -3.145258151 0)
(105.6961244 -0.3182355012 0)
(105.8388584 -0.1537250946 0)
(105.6960581 -0.635437817 0)
(105.840082 -0.4585932077 0)
(105.6871479 -0.9489566327 0)
(105.8359285 -0.7670433701 0)
(105.6123941 -1.278037496 0)
(105.8170143 -1.054432264 0)
(105.7062748 -1.235781444 0)
(105.5040744 -1.383421393 0)
(105.6502323 -1.328862891 0)
(105.5661584 -1.433632534 0)
(105.4465206 -1.69682947 0)
(105.5355764 -1.586680652 0)
(105.5851075 -1.62629294 0)
(105.4934855 -1.734199862 0)
(105.3353386 -1.991109016 0)
(105.4351961 -1.876720183 0)
(105.4629008 -1.903818391 0)
(105.3307415 -2.027055771 0)
(105.3713768 -1.997978692 0)
(105.134884 -2.223149857 0)
(105.2001918 -2.165360316 0)
(105.1929354 -2.171243459 0)
(105.1220581 -2.227151464 0)
(104.7132354 -2.455774811 0)
(104.8026598 -2.398276715 0)
(104.7626055 -2.395317839 0)
(104.6670844 -2.450826251 0)
(104.068041 -2.653172963 0)
(104.1800811 -2.596000867 0)
(104.1088065 -2.584935026 0)
(103.9878038 -2.639391653 0)
(102.6852774 -2.769004801 0)
(102.9916669 -2.726017459 0)
(102.6760836 -2.692227911 0)
(102.0256597 -2.71623136 0)
(98.2330815 -2.798110509 0)
(97.7995961 -2.685501696 0)
(98.35536839 -2.726609585 0)
(99.13264895 -2.815663679 0)
(105.9833081 -0.2950377683 0)
(106.1160327 -0.1426812927 0)
(105.9805701 -0.5884293713 0)
(106.1156947 -0.4247713955 0)
(105.9665897 -0.8771396404 0)
(106.1071584 -0.7099077825 0)
(105.8878974 -1.178339703 0)
(106.0815929 -0.9735668177 0)
(105.9731773 -1.139202626 0)
(105.7859121 -1.275273358 0)
(105.9188337 -1.22434082 0)
(105.8383537 -1.319843876 0)
(105.7159829 -1.558353475 0)
(105.8012894 -1.458121282 0)
(105.840326 -1.493179998 0)
(105.7508247 -1.590478644 0)
(105.5827662 -1.820253411 0)
(105.6813466 -1.717386421 0)
(105.6955238 -1.740567678 0)
(105.565547 -1.850637954 0)
(105.6012163 -1.824208245 0)
(105.3549012 -2.023214583 0)
(105.4204934 -1.972010144 0)
(105.40543 -1.976419399 0)
(105.3339808 -2.025794101 0)
(104.9000004 -2.224277269 0)
(104.9898138 -2.173878343 0)
(104.9425791 -2.170616359 0)
(104.846671 -2.2191991 0)
(104.2206992 -2.393118844 0)
(104.3348834 -2.343649269 0)
(104.2548432 -2.333284506 0)
(104.1283693 -2.379992096 0)
(102.6395349 -2.477862317 0)
(102.990825 -2.443814726 0)
(102.6248699 -2.411420347 0)
(101.9155799 -2.428204961 0)
(98.68738399 -2.525112774 0)
(98.14637633 -2.422517788 0)
(98.78686527 -2.462077802 0)
(99.43046665 -2.528405516 0)
(106.249027 -0.2732986563 0)
(106.3727691 -0.1323962535 0)
(106.2429964 -0.5445036086 0)
(106.3704505 -0.3934148144 0)
(106.2230062 -0.8103759348 0)
(106.3569186 -0.6569980143 0)
(106.1388411 -1.085947531 0)
(106.3237853 -0.8993081429 0)
(106.2164534 -1.050436898 0)
(106.0420202 -1.174782498 0)
(106.1630889 -1.128076635 0)
(106.0851245 -1.214833534 0)
(105.9579329 -1.430914833 0)
(106.0408085 -1.340057861 0)
(106.0698576 -1.37164697 0)
(105.9812563 -1.459196383 0)
(105.8017568 -1.664835458 0)
(105.9002367 -1.572671347 0)
(105.9019478 -1.593108198 0)
(105.7727076 -1.691169277 0)
(105.804235 -1.667496602 0)
(105.5469945 -1.843686191 0)
(105.6133671 -1.798349165 0)
(105.5913428 -1.801963014 0)
(105.5189491 -1.845565388 0)
(105.0618585 -2.019381638 0)
(105.1523387 -1.975134961 0)
(105.0990518 -1.972133035 0)
(105.0024556 -2.014732679 0)
(104.3489109 -2.165439427 0)
(104.4662115 -2.12260971 0)
(104.3777129 -2.113222508 0)
(104.2446441 -2.153273597 0)
(102.575235 -2.226087258 0)
(102.9687291 -2.199397501 0)
(102.5571699 -2.168737433 0)
(101.8006269 -2.180164073 0)
(99.05379434 -2.284707482 0)
(98.46205577 -2.194599304 0)
(99.1328529 -2.229351179 0)
(99.65826993 -2.278768664 0)
(106.4948914 -0.2533198666 0)
(106.6107375 -0.1229961505 0)
(106.4851585 -0.5042307865 0)
(106.606143 -0.36487754 0)
(106.4585769 -0.7494198915 0)
(106.5872489 -0.6088736067 0)
(106.3678695 -1.001767585 0)
(106.5460056 -0.8322600335 0)
(106.4387288 -0.9701839353 0)
(106.2751684 -1.083016706 0)
(106.385749 -1.04086566 0)
(106.3094016 -1.11948824 0)
(106.175911 -1.315438476 0)
(106.2574129 -1.2332804 0)
(106.277081 -1.262302716 0)
(106.1884459 -1.340971019 0)
(105.9966079 -1.525374238 0)
(106.0958797 -1.44295847 0)
(106.0861772 -1.461602888 0)
(105.9566683 -1.548768505 0)
(105.9847415 -1.527856078 0)
(105.7161758 -1.6841928 0)
(105.7836425 -1.644053276 0)
(105.7554697 -1.647365463 0)
(105.681921 -1.685888327 0)
(105.2038969 -1.839444981 0)
(105.2952243 -1.800541748 0)
(105.2367831 -1.798155729 0)
(105.1392367 -1.835553942 0)
(104.4573605 -1.967090726 0)
(104.5785429 -1.930012306 0)
(104.4818334 -1.921761169 0)
(104.3413473 -1.95606732 0)
(102.4996675 -2.008988129 0)
(102.9320468 -1.988383429 0)
(102.4796613 -1.959654494 0)
(101.6868675 -1.967083465 0)
(99.34305867 -2.073978128 0)
(98.74336866 -1.996975096 0)
(99.40479025 -2.025648893 0)
(99.83069876 -2.062697354 0)
(106.7227364 -0.2352853551 0)
(106.8317643 -0.1145582238 0)
(106.7090502 -0.4679475945 0)
(106.8246938 -0.339365666 0)
(106.6755575 -0.6946876634 0)
(106.8002483 -0.5658502477 0)
(106.5775867 -0.9262498937 0)
(106.7506222 -0.7727209028 0)
(106.6425541 -0.8987586012 0)
(106.4880785 -1.000518478 0)
(106.5894819 -0.9630584307 0)
(106.5139981 -1.034200744 0)
(106.3731747 -1.212257494 0)
(106.4541539 -1.138067641 0)
(106.4650943 -1.165279401 0)
(106.3757026 -1.235911664 0)
(106.1710868 -1.401741908 0)
(106.2718103 -1.328121598 0)
(106.2517126 -1.345718833 0)
(106.1212241 -1.423064367 0)
(106.1464297 -1.404840189 0)
(105.866612 -1.543956244 0)
(105.9353484 -1.508409029 0)
(105.9017844 -1.511790066 0)
(105.8269799 -1.545847296 0)
(105.3300019 -1.682685169 0)
(105.4223197 -1.648449738 0)
(105.3594098 -1.646908488 0)
(105.2606771 -1.679751474 0)
(104.5497367 -1.795319779 0)
(104.6753978 -1.763256374 0)
(104.570677 -1.756235329 0)
(104.4221797 -1.785545141 0)
(102.4180232 -1.822588412 0)
(102.885646 -1.807035814 0)
(102.3971193 -1.780376545 0)
(101.5782815 -1.784785198 0)
(99.56786628 -1.890543384 0)
(98.99018874 -1.826057183 0)
(99.61550031 -1.848699707 0)
(99.95990363 -1.876758773 0)
(106.9344838 -0.2192958133 0)
(107.0377706 -0.1071233222 0)
(106.9167093 -0.4358275369 0)
(107.0280923 -0.316977329 0)
(106.8761702 -0.6463675988 0)
(106.9980294 -0.5280688218 0)
(106.7704618 -0.8595497144 0)
(106.9399293 -0.7207756341 0)
(106.8303477 -0.8362242085 0)
(106.6833195 -0.9274905144 0)
(106.7767911 -0.8947372898 0)
(106.7015293 -0.9590567175 0)
(106.5526559 -1.121356355 0)
(106.6338078 -1.054392579 0)
(106.6366892 -1.08044648 0)
(106.5459615 -1.143842052 0)
(106.3284063 -1.293430985 0)
(106.4310644 -1.227783557 0)
(106.4014489 -1.244739486 0)
(106.2696283 -1.313440915 0)
(106.2925247 -1.297642249 0)
(106.0017672 -1.422029156 0)
(106.0718633 -1.39054156 0)
(106.0335824 -1.394291681 0)
(105.9574799 -1.424406342 0)
(105.4431836 -1.547382099 0)
(105.5366182 -1.517256153 0)
(105.4697539 -1.516715402 0)
(105.3696265 -1.545537591 0)
(104.628952 -1.647710417 0)
(104.7595587 -1.620056147 0)
(104.6469863 -1.614326197 0)
(104.4900544 -1.639251747 0)
(102.333971 -1.663551647 0)
(102.83309 -1.652253769 0)
(102.3128974 -1.627730708 0)
(101.4774643 -1.629822558 0)
(99.7407941 -1.732324093 0)
(99.20424471 -1.679140129 0)
(99.77727652 -1.696468355 0)
(100.0556958 -1.717971959 0)
(107.1321747 -0.2053903922 0)
(107.2307253 -0.100710033 0)
(107.110249 -0.4079277662 0)
(107.2183564 -0.2977419244 0)
(107.0626506 -0.6044839792 0)
(107.1826848 -0.4955496445 0)
(106.9488557 -0.8016623607 0)
(107.1161674 -0.676401563 0)
(107.0044059 -0.7824972097 0)
(106.8633153 -0.8639179874 0)
(106.950014 -0.8358005756 0)
(106.8744329 -0.8939483827 0)
(106.7170214 -1.042513023 0)
(106.7989244 -0.9820382098 0)
(106.7944245 -1.00748276 0)
(106.7019014 -1.064420564 0)
(106.4712639 -1.199534178 0)
(106.5763616 -1.141517088 0)
(106.5381581 -1.157754298 0)
(106.4046491 -1.220116206 0)
(106.4255762 -1.205328217 0)
(106.1244858 -1.317461511 0)
(106.1959602 -1.289588387 0)
(106.153549 -1.293900158 0)
(106.0761518 -1.320523911 0)
(105.5458313 -1.43193951 0)
(105.6405074 -1.405447958 0)
(105.5700856 -1.40600468 0)
(105.468371 -1.431264194 0)
(104.6973496 -1.522157368 0)
(104.833278 -1.498399569 0)
(104.7129944 -1.49399329 0)
(104.5473243 -1.515051851 0)
(102.2501031 -1.529152967 0)
(102.7770114 -1.521414765 0)
(102.2294033 -1.499129184 0)
(101.3860505 -1.499381404 0)
(99.87307024 -1.597328382 0)
(99.38820086 -1.553986048 0)
(99.90094155 -1.56698868 0)
(100.1258641 -1.583652234 0)
(107.3175958 -0.1935817315 0)
(107.4125757 -0.09531606398 0)
(107.2915159 -0.3842444074 0)
(107.3974549 -0.2816386079 0)
(107.2369284 -0.5689730703 0)
(107.3562187 -0.4682395406 0)
(107.1148988 -0.7522871549 0)
(107.2813492 -0.6394311178 0)
(107.1668345 -0.7373345824 0)
(107.0302943 -0.8096309685 0)
(107.1113599 -0.7860550678 0)
(107.0349599 -0.8385870589 0)
(106.8687093 -0.9753067492 0)
(106.9518345 -0.9206379404 0)
(106.9405885 -0.9459145793 0)
(106.8459446 -0.997149926 0)
(106.6024232 -1.119369178 0)
(106.7102795 -1.068613935 0)
(106.6643636 -1.084362991 0)
(106.5286638 -1.141702782 0)
(106.5479835 -1.127406267 0)
(106.23707 -1.229191652 0)
(106.3099109 -1.204529084 0)
(106.2638986 -1.209549698 0)
(106.1852145 -1.233092668 0)
(105.6398977 -1.3348872 0)
(105.735935 -1.311620327 0)
(105.6622672 -1.313343079 0)
(105.5587884 -1.33543593 0)
(104.7568618 -1.416826476 0)
(104.8984163 -1.396529753 0)
(104.7705415 -1.393465316 0)
(104.5959211 -1.411093779 0)
(102.1683652 -1.417115046 0)
(102.7194593 -1.412353332 0)
(102.1484405 -1.392375374 0)
(101.3048528 -1.391140184 0)
(99.97417531 -1.483747778 0)
(99.54509836 -1.448785039 0)
(99.9955078 -1.458515683 0)
(100.176544 -1.47149658 0)
(107.4934567 -0.1838274174 0)
(107.585263 -0.09095730579 0)
(107.4631829 -0.3647060592 0)
(107.5673629 -0.2686744955 0)
(107.4016632 -0.5396681745 0)
(107.5205779 -0.4460760531 0)
(107.2708761 -0.7114564667 0)
(107.4376798 -0.6099506381 0)
(107.3197545 -0.7007109282 0)
(107.1864282 -0.7644138654 0)
(107.2627695 -0.7451958777 0)
(107.1852032 -0.7927269807 0)
(107.0098843 -0.9192480794 0)
(107.0946399 -0.8697813499 0)
(107.0772444 -0.8952466479 0)
(106.9802078 -0.9414829886 0)
(106.7243719 -1.052793599 0)
(106.8351032 -1.008325373 0)
(106.7825445 -1.024689117 0)
(106.6437962 -1.07667719 0)
(106.6617637 -1.063832511 0)
(106.341472 -1.156166222 0)
(106.4156665 -1.134322189 0)
(106.3665476 -1.140163515 0)
(106.2865629 -1.161019448 0)
(105.7270237 -1.25490503 0)
(105.8245525 -1.234496543 0)
(105.7478933 -1.237437738 0)
(105.6424697 -1.256715289 0)
(104.8090828 -1.330131136 0)
(104.9565231 -1.312918831 0)
(104.8211655 -1.311209381 0)
(104.6374461 -1.325782623 0)
(102.0901178 -1.325554545 0)
(102.662023 -1.323248029 0)
(102.0712012 -1.305668187 0)
(101.2339576 -1.303108057 0)
(100.0516956 -1.390043917 0)
(99.67816009 -1.362153393 0)
(100.0681069 -1.369571077 0)
(100.2124694 -1.379625558 0)
(107.658875 -0.1762044898 0)
(107.7507893 -0.08756623384 0)
(107.6245263 -0.3493580003 0)
(107.7300142 -0.2587231083 0)
(107.5562547 -0.5166198783 0)
(107.6777036 -0.4289266442 0)
(107.4178899 -0.6773905304 0)
(107.586008 -0.5867496887 0)
(107.4648528 -0.6716431062 0)
(107.3333085 -0.7278988423 0)
(107.4068631 -0.7130692493 0)
(107.327138 -0.7556944704 0)
(107.1425062 -0.87388971 0)
(107.2293137 -0.829038526 0)
(107.2062969 -0.8552128003 0)
(107.1064999 -0.8969407112 0)
(106.8389297 -0.9999174959 0)
(106.9524659 -0.9600718372 0)
(106.8938117 -0.9783079442 0)
(106.7521951 -1.023192428 0)
(106.7692902 -1.013801328 0)
(106.4396093 -1.097412627 0)
(106.515256 -1.078034666 0)
(106.4633891 -1.084891703 0)
(106.3820267 -1.103346341 0)
(105.8086674 -1.190838758 0)
(105.9078329 -1.172976584 0)
(105.828376 -1.177195728 0)
(105.7208241 -1.193954364 0)
(104.8554231 -1.260744525 0)
(105.0089721 -1.246293725 0)
(104.8662441 -1.245971561 0)
(104.6733361 -1.25781159 0)
(102.0161053 -1.252817811 0)
(102.6057813 -1.252593787 0)
(101.9983084 -1.237410923 0)
(101.173009 -1.233650362 0)
(100.111458 -1.314937801 0)
(99.79061396 -1.293004128 0)
(100.1241614 -1.298936111 0)
(100.2372348 -1.306525623 0)
(107.8263186 -0.170387904 0)
(107.9108608 -0.08534958813 0)
(107.7874678 -0.3378176127 0)
(107.887298 -0.2521227675 0)
(107.711714 -0.4994079574 0)
(107.8295102 -0.417292693 0)
(107.561161 -0.6543098756 0)
(107.7300588 -0.5720138714 0)
(107.6062904 -0.6511756372 0)
(107.4745018 -0.7001110151 0)
(107.5444428 -0.6889788863 0)
(107.4628942 -0.7287669244 0)
(107.2683735 -0.8392108904 0)
(107.3574952 -0.7985423633 0)
(107.3292747 -0.8257283197 0)
(107.2265496 -0.8633688011 0)
(106.9473919 -0.9597589765 0)
(107.0639146 -0.9236910241 0)
(106.9998399 -0.944187406 0)
(106.8553004 -0.9827206588 0)
(106.871673 -0.9763295797 0)
(106.5330212 -1.052365972 0)
(106.6101385 -1.035195475 0)
(106.5558109 -1.043166328 0)
(106.473033 -1.059453259 0)
(105.8860897 -1.141763875 0)
(105.9870283 -1.126190807 0)
(105.9049193 -1.131741388 0)
(105.7950727 -1.146232995 0)
(104.8971767 -1.207604917 0)
(105.0570178 -1.195636882 0)
(104.907043 -1.196751856 0)
(104.7049026 -1.206138595 0)
(101.9466782 -1.197581121 0)
(102.5514688 -1.1991849 0)
(101.9300609 -1.186377515 0)
(101.1214641 -1.181497156 0)
(100.157802 -1.257372921 0)
(99.88546851 -1.240492983 0)
(100.1676897 -1.245622352 0)
(100.253541 -1.251017378 0)
(107.956503 -0.1674605222 0)
(108.0681731 -0.08371503221 0)
(107.914472 -0.3311955852 0)
(108.0411022 -0.247719412 0)
(107.8338692 -0.4894154979 0)
(107.9781418 -0.4094751685 0)
(107.6890697 -0.6410366785 0)
(107.8703534 -0.5607445779 0)
(107.7328172 -0.6364845156 0)
(107.6095658 -0.6799825808 0)
(107.6741654 -0.6749934425 0)
(107.5922369 -0.7098074833 0)
(107.388975 -0.8147133236 0)
(107.4803897 -0.7775512168 0)
(107.447948 -0.8062029943 0)
(107.3416655 -0.8403251219 0)
(107.0513979 -0.9315755053 0)
(107.1708202 -0.8986521252 0)
(107.1020417 -0.921664437 0)
(106.9543594 -0.9542512105 0)