/*--------------------------------*- C++ -*----------------------------------*\
| =========                 |                                                 |
| \\      /  F ield         | OpenFOAM: The Open Source CFD Toolbox           |
|  \\    /   O peration     | Version:  v2012                                 |
|   \\  /    A nd           | Website:  www.openfoam.com                      |
|    \\/     M anipulation  |                                                 |
\*---------------------------------------------------------------------------*/
FoamFile
{
    version     2.0;
    format      ascii;
    class       pointVectorField;
    location    "2.38";
    object      pointDisplacement;
}
// * * * * * * * * * * * * * * * * * * * * * * * * * * * * * * * * * * * * * //

dimensions      [0 1 0 0 0 0 0];


internalField   nonuniform List<vector> 
6962
(
(0 0 0)
(0 0 0)
(0 0 0)
(0 0 0)
(0 0 0)
(0 0 0)
(0 0 0)
(0 0 0)
(0 0 0)
(0 0 0)
(-0.0008281334858 -0.001412950719 5.606626274e-15)
(0 0 0)
(0 0 0)
(0 0 0)
(0 0 0)
(0 0 0)
(0 0 0)
(0 0 0)
(0 0 0)
(0 0 0)
(0 0 0)
(0 0 0)
(0 0 0)
(0 0 0)
(0 0 0)
(-0.001472443709 -0.00275982497 9.964251646e-15)
(-0.001342385598 -0.002459446982 9.076073226e-15)
(-0.001148833172 -0.002056651567 7.771561172e-15)
(-0.005716446968 -0.01121068899 4.243827512e-14)
(-0.006142235918 -0.01232486538 4.557465516e-14)
(-0.009318205003 -0.01962085706 7.26224636e-14)
(-0.008796910596 -0.01810654641 6.859790513e-14)
(-0.01872819035 -0.04523054663 1.718208908e-13)
(-0.01907914149 -0.04712293476 1.74887882e-13)
(-0.02169730493 -0.05688188567 2.11247686e-13)
(-0.02140580242 -0.05488171244 2.086386619e-13)
(-0.0254855888 -0.08037083593 3.058525655e-13)
(-0.02558366436 -0.08245421174 3.065186993e-13)
(-0.02546476186 -0.08896503956 3.307215612e-13)
(-0.02530612824 -0.0865390103 3.293199047e-13)
(-0.02054646932 -0.09457002647 0)
(-0.02060225511 -0.09680927429 0)
(-0.01822450792 -0.09687001851 0)
(-0.01819683327 -0.09575077935 0)
(-0.01816946805 -0.09463142802 0)
(-0.01106301782 -0.09481296335 0)
(-0.01107585318 -0.09537208843 0)
(-0.01048710264 -0.09538673605 0)
(-0.01047432336 -0.09482776568 0)
(0 0 0)
(0 0 0)
(0 0 0)
(0 0 0)
(0 0 0)
(0 0 0)
(0 0 0)
(0 0 0)
(0 0 0)
(0 0 0)
(0 0 0)
(0 0 0)
(0 0 0)
(0 0 0)
(-0.001396398089 -0.002866119011 9.492406861e-15)
(-0.001578068179 -0.003171831844 1.072752998e-14)
(-0.001686266124 -0.003317734058 1.146305273e-14)
(-0.0068038828 -0.01465994679 5.070943665e-14)
(-0.006585319008 -0.01449482295 4.907185769e-14)
(-0.009826406001 -0.02269330088 7.691070003e-14)
(-0.01008806115 -0.022807114 7.896461263e-14)
(-0.01995018504 -0.05287963709 1.83519866e-13)
(-0.01963143594 -0.05313692532 1.804945082e-13)
(-0.02221970201 -0.0638152208 2.168959456e-13)
(-0.02252955884 -0.06337376298 2.200739591e-13)
(-0.02611605429 -0.09028466468 3.137906601e-13)
(-0.0259160711 -0.0914103972 3.109595914e-13)
(-0.02560360765 -0.09788776545 3.329558851e-13)
(-0.02574317526 -0.09649499577 3.353428646e-13)
(-0.02050710864 -0.1035558185 0)
(-0.02056540096 -0.1057953655 0)
(-0.01818102475 -0.1058574275 0)
(-0.01815188536 -0.1047379141 0)
(-0.01812273243 -0.1036178805 0)
(-0.01096970783 -0.1038040639 0)
(-0.01099886076 -0.1049240975 0)
(-0.009806724679 -0.1049551271 0)
(-0.009792141444 -0.1043948502 0)
(-0.009777571749 -0.1038350935 0)
(-0.01037363979 -0.1038195787 0)
(0 0 0)
(0 0 0)
(0 0 0)
(0 0 0)
(0 0 0)
(0 0 0)
(0 0 0)
(0 0 0)
(0 0 0)
(0 0 0)
(0 0 0)
(0 0 0)
(0 0 0)
(0 0 0)
(-0.0003261368614 -0.0007251659493 2.220446049e-15)
(-0.0005917878442 -0.001290518348 4.024558464e-15)
(-0.0008792235441 -0.001879702913 5.981326545e-15)
(-0.005045908447 -0.01181831427 3.762268275e-14)
(-0.004310964074 -0.0103021747 3.214095656e-14)
(-0.007023865462 -0.01761550991 5.501155087e-14)
(-0.007945772482 -0.01952823218 6.220024495e-14)
(-0.0172044155 -0.04954388992 1.581373921e-13)
(-0.01594933744 -0.04687771429 1.466743393e-13)
(-0.01852181886 -0.05774290903 1.80772064e-13)
(-0.01979776061 -0.06047374216 1.931510507e-13)
(-0.02408625199 -0.09018727403 2.883249195e-13)
(-0.02302756584 -0.08796408839 2.756544992e-13)
(-0.02323643002 -0.09608678961 3.011202399e-13)
(-0.02414085858 -0.0978799011 3.129163595e-13)
(-0.02050255536 -0.1113055447 3.555211681e-13)
(-0.02019884896 -0.1116559701 3.496647416e-13)
(-0.0182469627 -0.1138486907 3.563677131e-13)
(-0.01834424434 -0.1125104259 3.59184904e-13)
(-0.01120290419 -0.1127632922 0)
(-0.01126121005 -0.1150033594 0)
(-0.008876885864 -0.1150654201 0)
(-0.008818580004 -0.1128253529 0)
(-0.01001076811 -0.1127943219 0)
(0 0 0)
(0 0 0)
(0 0 0)
(0 0 0)
(0 0 0)
(0 0 0)
(0 0 0)
(0 0 0)
(0 0 0)
(0 0 0)
(0 0 0)
(0 0 0)
(0 0 0)
(0 0 0)
(0 0 0)
(0 0 0)
(-8.010629583e-06 -1.849515412e-05 5.551115123e-17)
(-0.001917604274 -0.004858647243 1.432187702e-14)
(-0.001203672589 -0.003107633288 8.992806499e-15)
(-0.002800227584 -0.007594660518 2.198241589e-14)
(-0.003846723142 -0.01023533633 3.017031069e-14)
(-0.01121281949 -0.03502027617 1.03403397e-13)
(-0.00944526144 -0.03009612168 8.723577416e-14)
(-0.01169164128 -0.03953714703 1.146444051e-13)
(-0.01358490006 -0.04501805665 1.330047184e-13)
(-0.0184926321 -0.07508284621 2.220446049e-13)
(-0.01659088402 -0.06877393791 1.996180998e-13)
(-0.01733591295 -0.07776214933 2.257499743e-13)
(-0.01913006519 -0.08404279789 2.485789352e-13)
(-0.01788206184 -0.1046860658 3.095440571e-13)
(-0.01661792081 -0.09931141642 2.882555306e-13)
(-0.01550209766 -0.10435382 3.028272078e-13)
(-0.01656186783 -0.109233873 3.228944889e-13)
(-0.01090701168 -0.1167418078 3.44668738e-13)
(-0.01037881822 -0.1133012628 3.284317263e-13)
(-0.008297628246 -0.1145128304 3.317901509e-13)
(-0.008695776998 -0.1176743569 3.472500065e-13)
(0 0 0)
(0 0 0)
(0 0 0)
(0 0 0)
(0 0 0)
(0 0 0)
(0 0 0)
(0 0 0)
(0 0 0)
(0 0 0)
(0 0 0)
(0 0 0)
(0 0 0)
(0 0 0)
(0 0 0)
(0 0 0)
(0 0 0)
(-7.032714941e-06 -1.916000273e-05 4.163336342e-17)
(0 0 0)
(-7.242156348e-05 -0.0002111446287 5.689893001e-16)
(-0.0004280240249 -0.001226458534 3.358424649e-15)
(-0.004324653266 -0.01461251635 4.013456234e-14)
(-0.002882204246 -0.009923852292 2.678413047e-14)
(-0.004294686733 -0.01572068709 4.24521529e-14)
(-0.005993920435 -0.02151977914 5.911937606e-14)
(-0.01030061569 -0.04547973085 1.250666237e-13)
(-0.008207472281 -0.03700719629 1.000033389e-13)
(-0.009100831511 -0.04447048959 1.201955202e-13)
(-0.01120267635 -0.0535732821 1.473404732e-13)
(-0.01171492968 -0.07482901744 2.058075932e-13)
(-0.009881641859 -0.06461551335 1.746658373e-13)
(-0.009487533657 -0.07000180594 1.89209759e-13)
(-0.0111596969 -0.08036847642 2.210176486e-13)
(-0.00776684378 -0.09120350707 2.506467256e-13)
(-0.006682175256 -0.0807278608 2.180755576e-13)
(-0.005351471255 -0.08233791273 2.223776718e-13)
(-0.00622418949 -0.09280846854 2.549904732e-13)
(0 0 0)
(0 0 0)
(0 0 0)
(0 0 0)
(0 0 0)
(0 0 0)
(0 0 0)
(0 0 0)
(0 0 0)
(0 0 0)
(0 0 0)
(0 0 0)
(0 0 0)
(0 0 0)
(0 0 0)
(0 0 0)
(0 0 0)
(0 0 0)
(0 0 0)
(0 0 0)
(0 0 0)
(-0.000185833174 -0.0006747025086 1.734723476e-15)
(0 0 0)
(-0.000135085248 -0.0005312159085 1.346145417e-15)
(-0.00066980161 -0.002590090498 6.661338148e-15)
(-0.002859574796 -0.01370344135 3.522182546e-14)
(-0.001593881716 -0.007784429156 1.967870311e-14)
(-0.002148308075 -0.01140546601 2.883804306e-14)
(-0.003542585191 -0.01843863629 4.739264536e-14)
(-0.00465165032 -0.03265754598 8.396061624e-14)
(-0.003199516358 -0.02298334404 5.813405313e-14)
(-0.003250398768 -0.02647358814 6.696032617e-14)
(-0.004626772597 -0.03677984274 9.454936833e-14)
(-0.003425307795 -0.04538301639 1.166289287e-13)
(-0.002480108582 -0.03389910599 8.573697308e-14)
(-0.001980737319 -0.03506375967 8.867906409e-14)
(-0.002735075994 -0.04671579195 1.200428645e-13)
(0 0 0)
(0 0 0)
(0 0 0)
(0 0 0)
(0 0 0)
(0 0 0)
(0 0 0)
(0 0 0)
(0 0 0)
(0 0 0)
(0 0 0)
(0 0 0)
(0 0 0)
(0 0 0)
(0 0 0)
(0 0 0)
(0 0 0)
(0 0 0)
(0 0 0)
(0 0 0)
(0 0 0)
(0 0 0)
(0 0 0)
(0 0 0)
(0 0 0)
(0 0 0)
(0 0 0)
(0 0 0)
(-2.089018292e-05 -0.0001169102713 2.775557562e-16)
(-0.0003743928393 -0.002859962767 6.911138328e-15)
(-4.214216568e-05 -0.0003274231921 7.771561172e-16)
(-9.203193624e-05 -0.0008146216405 1.942890293e-15)
(-0.0004740687793 -0.004121776979 9.950373858e-15)
(-0.0004866353514 -0.007234721068 1.745825706e-14)
(-0.0001573665196 -0.002392156898 5.689893001e-15)
(-0.0001348439958 -0.002695194876 6.411537967e-15)
(-0.0003983974982 -0.00776680453 1.874889133e-14)
(0 0 0)
(0 0 0)
(0 0 0)
(0 0 0)
(0 0 0)
(0 0 0)
(0 0 0)
(0 0 0)
(0 0 0)
(0 0 0)
(0 0 0)
(0 0 0)
(0 0 0)
(0 0 0)
(0 0 0)
(0 0 0)
(0 0 0)
(0 0 0)
(0 0 0)
(0 0 0)
(0 0 0)
(0 0 0)
(0 0 0)
(0 0 0)
(0 0 0)
(0 0 0)
(0 0 0)
(0 0 0)
(0 0 0)
(0 0 0)
(0 0 0)
(0 0 0)
(0 0 0)
(0 0 0)
(0 0 0)
(0 0 0)
(0 0 0)
(0 0 0)
(0 0 0)
(0 0 0)
(0 0 0)
(0 0 0)
(0 0 0)
(0 0 0)
(0 0 0)
(0 0 0)
(0 0 0)
(0 0 0)
(0 0 0)
(0 0 0)
(0 0 0)
(0 0 0)
(0 0 0)
(0 0 0)
(0 0 0)
(0 0 0)
(0 0 0)
(0 0 0)
(0 0 0)
(0 0 0)
(0 0 0)
(0 0 0)
(0 0 0)
(0 0 0)
(0 0 0)
(0 0 0)
(0 0 0)
(0 0 0)
(0 0 0)
(0 0 0)
(0 0 0)
(0 0 0)
(0 0 0)
(0 0 0)
(0 0 0)
(0 0 0)
(0 0 0)
(0 0 0)
(0 0 0)
(0 0 0)
(0 0 0)
(0 0 0)
(0 0 0)
(0 0 0)
(0 0 0)
(0 0 0)
(0 0 0)
(0 0 0)
(0 0 0)
(0 0 0)
(0 0 0)
(0 0 0)
(0 0 0)
(0 0 0)
(0 0 0)
(0 0 0)
(0 0 0)
(0 0 0)
(0 0 0)
(0 0 0)
(0 0 0)
(0 0 0)
(0 0 0)
(0 0 0)
(0 0 0)
(0 0 0)
(0 0 0)
(0 0 0)
(0 0 0)
(0 0 0)
(0 0 0)
(0 0 0)
(0 0 0)
(0 0 0)
(0 0 0)
(0 0 0)
(0 0 0)
(0 0 0)
(0 0 0)
(0 0 0)
(0 0 0)
(0 0 0)
(0 0 0)
(0 0 0)
(0 0 0)
(0 0 0)
(0 0 0)
(0 0 0)
(0 0 0)
(0 0 0)
(0 0 0)
(0 0 0)
(0 0 0)
(0 0 0)
(0 0 0)
(0 0 0)
(0 0 0)
(0 0 0)
(0 0 0)
(0 0 0)
(0 0 0)
(0 0 0)
(0 0 0)
(0 0 0)
(0 0 0)
(0 0 0)
(0 0 0)
(0 0 0)
(0 0 0)
(0 0 0)
(0 0 0)
(0 0 0)
(0 0 0)
(0 0 0)
(0 0 0)
(0 0 0)
(0 0 0)
(0 0 0)
(0 0 0)
(0 0 0)
(0 0 0)
(0 0 0)
(0 0 0)
(0 0 0)
(0 0 0)
(0 0 0)
(0 0 0)
(0 0 0)
(0 0 0)
(0 0 0)
(0 0 0)
(0 0 0)
(0 0 0)
(0 0 0)
(0 0 0)
(0 0 0)
(0 0 0)
(0 0 0)
(0 0 0)
(0 0 0)
(0 0 0)
(0 0 0)
(0 0 0)
(0 0 0)
(0 0 0)
(0 0 0)
(0 0 0)
(0 0 0)
(0 0 0)
(0 0 0)
(0 0 0)
(0 0 0)
(0 0 0)
(0 0 0)
(0 0 0)
(0 0 0)
(0 0 0)
(0 0 0)
(0 0 0)
(0 0 0)
(0 0 0)
(0 0 0)
(0 0 0)
(0 0 0)
(0 0 0)
(0 0 0)
(0 0 0)
(0 0 0)
(0 0 0)
(0 0 0)
(0 0 0)
(0 0 0)
(0 0 0)
(0 0 0)
(0 0 0)
(0 0 0)
(0 0 0)
(0 0 0)
(0 0 0)
(0 0 0)
(0 0 0)
(0 0 0)
(0 0 0)
(0 0 0)
(0 0 0)
(0 0 0)
(0 0 0)
(0 0 0)
(0 0 0)
(0 0 0)
(0 0 0)
(0 0 0)
(0 0 0)
(0 0 0)
(0 0 0)
(0 0 0)
(0 0 0)
(0 0 0)
(0 0 0)
(0 0 0)
(0 0 0)
(0 0 0)
(0 0 0)
(0 0 0)
(0 0 0)
(0 0 0)
(0 0 0)
(0 0 0)
(0 0 0)
(0 0 0)
(0 0 0)
(0 0 0)
(0 0 0)
(0 0 0)
(0 0 0)
(0 0 0)
(0 0 0)
(0 0 0)
(0 0 0)
(0 0 0)
(0 0 0)
(0 0 0)
(0 0 0)
(0 0 0)
(0 0 0)
(0 0 0)
(0 0 0)
(0 0 0)
(0 0 0)
(0 0 0)
(0 0 0)
(0 0 0)
(0 0 0)
(0 0 0)
(0 0 0)
(0 0 0)
(0 0 0)
(0 0 0)
(0 0 0)
(0 0 0)
(0 0 0)
(0 0 0)
(0 0 0)
(0 0 0)
(0 0 0)
(0 0 0)
(0 0 0)
(0 0 0)
(0 0 0)
(0 0 0)
(0 0 0)
(0 0 0)
(0 0 0)
(0 0 0)
(0 0 0)
(0 0 0)
(0 0 0)
(0 0 0)
(0 0 0)
(0 0 0)
(0 0 0)
(0 0 0)
(0 0 0)
(0 0 0)
(0 0 0)
(0 0 0)
(0 0 0)
(0 0 0)
(0 0 0)
(0 0 0)
(0 0 0)
(0 0 0)
(0 0 0)
(0 0 0)
(0 0 0)
(0 0 0)
(0 0 0)
(0 0 0)
(0 0 0)
(0 0 0)
(0 0 0)
(0 0 0)
(0 0 0)
(0 0 0)
(0 0 0)
(0 0 0)
(0 0 0)
(0 0 0)
(0 0 0)
(0 0 0)
(0 0 0)
(0 0 0)
(0 0 0)
(0 0 0)
(0 0 0)
(0 0 0)
(0 0 0)
(0 0 0)
(0 0 0)
(0 0 0)
(0 0 0)
(0 0 0)
(0 0 0)
(0 0 0)
(0 0 0)
(0 0 0)
(0 0 0)
(0 0 0)
(0 0 0)
(0 0 0)
(0 0 0)
(0 0 0)
(0 0 0)
(0 0 0)
(0 0 0)
(0 0 0)
(0 0 0)
(0 0 0)
(0 0 0)
(0 0 0)
(0 0 0)
(0 0 0)
(0 0 0)
(0 0 0)
(0 0 0)
(0 0 0)
(0 0 0)
(0 0 0)
(0 0 0)
(0 0 0)
(0 0 0)
(0 0 0)
(0 0 0)
(0 0 0)
(0 0 0)
(0 0 0)
(0 0 0)
(0 0 0)
(0 0 0)
(0 0 0)
(0 0 0)
(0 0 0)
(0 0 0)
(0 0 0)
(0 0 0)
(0 0 0)
(0 0 0)
(0 0 0)
(0 0 0)
(0 0 0)
(0 0 0)
(0 0 0)
(0 0 0)
(0 0 0)
(0 0 0)
(0 0 0)
(0 0 0)
(0 0 0)
(0 0 0)
(0 0 0)
(0 0 0)
(0 0 0)
(0 0 0)
(0 0 0)
(0 0 0)
(0 0 0)
(0 0 0)
(0 0 0)
(0 0 0)
(0 0 0)
(0 0 0)
(0 0 0)
(0 0 0)
(0 0 0)
(0 0 0)
(0 0 0)
(0 0 0)
(0 0 0)
(0 0 0)
(0 0 0)
(0 0 0)
(0 0 0)
(0 0 0)
(0 0 0)
(0 0 0)
(0 0 0)
(0 0 0)
(0 0 0)
(0 0 0)
(0 0 0)
(0 0 0)
(0 0 0)
(0 0 0)
(0 0 0)
(0 0 0)
(0 0 0)
(0 0 0)
(0 0 0)
(0 0 0)
(0 0 0)
(0 0 0)
(0 0 0)
(0 0 0)
(0 0 0)
(0 0 0)
(0 0 0)
(0 0 0)
(0 0 0)
(0 0 0)
(0 0 0)
(0 0 0)
(0 0 0)
(0 0 0)
(0 0 0)
(0 0 0)
(0 0 0)
(0 0 0)
(0 0 0)
(0 0 0)
(0 0 0)
(0 0 0)
(0 0 0)
(0 0 0)
(0 0 0)
(0 0 0)
(0 0 0)
(0 0 0)
(0 0 0)
(0 0 0)
(0 0 0)
(0 0 0)
(0 0 0)
(0 0 0)
(0 0 0)
(0 0 0)
(0 0 0)
(0 0 0)
(0 0 0)
(0 0 0)
(0 0 0)
(0 0 0)
(0 0 0)
(0 0 0)
(0 0 0)
(0 0 0)
(0 0 0)
(0 0 0)
(0 0 0)
(0 0 0)
(0 0 0)
(0 0 0)
(0 0 0)
(0 0 0)
(0 0 0)
(0 0 0)
(0 0 0)
(0 0 0)
(0 0 0)
(0 0 0)
(0 0 0)
(0 0 0)
(0 0 0)
(0 0 0)
(0 0 0)
(0 0 0)
(0 0 0)
(0 0 0)
(0 0 0)
(0 0 0)
(0 0 0)
(0 0 0)
(0 0 0)
(0 0 0)
(0 0 0)
(0 0 0)
(0 0 0)
(0 0 0)
(0 0 0)
(0 0 0)
(0 0 0)
(0 0 0)
(0 0 0)
(0 0 0)
(0 0 0)
(0 0 0)
(0 0 0)
(0 0 0)
(0 0 0)
(0 0 0)
(0 0 0)
(0 0 0)
(0 0 0)
(0 0 0)
(0 0 0)
(0 0 0)
(0 0 0)
(0 0 0)
(0 0 0)
(0 0 0)
(0 0 0)
(0 0 0)
(0 0 0)
(0 0 0)
(0 0 0)
(0 0 0)
(0 0 0)
(0 0 0)
(0 0 0)
(0 0 0)
(0 0 0)
(0 0 0)
(0 0 0)
(0 0 0)
(0 0 0)
(0 0 0)
(0 0 0)
(0 0 0)
(0 0 0)
(0 0 0)
(0 0 0)
(0 0 0)
(0 0 0)
(0 0 0)
(0 0 0)
(0 0 0)
(0 0 0)
(0 0 0)
(0 0 0)
(0 0 0)
(0 0 0)
(0 0 0)
(0 0 0)
(0 0 0)
(0 0 0)
(0 0 0)
(0 0 0)
(0 0 0)
(0 0 0)
(0 0 0)
(0 0 0)
(0 0 0)
(0 0 0)
(0 0 0)
(0 0 0)
(0 0 0)
(0 0 0)
(0 0 0)
(0 0 0)
(0 0 0)
(0 0 0)
(0 0 0)
(0 0 0)
(0 0 0)
(0 0 0)
(0 0 0)
(0 0 0)
(0 0 0)
(0 0 0)
(0 0 0)
(0 0 0)
(0 0 0)
(0 0 0)
(0 0 0)
(0 0 0)
(0 0 0)
(0 0 0)
(0 0 0)
(0 0 0)
(0 0 0)
(0 0 0)
(0 0 0)
(0 0 0)
(0 0 0)
(0 0 0)
(0 0 0)
(0 0 0)
(0 0 0)
(0 0 0)
(0 0 0)
(0 0 0)
(0 0 0)
(0 0 0)
(0 0 0)
(0 0 0)
(0 0 0)
(0 0 0)
(0 0 0)
(0 0 0)
(0 0 0)
(-0.01046157849 -0.09426811766 0)
(-0.01105022093 -0.09425331669 0)
(-0.01035905656 -0.1032593018 0)
(-0.0109551246 -0.103243787 0)
(-0.01814250546 -0.09351154564 0)
(-0.01811533478 -0.09239166868 0)
(-0.02049151047 -0.09233054891 0)
(-0.0110375159 -0.09369319912 0)
(-0.01221677355 -0.09366338964 0)
(-0.01224290379 -0.09478329369 0)
(-0.01096065549 -0.09033428007 0)
(-0.0180935795 -0.1024978469 0)
(-0.01824136867 -0.1014057956 0)
(-0.0206221302 -0.1013408604 0)
(-0.0109405549 -0.1026840303 0)
(-0.01213274301 -0.1026529993 0)
(-0.01216189594 -0.1037730329 0)
(-0.01226901913 -0.09590262549 0)
(-0.01108892507 -0.09593230056 0)
(-0.01116937365 -0.09929107416 0)
(-0.01058031503 -0.09930588597 0)
(-0.01056652973 -0.09874626504 0)
(-0.01115558699 -0.09873140121 0)
(-0.006450010688 -0.09940990426 0)
(-0.006424950496 -0.09913231059 0)
(-0.006729845577 -0.09912374991 0)
(-0.006748545474 -0.09940218587 0)
(-0.006318431959 -0.09493494871 0)
(-0.006635404551 -0.09492539692 0)
(-0.006647855038 -0.09520373527 0)
(-0.006335462662 -0.0952128555 0)
(-0.00998161518 -0.1116742883 0)
(-0.01117375126 -0.1116432586 0)
(-0.006307567286 -0.09465573618 0)
(-0.00662729683 -0.0946459044 0)
(-0.01097346186 -0.09089429089 0)
(-0.01038482077 -0.09090914389 0)
(-0.006005508958 -0.09494408276 0)
(-0.005988859868 -0.09466543724 0)
(-0.006201992638 -0.1039250375 0)
(-0.006188385201 -0.10336005 0)
(-0.006483733891 -0.1033539242 0)
(-0.006781044881 -0.1033487885 0)
(-0.006796878785 -0.1039111152 0)
(-0.006769526215 -0.09968025013 0)
(-0.006476152937 -0.09968746977 0)
(-0.01118336298 -0.09985053361 0)
(-0.01059424963 -0.09986524273 0)
(-0.006219689763 -0.09969294784 0)
(-0.006191477253 -0.09941564444 0)
(-0.005607365605 -0.1039405148 0)
(-0.005597456932 -0.1033754311 0)
(-0.005894560755 -0.1033661362 0)
(-0.006028168014 -0.09522142658 0)
(-0.006161856514 -0.09913863799 0)
(-0.003302162497 -0.09739434804 0)
(-0.00299775956 -0.09740341649 0)
(-0.002980372329 -0.09712661219 0)
(-0.003282370496 -0.09711755428 0)
(-0.006478646976 -0.09716288893 0)
(-0.006754096112 -0.09715743726 0)
(-0.006762930787 -0.09743685881 0)
(-0.006492414262 -0.09744181769 0)
(-0.008767489574 -0.09711049742 0)
(-0.008780593175 -0.09766992786 0)
(-0.008197971749 -0.09768405155 0)
(-0.008185129612 -0.09712466636 0)
(-0.008821339714 -0.09934937916 0)
(-0.008238614243 -0.09936350555 0)
(-0.008231230768 -0.099083838 0)
(-0.008224472911 -0.09880420623 0)
(-0.008807451721 -0.09878981295 0)
(-0.008714782565 -0.09487153387 0)
(-0.008727767227 -0.09543039478 0)
(-0.008143846605 -0.09544460434 0)
(-0.008130397807 -0.09488591168 0)
(-0.008171612544 -0.09656535078 0)
(-0.008754335306 -0.09655112035 0)
(-0.006460165999 -0.09688486373 0)
(-0.006740961215 -0.09687880439 0)
(-0.006343199449 -0.09268709706 0)
(-0.006629446141 -0.09268047936 0)
(-0.006638917267 -0.09296035286 0)
(-0.006355890521 -0.09296667851 0)
(-0.008663291586 -0.09263128929 0)
(-0.008676312808 -0.0931915548 0)
(-0.008092446916 -0.09320586705 0)
(-0.008079323004 -0.09264565627 0)
(-0.008117602277 -0.09432631704 0)
(-0.008701987034 -0.09431193923 0)
(-0.008624194289 -0.09095320062 0)
(-0.008039293373 -0.09096774804 0)
(-0.008066000483 -0.09208581507 0)
(-0.008650230529 -0.09207149334 0)
(-0.006328526552 -0.09240777541 0)
(-0.006618574484 -0.09240079849 0)
(-0.006059315694 -0.09269349707 0)
(-0.006039531957 -0.0924146208 0)
(-0.006077105849 -0.0929725814 0)
(-0.008835531714 -0.0999086251 0)
(-0.008253373069 -0.09992252851 0)
(-0.008245785568 -0.09964302245 0)
(-0.008754918495 -0.1016555259 0)
(-0.008169654253 -0.1016481146 0)
(-0.008236078764 -0.1013340943 0)
(-0.008266395905 -0.101044856 0)
(-0.008849286003 -0.1010390545 0)
(-0.006408434077 -0.1016915621 0)
(-0.006509928537 -0.1013747029 0)
(-0.006787642487 -0.1013722636 0)
(-0.006693201576 -0.101695915 0)
(-0.006262830188 -0.1016211704 0)
(-0.006330438237 -0.1013666207 0)
(-0.003488842841 -0.1018576662 0)
(-0.003477059375 -0.1015791543 0)
(-0.003758300561 -0.1015780288 0)
(-0.003770262042 -0.1018563798 0)
(-0.003368394588 -0.09963613504 0)
(-0.003658500745 -0.09963139507 0)
(-0.003669535737 -0.09991055112 0)
(-0.003380456479 -0.09991474379 0)
(-0.006206404675 -0.09716794479 0)
(-0.006181857221 -0.09689065012 0)
(-0.003577316169 -0.09709134487 0)
(-0.003658784324 -0.09731989 0)
(-0.003356982972 -0.09935750937 0)
(-0.00364919267 -0.09935198585 0)
(-0.00358881289 -0.09767544022 0)
(-0.00330588548 -0.09767718224 0)
(-0.006228484434 -0.0974460325 0)
(-0.003006632148 -0.09768429465 0)
(-0.00308128112 -0.09963965186 0)
(-0.003068010467 -0.09936180338 0)
(-0.01829763647 -0.1103375619 0)
(-0.0206261635 -0.1099957223 3.584910147e-13)
(-0.01114461187 -0.1105237452 0)
(-0.01233679998 -0.1104927142 0)
(-0.01352898809 -0.1104616832 0)
(-0.01358728041 -0.1127012302 0)
(-0.01219104887 -0.1048930665 0)
(-0.01108630601 -0.1082836781 0)
(-0.009894169929 -0.1083147077 0)
(-0.009865016999 -0.1071946741 0)
(-0.01105715308 -0.1071636445 0)
(-0.006317642026 -0.1084077998 0)
(-0.006288489096 -0.1072877662 0)
(-0.007480640787 -0.1072567361 0)
(-0.007509793717 -0.1083767697 0)
(-0.006811683649 -0.1044719069 0)
(-0.006215976624 -0.1044868917 0)
(-0.006430332815 -0.09828889524 0)
(-0.006729925928 -0.09828083696 0)
(-0.006716513577 -0.09856354454 0)
(-0.006404685533 -0.09857254597 0)
(-0.007626573007 -0.0982573423 0)
(-0.00763138788 -0.09853832608 0)
(-0.007332625551 -0.09854610245 0)
(-0.007331082647 -0.09826482528 0)
(-0.00765303298 -0.09937791451 0)
(-0.007355361759 -0.09938561042 0)
(-0.007345071822 -0.09910627881 0)
(-0.007644611773 -0.09909837809 0)
(-0.005620272736 -0.1045023971 0)
(-0.005125469526 -0.1084388304 0)
(-0.005096316596 -0.1073187968 0)
(-0.00628255262 -0.09157189161 0)
(-0.005978732827 -0.09158016402 0)
(-0.005959496177 -0.09130210643 0)
(-0.006267911792 -0.09129340205 0)
(-0.006346732332 -0.09380982774 0)
(-0.006324334428 -0.09409271715 0)
(-0.006018111433 -0.09410126034 0)
(-0.006062494828 -0.09381623696 0)
(-0.006460281371 -0.1020098961 0)
(-0.006074919662 -0.1020771895 0)
(-0.008541140798 -0.1021863478 0)
(-0.007944032316 -0.1022018897 0)
(-0.007988910595 -0.1019440794 0)
(-0.008585331621 -0.1038661259 0)
(-0.007989093972 -0.1038811246 0)
(-0.007974212145 -0.103321376 0)
(-0.008570592319 -0.1033058531 0)
(-0.007662073034 -0.09965722659 0)
(-0.007366789409 -0.09966465213 0)
(-0.007688965586 -0.1004964182 0)
(-0.007400850164 -0.1005032407 0)
(-0.00739065073 -0.1002233861 0)
(-0.007680741635 -0.1002164601 0)
(-0.006555387095 -0.1005211864 0)
(-0.006530985587 -0.1002428989 0)
(-0.006813219317 -0.1002369062 0)
(-0.006831984777 -0.100515861 0)
(-0.003095247513 -0.09991743018 0)
(-0.003450806247 -0.1013063289 0)
(-0.00630821056 -0.1005258501 0)
(-0.006280440734 -0.1002477544 0)
(-0.004582048993 -0.100733823 0)
(-0.004563335132 -0.1004582506 0)
(-0.004840453448 -0.1004419276 0)
(-0.004927791671 -0.1006633963 0)
(-0.003817070268 -0.1039897166 0)
(-0.003803017657 -0.1034294259 0)
(-0.004400603672 -0.1034128304 0)
(-0.004413723023 -0.103973666 0)
(-0.003807460524 -0.1021263175 0)
(-0.003525371096 -0.1021284542 0)
(-0.006398247823 -0.09604861407 0)
(-0.006106272583 -0.09605574527 0)
(-0.006080233093 -0.09577692771 0)
(-0.006376870431 -0.09576931077 0)
(-0.006107290549 -0.09859845473 0)
(-0.006082234615 -0.09836422463 0)
(-0.003266186291 -0.09622836933 0)
(-0.003186279582 -0.09600181379 0)
(-0.003202085572 -0.09658126799 0)
(-0.007606142956 -0.09713843515 0)
(-0.007612692725 -0.09741807234 0)
(-0.007325406946 -0.09742476913 0)
(-0.007318907845 -0.09714507857 0)
(-0.007330449845 -0.09798451351 0)
(-0.007621683879 -0.09797750572 0)
(-0.006470374156 -0.0980044534 0)
(-0.006749491769 -0.09799854184 0)
(-0.006694531411 -0.09604100633 0)
(-0.006710454618 -0.09632076395 0)
(-0.006419353347 -0.0963278724 0)
(-0.007576016502 -0.09601899952 0)
(-0.007583681752 -0.09629949265 0)
(-0.007293385468 -0.09630652809 0)
(-0.007284264956 -0.0960261249 0)
(-0.007310964314 -0.09686589411 0)
(-0.007599079737 -0.09685907161 0)
(-0.006297712099 -0.09185010738 0)
(-0.005998701419 -0.09185794228 0)
(-0.00608911535 -0.09353297736 0)
(-0.006362083037 -0.09352759028 0)
(-0.006842911165 -0.1007956446 0)
(-0.006571391327 -0.100800057 0)
(-0.00769365475 -0.1007765723 0)
(-0.007406477077 -0.1007834224 0)
(-0.007581394141 -0.1016616042 0)
(-0.007285248593 -0.1016719154 0)
(-0.007362458473 -0.1013562608 0)
(-0.007653450568 -0.1013479579 0)
(-0.004681052254 -0.1018258537 0)
(-0.004637871675 -0.1015602884 0)
(-0.004971628829 -0.1015385869 0)
(-0.005100243957 -0.1017716832 0)
(-0.004872017175 -0.1010123822 0)
(-0.004591254164 -0.1010130788 0)
(-0.006334217338 -0.100803211 0)
(-0.004514770128 -0.09960561973 0)
(-0.004599814897 -0.0998303757 0)
(-0.004254615742 -0.09990068419 0)
(-0.004238400216 -0.0996224959 0)
(-0.00428829467 -0.1007398032 0)
(-0.004274268558 -0.1004621306 0)
(-0.003422614918 -0.1007510392 0)
(-0.003407361371 -0.1004724095 0)
(-0.003693682895 -0.1004702667 0)
(-0.003706832474 -0.1007492636 0)
(-0.006131828267 -0.09633457542 0)
(-0.003407112936 -0.09661726486 0)
(-0.003328647843 -0.09851809508 0)
(-0.00362305515 -0.09851220201 0)
(-0.003630862213 -0.0987927435 0)
(-0.003336954318 -0.09879862358 0)
(-0.004217655002 -0.09934708043 0)
(-0.004429301556 -0.09937978158 0)
(-0.003322610454 -0.09823714312 0)
(-0.003619867281 -0.09822992651 0)
(-0.006217093728 -0.09800761016 0)
(-0.007545915776 -0.09490055231 0)
(-0.00755239592 -0.09517951457 0)
(-0.007257425781 -0.09518698401 0)
(-0.007249699816 -0.09490815829 0)
(-0.007275089714 -0.09574561901 0)
(-0.007567828324 -0.09573841589 0)
(-0.00667844943 -0.09576114874 0)
(-0.006640482662 -0.09380249417 0)
(-0.006631829254 -0.09408403673 0)
(-0.007522173133 -0.09378037789 0)
(-0.007527333203 -0.09406062389 0)
(-0.007233558215 -0.09406801016 0)
(-0.007229904075 -0.09378762085 0)
(-0.007242837915 -0.09462852923 0)
(-0.007538639053 -0.0946209861 0)
(-0.005736019621 -0.09495130542 0)
(-0.005709873668 -0.09467519761 0)
(-0.005684735318 -0.09441140114 0)
(-0.005989247623 -0.0943847345 0)
(-0.006308562345 -0.09437496558 0)
(-0.006503629443 -0.09996489644 0)
(-0.006249902198 -0.09996988683 0)
(-0.006355571714 -0.0954906301 0)
(-0.006053758615 -0.09549879822 0)
(-0.005790843788 -0.09550480862 0)
(-0.005762206266 -0.09522777657 0)
(-0.006406029184 -0.09885356804 0)
(-0.00613312008 -0.09886280584 0)
(-0.003105450656 -0.09577262733 0)
(-0.002970090579 -0.09538379514 0)
(-0.007497169776 -0.09265976778 0)
(-0.007504095886 -0.09293986369 0)
(-0.00721411038 -0.09294683898 0)
(-0.007206976182 -0.09266674848 0)
(-0.007225781737 -0.09350724374 0)
(-0.007516546219 -0.09350019611 0)
(-0.006646070835 -0.09352118755 0)
(-0.006584450307 -0.09156377334 0)
(-0.006595709705 -0.09184235092 0)
(-0.007469049948 -0.09154142518 0)
(-0.007475947622 -0.09182042863 0)
(-0.007184145408 -0.09182760738 0)
(-0.007176624824 -0.0915486722 0)
(-0.007199479184 -0.09238671949 0)
(-0.007490139622 -0.09237967457 0)
(-0.00577744113 -0.09269968862 0)
(-0.00575279241 -0.09242130338 0)
(-0.00572782657 -0.09214313462 0)
(-0.006019109918 -0.09213602143 0)
(-0.006313151572 -0.09212868027 0)
(-0.006363751673 -0.09324669803 0)
(-0.006089562823 -0.09325216895 0)
(-0.005821573213 -0.09325701001 0)
(-0.005801114544 -0.09297820336 0)
(-0.006562199528 -0.101082915 0)
(-0.006833942349 -0.1010790694 0)
(-0.007113803876 -0.1010731385 0)
(-0.007072931119 -0.1013648379 0)
(-0.006988055267 -0.1016839716 0)
(-0.005406621022 -0.1017624592 0)
(-0.005308733087 -0.1014770785 0)
(-0.005573636759 -0.101792678 0)
(-0.006348741725 -0.101084827 0)
(-0.003720044548 -0.1010270616 0)
(-0.003436885747 -0.1010289138 0)
(-0.004299003989 -0.1010184472 0)
(-0.004378167861 -0.1018356635 0)
(-0.004338139885 -0.1015688188 0)
(-0.005957234343 -0.09717260835 0)
(-0.005929425752 -0.09689602325 0)
(-0.005902611279 -0.09661863141 0)
(-0.006157023218 -0.09661294644 0)
(-0.006440082531 -0.096606672 0)
(-0.003238478425 -0.09685065399 0)
(-0.003491544925 -0.09685067829 0)
(-0.00380276815 -0.09770704013 0)
(-0.003886789798 -0.09793348856 0)
(-0.003606940899 -0.09795170466 0)
(-0.0033132257 -0.09795778795 0)
(-0.006493931438 -0.09772210645 0)
(-0.006239547004 -0.09772544812 0)
(-0.006013898093 -0.09772538692 0)
(-0.005985939922 -0.09745005508 0)
(-0.003033529618 -0.09852447517 0)
(-0.003024701071 -0.09824468906 0)
(-0.005632797766 -0.09103199958 0)
(-0.005655494307 -0.09131038358 0)
(-0.005389543391 -0.09131714974 0)
(-0.0053647101 -0.09103887342 0)
(-0.005678745487 -0.09158807639 0)
(-0.005414296439 -0.09159454318 0)
(-0.005804990856 -0.09382012834 0)
(-0.005662430636 -0.09417767206 0)
(-0.005625724869 -0.09379366416 0)
(-0.007389723373 -0.1019617577 0)
(-0.007085254306 -0.1019722855 0)
(-0.00736050297 -0.1027751318 0)
(-0.007060281885 -0.1027808639 0)
(-0.007048613649 -0.102500579 0)
(-0.007350460957 -0.1024953252 0)
(-0.006172203373 -0.1027831564 0)
(-0.006152985378 -0.1024916155 0)
(-0.006443807531 -0.1025001836 0)
(-0.006462253311 -0.1027844566 0)
(-0.006791546042 -0.09995823528 0)
(-0.007084803518 -0.09995096659 0)
(-0.007100870604 -0.1002302519 0)
(-0.007114550095 -0.1005098077 0)
(-0.004538616722 -0.1001841879 0)
(-0.004750326558 -0.1002177203 0)
(-0.005895931996 -0.1027820182 0)
(-0.005908717412 -0.1024714243 0)
(-0.004996133124 -0.1028278234 0)
(-0.00499969678 -0.1025419364 0)
(-0.005311883548 -0.1025213168 0)
(-0.005301699707 -0.1028120613 0)
(-0.005115195013 -0.1020672915 0)
(-0.004794070345 -0.1020699236 0)
(-0.005848063038 -0.09606152908 0)
(-0.005819999893 -0.09578276419 0)
(-0.005494343564 -0.09242709341 0)
(-0.00546735022 -0.09214902948 0)
(-0.005521190106 -0.09270531733 0)
(-0.00570296791 -0.09186548364 0)
(-0.005440421299 -0.09187164062 0)
(-0.005830624314 -0.09353694649 0)
(-0.005601175517 -0.09353729654 0)
(-0.005574784349 -0.09326176775 0)
(-0.005547989829 -0.09298354247 0)
(-0.007122101823 -0.1007899394 0)
(-0.004621342309 -0.1012842426 0)
(-0.004910763558 -0.101279989 0)
(-0.005184587389 -0.1012660943 0)
(-0.005083959756 -0.1010458565 0)
(-0.004262749334 -0.1001825707 0)
(-0.003971454651 -0.1001862484 0)
(-0.00396205778 -0.09990522769 0)
(-0.003949955198 -0.0996262556 0)
(-0.005875496717 -0.09634031035 0)
(-0.003936137612 -0.09906559437 0)
(-0.003921211734 -0.09878815337 0)
(-0.004199055008 -0.09877108267 0)
(-0.004283505228 -0.09899439652 0)
(-0.003901375123 -0.09851224574 0)
(-0.004113546885 -0.09854472499 0)
(-0.003941125512 -0.0993466257 0)
(-0.003969201613 -0.09815768838 0)
(-0.006039529144 -0.09798011261 0)
(-0.008803028871 -0.01769511729 6.865341629e-14)
(-0.00568179574 -0.01088142635 4.218847494e-14)
(-0.01858629205 -0.04385930188 1.706412789e-13)
(-0.0154862455 -0.03454025732 1.342814748e-13)
(-0.01535898969 -0.03507247465 1.331018629e-13)
(-0.02125738867 -0.05326259088 2.07389661e-13)
(-0.02534584932 -0.0781676106 3.047007091e-13)
(-0.02472741086 -0.07077697316 2.758349105e-13)
(-0.02487517554 -0.07282323957 2.770977892e-13)
(-0.02517999852 -0.08423021394 3.283068262e-13)
(-0.02265938193 -0.09145192016 3.562150575e-13)
(-0.02274123975 -0.09378026051 3.566175133e-13)
(-0.02043750021 -0.09009151516 0)
(-0.0180620008 -0.09015261734 0)
(-0.01568946664 -0.09021364233 0)
(-0.01687526552 -0.09018314202 0)
(-0.009923513534 -0.02189028664 7.743805597e-14)
(-0.006649872322 -0.0139810874 4.94049246e-14)
(-0.01982330985 -0.05125691802 1.817573869e-13)
(-0.01673843182 -0.04093052067 1.450228826e-13)
(-0.01688767753 -0.04232868848 1.467992394e-13)
(-0.01601331146 -0.03739385228 1.386668558e-13)
(-0.02243228641 -0.06154976897 2.184086245e-13)
(-0.02612741918 -0.08806374127 3.127775816e-13)
(-0.02566634269 -0.08034266912 2.853273173e-13)
(-0.02569214181 -0.08247088841 2.866040738e-13)
(-0.0250327198 -0.07490988297 2.784439346e-13)
(-0.02578966863 -0.09422424339 3.346212196e-13)
(-0.02291654098 -0.1009129074 3.581024366e-13)
(-0.02281391042 -0.1031605224 3.582412145e-13)
(-0.02282527613 -0.09611775688 3.570616025e-13)
(-0.02065977758 -0.09905524434 0)
(-0.01828108893 -0.09910981825 0)
(-0.01825259875 -0.09798924683 0)
(-0.01590532129 -0.09917061506 0)
(-0.01587709799 -0.09805029698 0)
(-0.01706445752 -0.09801975605 0)
(-0.01709283689 -0.09914007007 0)
(-0.0157951665 -0.09469255107 0)
(-0.01698184975 -0.09466202775 0)
(-0.01700905756 -0.09578133111 0)
(-0.01582211419 -0.09581186121 0)
(-0.011115158 -0.09705214988 0)
(-0.01052625545 -0.09706695763 0)
(-0.01051320252 -0.0965074738 0)
(-0.01110199967 -0.09649261674 0)
(-0.009339084218 -0.09653673305 0)
(-0.009352135796 -0.09709616486 0)
(-0.009300102365 -0.09485707966 0)
(-0.00931293096 -0.09541594464 0)
(-0.008737335749 -0.02103823117 6.837586053e-14)
(-0.005687625863 -0.0130522085 4.239664175e-14)