/*--------------------------------*- C++ -*----------------------------------*\
| =========                 |                                                 |
| \\      /  F ield         | OpenFOAM: The Open Source CFD Toolbox           |
|  \\    /   O peration     | Version:  v2012                                 |
|   \\  /    A nd           | Website:  www.openfoam.com                      |
|    \\/     M anipulation  |                                                 |
\*---------------------------------------------------------------------------*/
FoamFile
{
    version     2.0;
    format      ascii;
    class       surfaceScalarField;
    location    "0.9";
    object      phi;
}
// * * * * * * * * * * * * * * * * * * * * * * * * * * * * * * * * * * * * * //

dimensions      [0 3 -1 0 0 0 0];
oriented        oriented;


internalField   nonuniform List<scalar> 
6464
(
0.4582852889
0.001972684152
-0.001976107695
0.4583727745
0.00193833323
-0.001865532907
0.4584371612
0.001758371757
-0.001635732338
0.458470044
0.001500688386
-0.001350684239
0.4584730035
0.001212680738
-0.00107583709
0.4584761577
0.0009146793531
-0.0008522169687
0.4584480685
0.0007541485068
-0.0006212404069
0.4584592375
0.0005120029369
-0.001739729889
0.9186289038
0.0002211664135
-0.0004603402742
-0.001085443512
0.9186957136
-3.838785702e-06
0.9157683953
0.9137961612
-0.003632191518
-0.2290475936
0.2289344528
0.003745206468
-0.00393535325
-0.2292244967
0.2292217991
0.003938050849
-0.00370493352
-0.2293382615
0.2294349692
0.003608225867
-0.003202660499
-0.2294027577
0.2295564414
0.00304897684
-0.002585535333
-0.2294078119
0.2295749704
0.002418376856
-0.001989037768
-0.2293741803
0.2295235229
0.001839695244
-0.458845391
-0.002773358111
0.4602376927
0.001381056401
-0.000107456919
0.4608929302
-0.0015501609
-0.4592353124
-0.001777210422
0.9180754765
0.0005722066455
0.001758431011
-0.001084306349
0.9180028096
0.0003105146429
0.9143735743
0.9141066759
-0.2283642359
0.003772354708
0.2281396572
-0.003551287332
-0.227143326
0.002207483419
0.22644856
-0.001539127708
-0.2279456525
-0.001161000773
0.2268083582
0.002271045655
-0.2302525532
-0.005751292518
0.2302988882
0.005703607047
-0.2302889042
-0.004751811756
0.2306089361
0.004431779852
-0.003254796384
-0.2302021523
0.2308558357
0.002601112982
-0.4628110185
0.0004188094201
0.4615782225
0.0008139866265
-0.4599519935
-0.00100709812
0.4598976189
0.001061472682
-3.11229077e-05
0.9197341634
-0.0009722629976
-0.0006553009238
0.001498897258
0.9164727894
0.0006976916537
0.9151747799
0.9148043675
-0.2273671007
0.002919763941
0.2270766378
-0.002636453295
-0.2248658815
0.001984491474
0.224611747
-0.001785697318
-0.2240263742
0.0008625945989
0.2234444433
-0.0003629405415
-0.2265518218
-0.001876515974
0.2255224446
0.00284116521
-0.2341266421
-0.001456463128
0.2375570409
-0.001976691706
-0.003360194607
-0.2316583555
0.2316508195
0.00336773054
-0.4614975219
-0.005104167823
0.4626306319
0.003971057906
-0.4605732543
-0.002824867509
0.4615097095
0.001888412243
0.002754045522
0.9195951946
-0.001397864751
-0.001217212023
0.001946613288
0.9172802216
0.0008990378222
0.9162223554
0.9157034053
-0.2260490421
-0.008777235897
0.2256214094
0.009197190797
-0.2250850747
-0.008440795754
0.2259272518
0.007534188724
-0.2233207424
-0.003735259998
0.2240816687
0.002856734281
-0.232116684
0.007129811846
0.2273608378
-0.002498936744
-0.2282964397
-0.002819629543
0.2274525986
0.003592840367
-0.005026429269
-0.2329582314
0.2334736191
0.004511041645
-0.4642097316
-0.005979057628
0.4657196222
0.004469167023
-0.4623889132
-0.00339898005
0.4632932097
0.00249468357
0.003522985324
0.921365013
-0.003011969099
-0.002280834621
0.001928453019
0.9188747539
0.0008736989419
0.9172771094
0.9165771043
-0.2237809478
-0.02858246457
0.2229907578
0.02937105711
-0.2322290304
-0.02358289637
0.2340031694
0.02177187485
-0.2348223469
-0.008335434447
0.2339002126
0.00914074533
-0.2247054087
-0.007112518762
0.2256942715
0.005962712224
-0.2263045302
-0.00403904165
0.226424233
0.00378837634
-0.003893003875
-0.2343566129
0.2341834599
0.004048146601
-0.4670316032
-0.006214925109
0.4683536215
0.004892906747
-0.4638075398
-0.003918077199
0.4642779913
0.003447625755
0.002907625907
0.9235336172
-0.002442795163
-0.002633434944
0.00157835053
0.9202040293
0.0006459295556
0.9182095304
0.9172230338
-0.02322807604
-0.1088594538
0.1082566491
0.02383088077
-0.01896684166
-0.2468862116
0.03627196216
-0.01936407238
0.1240215271
0.1249236364
-0.02522435865
-0.2396641246
0.2435710084
0.021239729
-0.2305473073
-0.01218240053
0.2328930019
0.009666332751
-0.2279528526
-0.005164434363
0.2284868283
0.004465807374
-0.003462537459
-0.2330319564
0.2330072974
0.003423701904
-0.469669355
-0.005294770776
0.4704542025
0.004509923258
-0.4652010103
-0.003387337292
0.4661158261
0.002472521518
0.001619345515
0.9250663166
-0.001462630729
-0.001689414204
0.0007259387562
0.9210974361
0.0002544775082
0.9186809917
0.9174775113
-0.02684063135
-0.1356466813
0.1382634274
0.0242238852
-0.02624728396
-0.2564653977
0.2604384435
0.02223311399
-0.2386260727
-0.01377106437
0.2405033263
0.0117306313
-0.2311316066
-0.007117243132
0.2321194516
0.005944968983
-0.002512907754
-0.233697775
0.2338914298
0.00222838179
-0.4716115457
-0.003158393426
0.472558273
0.002211666075
-0.4668416406
-0.001557704719
0.4674447137
0.0009546316178
-0.0004518734493
0.9257599598
0.000149577449
-0.0003913472056
-0.0005373507556
0.9211829134
-0.0003233590057
0.9184669999
0.9171541523
-0.01206429768
-0.1512133683
0.1519034813
0.01137418467
-0.01373613173
-0.2695779183
0.2712663398
0.01202466282
-0.2454542941
-0.007658899755
0.246521581
0.006435496557
-0.234466526
-0.003316718269
0.2350226521
0.002570474964
-0.0009106473428
-0.2347917065
0.2350046031
0.0005946872608
-0.4737430617
-0.00010499755
0.4746892622
-0.000841202922
-0.4677393659
0.001251193625
0.4678833744
-0.001395202094
-0.002943659207
0.925139848
0.002022124161
0.001541646873
-0.002079665231
0.9203189194
-0.001080629436
0.9174679641
0.9160735229
0.004914487909
-0.1504801768
0.1496353101
-0.004069621245
0.002579628664
-0.2716714474
0.2705621731
-0.001494925246
-0.2475049202
0.0001433445292
0.2473238199
-0.0001187843994
-0.2361310638
0.0006745581703
0.2362248172
-0.0009580264568
0.001703665856
-0.2356574639
0.2357310408
-0.001879510965
-0.4746485885
0.004229198731
0.4741264899
-0.003707100121
-0.4676653772
0.003535528579
0.4679543096
-0.003824460918
-0.005695699896
0.9231435944
0.004159084582
0.003532868909
-0.003746620957
0.9183698405
-0.001896269206
0.9156176124
0.9141772537
0.01444173985
-0.1418530567
0.140597717
-0.01318640009
0.01460619773
-0.2644887678
0.2617241801
-0.01188364189
-0.2450566676
0.006401387016
0.2445427379
-0.006047835755
-0.2358669562
0.004914761877
0.2355296646
-0.004763525686
0.00468453219
-0.235914633
0.2358293888
-0.004689013184
-0.4732452868
0.008353589216
0.4720486268
-0.00715692922
-0.4681001664
0.006089439179
0.4671313896
-0.005120662424
-0.008238789074
0.9199926416
0.005911354137
0.005478387762
-0.005360355756
0.9154914072
-0.002638889145
0.9128961458
0.9115383646
0.01790079808
-0.1320254139
0.1307802197
-0.01665560392
0.02023540439
-0.2531894533
0.2502986204
-0.01741388636
-0.2407469454
0.01214574342
0.2386220055
-0.01019145053
-0.2339092252
0.007556812193
0.2331531524
-0.006977628244
0.007060184728
-0.2352383602
0.2349428133
-0.006833481512
-0.4705887362
0.01175554452
-0.01004757467
-0.4660913121
0.008557838989
-0.007277725155
-0.01049982434
0.00625484274
-0.006763823146
-0.003286365326
0.154115511
0.01448958637
-0.1530958413
-0.007496838855
-0.008012417162
-0.1364016035
-0.02988746162
0.1394484337
0.1526139105
-0.003127529664
-0.1535273601
0.002200069311
0.001840910007
0.1547833459
-0.00612082191
-0.006611310728
0.1429642423
-0.01372726761
-0.1442880376
0.007594388721
0.007456674226
0.1516202926
0.003130607606
0.002777498162
0.1324746194
-0.01766855222
-0.1336962692
0.01889020211
0.0157832452
0.1416227369
0.01936441487
0.1310110026
-0.1058232273
0.1045709899
0.02696672066
-0.133215309
-0.03015301517
-0.1215859909
-0.02039457011
0.1230137194
0.04077971844
0.008653641471
-0.0404552138
-0.008978146108
0.02235681213
-0.06834837545
-0.02435510864
0.07034667195
0.01353079246
-0.1502545744
0.2766479607
0.01773639405
-0.274097495
-0.02028735064
-0.2619833355
-0.03079595148
0.2665249898
0.04744199874
0.0007503507803
-0.04752051764
-0.0006718318812
-0.04408706365
0.003356431903
-0.002781830806
0.04351246256
-0.002420344481
-0.151187362
0.2785049206
0.001340044383
-0.2792085112
-0.0006365621696
-0.01544038737
0.2783520501
0.03853316621
-0.004246476327
-0.03887674754
0.004590057664
-0.0414373234
-0.001711183518
0.001256429639
0.04189207727
-0.01247530103
-0.1431050233
0.2701417797
-0.0120857018
-0.2729164915
0.01485665217
0.003913349392
0.2771708542
0.06971152871
-0.0110766878
-0.07018879709
0.01155395617
-0.07324244074
-0.01014115999
0.07280211744
0.005361531788
0.005219951509
0.008210983138
0.03077289301
-0.007881379105
-0.03110249704
0.06344730037
-0.01154484765
-0.06387509179
0.01197263908
-0.06650426882
-0.01172734228
0.0120872504
0.0661443607
0.003892103345
-0.04442070123
-0.003558465768
0.008325511778
-0.00854892528
0.04100313194
-0.1478679013
0.02131679469
0.1499862323
-0.01151179875
-0.01192332691
-0.07982030866
-0.007969217538
0.08059292931
0.01552210866
0.04295405827
0.004030641349
-0.04309259627
-0.00153087468
-0.04096821131
0.001061762597
0.0001083688859
2.256928995e-05
0.04731106057
-0.07719581144
0.001610636888
-0.001604990532
0.07719016509
-0.04609726393
0.0459273749
0.00027825792
0.04087940948
-0.001771355722
-0.04063892844
0.04266149963
0.003648990539
0.0007445699754
-0.04609148313
0.002293421329
-0.07729416262
-0.002195070152
-0.009948837647
-0.07371078752
0.005228493671
0.005188690747
-0.004119105033
0.004289621956
0.03836264928
-0.1481640769
-0.01065265685
0.1468823547
0.006081812202
0.005852566863
-0.0766654943
0.00410380619
0.07617363779
-0.007731054708
0.07303201379
-0.009515039143
-0.0734658123
0.04110469682
-0.001936470861
0.004091364866
-0.007460669863
-0.03889292973
-0.0386497359
-0.009458587064
-0.1493247367
0.005424758227
0.005194488696
-0.01163401517
-0.06694480875
0.0120745551
-0.01131520872
0.0116901958
0.06933654164
-0.02960239851
-0.007531743314
0.007137878381
-0.03002487546
0.00863346009
0.01179903102
-0.007485339396
0.02939083363
0.0120671333
-0.041602179
0.0001442120727
0.01763166252
-0.03419812851
-0.01945511423
0.03602158021
0.04541621713
-0.007698782716
-0.03755544465
-0.0001619897656
-0.01651530368
-0.1331786624
0.2571159697
-0.01940332825
-0.2606091683
0.02287281704
0.01759392393
0.2671472056
0.03937681283
-0.007531162844
-0.0316627472
-0.000182902786
0.06451563
-0.0133218116
-0.06508120254
0.006975385253
0.006911998897
-0.0331321583
-0.006652215215
0.006740043667
0.03304432985
-0.06849684785
0.07010989408
0.0207437659
-0.008906927985
0.0165502318
-0.078809971
0.02323698152
-0.1453252264
-0.01273993841
-0.01303971808
-0.00669877689
-0.0332692097
0.006835828291
-0.03519927706
-0.006853704782
0.007298487092
0.03475449475
-0.1376683197
-0.01679396307
0.01813470967
0.1363275731
-0.06972693458
0.06927118949
-0.01085946362
0.06651709579
-0.01122029248
-0.06693081848
0.07261719985
-0.009726346046
-0.01071632332
-0.07008729906
-0.01633196177
-0.1390097061
0.01767334817
0.01643686801
-0.05245861834
-0.01526537765
0.05128712798
0.02216893765
-0.06647731856
-0.02403999454
0.03172715174
-0.1203382305
-0.01630584232
-0.01768534254
0.06067640233
0.06192586127
-0.05592048356
0.05499070883
0.01736664274
0.02953929187
-0.0001484582406
-0.07601634314
0.0206004897
0.07779663893
-0.01108842214
-0.01129236335
-0.04002548874
0.05459311048
0.01497167014
-0.03409330042
0.03556382223
0.01616114072
0.01376233317
-0.04172068862
0.02139856083
-0.07420699584
-0.0115191319
-0.01168877623
-0.03987919307
0.002451107736
-0.00245363336
0.0398817187
0.002140741279
-0.04016695645
-0.001852977904
-0.03912244528
-0.003229076173
0.003134510855
0.03921701059
-0.003460123704
-0.03941470667
0.003752385096
-0.006156259596
0.03614370666
-0.03521266732
0.00522522025
-0.009675505789
0.02214403801
0.03294768491
-0.07145891732
-0.01078672376
0.01115519287
0.0710904482
-0.03801593846
0.03615395728
-0.007813524604
0.0360598907
-0.006364945109
-0.03585120519
-0.03406305721
0.03809710002
-0.003810048763
-0.0002239940457
-0.006858027626
-0.03885669355
-0.01062785034
-0.07186520667
0.005550939984
0.005483199709
0.06263419197
-0.01306154616
-0.06311734148
0.01354469566
-0.01329407438
0.06399444978
0.00691586321
0.006899391395
0.01933437563
0.02918789125
-0.009145454059
-0.04221263108
0.005856476017
-0.005664985195
0.04202114026
0.006248396216
-0.04222249857
-0.006238528725
-0.03869589688
-0.001004109483
0.0008860837463
0.03881392262
-0.00135066121
-0.03886106684
0.001515831168
0.03955395176
-0.001084481069
-0.0398201319
0.07933127308
-0.0005853811579
-0.07957801288
0.0008321209625
-0.08015313683
0.001296792094
-0.001149816568
0.08000616131
0.07826905809
-0.002783709097
-0.07855769051
0.003072341517
-0.001164639126
0.001411504696
0.07908440751
0.03954956306
-0.0009997207767
0.0405910569
0.002265172443
-0.04071548807
0.08032673169
0.004795855521
-0.08030725579
-0.004815331419
-0.08000309071
0.007054817059
-0.007207912187
0.08015618584
0.001967024034
-0.08026401314
-0.001856147729
0.004073619691
-0.004081170035
0.08033428203
0.04072761006
0.00231455458
-0.03764376984
-0.004651195813
0.00482389907
0.03747106658
-0.001886940231
-0.03211508651
-6.103046931e-05
-0.004675977232
-0.03785786914
0.004890076528
0.006149318807
0.03622487431
-0.006314302413
0.006944036694
0.03468817344
-0.006640656123
-0.03499155401
0.06811477033
-0.01149164935
-0.06852339006
0.01190026908
-0.03568821846
0.007432978097
0.005492378786
0.03680064668
0.01955461524
-0.0002202396053
-0.01298451611
0.01332546288
0.03252287979
-0.03618436628
0.003661486487
0.03436800894
-0.007020193652
-0.034460584
0.00711276871
-0.03211351762
-0.006989791553
0.00668888104
0.03241442813
-0.002474038965
-0.01415331534
0.016132582
0.000494772315
-0.007701097814
-0.03312113573
0.008708715933
-0.0304553041
-0.007730525389
0.006502203989
0.0316836255
0.02147497589
-0.04839685569
-0.01987683176
0.02287206972
0.02392664185
0.01693690113
-0.03261493264
-0.01852009701
0.02361768179
-0.05694252256
-0.02497412887
0.05829896964
-0.05239108762
0.02407172057
0.02408658782
0.02570775512
-0.0446737636
0.003732909826
-0.005608037466
0.04654889125
-0.03976004734
0.03906214699
0.0008283394695
-0.0001304391208
0.03805234911
0.0005518524322
-0.03827604965
-0.0003281518848
0.0416446242
0.002520070969
-0.04223431315
-0.001930382021
-0.03990067384
-0.003696036079
0.003828560665
0.03976814925
-0.04180229655
0.003496232937
0.04218581879
-0.003879755181
0.03714738477
0.006861940861
-0.005944080629
-0.038065245
-0.03671482104
0.03684928621
-3.022225367e-05
-0.0001042429149
0.04243719156
-0.003506293502
-0.03872371622
-0.0002071818319
0.04210484635
-0.002978607915
-0.04242023143
0.003293992991
-0.04264396266
0.005700382724
-0.006624250982
0.04356783092
-0.03859611011
-0.02687712383
0.05442190928
0.01105132467
0.001769212923
-0.04135313752
-0.0001761227405
0.0415448847
0.006161237267
-0.04145772575
0.07876168125
0.0110287025
-0.07830377199
-0.01148661175
-0.0764480872
0.01329424949
-0.01398920014
0.07714303785
0.00784351148
-0.07979058556
-0.008056016623
0.01022280444
-0.01062543117
0.07916430798
0.04153964465
0.005861716069
-0.03971802916
-0.001161735047
0.0007753528302
0.04010441138
-0.03621049096
0.03631455153
0.0001375279365
-0.0002415885097
0.0001029794497
-0.03655885077
-0.0002589497201
0.04404236387
-0.002720893772
-0.04602060717
0.004699137079
0.003644795712
0.03781929558
-0.004316706527
0.002568001771
0.04102587772
-0.00349957819
-0.0400943013
0.03844140989
-0.004245062155
-0.03839414514
0.004197797408
0.0747926812
0.004567220568
-0.008641819483
-0.07539405951
-0.007398185137
0.07382991794
-0.07421912238
0.007787389582
-0.07537481405
-0.006521107114
0.006901703519
0.07499421764
0.03921096477
-0.003214471833
-0.03945661664
0.07688726999
-0.004674570425
-0.07727971353
0.005067013959
-0.003291193568
0.003591572216
0.07796867944
-0.006165371548
-0.07577251586
0.00656307336
-0.005079217609
0.005434438495
0.07653204911
0.03917732377
-0.003195435174
-0.01153964111
0.01188829603
0.0677661154
0.03443187709
-0.006597408433
0.06624693244
0.006687866828
-0.01293648246
-0.0666970937
-0.03874412586
-0.00960967929
0.01950842705
0.0288453781
-0.03916836456
0.01764723694
-0.01806924387
0.03959037149
-0.02981408528
0.03878123796
0.02355572711
0.01783066154
-0.03844273478
-0.01855629131
-0.02898691069
-0.002298444592
0.03145736135
-0.0001720060734
-0.006150251618
-0.02262435508
-0.0002123039892
0.03335558959
-0.007331531497
-0.03353522776
0.007511169665
-0.007515017404
0.008086590632
0.03379643571
0.02003003795
-0.0197713603
-0.0002586776493
0.01653726372
-0.02033679654
0.002277332418
-0.01540052197
0.0149074289
0.001845743932
0.006718362711
-0.03166102777
0.0329090919
-0.007966426839
0.009368646231
0.03323451549
-0.00817437014
-0.03442879158
0.03389952081
-0.006782360385
-0.03421250378
0.007095343357
-0.04161450144
0.02052784357
-0.02133005319
0.02820812797
-0.0001597120691
0.02981083031
-0.02948851985
-0.0003223104653
0.0437181985
0.0119166821
-0.04266849535
-0.01296638525
-0.04035698715
0.01252860371
-0.01329039252
0.04111877597
0.04546417233
0.0110895712
-0.04352535558
-0.01302838795
0.01118015476
-0.0114955658
0.04403360953
0.01268869976
-0.03970157712
-0.01334410979
-0.03722694212
0.01336874866
-0.01418364227
0.03804183572
-0.03956986179
0.04073685256
0.01648024617
-0.036764323
0.03593469404
0.001122655473
-0.0002930265128
0.02563985289
-0.02558063885
-5.921403288e-05
0.004244451419
-0.04231772924
-0.006600485781
0.002344334947
-0.001792983788
0.04109327304
0.03777571694
0.000485536075
-0.0002089039101
0.0006010638653
-0.03721378135
-0.0001516055067
0.0004413476183
-0.03707105062
0.0384486946
-0.001818991598
0.001077821058
-0.00219419303
-0.04068592458
-0.003454066588
-0.03974843929
0.003301832042
0.03726422475
-0.03585368334
-0.0003327203551
-0.03381124033
0.03478782667
-0.0005352387128
0.03517252086
-0.03477562429
0.006465044287
0.04113549019
-0.000375032496
-0.002156113988
-0.0315427368
-0.0001123895433
-0.003524596545
0.004372737961
0.04125670493
0.05019919445
-0.007560445826
-0.000201557068
-0.003552788309
-0.0356743763
-0.03752591495
-0.007006648752
0.007615882399
0.0369166813
-0.005456419841
-0.0361239189
0.004054423791
0.03737242742
-0.006056022311
-0.03677282495
0.03568380451
-0.005988166735
-0.03577773676
0.006082098977
-0.03663459529
-0.005853939233
0.006272993337
0.03621554119
0.03379474913
-0.006891326166
-0.03305367459
0.03669821001
-0.005845848134
-0.03703369848
0.006181336601
-0.03774705847
-0.005341778751
0.005193075001
0.03789576222
-0.005803771235
-0.03686202091
0.006031196852
-0.005650211589
0.005637216157
0.03671120544
0.0358368077
-0.004340503157
0.007531484498
0.03265611549
-0.007684267203
-0.03250333278
0.03229232811
-0.007151894912
-0.03254085708
0.00740042389
-0.007376892697
0.00773310226
0.03299938003
-0.002129589113
-0.04473556094
0.04293975417
0.003925395881
-0.007981696225
0.008417565004
-0.03903197889
0.005791065604
-0.04201609443
-0.006418933842
0.02687078969
-0.03463790367
-0.0002145822434
-0.04087271454
0.03886342979
-0.0001203043631
-6.33414363e-06
0.03979436819
0.005853084703
-0.04234863698
-0.003298815912
0.009550294089
-0.01035896327
0.04627284151
0.004850555304
-0.04555984699
-0.000163422852
0.008763099662
-0.007856136524
0.03888740505
-0.04128096079
0.007260162296
-0.007547717772
0.04156851626
-0.0414836478
0.04185632006
0.008390427402
0.005688212663
-0.0455732183
-0.03557323043
0.03588082428
-1.012497165e-05
-0.0002974688744
0.000204998991
-0.03602298515
-0.0003925048007
-0.001044790115
-0.03936847405
0.0006952350008
-0.003210091744
0.00568343652
0.04156901909
0.02503644374
-0.02475267861
-0.0002837651281
-0.0005824188459
-0.03494610597
-4.470561231e-05
0.03879503469
-0.005853925461
-0.03950380294
0.00656269371
-0.03741685927
-0.005125205679
0.00433898114
0.03820308381
-0.005172834249
-0.03733127201
0.004757047788
-0.006235920206
0.007363892589
0.03766706231
0.02305223827
-0.02267042324
-0.0003818150325
0.04113513768
-0.03977879769
0.001211661783
0.001974323154
0.03684299342
-0.006524228974
-0.03809470646
0.007202076165
-0.004245799708
0.003640789464
0.04174014792
-0.02104780803
-0.0002822451521
-0.03546748376
-0.006532540592
0.006280691675
0.03571933268
-0.02766721923
0.03083345137
-0.003061454105
-0.0001047780317
-0.009678147518
-0.04303068828
-0.006079097795
-0.0214454125
-0.0001427089417
-0.006922846077
-0.03575409178
0.007209454101
-0.03100708692
-0.0002055544354
0.0242763389
-0.1329562995
0.02693751059
-0.2568720354
-0.0320633423
-0.2421240648
-0.0296523874
0.246504729
-0.02578352219
0.02876045619
-0.002765485747
-0.0002114482548
-0.02008915878
-0.005525687933
-0.0001686754758
0.02360095328
0.2537187805
-0.01978798358
-0.000301175204
0.06615929888
-0.01136954537
-0.02169047584
-0.1286223603
0.01154648777
-0.0178813317
-0.1285208491
0.01910201397
0.01478931584
-0.02061158854
-0.0139633424
0.0197856151
-0.02090107418
-0.007774447804
0.01938864011
0.009286881871
-0.004711202399
0.005340133856
-0.0147822468
0.02205756246
-0.02782617911
-0.03041574963
0.01692245805
-0.02616391882
-0.0175425265
0.02678398728
-0.02294755696
0.02159051034
0.01614636247
-0.1262524734
0.02554180285
-0.02731086037
0.1280215309
-0.1230056426
0.1240837642
0.03064903016
0.02052884827
-0.06685675847
0.00944222524
-0.03952101891
-0.00973001208
0.03980880575
-0.04234815838
0.04283156606
0.01069674708
0.0446073852
0.01004856411
-0.04356637811
0.03116238478
-0.007054959532
-0.03137632176
0.007268896515
-0.007100136196
0.007490746156
0.03190171815
0.03164855584
-0.008602119642
0.00663342141
0.06578603442
-0.0128247386
0.06459490986
-0.01286203578
-0.06505468568
0.0649780041
-0.01168781205
-0.06539088232
0.01210069027
0.0450576567
0.009100022596
0.007113669684
-0.04274423278
0.007458435155
-0.04117647728
-0.007562918662
-0.02692699986
0.005666850017
0.008124986433
-0.02980755453
-0.008342307359
0.03646970004
-0.02809148301
-0.0002532305991
0.01817616028
-0.006985045801
0.007108925053
-0.05499555949
0.01387417831
-0.0004807978172
-0.0334984111
-0.003827291925
-0.0002297416265
-0.03308219204
0.03316084497
-0.007609815775
0.004932639351
-0.03131855512
-0.00669627627
-0.02649077144
-0.0002393364025
-0.03313347108
0.03312798673
-0.006984307194
0.03387604219
-0.006946832894
-0.03394940295
0.03277349151
-0.006637479613
-0.03286839043
0.006732378531
0.01400121994
-0.07566302224
-0.01478628489
-0.0728479454
0.01579624899
-0.01682138661
0.07387308303
-0.07496668898
0.07641043599
0.01915674269
-0.006696189076
0.007001808067
0.03359390182
0.03321574612
-0.007711756016
-0.007277821382
-0.03355674752
-0.0625891661
0.02025627363
-0.02106229991
0.06339519238
-0.05921088673
0.05978170201
0.02304686651
0.01575155592
-0.03290795521
0.01323863538
0.04179082821
-0.0004363531102
-0.04241726923
0.04219557288
0.01346033173
-0.04150171805
0.01405611896
-0.0283743656
0.02835309207
2.127353076e-05
0.009239008262
-0.03749665701
-0.0001167168474
0.007184805566
-0.0352844377
-0.007113035182
0.03325819098
-0.03222408855
0.006150703145
0.003019750884
0.03546366034
0.02228019651
-0.0001361584908
-0.006428769524
0.02876068665
-5.172061653e-05
0.03391531012
-0.007396394733
-0.006049387978
0.03501492637
-0.03513280386
0.006167265468
-0.005941443438
0.006134408974
0.03549083898
0.03698210112
-0.006616322454
-0.00753438803
0.04597040947
-0.0003389214176
-0.03898479822
0.03802022246
-0.006569812269
-0.03805752947
-0.004737317518
-0.007538498837
0.006047190581
0.03067919951
-0.03224671221
0.03248876595
-0.007780552568
-0.008231321302
-0.03295680924
0.03498840496
-0.001810816114
-0.0002207796041
-0.0303141065
-0.002344490354
-0.0002982123884
-0.0362371335
-0.003707336194
0.00239314613
-0.03427175493
-0.0043585247
-0.02958546236
-0.0001364780253
-0.02350571817
-0.00653661264
-0.0002717756841
-0.02330961098
-0.0001961071902
-0.004294535304
0.004430530743
0.03830541445
0.04124182409
-0.004461746075
0.0383420772
-0.005832763758
-0.03903354242
0.02590187195
-0.0003000661274
-0.03292089954
0.04045893911
-0.007311591659
-0.000226447906
-0.003864452446
-0.0002959909034
0.03052042893
-0.02935723582
-0.005011435443
0.03276637862
0.03359128807
-0.006188295386
0.01192930905
-4.776204681e-05
0.004251035
-0.0122510341
0.01274580641
0.006406863202
0.005522445853
0.007506540668
-0.03327473427
-0.007352942133
0.04043650346
-0.03265395372
-0.0002760090727
0.02743506864
-0.02078828547
-0.0001445791819
-0.005072702685
-0.0001461823996
-0.006663811456
-0.02980838117
0.01472815012
-0.01530570026
0.0303859313
-0.02823429081
0.02881993888
0.01633680997
0.02168988553
-0.02944640835
-0.04495874568
0.04129191647
0.003834105195
-0.0001672759914
-0.05264586407
0.007997213988
-0.0003100955921
-0.04010571574
0.03976265948
0.0004078516094
-6.479535227e-05
0.001348219687
-0.000162018951
0.0005895907103
0.03866087739
-0.0001883211056
-0.04392771589
0.04305734772
0.001459958887
-0.04499024165
0.001890865222
-0.04228722822
0.04165291688
0.001186163774
-0.000492703703
0.001262823195
-0.0001078759702
-0.0001184844993
0.03739957259
-0.0004318018723
-0.04199132979
0.04281823635
-0.0009453910528
-0.04140562226
-0.0006159297815
-0.04366877478
0.04373928782
-0.003576806538
0.0009817212383
-0.001832259672
-0.0003424223979
0.008845677846
0.04559044229
-1.421085596e-05
-0.04473149412
0.04643543393
0.007141738036
-0.04192435339
0.008244183938
-0.04611017418
0.002889145454
-0.004471249549
0.004796509303
-0.000233944783
6.120110309e-05
0.03632702606
-7.367562712e-05
-0.03992761955
0.04032602846
-0.0003372078144
-0.03951458893
-0.0002755026756
-0.04086334768
-0.0004392951328
-0.0001948432537
-0.0003424759635
-0.0004266679697
-0.03987197658
0.04098311732
-0.0007648950257
-0.0003462457163
-4.281207716e-06
-0.0001050358925
-0.04433698311
0.05178433964
-0.007150142016
-0.0002972145174
-0.003222652844
-0.0001312129404
-0.01849476344
-0.0001961501355
0.01989092883
-0.0003825017828
-0.007919699242
-0.0002808549421
-0.008881875676
-0.0003186031655
0.03274098568
-0.05054727667
-0.0002629528889
0.03312911677
-0.00038813109
0.01772392877
0.03776732934
0.001013908621
-0.0343249844
0.05039336146
0.02169895228
0.02159496767
-0.03236422496
-0.03224528891
0.03151481117
0.0007304777418
0.01805174568
9.632686772e-05
-0.001793122119
-0.0002479276272
-0.0222256549
-0.0003987001839
-0.006225557626
-0.0002351758644
-0.02991968568
-0.007624427066
-0.009232106875
-0.01516793867
-0.03359434803
-0.007773045049
-0.0002471083599
-0.0002604418933
-0.00521639008
-0.0001698299832
-0.04095800942
0.05612901126
0.01463982847
-0.01232472452
0.01356228798
-2.241616466e-05
-0.01091161403
-0.04342903836
0.0108152968
0.04082900457
-0.04250161034
0.05615370869
-0.04490641431
0.00768504326
-0.0002752859593
0.01162319197
-0.0004005950176
0.002765999169
0.03332163334
-0.0001529384683
-0.03820732813
0.03705203364
0.003921293664
-0.03914825456
0.002063581895
-0.03717367494
0.01016766376
-0.007936467712
0.00781482641
-0.0001954732289
0.0004407525818
0.0374741637
-0.0001391993392
-0.04104048724
0.04043989654
0.001041343289
0.001097965712
-0.03985779748
0.001310606791
-0.0005007223505
0.001082821406
-0.0002403400063
-0.00127934722
0.0001431449192
0.03958489691
-0.03887431696
-0.00228589985
0.0398808696
-0.03796206784
-0.002731240726
-0.03529096356
-0.0003172369467
-0.0002454828327
-0.0003599919774
0.02365148283
-0.04894739282
-0.009479714304
0.02388649343
-0.0002350105996
0.0307705322
-0.0004189944809
-0.007566866152
-0.0002450364791
-0.02453268658
-0.006914260596
-9.578961971e-05
-0.02419465677
-0.0003380298139
-0.009547970801
0.03555250848
-0.04187740813
0.03895810093
-0.006628663602
-0.005698566137
-0.03759852948
-0.003916326664
0.007036128417
-0.005676556969
0.04436893772
-0.03649812586
-0.0002549294583
-0.009407905138
0.0215527543
-0.00777566154
0.02186267406
-0.0003099197622
-0.02818850005
0.03139765266
-0.0001894017214
-0.0001751228449
0.003053186995
-0.005261795773
0.03209146534
-0.0002775917015
-0.0003522367267
-0.03610205014
-0.006583202685
0.03579392666
0.009308920012
-0.007390747694
0.003616511808
0.04090320296
-0.001579960595
-0.04290591297
0.0416075449
0.004914879876
0.005095377786
-0.04407589487
-0.04086885685
0.007362068463
-0.00502426712
0.005762955168
-0.003153043052
-0.03726220447
-0.0005287422501
2.126472748e-05
-0.002870834256
-0.04483622672
0.005358423998
0.03819892355
-0.0407544903
-0.0003152675022
0.03502856587
-0.0001284582354
0.04599324721
-0.0001985017876
0.005497581073
-0.0002588241642
0.006934195857
-0.05481126558
0.009512871052
-0.0002614524645
0.02719915075
-2.672140518e-05
0.02746611464
-0.0002669638843
0.01154225411
0.0001049703739
0.03602550049
-0.0002496465851
-0.03836883068
0.03876428102
-0.0002904799678
-0.0378434868
-0.0005354688498
-0.0390864378
-0.0002231521388
-7.09526952e-05
-0.0002512040855
-6.843735541e-05
-0.007299146364
0.03252206689
-0.0001864767926
-0.03641710735
0.03614304576
-0.007025084776
-0.009385446317
-0.03711160763
-0.001314298019
0.002195503649
-0.003164065514
-0.0002285354287
-0.03900360913
0.0468131329
-0.007726354168
-8.316960717e-05
-0.003870974428
-0.0001442297415
-0.006343637094
-0.0001895869913
-0.03359558576
-0.007019806271
-0.009452876093
0.0005451503798
-0.03838353944
-0.001940408629
0.03480280445
-0.03405981665
-0.0001978374217
0.03633793044
-0.0003234642051
0.03311692239
-0.000372067032
-0.0006653764965
-0.0002775177664
-0.002205922512
0.009781044557
-0.04045228751
-0.007423463512
0.03465578398
-0.0481843504
0.0353212475
0.04026770968
-0.0002889897751
-0.007714873537
-0.0002017671844
-0.006427013123
-0.004117466559
0.03515480302
-0.0002038850859
-0.03507641237
0.03656939113
-0.005610445319
-0.03283947447
-0.005298392004
-0.03618907012
-0.008210390427
0.03472131303
0.007621119102
-0.00724079809
-0.0002547661645
-0.03574995632
0.04355894154
-0.007590765286
-0.0002182199367
-0.004059135223
-0.0002931684312
-0.03173930043