/*--------------------------------*- C++ -*----------------------------------*\
| =========                 |                                                 |
| \\      /  F ield         | OpenFOAM: The Open Source CFD Toolbox           |
|  \\    /   O peration     | Version:  v2012                                 |
|   \\  /    A nd           | Website:  www.openfoam.com                      |
|    \\/     M anipulation  |                                                 |
\*---------------------------------------------------------------------------*/
FoamFile
{
    version     2.0;
    format      ascii;
    class       surfaceScalarField;
    location    "2.64";
    object      meshPhi;
}
// * * * * * * * * * * * * * * * * * * * * * * * * * * * * * * * * * * * * * //

dimensions      [0 3 -1 0 0 0 0];
oriented        oriented;


internalField   nonuniform List<scalar> 
5975
(
-1.901646342e-07
-1.993341125e-05
2.464282069e-07
4.001204144e-05
-2.013489375e-05
-8.034693914e-05
2.947383286e-05
-6.236817112e-05
0.0001637280486
-8.348524989e-05
3.29984787e-05
0.0001005686757
-0.0001521759187
-9.660471515e-05
0.0001411279667
8.728006636e-05
-0.0001023039952
-8.417705643e-05
8.706135589e-05
4.539879806e-05
-4.235433745e-05
-4.28119726e-05
2.946781326e-05
-3.43039944e-06
3.640598543e-06
-2.865687786e-06
3.392681038e-07
0
0
0
0
0
0
0
0
0
0
0
0
0
0
0
0
0
3.801164236e-07
-5.284233577e-05
-3.801182222e-07
0.00010653378
-5.369144244e-05
-0.0002162143492
6.223576776e-05
-6.174260684e-05
0.0002152653534
8.924460556e-05
-0.000185785363
-8.675780441e-05
0.0001708003918
7.415291681e-05
-0.0001141289349
-6.911185861e-05
9.292308473e-05
3.214933132e-05
-3.755324524e-05
-2.891799349e-05
2.446882094e-05
-6.046470577e-07
5.652051029e-07
-2.567473801e-07
0
0
0
0
0
0
0
0
0
0
0
0
0
0
0
0
0
0
4.383995408e-06
-0.0002674360966
-4.383995407e-06
0.0002674360966
5.822125266e-05
-0.0002612781252
-5.621010793e-05
0.0002527848548
7.669938913e-05
-0.0002052302048
-7.293218287e-05
0.0001835345566
5.623163334e-05
-0.0001108990045
-5.243321548e-05
8.68933759e-05
1.820799311e-05
-2.690273983e-05
-1.477015625e-05
1.400945446e-05
0
0
0
0
0
0
0
0
0
0
0
0
0
0
0
0
0
0
0
0
0
4.259216255e-06
-0.0002996258151
-4.085180311e-06
0.0002938352403
4.763269452e-05
-0.0002609692197
-4.395349499e-05
0.0002443628814
5.828513407e-05
-0.0001803232057
-5.247898015e-05
0.0001558788534
3.780885709e-05
-8.238183953e-05
-3.216510023e-05
6.023565003e-05
6.296689367e-06
-1.122460855e-05
-3.792630886e-06
3.093493279e-06
0
0
0
0
0
0
0
0
0
0
0
0
0
0
0
0
0
0
0
0
0
3.156568456e-06
-0.000242663335
-2.750424718e-06
0.0002337679427
3.104707949e-05
-0.0001920033129
-2.637942454e-05
0.0001738773865
3.342457719e-05
-0.0001124268393
-2.69330036e-05
9.133387794e-05
1.498939399e-05
-3.47696245e-05
-9.904718991e-06
2.038661965e-05
5.572402058e-08
-8.816653237e-08
0
0
0
0
0
0
0
0
0
0
0
0
0
0
0
0
0
0
0
0
0
0
0
1.471245903e-06
-0.0001190654862
-1.079726057e-06
0.0001125721675
1.28052027e-05
-8.257463671e-05
-8.878793561e-06
7.023702824e-05
9.542309715e-06
-3.249946008e-05
-5.225173403e-06
2.145500657e-05
5.125428891e-07
-1.236551857e-06
-1.441800099e-09
1.336189767e-08
0
0
0
0
0
0
0
0
0
0
0
0
0
0
0
0
0
0
0
0
0
0
0
0
0
2.104668591e-07
-1.530064315e-05
-6.26065139e-08
1.332340753e-05
9.704024941e-07
-5.27069236e-06
-8.180066974e-08
2.900704177e-06
0
0
0
0
0
0
0
0
0
0
0
0
0
0
0
0
0
0
0
0
0
0
0
0
0
0
0
0
0
0
0
0
0
0
0
0
0
0
0
0
0
0
0
0
0
0
0
0
0
0
0
0
0
0
0
0
0
0
0
0
0
0
0
0
0
0
0
0
0
0
0
0
0
0
0
0
0
0
0
0
0
0
0
0
0
0
0
0
0
0
0
0
0
0
0
0
0
0
0
0
0
0
0
0
0
0
0
0
0
0
0
0
0
0
0
0
0
0
0
0
0
0
0
0
0
0
0
0
0
0
0
0
0
0
0
0
0
0
0
0
0
0
0
0
0
0
0
0
0
0
0
0
0
0
0
0
0
0
0
0
0
0
0
0
0
0
0
0
0
0
0
0
0
0
0
0
0
0
0
0
0
0
0
0
0
0
0
0
0
0
0
0
0
0
0
0
0
0
0
0
0
0
0
0
0
0
0
0
0
0
0
0
0
0
0
0
0
0
0
0
0
0
0
0
0
0
0
0
0
0
0
0
0
0
0
0
0
0
0
0
0
0
0
0
0
0
0
0
0
0
0
0
0
0
0
0
0
0
0
0
0
0
0
0
0
0
0
0
0
0
0
0
0
0
0
0
0
0
0
0
0
0
0
0
0
0
0
0
0
0
0
0
0
0
0
0
0
0
0
0
0
0
0
0
0
0
0
0
0
0
0
0
0
0
0
0
0
0
0
0
0
0
0
0
0
0
0
0
0
0
0
0
0
0
0
0
0
0
0
0
0
0
0
0
0
0
0
0
0
0
0
0
0
0
0
0
0
0
0
0
0
0
0
0
0
0
0
0
0
0
0
0
0
0
0
0
0
0
0
0
0
0
0
0
0
0
0
0
0
0
0
0
0
0
0
0
0
0
0
0
0
0
0
0
0
0
0
0
0
0
0
0
0
0
0
0
0
0
0
0
0
0
0
0
0
0
0
0
0
0
0
0
0
0
0
0
0
0
0
0
0
0
0
0
0
0
0
0
0
0
0
0
0
0
0
0
0
0
0
0
0
0
0
0
0
0
0
0
0
0
0
0
0
0
0
0
0
0
0
0
0
0
0
0
0
0
0
0
0
0
0
0
0
0
0
0
0
0
0
0
0
0
0
0
0
0
0
0
0
0
0
0
0
0
0
0
0
0
0
0
0
0
0
0
0
0
0
0
0
0
0
0
0
0
0
0
0
0
0
0
0
0
0
0
0
0
0
0
0
0
0
0
0
0
0
0
0
0
0
0
0
0
0
0
0
0
0
0
0
0
0
0
0
0
0
0
0
0
0
0
0
0
0
0
0
0
0
0
0
0
0
0
0
0
0
0
0
0
0
0
0
0
0
0
0
0
0
0
0
0
0
0
0
0
0
0
0
0
0
0
0
0
0
0
0
0
0
0
0
0
0
0
0
0
0
0
0
0
0
0
0
0
0
0
0
0
0
0
0
0
0
0
0
0
0
0
0
0
0
0
0
0
0
0
0
0
0
0
0
0
0
0
0
0
0
0
0
0
0
0
0
0
0
0
0
0
0
0
0
0
0
0
0
0
0
0
0
0
0
0
0
0
0
0
0
0
0
0
0
0
0
0
0
0
0
0
0
0
0
0
0
0
0
0
0
0
1.976756729e-05
4.071747567e-07
-3.983826593e-07
-1.977635939e-05
-1.956866265e-05
3.927201055e-05
-1.259452512e-07
-2.579001481e-05
7.731445485e-05
2.583203825e-05
-7.735647828e-05
5.209144753e-05
1.168878887e-06
-1.168903875e-06
-5.209142255e-05
-1.9957665e-05
4.314285025e-07
0.0001033352812
-4.73137397e-05
-2.569950273e-06
-9.80027325e-07
-4.554941957e-05
0.0001999993849
-0.0001028715748
-9.90219214e-05
2.204405309e-05
2.539947773e-05
-8.03989544e-05
-2.573799956e-05
0.0001289203001
3.243665391e-06
-3.243665377e-06
-0.0001289203001
-5.284232282e-05
1.168865932e-06
-1.145670722e-05
7.745544134e-05
1.149816702e-05
-3.911942405e-05
-3.837747709e-05
-1.561243963e-06
4.600098161e-05
-4.606633356e-05
1.626595909e-06
4.525423636e-05
-1.472042213e-06
-4.534343811e-05
5.706222655e-07
4.518962693e-05
-5.060128374e-07
-1.164900315e-05
8.976188177e-05
1.15058926e-05
-8.961877123e-05
8.053450438e-05
-1.141821288e-05
-4.066443286e-05
-3.990856585e-05
-2.049162154e-07
1.843574429e-05
-1.849352423e-05
2.626961472e-07
1.300077342e-06
4.230920238e-05
-1.259439928e-06
-2.124951823e-05
-2.110032156e-05
1.823206491e-05
-1.615903377e-07
-1.827539079e-05
5.99570796e-08
1.820198532e-05
-2.987749003e-08
-2.605222799e-06
3.610625565e-05
2.637314656e-06
-3.613834752e-05
4.30898034e-05
-4.312893242e-05
1.33920636e-06
0.0002545844502
-0.0001256641501
3.801184561e-07
4.003876951e-06
0.0002524199224
-4.68156081e-05
4.767272085e-05
-0.0002545344453
-4.786888281e-05
-0.0001096805692
-0.0001042143167
-2.500517763e-06
3.914667043e-05
2.53111462e-06
-3.917726728e-05
3.68609387e-05
-3.688461551e-05
-2.581545997e-06
9.771696983e-08
1.83979844e-05
-1.125145424e-05
0.0001011153581
1.08832362e-05
-0.0001007471401
9.288416393e-05
-9.259893902e-05
-1.193422807e-05
6.363459473e-07
4.593525793e-05
0.0001161277907
3.243665375e-06
-3.243665354e-06
-0.0001161277907
3.004499965e-06
2.189399561e-05
-2.489849557e-05
2.229756697e-07
1.747035652e-05
-1.970236982e-07
-1.749630849e-05
4.343129344e-06
4.863076576e-05
-4.506426787e-06
2.150768648e-06
4.823318898e-05
-1.926266006e-06
-4.845769162e-05
-1.843511558e-05
-1.136647585e-06
9.975486471e-07
1.857421452e-05
-1.888298086e-05
9.367946922e-07
1.895299022e-05
-1.00680405e-06
3.329985943e-07
1.895081942e-05
-3.32230701e-07
-1.895158731e-05
1.273849288e-06
-1.493983801e-06
-1.866284635e-05
-3.102135499e-06
2.537708634e-07
-1.558675094e-05
1.139896619e-06
1.991766179e-05
-1.120333582e-06
-1.993722483e-05
1.897048783e-05
-1.873135568e-05
1.034717138e-06
-2.468062253e-06
2.062974179e-05
-8.833329191e-07
1.288518299e-06
2.062724892e-05
-1.264427445e-06
-2.065133977e-05
2.007268897e-05
-2.008121132e-05
1.148418973e-06
1.27398267e-06
2.125719531e-05
-1.255430853e-06
-2.127574713e-05
2.081292885e-05
-2.083215601e-05
1.307745458e-06
2.292025221e-06
2.086535309e-05
2.289786072e-05
-2.599999622e-05
1.764532188e-05
-1.762574475e-05
2.033985435e-07
1.056961481e-06
1.736620041e-05
-1.541866192e-05
1.848918288e-05
3.272030248e-06
7.729260797e-05
2.949567974e-05
0.0001426899783
-9.630270448e-05
9.797638956e-05
-0.0001481728719
1.912104663e-05
-1.915071848e-05
3.626704386e-07
8.112176413e-07
1.909606488e-05
9.114873643e-07
1.986129707e-05
-8.551226448e-07
1.686300042e-05
-1.665825052e-05
3.965459468e-07
1.695297976e-05
1.958742878e-07
1.263731315e-08
1.745457861e-05
3.14059923e-09
-5.493091076e-07
1.73926038e-05
5.598723841e-07
-1.740316708e-05
-3.641429599e-06
6.375329052e-07
1.977423777e-05
-1.677034108e-05
2.445630194e-05
-2.809773153e-05
2.512774613e-05
3.915167557e-06
2.726609692e-06
1.969369992e-06
2.043176645e-05
2.004856348e-05
-1.668442088e-05
2.2077984e-05
1.432173914e-06
-1.422071523e-06
-2.208808639e-05
2.151260306e-05
-2.158491749e-05
1.346297099e-06
-5.200837117e-07
-1.531763916e-05
3.301842715e-06
9.828561228e-07
1.760929677e-05
1.723023553e-05
-1.444847653e-05
-2.33658841e-05
2.954054807e-06
1.89178455e-05
3.540118834e-06
-2.690600294e-05
1.485405918e-06
-1.660813344e-05
1.865191745e-05
-1.544409178e-05
-1.985166163e-05
-1.006410029e-06
1.973773807e-05
1.608775255e-06
2.995865052e-06
1.445788192e-06
4.205144048e-08
-1.72880012e-05
1.933789276e-05
-1.629997627e-05
1.936619987e-05
-1.813325645e-06
1.800186725e-06
2.064288072e-05
-2.036116432e-05
2.051720867e-05
2.077656664e-05
1.99101683e-06
-1.818807424e-06
1.70280819e-06
2.089256588e-05
2.084673239e-05
1.738590449e-05
-3.644177103e-07
-1.59645253e-05
-7.895804959e-07
5.389367404e-07
1.763654824e-05
1.755947604e-05
-5.169345311e-07
1.834824408e-05
6.578733357e-07
-1.798230687e-05
1.800430908e-05
-1.507469433e-05
0.0001345392946
0.0001026007854
9.866774127e-05
-9.449615899e-05
9.66620154e-05
-0.0001120538731
8.299599255e-05
9.20107506e-05
4.076458231e-05
-5.738817126e-05
6.133474386e-05
-5.413125376e-05
2.875966808e-05
4.924016623e-05
-1.106399812e-05
4.034139731e-06
1.370227312e-05
-1.006692326e-05
3.399193029e-07
4.229286253e-05
-3.235794556e-07
-2.385425414e-06
4.221377022e-05
2.436332946e-06
-4.226467776e-05
3.994924806e-05
-3.996929507e-05
-2.48047076e-06
0.0001998676571
6.229951122e-05
0.0001796617052
-8.716329168e-05
9.012561393e-05
-0.000191622971
-0.000159528225
-9.391339394e-05
0.0001653791727
9.223129743e-05
0.000110171631
-7.88634551e-05
8.354846747e-05
-0.0001297854185
-0.0001168525702
-9.138030372e-05
9.334780292e-05
7.634441718e-05
4.02155733e-05
-4.33557648e-05
4.61851066e-05
-5.660971465e-05
-5.663980899e-05
-5.45591449e-05
2.591778213e-05
3.472052376e-05
-3.973281234e-06
1.284693517e-06
6.012754378e-06
-6.187167041e-06
-9.566812244e-06
-9.605102356e-06
-3.801184713e-07
0.0001161277907
3.801184536e-07
-1.125145424e-05
0.0001161277907
1.125145423e-05
-0.0001161277907
0.00010653378
-0.00010653378
-1.125145424e-05
0.0002463035299
5.98250307e-05
0.0002042601137
-7.635322964e-05
7.927521111e-05
-0.0002218689172
-0.000197719589
-8.499744798e-05
0.0001838432825
7.982502526e-05
0.0001134462624
-6.39573339e-05
6.717721788e-05
-0.0001376122319
-0.0001343723262
-7.61141711e-05
8.941935826e-05
6.13614815e-05
3.00750459e-05
-2.724670193e-05
3.232563475e-05
-4.717365617e-05
-5.416349897e-05
-3.878942314e-05
1.706709107e-05
2.226577784e-05
-4.669835884e-07
0
9.908273843e-07
-1.336716811e-06
-4.863214083e-06
-2.862870589e-06
0.0002984706919
9.479931664e-06
-9.866644353e-06
1.011107674e-05
-6.867411381e-06
0.0002944351211
4.358378976e-06
0.0002673011759
-3.931316853e-05
4.175246829e-05
-0.0002792425184
-0.0002659198938
-4.548871552e-05
0.0002522720598
5.091479071e-05
0.0001909733989
-5.901880986e-05
6.411073561e-05
-0.0002136933978
-0.0002243984679
-7.282420119e-05
0.0001667424347
6.367069358e-05
9.201648563e-05
-4.502553322e-05
5.053501819e-05
-0.0001165260927
-0.000135559515
-6.007241287e-05
6.891306685e-05
4.314005164e-05
1.561145111e-05
-1.321478442e-05
1.701651988e-05
-2.99631033e-05
-4.41105291e-05
-2.417002231e-05
5.616530373e-06
9.093621253e-06
0
0
0
0
-4.913521197e-07
-4.508164202e-08
0.0002655615405
6.731895586e-06
-7.560711712e-06
8.955423008e-06
0.0002568371073
3.524191999e-06
0.0002150992822
-2.627211969e-05
2.99237137e-05
-0.0002314708287
-0.0002747330997
-3.650335546e-05
0.0001965957046
3.559261477e-05
0.0001323632342
-3.524781773e-05
4.1528289e-05
-0.0001547405402
-0.0002036036343
-5.350835931e-05
0.0001097738738
3.994122591e-05
4.709381161e-05
-2.065707007e-05
2.679000128e-05
-6.647278125e-05
-0.0001061940293
-3.914405437e-05
3.015549409e-05
2.055818872e-05
1.048389559e-06
-1.243806635e-06
3.245861253e-06
-6.442959182e-06
-2.392090826e-05
-9.499083649e-06
0
6.261270227e-07
0
0
0
0
0
0
0.0001521185237
3.139861394e-06
-4.022304171e-06
5.847750162e-06
0.0001446782971
1.890784588e-06
0.0001103034203
-1.1308989e-05
1.489468919e-05
-0.000123453695
-0.0002082284122
-2.248562506e-05
9.597466373e-05
1.712766492e-05
5.063346299e-05
-1.155887903e-05
1.689870573e-05
-6.562480283e-05
-0.0001335911465
-2.894090053e-05
3.651618449e-05
1.476771116e-05
5.573266093e-06
-2.062142813e-06
5.246472751e-06
-1.33473614e-05
-5.184640453e-05
-1.484380189e-05
1.200742544e-06
2.352394943e-06
0
0
0
0
-2.487101831e-06
-2.60178469e-07
0
0
0
0
0
0
0
0
3.382025656e-05
4.90224419e-07
-9.68771431e-07
2.318043287e-06
3.06889122e-05
4.366170789e-07
1.680015446e-05
-1.131331964e-06
2.817344014e-06
-2.18822285e-05
-9.400320044e-05
-8.020988952e-06
1.175274437e-05
2.816064527e-06
1.233749091e-06
-5.397187881e-08
1.006544659e-06
-3.504003882e-06
-4.46850892e-05
-6.973943751e-06
1.268662054e-07
3.427123861e-07
0
0
0
0
-5.201514395e-06
-3.657246748e-07
0
0
0
0
0
0
0
0
0
0
0
0
0
0
0
0
0
0
0
1.675994859e-07
0
0
0
0
0
0
-8.029189809e-06
-1.878810183e-07
0
0
0
0
0
0
-2.53779875e-07
0
0
0
0
0
0
0
0
0
0
0
0
0
0
0
0
0
0
0
0
0
0
0
0
0
0
0
0
0
0
0
0
0
0
0
0
0
0
0
0
0
0
0
0
0
0
0
0
0
0
0
0
0
0
0
0
0
0
0
0
0
0
0
0
0
0
0
0
0
0
0
0
0
0
0
0
0
0
0
0
0
0
0
0
0
0
0
0
0
0
0
0
0
0
0
0
0
0
0
0
0
0
0
0
0
0
0
0
0
0
0
0
0
0
0
0
0
0
0
0
0
0
0
0
0
0
0
0
0
0
0
0
0
0
0
0
0
0
0
0
0
0
0
0
0
0
0
0
0
0
0
0
0
0
0
0
0
0
0
0
0
0
0
0
0
0
0
0
0
0
0
0
0
0
0
0
0
0
0
0
0
0
0
0
0
0
0
0
0
0
0
0
0
0
0
0
0
0
0
0
0
0
0
0
0
0
0
0
0
0
0
0
0
0
0
0
0
0
0
0
0
0
0
0
0
0
0
0
0
0
0
0
0
0
0
0
0
0
0
0
0
0
0
0
0
0
0
0
0
0
0
0
0
0
0
0
0
0
0
0
0
0
0
0
0
0
0
0
0
0
0
0
0
0
0
0
0
0
0
0
0
0
0
0
0
0
0
0
0
0
0
0
0
0
0
0
0
0
0
0
0
0
0
0
0
0
0
0
0
0
0
0
0
0
0
0
0
0
0
0
0
0
0
0
0
0
0
0
0
0
0
0
0
0
0
0
0
0
0
0
0
0
0
0
0
0
0
0
0
0
0
0
0
0
0
0
0
0
0
0
0
0
0
0
0
0
0
0
0
0
0
0
0
0
0
0
0
0
0
0
0
0
0
0
0
0
0
0
0
0
0
0
0
0
0
0
0
0
0
0
0
0
0
0
0
0
0
0
0
0
0
0
0
0
0
0
0
0
0
0
0
0
0
0
0
0
0
0
0
0
0
0
0
0
0
0
0
0
0
0
0
0
0
0
0
0
0
0
0
0
0
0
0
0
0
0
0
0
0
0
0
0
0
0
0
0
0
0
0
0
0
0
0
0
0
0
0
0
0
0
0
0
0
0
0
0
0
0
0
0
0
0
0
0
0
0
0
0
0
0
0
0
0
0
0
0
0
0
0
0
0
0
0
0
0
0
0
0
0
0
0
0
0
0
0
0
0
0
0
0
0
0
0
0
0
0
0
0
0
0
0
0
0
0
0
0
0
0
0
0
0
0
0
0
0
0
0
0
0
0
0
0
0
0
0
0
0
0
0
0
0
0
0
0
0
0
0
0
0
0
0
0
0
0
0
0
0
0
0
0
0
0
0
0
0
0
0
0
0
0
0
0
0
0
0
0
0
0
0
0
0
0
0
0
0
0
0
0
0
0
0
0
0
0
0
0
0
0
0
0
0
0
0
0
0
0
0
0
0
0
0
0
0
0
0
0
0
0
0
0
0
0
0
0
0
0
0
0
0
0
0
0
0
0
0
0
0
0
0
0
0
0
0
0
0
0
0
0
0
0
0
0
0
0
0
0
0
0
0
0
0
0
0
0
0
0
0
0
0
0
0
0
0
0
0
0
0
0
0
0
0
0
0
0
0
0
0
0
0
0
0
0
0
0
0
0
0
0
0
0
0
0
0
0
0
0
0
0
0
0
0
0
0
0
0
0
0
0
0
0
0
0
0
0
0
0
0
0
0
0
0
0
0
0
0
0
0
-1.959182436e-05
-3.75220943e-07
5.581139712e-07
-5.226557583e-07
-1.962728257e-05
-1.980165928e-05
5.834138608e-07
7.395463971e-07
3.922212615e-05
-6.896619886e-07
-3.844658929e-05
3.842277746e-05
7.633582233e-07
-8.573805301e-08
-1.936574985e-05
6.792529458e-05
-6.796604653e-05
-2.59577738e-05
-3.443621022e-05
-1.52128787e-05
6.804641331e-05
-1.516211576e-05
7.743289815e-05
1.518465897e-05
4.906205389e-05
-4.946746898e-05
2.556183744e-06
5.139893727e-05
9.508795947e-07
2.003329674e-05
1.10466087e-06
2.059358915e-05
-1.0710011e-06
1.18307239e-06
4.081618401e-05
-6.536945814e-07
-4.33294151e-07
-2.056299597e-05
-2.03492717e-05
4.003876953e-06
0.0001033352812
-4.003876953e-06
9.763085883e-05
3.946786709e-06
-4.902065578e-05
-4.855311281e-05
-1.085479059e-06
1.391753847e-06
4.87557791e-05
2.554475643e-05
9.259977386e-05
-9.267836133e-05
-2.546616895e-05
1.51092209e-05
-1.48694996e-05
9.264444261e-05
-1.487494683e-05
0.000101221947
1.4768358e-05
-1.515115265e-05
8.052354127e-05
8.967127501e-05
1.519982767e-05
8.959982524e-05
2.561021037e-05
-8.966527918e-05
0.0001193262895
-0.0001193262895
3.243665391e-06
3.243665334e-06
0.000109680569
-2.074798602e-06
-1.168866533e-06
-5.523972561e-05
-5.444084355e-05
6.247561487e-06
7.437109021e-05
-3.758616463e-05
-3.68315041e-05
5.297184051e-06
3.486403755e-06
-3.468681977e-06
3.684321692e-05
-3.419827547e-06
3.913185133e-05
3.434646644e-06
3.60636532e-05
3.529006214e-06
3.601696687e-05
6.242588148e-06
-3.601199353e-05
1.698420326e-05
-3.175417763e-09
-1.875085317e-07
1.698447667e-05
2.57056358e-06
-2.477735444e-06
-4.615916169e-05
4.681950174e-05
-4.697783936e-05
2.72890119e-06
1.773049584e-06
4.667304807e-05
-4.462897335e-05
-1.408938344e-06
4.456586948e-05
2.369427829e-06
-2.328069065e-06
-2.224142976e-05
-2.242890235e-05
-4.545174572e-05
4.514392917e-05
-2.299035956e-06
2.326590977e-06
-4.517148419e-05
4.295575865e-05
-4.296623603e-05
-2.374948034e-06
4.06730591e-07
4.302299211e-05
-8.66374153e-05
1.140039113e-05
8.674291678e-05
-7.615449691e-06
7.617483172e-06
-4.368369012e-05
-7.644075754e-06
-4.4446216e-05
-3.394531756e-06
3.992395227e-05
8.363664417e-05
-4.150754452e-05
3.369026579e-06
4.333127162e-06
8.361882241e-05
4.395070678e-07
-3.844131671e-07
-1.854861813e-05
1.866481639e-05
-1.869350048e-05
4.681911524e-07
2.983855898e-07
1.862912695e-05
-1.539235045e-06
1.525271309e-06
2.126645186e-05
-2.081074775e-05
2.09743209e-05
4.161607989e-05
-2.093596726e-05
-2.075648017e-05
1.139264598e-06
2.077832512e-05
1.139524875e-06
2.124561428e-05
-1.127943847e-06
-1.801785771e-05
-1.559384038e-07
1.801220578e-05
3.115598795e-07
-3.251085119e-07
8.287730076e-07
3.617415865e-05
-8.148443106e-07
-1.818363683e-05
-1.800445052e-05
3.537400409e-05
3.240668465e-07
-1.780791281e-05
-1.761069423e-05
2.60335855e-08
1.76319256e-05
-3.534782646e-05
2.65686446e-06
3.532827667e-05
-1.749434023e-06
1.775611648e-06
-1.713622898e-06
3.45465877e-05
-1.717912239e-05
3.450574801e-05
2.217336072e-06
-2.175245583e-05
-9.416847204e-07
4.387822064e-05
-2.191096964e-05
4.380848865e-05
-1.58871132e-06
1.630196813e-06
2.184958108e-05
2.163499711e-05
3.338703326e-06
-2.286524191e-05
-2.26907237e-05
-1.722592317e-06
-1.511891108e-06
-2.229013683e-05
1.480880986e-06
1.887912462e-05
0.0002545844502
-1.887912461e-05
0.0002418510777
7.62767038e-06
-0.0001225247882
-0.0001193262895
-3.80118461e-07
0.0001193262895
-0.0002418510777
4.786888285e-05
0.0002414707497
-3.337417141e-05
3.337417141e-05
-3.335484918e-05
-1.487494682e-05
0.00010653378
0.0002290570826
-0.0001129292919
1.487494683e-05
1.849922458e-05
0.0002290570826
-3.8410611e-05
2.535737818e-06
3.84059878e-05
-1.648289378e-06
1.660455839e-06
-1.603430513e-06
-1.702571632e-06
-3.689566677e-05
3.766126769e-05
-3.770338348e-05
3.761545951e-05
3.76936005e-05
-1.876974393e-05
-1.332105631e-07
7.443536386e-08
7.535752428e-07
-1.857055909e-05
-1.838637675e-05
-9.964506289e-05
1.194016891e-05
9.858813017e-05
-1.021581154e-05
8.201607466e-06
-7.627670382e-06
-7.788981928e-06
-9.245403285e-05
9.573742934e-05
-9.532480379e-05
9.574337021e-05
4.800087902e-05
-8.531691019e-07
3.777544653e-06
-4.789884599e-05
-4.725671574e-05
-4.655661891e-05
-4.588811232e-05
1.469207075e-06
-0.0001129292919
0.0001129292919
6.867411374e-06
-2.980736657e-06
6.867411366e-06
-1.722302463e-05
1.722187522e-05
4.037568463e-07
5.16745117e-07
-3.465274304e-06
3.593576965e-06
-2.364860312e-05
-2.34575389e-05
-2.327995195e-05
-2.300578072e-05
-3.722599484e-06
4.872874791e-05
3.624617337e-06
-4.787513685e-05
4.774611433e-05
-2.11353847e-06
-4.757819222e-05
4.742497581e-05
2.896823294e-06
3.167879576e-06
1.869139807e-05
9.580680167e-07
-6.834697232e-07
6.813673176e-07
-7.125118407e-07
1.896527012e-05
7.002319381e-07
-1.886910947e-05
1.883796494e-05
-1.880358904e-05
5.025670541e-07
5.162498652e-07
-2.050539587e-05
-1.214878595e-06
2.045584701e-05
1.515387004e-06
-1.503574202e-06
1.506927949e-06
1.413140354e-06
2.03413326e-05
2.027487298e-05
-2.104818733e-05
-1.304843117e-06
2.109759959e-05
1.405765761e-06
-1.479632191e-06
1.396470488e-06
1.521504339e-06
2.093443802e-05
2.093734037e-05
4.504764087e-07
1.776191614e-05
1.780937628e-05
7.709215793e-05
0.0001511033193
-7.688174023e-05
-7.723520534e-05
-7.409378591e-05
0.0001386649457
-7.094735036e-05
-6.783477552e-05
-2.96064646e-05
6.788327653e-05
-0.0001370836399
0.000132376045
-8.977559972e-05
-8.825563192e-05
5.110527637e-07
-1.914552137e-05
1.937830036e-05
-1.938990335e-05
1.939092008e-05
7.8649743e-07
-6.507754475e-07
6.517921782e-07
-6.936224649e-07
7.532602574e-07
-1.966911286e-05
1.743888511e-07
1.743426174e-05
-1.540719815e-07
-1.72218404e-05
1.720872072e-05
-1.719236053e-05
5.73110521e-07
-3.551615141e-07
3.715216982e-07
1.697097726e-05
-1.660883711e-06
2.214495525e-05
1.729871285e-06
2.197393824e-05
-2.195404747e-05
-1.378993685e-06
1.530869537e-06
-1.510978777e-06
1.587738402e-06
1.446550111e-06
2.178515242e-05
6.59195739e-07
5.263391979e-06
0
0
0
-1.653136869e-09
0
0
0
0
0
4.079612809e-05
2.664841287e-07
6.683729898e-07
-6.371020126e-07
4.076485711e-05
3.999075243e-05
0.0001760323902
-6.22544561e-05
-8.654628005e-05
7.648316076e-05
-7.587831504e-05
0.0001749435453
0.0001631944717
0.0001521905396
-0.0001632701206
-9.475050481e-05
9.835933945e-05
-9.464150625e-05
0.0001378160441
0.0001010003962
0.0001300931213
8.670420697e-05
-0.0001042890693
-7.869567177e-05
7.574321642e-05
-7.276132477e-05
7.241231079e-05
7.870473159e-05
7.169051724e-05
2.890680375e-05
-4.208478308e-05
-3.95653443e-05
3.087010358e-05
-2.797213836e-05
1.766649534e-05
3.319830145e-05
1.838647706e-05
0
1.293655728e-06
0
0
0
0
0
0
0
0
0
0
0
0
0
0
0.0001096805692
-3.801183984e-07
4.003876962e-06
-4.003876956e-06
0.0001096805692
0.00010653378
0.0002270371006
-6.103920029e-05
7.209827123e-05
-7.093814554e-05
0.0002205571155
7.392213725e-05
0.0002098018328
0.0001758552004
-0.0001943694404
-8.226705015e-05
8.77893476e-05
-8.231408333e-05
0.0001552385834
8.906452998e-05
0.0001545871586
9.363260021e-05
-0.0001142094752
-6.640267531e-05
6.007418646e-05
-5.624094567e-05
7.254699444e-05
6.471597583e-05
7.278153124e-05
2.205187893e-05
-3.621336552e-05
-2.521958427e-05
1.85054828e-05
-1.507341821e-05
1.091131975e-05
2.114901752e-05
1.298646927e-05
0
0
0
0
0
0
0
0
0
0
0
0
0
0
0
0
0.0002797659365
-0.0002801385753
-4.387501027e-06
1.88645687e-05
-1.855171136e-05
0.0002782897391
0.0002673691648
0.0002561817315
-0.0002670440624
-5.37769961e-05
6.449204493e-05
-6.137249626e-05
0.0002417349502
6.71308287e-05
0.0002404074731
0.0001805864263
-0.0002033843784
-6.857277428e-05
7.063371876e-05
-6.613696435e-05
0.0001563039148
7.452161011e-05
0.0001600461129
8.240781127e-05
-0.0001064115424
-4.804597091e-05
4.363238056e-05
-3.943197739e-05
6.010022375e-05
4.728611554e-05
6.436317108e-05
1.105432707e-05
-2.368938464e-05
-1.197692891e-05
6.864554714e-06
-4.97193104e-06
3.003991095e-06
9.839566998e-06
4.92592284e-06
0
0
0
0
0
0
0
0
0
0
0
0
0
0
0
0
0.0002872223771
-0.000294392983
-3.8377815e-06
1.62458836e-05
-1.504452668e-05
0.0002774995372
1.723775816e-05
0.0002856358891
0.0002322246763
-0.0002499556733
-3.992082562e-05
4.931175343e-05
-4.451502844e-05
0.000212159636
5.375257172e-05
0.0002251179456
0.0001424920792
-0.0001667412631
-4.633316113e-05
4.958640372e-05
-4.330229444e-05
0.00011806021
5.554488942e-05
0.0001309349833
5.05936532e-05
-7.139772362e-05
-2.635607085e-05
2.451331165e-05
-1.923063226e-05
3.244649327e-05
2.97498512e-05
4.050024337e-05
1.153574532e-06
-7.038226452e-06
-1.821690456e-06
7.215253446e-07
-1.36755665e-07
0
1.708196209e-06
8.506830248e-08
0
0
0
0
0
0
0
0
0
0
0
0
0
0
0
0
0.0002066807714
-0.000215386335
-2.322654326e-06
1.04992209e-05
-8.819661639e-06
0.0001954208072
1.212936445e-05
0.0002222313768
0.0001489476258
-0.0001662273612
-2.169741208e-05
2.874814306e-05
-2.338258598e-05
0.0001304236876
3.413701521e-05
0.0001542504665
7.24436878e-05
-9.161869507e-05
-2.064291658e-05
2.373813626e-05
-1.755158564e-05
5.422137333e-05
3.022194275e-05
7.092542507e-05
1.179729909e-05
-2.322346306e-05
-5.588492212e-06
5.346829276e-06
-2.29422388e-06
3.996545917e-06
9.385128465e-06
9.396958436e-06
0
0
0
0
0
0
0
0
0
0
0
0
0
0
0
0
0
0
0
0
0
0
0
0
8.184802139e-05
-8.727467071e-05
-7.303746163e-07
4.033017242e-06
-2.702984942e-06
7.476139977e-05
5.531466595e-06
0.0001041195531
4.67432213e-05
-5.683409579e-05
-5.498472707e-06
8.947285262e-06
-5.261425925e-06
3.648317879e-05
1.331517183e-05
5.744228425e-05
9.779921608e-06
-1.745652398e-05
-2.075397643e-06
3.290740867e-06
-8.864350147e-07
4.099856134e-06
7.055493432e-06
1.214955824e-05
0
-3.587943834e-09
0
0
0
0
6.003441761e-09
0
0
0
0
0
0
0
0
0
0
0
0
0
0
0
0
0
0
0
0
0
0
0
0
0
3.247723759e-06
-4.094116243e-06
-1.252530002e-09
2.076110702e-07
-2.459153642e-09
2.294445583e-06
7.476097494e-07
1.081618853e-05
8.708001005e-08
-5.952848387e-07
0
1.277930895e-08
0
0
6.462418208e-07
1.262845072e-06
0
0
0
0
0
0
0
0
0
0
0
0
0
0
0
0
0
0
0
0
0
0
0
0
0
0
0
0
0
0
0
0
0
0
0
0
0
0
0
0
0
0
0
0
0
0
0
0
0
0
0
0
0
0
0
0
0
0
0
0
0
0
0
0
0
0
0
0
0
0
0
0
0
0
0
0
0
0
0
0
0
0
0
0
0
0
0
0
0
0
0
0
0
0
0
0
0
0
0
0
0
0
0
0
0
0
0
0
0
0
0
0
0
0
0
0
0
0
0
0
0
0
0
0
0
0
0
0
0
0
0
0
0
0
0
0
0
0
0
0
0
0
0
0
0
0
0
0
0
0
0
0
0
0
0
0
0
0
0
0
0
0
0
0
0
0
0
0
0
0
0
0
0
0
0
0
0
0
0
0
0
0
0
0
0
0
0
0
0
0
0
0
0
0
0
0
0
0
0
0
0
0
0
0
0
0
0
0
0
0
0
0
0
0
0
0
0
0
0
0
0
0
0
0
0
0
0
0
0
0
0
0
0
0
0
0
0
0
0
0
0
0
0
0
0
0
0
0
0
0
0
0
0
0
0
0
0
0
0
0
0
0
0
0
0
0
0
0
0
0
0
0
0
0
0
0
0
0
0
0
0
0
0
0
0
0
0
0
0
0
0
0
0
0
0
0
0
0
0
0
0
0
0
0
0
0
0
0
0
0
0
0
0
0
0
0
0
0
0
0
0
0
0
0
0
0
0
0
0
0
0
0
0
0
0
0
0
0
0
0
0
0
0
0
0
0
0
0
0
0
0
0
0
0
0
0
0
0
0
0
0
0
0
0
0
0
0
0
0
0
0
0
0
0
0
0
0
0
0
0
0
0
0
0
0
0
0
0
0
0
0
0
0
0
0
0
0
0
0
0
0
0
0
0
0
0
0
0
0
0
0
0
0
0
0
0
0
0
0
0
0
0
0
0
0
0
0
0
0
0
0
0
0
0
0
0
0
0
0
0
0
0
0
0
0
0
0
0
0
0
0
0
0
0
0
0
0
0
0
0
0
0
0
0
0
0
0
0
0
0
0
0
0
0
0
0
0
0
0
0
0
0
0
0
0
0
0
0
0
0
0
0
0
0
0
0
0
0
0
0
0
0
0
0
0
0
0
0
0
0
0
0
0
0
0
0
0
0
0
0
0
0
0
0
0
0
0
0
0
0
0
0
0
0
0
0
0
0
0
0
0
0
0
0
0
0
0
0
0
0
0
0
0
0
0
0
0
0
0
0
0
0
0
0
0
0
0
0
0
0
0
0
0
0
0
0
0
0
0
0
0
0
0
0
0
0
0
0
0
0
0
0
0
0
0
0
0
0
0
0
0
0
0
0
0
0
0
0
0
0
0
0
0
0
0
0
0
0
0
0
0
0
0
0
0
0
0
0
0
0
0
0
0
0
0
0
0
0
0
0
0
0
0
0
0
0
0
0
0
0
0
0
0
0
0
0
0
0
0
0
0
0
0
0
0
0
0
0
0
0
0
0
0
0
0
0
0
0
0
0
0
0
0
0
0
0
0
0
0
0
0
0
0
0
0
0
0
0
0
0
0
0
0
0
0
0
0
0
0
0
0
0
0
0
0
0
0
0
0
0
0
0
0
0
0
0
0
0
0
0
0
0
0
0
0
0
0
0
0
0
0
0
0
0
0
0
0
0
0
0
0
0
0
0
0
0
0
0
0
0
0
0
0
0
0
0
0
0
0
0
0
0
0
0
0
0
0
0
0
0
0
0
0
0
0
0
0
0
0
0
0
0
0
0
0
0
0
0
0
0
0
0
0
0
0
0
0
0
0
0
0
0
0
0
0
0
0
0
0
0
0
0
0
0
0
0
0
0
0
0
0
0
0
0
0
0
0
0
0
0
0
0
0
0
0
0
0
0
0
0
0
0
0
0
0
0
0
0
0
0
0
0
0
0
0
0
0
0
0
0
0
0
0
0
0
0
0
0
0
0
0
0
0
0
0
0
0
0
0
0
0
0
0
0
0
0
0
0
0
0
0
0
0
0
0
0
0
0
0
0
0
0
0
0
0
0
0
0
0
0
0
0
0
0
0
0
0
0
0
0
0
0
0
0
0
0
0
0
0
0
0
0
0
0
0
0
0
0
0
0
0
0
0
0
0
0
0
0
0
0
0
0
0
0
0
0
0
0
0
0
0
0
0
0
0
0
0
0
0
0
0
0
0
0
0
0
0
0
0
-7.429051818e-05
2.591411719e-05
7.420843924e-05
-2.224122555e-05
2.231754762e-05
-7.436684026e-05
-2.222345349e-05
-7.737425033e-05
-4.48243463e-05
-3.658297278e-06
2.075064995e-06
4.344154358e-06
-5.124356565e-05
-5.209127437e-05
2.074916806e-06
6.229096292e-07
-1.999716077e-05
2.01367594e-05
-2.016754435e-05
-2.217090139e-05
-8.045150652e-05
8.352925895e-05
-8.355130674e-05
-2.21488536e-05
-2.569399051e-05
3.444679289e-05
-3.444833463e-05
-5.360396274e-06
-6.258745446e-06
4.789611592e-07
-4.619761264e-07
4.51726419e-05
-4.449768029e-05
4.446077043e-05
5.158710168e-07
-4.378236478e-07
1.274657839e-07
-1.091172913e-07
-1.800213094e-05
1.251462004e-07
-1.980264789e-08
-1.890556217e-06
1.911823458e-06
-1.84742965e-06
1.859363336e-05
9.750963533e-08
4.658470466e-05
7.246893515e-07
4.148305178e-07
-3.867447691e-07
-1.989351109e-06
2.014019715e-06
0.0001032568458
0.0001241264378
-0.0001250383698
0.0001151539842
-0.0001036074327
9.08335086e-05
-0.0001012967257
-9.911214583e-05
8.248208256e-05
6.834898642e-05
-7.968163693e-05
6.652056741e-05
-5.34602694e-05
4.088957906e-05
-7.255766955e-05
-6.869544471e-05
3.685219842e-05
1.841711739e-05
-2.934022135e-05
1.91896623e-05
-1.084000746e-05
4.848177953e-06
-2.467854054e-05
-2.139810291e-05
5.999356741e-07
4.227918957e-05
-5.862627094e-07
-4.155898456e-05
4.152181822e-05
-4.150210111e-05
2.430889534e-06
-1.53114384e-06
1.550860955e-06
-1.516632025e-06
-1.581973152e-06
4.073374491e-05
4.068416369e-05
7.492219462e-05
0.0001966922566
-0.0001883281476
0.0001862141469
-9.568331863e-05
-0.0001805001374
9.294289786e-05
0.0001703300376
-8.469977282e-05
8.60463895e-05
-8.536585948e-05
-8.697214227e-05
0.0001706802058
9.149211728e-05
0.0001492313465
-0.0001582379349
0.000143086294
-0.0001283883192
8.626588598e-05
0.0001105021987
-9.056784111e-05
9.195550851e-05
-8.541991772e-05
-9.610382756e-05
0.0001217594306
6.767922839e-05
7.466931222e-05
-9.235908186e-05
7.326973155e-05
-5.585477635e-05
5.103512856e-05
4.020524465e-05
-5.738532643e-05
6.215256041e-05
-5.424161319e-05
-6.583430658e-05
5.675368718e-05
2.438408014e-05
1.456130213e-05
-2.663843462e-05
1.634363437e-05
-7.715094887e-06
7.878315406e-06
2.155892203e-06
-1.428237685e-05
1.703258262e-05
-1.127914287e-05
-1.943541494e-05
8.840451131e-06
2.877161641e-06
4.003876951e-06
0.0001161277907
-4.003876955e-06
-0.0001129292919
0.0001129292919
-7.627670391e-06
0.0001096805692
-7.627670384e-06
-1.125145424e-05
0.0001096805692
6.928060672e-05
0.0002360388885
-0.0002375681481
0.0002293114983
-0.0002169424241
8.155506958e-05
0.0002009187757
-7.580136527e-05
7.781995926e-05
-7.320439982e-05
-8.010674076e-05
0.0002095282345
7.774785515e-05
0.0001613584258
-0.0001818620077
0.0001597600331
-0.000136450531
7.268565824e-05
0.0001128111875
-7.34107701e-05
7.840051447e-05
-7.016103161e-05
-8.175276424e-05
0.0001351797999
5.231581877e-05
6.715630772e-05
-9.088917178e-05
7.021301308e-05
-5.099051824e-05
3.582919978e-05
3.395345543e-05
-4.261816513e-05
4.640463453e-05
-3.746440402e-05
-4.959249197e-05
5.336341054e-05
1.248632306e-05
7.101440928e-06
-1.981050322e-05
8.960803772e-06
-2.266075005e-06
1.59391086e-06
9.761160589e-09
-5.049004636e-06
6.691570778e-06
-3.430107612e-06
-9.258177669e-06
3.50908272e-06
2.058711313e-07
-1.010231986e-05
0.0002915412287
1.800598148e-05