/*--------------------------------*- C++ -*----------------------------------*\
| =========                 |                                                 |
| \\      /  F ield         | OpenFOAM: The Open Source CFD Toolbox           |
|  \\    /   O peration     | Version:  v2012                                 |
|   \\  /    A nd           | Website:  www.openfoam.com                      |
|    \\/     M anipulation  |                                                 |
\*---------------------------------------------------------------------------*/
FoamFile
{
    version     2.0;
    format      ascii;
    class       volVectorField;
    location    "1.82";
    object      U;
}
// * * * * * * * * * * * * * * * * * * * * * * * * * * * * * * * * * * * * * //

dimensions      [0 1 -1 0 0 0 0];


internalField   nonuniform List<vector> 
3019
(
(99.99896774 0.002496804453 -3.901522941e-21)
(99.99858241 0.008508262328 8.104267925e-26)
(99.99756282 0.01824674386 -3.896361776e-21)
(99.99586802 0.03415808483 -3.874652321e-21)
(99.99973185 0.02715032879 3.742644982e-21)
(99.99788019 0.04515561209 0)
(99.99672351 0.0733372653 0)
(99.99632744 0.1125312488 -6.630238405e-21)
(99.99520423 0.1651539422 7.764651423e-22)
(99.99433013 0.2307059433 -5.123302373e-21)
(99.99420924 0.3029951147 6.296900773e-22)
(99.99547052 0.3689386365 0)
(99.99082288 0.006453635911 1.562336155e-20)
(99.98656208 0.02240395516 3.904018462e-21)
(99.97709112 0.04884754264 2.728139877e-20)
(99.96096473 0.0924492964 -1.168486473e-20)
(99.96270474 0.1273861478 3.769781827e-21)
(99.93781773 0.2144268603 -4.082314779e-23)
(99.90454485 0.3486028507 0)
(99.88581406 0.4722019508 -6.649801795e-21)
(99.8463609 0.7010723176 -6.190253775e-21)
(99.81204405 0.9936971803 -1.086514496e-20)
(99.79852384 1.327231554 -4.530356435e-21)
(99.82532568 1.644321313 -5.922446446e-21)
(99.97596191 0.007635058087 -1.558857224e-20)
(99.9639973 0.02762576256 -3.129347598e-20)
(99.93817651 0.06327708614 -7.022377033e-20)
(99.89518834 0.1240261267 9.344872644e-20)
(99.87221202 0.1967973513 -7.718571876e-21)
(99.79762799 0.3429504731 -7.528369852e-21)
(99.69558228 0.5700421549 -1.307518321e-20)
(99.63470036 0.8224972947 0)
(99.50839596 1.252167131 2.562633276e-20)
(99.39506429 1.819137668 -7.864002049e-20)
(99.35427233 2.496715324 2.917092347e-19)
(99.46242294 3.168391862 0)
(99.96048307 0.004384445164 -7.852530351e-21)
(99.93765193 0.01896947144 5.498558191e-20)
(99.88909446 0.05310430727 -1.573004656e-20)
(99.80946717 0.1159257931 0)
(99.74515972 0.2162007563 0)
(99.59905565 0.4008267817 -6.077900368e-20)
(99.39394012 0.6977389878 -1.216642081e-19)
(99.2235606 1.065045454 2.869766571e-20)
(98.93399207 1.680743937 1.091314161e-19)
(98.65324947 2.552129488 3.047064897e-19)
(98.5148721 3.686665976 -6.171350417e-19)
(98.72994156 4.91842812 0)
(99.95489628 -0.004316442087 0)
(99.91949134 -0.006907584891 0)
(99.84497414 0.01214559184 7.926801513e-21)
(99.72194136 0.06097765633 1.198301546e-20)
(99.6065239 0.1729489146 1.982154134e-20)
(99.36836911 0.3652869641 0)
(99.03246782 0.679646066 0)
(98.69896721 1.128592591 6.041917911e-20)
(98.16051172 1.898469062 -2.307797765e-19)
(97.56187404 3.089336932 1.231194564e-18)
(97.10682042 4.858279465 -7.811352115e-19)
(97.38356319 7.050982579 -6.677866527e-19)
(99.97092491 -0.01879129226 0)
(99.92276067 -0.05098929272 0)
(99.82269083 -0.06242411107 -1.588564126e-20)
(99.65486598 -0.04486621213 3.231715274e-20)
(99.47959229 0.05762192404 0)
(99.14411414 0.2196323224 0)
(98.65877576 0.50304648 2.525889027e-20)
(98.12823495 0.968765066 -1.290534391e-19)
(97.26613317 1.766270005 0)
(96.09489647 3.165891478 -5.127176499e-19)
(94.84068455 5.618003273 0)
(94.58578045 9.545720818 -3.058716105e-20)
(100.0198177 -0.03865229785 3.881900519e-21)
(99.96025463 -0.1117579099 -3.910048197e-21)
(99.83820267 -0.1681982974 7.973541189e-21)
(99.63121974 -0.2001149684 -2.917355726e-20)
(99.39327076 -0.1299524836 6.871057643e-23)
(98.97000218 -0.03589730113 2.489151522e-20)
(98.34805847 0.1629181694 -4.27504505e-20)
(97.62134594 0.5509371411 1.34389064e-19)
(96.39705215 1.213406814 4.154580211e-19)
(94.49159052 2.463217004 1.539098654e-19)
(91.71649244 4.873092005 -1.88897986e-19)
(88.16159243 10.64631598 -1.672362606e-18)
(100.1112037 -0.06281154045 -3.882313769e-21)
(100.0430087 -0.1857464947 3.911458e-21)
(99.90503266 -0.2982607637 -4.961416506e-21)
(99.6700289 -0.393915671 -3.332814631e-21)
(99.37838276 -0.3772260567 1.42011611e-20)
(98.88897052 -0.3813039438 8.44518002e-21)
(98.16849727 -0.320610564 -4.939020488e-21)
(97.30466894 -0.09906672089 0)
(95.80293301 0.2411817543 2.572965949e-19)
(93.37503123 0.8572609414 -2.134798955e-19)
(89.44681196 1.757477774 0)
(82.08837933 3.14727982 0)
(100.2520888 -0.08961949165 -1.872731326e-21)
(100.1790533 -0.26784396 -1.407228934e-21)
(100.0330587 -0.4429156664 -4.819990034e-22)
(99.78417955 -0.6106088809 1.459173867e-21)
(99.45364657 -0.66231954 -2.661814157e-23)
(98.9304742 -0.7819957263 0)
(98.16678756 -0.8859997112 2.026976843e-20)
(97.2455348 -0.8783186435 0)
(95.65469644 -0.9338085139 -3.797319937e-19)
(93.20752551 -1.053206296 1.304572663e-19)
(89.75230946 -1.628711399 2.612653248e-20)
(85.69150826 -3.603429369 1.013763388e-18)
(100.44592 -0.1170960212 3.691382611e-21)
(100.3722647 -0.3519561322 5.483319332e-23)
(100.2269089 -0.5908339201 0)
(99.9794565 -0.8326872996 1.919712827e-22)
(99.62798798 -0.960078804 -1.951845786e-21)
(99.10544345 -1.197660225 2.074888394e-21)
(98.35640197 -1.466637669 5.553427105e-22)
(97.45215735 -1.668029179 2.897852767e-19)
(95.936695 -2.068235087 3.340853819e-19)
(93.74347631 -2.681125744 -2.175184467e-20)
(91.02269161 -3.746259116 -4.190702195e-19)
(88.47618089 -5.336032138 -5.233747952e-19)
(100.6922431 -0.1433252438 -1.81849309e-21)
(100.6219516 -0.4320558818 1.834078733e-21)
(100.4851539 -0.7308905931 1.790444982e-21)
(100.2548767 -1.043239856 -1.671640739e-21)
(99.89824883 -1.245915404 -1.92646283e-21)
(99.40710806 -1.590000289 0)
(98.71863519 -2.005241174 2.201278312e-21)
(97.88342644 -2.385440142 2.576106874e-19)
(96.52149604 -3.042167192 0)
(94.61441491 -3.942748205 2.551421014e-21)
(92.33324656 -5.150235097 7.405808401e-19)
(90.219249 -6.437874194 0)
(100.9868487 -0.1666085467 6.685415408e-21)
(100.9234417 -0.5027216805 0)
(100.8012393 -0.8517489088 -1.786949942e-21)
(100.5989541 -1.232905058 0)
(100.2478179 -1.499701533 0)
(99.81705611 -1.92871216 -5.734528509e-21)
(99.22051036 -2.460698961 -3.937639274e-21)
(98.48698198 -2.98116334 -2.44452524e-19)
(97.31422376 -3.819301948 2.614789311e-19)
(95.6713046 -4.913848047 2.950868587e-19)
(93.64389386 -6.263490235 -8.581844744e-21)
(91.60103753 -7.574261184 2.562027111e-19)
(85.17374469 -3.231741232 1.08106095e-20)
(88.21780637 -5.171456748 0)
(90.03309654 -6.312924791 2.791083756e-19)
(91.42431687 -7.417180441 1.582179221e-22)
(82.33588986 4.567175679 5.55329704e-19)
(90.68945317 -3.308005696 4.161725641e-19)
(88.4972862 -4.889968622 -8.516072276e-19)
(86.18448343 -3.130752154 4.87617243e-19)
(92.01034363 -4.837452675 0)
(90.26468415 -6.116103904 8.401655944e-22)
(88.75125878 -5.068980144 1.256829226e-18)
(89.19645492 -5.790935028 8.973019772e-19)
(88.42901339 -6.637380902 9.306979763e-20)
(87.47676454 -6.177491074 -7.597913563e-19)
(93.30726087 -6.001460727 -9.839328565e-21)
(91.65321279 -7.235018349 -4.360324761e-21)
(90.44906084 -6.249445086 6.624621738e-22)
(90.74395357 -6.82968138 -1.843360833e-19)
(89.79007351 -7.403196058 0)
(89.34933732 -7.015652477 3.513187551e-19)
(91.82973669 -7.388080947 -4.627761517e-21)
(92.26679635 -8.056422282 5.214003628e-19)
(90.76129323 -8.770456883 1.243316636e-19)
(90.30784982 -8.099593583 2.565391814e-19)
(79.35085054 -5.608580629 -2.015523106e-20)
(84.13819522 -6.167014734 1.135805874e-19)
(72.1950807 3.975005045 0)
(78.34245243 -5.179937291 -1.445133093e-20)
(87.34904285 -6.098894325 3.802595049e-19)
(86.43302597 -5.735406036 0)
(87.32564455 -4.61405492 0)
(86.28701148 -5.895137207 -5.139599114e-19)
(87.21882856 -6.21329795 -2.86961426e-19)
(84.53218272 -6.120778761 -5.532213894e-19)
(86.13645928 -5.885856775 -1.040921229e-19)
(89.26407741 -6.969369529 -3.543147523e-19)
(88.55330724 -6.682146834 -3.149119721e-19)
(89.41991798 -5.929263476 3.896185203e-19)
(88.38402626 -6.769740696 4.127598765e-19)
(89.1263483 -7.041229552 2.799079865e-19)
(87.28142202 -6.259852022 -2.860530664e-19)
(88.32188377 -6.744444229 -4.155060733e-19)
(90.27053676 -8.055773495 -2.553772675e-19)
(89.81616503 -7.438485903 0)
(90.91241712 -6.969267226 -7.098646784e-19)
(89.66371542 -7.460720982 0)
(90.04560049 -8.090748101 5.211863428e-19)
(89.16685707 -7.068107427 0)
(89.64210592 -7.42638995 0)
(90.79147382 -8.824220106 2.468151609e-19)
(92.3658019 -8.144436794 0)
(90.41182657 -8.847579353 -2.529988273e-19)
(90.08120809 -8.133862996 -7.891285632e-19)
(90.3941781 -8.796284716 0)
(89.51223195 -0.907820784 -9.146535525e-19)
(85.75118251 -2.722979238 0)
(83.56257009 3.062576889 0)
(82.88905283 -0.5739853162 5.486281541e-21)
(78.95897883 -4.206981867 1.192776761e-18)
(74.19090225 4.005392365 0)
(86.97613529 -4.405329687 0)
(86.27386268 -5.714668623 -1.509406386e-21)
(84.54886909 -5.730059456 4.503629763e-19)
(84.14681161 -5.714873577 -4.686568408e-19)
(79.80774256 -4.669142378 -1.167442336e-18)
(83.43719676 -1.470315488 -5.507226291e-19)
(82.30704194 -8.723433922 -2.424133898e-18)
(58.64514245 5.091546924 0)
(67.63638328 -9.142542928 0)
(79.67270266 15.82056294 0)
(72.3551807 6.087038923 -7.092354276e-19)
(90.57767234 -8.424500578 0)
(91.42520505 -8.194277296 -5.956643639e-19)
(91.70166344 -8.464371767 5.86333014e-19)
(78.61699647 -10.76619974 0)
(81.93410867 -8.974145104 1.980279008e-18)
(81.87233744 -6.170527204 -3.944726227e-19)
(82.07552741 -8.694535594 -1.716785059e-18)
(78.62013775 -9.906638915 0)
(83.83409836 -7.377985529 0)
(82.4197755 -8.48843606 -1.727056417e-18)
(82.54355811 -6.207099399 5.014221289e-19)
(73.9880362 -1.491648367 0)
(68.56170838 -7.574041127 0)
(61.31161987 4.939159471 0)
(77.84057353 -9.932859165 0)
(69.94622159 -8.381241773 0)
(75.0486523 -2.821228071 0)
(69.27775363 -9.933911302 0)
(77.88542898 -10.7570627 0)
(86.75073927 -5.951618515 0)
(85.18223535 -6.249663954 -4.877892461e-22)
(86.80964539 -5.978502614 2.848955918e-19)
(85.38423491 -5.956887066 -3.159496542e-19)
(84.71580681 -6.560268007 4.308970679e-19)
(83.9384429 -7.257582039 0)
(85.1544744 -6.247429974 3.170854289e-22)
(84.78279515 -6.474461075 -1.306182172e-21)
(85.6014554 -5.920794043 0)
(88.77310037 -6.886948831 -5.527663608e-19)
(88.82238694 -6.909096447 2.777622798e-19)
(87.7678174 -6.529780782 -5.687700982e-19)
(87.83930189 -6.568641174 2.72899738e-22)
(89.85536749 -7.745186842 -4.170869971e-19)
(89.88239072 -7.783459994 2.762601797e-19)
(89.42340997 -7.219445974 3.275445104e-19)
(89.4545778 -7.244507434 -5.245205712e-19)
(91.79891344 -8.558212834 -2.927414076e-19)
(90.30298802 -8.399319679 5.572511977e-19)
(90.32468936 -8.442456393 0)
(68.11145381 21.76349767 0)
(58.76101884 7.925334565 0)
(89.58212491 -7.213301578 -4.945509159e-22)
(90.12058135 -6.971611584 3.158516904e-19)
(90.35739806 -7.162223923 -6.245095638e-19)
(89.77663626 -6.743162381 -3.205750893e-19)
(90.03814433 -6.912158877 3.170354222e-19)
(89.54825867 -7.18969293 -1.276271595e-19)
(91.0783956 -7.854513762 -3.037373101e-19)
(91.33733972 -8.106893959 5.957702247e-19)
(90.54938079 -8.379430609 2.645880123e-19)
(88.99027098 -6.842284444 8.893725912e-20)
(89.39234053 -6.527475375 -3.238472428e-19)
(89.68466726 -6.688283398 6.416366113e-19)
(88.57161214 -7.142194992 -3.215408807e-19)
(88.48159659 -7.079014815 0)
(89.00356649 -6.981122584 0)
(90.0584991 -7.755110087 0)
(90.7481399 -7.530820048 0)
(90.99390677 -7.771764587 3.051532097e-19)
(90.43439899 -7.231530079 6.229578397e-19)
(90.66828285 -7.45301549 3.093261539e-19)
(90.02713008 -7.714965712 1.317068243e-19)
(89.73424379 -7.580093027 -1.134895655e-22)
(88.66081121 -7.601908586 -1.272248198e-18)
(88.65587593 -7.451278872 0)
(88.00659675 -8.069164605 0)
(87.97720158 -7.93710351 -1.568935775e-18)
(89.95294201 -7.950275578 -3.220889952e-19)
(89.28572937 -7.131197093 3.47414294e-19)
(88.69688722 -7.234857701 3.254188284e-19)
(88.60624073 -7.166658583 0)
(88.6591652 -7.41974665 9.163424905e-19)
(88.64732454 -7.36066359 5.967226366e-19)
(89.57161733 -7.339967762 5.316354409e-19)
(90.19048963 -8.251792599 5.36514163e-19)
(88.18733433 -8.231956964 1.699575991e-18)
(88.03521708 -8.125827263 0)
(88.18990544 -8.612699249 6.64015418e-21)
(90.39880522 -8.655076549 2.800954101e-23)
(83.03680361 -8.082324663 0)
(83.26371804 -7.931180483 -1.15042164e-18)
(61.06172566 -3.046662505 0)
(62.53649328 -5.091768041 0)
(80.29412376 -9.96161965 0)
(80.75023914 -9.671292174 0)
(80.89499621 -9.279092129 0)
(80.79846202 -7.693421864 0)
(82.09526372 -7.551405407 4.032391513e-19)
(78.60080185 -7.603944775 -2.423396751e-19)
(80.30128869 -7.711699358 0)
(80.42219491 -9.481566976 0)
(83.43195343 -7.797804194 0)
(83.57455816 -7.120753581 3.493101901e-19)
(84.16171547 -6.860729418 -4.140697349e-19)
(82.46295051 -7.479594157 -7.811775466e-19)
(83.34062385 -7.212221592 0)
(83.19975303 -7.928941852 -2.220556114e-19)
(74.94280679 -9.906144918 0)
(75.67393245 -6.96811371 0)
(77.92669305 -7.50514646 -5.168091723e-19)
(73.60728034 -11.12174344 0)
(74.89042357 -11.13934697 0)
(85.40781196 -6.245905597 -5.738448437e-20)
(86.14360465 -6.137289823 3.485156441e-19)
(86.24325404 -6.162088557 -6.303394969e-19)
(85.90309136 -6.129500474 -7.024866687e-19)
(86.08825087 -6.134176947 5.683271209e-22)
(85.3524553 -6.270135505 2.220115371e-19)
(86.41660778 -6.306450609 -3.192528491e-19)
(86.5423123 -6.452875671 9.776035294e-19)
(86.2675769 -6.18617845 4.675455773e-19)
(86.37859546 -6.270508268 9.503017586e-19)
(84.43783395 -6.806775106 2.592928595e-18)
(84.88816647 -6.49911123 -3.331235412e-19)
(85.21486276 -6.335896861 0)
(84.32583083 -6.781427924 3.294227359e-19)
(84.76224875 -6.564186709 3.29509821e-19)
(84.33748676 -6.909231558 -4.34218797e-19)
(84.99150328 -6.355601961 8.685873335e-19)
(85.63039762 -6.178566409 -1.032319417e-18)
(85.84052533 -6.134263285 -6.982348313e-19)
(85.30853337 -6.290768146 3.374180709e-19)
(85.55345632 -6.198781659 3.420909749e-19)
(84.91546265 -6.376085799 -4.35823985e-19)
(87.78867244 -7.020038943 -3.12081072e-19)
(87.9118252 -7.064227249 3.178635459e-19)
(87.61323665 -7.038769199 -2.50101359e-21)
(87.75557651 -7.016793585 -9.210311945e-22)
(88.09367057 -7.086529542 0)
(88.1638158 -7.154349936 0)
(87.96064099 -7.073094069 0)
(88.07211317 -7.077779987 0)
(86.89335277 -6.719256692 6.727849091e-19)
(87.13022531 -6.828882655 3.41498279e-19)
(86.59648277 -6.513524448 -3.277589831e-19)
(86.81467454 -6.676279547 -3.34641603e-19)
(87.50362203 -6.965458192 -2.963051314e-22)
(87.58479201 -7.023784401 1.799142191e-18)
(87.20876039 -6.859717282 -3.45362191e-19)
(87.43734375 -6.941015474 -1.744174702e-19)
(88.78198215 -7.783804538 -4.950887365e-19)
(88.68533369 -7.662996922 -6.383116791e-19)
(89.76249016 -7.623143209 2.777776185e-19)
(87.71969742 -7.63505681 -1.452569746e-18)
(87.84722338 -7.740331955 7.344016477e-19)
(87.72387849 -7.384949502 1.426678816e-18)
(87.68884016 -7.559964751 1.444166652e-18)
(87.82981779 -7.765814877 1.529956e-18)
(89.93668567 -7.902252397 2.596789311e-19)
(88.09745609 -7.893654188 1.725643867e-18)
(88.76601454 -7.819877327 -3.342740033e-19)
(88.58138441 -7.310491458 -5.848296028e-22)
(88.71880795 -7.266892625 1.250821978e-18)
(89.32207136 -7.157232543 -7.405001891e-22)
(88.28383566 -7.278081573 0)
(87.70934357 -7.290531052 -1.297612912e-18)
(88.19696814 -7.181265841 0)
(88.26486053 -7.251904692 0)
(87.74691097 -7.315262402 -2.106328052e-18)
(87.73977645 -7.35705768 -7.088525376e-19)
(87.70224905 -7.291217831 1.018085491e-18)
(87.73872231 -7.306424332 1.04957445e-18)
(89.54487208 -7.314989599 -2.642868191e-19)
(88.63616808 -7.3472984 -2.957921176e-19)
(88.58784111 -7.323709753 -5.710265299e-19)
(88.26673614 -8.308227575 -1.719081427e-19)
(88.22277448 -8.25007709 -1.361664999e-18)
(90.22343401 -8.287309791 -1.083715329e-18)
(90.38330208 -8.5964684 -1.056516832e-19)
(88.1850653 -8.543164864 -3.685769289e-19)
(88.26013531 -8.336097174 3.354581163e-21)
(88.02549746 -6.472100566 0)
(88.46426034 -6.058248903 -6.757788045e-19)
(88.83642117 -6.249856412 0)
(87.94533365 -5.768508887 6.950342812e-19)
(88.33575516 -5.988631455 -2.12795566e-21)
(87.88584336 -6.405171185 0)
(88.95485651 -6.308445554 0)
(89.28853889 -6.473654104 0)
(88.88940253 -6.802706239 3.562532364e-19)
(88.5621268 -6.817472116 -2.757148009e-19)
(88.10257962 -6.98559884 1.317545388e-21)
(87.93660546 -6.968005241 -4.299170117e-19)
(87.88643306 -6.95065652 -8.736053908e-19)
(87.72205548 -6.894531366 -2.418421737e-19)
(88.12291341 -6.683005304 0)
(82.61166549 -8.456099751 -1.44430271e-18)
(79.26200167 -10.56446046 -1.759658029e-18)
(78.32829972 -11.0006207 0)
(81.54673178 -9.191617534 0)
(81.70731351 -8.884753681 4.344520493e-19)
(81.76143431 -8.476266651 -4.072723095e-19)
(82.12864692 -8.315417118 4.131226928e-19)
(83.73429148 -7.520828165 0)
(83.87163759 -7.340676528 0)
(84.0186931 -7.226619685 0)
(82.46670056 -8.146015032 2.037265399e-18)
(82.77000563 -7.97810222 -4.140187146e-19)
(82.72135094 -8.273851466 -4.298918651e-19)
(72.29975641 -5.051205083 0)
(74.86223481 -6.538162063 0)
(73.78530549 -9.763933672 0)
(70.811819 -10.58112447 0)
(70.5333839 -12.65991269 0)
(68.62107425 -11.53637997 0)
(77.72850677 -11.24697991 0)
(76.93405816 -11.56964545 0)
(77.03011365 -10.90174411 0)
(85.2755079 -6.191523244 0)
(85.63584808 -6.200973758 0)
(85.56742813 -6.214662471 2.77532824e-18)
(85.53747837 -6.234472115 -1.169422038e-18)
(85.59010503 -6.237181001 3.92778302e-19)
(85.22490466 -6.259191706 -6.579235358e-19)
(85.61451001 -6.420855887 8.15558389e-19)
(85.62856894 -6.495907665 -4.12249292e-19)
(85.53024676 -6.232858382 0)
(85.53888025 -6.248668861 0)
(84.6210388 -6.652984427 4.333067478e-19)
(84.87645954 -6.600391542 0)
(84.9698395 -6.5274539 -3.701714232e-19)
(84.15868587 -7.12674806 0)
(84.30028139 -7.033693776 0)
(84.06914798 -7.146227626 -4.301446869e-19)
(85.12542638 -6.267795367 0)
(85.44358864 -6.260286784 -1.152813061e-18)
(85.49177417 -6.239760226 1.401682218e-22)
(85.04831664 -6.457528178 1.401670471e-21)
(85.11088753 -6.403928118 3.771114476e-19)
(84.82239646 -6.418926098 4.335064126e-19)
(88.28470391 -7.033170873 -9.027095722e-19)
(88.14786657 -6.99357243 0)
(88.6170421 -6.839402454 0)
(88.96095343 -6.957681471 0)
(88.45133091 -7.066602878 0)
(88.33196626 -7.043660979 0)
(87.34970529 -6.756457051 3.24520635e-19)
(87.11959699 -6.645525157 -3.196695129e-19)
(87.55276008 -6.425278233 -2.843139751e-19)
(86.16658598 -6.912528235 0)
(86.24468062 -6.942653925 -8.140383535e-19)
(85.66415888 -6.595268264 -1.231729633e-18)
(85.73666746 -6.685887974 4.137442083e-19)
(86.4247463 -7.078195646 2.905679754e-18)
(86.32131326 -6.969448631 4.062051182e-19)
(86.39592671 -6.992996349 -1.224520478e-18)
(88.05377046 -6.651444381 -5.665085369e-19)
(87.65241182 -6.87103236 0)
(87.42656454 -6.788246255 -6.518741767e-19)
(88.65189685 -7.542112657 6.300345997e-19)
(89.17745576 -7.561054595 -2.999714842e-19)
(89.19304138 -7.611289537 6.410904486e-22)
(87.98492978 -8.023213335 3.353794352e-19)
(89.08728632 -8.079094363 0)
(89.11252491 -8.118618042 0)
(89.06988717 -7.99001212 0)
(89.06598124 -8.039598867 -2.753321007e-19)
(87.96183757 -7.981250892 1.317387937e-18)
(88.52167336 -8.784011441 -3.1297098e-19)
(88.53048421 -8.810947921 -1.004740434e-21)
(88.1377604 -8.209668284 6.797918553e-19)
(89.21943293 -8.242230895 -2.916196887e-19)
(89.25856814 -8.269886372 0)
(89.14086509 -8.163077258 -2.862902899e-19)
(89.17731444 -8.206837342 5.75854052e-19)
(88.0812077 -8.176414448 3.383973851e-19)
(88.65360314 -8.745021494 0)
(88.53933748 -8.76283585 -1.490436399e-19)
(89.32125559 -8.689553965 3.246821136e-19)
(88.83136439 -8.716149694 -7.81379183e-18)
(87.80398832 -8.652842128 2.493318689e-17)
(82.83557771 -8.240584059 1.969702355e-18)
(83.39169308 -7.714330877 8.295595757e-18)
(53.23962847 -2.87450754 0)
(55.46741138 -6.00809846 0)
(63.64348955 -12.86071671 0)
(65.91733522 -13.20170058 0)
(58.15573361 -8.632245486 0)
(60.99862234 -11.76271173 0)
(58.9194722 -12.74403499 0)
(79.79700168 -10.27168899 0)
(81.16133907 -9.411858644 0)
(83.50882977 -7.581923489 -3.902111467e-19)
(83.70378935 -7.46393171 1.856666548e-18)
(83.58373283 -7.668310568 0)
(82.97373979 -8.082467661 -1.085224038e-18)
(83.03730643 -7.824635177 0)
(83.2787849 -7.692695994 0)
(73.52732057 -12.69550609 0)
(72.16847679 -12.85341135 0)
(72.23320484 -10.95165618 0)
(68.03619574 -13.29767783 0)
(69.84271591 -13.39662238 0)
(76.03539925 -11.05259297 0)
(75.97013576 -11.96514285 0)
(74.81398576 -12.37665943 0)
(85.7624489 -6.234466293 0)
(85.80223529 -6.221220474 0)
(85.4366881 -6.207943259 6.662933356e-20)
(85.28260192 -6.271421182 -4.397837707e-19)
(85.64990915 -6.241951531 3.962175992e-19)
(85.71330391 -6.242389475 0)
(85.59264856 -6.323743904 8.124591311e-19)
(85.60403525 -6.364723413 0)
(85.56052367 -6.26738793 8.029700558e-19)
(85.57842823 -6.292261399 0)
(84.67886608 -6.750044417 -7.323756663e-19)
(84.77892272 -6.671327969 0)
(84.52579232 -6.727320099 -4.319022949e-19)
(84.2112045 -7.027987895 8.651319495e-19)
(84.44007203 -6.938073745 -7.285182069e-19)
(84.56780379 -6.840805974 7.32050832e-19)
(85.30800651 -6.321992059 -7.600076992e-19)
(85.38173854 -6.29216223 3.829729432e-19)
(85.07058844 -6.312472446 4.347918115e-19)
(84.86044853 -6.389851211 0)
(85.16945364 -6.368444932 0)
(85.23452748 -6.344511381 -3.787309272e-19)
(87.8236458 -7.032473195 -6.271951723e-19)
(87.10982989 -7.032770232 3.711487901e-19)
(87.0879096 -7.018697776 -3.693830174e-19)
(87.1959918 -7.070238315 7.427760587e-19)
(87.14613247 -7.054115781 -3.707124539e-19)
(87.86485725 -7.049190823 -3.151248346e-19)
(87.6637035 -7.036930014 -6.054355992e-19)
(87.00037459 -7.065755245 1.796601775e-18)
(86.95913339 -7.090359046 -3.431347557e-19)
(87.07217453 -7.017554515 -3.676350211e-19)
(87.04594419 -7.03535953 3.651534715e-19)
(87.71537626 -7.024937978 3.054459816e-19)
(88.11358585 -7.103499734 0)
(87.37155194 -7.075330622 0)
(87.36570672 -7.058252301 -3.737676208e-19)
(87.40429976 -7.134997863 1.881340246e-19)
(87.38266831 -7.101881324 0)
(88.13614173 -7.126848289 0)
(88.00579152 -7.076302861 0)
(87.30080096 -7.070859134 -1.112443522e-18)
(87.25088964 -7.074634427 -7.426167405e-19)
(87.3581422 -7.052783964 3.72096061e-19)
(87.33783627 -7.05986803 0)
(88.04347771 -7.07617548 0)
(86.00631386 -6.84083181 -8.159706755e-19)
(86.08679412 -6.879307592 0)
(86.97209092 -6.759016455 6.750409364e-19)
(86.6427219 -6.827177772 0)
(86.56176621 -6.788706118 1.97732444e-21)
(86.80461252 -6.893329123 1.07584989e-18)
(86.72397559 -6.861752616 0)
(87.05122147 -6.795485913 0)
(85.83244742 -6.747781388 4.108299643e-19)
(85.92382604 -6.796289708 0)
(86.58696447 -7.056285554 1.068345339e-19)
(86.63424388 -7.063134709 -1.973823009e-18)
(87.56695716 -6.998083739 -1.670539017e-19)
(87.2385887 -7.055597758 1.288381742e-18)
(87.16908495 -7.02693808 2.799073434e-19)
(86.97011784 -7.099043731 -1.269000552e-18)
(87.01823838 -7.083868607 2.380566284e-18)
(87.57133442 -7.006686624 -1.251483572e-18)
(87.28644108 -6.888152209 -6.92893353e-19)
(86.96262714 -6.949086707 -7.256701282e-19)
(86.88430058 -6.922454642 -3.613798512e-19)
(87.11276536 -6.999989603 3.701629834e-19)
(87.03850783 -6.974875372 3.66936801e-19)
(87.36287149 -6.914972551 0)
(86.46700228 -7.016548447 -2.246408771e-18)
(86.53712874 -7.036850718 -2.06376133e-19)
(88.75708816 -7.75055223 -1.624187228e-19)
(89.27839342 -7.749442149 3.120623594e-19)
(89.30393762 -7.787478231 0)
(89.21688225 -7.662719783 9.20171686e-19)
(89.24749665 -7.709189893 -3.083382835e-19)
(88.72240095 -7.712591346 0)
(87.7728973 -7.684665611 0)
(87.81940565 -7.716476339 0)
(87.7056124 -7.425663584 0)
(87.68855511 -7.481605603 7.249915402e-19)
(87.80281863 -7.777151036 -1.77149807e-18)
(87.40118598 -7.804647138 0)
(88.29132317 -7.857762689 0)
(89.21216245 -7.885872691 -8.457210651e-19)
(89.12410933 -7.92957869 1.083903511e-18)
(89.31062852 -7.824244714 1.565415774e-19)
(89.31310387 -7.873399537 -1.648043204e-18)
(88.75993743 -7.858166088 1.322791913e-18)
(87.92227034 -7.275252397 -8.392830864e-18)
(87.17467333 -7.238797722 2.041553362e-17)
(87.49525435 -7.229133025 9.202007081e-19)
(87.79088393 -7.287220247 2.382279416e-18)
(88.2308357 -7.20493924 0)
(87.47151382 -7.18441761 0)
(87.43704787 -7.163521216 -1.89006219e-19)
(87.49789311 -7.22172948 1.997261026e-19)
(87.5002092 -7.201094536 -1.9125991e-19)
(88.26210041 -7.22675621 0)
(87.75146721 -7.325313135 7.038014373e-19)
(87.74931187 -7.338110842 -1.413869647e-18)
(87.71726416 -7.293508977 -6.916510032e-19)
(87.72941824 -7.298892117 -1.044543478e-18)
(88.26120598 -8.287159618 2.737493081e-18)
(89.33081975 -8.345875077 -1.807247544e-18)
(89.34188617 -8.376674388 3.043508004e-19)
(89.28993851 -8.294260433 -5.903751866e-19)
(89.31354985 -8.318931376 1.491581515e-18)
(88.24628938 -8.26803374 -1.193084056e-18)
(88.21738591 -8.447101122 -1.77296047e-19)
(89.34050831 -8.526318846 -1.589302478e-19)
(89.31310607 -8.606544805 1.627565763e-19)
(89.34651655 -8.41397304 1.231640833e-18)
(89.34395672 -8.462991541 1.40615553e-18)
(88.24060967 -8.382135123 -1.216972306e-18)
(99.71497806 0.7422133062 -1.340161917e-20)
(99.64543639 1.016552341 6.3685387e-21)
(99.87926448 0.6298641409 6.385339222e-21)
(99.61735609 1.122409953 -1.907850611e-20)
(99.55507465 1.484413392 -5.919800674e-21)
(99.85202318 0.9056128505 -3.5240125e-22)
(99.53190563 1.618521022 -2.765429341e-21)
(99.50680306 2.053179841 -8.046405687e-20)
(99.84205093 1.231420232 4.529518987e-21)
(99.50173855 2.203489666 3.036776111e-19)
(99.56049625 2.638979192 8.9241416e-22)
(99.86716593 1.560636297 -1.722534495e-21)
(99.5862902 2.772325612 0)
(99.33908214 1.017923963 -1.424383516e-20)
(99.16086137 1.427724131 -1.39086883e-20)
(99.54231599 1.132186813 0)
(99.09824599 1.589414053 -3.404107489e-21)
(98.91806962 2.16429543 -3.951011382e-19)
(99.4224876 1.664923794 2.37282717e-20)
(98.86740159 2.383753897 1.579303481e-19)
(98.77477984 3.119325036 0)
(99.35616718 2.322914985 -4.743023453e-19)
(98.76883157 3.385820377 -2.090853988e-20)
(98.87349167 4.196500824 4.963851384e-19)
(99.42386569 3.010176853 0)
(98.95466127 4.450762612 -4.991604595e-19)
(98.8379738 1.133275584 4.663581951e-19)
(98.49167781 1.65806015 0)
(99.00985828 1.505100165 1.384942602e-20)
(98.36740252 1.873304492 0)
(97.99404156 2.660487426 -3.333571339e-19)
(98.71502402 2.310293319 -4.03528852e-19)
(97.87176908 2.981889891 -9.673401348e-19)
(97.57709026 4.136027068 7.939012388e-19)
(98.52664041 3.382174121 -4.558169284e-20)
(97.52710539 4.578722206 -3.58819276e-20)
(97.64848985 6.004864598 5.946945014e-19)
(98.63130134 4.622499299 0)
(97.80797618 6.475727169 0)
(98.27008455 1.032226258 0)
(97.70902298 1.593224978 -2.489639818e-19)
(98.30283826 1.671906949 0)
(97.49576354 1.833522615 -4.997471507e-19)
(96.7613561 2.790523631 4.750703445e-19)
(97.71280265 2.74112926 2.285983598e-19)
(96.49364048 3.209678492 2.48352289e-19)
(95.71244645 4.836793926 -3.81280213e-21)
(97.18093309 4.361146929 -8.656463018e-19)
(95.50276443 5.514075751 0)
(95.31608603 7.987876385 4.569955374e-19)
(97.20431651 6.497235472 6.560901913e-19)
(95.50973841 8.917372831 -2.196561002e-19)
(97.73462025 0.6794651109 6.378372929e-20)
(96.93205591 1.172227674 0)
(97.50833663 1.524511866 2.578046419e-19)
(96.59843225 1.395310734 0)
(95.36693251 2.313772042 0)
(96.41274203 2.73641839 5.155952356e-19)
(94.87539391 2.728678308 0)
(93.16057749 4.460921327 0)
(95.12730367 4.876976546 0)
(92.52582745 5.27635179 -3.40251392e-19)
(90.67838162 8.960101696 -8.353224274e-20)
(94.43080628 8.425119505 -2.085075561e-19)
(90.29013047 10.90038889 0)
(97.36055809 0.08088259009 -2.711698892e-19)
(96.34427349 0.377016566 -5.728406645e-19)
(96.75933775 1.005989331 -1.411815644e-19)
(95.91101253 0.5143863167 -2.936893281e-19)
(94.26039591 1.073818772 3.986852859e-20)
(95.04244746 2.07231183 -7.782684725e-20)
(93.57051646 1.319349812 0)
(90.92105497 2.286526699 0)
(92.50010205 4.098212569 1.084764597e-20)
(89.77272941 2.698460686 4.454346115e-19)
(83.78721844 4.224436698 -2.702537607e-20)
(89.07875785 8.598046984 2.392371457e-18)
(85.63952368 8.919618455 0)
(83.18418345 14.01431126 0)
(88.56945234 14.16908907 0)
(97.23484088 -0.6771821584 1.715010844e-20)
(96.11944366 -0.6522920593 0)
(96.25223477 0.1328573652 6.094969165e-19)
(95.64793554 -0.6362599862 -3.017639167e-19)
(93.88442128 -0.5904901922 3.363164805e-19)
(94.09066062 0.6743925775 2.52980898e-19)
(93.16518416 -0.5892106776 4.450994345e-20)
(90.54825286 -0.7435128981 -8.380553701e-19)
(90.63191653 1.511515952 4.047837073e-19)
(89.31749347 0.8058877386 -4.414259713e-19)
(87.97303302 0.8570109532 0)
(88.07235887 1.998179034 4.738489805e-19)
(82.13855754 1.774298361 -1.157563922e-18)
(80.51520414 1.572602071 -1.605727099e-19)
(80.36126997 3.205913602 0)
(97.37760476 -1.474478151 0)
(96.28613957 -1.705981212 -3.296382632e-19)
(96.1256864 -0.9207633707 0)
(95.83373508 -1.797098917 0)
(94.20151645 -2.151592949 1.703568013e-19)
(93.91026375 -1.00397908 -5.102091545e-19)
(93.56767952 -2.310705673 -1.504420042e-19)
(91.44334198 -2.988785378 -8.071352682e-19)
(90.70905978 -1.393772247 8.543372531e-19)
(90.04243387 -2.26141759 8.801316268e-19)
(89.14097392 -2.612473861 0)
(88.74506887 -1.937879074 -4.586612413e-19)
(86.16297281 -3.911219294 0)
(85.81447617 -4.444376168 -1.234321046e-19)
(85.28024415 -4.190134569 -6.33369332e-19)
(97.75723928 -2.215812071 -2.645489412e-19)
(96.75994529 -2.648283772 2.836051598e-19)
(96.37926818 -1.955093878 -3.620744495e-19)
(96.35266527 -2.816413142 7.316804238e-20)
(94.91862374 -3.418206647 -1.60991527e-19)
(94.35281616 -2.496600523 0)
(94.37648267 -3.657478557 1.652124596e-19)
(92.61527231 -4.508435513 3.749277028e-19)
(91.72732197 -3.420298045 0)
(91.35510167 -4.141885925 -3.981145792e-19)
(90.70505507 -4.508688435 1.052672593e-19)
(90.33092256 -4.119586022 3.115596099e-19)