/*--------------------------------*- C++ -*----------------------------------*\
| =========                 |                                                 |
| \\      /  F ield         | OpenFOAM: The Open Source CFD Toolbox           |
|  \\    /   O peration     | Version:  v2012                                 |
|   \\  /    A nd           | Website:  www.openfoam.com                      |
|    \\/     M anipulation  |                                                 |
\*---------------------------------------------------------------------------*/
FoamFile
{
    version     2.0;
    format      ascii;
    class       surfaceScalarField;
    location    "0.43";
    object      meshPhi;
}
// * * * * * * * * * * * * * * * * * * * * * * * * * * * * * * * * * * * * * //

dimensions      [0 3 -1 0 0 0 0];
oriented        oriented;


internalField   nonuniform List<scalar> 
6430
(
0
0
0
0
0
0
0
0
0
0
0
0
0
0
0
0
-6.342753153e-06
0
7.916120645e-06
-2.189221188e-05
-2.454519904e-05
-3.974560879e-05
0.0001142751916
4.231129385e-05
-0.0001833362067
-0.0001099709429
0.0004502707445
0.0001116967235
-0.0005453734291
-0.0001421290378
0.0007957283662
0.0001425436039
-0.0008575749957
-0.0001113383511
0.0009341355398
0.0001110787567
-0.0004684296896
-0.0004654462558
-1.559315433e-05
0.0002343539467
1.552752986e-05
-0.0002342883222
0
0
0
0
0
0
0
0
0
0
0
0
0
0
0
0
-9.346959365e-06
0
7.745725307e-06
-2.739654239e-05
-2.46479696e-05
-4.619150964e-05
0.0001232199577
4.487895631e-05
-0.0001924606784
-0.0001161909941
0.0004495264173
0.0001143709577
-0.0005396264794
-0.0001445784359
0.0007713989419
0.0001433073491
-0.0008251030062
-0.00011034005
0.0008871916264
0.00011034005
-0.0004451633407
-0.0004420282857
-1.554932467e-05
0.0004451633407
3.026870989e-05
-1.471938522e-05
-0.0002228445797
-0.000222318761
0
0
0
0
0
0
0
0
0
0
0
0
0
0
0
0
-4.883485643e-06
0
1.81410798e-06
-1.171642607e-05
-7.213095598e-06
-3.557441386e-05
8.172420073e-05
3.106645189e-05
-0.0001373169705
-0.0001009034368
0.0003572373107
9.396763284e-05
-0.0004382183183
-0.0001331053163
0.0006606710732
0.0001273590527
-0.0007191195273
-0.0001093704171
0.0008250555563
0.000107695831
-0.0008369162048
-3.026870989e-05
0.0008405164812
5.721876555e-05
-0.0008405164812
-2.695005565e-05
0
0
0
0
0
0
0
0
0
0
0
0
0
0
0
0
-4.459640278e-08
0
0
-6.060158724e-08
0
-1.586708282e-05
2.581250916e-05
1.104230929e-05
-5.775927717e-05
-6.764779406e-05
0.0002112523615
5.771720536e-05
-0.0002744527716
-0.000102952841
0.0004672194742
9.273786515e-05
-0.0005254321034
-9.520512043e-05
0.0006615344372
8.847841985e-05
-0.0006921709855
-5.465380124e-05
0.0007438847093
5.176398265e-05
-0.0007502971782
0
0
0
0
0
0
0
0
0
0
0
0
0
0
0
0
0
0
0
0
0
-1.207981083e-06
5.504111352e-08
2.015037095e-07
-4.113281717e-06
-2.832185929e-05
6.980323273e-05
1.974503355e-05
-0.0001059637151
-5.879070377e-05
0.0002348412124
4.737994779e-05
-0.0002791295575
-6.264421767e-05
0.0003966809817
5.302740542e-05
-0.0004275526917
-3.828719607e-05
0.0004879423252
3.286393312e-05
-0.0004967193661
0
0
0
0
0
0
0
0
0
0
0
0
0
0
0
0
0
0
0
0
0
0
0
0
0
-2.372733218e-06
1.701742341e-06
3.756109634e-07
-7.835520455e-06
-1.763777919e-05
5.370054999e-05
1.033695536e-05
-7.456133992e-05
-2.549226948e-05
0.0001389049308
1.776211653e-05
-0.0001578543636
-1.684672479e-05
0.0001975832387
1.223087597e-05
-0.000203698802
0
0
0
0
0
0
0
0
0
0
0
0
0
0
0
0
0
0
0
0
0
0
0
0
0
0
0
0
0
-5.81342724e-08
0
0
-2.58682302e-07
-2.354567095e-06
7.034170776e-06
3.730946706e-07
-1.087324045e-05
-2.451862764e-06
2.11446858e-05
8.118126341e-07
-2.296861033e-05
0
0
0
0
0
0
0
0
0
0
0
0
0
0
0
0
0
0
0
0
0
0
0
0
0
0
0
0
0
0
0
0
0
0
0
0
0
0
0
0
0
0
0
0
0
0
0
0
0
0
0
0
0
0
0
0
0
0
0
0
0
0
0
0
0
0
0
0
0
0
0
0
0
0
0
0
0
0
0
0
0
0
0
0
0
0
0
0
0
0
0
0
0
0
0
0
0
0
0
0
0
0
0
0
0
0
0
0
0
0
0
0
0
0
0
0
0
0
0
0
0
0
0
0
0
0
0
0
0
0
0
0
0
0
0
0
0
0
0
0
0
0
0
0
0
0
0
0
0
0
0
0
0
0
0
0
0
0
0
0
0
0
0
0
0
0
0
0
0
0
0
0
0
0
0
0
0
0
0
0
0
0
0
0
0
0
0
0
0
0
0
0
0
0
0
0
0
0
0
0
0
0
0
0
0
0
0
0
0
0
0
0
0
0
0
0
0
0
0
0
0
0
0
0
0
0
0
0
0
0
0
0
0
0
0
0
0
0
0
0
0
0
0
0
0
0
0
0
0
0
0
0
0
0
0
0
0
0
0
0
0
0
0
0
0
0
0
0
0
0
0
0
0
0
0
0
0
0
0
0
0
0
0
0
0
0
0
0
0
0
0
0
0
0
0
0
0
0
0
0
0
0
0
0
0
0
0
0
0
0
0
0
0
0
0
0
0
0
0
0
0
0
0
0
0
0
0
0
0
0
0
0
0
0
0
0
0
0
0
0
0
0
0
0
0
0
0
0
0
0
0
0
0
0
0
0
0
0
0
0
0
0
0
0
0
0
0
0
0
0
0
0
0
0
0
0
0
0
0
0
0
0
0
0
0
0
0
0
0
0
0
0
0
0
0
0
0
0
0
0
0
0
0
0
0
0
0
0
0
0
0
0
0
0
0
0
0
0
0
0
0
0
0
0
0
0
0
0
0
0
0
0
0
0
0
0
0
0
0
0
0
0
0
0
0
0
0
0
0
0
0
0
0
0
0
0
0
0
0
0
0
0
0
0
0
0
0
0
0
0
0
0
0
0
0
0
0
0
0
0
0
0
0
0
0
0
0
0
0
0
0
0
0
0
0
0
0
0
0
0
0
0
0
0
0
0
0
0
0
0
0
0
0
0
0
0
0
0
0
0
0
0
0
0
0
0
0
0
0
0
0
0
0
0
0
0
0
0
0
0
0
0
0
0
0
0
0
0
0
0
0
0
0
0
0
0
0
0
0
0
0
0
0
0
0
0
0
0
0
0
0
0
0
0
0
0
0
0
0
0
0
0
0
0
0
0
0
0
0
0
0
0
0
0
0
0
0
0
0
0
0
0
0
0
0
0
0
0
0
0
0
0
0
0
0
0
0
0
0
0
0
0
0
0
0
0
0
0
0
0
0
0
0
0
0
0
0
0
0
0
0
0
0
0
0
0
0
0
0
0
0
0
0
0
0
0
0
0
0
0
0
0
0
0
0
0
0
0
0
0
0
0
0
0
0
0
0
0
0
0
0
0
0
0
0
0
0
0
0
0
0
0
0
0.0002353045619
-0.0002353041715
-1.55935448e-05
0.0002237846076
-0.0002237846076
-1.554932467e-05
0.0009459774325
-0.0001112070967
-0.0004745143764
-0.0004715943105
3.369045876e-05
-0.0002362366792
-3.374476786e-05
0.0004715955503
0.0008956608216
-0.0001123435798
-0.0004455636192
-0.0004480936727
3.359000584e-05
-0.0002243090651
-3.359000583e-05
0.0004480936727
-0.0002340737758
0.0004684275874
3.369059388e-05
1.559409646e-05
0.0002294453559
-0.0002294236024
-1.561585003e-05
5.008370433e-06
-0.0001136043201
-5.382608525e-06
0.0001139785582
-5.882465774e-06
-0.0001165065173
0.000116709948
5.679035e-06
0.0004246537386
-0.0004246537386
-3.026870988e-05
-0.0001172705317
-6.015644496e-06
0.0001174037104
5.452882708e-06
-0.0001170064661
-5.716948353e-06
-0.0002256790579
9.097845529e-06
0.0002245987837
-3.918990003e-06
-4.098581327e-06
-0.0001134050759
0.0001136297892
4.783657141e-06
0.0002286231015
1.555290112e-05
-0.0002285819062
-3.782572747e-06
3.676505144e-06
-0.0001132990083
8.890534697e-06
-0.0002257302918
-3.872065496e-06
-4.967235294e-06
5.196091882e-06
-0.0001162497264
-4.035575314e-06
-0.0001133513176
0.0001147545188
3.188978818e-06
-3.976911757e-06
-0.0001154973707
0.0001157285568
3.745725651e-06
-1.20339124e-05
0.000231547279
1.201710643e-05
-0.000231530473
1.201930392e-05
0.000229399735
-1.213104485e-05
-0.0001147311228
-0.0001145568712
-1.214381983e-05
0.0002342355748
1.206778171e-05
-0.0002341595367
0.0002322554552
-0.0002322256688
-1.206369877e-05
-0.000115276469
-4.255792907e-06
0.0001155553501
-4.509982528e-06
-0.0001186990689
0.0001188391221
4.369929325e-06
-1.214014661e-05
0.0002377547656
1.211491172e-05
-0.0002377295307
0.0002352762879
-0.0002352749615
-1.214514627e-05
0.0002382871608
-0.0002383029793
-1.21243281e-05
-0.0001187602621
-4.681140418e-06
0.00011893142
4.214430647e-06
-0.0001185511932
-4.423499592e-06
3.982329085e-06
-0.0001184669673
0.0002285341514
1.192343751e-05
-0.0001143146951
-0.0001141235899
3.172458163e-06
0.0002506941368
-8.626513979e-06
-0.0001175309651
-0.0001277091158
-0.0001287618908
-2.846300155e-08
-2.738793537e-06
0.0001315291473
-2.764085271e-05
2.236156693e-06
-0.0001033571948
3.105232451e-07
-2.386697697e-07
0.0001124760818
-1.644414373e-06
-0.0001138540679
0.0001140717693
1.426712998e-06
3.618697963e-06
-0.0001149498361
-3.94533085e-06
3.045474467e-05
-1.051608516e-05
9.48158593e-05
-0.0001140416397
-1.959229129e-06
0.0001143564544
-0.0001170487149
0.0001471134017
3.900579111e-07
3.231753573e-06
-0.0001151104263
2.388206201e-06
9.538028753e-07
-1.262936111e-06
0.0008465963138
-0.0008518009712
-0.0001101152416
7.050005919e-05
0.0008520385299
-0.0004273847912
-3.691005336e-05
-3.359000583e-05
0.0004451633407
3.359000584e-05
3.026870989e-05
0.0004363737057
-0.0004363737057
-3.026870989e-05
-0.0004363737057
2.030939095e-05
-2.030939093e-05
0.0004363737057
-0.00022368574
0.0002232566069
9.526978603e-06
-0.0001169363236
-5.161790574e-06
0.0001164926531
5.605461064e-06
-5.519818985e-06
0.0001156705613
5.66482128e-06
-0.0001158155635
5.623049816e-06
0.0001144948157
-0.000114396815
-5.721050523e-06
8.904995642e-06
-0.0002237002009
1.698981381e-05
-0.0004363737057
-1.698981381e-05
5.086772145e-06
0.0001191331971
-0.0001189315489
-5.288420293e-06
-4.205635528e-06
0.0001195578652
5.193575341e-06
-0.000120545805
-0.000157452883
0.0001281978595
2.922656057e-05
0.0002165780112
1.224938991e-05
-0.0001212767775
-0.0001043781655
0.000223781297
1.202507027e-05
-0.0002235709761
-1.223539114e-05
0.0001142151546
5.494719224e-06
-0.000114086824
5.19561135e-06
0.0001139377996
-0.0001138808176
-5.25259328e-06
-0.0001131647861
3.939871644e-06
-4.237166129e-06
0.0001134620806
6.243594681e-07
3.330891371e-06
-3.416350538e-06
-0.000113079327
2.927592026e-05
-0.0001120421397
-7.131852198e-06
8.989807166e-05
-0.0002237906347
6.634565144e-06
-6.854973378e-06
0.0002240110429
0.0001089124546
6.762721622e-07
-0.0001850937357
4.546649662e-06
0.0001165208403
-0.0001163045161
-4.762973831e-06
-3.291005924e-05
1.226078836e-05
-9.628705274e-05
-5.112187643e-06
0.0001158322329
5.134744256e-06
-0.0001158547896
0.0001153807252
-0.0001156089459
-5.291598234e-06
-0.000117536719
-4.174676499e-06
0.0001165496049
-0.0001163205003
-4.972240355e-06
0.0001165523524
4.740388167e-06
-5.345694991e-06
0.0001169106303
5.297410494e-06
-0.0001168623458
0.0001158968178
-0.0001158159191
-5.193086336e-06
0.0001188318775
4.882296792e-06
-0.0001186274021
0.0001194301739
-0.000119904494
-3.731315413e-06
-0.0001132709389
0.0001136693082
3.541502376e-06
0.0001138652872
5.197964574e-06
-0.0001138676404
6.577349797e-06
0.0001275052655
-0.000128302078
-5.780537272e-06
-0.0001072479236
2.280090933e-05
-9.445212361e-06
9.389222667e-05
-0.0001133727901
0.0001418521183
7.965920778e-07
2.66823572e-06
-0.0001126082833
-7.178743066e-06
2.909949019e-05
-0.0001136638105
9.174306336e-05
2.764517742e-06
-0.0001129094306
-1.897226886e-06
4.675694885e-07
-0.0001133215601
-6.067551899e-07
0.0001134607458
4.355328112e-06
-0.0001161291787
-1.528265117e-05
0.0001621449372
-2.101138194e-06
-0.0001153657643
0.0001153688872
2.098015312e-06
-0.0001127064527
1.320715413e-05
9.232055548e-05
-0.0001157208567
-2.644230703e-06
0.0001162639492
-0.0001477271063
-2.719671905e-06
-5.580068352e-06
0.0001170115331
5.512719503e-06
-0.0001169441843
0.0001171278357
-0.0001170885775
-5.384953194e-06
-5.227815096e-06
0.000116776415
-4.844591298e-06
0.0001189239581
5.478498369e-06
-5.39991385e-06
0.0001182940227
5.47071633e-06
-0.0001183648252
0.0001174406475
-0.0001174703435
-5.550372409e-06
-5.342984759e-06
4.24246969e-06
-0.000115905951
0.0001181356724
-1.257374177e-05
-0.0001109049153
-5.755524863e-06
0.0001181742489
3.475672904e-06
0.0001131590097
-0.0001129581775
-0.0001160662096
5.009370669e-06
0.0001162529308
-3.87128446e-06
3.727818916e-06
-0.000115922744
-0.0001158785412
-5.273642825e-06
0.0001142927473
-0.0001130546798
-5.274509276e-06
0.000118949033
5.270750722e-06
-0.0001189452744
0.0001184463518
-0.0001185396354
-5.306630167e-06
-4.404407633e-06
0.0001189899902
-5.224631378e-06
0.000119005124
5.051384807e-06
-5.404439674e-06
0.0001192142732
5.370560627e-06
-0.0001191803942
0.0001191302674
-0.0001190995786
-5.305198131e-06
-4.149616809e-06
3.929011694e-06
-0.0001183305881
0.0001186124864
-0.0001184192835
-4.342819695e-06
0.000118842421
-4.653434185e-06
-0.0001185243886
3.777553312e-06
0.0001187291643
-3.66949749e-06
3.307967895e-06
-0.000118162859
-0.0001182074531
0.0001191143853
-0.0001185487905
-3.304388284e-06
4.992934797e-06
-4.382482213e-06
0.0001185039327
6.817954777e-06
0.0001297041273
-0.0001150540362
-1.160454711e-05
0.0001266585833
-2.025109449e-06
-0.0001142875244
0.0001127922968
5.075032999e-07
2.517505239e-06
-0.0001131257776
4.372788799e-06
-0.0001077926235
-3.828088944e-06
-3.473866927e-06
3.175329401e-06
-0.0001146512986
0.00011529939
-3.601472114e-06
-0.0001151717848
-4.163588216e-06
0.0001155176474
3.541379413e-07
9.999317795e-05
-1.319094963e-05
0.0001603043513
-0.0001141600478
7.389924966e-06
9.357917323e-05
2.177326965e-06
-0.0001159473169
-0.0001155367907
2.818025977e-06
0.0001159505182
-2.888288286e-06
1.122628437e-06
-0.0001137711308
-0.0001148233852
2.09762808e-06
-2.572178355e-06
3.876114694e-06
0.0001192475733
-0.0001192040013
3.75298224e-06
0.0001187676035
-0.0001186444711
0.0001515059849
1.044200201e-05
-0.0001619479869
-0.000119625389
0.0001190634395
-3.379827004e-05
-9.84008607e-05
-2.838090184e-06
0.0001227973329
6.586082845e-06
-0.0001228060659
4.58864737e-06
0.000112379578
-0.0001125634612
-4.404764145e-06
-0.0001170748683
1.082437292e-06
1.850422744e-06
0.0001141420083
0.0001135093493
-0.0001132129364
-4.533579032e-06
4.732654273e-06
-5.014254293e-06
0.0001137909493
4.45879731e-06
0.0001137359376
-0.000113153614
1.332335768e-05
-0.0001115964483
9.114123843e-05
-0.0001444629826
0.0001577863403
8.886288209e-07
-0.0001248979957
6.934498575e-06
7.185294191e-06
-0.0001148789108
-9.172959932e-06
0.0001168665765
-9.827937866e-05
0.0001192638788
1.816409209e-06
-3.655770268e-06
3.636837583e-06
-0.0001162855834
0.0001161974187
-0.0001161253701
0.0001164438156
0.0001155132157
-0.0001085260702
3.476365137e-06
-3.516960645e-06
-0.000118378688
3.410827508e-06
-0.0001182650505
3.624821332e-06
0.0001184604018
-0.0001183322409
0.0001183806786
-0.0001182728179
-2.893905153e-06
-0.000119848679
0.0001189228912
-0.0001185088284
0.0001189691291
1.095344227e-06
-3.024945605e-06
-0.0001165792271
-0.0001083113328
3.286738196e-06
-0.0001180833638
-0.0001179010664
4.295611627e-06
0.0001138324939
-0.0001150975599
0.0001150106893
-0.0001148604458
0.0001045341295
-2.276126401e-06
-0.0001117032155
2.58218234e-05
-6.332002379e-06
8.504430847e-05
4.660013908e-06
-1.306957369e-05
0.000154921692
-0.0001084009659
8.899938981e-05
-0.0001098805002
-0.0001142173195
-0.0001149961352
-3.673571925e-07
-1.964998694e-06
-0.0001146457025
1.614565935e-06
-1.636342713e-06
-0.0001139924665
-0.000115757045
0.0001159487849
-3.619663539e-06
-0.0001157388535
-0.0001161120047
9.712673397e-05
-7.087781009e-06
2.934661871e-05
-0.0001139110144
9.165217673e-05
1.333563199e-05
-0.0001134606665
9.303725354e-05
1.010609032e-07
-0.0001144438563
0.000144649062
-0.0001152013824
0.0001578562161
-0.0001460603901
0.0001593960221
0.0001147840215
-0.0001152509252
2.965812676e-05
9.251581968e-05
-1.383141382e-07
1.044573156e-05
-0.0001581728379
0.00011666666
-0.0001050983
0.0001167650141
0.0001113395586
-0.0001806112558
-3.966433941e-05
-0.0004505515537
9.303614346e-05
-9.320317908e-05
0.0003519167402
-0.0005473258746
-0.0001092552075
-0.0008033486177
0.000139979626
-0.0001393425791
0.0007274942815
-0.0008653153281
-0.0001415931444
0.0001238935821
-0.0001237729406
0.0009380488056
0.0001261768978
-0.0001969082153
-4.532791507e-05
-0.0004587126428
0.0001005625669
-9.985086829e-05
0.0003667767491
0.0003527734146
9.591186419e-05
-0.0005501577385
-0.0001156518785
-0.0007840589716
0.0001435498962
-0.0001436956879
0.0007163493796
0.0007217747933
0.0001405620147
-0.000837581822
-0.000144951565
0.0001233000798
-0.0001244593245
0.0008937680475
0.0009273993945
0.0001240260885
0.0001085803672
0.000925113724
-0.0004625019041
-0.0004601134304
4.731849074e-05
-0.0004600152992
-4.731368013e-05
0.0004600104886
-4.729799386e-05
-0.0004684160112
0.0004684103555
4.730364955e-05
1.559287694e-05
0.000232324451
-0.0002323042886
-1.561303937e-05
1.292276679e-05
-1.294759806e-05
0.0002322802865
-1.298525991e-05
0.0002342403458
1.298048892e-05
9.498058298e-05
-0.0001550345455
-3.9472194e-05
-0.0003869621442
8.569986707e-05
-9.127568101e-05
0.0003041225887
0.0003591210989
9.877809724e-05
-0.0004708679994
-0.0001066729604
-0.0006963998576
0.0001302995667
-0.0001354392383
0.000628609587
0.0007039888525
0.0001420364094
-0.0007534731099
-0.0001376395411
0.0001198140167
-0.0001216061551
0.0008291590922
0.0008834339874
0.0001230890924
-0.0008756777434
0.0001103363536
0.0008756606516
9.705788714e-05
-0.0004363737057
-5.018783608e-05
-4.687005107e-05
-0.0004393040377
-4.687005106e-05
-0.0004451633407
0.0004451633407
4.687005106e-05
3.026870989e-05
0.0004420282857
-0.0002213800942
-0.0002206481915
1.30594339e-05
-0.0002206481915
-1.30594339e-05
0.0002206481915
-1.306053744e-05
-0.0002228434761
0.0002228445797
1.30594339e-05
3.875126706e-05
-7.732123048e-05
-2.09849626e-05
-0.0002499466315
5.434091573e-05
-6.316562373e-05
0.0001851898048
0.0002779850941
7.904935108e-05
-0.0003185371078
-7.715414033e-05
-0.0005218570203
9.782907663e-05
-0.0001075804521
0.0004568908401
0.0005927984171
0.0001239158344
-0.0005813109627
-0.0001122191306
-0.0007142185986
0.0001010972438
-0.0001076813446
0.0006781934091
0.0008018439655
0.0001169951116
-0.0007419787087
-0.0001006817296
-0.0007842381327
6.652587375e-05
-6.904124444e-05
0.0007757999784
0.0008405164812
7.050005917e-05
-0.0007887106942
-5.649062422e-05
1.628484312e-06
-1.220143697e-05
-3.419287924e-06
-0.0001008445217
1.943921754e-05
-2.748562426e-05
6.318129832e-05
0.0001525243381
4.525564757e-05
-0.0001443998225
-3.773648023e-05
-0.0002920708492
5.301118677e-05
-6.453751387e-05
0.0002418377775
0.0004046903837
8.724094062e-05
-0.0003410667959
-7.037340997e-05
-0.0004675285026
6.46800309e-05
-7.485029133e-05
0.0004298408085
0.0006233945647
9.33104998e-05
-0.0004998260176
-7.195534338e-05
-0.0005616755525
4.631890098e-05
-5.252037965e-05
0.0005469855727
0.0007326012146
6.283282677e-05
-0.0005704937918
-4.339105408e-05
0
0
0
-8.764790722e-06
5.165779163e-07
-2.636965719e-06
1.691069705e-06
3.980375456e-05
1.239890624e-05
-2.216240698e-05
-6.452022003e-06
-8.901879592e-05
1.368415463e-05
-2.180845471e-05
6.350372822e-05
0.0001901596682
4.181542618e-05
-0.000116112399
-2.645942472e-05
-0.0001954757668
2.507589172e-05
-3.416262888e-05
0.0001703774753
0.0003611295226
5.429041523e-05
-0.0002180567904
-3.413945821e-05
-0.0002645332505
2.032846006e-05
-2.651409113e-05
0.0002530571719
0.0004734245593
3.974874308e-05
-0.0002715843712
-2.194024957e-05
0
0
0
0
0
0
0
0
0
0
0
-1.563562211e-06
0
-4.02803433e-07
1.03725374e-07
3.488855534e-05
7.236723875e-06
-4.700455698e-06
-1.354250197e-06
-2.395684107e-05
1.723133666e-06
-5.168052546e-06
1.657216906e-05
0.0001181423865
1.704647839e-05
-3.141725321e-05
-6.003358386e-06
-4.890376181e-05
2.826114357e-06
-5.838428167e-06
4.433217514e-05
0.0001876843573
1.4712459e-05
-5.180228901e-05
-4.941526259e-06
0
0
0
0
0
0
0
0
0
0
0
0
0
0
0
0
0
0
0
0
0
0
0
3.788301594e-06
1.312906339e-07
0
0
0
0
0
0
1.832970267e-05
8.757095997e-07
0
0
0
0
0
0
0
0
0
0
0
0
0
0
0
0
0
0
0
0
0
0
0
0
0
0
0
0
0
0
0
0
0
0
0
0
0
0
0
0
0
0
0
0
0
0
0
0
0
0
0
0
0
0
0
0
0
0
0
0
0
0
0
0
0
0
0
0
0
0
0
0
0
0
0
0
0
0
0
0
0
0
0
0
0
0
0
0
0
0
0
0
0
0
0
0
0
0
0
0
0
0
0
0
0
0
0
0
0
0
0
0
0
0
0
0
0
0
0
0
0
0
0
0
0
0
0
0
0
0
0
0
0
0
0
0
0
0
0
0
0
0
0
0
0
0
0
0
0
0
0
0
0
0
0
0
0
0
0
0
0
0
0
0
0
0
0
0
0
0
0
0
0
0
0
0
0
0
0
0
0
0
0
0
0
0
0
0
0
0
0
0
0
0
0
0
0
0
0
0
0
0
0
0
0
0
0
0
0
0
0
0
0
0
0
0
0
0
0
0
0
0
0
0
0
0
0
0
0
0
0
0
0
0
0
0
0
0
0
0
0
0
0
0
0
0
0
0
0
0
0
0
0
0
0
0
0
0
0
0
0
0
0
0
0
0
0
0
0
0
0
0
0
0
0
0
0
0
0
0
0
0
0
0
0
0
0
0
0
0
0
0
0
0
0
0
0
0
0
0
0
0
0
0
0
0
0
0
0
0
0
0
0
0
0
0
0
0
0
0
0
0
0
0
0
0
0
0
0
0
0
0
0
0
0
0
0
0
0
0
0
0
0
0
0
0
0
0
0
0
0
0
0
0
0
0
0
0
0
0
0
0
0
0
0
0
0
0
0
0
0
0
0
0
0
0
0
0
0
0
0
0
0
0
0
0
0
0
0
0
0
0
0
0
0
0
0
0
0
0
0
0
0
0
0
0
0
0
0
0
0
0
0
0
0
0
0
0
0
0
0
0
0
0
0
0
0
0
0
0
0
0
0
0
0
0
0
0
0
0
0
0
0
0
0
0
0
0
0
0
0
0
0
0
0
0
0
0
0
0
0
0
0
0
0
0
0
0
0
0
0
0
0
0
0
0
0
0
0
0
0
0
0
0
0
0
0
0
0
0
0
0
0
0
0
0
0
0
0
0
0
0
0
0
0
0
0
0
0
0
0
0
0
0
0
0
0
0
0
0
0
0
0
0
0
0
0
0
0
0
0
0
0
0
0
0
0
0
0
0
0
0
0
0
0
0
0
0
0
0
0
0
0
0
0
0
0
0
0
0
0
0
0
0
0
0
0
0
0
0
0
0
0
0
0
0
0
0
0
0
0
0
0
0
0
0
0
0
0
0
0
0
0
-1.300978149e-05
0.0002353008095
-1.29929334e-05
0.0002377362771
1.301142189e-05
-1.557518506e-05
0.0002377201434
1.559697589e-05
-0.0002377419343
-1.306267206e-05
0.0002237834316
-1.266721219e-05
0.0002161771063
1.306811712e-05
-1.483890519e-05
0.0002163385608
1.554932467e-05
-0.0002170489803
5.800158178e-06
-5.804830336e-06
-0.0004716220004
-4.727582192e-05
0.0004715998284
-0.0004802666399
0.0004802652885
4.728906378e-05
0.0009575368457
-0.0004802650871
-0.0004772817598
-0.0002396089614
0.0004802640342
3.378617761e-05
4.389750974e-05
-0.0004802691201
4.392763788e-05
-0.0004716234786
-4.392615961e-05
-0.0004480936727
-4.687005107e-05
0.0004480936727
-0.000459921461
0.0004599408038
4.729914797e-05
0.0009331018639
-0.0004606736909
-0.0004761913856
-3.365901083e-05
-0.0002284280683
0.0004600371816
3.067299906e-05
-4.394462451e-05
4.403290431e-05
-0.0004600097408
4.355000354e-05
-0.0004480936727
-4.355000354e-05
4.393212934e-05
-0.0004684205026
-0.000460019519
-4.394040475e-05
-0.0002304612792
-3.380301288e-05
0.0004600506371
1.292135306e-05
-1.294613364e-05
0.0002294245156
0.0002315468947
1.292315109e-05
0.0002315473676
1.559312826e-05
-0.0002315476189
0.0001144996941
-5.589555273e-06
5.789044248e-06
-5.908441292e-06
0.0001146190911
5.534145688e-06
0.0001142334568
5.702948731e-06
-5.841082095e-06
0.0001168480814
-0.0001164675302
0.0001166187499
5.551728976e-06
5.46443561e-06
-0.0004246537386
2.030939094e-05
-2.030939093e-05
0.0004246537386
-0.0004334433736
0.0004334433736
2.030939094e-05
0.0004334433736
3.026870989e-05
-0.0004334433736
1.698981381e-05
-0.0004334433736
1.698981381e-05
-0.0004246537386
-1.69898138e-05
0.0002230545404
5.590920081e-06
0.0002206482439
-5.589978447e-06
0.00011807586
-5.917255647e-06
5.902518342e-06
-5.798878483e-06
0.0001179722202
0.0001174651467
0.0001195024527
-0.0001194735408
-5.433351632e-06
-5.371619739e-06
0.0001192801854
0.0002383228161
-0.0002383196986
-1.557830264e-05
-1.301981209e-05
0.0002383140395
-0.0001164050321
0.0001146773043
2.810165075e-06
0.0001124290151
4.775528474e-06
-0.0001126158963
0.0002239809531
1.015340275e-05
-4.980830304e-06
-4.554741858e-06
5.275580352e-06
0.0001138883545
-0.0001134090879
0.0001136704139
0.000249767747
-0.0002499674973
-1.463915492e-05
-1.280117431e-05
0.0002508280989
0.0002285583699
1.289713448e-05
-0.0002246577863
8.713784465e-06
-4.773761772e-06
-5.012528228e-06
-0.0001137986667
0.0001157497029
5.234258035e-06
3.385443669e-06
-0.0001189018469
4.317233621e-06
-4.41460585e-06
0.0001158259291
-0.0001160255564
0.0001159313025
4.411487556e-06
3.670687473e-06
-0.000230686054
1.193657375e-05
0.0002307665867
-1.108800424e-05
5.580823918e-06
-0.0001154782161
5.680067674e-06
-1.104701754e-05
-0.0001157392268
5.64657231e-06
-5.683551451e-06
0.0001145317948
0.0001155755656
5.675819577e-06
0.0002305485519
-0.0001155329704
-0.0001152100526
-0.0002341162916
1.207608477e-05
0.0002341079885
-1.110895549e-05
1.118612559e-05
-0.0001170656259
-1.145734759e-05
-0.0001167996114
-1.124091057e-05
-0.000116134958
0.0002334055994
-0.0001165497541
0.0002334179854
0.0001157721514
-4.510296922e-06
4.579674425e-06
-4.753219942e-06
0.0001159456969
0.0001157204187
4.730114625e-06
-4.779276259e-06
0.0001188882837
-0.0001187983345
0.0001188223641
4.706085097e-06
4.300759133e-06
-0.0002370292787
1.211107686e-05
0.0002370331135
-1.123633442e-05
1.127603478e-05
-0.0001186226273
-1.12199463e-05
-0.0001187968859
-1.139128915e-05
-0.0001179003724
0.0002362534101
-0.0001180746417
0.0002362193407
-0.0002394980204
1.217841541e-05
0.0002395490763
1.138113945e-05
-0.0001199147876
-1.119002691e-05
-0.0001192026313
0.0002386102179
-0.0001192048321
0.0002386643052
0.000119038754
-4.877473472e-06
4.905208299e-06
-4.991357412e-06
0.0001191249031
0.0001190573521
1.176523109e-05
0.0002283193824
-0.0001141774116
-0.0001139837643
5.408220517e-06
-5.447063814e-06
0.0001139766429
0.0001143024809
5.559245987e-06
6.12112085e-06
-5.751942734e-06
0.0001271360874
0.0001138537994
5.419708235e-06
0.00023156749
-0.0001138575836
-0.0001145711893
0.0001106291773
-4.25160943e-07
1.280411174e-06
-1.450025238e-06
0.0001107987913
0.0001081909619
5.565531107e-06
2.083605976e-06
-2.00430316e-06
-0.0001142279426
1.665846134e-06
9.711335823e-07
-0.0001137723632
0.0001148348469
-2.300620066e-06
-0.000114493456
2.091704995e-06
-2.458240457e-06
2.462198711e-06
1.694032098e-06
-9.705788711e-05
-0.0008520385299
9.701128734e-05
0.0008639564153
-0.0008639564153
0.0008629118756
-3.359000583e-05
0.0004334433736
3.359000583e-05
8.377827651e-05
-4.355000355e-05
-0.0004334433736
-0.0004305130416
-4.022827298e-05
8.377827648e-05
4.355000354e-05
-0.0004451633407
-0.0004363737057
-4.355000353e-05
-3.359000585e-05
0.0004363737057
-2.695005565e-05
-0.0004363737057
2.695005567e-05
0.0004393040377
-0.0004393040377
-1.389062176e-05
0.0004393040377
0.0004393040377
-9.73976644e-06
-0.0004393041191
-1.056954312e-05
2.363000812e-05
-1.222949445e-05
-1.140051368e-05
2.363000813e-05
1.223052556e-05
-0.0002230489314
-0.0002206481915
-1.222949445e-05
-0.0002206485984
-9.739359538e-06
0.0002206481915
5.817173961e-06
0.0001161083704
-5.432891264e-06
-0.0001155291215
0.0001154378542
-0.0001153611429
5.753089724e-06
0.0001152728744
-5.784845059e-06
5.861556352e-06
-5.492038174e-06
-5.814209804e-06
5.650851619e-06
0.0001146664377
0.0001146984769
8.909798023e-06
-0.0002206487846
-8.909611829e-06
6.419968601e-06
-6.420154793e-06
0.0002206484301
0.0002232667487
6.422356851e-06
-1.366985321e-05
1.366985321e-05
0.0004393041715
-7.249965995e-06
-8.079963389e-06
-4.865622088e-06
4.701676712e-06
0.0001194187553
0.0001195972984
1.137058426e-05
0.00012364523
-8.71296344e-05
9.755385297e-05
9.463656942e-07
-4.166175399e-05
-1.624131985e-05
-0.000224827007
1.203763609e-05
0.0002250387608
1.081253281e-05
-0.0001121732837
-5.842216759e-06
-5.244461358e-06
0.0001226053936
6.313060122e-06
-1.099120558e-05
1.140118257e-05
0.0002245024062
-0.0001122520638
0.0002243046511
-0.0001138940957
5.383218024e-06
0.0001140055969
-5.452382166e-06
5.228700421e-06
-5.02924262e-06
4.884362573e-06
0.0001139904071
0.0001141210319
-9.288465003e-08
0.0002249697083
-7.29784677e-06
-0.0002245268349
8.11699714e-06
-5.691827283e-06
0.0001135910459
-4.845174253e-06
7.470253802e-06
4.375454899e-06
-9.828204476e-05
-0.0001135391139
-7.031624153e-06
-3.606028657e-07
-3.345289765e-05
-0.0001808640146
0.0001130998855
9.427978286e-05
-1.564322718e-05
6.720193983e-05
-8.131181608e-05
2.975310343e-05
-9.264023789e-05
6.53924636e-05
-0.0001158066036
5.20212105e-06
-4.754752275e-06
4.879451153e-06
-4.783612761e-06
-5.146695899e-06
-0.0001159542882
0.0001155676933
-0.0001158349381
0.000116261025
4.837574545e-06
4.950940631e-06
0.0001167520489
-5.150637081e-06
-0.0001161788761
0.0001163765968
-0.0001165074948
5.255151218e-06
-5.137207393e-06
5.006309376e-06
-5.247504251e-06
-4.879113114e-06
0.0001160728931
-0.0001185725353
0.0001188013979
-4.534676411e-06
-0.0001147931629
5.373224002e-06
0.0001146179034
-4.849216046e-06
5.066742459e-06
-5.683056945e-06
7.08510628e-06
0.0001178876182
0.0001174803049
-1.916349738e-06
-0.0001133978317
2.40475089e-06
0.0001138610324
-0.0001141628162
0.0001139414537
-0.0001135770753
1.444483681e-06
1.507397775e-06
1.769906534e-06
-0.0001145993484
-0.0001148019531
-0.000116745109
5.458217026e-06
-5.596859925e-06
5.470500899e-06
-5.69296279e-06
-5.35886565e-06
-0.0001169772161
0.0001169923621
-0.0001168807269
0.0001166804361
5.351438189e-06
5.496561297e-06
0.0001185689102
-5.141513326e-06
-0.0001186246822
0.000118322365
-0.0001181525799
5.548654442e-06
-5.458244655e-06
5.628029789e-06
-5.254159646e-06
-5.698159582e-06
0.0001179020904
-0.000118797668
5.271532832e-06
-5.00678103e-06
5.03147711e-06
-5.063771744e-06
-5.106353821e-06
-0.0001186874413
0.0001186577246
-0.0001187326013
0.0001188654806
4.838964369e-06
5.122895249e-06
0.0001191119914
-5.2297626e-06
-0.0001189753092
0.0001191068471
-0.0001191509645
5.316693024e-06
-5.21634891e-06
5.172231505e-06
-5.284751698e-06
-5.105998237e-06
0.0001191911364
1.351477181e-06
0.0001129482174
-0.0001125473839
0.0001124488359
-0.0001101918282
2.82883328e-06
-2.227190661e-06
4.484198276e-06
-2.580518514e-06
2.978856894e-06
0.0001127024711
-0.0001015984808
5.08690731e-06
0.0001030976563
-7.924270333e-06
3.879642494e-06
-2.964494517e-06
-0.0001129339493
3.334982584e-06
0.0001114911405
-0.0001105759926
0.0001104574405
-0.0001502687717
8.278136241e-07
2.035872649e-06
-1.117313502e-05
-0.000120302965
6.578104262e-06
0.00017704935
-0.0001210205452
0.0001167015934
-3.646125725e-05
-8.941329608e-05
1.121252183e-05
-1.553147361e-05
7.776133377e-06
3.128365479e-05
-6.555963489e-05
-0.0001002044829
0
0
0
0
0
0
-1.733864924e-05
-2.000531114e-05
2.417935404e-05
-2.393326008e-05
5.703978498e-05
0
0
0
0
0
0
0
0
-2.708083195e-05
-2.802908668e-05
2.941452196e-05
-2.860553519e-05
6.90683355e-05
5.96859172e-05
2.619852709e-05
-0.0001901219893
4.396989976e-05
0.0001198570828
-6.011828835e-05
6.20652114e-05
-0.0002716984533
-5.709664791e-05
-0.0002639611157
-0.0005485666891
0.0004547450414
0.0001140645393
-0.000124834371
0.0001271613234
-0.0006386941397
-0.000123471842
-0.0006371420103
-0.000853423845
0.0007933584437
0.0001440914138
-0.0001405839294
0.0001413927343
-0.0008955771651
-0.0001400374693
-0.0009016025477
-0.0002341173473
1.557110136e-05
-1.471257201e-05
1.471124674e-05
-0.000234116022
-1.473602105e-05
-0.0002342648732
0
0
0
0
0
0
0
0
-2.087828653e-05
-1.642619999e-05
2.105023654e-05
-2.407934042e-05
4.811020922e-05
6.741379339e-05
2.836213222e-05
-0.000183180111
4.261236333e-05
0.0001162463125
-6.293629188e-05
6.029066668e-05
-0.0002606248328
-6.446185885e-05
-0.0002722139187
-0.0005221623532
0.0004337364531
0.0001111844137
-0.0001272020779
0.0001240598097
-0.0006069379622
-0.0001289901137
-0.0006256449881
-0.0008063643212
0.0007519418808
0.000141016979
-0.000140383702
0.0001386074365
-0.0008458053363
-0.0001413455959
-0.0008629340934
0
0
0
0
0
0
0
0
-3.448858405e-06
-9.690505481e-07
6.890073121e-06
-1.031398642e-05
1.287864908e-05
3.924432946e-05
1.761881152e-05
-0.0001179147306
2.613281756e-05
6.744669843e-05
-4.655616023e-05
4.052196689e-05
-0.0001792306682
-5.197537253e-05
-0.0002036606614
-0.0004013169089
0.0003238554707
8.599712969e-05
-0.0001068356905
9.872844547e-05
-0.0004782170521
-0.0001138229392
-0.0005177449139
-0.0006786653398
0.0006192336372
0.0001203867552
-0.0001272368487
0.0001211001998
-0.0007284304004
-0.0001321500711