/*--------------------------------*- C++ -*----------------------------------*\
| =========                 |                                                 |
| \\      /  F ield         | OpenFOAM: The Open Source CFD Toolbox           |
|  \\    /   O peration     | Version:  v2012                                 |
|   \\  /    A nd           | Website:  www.openfoam.com                      |
|    \\/     M anipulation  |                                                 |
\*---------------------------------------------------------------------------*/
FoamFile
{
    version     2.0;
    format      ascii;
    class       surfaceScalarField;
    location    "0.43";
    object      phi;
}
// * * * * * * * * * * * * * * * * * * * * * * * * * * * * * * * * * * * * * //

dimensions      [0 3 -1 0 0 0 0];
oriented        oriented;


internalField   nonuniform List<scalar> 
6430
(
-0.006685225119
0.9289807394
-0.01353841223
0.9285987476
-0.02047449108
0.9277093804
-0.006216363407
0.9263247558
-0.02159482712
-0.4586016524
0.4595055998
-0.007120310829
-0.4568967284
0.008105919095
0.4580065671
-0.009215757737
-0.4576359455
0.01030676091
0.4589540447
-0.005791711692
-0.005788284298
-0.2319847507
0.006610642768
0.2324143955
-0.006973792189
-0.2319326483
0.007377903987
0.2321803671
-0.007532245849
-0.2261976414
0.008177542444
0.2268630189
-0.008781487851
-0.2173936933
0.01044475537
0.2181953999
-0.005583473752
-0.005662988253
-0.05289742492
0.003399726111
0.05294074794
-0.003443049125
-0.003134562613
0.932115302
-0.006355387388
0.9318195724
-0.009753269463
0.9311072625
-0.006635535221
0.9300049518
-0.006797930243
-0.4624249618
0.4633787734
-0.007589346735
-0.4609121781
0.008655409089
0.4620556405
-0.009798871489
-0.4610835117
0.01103965895
0.4620143936
-0.005969450754
-0.005947444208
-0.2335163857
0.006280998639
0.2337318774
-0.006425936981
-0.233336479
0.006938341105
0.2336822117
-0.007192153603
-0.2282254055
0.008428966254
0.2289070773
-0.009055662899
-0.2213302682
0.01175250851
0.2223185289
-0.006360163456
-0.006380605755
-0.05455033831
0.008325909445
0.1094965586
-0.05448059147
-0.004375086051
-0.004416452192
-0.003294839141
0.9354101411
-0.00667579488
0.9352005281
-0.01023112785
0.9346625955
-0.006966234594
0.9338248886
-0.00708483001
-0.4644235997
0.4654513641
-0.007993998965
-0.4632222005
0.009106437286
0.4644026478
-0.01028688459
-0.4627461067
0.01155957397
0.4635039145
-0.006107479759
-0.006187903052
-0.2341006786
0.006111990135
0.2341397746
-0.006090985327
-0.2345871208
0.00615304402
0.234821054
-0.006299060372
-0.2311402172
0.007392175339
0.2318521374
-0.008039900788
-0.2259385324
0.0110444681
0.2273414747
-0.01243387508
-0.1125158096
0.01628704749
0.2238357728
-0.01575010469
-0.111856906
-0.003373530709
0.9387836719
-0.006826242294
0.9386532397
-0.01043736498
0.9382737181
-0.007116224665
0.9376784047
-0.007174656409
-0.4664973066
0.4675432962
-0.008162214284
-0.4655802364
0.009274264169
0.4667482724
-0.01044230017
-0.4645419183
0.01168995404
0.4658727457
-0.006509344093
-0.00651133212
-0.2340531274
0.006416707835
0.2339748949
-0.006301703694
-0.2352230373
0.005972665794
0.2352595449
-0.005936042354
-0.2335789215
0.00631804694
0.2339835966
-0.006654294401
-0.2306316405
0.008325901765
0.2314096939
-0.009066591979
-0.2228809674
0.01119918057
0.2227213901
-0.01103030097
-0.003377722389
0.9421613943
-0.006824190492
0.9420997078
-0.01040483588
0.9418543635
-0.007103493405
0.9414635756
-0.007086513423
-0.4685655094
0.4695885288
-0.008126512728
-0.4678923214
0.009201335927
0.4690088618
-0.01031787634
-0.4671703777
0.01149571379
0.468417069
-0.00639583031
-0.006346574842
-0.2336889202
0.007056867633
0.2336854533
-0.007048335983
-0.2351330738
0.006625949569
0.2350372566
-0.006485394969
-0.2346790727
0.006270566108
0.2347675755
-0.006303369728
-0.2329614316
0.006769827587
0.2332680861
-0.007035993511
-0.2224515957
0.007681269521
0.2223916112
-0.007607084761
-0.003319941837
0.9454813361
-0.006696145945
0.9454759119
-0.01017786308
0.9453360807
-0.00694995434
0.9451050347
-0.006869367809
-0.4705721367
0.4715451003
-0.007922917939
-0.4700873767
0.008935816735
0.4711277141
-0.009976154223
-0.4696065645
0.01105836421
0.4707340763
-0.006131942563
-0.006053933397
-0.2345897503
0.006724250691
0.2348924897
-0.007026990066
-0.2347238998
0.007765420119
0.2346439105
-0.007677299981
-0.2347759439
0.007394644654
0.2347361618
-0.007326700919
-0.2337743447
0.007292906348
0.2338528471
-0.007344729154
-0.2221914613
0.007339276359
0.2221070212
-0.007244104863
-0.003212873637
0.9486942097
-0.006468573508
0.9487316118
-0.009799707504
0.9486672147
-0.006685220112
0.9485494808
-0.006558933481
-0.472473189
0.4733825351
-0.007594566181
-0.4721225024
0.008532188656
0.47307428
-0.009483966303
-0.4717982003
0.01046054366
0.4727995563
-0.005778745432
-0.005683154221
-0.2357341591
0.006295061983
0.2359937401
-0.006554643058
-0.2353620304
0.007333434541
0.2356202427
-0.007591646854
-0.2346551437
0.008354572474
0.2348770357
-0.008576147723
-0.2339826868
0.008733453795
0.2340196984
-0.008764644891
-0.2218132216
0.008564477785
0.2217152069
-0.008462999116
-0.003069548474
0.9517637582
-0.006168890337
0.9518309537
-0.009315520579
0.9518138449
-0.006344295146
0.9517667474
-0.006188491988
-0.4742447975
0.4750837239
-0.007183221509
-0.473978136
0.008040318803
0.4748382624
-0.008900445203
-0.4737402943
0.00977108388
0.4746204003
-0.00537277394
-0.005278415995
-0.2367118014
0.005822356386
0.2369328044
-0.006043359326
-0.2363194771
0.006692280845
0.2365297385
-0.006902542238
-0.2355318714
0.007508920888
0.2357242504
-0.007701299893
-0.234466605
0.008237668918
0.2346214729
-0.008392536825
-0.2215665954
0.008399128158
0.221573274
-0.008405806734
-0.002902511147
0.9546662694
-0.005823178635
0.9547516212
-0.008766456907
0.9547571232
-0.005956839092
0.9547432774
-0.005786147867
-0.475875757
0.4766440964
-0.006725178455
-0.4756515184
0.007502536134
0.476423253
-0.008274270783
-0.4754430147
0.009045874069
0.4762115769
-0.004948373293
-0.004866062965
-0.2375436605
0.005342130479
0.2377317507
-0.005530220668
-0.2371006548
0.006072334948
0.2372729644
-0.006244644501
-0.2362367016
0.006732325391
0.2363886475
-0.006884271296
-0.2350163677
0.007298420837
0.2351277555
-0.007409808708
-0.2216890942
0.00735375659
0.2217534012
-0.007418063659
-0.002722086696
0.9573883561
-0.00545246018
0.9574819947
-0.00818522692
0.9574898899
-0.005546549559
0.9574783517
-0.00537375163
-0.4773658261
0.4780662809
-0.006247004422
-0.4771512029
0.006948746487
0.4778410357
-0.007638579323
-0.4769293602
0.008320979708
0.4775999026
-0.004530448635
-0.00446107343
-0.2382520344
0.004875568618
0.2384125249
-0.005036059067
-0.237742931
0.005491503219
0.2378854381
-0.00563401032
-0.2367971206
0.006031610155
0.236919364
-0.006153853523
-0.2354116543
0.006479460812
0.2354916623
-0.006559468853
-0.2220018595
0.006481113182
0.222099103
-0.006578356734
-0.002537643055
0.9599259991
-0.005075542528
0.9600198941
-0.007600287783
0.9600146352
-0.005136169932
0.9599816728
-0.004967438996
-0.4787209108
0.479357427
-0.005772686155
-0.4784912552
0.006404900278
0.4791073857
-0.007021030742
-0.4782266527
0.007624829589
0.4788124927
-0.004134870288
-0.004075799311
-0.2388574579
0.004437969045
0.2389951274
-0.00457563853
-0.2382762556
0.004961330959
0.2383954285
-0.005080503812
-0.237251139
0.00540957308
0.2373513787
-0.00550981277
-0.235695547
0.005769867868
0.2357529886
-0.005827309536
-0.2224204865
0.005746751892
0.2225348856
-0.005861150962
-0.002355866877
0.962281866
-0.00470568156
0.9623697088
-0.007030924949
0.9623398786
-0.004738641602
0.9622681536
-0.00457876417
-0.4799500671
0.4805277587
-0.005316333141
-0.4796883136
0.00588591733
0.4802392555
-0.006436859256
-0.4793613799
0.006972691842
0.4798763933
-0.003771664796
-0.003716040482
-0.2393777144
0.004036115695
0.2394964721
-0.004154873463
-0.2387240977
0.004484336637
0.238824939
-0.004585177953
-0.2376258306
0.004861765584
0.2377094828
-0.004945417838
-0.2358993099
0.005155956934
0.2359405159
-0.005197162909
-0.2228914435
0.005124064503
0.2230131527
-0.005245773741
-0.002181929784
0.9644637958
-0.004353012842
0.9645407919
-0.006491539006
0.9644784047
-0.004363377418
0.9643559366
-0.004215944541
-0.4810642648
0.4815887193
-0.004887831956
-0.4807592291
0.005401726917
0.4812530396
-0.005895537391
-0.4803601566
0.006372394915
0.4808151007
-0.003438884411
-0.003388454585
-0.2398275579
0.003670669648
0.2399307601
-0.003773871849
-0.2391046453
0.004057957622
0.2391910197
-0.004144332082
-0.2379401938
0.004380279664
0.23801104
-0.004451125842
-0.2360453383
0.004623684986
0.2360748159
-0.004653162632
-0.2233815059
0.004591772344
0.2235044205
-0.004714686982
-0.002019002275
0.9664827981
-0.004023634772
0.9665454244
-0.005990434709
0.9664452047
-0.004016350391
0.9662642541
-0.003882401804
-0.4820751453
0.4825520869
-0.004493291959
-0.4817198753
0.004958153271
0.482164043
-0.005402320968
-0.4812436374
0.005828528001
0.4816477484
-0.003138107481
-0.003094531515
-0.2402196535
0.003342521333
0.2403100706
-0.003432938371
-0.2394321503
0.003680398273
0.2395070826
-0.003755330557
-0.2382077619
0.003959455025
0.2382685553
-0.004020248366
-0.2361496528
0.004163399874
0.2361706327
-0.004184379748
-0.2238702522
0.004135905074
0.2239906425
-0.004256295337
-0.001869826895
0.968352625
-0.003722783792
0.9683983813
-0.005534694066
0.9682571149
-0.003701164451
0.9680131138
-0.003582389354
-0.4829941755
0.4834292622
-0.004136251123
-0.4825847934
0.004558362776
0.4829861539
-0.004959723253
-0.4820295276
0.005342760056
0.4823907796
-0.00287115
-0.002832862011
-0.2405643389
0.00305270452
0.2406442915
-0.003132657142
-0.2397176776
0.003350643629
0.2397835539
-0.003416519941
-0.2384384643
0.003595532927
0.2384913047
-0.00364837329
-0.2362237134
0.003768612052
0.2362385321
-0.003783430679
-0.2243455261
0.003747390524
0.224461387
-0.003863251432
-0.001735720626
0.9700883456
-0.003452859525
0.9701155202
-0.005127238157
0.9699314936
-0.003419622558
0.96962217
-0.003316671737
-0.483832635
0.4842312981
-0.00381828569
-0.483367359
0.004203485361
0.4837320859
-0.004568212264
-0.4827332685
0.004914656106
0.4830585195
-0.00263713085
-0.002602776292
-0.2408702007
0.00279963991
0.2409416128
-0.002871051925
-0.2399698885
0.003065346594
0.2400285703
-0.003124028427
-0.2386398937
0.003283082013
0.2386864054
-0.003329593751
-0.2362758918
0.003431905533
0.2362862889
-0.003442302573
-0.2248008559
0.00341758991
0.2249111428
-0.003527876781
-0.001617471275
0.9717058169
-0.00321522365
0.9717132726
-0.004769551753
0.9714858217
-0.003172344265
0.9711104641
-0.003085501654
-0.484601167
0.4849685636
-0.00353974096
-0.4840796057
0.003893428339
0.4844132992
-0.00422712191
-0.4833679121
0.004542827352
0.4836628021
-0.002433795243
-0.002403922134
-0.241144394
0.002580306049
0.2412088405
-0.002644752502
-0.2401955609
0.002819970324
0.2402484945
-0.002872903863
-0.2388179733
0.003015992857
0.2388594255
-0.003057445082
-0.2363124279
0.003145715035
0.2363196875
-0.003152974643
-0.2252328536
0.003138332202
0.2253369983
-0.003242476973
-0.001515467994
0.9732212849
-0.003010490596
0.9732082952
-0.004462075691
0.9729374067
-0.0029596438
0.9724965796
-0.00288854734
-0.4853098057
0.4856507288
-0.003300566936
-0.484732475
0.003627752997
0.4850402734
-0.003935551372
-0.4839447881
0.004225951802
0.4842151233
-0.002261784157
-0.002234502802
-0.2413928073
0.002393704526
0.2414515703
-0.00245246755
-0.2404000757
0.002612379954
0.2404484322
-0.002660736487
-0.2389774333
0.002791108781
0.2390148584
-0.00282853396
-0.2363379101
0.002905855571
0.2363429645
-0.002910909972
-0.2256398588
0.002904999279
0.2257376314
-0.003002771797
-0.001429530049
0.9746508149
-0.002838081888
0.974616847
-0.004203506558
0.9743028314
-0.002779299196
0.9737972431
-0.002724870894
-0.4859677579
0.4862869339
-0.00309847525
-0.4853359426
0.003403755289
0.4856223895
-0.003690202215
-0.4844749964
0.00395989178
0.4847256321
-0.002118078349
-0.002092449119
-0.2416203367
0.002237373331
0.241674519
-0.00229155556
-0.2405877997
0.002439293091
0.2406325366
-0.00248403003
-0.2391221124
0.002604334868
0.2391563477
-0.002638570199
-0.2363556473
0.002707382546
0.2363591674
-0.002710902648
-0.2260213557
0.002712422345
0.2261127537
-0.002803820271
-0.001359580507
0.9760103954
-0.002697941408
0.9759552079
-0.003993306314
0.9755981963
-0.002632338062
0.97503057
-0.002594295147
-0.4865839923
0.4868852926
-0.0029336384
-0.4858989093
0.003221120895
0.486168152
-0.003490363639
-0.4849685747
0.003743335902
0.4852044411
-0.002001080102
-0.001978122209
-0.2418311521
0.002110443267
0.2418817713
-0.002161062465
-0.2407623562
0.002299425038
0.2408043147
-0.002341383589
-0.2392551581
0.002453927537
0.239286923
-0.002485692465
-0.2363680498
0.002548016713
0.2363705436
-0.002550510513
-0.2263776762
0.002558347185
0.2264629165
-0.002643587545
-0.001306055198
0.9773164506
-0.002590120147
0.9772392729
-0.003831495713
0.9768395719
-0.002511950742
0.9762041844
-0.002493159409
-0.4871652731
0.4874564726
-0.002803150203
-0.4864294639
0.003077766277
0.4866854065
-0.003333708915
-0.4854333008
0.00357344997
0.4856563504
-0.001906824613
-0.001889674998
-0.2420293155
0.002011024883
0.2420773607
-0.002059070012
-0.2409269202
0.002190564311
0.2409668322
-0.002230476306
-0.2393792681
0.002337256769
0.239409183
-0.002367171637
-0.2363769797
0.002424716925
0.2363788524
-0.002426589623
-0.2267097499
0.002439807934
0.2267891206
-0.002519178638
-0.001266649244
0.9785830999
-0.002511999466
0.9784846231
-0.003715103599
0.978042676
-0.002433696715
0.9773482164
-0.002425438833
-0.4877259593
0.48800392
-0.002711657469
-0.4869350148
0.002974092275
0.4871805074
-0.003219584887
-0.4858744442
0.003449638918
0.4860883061
-0.001837400022
-0.0018261008
-0.2422181861
0.001937299406
0.2422643267
-0.001983439987
-0.2410841974
0.002109990849
0.2411226574
-0.002148450855
-0.239496777
0.002251141556
0.2395253732
-0.002279737751
-0.2363839427
0.002333967534
0.2363855283
-0.00233555304
-0.2270187463
0.002353413896
0.2270925643
-0.002427231919
-0.001248578336
0.9798316782
-0.002470104546
0.9797061493
-0.003652018339
0.9792245898
-0.002392188048
0.9784684092
-0.002380023102
-0.4882645938
0.4885232958
-0.002650890098
-0.487421787
0.00290719155
0.4876608234
-0.003146227895
-0.4862989688
0.003369821265
0.4865064185
-0.001790902919
-0.001786368036
-0.2424004299
0.001888141718
0.2424452981
-0.001933009966
-0.2412364771
0.002056285414
0.2412739914
-0.002093799621
-0.2396097668
0.002193867723
0.2396375306
-0.002221631564
-0.2363902112
0.002273913888
0.2363918116
-0.002275514343
-0.2273061811
0.002297520363
0.2273748811
-0.002366220292
-0.001229687647
-0.002445510091
-0.003618619982
-0.002375767543
-0.002331491308
-0.4887885931
0.4890465328
-0.002633707211
-0.4878957577
0.002879556684
0.4881298834
-0.003113682416
-0.4867129203
0.003333495628
0.4869165481
-0.00177080434
-0.001766319056
-0.2425783575
0.001863690101
0.2426224736
-0.001907806218
-0.2413856373
0.002029110697
0.2414226026
-0.002066076027
-0.2397201691
0.002164778315
0.2397475894
-0.002192198634
-0.236397081
0.002244170814
0.236399106
-0.00224619582
-0.2275740376
0.002272293348
0.2276384536
-0.002336709409
0.003349210616
-0.003402513533
-0.05284412201
0.004089007106
-0.004190581975
-0.05444876343
0.01005670456
-0.2166405784
-0.005340795188
-0.005469024234
0.1062208589
-0.003325530787
-0.105989865
0.006443747516
0.02733680324
-0.2201546933
-0.0222641134
-0.00624826482
0.1093330197
-0.004043271587
-0.1089627072
0.007761966168
-0.003424270949
0.006620157039
0.1064246989
0.0533328963
0.00366197119
-0.003724605043
-0.05327026245
0.02608395934
-0.0003727038318
-0.02665286363
0.0009416081302
-0.02786085379
-0.0008809728787
0.001284391196
0.02745743548
0.008435726498
-0.008629311855
-0.1123222242
-0.001417345998
-0.02810591711
0.001662409317
0.02725960289
-0.0009003824889
-0.0277765664
-0.003697751914
0.04482107145
0.004732420317
-0.02454238408
-0.02131335578
-0.0003007404583
0.0007580335326
0.02562666626
0.003706234518
0.05339316763
-0.003766505842
-0.02219189501
0.02200646126
-0.0001153067012
0.02974940707
-0.00630739739
-0.01335279919
-0.01378696241
0.02676266508
-0.0003840350736
-0.02259228642
2.76875786e-05
0.005875735798
0.02657006656
-0.02419770204
-0.001271792281
0.001712135332
0.02375735899
-0.05210845634
0.003758845697
0.05216997409
-0.003820363453
0.05230424118
0.00387485034
-0.05228458968
-0.001968942424
-0.001925559416
-0.0521421018
0.003548348049
0.0521359911
-0.003542237347
0.003697027731
-0.003701661369
-0.0521038227
-0.0008338698112
-0.02467444087
0.001310608646
-0.02516563143
-0.001192867454
0.001471297715
0.02488720117
-0.05195930409
0.00336113772
0.05198673336
-0.003388566987
0.003520819242
-0.003556930405
-0.05210599064
0.003306118467
-0.003320163625
-0.05194525893
-0.001007149633
-0.02549422405
0.001335742257
0.02483757855
-0.0005650439356
-0.02527968425
0.02439369079
-0.0007489796883
0.00391183886
0.05229782972
-0.001964633749
-0.001940793649
0.05248149953
0.01446131356
-0.05238152281
-0.005529812322
-0.00903147795
-0.01213209717
0.02472675808
-0.02414543949
0.01155077858
0.01173981476
-0.01526009674
-0.008611815201
0.0244090115
-0.02438572445
0.005382789533
-0.02514720294
-0.006187923688
0.006233469835
0.02510165679
0.02369315838
-0.0002947609279
-0.02423226727
0.03054995465
-0.02430023084
-0.0003739880058
-0.006331354523
-0.0252565617
0.006440713291
-0.00736525082
0.01467160899
0.02324359648
0.02295698787
-0.0005356217684
0.02628828758
0.02556996912
-0.02574818338
0.0115546868
-0.01297694736
-0.2245103224
0.2252125382
0.01538097526
-0.008506069712
-0.1118199322
-0.111831785
0.007923674895
0.1097352543
0.1110220096
0.00859332228
-0.009117193767
-0.1104981381
-0.009183974166
0.09270788509
-0.09260844569
0.009084534777
-0.003671618441
0.004807508154
0.04368518174
-0.004798711269
-0.02624789294
0.003751680647
0.02729492356
-0.02630425914
0.002132647434
0.02660269116
-0.002431079458
0.02652202745
0.001851501387
-0.001689838464
-0.02668369037
0.03212566439
-0.006047875757
0.09184177618
-0.01232342474
-0.0887023256
0.02656355014
0.0009481835218
-0.0005466557806
-0.02696507788
-0.02485321041
0.004321518596
0.02673498541
-0.006203293588
-0.03076605308
0.02321678937
0.03227602179
0.02446517037
0.05371780638
-0.01911402723
-0.006587449988
0.004528900527
0.05395125765
-0.004646262037
-0.05383389614
0.001812623056
0.02631430978
-0.001604905382
0.02569810157
0.001949434946
-0.001782594963
-0.02586494155
-0.0005363021063
0.02415079751
-0.02464687919
0.001032383791
0.02536203489
0.02120015728
-0.02149589249
-0.0002405668971
0.02421868214
-0.004742347857
-0.01856958172
-0.0009067525566
-0.009393762745
0.05140214406
-0.05110929557
0.009100914256
0.00287301263
0.02441216167
-0.01902623832
0.02544340463
0.0005525160376
-0.0001509186158
-0.02584500205
-0.03059526801
0.02577015719
2.639955387e-05
-0.02554307853
0.001908152738
0.0255518108
-0.001916885013
0.00209844153
-0.002487332119
-0.02591536855
-0.006034200582
-0.02449001824
0.004276325884
-0.0005816626227
-0.02604884458
0.001038843298
0.02559166391
-0.02592394343
0.001760855097
0.02579911566
-0.001636027334
0.001841662009
-0.001769270668
-0.02561546987
0.0009153071448
0.02614551982
-0.0004972768264
0.00369841806
-0.004673381886
-0.02387824659
-0.001300271805
0.001752542383
0.02369852693
0.002285506287
0.02562421969
-0.002211624409
0.02643753805
0.009513409848
-0.00997383008
-0.02597711782
-0.002501621697
0.02961943613
-0.02350302144
-0.003614792988
-0.005394754252
0.01047631812
0.01913711828
0.02032219604
-0.0004223105627
-0.01971207694
0.0257798191
-0.005378914998
-0.0006888271628
0.02190309444
-0.00540784335
-0.02123759895
0.02469993609
-0.005585979915
-0.02488162148
0.005767665305
0.02505271945
-0.0001909774408
0.01551869633
-0.0007911137075
-0.0250200713
-0.006856253478
0.006719280025
0.02515704475
-0.005011084417
-0.01403046073
-0.0006705317916
-0.007112763744
-0.02502762503
0.007120317473
-0.01468302693
-0.02194644167
-0.02629511979
0.001800798593
0.02618902853
-0.001694707333
0.001698861012
-0.001619331954
-0.02600347248
-0.02651253756
0.001016209013
-0.0258386867
0.003116617749
0.02704358755
-0.02591771094
0.001878681038
0.02605706597
-0.002018036059
0.001719205201
-0.001764598191
-0.0262497268
-0.02393727787
0.02308711079
-5.021540997e-05
0.002379713802
-0.02629449172
-2.249995359e-05
-0.02784888194
0.00245202935
0.02176555335
0.0002062986353
3.460927508e-05
-0.0001513489363
0.02628840407
0.0006256099466
-0.02277224727
0.02252042672
0.0001004716216
-6.917155526e-05
-0.02348350026
0.000897359978
-6.146140837e-06
-0.02570101385
0.001674982648
0.02568969875
-0.001663667547
0.001822295674
-0.001965282072
-0.02577472455
-0.02497725901
0.002836990367
-0.02652036074
0.001253801297
0.02618186659
-0.02586678153
0.001619924164
0.02581787604
-0.001571018681
0.001651115726
-0.001619245317
-0.02573288426
-0.02487757149
0.0244616022
-0.0001490746446
0.0004963414252
-0.0001111532304
-0.02526275969
0.0009321878507
-0.02571553068
-0.001225752861
0.02399050328
0.001628940365
-0.02395273229
0.02325212873
-0.0005251492934
-0.0002401097804
0.006909144674
-0.007364136027
-0.02369044813
0.02515022304
-0.02470364187
0.006462563498
0.0260297144
0.01067128722
0.0002273539488
0.006163044386
-0.006390398332
-0.01824998532
-0.004374247445
0.005620440959
0.02459727247
0.02210873043
-0.005600390235
0.02333454004
-0.002739700852
-0.02309646088
-0.02163289945
0.02134223286
-4.09433816e-06
0.0002561812358
-0.02181466871
-7.441196834e-05
-0.02465571615
0.0006796301192
-0.02031026911
-0.0003920400961
0.01560177641
-0.0009301674146
-0.005805756956
0.02195085571
-0.0005433223454
0.02447259444
-0.007034754916
-0.001517672987
0.02210316206
0.002371498795
-0.02076718891
0.01927278288
-2.326696303e-05
3.94221832e-05
0.0262493145
-0.02643219869
0.02270776423
0.0002337725681
-4.53861175e-05
0.02257359613
0.0001958758667
-6.170777071e-05
0.01506928028
-0.01504159061
-2.768966119e-05
-0.004855079162
0.003741182625
-0.03113350646
-1.606442062e-05
-0.02226751977
0.02002277173
0.0270854515
-0.02067068517
0.02657850528
0.002011508317
-0.001912337534
-0.02667767606
-0.0005659926224
0.02171337253
-0.02253238176
0.00138500185
0.0007490700693
-0.0002508136933
-0.02514513557
0.02538609636
-0.02588068741
0.001243661124
0.02493856843
0.001479911718
1.884716387e-05
-0.01322888183
-0.004339599462
-0.00100110043
-0.01187166037
-0.001357221462
0.0122361798
-0.002301980051
-0.01050019237
0.02060000956
-0.005198046739
-0.02050216382
0.005100200998
0.003256261237
0.004557980949
0.02180519395
-0.0223108568
0.02214953758
1.040060623e-05
0.0001005834815
0.0001089864303
0.0005439855006
0.002439600896
-0.0001529439658
0.02209311318
-0.02225020289
4.593648036e-05
0.02191678143
2.725710495e-05
0.02241382358
0.0001307798045
2.899275082e-05
9.997008704e-05
6.365059902e-05
-0.02240850993
-0.004532391729
0.002366855395
-0.001523236598
0.002479112093
0.01958258579
-0.0211111229
5.300510597e-06
8.603446828e-06
0.02165534941
2.132223439e-05
1.907722383e-05
0.02464309817
0.002048012644
-0.00356421379
0.003503670094
-0.003556134988
0.001182626251
-0.01995775628
-0.004727891413
0.0207839301
-0.01674523776
-0.002856066094
0.01739649107
0.01225042862
-0.001774110503
-0.002871335493
-0.00162347364
-0.003691973496
-0.001483924263
-0.005990582977
0.01989874171
-0.02279709623
-0.006182612925
0.02298912618
-0.02219530238
-0.005980708854
-0.0002203668834
0.0006173701851
-0.0219871437
-4.789189656e-05
-2.858355675e-05
-0.0004744695701
-0.02083598942
0.02729204859
-0.005805733579
-0.0006503255952
-0.01478752186
-0.005405104026
-0.0006433635298
-0.02092758115
-0.006278805642
0.01297098037
-0.006606512924
-0.001059480365
-0.01386839572
-0.0009191261371
0.006269664729
-0.00682469532
0.02871664498
-0.0004961245404
0.02196856674
-0.01487935828
0.00019633135
0.004437769799
-4.434519239e-05
0.004594490195
0.005912786041
-0.006044558161
-0.2317837882
-0.006848831473
0.2329357726
-0.232189644
0.00620150474
-0.007091686248
-0.231593735
-0.008033697021
0.2280955578
-0.2276620094
0.007675366001
-0.008452925026
-0.2257169826
0.2191564857
-0.2185516059
0.009459632725
0.02165893925
-0.02194333531
-0.2331621219
-0.02273448499
0.2338740422
-0.2335068658
0.02245853284
0.007654299101
0.2327539991
-0.02303010132
-0.2329499567
-0.02422937644
0.2298966578
-0.2293575327
0.02375810674
0.007906057848
0.2284404136
-0.02479860155
-0.2276022844
0.2223657993
-0.2213456055
0.02631966154
0.009794636836
0.2198132079
0.2190440174
0.01076442469
-0.005771285964
-0.005841756199
0.1087171159
-0.006313355722
-0.1084815549
0.006077794659
-0.1078265745
-0.005981404096
0.005770470807
0.1080375078
0.05310284267
0.003509332442
-0.003572349533
-0.05303982558
0.05243841606
-0.05240612552
0.003664737191
-0.05233650097
0.003522694931
0.05236215408
0.006116273754
-0.006131192002
-0.2340218086
-0.006309100288
0.2348602881
-0.2346660821
0.006203309639
0.006736344381
0.2341682287
-0.006491552402
-0.2343149933
-0.007695066484
0.2323001665
-0.2316964004
0.0071642304
0.007920784636
0.230473763
-0.008379066666
-0.2303946095
0.227161195
-0.2258773259
0.01029004711
0.01073905112
0.2233832253
-0.01296360463
0.2233409539
0.01194120046
0.2227905037
-0.007074578741
-0.1108774835
-0.1107456747
-0.007056371435
-0.1101302489
-0.006903404691
0.006611244745
0.1104224089
0.1099858741
0.008471795495
-0.004471455215
-0.004489655829
0.05484173672
-0.004885348439
-0.05462222202
0.004665833733
-0.05417462455
-0.004624318777
0.004493126697
0.05430581663
0.006290457349
-0.006188864281
-0.2341110327
-0.005939145594
0.2351992565
-0.2351792302
0.005992700782
0.006087306299
0.2350119286
-0.005944723587
-0.2351393625
-0.006523157489
0.2342124873
-0.2338353635
0.006220751196
0.006898457366
0.2328681408
-0.006948865853
-0.2330844929
-0.008993350964
0.2313220545
-0.2304757822
0.008189687968
0.009854016052
0.2283776775
-0.009891902059
-0.2296998527
-0.01260066481
0.2293126408
-0.228570999
0.01186997658
0.01505300911
0.2264465766
-0.01238025977
-0.2230950631
0.006939420097
-0.006830703912
-0.2337848522
-0.006392499132
0.2349414206
-0.2350440865
0.006540874697
0.006059672353
0.2351800633
-0.006264706192
-0.2352078968
-0.006156535745
0.2349633955
-0.2348790887
0.006133988418
0.006093104874
0.2345105467
-0.006248821044
-0.2345262088
-0.006954483242
0.2334093123
-0.2330581597
0.006651188521
0.007666019177
0.2320278637
-0.007314435435
-0.2325598708
-0.008233330817
0.2306755121
-0.2305028886
0.008081598763
0.01067578233
0.2298510156
-0.008151463233
-0.2225195412
0.006821902895
-0.007135390856
-0.2342762624
-0.007481472271
0.2345094615
-0.2346018919
0.007583096779
0.006777220651
0.2348271893
-0.007365281832
-0.2348226133
-0.00704724109
0.2348873168
-0.2349438691
0.007137432749
0.006295540514
0.2349942984
-0.006984412165
-0.2348028575
-0.007010701034
0.2340651083
-0.2339836758
0.006963453593
0.006554611402
0.2336704696
-0.007094100114
-0.2336597174
-0.007197239019
0.2307311129
-0.230791363
0.007275150877
0.00760524875
0.2307726208
-0.007110541836
-0.2222660138
0.006408622646
-0.006678264303
-0.2354645174
-0.007493295776
0.2354902387
-0.235218152
0.007221209042
0.00764380816
0.2346332918
-0.007765210511
-0.2350901157
-0.008410310509
0.2348453243
-0.2347287093
0.008295558137
0.007481464299
0.2348257566
-0.008399185457
-0.2346618357
-0.008387313245
0.234184782
-0.2341646566
0.008378017407
0.007272217449
0.2341145891
-0.008411395264
-0.2339474956
-0.008231232842
0.2301754914
-0.2303507167
0.008414041953
0.007452113426
0.2306337907
-0.0081246415
-0.2219144248
0.00594140561
-0.006171000966
-0.2364822061
-0.006850055246
0.2364557056
-0.2362316189
0.006625968611
0.00707420357
0.2357494697
-0.007071251338
-0.236098281
-0.007712684672
0.2357657911
-0.2355561962
0.007503089756
0.008102889983
0.2350970068
-0.007917284952
-0.2353272711
-0.008491145318
0.2347425662
-0.234559596
0.008308175093
0.008711258362
0.2342118151
-0.008659236594
-0.2342985137
-0.00869179651
0.229496315
-0.22963176
0.008827241552
0.008759888379
0.2299848462
-0.008679347235
-0.2215790447
0.005460634704
-0.005655901888
-0.2373483933
-0.006222617257
0.237252158
-0.2370670029
0.006037462144
0.006478685588
0.2366693008
-0.006403531856
-0.2369197402
-0.006917747421
0.2364921347
-0.236325782
0.00675139467
0.007311327444
0.2359633846
-0.007078610705
-0.2360758383
-0.007519513832
0.2353578733
-0.2352196537
0.007381294272
0.008067332951
0.2349129022
-0.007640448344
-0.2348954331
-0.007595164664
0.2289917297
-0.2291101423
0.007713577275
0.008532155576
0.2293632875
-0.007647790849
-0.221636468
0.004991303522
-0.00515774108
-0.2380855968
-0.005633265539
0.2379128898
-0.2377588156
0.005479191316
0.005895592465
0.2374289005
-0.005782580376
-0.2375936161
-0.006200509312
0.2370742328
-0.2369400418
0.006066318339
0.006574887171
0.236649573
-0.006329376818
-0.2366682531
-0.006674685702
0.2358270211
-0.2357210499
0.006568714461
0.007169210187
0.2354870839
-0.006761617148
-0.2353247228
-0.006686366252
0.2285804528
-0.2286736636
0.006779577009
0.007466130294
0.228879356
-0.006777160379
-0.2219110654
0.004545828205
-0.004688330235
-0.2387149559
-0.00509020977
0.2384654764
-0.2383361533
0.00496088669
0.005344190734
0.2380602023
-0.005214727305
-0.2381517381
-0.005559324583
0.2375484702
-0.2374384094
0.005449263841
0.005904141524
0.2372017014
-0.005664506863
-0.2371459567
-0.005939298117
0.2361889592
-0.2361068762
0.005857215072
0.006380157826
0.2359263241
-0.006001718542
-0.2356331265
-0.005920491098
0.228270162
-0.228338651
0.005988980127
0.006567927708
0.2284936383
-0.006031742579
-0.2223092351
0.004132831034
-0.004255503837
-0.2392550416
-0.004597895734
0.2389320512
-0.2388224641
0.004488308707
0.004837387362
0.23858942
-0.004702899662
-0.2386190937
-0.004991302553
0.2379415194
-0.2378497145
0.004899497702
0.005304576586
0.2376534667
-0.005078679166
-0.237538454
-0.005300332464
0.2364709204
-0.2364067512
0.005236163266
0.005692766924
0.2362660602
-0.005345106133
-0.2358545362
-0.005269600667
0.2280517083
-0.2280984229
0.00531631523
0.005809469664
0.2282074442
-0.005390148011
-0.2227708961
0.003757960653
-0.003864333941
-0.2397211846
-0.004158830493
0.2393300593
-0.2392361837