/*--------------------------------*- C++ -*----------------------------------*\
| =========                 |                                                 |
| \\      /  F ield         | OpenFOAM: The Open Source CFD Toolbox           |
|  \\    /   O peration     | Version:  v2012                                 |
|   \\  /    A nd           | Website:  www.openfoam.com                      |
|    \\/     M anipulation  |                                                 |
\*---------------------------------------------------------------------------*/
FoamFile
{
    version     2.0;
    format      ascii;
    class       volScalarField;
    location    "1.96";
    object      k;
}
// * * * * * * * * * * * * * * * * * * * * * * * * * * * * * * * * * * * * * //

dimensions      [0 2 -2 0 0 0 0];


internalField   nonuniform List<scalar> 
3259
(
37.00862975
37.0059835
36.99558951
36.98169083
36.97036827
36.96256339
36.95840288
36.95602216
36.90984193
36.9090631
36.90867558
36.90842116
37.04637837
37.03756458
37.00228208
36.93922011
36.88136473
36.84191561
36.79709875
36.78330648
36.73185521
36.72919459
36.72792101
36.72723213
37.12994484
37.1138345
37.05130769
36.94519981
36.82262213
36.73130962
36.65113965
36.61947616
36.55895316
36.55274501
36.54982705
36.54864059
37.3128415
37.28764273
37.18601472
37.02002833
36.83722256
36.67164932
36.53382861
36.47161379
36.39271097
36.38072958
36.37496662
36.37272834
37.71020028
37.66422334
37.48527342
37.20623239
36.92154273
36.68178222
36.45983824
36.34489711
36.23578839
36.21303131
36.20271151
36.19870488
38.62482675
38.5054662
38.06719847
37.56977002
37.10521486
36.74365057
36.43557926
36.24446013
36.0904622
36.04979288
36.03243415
36.02565836
40.61313964
40.48765092
39.12733725
38.16203895
37.40405555
36.86548372
36.45027343
36.17483323
35.95580048
35.89158326
35.86406887
35.85340255
43.53589078
40.82066638
39.0020859
37.81073371
37.04143354
36.49233586
36.13260334
35.83486588
35.74008991
35.69883879
35.6830661
48.70130347
42.87214072
39.99724044
38.29505595
37.25578936
36.55425901
36.11217139
35.72828623
35.59742717
35.53961432
35.51758585
52.18065855
44.72268405
40.97030893
38.77564839
37.4787606
36.62903808
36.10953995
35.63788663
35.4673669
35.39038821
35.36097869
53.85751396
46.07823564
41.75122707
39.18743774
37.68572572
36.70626138
36.11576469
35.56269101
35.35187354
35.25497078
35.21735973
54.57453449
46.92552668
42.29297439
39.49772188
37.86020706
36.777336
36.12439808
35.5035697
35.2521504
35.13517104
35.08905982
49.3397892
43.95839997
53.16321624
49.81095308
54.87275872
53.47344209
55.54662933
54.98425557
55.58704683
40.58728898
43.44175629
40.35941628
54.15521092
45.95999331
48.13610931
43.37196758
41.46947644
57.21005786
60.19897769
51.86598201
45.67074055
43.98542842
55.13578872
54.7596497
53.72243779
47.32928128
46.13990467
56.87151087
55.8053617
41.06181494
58.04938116
57.72322609
60.17656888
54.52845492
47.03702504
53.28733869
58.70082779
54.88613593
56.93413772
51.69740752
58.23879953
56.74564973
58.87822809
58.39046372
51.43930469
55.60596135
55.22934747
54.41106605
57.23159573
57.49547996
56.6686668
57.18637768
54.22283473
57.65574457
56.99261977
44.18468758
46.24027139
58.09052537
40.56282069
69.22653827
50.15051509
59.31504745
54.53272941
48.37243757
47.62937182
69.50431803
47.53035489
45.78217849
45.4822257
52.16593651
46.35390529
45.29518005
41.95180426
55.34229715
57.84093029
58.00181855
57.53368634
57.80985577
55.27426934
42.4353289
45.31749491
42.41095963
42.45910714
75.4799264
50.68575033
68.84330608
48.7574749
64.15594928
49.70276539
59.32937929
59.52243675
54.84638342
54.82584718
41.95747095
53.0977728
56.44987866
42.83546864
41.7431511
56.45295059
43.64796149
56.30539027
51.04154665
48.53592376
61.22249775
58.36004725
57.95149731
56.02582302
56.20088713
57.52734713
56.20467764
55.61295013
56.757625
56.36192873
57.41196478
59.31049547
54.2184186
53.10226831
55.38144506
54.54157798
59.26467354
55.82873182
57.49839296
55.74609136
41.82707267
44.44907133
57.32453366
41.60328292
41.73745666
70.79476384
51.77717181
69.13312401
40.95058259
42.63676404
58.17630424
43.87650725
51.43129197
44.34281867
48.80723781
44.16605294
44.46523453
58.22416802
61.95192888
60.11467592
60.09027921
54.9219018
44.88303592
44.67668326
51.25556839
50.80109966
54.55386887
59.67356401
64.24153119
62.43573001
56.10713175
50.75874358
49.11313637
52.67877488
51.27309549
56.50346212
55.32359908
51.66025261
51.48192791
56.42343212
44.7025957
44.65920684
55.42835677
57.34969829
57.37398007
57.3225811
56.56942791
57.10319514
56.85752717
57.29671994
57.16014662
56.5754756
57.41061014
45.08863644
49.93568441
61.54614485
61.05748873
60.48564504
59.71213001
59.02655096
58.74263638
40.19016907
40.62993438
69.99049755
65.20543764
51.60406101
65.62836964
50.58549727
43.52626885
43.12526682
57.35401641
65.8633166
75.94251109
59.62608774
55.13093367
64.3347831
60.57307195
54.26417793
50.55733352
57.52942959
57.14269745
56.84882335
58.58670413
59.96218692
59.63541953
57.83311443
46.46284944
45.23977782
54.86700274
52.73187136
51.77565722
47.00091717
52.02512575
51.34492737
54.59557281
50.8182322
46.99135213
44.09940056
45.36598116
41.92202551
49.94102868
48.72405896
47.97552835
46.30388387
44.90040735
48.23757745
46.8805518
46.39991351
47.95892781
40.3170405
40.15451508
64.57539359
63.6721407
59.38428474
65.44919507
66.92747115
65.98125638
66.40867582
65.54352399
67.40655151
66.16232012
56.53572295
63.56225629
64.74078215
52.12501126
51.67977126
55.49216614
56.42014437
53.55570859
52.35819174
43.4984637
43.52885879
44.5232597
43.6614925
57.25570169
44.62118474
46.02741495
43.55489024
44.13774719
65.84346389
41.32160411
64.44288798
56.29119413
63.94875771
41.31851073
71.05460364
43.058302
40.88132321
39.40970874
69.05283088
68.47741808
48.53769472
69.52957326
58.01309036
58.13230549
55.72375006
47.22370459
46.24201764
50.81180108
58.30973566
46.90270032
47.19777365
41.8286173
42.21544426
44.96480187
52.5683287
57.19642019
60.45327156
41.67450783
40.56299369
44.94071235
50.75965582
52.79431298
57.90211471
61.42809726
63.34164097
56.09180041
57.20939679
49.8100303
72.15133213
63.88418685
42.12286542
69.99400943
58.61350007
47.16180969
50.14385302
68.42045679
40.74275096
40.39573298
48.02339799
48.53999725
46.76361494
49.29430171
43.67153773
42.41437905
40.91206454
43.7012798
44.1180167
47.82740279
71.40037558
65.0396259
61.81304277
74.87668074
71.55123829
42.32685121
49.26244983
47.32451429
61.25455454
60.253408
48.47845123
51.4042087
50.3552912
41.80166713
57.28603175
43.70109572
44.47544738
54.78687356
42.89990576
44.48146928
56.29080623
55.62277497
45.29228091
46.08771367
56.99805638
55.31482428
55.64827986
55.50728584
44.70090533
45.65227326
70.82172665
68.50799714
67.49694661
52.46253346
50.02149943
41.89579565
59.68737249
62.23338366
65.26987527
46.05567406
66.82797859
58.53207813
67.30919633
65.47277068
48.48154597
45.7447433
46.70860232
52.84934662
54.87877331
55.31980729
54.17564274
54.47349548
61.38858762
61.00558315
61.40912201
60.0998844
60.50206153
60.74641762
51.34897424
47.03642208
47.37938979
46.52663838
46.751849
51.65633424
63.43100231
62.54994935
62.64090816
61.87376335
62.23214842
62.90824124
51.37057203
48.4395199
48.83571328
47.71758749
48.0784594
51.42957901
53.62893505
53.58439843
52.85645329
52.92250698
73.53335454
74.28808277
71.08464317
54.45155286
73.82765581
65.98138022
73.49947958
66.60055154
69.65839438
64.30474856
54.12565623
71.43953475
65.32588209
59.81449606
59.1644401
70.03041547
53.55329628
60.16998994
61.78515926
65.40384588
67.2745567
64.09775317
70.20934656
65.59280551
70.89628025
62.88268502
66.60339714
70.03380451
72.10747268
71.29039647
56.6038057
57.2517611
57.60517009
56.1592203
56.28505967
56.09115593
58.92993976
59.18421378
59.57564087
58.25027125
58.60843571
58.44397501
46.04440249
46.9410411
46.95259413
52.32142326
52.1125523
49.115585
53.42025489
53.34480965
52.2874718
51.49083699
52.28769567
48.87928804
46.56516692
46.44953698
46.91221757
46.76250189
47.55420588
60.74265273
54.12207736
42.94728865
62.96605414
62.74066152
62.25290507
46.71357305
60.73694716
59.78024649
42.7948297
43.09699033
51.81059832
64.32522047
62.65687923
62.63162185
62.60945727
62.63714156
64.00463848
65.88138702
66.30821848
66.31848488
70.29344836
70.017823
70.48410801
70.44928594
66.14356606
67.80183135
69.4484834
71.09640994
68.00524935
52.06997296
50.04819372
50.48098184
49.21525411
49.63293659
51.70360267
52.89311896
51.73391398
52.17833317
50.91791685
51.34171997
52.76355452
55.55364623
55.14834677
56.78893697
47.48166254
50.78634147
44.9554215
54.4407424
55.09248865
53.68770552
54.11847668
45.53734814
43.63237672
50.08492015
47.13442008
54.01937848
54.3645728
43.90337514
62.93176781
46.29211352
47.94684707
43.05591651
44.62213801
64.08861189
62.56463054
61.56524243
50.04432186
55.36046987
64.82379145
69.46604959
37.10028672
37.04478854
37.10255361
37.09538036
37.0423532
37.08863965
37.05096763
37.01676119
37.03356193
36.96404958
36.957318
36.93870015
36.85428353
36.89474436
36.83086732
36.7696463
36.85051667
37.24863875
37.12725009
37.25373361
37.24540019
37.12185746
37.23343845
37.16795506
37.07119806
37.13941895
37.03270731
36.97403237
36.99264797
36.8688724
36.85239296
36.82859796
36.71269894
36.74917592
37.57141967
37.30707199
37.58388393
37.57765767
37.30255075
37.55670559
37.43368565
37.21971728
37.38693944
37.21159774
37.06484718
37.14627653
36.95270394
36.88235735
36.89189496
36.72639789
36.7108492
38.29314744
37.69165562
38.3152211
38.30724558
37.68820841
38.23008177
37.97878545
37.54698916
37.88514836
37.56740922
37.28015399
37.45813528
37.14476414
36.98955129
37.04936923
36.79744681
36.73813244
40.24533453
38.55820708
40.28954037
40.05224315
38.5259544
39.6753534
39.03722412
38.18968224
38.81186541
38.1809676
37.69601946
37.98798872
37.4685046
37.21319744
37.31826855
36.93515829
36.82482404
41.92919846
41.92632514
40.62794474
41.32732233
40.62656979
40.12118984
40.34736152
39.09989226
38.38513977
38.76418318
37.93218053
37.57267837
37.70315872
37.14088125
36.9809942
45.54940392
44.06789173
42.63649881
42.3667871
40.24991458
39.38078969
39.72413761
38.49276597
38.06405902
38.1688132
37.39833697
37.20237883
50.26491169
47.38840104
46.17645914
44.31276128
41.41610442
40.56562629
40.7054809
39.07666778
38.64656637
38.65638342
37.67351856
37.46788927
52.97712734
49.7487897
48.99748946
45.80636977
42.40215691
41.70900073
41.55307966
39.58976394
39.22347749
39.09092341
37.92905445
37.73981463
54.21977853
51.09140923
50.71687262
46.78746552
43.09367699
42.61903166
42.16172264
39.98929473
39.71381473
39.43029907
38.14278141
37.98600288
54.737965
52.26646728
52.12543054
43.23700191
40.06767643
38.18735618
48.50549208
50.15346268
51.44570263
44.29795642
45.28116934
44.73761203
52.80989724
55.12607834
55.58085315
51.8434094
52.91174923
50.59533461
54.72990647
56.52166888
56.72361765
55.69679241
56.01948342
53.75503844
55.4775665
56.50956217
56.55143582
56.26937039
56.32777085
55.09504618
56.57915634
56.61899912
55.6433931
56.46448178
56.06172543
57.99214943
41.97811352
58.88665425
56.0006236
42.77516395
42.96653932
43.70629329
40.52604824
41.85464472
41.53997091
53.51043619
54.43236644
55.13918668
46.86465481
47.88227201
47.10442721
45.81339575
44.41488166
46.17831536
42.72901915
43.81623201
44.58488711
42.27415478
43.04061485
42.09782509
57.5229699
55.27452421
54.7621192
61.05513706
60.88143049
60.1911523
48.7078646
47.72573264
50.7030613
45.14053492
46.65533802
47.24489838
45.31956435
46.0154567
44.58763941
55.05033502
52.65313188
52.87861921
51.28376635
51.10815907
54.65524653
50.52860294
49.98197587
53.18722054
46.96680875
48.66042773
49.02996075
47.76986989
48.24564264
46.58513882
56.73347636
54.26968627
54.66783099
49.54635232
50.68350671
55.97903711
39.96999439
40.10891059
41.88073239
57.93659616
53.37768932
54.79537374
56.81268139
56.97898309
57.79044995
60.08117782
61.34448431
61.25817888
55.80987341
56.50220009
55.11896029
48.2098424
49.68059282
47.91497813
53.9109699
52.1558341
51.40312697
55.91143673
55.39993187
57.91834314
55.02059783
51.68767277
51.47659225
54.3486227
53.86784704
56.68917628
54.31566041
54.9558643
52.13510027
57.86862612
58.12327973
58.08748968
58.35653617
58.36818881
56.99371282
59.22462729
56.76083043
56.34868652
58.04240724
57.91739547
58.84211314
50.76790431
53.22340537
54.07999969
55.39797705
47.76226949
49.14185213
53.03645034
53.15471171
55.29506903
56.3611748
56.49401116
54.58620053
57.26951727
58.16525277
58.187537
57.39767073
57.37943253
57.3824515
56.53270688
58.31752045
58.33935082
58.2137266
58.23418889
56.63138667
53.99963298
56.09612084
56.31365106
57.57762883
56.44231635
56.63630988
54.92495598
55.22633895
57.11843725
55.20550533
39.89161448
51.73250983
56.96767013
53.40694783
51.96641278
51.26433803
54.29631284
48.14597309
49.86954625
50.08301448
49.34665603
49.62869388
47.91726467
46.55776904
40.40102911
40.74221165
42.64314265
42.99825192
46.40113627
48.16834001
46.15922493
44.54361008
50.5653864
49.80285672
51.38233316
45.4703443
46.12447739
47.67480813
44.72817737
41.79688695
42.13149571
41.03537219
40.98012817
42.22437562
56.4452157
56.48451538
55.42722375
57.93146792
57.60569893
57.34686994
57.6099856
57.60691435
57.94382781
57.65571363
57.38278869
57.39540185
57.35825059
57.37838645
57.69588234
55.17965352
56.36722306
56.41287266
43.68962105
44.62434121
44.96989964
45.56769579
42.3658194
43.5410565
43.24907264
43.85310299
43.6893037
42.38001573
52.74445468
56.21788267
52.14618571
55.20923036
49.9479278
47.76017073
60.19724459
58.3196312
63.50395773
48.10506329
50.01781417
52.04859376
58.81125477
58.58010105
59.14365074
59.6713757
59.46741247
59.26140975
52.08056096
52.09568889
54.84820057
54.77191667
51.78820046
52.00661621
53.44316445
53.89971528
56.59665618
42.38439194
42.18872162
42.11941337
44.02455482
43.66168771
41.70425568
42.11543359
42.21114957
44.61613378
56.16730642
51.0907595
51.58128352
50.25127273
44.56751359
45.5852561
41.08496523
41.76652779
49.4017795
60.34218764
60.62659698
58.72532996
57.50653626
59.50174588
59.97412231
53.0444653
52.81735143
55.84585356
56.33638459
53.36557025
53.23983404
58.36076172
58.33344406
57.78449641
56.02298074
57.33809917
57.46270539
56.9969424
57.1922662
55.83149439
56.63650431
57.74823551
57.81914456
57.57135103
57.66708232
56.51047709
57.09898068
58.37405514
58.37559969
57.41311934
57.09144083
59.2924325
53.87184554
55.33876715
55.67793415
54.53589858
54.94899087
53.49849187
55.12059478
56.55062723
56.79923497
56.00955716
56.27980275
54.84574616
58.97697126
57.89430256
57.64145045
46.0827304
47.25275775
56.28681621
55.66945266
53.75519708
53.89575276
42.61820069
51.11106878
51.67150061
52.42577885
51.84192699
43.03664345
57.21866685
55.50756074
55.76940426
41.44667857
41.32123308
41.14327575
45.84720856
44.35988452
41.540232
46.61126243
41.38027441
48.12240569
45.92908794
44.41145167
45.82740298
46.00267481
45.3248738
44.09519568
49.31508772
45.89721845
47.250828
47.8600246
49.90283649
44.42894796
45.63865634
45.22874212
46.08523684
45.920434
44.52413609
56.45275036
55.78154229
57.85153255
60.15096274
60.59145223
60.39604699
52.22433417
52.42428116
54.96092045
44.68519813
47.27354653
47.02311009
48.17849453
47.69000793
44.62335071
54.57473765
50.97918915
50.95251948
61.28028802
61.36570125
59.92067174
53.60744014
52.86732984
55.00817184
50.22699531
51.32479164
51.9372838
50.03802624
50.70027067
49.67923726
52.23428623
53.59613297
54.08147632
52.52119188
53.07530273
51.7634163
57.58763756
54.85473798
54.25026026
52.12545609
51.90380523
55.17098258
56.50129448
53.55573334
53.24457794
44.70675178
48.82007039
48.56177666
49.22165875
49.02873841
44.66022204
55.36879388
53.24257742
53.33685671
58.12614487
58.14296061
57.30418924
57.36129436
58.10927627
58.1045131
58.10841961
58.11081969
57.34688473
58.27540901
58.29757159
56.53246948
57.02903136
57.97331332
58.0095572
57.87925516
57.93054636
56.95342644
57.2569943
58.08537561
58.09932301
58.04055177
58.06572618
57.21688349
56.60369969
58.24063272
58.26165164
56.01022258
56.2388286
57.50186401
46.19924873
53.49205275
53.06043067
54.42212374
53.97392812
49.0743972
55.14036444
58.87383391
66.57934445
40.30838117
41.6503994
41.06060803
43.74944068
42.42533707
40.43844555
54.62634079
47.80672542
41.63184455
42.16926514
41.05913745
41.26389078
45.5234757
42.79147131
41.00379101
41.06895262
57.81410596
61.12009037
63.49486099
57.82680851
60.11023499
56.92915682
64.70711241
66.60053756
62.18351295
52.62308952
54.74830596
56.7313151
51.98155971
53.47354679
51.82929923
59.62952008
55.88143071
54.52495487
58.90375351
57.93501585
57.25482152
60.05404708
59.85678436
59.84087237
46.94281307
46.93270395
45.58898668
54.85994035
52.09848337
52.13890747
51.11017517
51.43621307
54.68417324
42.48332455
42.3298382
42.15860116
49.58828196
45.48855862
45.96349735
44.44926669
44.93729561
49.11547301
45.82192934
42.79332727
42.91610935
42.77578232
42.7527911
45.27542002
47.83156636
43.6259908
43.9700525
43.1218801
43.32223234
47.2831887
45.52247308
42.35942411
42.56053844
41.21104965
41.92045481
51.14844956
40.25418028
40.20692687
40.08595417
40.64697585
40.34971216
40.16341465
59.06482019
60.88530857
61.08509573
58.34905978
58.95650518
57.0229125
64.22947634
61.64154571
61.02259847
62.51443053
62.15558167
64.70094619
55.663679
52.5885096
52.3539994
53.26420913
53.36332327
56.41512071
43.4590962
44.51445003
43.90779859
45.91831624
45.21313662
43.45756881
44.24276404
43.05829809
42.90933971
43.49277658
43.26326194
43.90860679
41.81790781
41.50675263
41.35070761
41.41812726
43.02994083
42.25111793
42.36488365
41.49326228
41.60108596
40.33091481
40.82267304
41.53208104
39.71795061
40.24210668
39.84760907
50.25681932
50.417236
48.70544393
58.07648817
57.62128488
57.61541544
57.65331653
57.63256278
58.08984662
47.10745251
48.62758382
49.08456715
47.23542933
47.91006313
47.11472842
57.60849949
49.71262185
49.7497256
51.08088428
55.11109608
64.9607402
47.03910939
48.63974417
48.11335611
49.34145878
49.19071791
47.10918191
42.9842766
42.71970012
42.13511209
44.21914691
43.29594657
43.42957751
53.11518905
53.76524658
53.1770612
58.38946236
55.826008
54.91993156
57.59263809
56.66431332
59.36829358
41.26215292
40.00056651
40.07858413
40.00061008
39.97562241
40.83017668
43.07126515
40.31885769
40.68715378
51.47089549
55.17945894
54.81443565
55.80803837
55.50283245
52.156986
62.29567208
59.21601782
58.38750957
60.48778785
59.81976671
62.75209131
55.52889177
57.12220718
57.75615342
40.25201695
40.55873043
40.88129555
40.77325033
41.3216031
41.16358909
40.47468591
46.78259215
43.76597483
43.5342791
47.94819962
48.69276654
49.37069575
50.15684981
48.88764525
48.15281872
41.22868145
41.44490741
44.18650567
41.72045931
40.76722783
40.89903915
40.71840314
40.70938814
41.25599641
43.79964867
44.18959223
44.11250676
44.69808744
44.56289889
43.92896687
46.47239357
45.24816211
45.96431044
51.05958281
47.64082999
47.99968582
46.5407598
47.00837091
50.68147847
41.69338718
43.10914703
42.82787634
53.44929338
53.58804859
55.57615223
44.85974231
49.82271406
49.48574598
50.65741553
50.26736842
45.2189662
45.97639307
47.00489211
46.58010776
47.62724007
47.3824446
46.37953067
51.30748942
48.57744492
49.65442423
37.02746884
37.02554001
37.00794641
37.01990191
37.01077622
37.00277369
36.99320801
36.97156283
36.98809591
36.94869054
36.92954508
36.9755941
36.91350578
36.90073278
36.96607989
36.89150464
36.88281597
36.96025787
36.87667767
36.87240231
36.95706737
37.06159175
37.06157173
37.04638256
37.05133537
37.04416304
37.03265223
37.01017642
36.99600638
36.99352387
36.93503686
36.91306799
36.92390562
36.86096891
36.84538245
36.8703685
36.75587258
36.73702813
36.80664662
36.72140833
36.7095395
36.78926183
36.70124609
36.69698327
36.77920617
37.16357022
37.16393525
37.13005173
37.14598785
37.13243189
37.10225112
37.07391956
37.04800161
37.02803538
36.95604337
36.92188619
36.91385356
36.82119207
36.78744427
36.79490539
36.68125175
36.62240504
36.67544808
36.58761814
36.56260737
36.63310912
36.54488734
36.53455626
36.60995021
37.38736501
37.3893963
37.3148762
37.36434655
37.33783931
37.27078507
37.23966364
37.19851338
37.14852934
37.05438795
37.00291179
36.97401741
36.85000621
36.80206411
36.7932101
36.67548496
36.55592822
36.58333286
36.49006605
36.44136668
36.49816692
36.40705863
36.38556414
36.45279944
37.87558489
37.87907024
37.71722884
37.83419094
37.76660912
37.64542548
37.59568897
37.52257168
37.42061554
37.27771448
37.19447832
37.13258429
36.95755289
36.88557146
36.85698761
36.72479348
36.55508152
36.55010138
36.43991715
36.35378485
36.39266657
36.29269375
36.25194565
36.31203865
39.0163146
39.02760273
38.63340426
38.80578324
38.66237195
38.43955352
38.28307961
38.13538401
37.94511341
37.69338331
37.55245449
37.44652946
37.16961297
37.0569299
37.00490034
36.83075517
36.59082928
36.56772668
36.43985537
36.30672035
36.32459748
36.20690469
36.13671691
36.18861028
41.00258553
41.01297767
40.68970577
39.49455856
39.1726087
38.86601184
38.34478017
38.10812315
37.95222475
37.49842152
37.32735302
37.24962183
36.9931859
36.66365671
36.62295858
36.46877347
36.2976586
36.29700934
36.15085424
36.04341909
36.08485404
44.19395729
43.85376476
43.28675117
41.32824604
40.68817252
40.27642885
39.22719948
38.84767349
38.65796628
37.9277044
37.68139018
37.58375024
37.19969697
36.77056794
36.71405866
36.52125436
36.31030866
36.30172433
36.12005534
35.97150563
36.00380861
49.26068955
48.24689931
47.74526373
43.38006824
42.39391201
41.97282758
40.22551056
39.68501802
39.49223874
38.41672684
38.08610075
37.98430663
37.42376469
36.89699802
36.83287838
36.59087791
36.33587304
36.3215945
36.10889956
35.91887561
35.9431863
52.4735202
51.29877622
50.99909762
45.12460422
43.89170742
43.54945235
41.14904328
40.46867149
40.31405571
38.88666053
38.47817776
38.38341243
37.63741629
37.02635916
36.96288482
36.66809507
36.36991956
36.35169221
36.1125391
35.88364133
35.90109315
53.99711821
52.90668954
52.75144458
46.35523419
44.98579388
44.74938752
41.87912324
41.09667087
40.9885158
39.27850161
38.81084431
38.73067351
37.82051194
37.14647136
37.08858226
36.74328231
36.40722958
36.38759487
36.12181872
35.86151766
35.8740424
54.64436932
53.64739243
53.59671681
47.10566469
45.6888479
45.5233384
42.3792264
41.52472733
41.45780458
39.54313607
39.03922717
38.99944503
37.20003821
36.4238665
35.85584129
41.00962101
47.23023044
46.68382281
47.49390845
50.68881891
50.34179844
51.51659837
52.60881715
52.42664141
53.55707774
58.01293989
57.60086888
57.70358781
57.58556388
57.33590916
58.48320495
58.10026438
58.52402149
58.575198
57.74429154
57.77179797
56.81709101
59.01834293
57.97494412
57.76977891
58.65217941
58.70813218
58.54092721
58.07838711
58.08480128
57.46204703
56.61180586
57.68314965
57.70134398
57.78342411
53.51328497
53.44940191
54.45186508
46.26463763
45.69174262
45.2157103
57.88617272
58.07030034
58.05714298
58.03434653
58.03404479
57.97970323
57.57320176
58.06415439
58.06834286
58.05489952
58.05325239
57.77164619
42.31026096
42.75837953
42.76650948
42.81074006
42.8133524
42.44921398
51.06864148
49.31628113
48.02972323
58.14532328
58.20436016
57.62170865
57.3081799
58.02519839
58.08161575
58.69935866
58.61478781
59.33233695
59.18598754
58.81801618
58.76340964
54.05349357
54.13846696
55.89732902
41.996908
45.07105537
44.64301018
48.14948725
47.64548537
43.97308701
55.46666436
55.17213787
55.6967314
56.87686223
56.03925336
55.70560709
57.63243866
57.62983649
56.55813383
56.58261771
57.63530602
57.63202015
45.50270298
49.10386952
48.58775083
42.83708569
42.33697406
42.48185864
58.03460451
58.0376221
58.03486666
55.67834847
56.64833697
56.68157809
41.95190848
42.55188359
42.40996728
44.59574467
44.19114484
44.29451633
57.84387504
57.12646557
57.27125326
47.33197659
47.99063165
47.35587137
47.43927333
46.51638554
46.71247875
37.07816122
37.05995444
37.10256605
37.07995423
37.08000827
37.07363235
37.07818681
37.1005437
37.04477147
37.05996968
37.05634037
37.07825425
37.05905275
37.06794977
37.03570191
37.04950181
37.06675562
37.02497849
37.03586488
37.02445541
37.01289873
37.00211416
37.02027922
36.95828994
36.98180574
36.99034044
36.97308555
36.97617638
36.95591016
36.90991682
36.90871541
36.9357215
36.86274717
36.88618813
36.88291587
36.90802615
36.89510213
36.87631797
36.80736203
36.82424151
36.84387475
36.79302993
36.80869493
36.78803635
36.85949575
36.83277799
36.82034626
37.20005156
37.16014937
37.25505497
37.20464996
37.20392315
37.1945892
37.20203101
37.25277002
37.12771663
37.16149311
37.15520542
37.21518283
37.16928494
37.18363466
37.12937728
37.15179262
37.19334603
37.08890266
37.11639662
37.09638087
37.10697006
37.07424875
37.1036003
37.00750569
37.04237834
37.07140865
37.00272262
37.0197049
36.98820823
36.95121532
36.9341428
36.97162152
36.85946974
36.89705016
36.91007855
36.88434826
36.88850979
36.85441547
36.78911304
36.78683944
36.82346885
36.72027601
36.75156919
36.75004047
36.77114605
36.75889422
36.73306876
37.46341614
37.37907175
37.58671188
37.4772538
37.47328516
37.45998485
37.47358721
37.58461713
37.31212182
37.38693676
37.37941518
37.51481849
37.42201687
37.4399839
37.3541068
37.39359964
37.47427242
37.24873573
37.30794966
37.27581034
37.33328678
37.26022834
37.3089845
37.15360498
37.20845171
37.27438643
37.10816093
37.1532685
37.10470337
37.08037447
37.03881642
37.09683209
36.92321442
36.98048468
37.01574295
36.92817188
36.95145873
36.90001144
36.83381468
36.81557509
36.86812948
36.71761314
36.76567164
36.77878421
36.75161257
36.75664147
36.71288447
38.03109218
37.8580833
38.32276313
38.07746396
38.06782906
38.0205035
38.06284156
38.32325801
37.71095561
37.87700387
37.87121414
38.12723518
37.97002622
37.99954217
37.81617887
37.90126235
38.05729479
37.60415548
37.71315918
37.65962339
37.78283864
37.64110086
37.72985088
37.45746499
37.5504342
37.67604201
37.35242748
37.44284332
37.36068561
37.35039117
37.26742296
37.36182943
37.08525312
37.17526062
37.24561695
37.06045294
37.11295848
37.03340832
36.95946829
36.91956397
36.99989689
36.7734768
36.84428558
36.87546106
36.79603544
36.81781513
36.75418691
39.447067
38.98120448
40.29448283
39.54333104
39.54930474
39.316323
39.44753609
40.17161206
38.59762809
39.02719072
38.9740408
39.45041316
39.12390078
39.27357471
38.70870523
38.90170752
39.25929659
38.31723857
38.54995574
38.42346938
38.59356536
38.34876549
38.52613229
38.00286275
38.17451369
38.38231745
37.82156886
37.9861538
37.83805049
37.80395026
37.67438858
37.83491139
37.37500666
37.52096269
37.63021316
37.32780121
37.41734079
37.28961452
37.17941725
37.11401265
37.23891342
36.89350697
36.99920677
37.05174952
36.91174014
36.9525189
36.85699026
41.93404107
41.48596554
41.44796886
41.39301579
41.44593587
41.97748082
40.67728416
41.04658175
41.0361544
39.88285773
39.5109584
39.89492981
38.84837478
39.16536113
39.47045463
38.6202192
38.8757849
38.60042205
38.46036243
38.28433072
38.55564729
37.8047121
38.03379926
38.18397639
37.75549701
37.88861802
37.68551569
37.49600669
37.40748583
37.59621943
37.08478464
37.23755508
37.30874595
37.10892001
37.17158776
37.03084844
44.99304901
44.40132223
44.81080054
43.50840065
43.94779999
44.45623858
41.546322
41.11586579
41.8393149
39.96648729
40.50100341
40.85107242
39.80191313
40.13727908
39.65475019
39.26349721
39.07175511
39.49467917
38.35404295
38.69252789
38.85599819
38.34565385
38.50804689
38.2025246
37.88038891
37.78330269
38.05208046
37.3327312
37.54441505
37.62444876
37.38205244
37.46172598
37.26585463
49.16674516
48.71196216
49.77022217
46.98387043
47.78310922
48.20250433
46.90308148
47.35872862
46.62971467
43.18624292
42.79939219
43.85068657
41.15793702
41.91554669
42.23427473
41.21644935
41.56314524
40.84763621
40.09096809
39.91403013
40.49857569
38.9428488
39.39740383
39.55290583
39.04360838
39.21047398
38.78977997
38.28570766
38.18955998
38.54216589
37.60730727
37.87932127
37.95951729
37.70969346
37.79402964
37.53731004
51.81754483
51.56075484
52.7338017
49.52386312
50.48354384
50.74239104
49.93561303
50.2312105
49.26124281
44.49527821
44.20230557
45.46687868
42.19397411
43.12696772
43.37237778
42.55887409
42.84374543
41.93853315
40.80900686
40.66824777
41.38101714
39.48127579
40.03794885
40.1579979
39.7330878
39.8745164
39.34917891
38.65034202
38.5656651
38.99237328
37.86813269
38.19276884
38.26476797
38.03980083
38.1198065
37.8071181
53.15170162
53.0161731
54.10002135
45.38475793
45.19221939
46.5623391
42.97558202
44.01319498
44.16188618
43.61226284
43.80228512
42.77405952
41.34745171
41.24101074
42.05551942
39.90161728
40.52727628
40.62553923
40.31257219
40.40567048
39.80470546
38.94071143
38.87298742
39.35295382
38.09122903
38.45440952
38.51374805
38.33226285
38.40172575
38.04552598
44.31099578
44.44539747
43.35074249
40.71770336
40.77837285
40.12007904
38.56446265
38.60123676
38.22491163
50.59760841
49.73665508
49.26667606
50.4841591
50.06548812
51.03358661
55.29551717
54.15351192
53.96789596
54.48256012
54.32110542
55.43462899
52.21929065
51.1848833
50.80553665
51.82551365
51.49350659
52.57613392
56.55423674
55.78165127
55.74087776
55.82094822
54.76681168
54.62940609
55.01243531
54.8945879
55.91477955
41.39631927
40.9965681
40.94659498
40.50605844
41.73522778
41.23744973
41.27664013
41.04084554
41.12178679
41.62760851
45.31418608
45.95564387
46.44147279
44.95989645
45.46560038
44.95258944
46.88766566
46.13468994
45.55487572
48.39811188
49.30134402
49.63960642
48.58412596
48.96293403
48.08253893
51.1385987
49.98252933
49.58238452
50.37745606
51.35238702
51.54337938
50.95331214
51.17713281
50.16944748
53.38827812
52.25051046
52.03307331
49.91920098
53.11929162
52.95158042
53.49593189
53.33333207
50.34885968
57.38412861
57.51020909
57.97085126
53.89443536
56.331347
56.07228589
56.76541682
56.55624326
54.3830077
48.70287132
48.09503284
47.54391332
48.93164315
48.4279072
49.20827396
58.22065758
57.11774882
56.82762872
54.54927649
53.3723962
53.13698658
53.7791109
53.56441582
54.74930299
58.40150755
58.43933232
57.96717862
58.16048455
58.42655616
58.46563367
58.38665481
58.41686196
58.11675235
56.9105972
57.82238553
57.85998446
58.28845644
58.12371891
59.13172289
58.00262909
58.29620471
58.35196998
58.11954953
58.22578559
57.95590719