/*--------------------------------*- C++ -*----------------------------------*\
| =========                 |                                                 |
| \\      /  F ield         | OpenFOAM: The Open Source CFD Toolbox           |
|  \\    /   O peration     | Version:  v2012                                 |
|   \\  /    A nd           | Website:  www.openfoam.com                      |
|    \\/     M anipulation  |                                                 |
\*---------------------------------------------------------------------------*/
FoamFile
{
    version     2.0;
    format      ascii;
    class       surfaceScalarField;
    location    "0.99";
    object      phi;
}
// * * * * * * * * * * * * * * * * * * * * * * * * * * * * * * * * * * * * * //

dimensions      [0 3 -1 0 0 0 0];
oriented        oriented;


internalField   nonuniform List<scalar> 
5975
(
-0.0580056997
0.006436824065
0.05750671013
-0.01251796221
0.006580127719
0.01565112028
-0.1236446362
0.2436654981
-0.02732351434
0.01523945386
-0.1235879217
-0.2644359558
0.02403213211
0.2646527458
-0.02431983656
-0.2756831735
0.0211582983
0.2743420285
-0.01994771627
-0.2671559518
0.01626932822
0.2656833794
-0.01491207884
0.0104881525
-0.241990183
0.2403849794
-0.008909343475
-0.465337281
0.01381088381
0.4633901833
-0.01186378605
-0.4622427721
0.01036658125
0.4608512267
-0.008975035732
-0.01235578567
0.9116821897
0.008239022138
0.007793187433
-0.007973038563
0.905533828
-0.003927708791
0.9037141082
0.902755371
-0.1114251485
0.008535687196
0.1113121882
-0.01670350181
0.008280775007
0.02644097152
-0.2368575987
0.2359481146
-0.02553489498
-0.2623269437
0.02236596437
0.2620692819
-0.02220937527
-0.2704756761
0.02069996061
0.2732492476
-0.02361506201
-0.2609985752
0.02046918351
0.2570312454
-0.0165995749
0.01030215117
-0.2338317305
0.2324569385
-0.008931141313
-0.4616901772
0.01464231383
0.4601746099
-0.01312674655
-0.4594483653
0.01164306387
0.4578036472
-0.009998345691
-0.01180897953
0.9071776866
0.008088592665
0.008224889983
-0.008664324511
0.902389173
-0.004244489407
0.8992942731
0.8985108816
-0.2251111109
0.01785988548
0.2256974156
-0.01844619026
-0.2395152542
0.0238286192
0.2417729463
-0.02612876174
-0.2632302268
0.02937036201
0.2631033022
-0.02937221363
-0.2692832123
0.02683050085
0.2675971384
-0.02529785855
-0.2497875117
0.01931840352
0.2495765007
-0.01918533745
0.01105090075
-0.2312742664
0.2289769673
-0.008753601759
-0.4588380485
0.01635074431
0.4558342702
-0.01334696597
-0.4561297553
0.01197857075
0.4541999286
-0.01004874402
-0.01219061453
0.9027639707
0.008379512891
0.00822481754
-0.008715662959
0.8989142214
-0.004447676117
0.8950262863
0.8940632055
-0.2320794497
0.03056514714
0.2338303119
-0.03233880955
-0.2475934211
0.03763096985
0.2487392501
-0.03885403983
-0.2618022596
0.0394031613
0.2607092039
-0.03843827602
-0.2606935781
0.03234551243
0.257664013
-0.02943854062
-0.2403786989
0.01916727704
0.2366747924
-0.01550675061
0.01054916341
-0.2271412225
0.2265700572
-0.009977998092
-0.4552094916
0.01674275196
0.452628144
-0.01416140442
-0.4514403714
0.01086172503
0.4499454791
-0.009366832754
-0.01138850793
0.8968781236
0.008903884967
0.008370470056
-0.006310344613
0.8938360581
-0.004501873258
0.8932178149
0.8895613323
-0.2364925015
0.05117006658
0.2366140963
-0.05132546297
-0.2489766683
0.05049513249
0.2479204371
-0.04951849578
-0.2546044496
0.04379931152
0.2516044475
-0.04089951188
-0.2463112704
0.02964573242
0.2418614468
-0.02526461767
-0.2259082059
0.01196600971
0.2251968971
-0.01125504276
0.009796643094
-0.2250324706
0.2245618084
-0.009325980835
-0.4490449435
0.01586761783
0.4474090684
-0.01423174274
-0.4484580551
0.01266857942
0.4469453616
-0.01115588589
-0.01058285834
0.8900978972
0.009576555232
0.007786529543
-0.005919299654
0.8891724994
-0.004138304733
0.89143682
0.8854230276
-0.235194527
0.05250517293
0.2342691748
-0.05160752214
-0.2419577043
0.04634197066
0.239247671
-0.04368429387
-0.2402605986
0.03315676919
0.2359537844
-0.02889697381
-0.2273492102
0.01469126663
0.2242743745
-0.01162154767
-0.2238788254
0.01046846338
0.2234947489
-0.01008438689
0.008932202478
-0.2233033624
0.2229197478
-0.008548587843
-0.4458853058
0.01471854622
0.4444716546
-0.013304895
-0.445542939
0.01192563881
0.4441847936
-0.01056749339
-0.01343276854
0.88524598
0.009033179011
0.009251506721
-0.008824537875
0.8845642688
-0.001553658887
0.884165941
0.8838693687
-0.2307939268
0.02833468898
0.2295633348
-0.02711354987
-0.230139856
0.02056620233
0.2270928126
-0.01752868609
-0.2245403671
0.01125556916
0.2243443494
-0.01105955146
-0.2233509108
0.01036252015
0.2230889931
-0.01010060253
-0.2224813731
0.009253298218
0.2221843074
-0.008956232604
0.008042003499
-0.2218975464
0.2215838886
-0.007728345652
-0.4431637082
0.01344344337
0.441956749
-0.01223648423
-0.4429380002
0.0110361206
0.4417369286
-0.009835049034
-0.01260477032
0.880809514
0.008387229844
0.008654006455
-0.008319401769
0.8802789002
-0.004130726365
0.8799772657
0.8797386423
-0.2280914525
0.01016347516
0.2280994311
-0.01017145372
-0.2257583031
0.01006866432
0.2256834534
-0.009993814574
-0.2238408637
0.009660783002
0.2236965187
-0.009516437971
-0.2224067248
0.008997219531
0.2222087061
-0.008799200767
-0.2213952784
0.008146740811
0.221162149
-0.007913611397
0.00718119593
-0.2207517436
0.2204935505
-0.006923002777
-0.4408432635
0.01215105724
0.4398167193
-0.01112451302
-0.4406407973
0.01008683117
0.4395868817
-0.009032915575
-0.01166801044
0.8768011958
0.00769574007
0.007980588548
-0.007734914964
0.8763458048
-0.00385019987
0.8760925506
0.8758884425
-0.228110959
0.008737541208
0.228110944
-0.008737526201
-0.2254860716
0.008650620063
0.2254277659
-0.008592314377
-0.2233188944
0.008337155571
0.2232086484
-0.008226909587
-0.2216861808
0.007827952245
0.2215325769
-0.007674348252
-0.2205381517
0.007161568224
0.2203523216
-0.006975738132
0.006382468651
-0.2198122363
0.2195986183
-0.006168850667
-0.4388695546
0.01090910912
0.4379949516
-0.01003450614
-0.4386287964
0.009138979366
0.43770734
-0.008217523004
-0.01069048943
0.8732079125
0.006999278624
0.00728449414
-0.007114076649
0.872769392
-0.003549017337
0.8725274913
0.8723394251
-0.2281017939
0.007559148416
0.2280961966
-0.007553551188
-0.2252705484
0.00747622222
0.2252231989
-0.00742887278
-0.2229156236
0.007226302355
0.2228287905
-0.007139469301
-0.2211226321
0.006824800215
0.2210008251
-0.006702993174
-0.2198512478
0.006292608885
0.2197009607
-0.006142321869
0.005656718298
-0.2190374306
0.2188602385
-0.005479526186
-0.4371863424
0.009748247527
0.4364388269
-0.009000732049
-0.4368716419
0.008227344287
0.4360669811
-0.00742268356
-0.009718553761
0.8700027676
0.006325262813
0.006598435853
-0.006488672864
0.8695395111
-0.003243367791
0.8692821862
0.8690960573
-0.2280735301
0.006574101713
0.228064354
-0.006564925633
-0.2250935625
0.006494702131
0.2250540016
-0.006455141282
-0.2225949378
0.006289856054
0.2225247904
-0.006219708651
-0.2206724981
0.005965927456
0.2205740207
-0.005867450081
-0.2192928152
0.00553353016
0.219169555
-0.005410269996
0.00500812903
-0.2183934993
0.2182450559
-0.00485968565
-0.4357468248
0.008686813117
0.435106008
-0.008045996347
-0.4353379702
0.007376585601
0.4346348742
-0.006673489655
-0.008786567229
0.8671519653
0.00569103007
0.005946339473
-0.005882980439
0.8666359243
-0.002945706551
0.8663449123
0.8661503508
-0.2280330988
0.00574288836
0.2280216605
-0.005731450058
-0.2249445655
0.005667016223
0.2249108521
-0.005633302797
-0.2223339376
0.005495645827
0.2222761275
-0.005437835782
-0.2203063849
0.005229380779
0.2202254541
-0.005148449966
-0.2188327261
0.004872813588
0.2187303613
-0.004770448845
0.004433839306
-0.2178531677
0.217727694
-0.004308365553
-0.43451152
0.007730002773
0.433959753
-0.007178235707
-0.4339981665
0.00659703959
0.4333828495
-0.005981722624
-0.007914495538
0.864619581
0.005106625857
0.00534025391
-0.005311751979
0.8640331807
-0.002663726178
0.8636968865
0.8634866246
-0.2279850623
0.005034974538
0.2279722466
-0.005022158871
-0.2248169233
0.004962708347
0.2247877887
-0.004933573696
-0.2221176264
0.004817174642
0.2220692508
-0.004768799055
-0.2200040456
0.004595075436
0.2199366412
-0.004527671102
-0.2184491954
0.004297418694
0.2183632855
-0.004211508879
0.003927153767
-0.2173958102
0.2172889389
-0.003820282422
-0.4334466291
0.006877209784
0.4329691999
-0.006399780598
-0.4328255626
0.005893348554
0.4322857783
-0.005353564226
-0.00711465225
0.8623696982
0.004577430735
0.004787104366
-0.004784533431
0.8617030619
-0.002402523857
0.861314877
0.8610841007
-0.2279324638
0.004430263157
0.2279188544
-0.004416653687
-0.2247061509
0.004361593015
0.2246807023
-0.004336144414
-0.2219357562
0.004236546862
0.221894778
-0.004195568649
-0.2197511423
0.004049054363
0.2196943674
-0.00399227946
-0.2181261659
0.003797950248
0.2180533946
-0.003725178938
0.003482976299
-0.217005614
0.2169139501
-0.003391312448
-0.4325240159
0.006124082943
0.4321087759
-0.00570884291
-0.4317965485
0.005265746041
0.431321547
-0.004790744516
-0.006391472873
0.8603684225
0.004103236777
0.004289511747
-0.004305454894
0.8596170439
-0.002164469947
0.859173892
0.8589196308
-0.2278772893
0.003915363762
0.2278632544
-0.003901328835
-0.2246090394
0.003850118555
0.2245865971
-0.003827676266
-0.2217810653
0.003741566076
0.2217459784
-0.003706479235
-0.2195372868
0.003581585802
0.2194889684
-0.003533267453
-0.2178516139
0.003367662348
0.2177894173
-0.003305465728
0.003097471967
-0.2166703103
0.2165911273
-0.003018289001
-0.4317205789
0.005464604887
0.4313574475
-0.005101473475
-0.4308906255
0.004711984504
0.430471008
-0.004292367028
-0.005747667596
0.8585837341
0.00368486308
0.003847492902
-0.003877273918
0.8577466502
-0.001951205502
0.8572478236
0.8569684253
-0.2278208101
0.003477704852
0.2278065921
-0.003463486891
-0.2245231262
0.003415642716
0.2245031585
-0.00339567508
-0.2216481504
0.003320519858
0.2216178144
-0.003290183806
-0.2193546593
0.003182674129
0.2193131408
-0.003141155625
-0.2176162376
0.002998726911
0.2175626158
-0.002945105096
0.00276504
-0.2163800915
0.2163111969
-0.002696145438
-0.4310169752
0.004891974909
0.4306975183
-0.004572518019
-0.4300897595
0.004228323516
0.429717313
-0.003855877066
-0.005181565122
0.8569862091
0.003319701629
0.003459388522
-0.003499599775
0.8560646849
-0.001762741841
0.8555109656
0.8552056835
-0.2277638863
0.003105931413
0.2277496573
-0.003091702377
-0.2244464659
0.003046811746
0.2244285515
-0.003028897423
-0.2215328712
0.002962722899
0.221506404
-0.002936255691
-0.219197238
0.002842856239
0.2191612353
-0.002806853482
-0.2174127203
0.0026832667
0.2173660951
-0.002636641506
0.00247948756
-0.2161270273
0.2160666453
-0.002419105626
-0.4303970231
0.004399439179
0.4301141138
-0.004116529911
-0.4293782432
0.003810462999
0.4290457473
-0.003477967119
-0.004690392706
0.8555488696
0.00300505442
0.003122677708
-0.003171116762
0.8545454089
-0.001598582071
0.853938431
0.8536071014
-0.2277070919
0.002793250978
0.2276929542
-0.002779113309
-0.2243774603
0.002736759835
0.224361238
-0.002720537495
-0.2214319391
0.002661701872
0.2214086184
-0.002638381209
-0.2190602438
0.00255642637
0.2190287118
-0.002524894307
-0.2172351538
0.002416605262
0.2171942242
-0.002375675747
0.002237218201
-0.2159044909
0.2158510618
-0.002183789072
-0.4298470313
0.003981150991
0.4295945484
-0.003728668103
-0.4287422656
0.003454422209
0.4284432997
-0.003155456308
-0.004270802966
0.8542467083
0.002738043281
0.002834921029
-0.002889986768
0.8531645928
-0.001457921493
0.8525063657
0.8521491799
-0.2276507383
0.002532935547
0.2276367358
-0.002518933003
-0.2243147269
0.00247868599
0.2242998795
-0.00246383857
-0.2213426485
0.002410953497
0.2213218741
-0.002390179088
-0.2189397801
0.002317471551
0.2189118608
-0.002289552193
-0.2170786991
0.002193661921
0.2170424099
-0.002157372703
0.002034321501
-0.2157068729
0.2156595131
-0.001986961762
-0.4293549482
0.003630706274
0.4291271088
-0.003402866826
-0.4281695099
0.003154840155
0.4278983017
-0.00288363202
-0.003918257828
0.8530575464
0.002515602281
0.002591817347
-0.002653483277
0.8518998182
-0.0013395161
0.8511923985
0.8508096638
-0.2275949226
0.002321248012
0.2275810529
-0.002307378324
-0.224257041
0.002268785398
0.2242432771
-0.002255021453
-0.2212627229
0.002206849399
0.2212439673
-0.002188093825
-0.2188326032
0.002122713759
0.2188075473
-0.002097657803
-0.2169393632
0.002011621571
0.2169067801
-0.001979038502
0.001868426475
-0.2155300843
0.2154878422
-0.001826184395
-0.4289096219
0.003343800128
0.4287016155
-0.003135793832
-0.4276489074
0.002909006173
0.4274003944
-0.002660493168
-0.003629524487
0.8519587355
0.002335644369
0.002392691026
-0.00245970809
0.8507300018
-0.001242389515
0.8499750799
0.8495672743
-0.2275396352
0.002153964494
0.2275258951
-0.002140224418
-0.2242032937
0.002102879053
0.224190352
-0.002089937299
-0.2211901638
0.002045378736
0.2211729605
-0.002028175388
-0.2187358696
0.00196842647
0.2187130127
-0.001945569529
-0.2168135396
0.001867096379
0.2167837952
-0.001837351985
0.001736110641
-0.2153700352
0.2153311825
-0.001697257924
-0.4285021544
0.003114533016
0.428310409
-0.002922787692
-0.4271704465
0.002712733364
0.426939022
-0.002481308864
-0.003401766348
0.8509380429
0.002193384121
0.002229074825
-0.002307026178
0.8496352616
-0.001166113095
0.8488341668
0.8484011612
-0.2274848864
0.002026887838
0.2274712825
-0.002013283937
-0.2241524872
0.0019768331
0.2241401338
-0.001964479654
-0.221123189
0.001922550965
0.221107122
-0.001906484008
-0.2186470495
0.001850864271
0.2186258074
-0.001829622161
-0.2166979466
0.001756722055
0.2166703052
-0.001729080676
0.001634866963
-0.2152220773
0.2151858552
-0.001598644869
-0.4281250813
0.002941104976
0.4279454208
-0.002761444556
-0.4267245977
0.002564574614
0.4265083382
-0.002348315183
-0.003230661004
0.8499644107
0.002091551128
0.002112741985
-0.002191596
0.8485961966
-0.001107788397
0.8477503592
0.8472933728
-0.2274306635
0.001937774555
0.2274171824
-0.001924293538
-0.2241036874
0.001888370044
0.2240916967
-0.00187637927
-0.2210601609
0.001836148867
0.2210448417
-0.001820829649
-0.2185638623
0.001767951645
0.2185437004
-0.00174778972
-0.2165897405
0.001678655773
0.2165635375
-0.001652452747
0.001563106966
-0.2150832601
0.2150488522
-0.001528699117
-0.4277702153
0.002820280724
0.4275988547
-0.00264892015
-0.4263051397
0.002460854489
0.4260981247
-0.002253839562
-0.0031235793
0.8490324983
0.002015723398
0.002039768359
-0.002120242458
0.8475928597
-0.001074650561
0.8467047673
0.8462187222
-0.2273768718
0.001885890902
0.2273634766
-0.001872495656
-0.2240559868
0.001836703101
0.2240441259
-0.001824842206
-0.2209995432
0.001785372667
0.2209845906
-0.001770420084
-0.2184842113
0.001718946727
0.2184646175
-0.001699352986
-0.2164863011
0.001632239592
0.2164608844
-0.001606822908
0.001520204009
-0.2149506371
0.2149174442
-0.001487011052
-0.4274305011
0.002750185825
0.4272646793
-0.002584364078
-0.4259039142
0.002402806869
0.4257084503
-0.002207343055
-0.003039362365
0.001943157542
0.001998523255
-0.002059871209
-0.001037669545
-0.006663172539
0.02888469855
-0.02903666018
0.006815134167
0.006677549246
-0.01285237315
-0.05849404834
0.1231022892
-0.01617812617
-0.1241940552
0.01726989218
-0.009077912319
0.05496303152
-0.05493848468
0.009053365478
0.006666102984
0.02865541963
-0.01812291851
0.001116600433
-0.05173094846
-0.05176579431
0.2312718141
-0.02225954175
0.01354167993
0.01315807071
-0.1180330713
-0.1176789517
0.01667366213
0.1220797474
-0.009880499145
0.111614924
-0.1112602869
0.00952586205
0.008599432201
0.05489928652
0.1215877364
-0.02076056262
-0.1228371315
0.01091479133
0.01109516635
-0.05375036473
-0.009591529572
0.009952180138
0.05338971416
-0.009894220078
-0.05421724417
0.01036109952
0.05490769716
-0.009592563468
-0.05520935377
0.1183024493
-0.01737414959
-0.1187012978
0.01777299804
-0.02003160391
0.1203828295
0.01052488532
0.0107116255
-0.03042035676
-0.007221690637
0.007581607242
0.03006044015
0.05541735277
-0.01182134326
-0.05587812252
0.006113457091
0.006168655917
-0.007276730028
-0.03071742695
0.00757380022
0.03027708626
-0.007060331714
-0.03049348457
0.06111650089
-0.01238744934
-0.06151720972
0.01278815816
-0.01150383876
0.01186183009
0.05505936145
-0.0209170133
0.01037378449
-0.1119976082
-0.112450773
-0.02245357701
0.2331016936
-0.2311263128
0.02046994856
0.23305021
0.01395178956
0.01071078606
0.05948748316
-0.01162352541
-0.0598866598
0.01202270205
-0.01225372433
0.01267220221
0.06069802302
0.03004764119
-0.006992245568
0.1152198014
-0.01167817336
-0.1152647953
0.01172316729
-0.01651516776
0.01643860666
0.1183790104
0.05448226849
-0.009166100894
-0.01303475818
0.1103559937
-0.1100312345
0.01270999898
0.01773577526
-0.0172565202
-0.0004792550603
0.03052031606
-0.007311327543
-0.03074584633
0.007536857813
0.04888687044
-0.008684438483
-0.04912877342
0.05169154752
-0.008075738199
-0.05245025636
0.008834447031
0.007005233962
-0.0262429626
0.02732365398
-0.008085925337
0.00646159252
0.02815141691
-0.007025830587
-0.02758717885
0.02943468038
-0.006970452009
-0.0294998944
0.007035666027
0.02614841991
-0.02458484879
0.004898021405
-0.01788291833
0.02527019353
-0.0003820412389
0.02775613561
-0.007615707378
-0.02779984447
0.007659416239
-0.005765218317
0.004005199764
0.02790843846
0.02931124125
-0.006385377792
-0.02251410416
0.02728790488
-0.006932985544
-0.02735977328
0.007004853947
-0.007443249116
0.007394490342
0.02780489439
0.02731904205
-0.006273299833
-0.02738296311
0.006337220901
-0.006727381542
0.006787423883
0.02722786254
0.02202398236
-0.006606144645
-0.01746047819
-0.0004224401369
-0.007176826572
0.00715056667
0.03054657596
0.02330673155
-0.00528866732
-0.0002822889674
-0.008664060174
-0.03503938063
-0.01525947844
-0.124563284
-0.02312995924
0.2590513702
-0.2600289226
0.02406853003
-0.006740485715
0.006924645203
0.02925052089
0.02902808564
-0.006641887048
0.02863022186
-0.007309477434
-0.0289364518
-0.006171105979
0.004456489423
0.02974480343
-0.006946744889
0.03060141185
0.03075866797
-0.007159713334
-0.03091028217
0.03073167991
-0.006772182972
-0.03082458668
0.006865089747
-0.01673399985
0.0236181444
-0.006519271278
-0.0003648732726
-0.01616982972
-0.0005641701275
-0.01540666015
0.01597799966
-0.03090196564
0.02328554438
-0.007790238892
-0.00691260396
-0.0003712172788
-0.00601332374
0.02661832753
-0.02672373376
0.006118729968
-0.006154602554
0.006413409257
0.02706023534
0.02852762352
-0.0001995276982
-0.03559725423
0.02639623923
-0.008055505201
-0.006835652088
-0.0002339786181
0.01608370381
-0.03290568021
-0.007762872386
0.0165641837
-0.000480479897
0.02177058763
-0.0003083825174
-0.007280410503
-0.0003550761772
0.008096212667
-0.02828360275
-0.007612454393
0.02473445829
-0.03280807534
0.02587460325
0.02607980521
-0.0003040178153
-0.006352221003
-0.0003760491334
-0.006727385287
-0.02444147699
0.02487801067
-0.00682191147
0.006110704181
-0.007266636793
-0.005544386851
0.02355354236
-0.02501182018
0.02563447
-0.006167036676
-0.006739954151
-0.004269390138
0.02792547296
-0.0003493512715
-0.0278464223
0.02962994958
-0.006052917419
-0.006738850382
-0.02990813081
-0.008002430459
0.02924650109
0.006783553422
-0.007061734651
-0.0003303542473
-0.02195094664
-0.2656785449
-0.01872652774
0.2751193602
-0.2761738217
0.01965987654
-0.01977577205
-0.2747580702
-0.0177628308
0.2713718123
-0.2725364018
0.01880456259
-0.01660625756
-0.2684238197
0.2494901296
-0.01147711361
-0.251607318
0.01354097445
0.0563771955
-0.01148902534
-0.05670951342
0.05807906454
-0.01050053183
-0.05848054328
0.01090201057
-0.01137641819
0.01174741597
0.05911648539
-0.02090528431
-0.2382123807
-0.02125752032
0.2564856366
-0.2590034239
0.02370166852
0.02370331984
0.2593324296
-0.0220236263
-0.2616551043
-0.0244038526
0.2725374965
-0.2726604805
0.02438956485
0.02220912113
0.2739472761
-0.02124894084
-0.273767198
-0.01705615733
0.2654506165
-0.267071659
0.01855042358
0.01780383194
0.2697100144
-0.01554935622
-0.2626156738
0.2407238645
-0.01124864255
-0.2433072215
0.01379788785
0.01215045468
0.2477746896
0.1115326004
-0.01316479106
-0.1114025675
0.1139501152
-0.01307564784
-0.1141014646
0.01322699725
-0.01557995873
0.01601560023
0.1147841599
-0.02451945178
-0.2374799245
-0.02715906632
0.2583658262
-0.258103281
0.02679088274
0.02226624168
0.2565075668
-0.02710025581
-0.2634153627
-0.02485642264
0.2700420687
-0.2712505189
0.02590600069
0.02153741099
0.2715531546
-0.02659400718
-0.2676938457
-0.02353376582
0.2581439979
-0.2600379002
0.02532010771
0.02186475119
0.2639361545
-0.01665829719
-0.2567447153
0.2313049081
-0.00935427025
-0.2333940153
0.01143550604
0.01242511804
0.2385709876
-0.02445323148
0.228586406
-0.2266495563
0.2233186384
-0.1106304152
-0.02669550843
-0.2298537182
-0.03349177763
0.243246932
-0.2412089184
0.0313989999
0.02091738968
0.2359919673
-0.03517762962
-0.2459788757
-0.03697837805
0.259237428
-0.2593386216
0.03696061155
0.02886128646
0.2587646369
-0.03640767647
-0.2625034528
-0.03149039591
0.2628754826
-0.2651361245
0.033611443
0.02805338099
0.2686632149
-0.02897515737
-0.263341314
-0.01980191929
0.2469054474
-0.250238481
0.02305387253
0.02149485376
0.2558576056
-0.01645907478
-0.2437772067
0.2273658193
-0.0107033952
-0.2279811217
0.0113186976
0.0129276381
0.2294260557
-0.04725375799
0.2331438948
-0.2324939304
0.2302073303
-0.04777001494
-0.2360090932
-0.04838336479
0.2461280444
-0.2462472822
0.04843211364
0.03599318936
0.2448227946
-0.04797369074
-0.2494684784
-0.04384089826
0.2542763171
-0.2562791316
0.0457366799
0.03978715909
0.2587345215
-0.041424943
-0.2571303961
-0.03139871949
0.2498788898
-0.2537257841
0.03514908303
0.03486039753
0.2602293903
-0.02733902799
-0.2504550205
-0.01421635969
0.2305598883
-0.2350203128
0.01865100079
0.0227657369
0.2432381828
-0.01154645957
-0.2285825638
0.2251876946
-0.01000037468
-0.2256902824
0.0105029625
0.01113609695
0.2267788858
-0.054612014
0.2329499323
-0.2333369736
0.2334785894
-0.05391338513
-0.235923773
-0.04949271427
0.2408428543
-0.2427878204
0.05138200521
0.05106414321
0.2454897109
-0.04715747803
-0.2443542913
-0.03748828799
0.2416952538
-0.2454126138
0.04114000408
0.04620734225
0.2517691547
-0.03344722163
-0.2443635613
-0.01958970224
0.231586317
-0.2364534776
0.02442340139
0.03376383547
0.2456786719
-0.01465919123
-0.2322983482
-0.01078889369
0.2240471409
-0.2244556373
0.01119739007
0.01608379261
0.2264311842
-0.01037847048
-0.2242892486
0.2234282395
-0.009156272949
-0.2238323344
0.009560367804
0.01027337388
0.2247109638
-0.03648473276
0.2303407598
-0.2310733944
0.2324152551
-0.03527313428
-0.2320202255
-0.02871408426
0.2308265282
-0.2335122823
0.03137875809
0.04853859931
0.238597934
-0.02563742775
-0.233237109
-0.01435045246
0.2254381661
-0.2294650152
0.01836829562
0.03706734434
0.2377326479
-0.01176300822
-0.2271325622
-0.01073787405
0.2236165328
-0.2238848908
0.01100623206
0.01958486777
0.2266762272
-0.01045574621
-0.2236330386
-0.009548215938
0.2226678991
-0.2229785808
0.009858897578
0.01084933352
0.2236662708
-0.009231834905
-0.2227977541
0.222017133
-0.008264339831
-0.2223412218
0.008588428627
0.009314819541
0.2230456224
-0.0105661542
0.2287158285
-0.2286903901
0.2296104693
-0.01057628919
-0.2280813175
-0.0104676607
0.2263038744
-0.2263630809
0.01052686722
0.02320153418
0.2281798838
-0.01038731598
-0.2258386478
-0.0100291161
0.2242775873
-0.2244155982
0.01016712693
0.01196706394
0.2247255261
-0.009873890498
-0.2239960893
-0.009316862483
0.2227235843
-0.2229231963
0.00951647451
0.01061100762
0.2233680453
-0.009105092381
-0.2226184949
-0.008410125851
0.2216083267
-0.2218486159
0.008650415045
0.009544172364
0.222377025
-0.008162863623
-0.2216425406
0.2208807661
-0.007390274795
-0.2211423346
0.007651843308
0.008349548442
0.221709588
-0.00906561821
0.2287833626
-0.2287718267
0.2287382459
-0.009067391275
-0.2281091859
-0.008977441529
0.2261013653
-0.2261476806
0.009023756862
0.01012401503
0.2262485237
-0.008915678699
-0.2255478344
-0.008644023547
0.2238138878
-0.2239182944
0.008748430126
0.009789046964
0.2241493234
-0.008526489835
-0.2234364281
-0.008101594129
0.2220470346
-0.2222000014
0.008254560943
0.009183541646
0.2225372621
-0.007938321497
-0.2218494535
-0.007394819513
0.2207795484
-0.2209688373
0.00758410848
0.008372793018
0.2213822745
-0.00719847806
-0.2207344932
0.2199580998
-0.00657445758
-0.2201711444
0.006787502213
0.007430193137
0.2206317689
-0.00783526892
0.2288030076
-0.2288014939
0.2287919494
-0.007830848762
-0.228106214
-0.007751421565
0.2259371261
-0.2259754243
0.007789719817
0.008694628618
0.2260573567
-0.007701688281
-0.2253202817
-0.007487661837
0.2234553043
-0.2235371417
0.007569499264
0.008435114442
0.2237159289
-0.007395710631
-0.2230075748
-0.007062492975
0.2215203802
-0.2216406336
0.0071827464
0.007971694641
0.2219032922
-0.006933638353
-0.2212514868
-0.006500378036
0.2201198195
-0.2202715111
0.006652069627
0.00734042233
0.2206006943
-0.006342090226
-0.2200095356
0.2192025997
-0.005832569252
-0.2193776225
0.006007592118
0.00658580914
0.2197547593
-0.006806360173
0.2287925111
-0.2287972634
0.2288026761
-0.006797931309
-0.228081959
-0.00672606372
0.2257985999
-0.2258312553
0.006758719169
0.007512930936
0.2259004174
-0.006684762042
-0.2251348642
-0.006511183958
0.2231693205
-0.2232352788
0.006577142238
0.007303642887
0.2233779638
-0.006437326541
-0.2226687952
-0.006169958333
0.2211009156
-0.2211974836
0.006266526316
0.006938397218
0.2214067832
-0.006066249471
-0.2207762069
-0.005715080017
0.2195862184
-0.2197096469
0.005838508539
0.006436447181
0.2199759812
-0.00558568815
-0.219422207
0.2185781668
-0.005164955409
-0.2187234016
0.005310190156
0.005824145478
0.2190351725
-0.005937047688
0.2287628836
-0.2287716657
0.2287865838
-0.005926080216
-0.2280440662
-0.0058603004
0.2256789843
-0.2257073715
0.005888687599
0.006526179711
0.2257671223
-0.005825270403
-0.2249795955
-0.005681428949
0.2229356703
-0.2229899767
0.005735735355
0.00635256171
0.2231066149
-0.005620862102
-0.2223945044
-0.005402263617
0.2207602699
-0.2208392066
0.005481200299
0.00605759009
0.2210092529
-0.005317394492
-0.2203912541
-0.00502861956
0.2191483345
-0.2192501255
0.005130410475
0.005650990501
0.219468758
-0.0049215256
-0.21893982
0.218056762
-0.00457043786
-0.2181784494
0.004692125194
0.005147454517
0.2184388413
-0.005200267472
0.2287208689
-0.2287322613
0.228753336
-0.0051877345
-0.2279975953
-0.005127114339
0.2255740736
-0.2255990917
0.005152132412
0.005694497147
0.2256515033
-0.005096937808
-0.2248470999
-0.004975732047
0.2227412251
-0.2227866967
0.005021203644
0.005547533995
0.2228837821
-0.004925228834
-0.2221681296
-0.004743671235
0.2204791445
-0.2205446539
0.004809180605
0.005304642745
0.2206850079
-0.004673211021
-0.2200745058
-0.004432673435
0.2187844518
-0.2188694205
0.004517642123
0.004970031403
0.2190511167
-0.004343024019
-0.2185388448
0.2176172749
-0.004047129532
-0.2177201848
0.004150039453
0.004550934845
0.2179396665
-0.004573356567
0.2286708524
-0.2286839303
0.2287089811
-0.004559901744
-0.2279459187
-0.004503785186
0.2254810214
-0.2255032964
0.004526060139
0.004986994172
0.2255497878
-0.004477480797
-0.2247324553
-0.004374011278
0.2225770627
-0.2226156452
0.004412593801
0.004860775492
0.2226976242
-0.004331334366
-0.2219784331
-0.004178576981
0.22024401
-0.2202990677
0.004233634686
0.004657742289
0.2204164777
-0.004119361647
-0.2198103577
-0.003916765946
0.2184787308
-0.2185504107
0.003988445896
0.004378790424
0.2187030801
-0.003840965035
-0.2182019669
0.2172436556
-0.003589350211
-0.2173314214
0.003677116005
0.004026411696
0.217518017
-0.00403743163
0.2286157141
-0.2286298634
0.2286574619
-0.004023473112
-0.2278912478
-0.003971334709
0.2253977623
-0.2254177568
0.00399132919
0.004383253164
0.2254593613
-0.003948189716
-0.2246321844
-0.003858947661
0.2224368724
-0.2224699559
0.0038920312
0.004273630624
0.2225399789
-0.003822497516
-0.2218175154
-0.003692606977
0.2200451341
-0.2200918923
0.003739365156
0.004101846025
0.2201912183
-0.003642333992
-0.2195875598
-0.003470079215
0.2182194134
-0.2182804325
0.003531098353
0.003866728649
0.2184099524
-0.003405431327
-0.2179162618
0.2169235754
-0.003189787603
-0.2169989846
0.003265196859
0.003567768188
0.2171588637
-0.003580754131
0.2285573754
-0.2285721805
0.2286013708
-0.003566562667
-0.2278350016
-0.003517915067
0.2253226655
-0.2253407531
0.00353600268
0.003869599701
0.2253782812
-0.00349737071
-0.2245436705
-0.003419675459
0.2223159506
-0.2223445905
0.00344831531
0.003773442821
0.2224049957
-0.003388241058
-0.2216795848
-0.003276717377
0.2198752277
-0.2199153223
0.003316811996
0.003626530652
0.2200001893
-0.003233629131
-0.2193977475
-0.003085844743
0.2179974716
-0.2180498724
0.003138245562
0.003426341346
0.2181607344
-0.003030240214
-0.2176718422
0.2166472707
-0.002843970053
-0.2167125532
0.002909252578
0.003170472532
0.2168505748
-0.003192322599
0.22849719
-0.2285123489
0.2285424567
-0.003178087555
-0.2277781213
-0.003132507668
0.2252544143
-0.2252708965
0.003148989867
0.003433303371
0.2253050049
-0.003114120217
-0.2244648533
-0.003045881668
0.222210682
-0.2222356965
0.003070896179
0.003348184577
0.2222882859
-0.003018526896
-0.221560226
-0.002921893363
0.2197286953
-0.2197633916
0.002956589741
0.003221313001
0.2198365888
-0.00288462677
-0.2192345046
-0.002756720143
0.217805847
-0.2178512352
0.002802108345
0.003049239467
0.2179469591
-0.002708491006
-0.2174609494
0.2164069076
-0.002546312481
-0.2164638602
0.002603265025
0.002828378802
0.2165839319
-0.002865573379
0.2284361294
-0.2284514338
0.2284819743
-0.002851410067
-0.2277212552
-0.00280847241
0.2251919012
-0.2252070457
0.002823616837
0.003062939493
0.2252382865
-0.002791862382
-0.2243940704
-0.002731345403
0.2221181822
-0.2221402448
0.002753408076
0.002986947385
0.2221864575
-0.002707304378
-0.2214559801
-0.002622730599
0.2196011041
-0.2196314317
0.002653058116
0.002876380577
0.2196951709
-0.002590175561
-0.2190927989
-0.002478383365
0.217638872
-0.2176785686
0.002518079959
0.002727129919
0.2177619837
-0.002436149508
-0.2172773876
0.2161960097
-0.002293611956
-0.2162461639
0.002343766174
0.002534876952
0.2163515183
-0.002593777421
0.2283748445
-0.2283901631
0.2284208092
-0.002579737764
-0.227664778
-0.00253899943
0.2251341233
-0.2251481767