/*--------------------------------*- C++ -*----------------------------------*\
| =========                 |                                                 |
| \\      /  F ield         | OpenFOAM: The Open Source CFD Toolbox           |
|  \\    /   O peration     | Version:  v2012                                 |
|   \\  /    A nd           | Website:  www.openfoam.com                      |
|    \\/     M anipulation  |                                                 |
\*---------------------------------------------------------------------------*/
FoamFile
{
    version     2.0;
    format      ascii;
    class       volScalarField;
    location    "0.73";
    object      nut;
}
// * * * * * * * * * * * * * * * * * * * * * * * * * * * * * * * * * * * * * //

dimensions      [0 2 -1 0 0 0 0];


internalField   nonuniform List<scalar> 
3019
(
0.04950725498
0.2070874834
0.2721357995
0.3426036127
0.4243060996
0.5417236435
0.7287323272
0.949206888
1.158612211
1.152542065
1.149629656
1.148791655
0.1004179314
0.3082024995
0.382968053
0.446403594
0.5185685604
0.6284503174
0.7980516348
0.9928929512
1.160016837
1.153542023
1.150295351
1.149342398
0.1436568798
0.3965171247
0.5884936636
0.6086448444
0.6573690433
0.7515437561
0.9027609739
1.067936032
1.161360589
1.154603395
1.151128222
1.150077691
0.158843072
0.4113908325
0.6741560575
0.8520932412
0.8465588761
0.9118353242
1.040054051
1.1690344
1.162588697
1.155666414
1.152043817
1.1509484
0.1786055257
0.4296324431
0.6936170274
0.9148377068
1.055640678
1.113036838
1.164435618
1.170366765
1.163615505
1.156641503
1.15293395
1.151797183
0.2073312215
0.4540990041
0.7153426345
0.9263986177
1.061006671
1.13205649
1.165990039
1.171293939
1.164412842
1.157483864
1.15378407
1.152639204
0.2343675232
0.4761272703
0.7302847513
0.9339600714
1.064880913
1.134115871
1.166911089
1.171837246
1.164952886
1.158131469
1.154479384
1.153340551
0.2486114366
0.487112839
0.7389354508
0.9399143381
1.067775879
1.135469386
1.167394276
1.17207716
1.165337064
1.158686636
1.155102669
1.153969716
0.2596532042
0.496457314
0.7450994179
0.9444994946
1.070021272
1.136387256
1.167580594
1.172099951
1.165524832
1.159054595
1.155545191
1.154419519
0.2695505234
0.5047095024
0.7498233463
0.9477900521
1.071804885
1.137065862
1.167593843
1.171985385
1.165650231
1.159381114
1.15593926
1.154811195
0.2784892421
0.5120682802
0.7537939
0.9500970821
1.073254704
1.13764024
1.167533812
1.171801139
1.16564277
1.15954195
1.156155092
1.155021007
0.2866241319
0.5187779442
0.7574605163
0.9519449963
1.074528296
1.138208516
1.167475627
1.171599954
1.165654612
1.159723869
1.15637514
1.155222667
0.294216693
0.5251820877
0.7612053155
0.953815025
1.075814251
1.138849115
1.167470372
1.171419301
1.165566452
1.159753651
1.156426734
1.155252407
0.301582276
0.5316290567
0.7653351896
0.9560383583
1.077273616
1.139614322
1.167545512
1.171281132
1.165562568
1.159870103
1.156548277
1.155340563
0.3089591486
0.5383831907
0.7700666214
0.9587986508
1.078994666
1.140519113
1.167707003
1.17119559
1.165461021
1.159832406
1.156503594
1.155262015
0.3164922641
0.5456319484
0.7755286325
0.9621498423
1.080981765
1.141541011
1.167943246
1.171162524
1.165499433
1.159945648
1.156595749
1.155310377
0.3243175658
0.5535317822
0.7817607296
0.9660421761
1.083173675
1.142630584
1.168230981
1.171175275
1.165413781
1.159884991
1.15651017
1.155184664
0.3325979913
0.5622001727
0.7887393012
0.9703676485
1.085478106
1.143728701
1.16854236
1.171222571
1.165517186
1.160029997
1.156617434
1.155242421
0.3415378901
0.5717657595
0.7964088911
0.9749961889
1.0877988
1.144780871
1.168850772
1.171291186
1.165449717
1.159972712
1.15652881
1.155113112
0.3514065424
0.5822972969
0.804639937
0.9797628192
1.090039348
1.145741773
1.169134043
1.171369697
1.165607682
1.160147572
1.15665759
1.155189844
0.3623573549
0.5936261788
0.8131226726
0.9844332345
1.092098113
1.146575736
1.16937531
1.171444046
1.16556009
1.16011753
1.156598198
1.155094348
0.374105698
0.6052017713
0.8213529787
0.9887315375
1.093882285
1.14726072
1.169564032
1.171510925
1.165719881
1.160276282
1.156708388
1.155150918
0.3858600947
0.6162303074
0.8288163861
0.9924399617
1.095335415
1.147787206
1.169698982
1.17156062
1.165739974
1.160316475
1.156725545
1.155140858
0.39670358
0.6260021644
0.8351680946
0.9954519469
1.096438192
1.148152486
1.169816713
1.171635626
1.165918024
1.160500723
1.15685701
1.155211376
0.03731841176
0.0465043908
0.1824478578
0.07270673542
0.0383112036
0.09520123014
0.249849919
0.1856964458
0.1015711322
0.07443050863
0.1431558969
0.05884716745
0.05642634526
0.07074247562
0.1602527361
0.147165625
0.02575036092
0.04470377771
0.02326823564
0.0311860506
0.08211243069
0.04782828861
0.1387575763
0.3286798704
0.2811045881
0.09749190804
0.08630380954
0.03333711557
0.1971347484
0.1668184414
0.07372749396
0.08035328674
0.008424426486
0.01591697431
0.02651599258
0.06652519598
0.01227863755
0.01270138982
0.0307637399
0.01249334995
0.01235539183
0.01295591793
0.01236767628
0.0128154297
0.01627542025
0.01357512294
0.02176483135
0.01775375716
0.01289108231
0.008777519034
0.01762131974
0.01205754097
0.01241035097
0.1890506621
0.2380134442
0.03252308069
0.01328575448
0.01603407983
0.01165186167
0.01351223079
0.02392704366
0.04697555133
0.01267431273
0.009163344475
0.00924118259
0.0129183613
0.01272035973
0.02904891683
0.0240473796
0.01226882116
0.0120670363
0.01234842935
0.01246931251
0.008746773072
0.01236707741
0.01257755921
0.01250132482
0.01286130384
0.01261196716
0.01270751191
0.01261732053
0.01249403753
0.01299134327
0.0129939161
0.012790978
0.01309886295
0.01329762918
0.01321108475
0.01245728967
0.01188670551
0.01205760436
0.01220954827
0.01203345421
0.01242299422
0.25371255
0.3048622127
0.3231499625
0.3826228574
0.4052544745
0.4850412476
0.05902739503
0.1117438553
0.1017163785
0.2742812455
0.3327782609
0.2559509578
0.3492163827
0.3988042562
0.3240307978
0.4153624048
0.4710922959
0.4022757215
0.4913263849
0.5631287534
0.5035823183
0.1121951242
0.2199371154
0.2014922366
0.392176871
0.5179704872
0.3681239728
0.5247864086
0.5503268219
0.4306248954
0.5613145378
0.601066358
0.4988942789
0.6188805375
0.6789689379
0.5884351157
0.0892376075
0.07823278565
0.1551811091
0.343323269
0.3328892474
0.4076729016
0.6041144476
0.5886251112
0.6699492068
0.7883739886
0.600750647
0.7797367303
0.7856540712
0.6412087945
0.7940781189
0.8416317895
0.7172310531
0.1073276491
0.09301391787
0.1726792839
0.3585568819
0.3466618224
0.4244161843
0.6229351926
0.6083568313
0.6883411573
0.8628239105
0.851191617
0.9114271673
1.025780288
0.8412246361
1.034114281
1.046799231
0.8905783035
0.1356084086
0.1133888877
0.1997415385
0.3815267882
0.3635477268
0.44766725
0.646282417
0.6284893772
0.7100766616
0.8777464297
0.8667451735
0.9240007298
1.032728971
1.027799771
1.059830096
1.118151721
1.111869997
0.168326903
0.1439079558
0.2286872421
0.4067588006
0.3881696431
0.4715706723
0.6662992054
0.6521008258
0.7276140485
0.8877725268
0.8808515355
0.9322391901
1.03770387
1.034116619
1.064020734
1.120772473
1.118902757
0.1884535562
0.1750171139
0.2456373146
0.4214272325
0.4118854973
0.4845758811
0.6761277297
0.6691472528
0.7370488918
0.8950636392
0.8897633186
0.9385570958
1.041460174
1.038738847
1.067123132
1.122567155
1.121285499
0.2012063253
0.1918637781
0.2570101951
0.4319329282
0.4241952018
0.4942326605
0.6833438222
0.6781129144
0.7437298568
0.9006206378
0.8966151148
0.9434794891
1.044388297
1.042259574
1.069508779
1.123829128
1.122923112
0.2120405608
0.2040710006
0.2671723637
0.4411386774
0.4343451035
0.5027378669
0.6891812952
0.6849035835
0.7487335719
0.9045380683
0.9017447253
0.9470775178
1.046690385
1.045018159
1.07139537
1.124777686
1.124088947
0.2214997048
0.214519564
0.2763368217
0.449312776
0.4432709828
0.510301086
0.6942009961
0.690499598
0.752845913
0.9072373028
0.9053037973
0.9495848896
1.048487843
1.04718222
1.072915886
1.125567234
1.124985763
0.2299563742
0.2236957377
0.2846542812
0.4566924438
0.451224232
0.5171439815
0.6987503474
0.6953697066
0.756550638
0.9093547241
0.9077976096
0.9514974831
1.049962544
1.048878285
1.074216202
1.126309357
1.125754052
0.2377429268
0.2319534379
0.2923518916
0.4635981209
0.4584491779
0.5235897478
0.703191884
0.6998575157
0.7602435822
0.9114407225
0.9098626319
0.9533248092
1.051362326
1.050310445
1.07548188
1.127099246
1.126499775
0.2451804699
0.239625252
0.2997485225
0.4704001754
0.4652965333
0.5299975239
0.7078650667
0.7043281579
0.7642535241
0.9138692334
0.9120059637
0.9554371838
1.052914641
1.051729755
1.076886356
1.12801146
1.127314586
0.2525083122
0.2470171389
0.3071055648
0.4773858903
0.4721219166
0.5366555612
0.7130277342
0.7091031278
0.768818978
0.9168620213
0.9145602427
0.9580534491
1.054763804
1.053346889
1.078538435
1.129081354
1.128264758
0.2598777396
0.2543439839
0.3145880612
0.4847835683
0.4791913781
0.5437641611
0.7188556528
0.7144191289
0.7740912079
0.9205138953
0.9177138599
0.9612581417
1.056952212
1.055280956
1.080462725
1.130298438
1.129374202
0.2674181858
0.2617426714
0.3223259582
0.4927372258
0.4867173546
0.5514893889
0.7254424197
0.7204316134
0.7801314366
0.9248098281
0.9215321961
0.96502401
1.059435655
1.057550122
1.082611542
1.131614767
1.130621733
0.2752974886
0.2693514953
0.3304762923
0.5013674665
0.494828857
0.5599555733
0.7328129162
0.7272139951
0.7869275258
0.9296607809
0.9259771348
0.9692528213
1.062120277
1.060093723
1.084897005
1.132964153
1.131952746
0.283700387
0.277342976
0.339227962
0.5108088453
0.503648925
0.569284319
0.7409593783
0.7347803688
0.7944319673
0.9349469045
0.9309490291
0.9738190229
1.06489863
1.062811972
1.087222545
1.134281329
1.133299864
0.2928801657
0.2859124429
0.3488408113
0.5212096122
0.5133170902
0.5795777217
0.7498198648
0.7431156382
0.8025429872
0.9405128998
0.936322235
0.9785701093
1.067658716
1.065596678
1.089492477
1.135509695
1.134599765
0.3030909848
0.2953305053
0.3595288596
0.5325721911
0.5239706444
0.5907436893
0.7591608063
0.7521281179
0.8110043193
0.9461181199
0.9419248793
0.9832902745
1.070273886
1.068333044
1.091606226
1.136601197
1.135798028
0.3142680482
0.3058026536
0.3711477929
0.5445054157
0.5355296739
0.6023300766
0.7684928152
0.7615216467
0.8193500938
0.9514346924
0.9474902918
0.9877060623
1.072612311
1.070890717
1.093466114
1.137520256
1.136849101
0.3258198406
0.3171231864
0.3830413465
0.5562551616
0.5474903106
0.6135852763
0.7772111799
0.7707542812
0.8270481944
0.9561560063
0.9526825397
0.9915765488
1.074576842
1.073142401
1.095004959
1.13824795
1.137721352
0.3369653114
0.3285501736
0.3944151789
0.5671189802
0.5590328066
0.6238666893
0.7848976629
0.7792299251
0.8337551456
0.9601236735
0.957220029
0.9947877374
1.076136779
1.075004719
1.096206599
1.138787
1.138400182
0.3477504741
0.3391822164
0.405332198
0.577273198
0.5693670734
0.6333850517
0.7918030654
0.7865170832
0.8397169866
0.9635302188
0.9609534523
0.9975098816
1.077404836
1.076446264
1.097169969
1.139210331
1.138881084
0.03545491276
0.02897431482
0.03057572474
0.06137983159
0.05803433578
0.04322302426
0.1654336868
0.1453214507
0.1550092963
0.06790295319
0.02652353084
0.01739338964
0.02269271074
0.03909510674
0.1307250016
0.1254021903
0.08353514637
0.2162889986
0.1830144868
0.2201677216
0.1593156654
0.1753641629
0.2092902689
0.08434582718
0.07237231597
0.1398587639
0.106972139
0.117292289
0.1027064321
0.138116613
0.01979044266
0.02813711461
0.04536823763
0.04783509904
0.06174251929
0.0535305669
0.04007989696
0.04274344184
0.1270666593
0.1145777952
0.06231012547
0.155375508
0.1395613352
0.1440568801
0.1224868391
0.1345456197
0.1512194299
0.01732702737
0.01910537277
0.02733107098
0.01368177042
0.01360617272
0.01316018992
0.04234805509
0.02451724852
0.02948165378
0.02143647895
0.01436180784
0.01558683178
0.0477997698
0.04436587511
0.02590681138
0.07845543583
0.0603339462
0.06386590714
0.0565988254
0.0743657135
0.03496438372
0.03805013376
0.05066636578
0.01451055717
0.01387631648
0.03015002959
0.03025338712
0.2055953003
0.2001521791
0.117539536
0.3237889972
0.2663231974
0.2713541233
0.2382248863
0.2602584361
0.3180716941
0.09409334664
0.07502654258
0.07853275412
0.06765289265
0.07121378314
0.0898392535
0.04010602917
0.05446486434
0.05106293941
0.1856619816
0.1612264675
0.1641584205
0.1495132189
0.1566532033
0.1747755057
0.08020075574
0.1234076222
0.1173254336
0.07694781315
0.04748824748
0.05011638007
0.01454260787
0.01173628169
0.01204162221
0.03499344509
0.03329726274
0.03954402156
0.03803557006
0.0245082404
0.06360233315
0.05050419397
0.05238272724
0.01218031328
0.01369106793
0.01286613462
0.01593733874
0.01474558737
0.01235638715
0.02942373736
0.02126042283
0.02333773275
0.01535599021
0.01308476287
0.01342201272
0.01275812255
0.01272101927
0.01429922837
0.02067347467
0.01546370113
0.01623873003
0.01406866866
0.01462912776
0.01875260558
0.0126964154
0.01336062205
0.01926750067
0.208569256
0.1951355001
0.1758117947
0.2224265304
0.2073535487
0.2218059835
0.02525544538
0.02712886577
0.03404687681
0.01389392484
0.01881151467
0.01738729472
0.02254020211
0.02089733591
0.01489325879
0.03173214131
0.03026260003
0.0218273912
0.04358192113
0.037517643
0.0374981748
0.03517561197
0.04245274931
0.01586662489
0.01515770505
0.02745514122
0.02004130578
0.02141285054
0.01736995719
0.01853200626
0.02534335406
0.5142728512
0.6048529333
0.7030638917
0.8050883643
0.9202747222
1.05543868
0.05273022069
0.06823835488
0.06492807124
0.2246307187
0.2441284973
0.2245614971
0.2936825272
0.3112558111
0.2894162145
0.3639458761
0.3827928128
0.3614708289
0.4451262912
0.4691646294
0.4488628933
0.5927840568
0.6807308894
0.6376395412
0.7594717284
0.8537460953
0.8282984123
0.9513298453
1.072778199
1.046159447
0.1044781502
0.1403379265
0.1356586328
0.352036419
0.3701656981
0.3269403599
0.4234519741
0.4379376478
0.3990398801
0.4802682428
0.4964458439
0.4630780203
0.5495292672
0.5699629861
0.5405327826
0.7019447634
0.7789986286
0.7273275901
0.8462573484
0.9298006201
0.8890947732
1.006482229
1.119979797
1.076966707
0.1479179416
0.2135915955
0.210040763
0.4004135755
0.4663265227
0.4624878674
0.6619243463
0.6571023916
0.5902946276
0.6606998059
0.6670063487
0.6180729524
0.6993780699
0.7148274986
0.6749205647
0.8504081907
0.9064090128
0.8383584434
0.967323479
1.03134223
0.9786167674
1.092005428
1.166794906
1.138756027
0.1628731887
0.2260057395
0.2226047076
0.4153546995
0.4816825458
0.4775233072
0.6785997384
0.7416118131
0.7373245625
0.9044307253
0.9152843304
0.841477903
0.902280032
0.9094556739
0.8549482347
1.034920288
1.070074985
0.9827152607
1.123485173
1.167555291
1.095289692
1.1696333
1.168071681
1.167482951
0.1851781911
0.2453052984
0.2395761723
0.4352957434
0.5023897194
0.4966015508
0.6990715795
0.7606487409
0.7556809529
0.9181214836
0.9604035453
0.957663065
1.057159208
1.080551661
1.079244011
1.131395758
1.155342425
1.154200953
1.165315482
1.170022414
1.169351583
1.170901437
1.16904677
1.168622395
0.2148843677
0.271863096
0.2650173642
0.4603630224
0.5268600683
0.520865291
0.7201168131
0.7790705542
0.7749608637
0.9284718929
0.9687814491
0.9670030514
1.06209167
1.084756878
1.08383894
1.133682143
1.156938787
1.156237024
1.166515392
1.170934565
1.170536867
1.171623894
1.16970256
1.1694342
0.2392541944
0.2947466265
0.2901620563
0.4792118107
0.5437248871
0.5410203331
0.7327374306
0.7900420687
0.7877184617
0.9355833997
0.9748570739
0.9734754123
1.06568093
1.087755519
1.087093184
1.135182447
1.157888445
1.157479512
1.167198448
1.171412535
1.171216576
1.17200166
1.170079132
1.169947708
0.2514949311
0.3070460541
0.3041399336
0.4895651945
0.5532092831
0.550976067
0.7406659895
0.797659226
0.7959972758
0.9411874548
0.979635204
0.9785450967
1.068389069
1.089969035
1.089471945
1.136187072
1.158412264
1.158191531
1.167516522
1.171582261
1.171525985
1.172120197
1.170237004
1.170208673
0.2622270469
0.3178049919
0.3152347327
0.4986152289
0.561415782
0.5594632618
0.7463822832
0.8029740128
0.8018172065
0.9454376346
0.9833409284
0.9825111313
1.070505623
1.091674776
1.091285029
1.136909796
1.158685082
1.158570947
1.16760218
1.171554853
1.171585052
1.172063505
1.170235864
1.170281184
0.2718701497
0.3273904622
0.3250913588
0.5066259048
0.5686506249
0.5669222818
0.75086779
0.806820628
0.8059512429
0.9484404916
0.9860608546
0.9854637998
1.072193718
1.093047402
1.092728274
1.137499426
1.158837599
1.158769661
1.167567838
1.171419989
1.171494358
1.171905184
1.170139297
1.170224597
0.2805915535
0.3360176682
0.3339411452
0.5137951529
0.5751141921
0.5735572893
0.7547238012
0.8099499395
0.8092024726
0.9505815729
0.9880437651
0.9875952731
1.073582775
1.094214995
1.09393523
1.138061012
1.158966492
1.158900021
1.167500805
1.171248597
1.171333774
1.171705747
1.169991594
1.170097239
0.2885612657
0.3439001452
0.3419816111
0.5203937913
0.5810881185
0.5796208473
0.7583765122
0.8129011372
0.8121562154
0.9523954165
0.9897055788
0.9892968863
1.074841867
1.095313132
1.095037082
1.138677524
1.159142482
1.159045146
1.167464189
1.17109354
1.171165431
1.171509942
1.16983539
1.169938501
0.2960695443
0.3513730747
0.3495242532
0.5267786557
0.5869344142
0.5854653645
0.7621925273
0.816069497
0.8152399207
0.9543289027
0.9914399077
0.9909822086
1.076158488
1.096483437
1.096177258
1.139408939
1.159410816
1.15926337
1.167497108
1.170988559
1.171032579
1.171347759
1.169689565
1.169784611
0.3034196694
0.3587495279
0.3569018405
0.533281536
0.5929791428
0.591434639
0.7664560367
0.8197327093
0.8187591892
0.9566747708
0.9935197614
0.9929575938
1.077678436
1.097833152
1.097475328
1.140279898
1.159788817
1.159586127
1.167615923
1.170949681
1.170959843
1.17123431
1.169577378
1.169650403
0.3108244064
0.3662273009
0.3643394335
0.5401432349
0.5994637841
0.5977907543
0.7713617511
0.824066469
0.8229141067
0.9595825115
0.9960827133
0.9953939863
1.079468736
1.099405607
1.098991889
1.141276618
1.160267221
1.16001693
1.167817201
1.170978312
1.170955396
1.171175078
1.169497415
1.169554082
0.3184166323
0.3739602715
0.3719943349
0.5475422067
0.6065605916
0.6047214956
0.7770159691
0.8291487887
0.8278073951
0.9630769405
0.9991439196
0.9983348947
1.081514683
1.101177625
1.100719249
1.142354949
1.160816622
1.160535327
1.168082755
1.171064811
1.171014734
1.171165417
1.169461088
1.169491899
0.3263399992
0.3821061618
0.3800211674
0.5556241805
0.614387461
0.6123572141
0.7834386106
0.8349668467
0.8334463948
0.9670890148
1.002629427
1.001724317
1.083743896
1.103079813
1.102596773
1.143456517
1.161397653
1.161105489
1.168386304
1.171192821
1.17112394
1.171197447
1.169453943
1.16947215
0.3347636264
0.3908387712
0.388589584
0.5645040337
0.6230278018
0.6207870126
0.7905967968
0.8414545199
0.8397742491
0.9715033248
1.00642345
1.00545288
1.086061369
1.105026386
1.104540261
1.144524848
1.161970862
1.161686834
1.168700552
1.171343915
1.171265064
1.171257401
1.169480432
1.16947776
0.3439102762
0.4003693349
0.3978973024
0.57431118
0.6325470983
0.630082329
0.7984240792
0.848513014
0.8467025384
0.9761840972
1.010394918
1.009393474
1.088371198
1.106934194
1.106465286
1.145512288
1.162503406
1.162241942
1.169001836
1.171501182
1.171418901
1.17133605
1.169523752
1.169514947
0.3540486511
0.4109242686
0.4081814265
0.5850717432
0.6429244908
0.6402596109
0.8067560516
0.8559564339
0.854075675
0.9809515
1.014382141
1.013394751
1.0905759
1.108723944
1.108291975
1.146380499
1.162973861
1.162742434
1.169272948
1.171651634
1.171569377
1.171419686
1.169581216
1.16955799
0.3652540782
0.4224996846
0.4195240116
0.5965295013
0.6538572807
0.65110209
0.8152277752
0.8634329472
0.8615859722
0.9855543233
1.018175635
1.017257921
1.092573673
1.110319029
1.109942346
1.147103971
1.163368377
1.163168763
1.16950385
1.171786712
1.171701697
1.171507162
1.169653313
1.169618222
0.3771163184
0.4346102079
0.4315608446
0.6080500894
0.6647092118
0.6620426969
0.8233101548
0.8704743755
0.8687792352
0.9897211842
1.021562306
1.020763238
1.094278511
1.111659451
1.111350422
1.147669806
1.163682057
1.16350472
1.169689644
1.171900405
1.171807928
1.171585069
1.169712093
1.169663995
0.3888305818
0.4464322639
0.4434703396
0.6188698662
0.674785504
0.6723457422
0.8305340872
0.8766919617
0.8752229794
0.9932655846
1.024404851
1.023747309
1.095646799
1.112718119
1.11247942
1.148081208
1.163915636
1.16374209
1.169814256
1.171973894
1.171885075
1.171642788
1.169789187
1.169718962
0.3997933262
0.4574032458
0.4543527216
0.6286203216
0.6837817847
0.6813903284
0.8367581594
0.8819860151
0.8806489622
0.9961728468
1.026704569
1.026136544
1.096702866
1.113521577
1.113317866
1.148408543
1.164075536
1.163893888
1.169915253
1.172052532
1.171968763
1.171719378
1.169874008
1.169786374
0.1745054918
0.1665838766
0.1716030111
0.07003507849
0.05567922548
0.05734850378
0.03265247682
0.03323682902
0.04126368639
0.1820136129
0.1837601035
0.1930027779
0.1329769586
0.1386506988
0.08706360956
0.08453030215
0.06829972306
0.03811974239
0.03623573769
0.02959784065
0.02092022587
0.01983086956
0.03372870524
0.04223495044
0.03918824132
0.07582630342
0.09237958569
0.08979633828
0.02407947343
0.02249296947
0.2707613797
0.2540298536
0.2376796505
0.287467295
0.270668802
0.2877245596
0.3419449482
0.3243910953
0.3054628625
0.3658287286
0.3441194127
0.3612690413
0.4302779866
0.4138675641
0.3888599366
0.4702315377
0.4407050868
0.4569747784
0.0748522737
0.07172737758
0.05598489912
0.1083852017
0.08946068735
0.09260769031
0.08233024515
0.08574661485
0.1049629026
0.2930150304
0.2664567332
0.2470625811
0.3026211422
0.2821413456
0.3115916538
0.2383643784
0.2579802567
0.2770805622
0.3659094571
0.3366463861
0.3194295869
0.370400659
0.3534617983
0.382321039
0.3066469112
0.3284616318
0.3457181688
0.4325615366
0.406081405
0.3876966958
0.4456577972
0.4256351861
0.4508247116
0.3810325943
0.402086256
0.4225686623
0.514052559
0.4903125269
0.4666362852
0.5416462257
0.5163118669
0.5389288796
0.4751430765
0.4949174618
0.5200082725
0.1484245092
0.1441889879
0.1096069507
0.1697797303
0.1725707338
0.2062100398
0.4582917796
0.4248767506
0.3872024616
0.4594878029
0.443936281
0.5075974351
0.3476432515
0.3912301594
0.4100689646
0.5333010674
0.4823343357
0.4705059665
0.5056309583
0.4941713032
0.5419074715
0.4149178279
0.4518009695
0.4653191487
0.5734737313
0.5327146223
0.5188394672
0.5637390225
0.5475099212
0.5864210852
0.4804031267
0.5129604779
0.5302016928
0.6374846832
0.6027390917
0.5825695979
0.6467535894
0.6231827878
0.6567695031
0.564130728
0.5927710269
0.6150061786
0.08564404889
0.08203428863
0.2195588082
0.216651188
0.151633089
0.3400333383
0.2818634992
0.2845612948
0.2755011981
0.2789285055
0.3366092297
0.4736720469
0.4699922849
0.4040688639
0.6000481956
0.5351875997
0.5389994842
0.5275737884
0.5314317095
0.5960334691
0.7332199755
0.7292414662
0.6659057093
0.7173132354
0.7234262669
0.7925651047
0.5951801805
0.6542799925
0.6562047746
0.7779482898
0.7203288755
0.7174166197
0.7338061454
0.7257182171
0.7802791619
0.6288177823
0.675272404
0.6857138815
0.8045484892
0.757911432
0.7450624133
0.7983485778
0.7745512252
0.8208098821
0.6930273666
0.7324848185
0.7550687793
0.1019584375
0.09721424499
0.2344333261
0.2299229286
0.1674336395
0.3541400745
0.2938285727
0.2979069881
0.2873045371
0.2903271783
0.3502098981
0.4912054263
0.4862250218
0.4196721251
0.6177242101
0.5520370115
0.5571738105
0.5430070296
0.5473289789
0.6128709782
0.7508123442
0.7461084199
0.6833269478
0.8589012345
0.8048260398
0.8091609163
0.7965291558
0.8006110734
0.8550171489
0.954748546
0.9517076102
0.9079439468
0.9672311216
0.979616237
0.9928019338
0.8386693704
0.9037517474
0.9004738092
1.031515514
0.9673710502
0.963201687
0.9928003474
0.9764826087
1.036519457
0.8693601674
0.922054562
0.9387501675
0.1276193011
0.1201780059
0.2581758466
0.2515559049
0.1922682579
0.3751380499
0.3138650271
0.3201520039
0.3026334945
0.3079624483
0.3690808325
0.5146814082
0.5084468117
0.4413567216
0.6402971834
0.5746966958
0.5809063928
0.5627083176
0.568597889
0.6343092724
0.7704337946
0.7656034753
0.7046177226
0.8743017382
0.8223318684
0.826469563
0.8135738803
0.8179951103
0.8705960256
0.9650940533
0.9629033207
0.9212009126
1.031228387
0.9994719979
1.001229802
0.9952538837
0.9974867861
1.029601095
1.082838562
1.08174624
1.0585514
1.117323298
1.101188169
1.102130569
1.099021882
1.100154925
1.116415023
0.1605347324
0.1523897661
0.2846938433
0.278498617
0.2220213212
0.4010915963
0.3397076398
0.3455443069
0.3267336189
0.3332836848
0.3947038851
0.5371915633
0.532346344
0.4663415491
0.6623274935
0.5978836378
0.6024106673
0.5869548749
0.5927591963
0.6575173057
0.7852227587
0.7825090455
0.7243817067
0.8856626166
0.8362990453
0.8387009061
0.8302744033
0.8336213128
0.8834185871
0.9720076538
0.9704461718
0.9304128933
1.036594374
1.005791444
1.007113354
1.002860132
1.00437692
1.035401478
1.086376823
1.085600352
1.063093463
1.120207301
1.104493141
1.105150703
1.102989926
1.103775182
1.119586923
0.1848677066
0.1809115707
0.3011359772
0.2980267118
0.2425602488
0.4185556235
0.3578448254
0.3607349761
0.3507843801
0.3548276091
0.4155531339
0.5486578597
0.5462452384
0.4819467068
0.6739885899
0.6105707884
0.6128241082
0.6056084591
0.6081780265
0.6716699669
0.7941782905
0.7921947751
0.7349878002
0.8934054656
0.8450647731
0.8469136577
0.8409592925
0.8430798767
0.8916390276
0.9773873316
0.9761593345
0.9371141321
1.040610584
1.010604337
1.011632483
1.008351229
1.009512438
1.039705206
1.088940077
1.088369498
1.066426371
1.122178311
1.106816082
1.10728604
1.105753358
1.106306703
1.121752921
0.1982255839
0.1951145773
0.3125880822
0.3098602633
0.2542916865
0.4294414346
0.3688795044
0.371435956
0.3635339118
0.3662468114
0.4268635669
0.5574475736
0.5553645674
0.491936391
0.6817022809
0.6189312445
0.6207945647
0.6149580606
0.6169891008
0.6799638126
0.8005555963
0.7991744266
0.7422576021
0.8993928077
0.8516469546
0.852964097
0.8486260191
0.850202591
0.898057634
0.9816174654
0.9806590787
0.9423755443
1.043720389
1.014374169
1.015183272
1.012601232
1.01351407
1.04301151
1.090872556
1.090434892
1.06896553
1.123550558
1.108499271
1.108850048
1.107720772
1.10812383
1.12324962
0.2094787118
0.2068241408
0.3227295334
0.3203019442
0.264731418
0.4389434508
0.3786819346
0.3809672653
0.3739195482
0.3763336701
0.4366798046
0.5651422722
0.5633077652
0.5007071472
0.6878139081
0.6259811998
0.6275936977
0.6225865324
0.6243135581
0.6863900851
0.8050280492
0.8040398188
0.7475895775
0.90369604
0.8562348841
0.8571348782
0.8541611386
0.855247571
0.9027673148
0.9848143236
0.9841078916
0.9462952305
1.046167319
1.017315867
1.017933365
1.015942428
1.016652744
1.045610278
1.092394376
1.092043916
1.070962851
1.124560755
1.109782462
1.110061505
1.109179152
1.109488953
1.124331628
0.2192435884
0.2169170962
0.3318113753
0.3296296638
0.2741305131
0.4473540458
0.3874698225
0.3895304855
0.3831919142
0.3853584588
0.4453406735
0.5719642061
0.5703301252
0.5084881286
0.6930038163
0.6321333838
0.6335608366
0.629154069
0.6306657643
0.6917713752
0.8084372311
0.8076462364
0.7518726748
0.9066423265
0.8594286188
0.860097018
0.8579591385
0.8587195855
0.9060010946
0.9871199881
0.9866108571
0.9490356126
1.048077694
1.019535941
1.019999701
1.018507063
1.019039804
1.047643316
1.093648815
1.093353649
1.072563075
1.125378645
1.110831201
1.111071553
1.110328143
1.110583834
1.125184894
0.2279185059
0.2258321717
0.3400322875
0.3380463171
0.282644374
0.4549076134
0.3954429673
0.3973444989
0.3915389046
0.3935085891
0.4530861837
0.5781401863
0.5766400934
0.5154848336
0.6976379713
0.6376472346
0.6389632359
0.6349520217
0.6363119355
0.6965126239
0.8114201441
0.810686989
0.7556403812
0.9088470436
0.8619532203
0.8625519293
0.8607343333
0.8613498642
0.9083304812
0.9888878651
0.9884724369
0.9510454838
1.049611112
1.021244775
1.021629744
1.02043548
1.020848421
1.049250833
1.094763576
1.094490429
1.073902081
1.126123305
1.11176816
1.111998567
1.111306694
1.111537967
1.125938157
0.2358412477
0.2339118832
0.3476658891
0.3457930303
0.2904677214
0.4618954407
0.4028934248
0.4047079735
0.399216987
0.4010646311
0.4601804432
0.5840047742
0.5825475792
0.5219952409
0.7020721523
0.6428524227
0.6441494997
0.6402653853
0.6415594762
0.7009620552
0.814438195
0.8136602279
0.7593021609
0.9108991263
0.8643845485
0.8650281017
0.8631524111
0.8637609868
0.9103746379
0.9905433936
0.9901194763
0.9528532565
1.051006069
1.022765223
1.023154073
1.022008033
1.022384624
1.050656422
1.095881269
1.095593946
1.075158625
1.126893091
1.112708083
1.11295663
1.112230921
1.112466537
1.126693152
0.2433395303
0.2414878402
0.3550580193
0.3532164093
0.2979108376
0.4686923149
0.41011161
0.4119147554
0.4065128201
0.4083121581
0.4669918111
0.5899149423
0.5884161718
0.5283816573
0.7066598086
0.6481114554
0.6494719482
0.6454551091
0.6467738372
0.7054817183
0.8178260065
0.8169305035
0.7632069545
0.9132158509
0.8671178019
0.8678811442
0.8656953195
0.8663902274
0.9125955584
0.992424954
0.9919199568
0.9548682634
1.052502845
1.024403305
1.024858826
1.023554267
1.023969286
1.05210841
1.097131528
1.096801269
1.076515114
1.127769582
1.113755095
1.114042808
1.113213226
1.1134787
1.127537042
0.2506781103
0.2488470903
0.3624655378
0.3606030576
0.3052588494
0.475610556
0.4173750082
0.4192221673
0.4137242698
0.4155429495
0.4738561946
0.5961541483
0.5945513307
0.5349553721
0.7116806575
0.6537206217
0.65520491
0.6508578259
0.6522724592
0.7103728064
0.8218085135
0.8207487043
0.7676160834
0.9160540685
0.8704045835
0.8713318412
0.8686816287
0.869521604
0.9152869147
0.9947373499
0.9941129085
0.9573458045
1.054269924
1.026367029
1.026922467
1.025336705
1.025838623
1.053797589
1.098591619
1.098205417
1.078099774
1.128799253
1.114974823
1.115309656
1.114341753
1.114652028
1.12852664
0.2580262126
0.2561807887
0.3700519508
0.3681305936
0.3126986532
0.4828874507
0.4248687576
0.4267971617
0.4210847112
0.42296535
0.4810230488
0.6029268247
0.6011751578
0.5419351495
0.7173303713
0.6598932072
0.6615431665
0.6567267585
0.6582882116
0.7158513776
0.8265129483
0.8252662064
0.7727024812
0.9195387723
0.8743803006
0.8754883326
0.8723029009
0.873318362
0.9186049509
0.9975541376
0.9968032678
0.9604022301
1.056374852
1.02874475
1.029404418
1.027503767
1.028110877
1.055817309
1.100270328
1.099832258
1.07995819
1.129982815
1.116377917
1.116754022
1.115655375
1.116011321
1.129674216
0.2655091832
0.2636166915
0.3779708186
0.3759514765
0.3203587735
0.490690999
0.4327541325