/*--------------------------------*- C++ -*----------------------------------*\
| =========                 |                                                 |
| \\      /  F ield         | OpenFOAM: The Open Source CFD Toolbox           |
|  \\    /   O peration     | Version:  v2012                                 |
|   \\  /    A nd           | Website:  www.openfoam.com                      |
|    \\/     M anipulation  |                                                 |
\*---------------------------------------------------------------------------*/
FoamFile
{
    version     2.0;
    format      ascii;
    class       volScalarField;
    location    "0.41";
    object      omega;
}
// * * * * * * * * * * * * * * * * * * * * * * * * * * * * * * * * * * * * * //

dimensions      [0 0 -1 0 0 0 0];


internalField   nonuniform List<scalar> 
3019
(
625.5944435
122.6136243
62.92039934
44.36717927
37.04671829
33.69009663
31.88209321
31.17945724
30.75658187
30.59226631
30.50599037
30.4621263
396.4190565
115.0292698
62.5458675
44.76664713
37.33400275
33.83550502
31.91819217
31.15762018
30.69456246
30.51386952
30.41710771
30.36837562
285.3619446
107.870612
61.60955566
44.79330055
37.4490782
33.89937147
31.92259141
31.12822656
30.63384342
30.43962136
30.33270931
30.27898881
252.5560303
103.4854892
60.9150439
44.68037961
37.41923418
33.88889637
31.90399842
31.08859918
30.56867603
30.36358941
30.24922255
30.19141194
237.4002934
101.1241342
60.3589486
44.48219114
37.32515669
33.84160863
31.86218104
31.03893388
30.50104488
30.28803618
30.16635517
30.10480566
226.9457111
99.65208185
59.75784276
44.19228373
37.18621693
33.76658195
31.80136019
30.97582041
30.42534776
30.20623766
30.08002405
30.01536397
215.2348505
97.88432056
58.98622324
43.86426637
37.03597895
33.67408062
31.72802194
30.9031081
30.34497457
30.12181188
29.99183962
29.92507889
202.260839
95.65561341
58.32096586
43.56788538
36.8857987
33.57223693
31.64567591
30.82229338
30.25737148
30.03060156
29.89771105
29.82948416
191.0959793
93.62033674
57.84839213
43.31465233
36.74160239
33.46638958
31.55679522
30.73482814
30.16625361
29.93740004
29.8023615
29.73306973
181.5509773
91.76946928
57.48227134
43.11809491
36.60833544
33.36012157
31.46344385
30.64210452
30.06845261
29.83706771
29.70031641
29.63044931
173.254993
90.0778735
57.16074566
42.97638272
36.49081153
33.25622727
31.36748851
30.54538992
29.9694274
29.7369385
29.59899669
29.52877541
165.9257478
88.5167422
56.85944589
42.8728942
36.39093598
33.15686748
31.27049956
30.4458847
29.8643471
29.62947562
29.49039813
29.42012114
159.3634556
87.06238723
56.56959
42.79089417
36.30677648
33.06308366
31.17358602
30.3445223
29.76086787
29.52532612
29.38551678
29.31526218
153.4271821
85.69619944
56.28685585
42.71932367
36.23443795
32.9747579
31.07736478
30.24208261
29.65098096
29.41261638
29.27182886
29.20173256
148.0163326
84.40244875
56.00710114
42.65116591
36.16988652
32.89109315
30.98210924
30.13903271
29.54607728
29.30732273
29.16598499
29.09602708
143.0426618
83.16366063
55.7251435
42.58159198
36.10973963
32.81105751
30.8878671
30.03584071
29.43265564
29.19031501
29.04795232
28.97816066
138.4257956
81.96247574
55.43622177
42.50737713
36.05146764
32.7336807
30.79459339
29.93263867
29.32893017
29.08654702
28.94368447
28.87401107
134.1048065
80.78658599
55.13747551
42.42668684
35.99333189
32.65815984
30.70220735
29.82977834
29.21178646
28.96489051
28.82088832
28.75131117
130.0408906
79.63049461
54.82831356
42.33884625
35.93426667
32.58390165
30.61064914
29.72715625
29.11204612
28.86551391
28.72098221
28.65145868
126.2098126
78.49337772
54.50972443
42.24395436
35.87368809
32.51047891
30.5198899
29.62522006
28.98934279
28.7374934
28.59173354
28.5222156
122.5936173
77.37585526
54.18315378
42.1424252
35.81126793
32.43754775
30.42996765
29.52370104
28.8977093
28.64631881
28.49992404
28.43038483
119.1756394
76.2787197
53.85003375
42.0347416
35.74680314
32.36487111
30.34110143
29.42353858
28.76507288
28.50844913
28.36076432
28.29112813
115.9456295
75.20461711
53.51208942
41.92140285
35.68012169
32.29218618
30.25391846
29.3247514
28.68841984
28.43070918
28.28228043
28.21254943
112.9137412
74.16605501
53.17411694
41.80367929
35.61136531
32.21945711
30.17002953
29.23030393
28.5168077
28.25308644
28.1028468
28.03284909
760.7943249
652.9952381
147.7713045
488.4395727
746.3221971
412.9870687
144.7413728
146.3099373
377.4617165
481.221311
271.1693012
556.0118176
570.5533721
500.2180811
241.8983878
262.3465836
1035.585448
662.4743197
1130.872321
882.5741094
464.6779299
633.0296485
297.7109157
133.1915615
141.993763
411.3608933
448.3770878
831.1737545
223.4540359
235.2670265
487.5676171
449.1592889
5641.956828
1659.512065
919.1066185
516.8105615
4140.315129
2746.752098
883.7120596
4319.538534
5501.439281
2708.297809
4082.22111
5860.02107
1545.078856
2342.427706
1097.422588
1379.532886
5255.317742
5886.420127
1476.098474
5565.06541
4703.920387
134.0757197
71.9785265
848.5659034
2410.248352
1606.336965
3811.724035
2150.689618
1117.553817
664.0089076
5673.241522
6036.424615
6151.963281
5005.322854
5837.664467
894.4214708
1031.41962
5275.41795
4747.656997
5358.119698
4966.252404
5806.614332
5745.649285
5559.746049
3186.318839
4862.328854
4377.254073
5534.314257
5744.816007
3625.099108
3984.292136
4452.127028
5790.847812
4628.18701
3129.242899
3491.47965
5358.577003
3868.009837
4116.599281
2954.915183
3433.951587
5553.22233
62.91736844
47.31639022
44.23849389
38.23921669
36.94001783
34.25097389
558.7086935
372.6675695
398.8578155
117.2284148
70.83943027
71.83033853
62.61801024
47.75116573
47.4192993
44.69978311
38.62269251
38.36619186
37.28192177
34.46051325
34.30934995
360.8725817
201.5152447
218.8221785
109.4142171
69.38980636
70.67445489
61.8380849
47.76914808
47.77027961
44.81696992
38.80566216
38.69352994
37.44079153
34.56585522
34.49253649
388.5088944
439.3500203
258.3901869
125.2620502
130.7701132
104.3450009
68.12480354
69.04101242
61.07433872
47.59847622
47.7220546
44.71134364
38.78260617
38.80568866
37.43354138
34.56725926
34.57350146
350.0785722
376.4098915
240.3868076
121.1061817
123.9326542
101.5848419
67.27085439
67.8770116
60.49404353
47.36779935
47.54643647
44.53929029
38.69099471
38.765603
37.35553335
34.52091056
34.55812263
325.6540865
343.3911829
229.5517765
118.8944032
120.4711488
100.0028697
66.52920995
67.09009574
59.92310442
47.05644542
47.29989315
44.27426495
38.52815165
38.65482072
37.2226562
34.4423973
34.50379505
301.3680453
319.8382071
218.3986649
116.3922566
118.3600253
98.39309767
65.6382427
66.32411693
59.18622282
46.65160323
46.96112295
43.94366482
38.34976492
38.4839088
37.07385434
34.34423207
34.41917016
274.6974874
294.7432022
205.3627576
113.0314736
115.6144242
96.19557404
64.76376226
65.39327019
58.46669275
46.27445881
46.55268333
43.63853231
38.17427756
38.3053313
36.92297548
34.23643204
34.31792491
252.1179096
268.5328396
193.7183104
109.8662903
112.2068285
94.11113218
64.11770557
64.5864927
57.95310308
45.95921459
46.18904982
43.37305055
38.00846254
38.13175653
36.77683525
34.12490528
34.20876513
234.1387355
247.2578532
183.80744
107.0320906
109.1289828
92.21616667
63.57672473
63.97620945
57.56804276
45.72297133
45.89261488
43.16166747
37.85809711
37.96920612
36.64034265
34.01362246
34.09696244
219.3487416
230.1845826
175.2288584
104.4766353
106.3694598
90.48750446
63.08198697
63.44991638
57.2386998
45.55697571
45.67591226
43.00748472
37.72929372
37.82372684
36.51854314
33.90587124
33.98626378
206.8396422
216.0349931
167.6795311
102.147371
103.8751747
88.89621442
62.61502867
62.96312516
56.93349038
45.43463685
45.52339277
42.89619922
37.62412137
37.70087639
36.41430742
33.8042905
33.8798437
196.0311494
203.9953572
160.940691
100.0014717
101.5953045
87.41708762
62.16855505
62.50179459
56.64125561
45.33415237
45.40814073
42.81008064
37.53918014
37.60123391
36.32654711
33.71014627
33.78006512
186.5473136
193.5474117
154.858425
98.00580468
99.48969049
86.03035596
61.73786925
62.05965526
56.3570865
45.2432451
45.31090728
42.73667377
37.46871437
37.52046676
36.25164588
33.62316564
33.68778416
178.1331949
184.3516488
149.3246005
96.13472828
97.52738239
84.72002545
61.3182718
61.63222521
56.07704487
45.15493007
45.22118633
42.66818452
37.40722797
37.45272163
36.18549703
33.54216698
33.60242836
170.589834
176.172698
144.2497049
94.36360807
95.68364677
83.46924858
60.9034315
61.21445289
55.79613898
45.0643017
45.13269355
42.5993265
37.35033043
37.39274316
36.12452059
33.4656882
33.52269585
163.7507079
168.8197531
139.5500635
92.66734384
93.93344266
82.26005194
60.48668373
60.79969607
55.50930945
44.96781241
45.04087138
42.52649312
37.29483546
37.33644693
36.06597071
33.39236868
33.44712326
157.4880121
162.1358476
135.1591884
91.02629497
92.25250796
81.07859069
60.06337802
60.38163169
55.21315509
44.86333371
44.94252549
42.44752387
37.23862047
37.28093255
36.0079239
33.32110909
33.37441138
151.7095994
156.00259
131.0330328
89.42987005
90.62325881
79.91773758
59.63178779
59.9562952
54.90654467
44.750074
44.83587414
42.36148286
37.18042891
37.22430965
35.94916013
33.25109712
33.30352754
146.3505103
150.3364293
127.1439535
87.87471377
89.03730133
78.77579528
59.19256302
59.5226653
54.59017894
44.62823672
44.7204194
42.2683207
37.11964276
37.16550664
35.8889976
33.18177404
33.23373109
141.3608467
145.078617
123.4716236
86.36014756
87.49247163
77.65312909
58.74723682
59.08176007
54.26545978
44.49846546
44.59652799
42.16840491
37.0559938
37.10401973
35.82705946
33.11272409
33.16450956
136.6944616
140.1842258
119.995201
84.88493717
85.98845838
76.55001995
58.29731763
58.63517115
53.93379789
44.36148684
44.4648856
42.0622124
36.98937063
37.03963312
35.76312217
33.04365383
33.09547713
132.3059939
135.6141671
116.6908307
83.44617936
84.52488791
75.46572682
57.84398685
58.18445238
53.59639678
44.21795828
44.3262211
41.95017985
36.9196879
36.97225402
35.69699811
32.97429074
33.02635909
128.1546518
131.3410153
113.5329139
82.03684003
83.10392158
74.39590838
57.38661142
57.73164896
53.25304268
44.06790151
44.18129952
41.83226452
36.84664936
36.90181609
35.6283327
32.9042505
32.95688375
123.9789245
127.3627815
110.3256463
80.56898272
81.74008755
73.2729885
56.89502871
57.28306153
52.88079931
43.90067845
44.03198344
41.69990442
36.76469496
36.82860936
35.55192497
32.82851301
32.88703944
791.0929092
921.83548
886.321668
553.6004031
574.0787938
686.8804822
152.7631271
241.6971593
222.7926159
510.2858983
829.8931673
1429.659889
1092.903641
732.9218376
326.7024857
338.5699927
449.8887967
140.6766616
200.1194768
192.9880147
217.0467466
204.2869768
141.7010666
434.9474008
485.910951
280.6015864
385.530141
359.7375672
397.3051168
267.1991639
1330.521514
974.2187832
647.7750302
625.9042842
540.5531913
588.6302126
706.3319581
673.5382261
336.611351
365.7559726
540.6683983
247.2558611
302.7405501
294.5387657
347.3144219
315.1678136
255.053375
1479.477788
1324.899059
977.3430533
2533.677305
2809.018579
4414.089164
691.9605785
1021.043884
901.3410048
1219.725608
1925.84465
1682.622488
651.7846724
685.3656136
1039.927469
479.9274182
567.9039802
546.7335726
592.6290534
498.4543086
786.2522948
738.2897762
609.5997256
1960.637034
2214.918816
860.7233526
871.3475552
211.164131
218.6021754
344.459363
135.9074614
168.0414589
163.9727734
188.4576252
172.6415746
138.8069735
421.5839915
490.3301226
475.2790137
525.9314945
507.9905078
435.9046333
725.3819552
598.0872146
624.2114609
225.7291431
271.4175563
266.6593608
284.9011969
278.7112453
231.7029753
462.1220972
343.2266496
357.7358066
466.7774658
623.7656912
599.4044734
1890.471475
3399.807968
2918.092436
770.3200501
800.1371683
704.1777978
723.7284794
960.6614201
530.8104926
604.7783061
592.3886901
3663.297142
2138.753571
2507.76132
1616.128321
1835.919313
3147.148231
923.2381703
1203.876162
1110.383196
1738.097184
2900.028432
2533.008389
3823.017068
3359.03007
2007.829274
1165.296143
1728.95405
1550.585482
2198.821043
1941.920087
1275.107258
2514.093227
2213.119035
1343.80755
101.2981595
102.2409392
135.2717566
72.12813153
84.43923259
83.8711702
1037.28703
977.8579288
814.7347887
2120.668943
1321.840804
1448.946574
1114.884601
1199.017698
1828.217401
874.0883094
912.4192095
1215.959485
695.945304
765.7808991
763.5374414
805.9084
708.1116959
1549.989722
1719.693786
939.81531
1180.095262
1107.01705
1396.59635
1278.462171
984.8333424
33.64423735
32.45000002
31.85523
31.4560847
31.19072627
31.00730221
600.31795
517.2941893
533.9777886
120.8497744
98.88341481
99.91485826
62.83523956
56.40465146
56.36510691
44.5298532
42.06011336
41.94190452
37.13037168
36.03364221
35.95629014
33.8094704
32.54784764
32.50348613
31.90295995
31.4658749
31.46191003
31.17237675
30.96833865
30.98948889
384.4419311
306.1015293
315.8933851
112.9486574
94.21648143
95.47650148
62.34571122
56.29116899
56.34246198
44.79985706
42.34806675
42.32924842
37.38405491
36.25099689
36.20483337
33.89024071
32.59631203
32.57446362
31.92464659
31.46072977
31.46482774
31.14770885
30.92636886
30.94899208
274.5528939
199.3115999
204.8042921
106.519986
90.20932817
91.06695155
61.435574
55.75067728
55.86625447
44.76619162
42.38673722
42.40222359
37.44801976
36.31632474
36.31643854
33.89528596
32.5977479
32.60031516
31.91782526
31.44090716
31.45212996
31.11333695
30.87921217
30.9041559
247.7742009
186.1303522
188.4194039
102.7532291
87.77141762
88.2534417
60.7679018
55.32986123
55.43253884
44.63836806
42.29435991
42.32764396
37.40434904
36.27955709
36.29388138
33.85699217
32.5692508
32.58685538
31.88641393
31.40514478
31.42282213
31.06920834
30.82542748
30.85369175
234.6844088
179.9299614
181.2464976
100.7206792
86.3267325
86.6405019
60.22079885
54.9141653
55.02242641
44.41917776
42.11115977
42.16525503
37.29251134
36.18887974
36.21523506
33.78778405
32.51540913
32.54507427
31.83363278
31.35171897
31.37976242
31.01098218
30.76284413
30.79581678
224.2468386
174.5017783
175.9659588
99.2745241
85.16042088
85.45218255
59.5788448
54.3925826
54.53820415
44.10800205
41.85056156
41.91811313
37.14916179
36.06931769
36.10074914
33.69854825
32.4434423
32.48125166
31.76602449
31.28544557
31.31965296
30.94238965
30.69131617
30.7283109
211.9912637
167.5216018
169.4253068
97.31524824
83.78056523
84.16299711
58.79923513
53.76115034
53.91197311
43.78693082
41.59055209
41.6537494
36.99816976
35.93872174
35.97180177
33.59832975
32.35965486
32.40271029
31.68781444
31.20891121
31.24803702
30.86501126
30.61233686
30.65291728
199.2929866
159.9432652
161.7415735
95.12866724
82.35881578
82.70056975
58.18787451
53.24913283
53.36249295
43.49996376
41.35242291
41.40951367
36.84902772
35.80634693
35.83929331
33.49305335
32.26850755
32.31478791
31.6019259
31.12448368
31.16735044
30.7803471
30.52656634
30.57043779
188.5743159
153.3182266
154.8949325
93.14130013
81.06152825
81.37599447
57.75021176
52.88572461
52.9646766
43.25994117
41.14476493
41.19318724
36.70707351
35.677351
35.70905503
33.38660339
32.17304252
32.22116221
31.51056066
31.03418665
31.07981581
30.6898053
30.43516685
30.48167801
179.3725646
147.4757389
148.8715584
91.33293071
79.86444577
80.15497433
57.39918449
52.62226376
52.68212733
43.07807799
40.97792796
41.01551007
36.57735276
35.55599992
35.58538896
33.28188326
32.07559056
32.12443476
31.4156875
30.93971535
30.98727641
30.59472163
30.33894877
30.38777522
171.3412722
142.2645867
143.515752
89.67651948
78.75443088
79.02456547
57.08407129
52.4053343
52.45707226
42.94770175
40.85294253
40.88070152
36.46422659
35.44614143
35.47238444
33.18124175
31.97812165
32.02675395
31.31904403
30.8425261
30.89130716
30.49631649
30.23927995
30.28965269
164.2196968
137.5568974
138.6921829
88.14404688
77.71694618
77.97023812
56.78616635
52.20773996
52.25607649
42.8509368
40.75982447
40.78081261
36.36857636
35.34946367
35.37241625
33.0860312
31.88207106
31.92985838
31.22198556
30.74381274
30.79324856
30.39566626
30.13674249
30.18851
157.8251666
133.2595951
134.2994923
86.71329617
76.73925057
76.97866927
56.49843223
52.01852945
52.06536175
42.77237498
40.68648572
40.70352538
36.2877641
35.26490611
35.28504037
32.99638998
31.78816849
31.8348336
31.12536584
30.64441974
30.6941264
30.29360432
30.0326755
30.08504301
152.0286719
129.305526
130.2647257
85.36667012
75.81061739
76.03872359
56.21687118
51.83255319
51.87896972
42.7022081
40.62370073
40.63879695
36.21773089
35.18984548
35.20788222
32.91164683
31.69656522
31.74208661
31.02960962
30.5448979
30.59462516
30.19075024
29.92704712
29.98023464
146.7352018
125.6433878
126.5343591
84.08837952
74.92023455
75.13990865
55.93706451
51.6455151
51.69262066
42.63407952
40.56504357
40.5795932
36.15456382
35.12138362
35.13802894
32.83079562
31.60707658
31.65157817
30.93485928
30.44556995
30.49517969
30.087543
29.82124058
29.87433524
141.8575946
122.2216937
123.0573621
82.86047784
74.05557525
74.26999966
55.65374906
51.45300216
51.50185748
42.56358744
40.50606863
40.52102394
36.09508889
35.05698684
35.07282236
32.75283025
31.51938328
31.56303163
30.84110385
30.34662952
30.39603922
29.98428843
29.71444195
29.76817101
137.3192251
118.9934664
119.7845499
81.66647524
73.20531272
73.41699117
55.36253979
51.25155447
51.30288085
42.48787231
40.44388629
40.4598414
36.03698365
34.9946998
35.01015968
32.6769052
31.43315869
31.4761174
30.74826814
30.24816018
30.29734082
29.88119688
29.60847069
29.66154003
133.0649026
115.9259856
116.6792437
80.49577385
72.36253283
72.57273392
55.0611534
51.0394401
51.09349759
42.40541534
40.37686989
40.39412779
35.97869037
34.93313892
34.94851844
32.60237416
31.34811304
31.39053061
30.65625671
30.15021492
30.19916498
29.77838318
29.5014202
29.5553246
129.0601467
113.000959
113.720044
79.34439655
71.5250152
71.73390607
54.74950911
50.81665669
50.87330781
42.31578312
40.30437909
40.32302458
35.91928854
34.87142743
34.8869039
32.52877691
31.26401532
31.30602726
30.56498597
30.05278917
30.10155882
29.67594959
29.39619749
29.44884028
125.2818857
110.2079374
110.8956232
78.2120252
70.69327631
70.90062963
54.42878342
50.58419807
50.64315144
42.21918661
40.22637005
40.24638072
35.85827316
34.80902584
34.82471282
32.45574524
31.18068047
31.22244881
30.47433066
29.95586191
30.00460406
29.5738681
29.28911972
29.34335733
121.7103281
107.5383376
108.1985541
77.09914806
69.86843174
70.07408412
54.10042301
50.34329665
50.40425128
42.11607101
40.14304356
40.16435975
35.79535738
34.74558295
34.76155611
32.38302527
31.09787446
31.13975451
30.38407793
29.85923695
29.90839763
29.47206978
29.18513741
29.23758978
118.3229729
104.9810622
105.6218465
76.00561225
69.05115449
69.25548704
53.76575899
50.09511853
50.15783126
42.00691022
40.05465588
40.0772184
35.73035142
34.68084496
34.69716554
32.31036073
31.01504612
31.0579984
30.29375692
29.76251631
29.81325839
29.37006236
29.0771215
29.13383318
115.0954543
102.5222085
103.1630279
74.92976168
68.24104941
68.4473329
53.42570396
49.84052185
49.90528109
41.89204272
39.9613665
39.9852272
35.66304079
34.61454108
34.63130401
32.2373858
30.93085329
30.97766514
30.20219564
29.6644632
29.71985295
29.26667599
28.97283939
29.03034332
111.9968838
100.1378091
100.8371388
73.85931988
67.42844823
67.65980501
53.07592359
49.57618034
49.65017732
41.76980532
39.86177426
39.88921614
35.59231212
34.54559144
34.56402339
32.15898569
30.83850361
30.90072924
30.10180043
29.55703235
29.63002433
29.15315803
28.84988264
28.93273436
149.19138
168.2929189
166.2277407
499.8310873
570.4529376
560.5915355
835.6708473
827.8754779
707.6568552
163.8054934
162.0815899
144.6026089
318.9049295
282.2730415
441.0554686
449.9892469
511.3076884
753.9005714
783.0061379
921.1884048
1130.144346
1186.004582
822.8678691
702.9003966
739.2549653
478.9875343
424.0658074
432.2412238
1005.716344
1063.814272
56.2290542
56.13231578
62.89178572
47.09124821
51.01993331
51.20812598
41.7894799
41.61294047
44.03255106
38.10272683
39.67624354
39.82790907
35.8689946
35.76262289
36.81840823
34.1745267
34.89201342
34.98272782
487.3694172
500.8031029
577.6199954
381.2445981
434.7737353
424.7778014
460.3309912
447.6080502
390.0248625
96.77922549
97.5131849
118.4716806
71.28898012
82.26123786
81.66140859
83.39531605
82.7623574
71.48037891
56.39735597
56.41005513
62.76458195
47.6424035
51.50454855
51.55245477
51.33136014
51.46161198
47.60998965
42.23342786
42.18718148
44.61921688
38.56236604
40.19354351
40.24712418
39.97491691
40.07008626
38.45551142
36.16438807
36.1021536
37.21785902
34.41339262
35.17781369
35.23328254
35.05448396
35.123185
34.36830555
289.1189889
297.7517532
368.5654242
258.1109337
253.822577
214.316728
92.02700241
93.03943434
111.1052092
69.80697177
79.66748798
79.03381019
81.10799345
80.36712228
70.24720629
56.003593
56.15124238
62.07877326
47.81356255
51.50807855
51.42224249
51.53561975
51.56306666
47.81904168
42.41080507
42.40625579
44.82668597
38.77740894
40.4182433
40.43785045
40.33207733
40.36754667
38.73759497
36.30322167
36.27426928
37.410743
34.54452341
35.33298862
35.3577733
35.27036046
35.30877719
34.52508387
402.9754291
420.2216099
191.2715808
194.8479177
265.5900439
126.8282353
154.4654738
152.2050571
160.3258
157.1571985
128.6538767
88.81226453
89.46049394
105.349098
68.40405237
77.49125979
77.07921263
78.49169504
77.96099644
68.71821355
55.53949779
55.65279175
61.24906636
47.632362
51.2066701
51.14197819
51.34197661
51.26555038
47.67632537
42.34647522
42.3683442
44.73701714
38.79522945
40.41576734
40.39916397
40.43500822
40.42814674
38.80301754
36.3059879
36.31331193
37.44315645
34.57168314
35.36712897
35.3612626
35.36928383
35.36935302
34.57377376
357.5816849
366.2369353
182.6605419
184.2547432
243.7839825
121.8795156
147.6168552
146.6164953
150.3440671
148.8316126
122.8094753
86.97842782
87.34932663
102.123818
67.45808313
76.11995733
75.86356136
76.71770159
76.39972794
67.65783906
55.12777272
55.22893258
60.62866625
47.43192645
50.91671997
50.83687114
51.06768449
50.99298526
47.49116055
42.21376068
42.25660169
44.59071557
38.72211345
40.32637842
40.29015711
40.38150083
40.35710452
38.74817546
36.23946839
36.26114555
37.38204354
34.53550575
35.32320039
35.30580353
35.35081642
35.33787807
34.54808575
331.3911922
337.2505985
177.3367572
178.6446967
232.0975186
119.4074707
144.2432885
143.4650759
145.772742
144.9997081
119.920422
85.73868067
86.02651887
100.355719
66.72330631
75.14820788
74.90916214
75.62183482
75.38430514
66.90792539
54.67376589
54.79848962
60.07705549
47.14466262
50.56845626
50.46436361
50.75309754
50.66430158
47.22561021
41.98601425
42.05125893
44.3498603
38.57185187
40.14988519
40.09571219
40.24865693
40.20149157
38.61448057
36.13131767
36.16079905
37.25818718
34.46429985
35.24034958
35.21524593
35.28595656
35.26402909
34.48501701
307.7152423
313.9054837
171.2332359
172.9262228
221.3874013
117.120139
140.742076
139.6548641
142.6371922
141.7289408
117.7677527
84.52240104
84.85120601
98.86038731
65.87709896
74.14172825
73.87129552
74.66162908
74.40795069
66.1058054
54.07055623
54.23483401
59.38967507
46.75350516
50.09933727
49.97025132
50.35166528
50.22970886
46.85786406
41.71823338
41.78388655
44.02493012
38.39447258
39.93226055
39.87852272
40.0410846
39.98650442
38.4392319
36.00468077
36.03724644
37.11162941
34.36995664
35.13362157
35.10495565
35.18894798
35.16165487
34.39502327
281.2190365
288.081033
163.6029307
165.5308333
208.6087051
113.8804042
135.938511
134.6773603
138.493303
137.2364624
114.7524236
83.0504986
83.4098674
96.74858012
64.95592656
73.03571976
72.78728592
73.5812305
73.29927265
65.16505458
53.48579158
53.6188588
58.62591912
46.36380873
49.60988345
49.50042548
49.84531734
49.72501667
46.45660731
41.46832589
41.52871787
43.71159979
38.2174614
39.72140072
39.67078797
39.82537826
39.77295629
38.26115983
35.87238288
35.90556211
36.96045664
34.26393196
35.0165504
34.98661895
35.07582442
35.0462899
34.29110479
257.2632783
262.7234607
156.5227876
158.2047058
196.4478567
110.6247237
131.1153669
129.997716
133.4539826
132.2669693
111.4044837
81.69688171
82.02442252
94.61374765
64.26552441
72.10239234
71.88798528
72.55049815
72.32277041
64.42104598
53.05092071
53.14547144
58.06570975
46.03102075
49.21079772
49.12833785
49.39710945
49.30042296
46.10770763
41.24406384
41.29721464
43.43489488
38.04872983
39.52530711
39.47936404
39.621159
39.57261186
38.08984492
35.74116263
35.7736231
36.81266776
34.15292333
34.89654735
34.86663827
34.95661282
34.9265396
34.18087086
238.2896915
242.6557669
150.3089887
151.7905147
186.1465861
107.7124584
126.8335654
125.8377018
128.9124079
127.8579487
108.4109952
80.4512054
80.75335139
92.67325277
63.7064192
71.27205905
71.07461918
71.6784725
71.47322865
63.83929419
52.74543489
52.81299959
57.65706256
45.7746013
48.92125288
48.86405241
49.05284353
48.98395881
45.83104374
41.0558483
41.09895615
43.20891731
37.89388534
39.35090776
39.31171958
39.43488036
39.39199719
37.93094307
35.61545186
35.6461347
36.67328078
34.04124982
34.77807387
34.74913725
34.83689611
34.80733086
34.06902472
222.8033965
226.4110077
144.8000079
146.1193252
177.2665555
105.0924471
123.0069159
122.1113485
124.8688521
123.9256178
105.7230122
79.29946804
79.57936928
90.90566089
63.2026932
70.50196382
70.31726591
70.88054732
70.68966759
63.32522722
52.51022979
52.56515727
57.31807635
45.5933258
48.71816452
48.67604424
48.81158153
48.76314457
45.63279792
40.91066566
40.94302585
43.04127976
37.75926218
39.20610198
39.17497656
39.27448511
39.23926061
37.79073743
35.49945775
35.52734616
36.54739745
33.93232686
34.66483753
34.63775168
34.72058944
34.69245544
33.95912462
209.7890678
212.8517556
139.8542756
141.0445621
169.4836165
102.7110525
119.5505499
118.7355885
121.2375204
120.3842447
103.2867343
78.22745527
78.48879016
89.28263931
62.72965969
69.77926691
69.60504507
70.13531553
69.95599027
62.84563588
52.30502765
52.35473055
57.00832203
45.46251807
48.56179593
48.52663822
48.63620403
48.5982194
45.49198468
40.80320076
40.82718094
42.92104831
37.64832285
39.09284531
39.06889217
39.14578356
39.11843302
37.67387935
35.39616533
35.42073878
36.43872351
33.8290154
34.55999924
34.53533254
34.61123545
34.58529918
33.8541996
198.5968805
201.2499115
135.3616768
136.4471326
162.5587311
100.52277
116.3931643
115.643972
117.9382484
117.1576538
101.0538173
77.22132553
77.46737673
87.77751822
62.27855398
69.09560503
68.92997253
69.43308024
69.26326794
62.38958436
52.11246521
52.15990822
56.71342619
45.35803657
48.42622211
48.39398133
48.49243297
48.45899347
45.38263269
40.72133767
40.74005928
42.83004389
37.55883254
39.00527106
38.98640678
39.04639569
39.02522246
37.57947986
35.30581585
35.3272801
36.34712661
33.73298335
34.46504302
34.44282548
34.51128956
34.48785371
33.75628285
188.8095115
191.1417419
131.2429328
132.2410683
156.3240731
98.49219116
113.4812439
112.7866747
114.9093341
114.1885733
98.98662617
76.26942028
76.50290456
86.36931798
61.84432486
68.44384788
68.28516154
68.76618148
68.60414271
61.95153531
51.92539589
51.9719057
56.42759382
45.26551836
48.29912114
48.26790914
48.3620983
48.33048806
45.28802962
40.65423011
40.67009787
42.75432719
37.48529828
38.93495424
38.9191945
38.96846778
38.95134289
37.50251573
35.22637383
35.24537103
36.26940338
33.64430074
34.37941136
34.35927254
34.42116447
34.4000277
33.66583005
180.1477277
182.2197594
127.4411328
128.3646161
150.6616623
96.59216035
110.7745398
110.1259062
112.1044201
111.4338547
97.05621364
75.3613999
75.58491392
85.04132139
61.42247255
67.81737996
67.66385487
68.12793034
67.97202126
61.52706927
51.73945143
51.78607888
56.14693871
45.17706789
48.17422339
48.14280834
48.23672576
48.20550442
45.19912127
40.59417626
40.60885921
42.68517722
37.42202481
38.87462358
38.86043983
38.90393634
38.88909663
37.43716391
35.15496207
35.17222374
36.20143023
33.56193924
34.30134233
34.28277236
34.3395682
34.32026143
33.5820167
172.4039258
174.263871
123.905734
124.7674908
145.4802532
94.79844308
108.2383974
107.6268762
109.4873743
108.8583669
95.23829817
74.48548694
74.70216886
83.77737219
61.00709337
67.20818492
67.05752146
67.51123233
67.35937064
61.11071597
51.55019929
51.59806999
55.86675087
45.08740184
48.04686183
48.0141773
48.11113923
48.0791626
45.11017521
40.53581224
40.55047314
42.6168083
37.36432324
38.8188166
38.80510311
38.84644323
38.83257883
37.37844238
35.0888158
35.10499451
36.13945106
33.4844655
34.22877812
34.21127901
34.26450448
34.24650925
33.50345939
165.4025678
167.0910491
120.5858469
121.39813
140.6940273
93.08561764
105.8377228
105.2550265
107.0231905
106.4269602
93.50753298
73.62919526
73.84202496
82.55931902
60.59136297
66.60706475
66.45713012
66.90716765
66.75704193
60.69566512
51.35354999
51.40358576
55.58180463
44.99263223
47.91312715
47.87837551
47.98100754
47.94732582
45.01696984
40.47550905
40.49091281
42.54522364
37.30871439
38.76367574
38.74968742
38.79135941
38.77755506
37.32257235
35.02568085
35.04128497
36.08050485
33.41047029
34.15985096
34.14301297
34.19396836
34.17682791
33.42871465
159.0064201
160.5538453
117.4410902
118.2125858
136.2311583
91.43212384
103.5430039
102.9834357
104.6785513
104.1079282
91.84080046
72.78323306
72.99408566
81.37186333
60.16997235
66.00664165
65.85614587
66.30711019
66.15695036
60.27604121
51.14686955
51.19955925
55.28817498
44.89027277
47.77039221
47.73315778
47.8430045
47.80700411
44.91666261
40.41104433
40.42763017
42.46791848
37.25282735
38.70668364
38.69196909
38.73553409
38.72119919
37.26692367
34.96389613
34.97928747
36.02247154
33.33878342
34.09308073
34.07659808
34.12627944
34.10963539
33.35654524
153.1152796
154.5427049
114.4464675
115.1822038
132.0424083
89.82507467
101.3357992
100.7963971
102.4292029
101.879899
90.22281181
71.94312506
72.15267921
80.20617714
59.74045767
65.40323483
65.25185022
65.70540995
65.55441713
59.84862094
50.9293354
50.98472193
54.98416403
44.77921755
47.61756102
47.57779363
47.69526461
47.65671877
44.80781478
40.34132294
40.35927399
42.38367539
37.19520721
38.64639796
38.63073532
38.67701715
38.66182218
37.20982929
34.90234336
34.91775419
35.96396724
33.26851857
34.02739355
34.01105935
34.06016003
34.04375609
33.28599097
147.6595854
148.9809832
111.5884541
112.2914624
128.0974087
88.25977606
99.20758342
98.68700901
100.262097
99.73224749
88.64719164
71.108347
71.31650691
79.05953513
59.30301095
64.7965976
64.64458705
65.10026226
64.94849254
59.41304769
50.7015595