/*--------------------------------*- C++ -*----------------------------------*\
| =========                 |                                                 |
| \\      /  F ield         | OpenFOAM: The Open Source CFD Toolbox           |
|  \\    /   O peration     | Version:  v2012                                 |
|   \\  /    A nd           | Website:  www.openfoam.com                      |
|    \\/     M anipulation  |                                                 |
\*---------------------------------------------------------------------------*/
FoamFile
{
    version     2.0;
    format      ascii;
    class       volScalarField;
    location    "1.55";
    object      p;
}
// * * * * * * * * * * * * * * * * * * * * * * * * * * * * * * * * * * * * * //

dimensions      [0 2 -2 0 0 0 0];


internalField   nonuniform List<scalar> 
3259
(
800.8163731
805.1156889
814.0090404
826.5961163
856.4656935
881.2775779
912.6843242
963.0923595
1014.135169
1066.900518
1118.016667
1203.590318
752.6322249
755.3999965
761.3226576
769.2478895
793.2493398
808.1397003
824.3543241
858.1920327
885.6952404
906.0585925
907.4358486
912.0577741
701.4334138
702.6054862
705.2237916
708.2948505
726.7785528
731.2121976
733.4365604
748.9323413
753.8420316
745.4324072
702.2789855
578.3134221
648.574225
648.2942302
647.8036282
646.4007572
659.7102834
655.4042891
646.4159371
644.2598532
628.1861535
597.7607442
533.4542018
418.5094793
595.3599954
593.8867302
590.8359714
585.778374
594.2558572
583.1135339
565.5442404
550.422999
515.5628845
467.8402325
396.0223232
290.8639408
542.9381888
540.5426247
535.5134783
527.6890287
532.1246826
516.073767
492.7932428
470.7756093
424.0678023
364.9005305
288.6303365
198.0250577
492.2012039
489.138717
482.6787481
472.9217082
474.2998216
455.1661092
428.6499122
403.4834292
355.8358536
295.0260572
219.3443519
140.1416032
443.7994854
440.3105637
432.9351504
421.991184
421.2377281
400.5223538
372.5984943
346.758298
300.9867634
245.4815892
179.6317643
111.8570552
398.1706961
394.4662413
386.631815
375.1368708
372.9860089
351.8489407
323.9902053
298.8110871
256.2258502
206.6417304
150.0420395
91.43255623
355.5674855
351.8157044
343.8883453
332.3536429
329.351308
308.6387688
281.9271981
258.0357758
219.2255399
175.2956292
126.1889185
76.10979316
316.0823947
312.4091308
304.6583931
293.459378
290.038288
270.3057621
245.3589001
223.1589816
188.2419869
149.4900443
106.8716147
63.91965095
279.6832782
276.1791788
268.7942998
258.1881787
254.6731728
236.2726878
213.3608099
193.1086121
161.9867904
127.9169208
90.94539288
53.99039251
246.251271
242.9787435
236.0874501
226.2403017
222.8673811
205.9956066
185.2404205
167.0233452
139.4939544
109.6431881
77.59258799
45.75748433
215.6099019
212.6086071
206.2910286
197.300949
194.2319882
178.9776345
160.3948788
144.2091568
120.0235831
93.97444477
66.23850002
38.82678815
187.542211
184.8342955
179.1344852
171.0502255
168.3996512
154.7805002
138.3226227
124.1089972
103.0071353
80.39028417
56.46307426
32.9145645
161.8054491
159.4005305
154.336799
147.1732186
145.0195529
133.0092769
118.5929805
106.2647292
87.99678241
68.48960079
47.94898701
27.80977396
138.1449659
136.0444019
131.6179804
125.3677428
123.7671874
113.314361
100.8402321
90.29625105
74.63435699
57.95785363
40.45336148
23.35197299
116.3029117
114.5027541
110.7041494
105.3467082
104.3398925
95.38175888
84.77040773
75.87591773
62.62479504
48.5400591
33.78511497
19.41527375
96.01714016
94.5114135
91.32587065
86.83067364
86.46400646
78.92421515
70.12078987
62.73990422
51.7262834
40.03031538
27.78442661
15.89784211
77.05343953
75.83308137
73.24368263
69.58084936
69.86509443
63.67901935
56.57857458
50.67533685
41.7362481
32.25583907
22.3185527
12.71532903
59.08871737
58.15396524
56.15171747
53.28050003
54.35369311
49.40895723
43.82366174
39.4716489
32.46859924
25.06223638
17.27559245
9.796522857
42.16108767
41.48536399
40.05202313
38.0068584
39.45664059
35.89478047
31.78612389
28.91166022
23.75074639
18.31018078
12.55775204
7.080703912
25.0319552
24.69431362
23.84595055
22.61795003
25.25669221
22.94292956
20.24592131
18.8223058
15.42509306
11.86974128
8.073270459
4.51477387
11.84502674
11.56457422
11.146939
10.52668013
11.39243135
10.23515038
8.932663793
9.045695468
7.340014023
5.605844659
3.729518268
2.058789311
1220.455477
941.6986465
1168.246656
1217.132194
960.4751438
947.5898432
1186.367192
1086.476941
1126.044752
1270.898315
648.7911334
1279.15748
1284.773247
1038.711165
1114.505308
1067.138499
1120.217501
957.0373156
1276.525314
1130.953272
-235.7475954
1200.836212
1165.414141
1105.616602
1235.07624
1183.676281
1209.674509
1329.995268
1297.44149
1251.134839
1312.394571
1338.65582
1343.163646
1334.006912
1083.8071
1017.382004
952.4871636
975.4359793
515.6011377
231.4616604
1215.870868
-222.8840833
190.8035757
-136.985287
1207.671537
-172.657716
158.3822423
750.1507843
688.8127788
910.9251141
795.5266174
816.8974301
995.8127378
1159.654386
1145.262626
1111.827154
909.874197
710.0204134
1376.312548
1299.165427
796.6062846
996.9038981
952.065891
1099.798999
1059.173626
1068.870772
199.2972389
1076.52409
465.3017069
743.7176947
553.7229475
588.9472569
1246.460956
1164.505861
1185.217204
1156.231527
1167.185627
1233.404291
1220.84904
1194.872489
1369.359836
1308.618352
1048.025182
1044.158274
997.9851176
638.9189073
557.3587474
1057.561144
305.3067018
448.3539088
355.6228589
1235.938143
-373.6329411
47.54414863
254.4106454
5.381188213
1166.350443
1254.887086
1230.060229
1243.028163
1297.799451
1285.771956
1263.262781
1289.858712
1298.548757
1292.059015
1107.775785
1268.203725
1275.158844
1282.223097
1138.748814
1316.771904
1293.896952
1305.397178
1363.2831
1347.109313
1324.955492
1347.392659
1358.052702
1352.550378
1325.312406
1329.017247
1337.640374
978.8907164
991.9480854
962.4576286
680.5381609
986.2373717
395.8816344
511.859475
622.6090298
1222.180177
1226.768111
1222.412342
-287.0368901
-129.5099922
-109.5082127
-125.3739224
1197.29776
1204.263933
1214.7822
-30.53498945
1392.739181
1388.849608
1302.851626
1295.938237
1302.076038
1297.302477
981.6622481
1003.361281
1086.17524
1086.274279
1080.240697
1063.453055
1093.893977
415.0655824
403.7806003
1055.003078
943.8333847
732.9818223
1248.19141
1263.67112
1258.208333
1151.376345
1363.361361
1350.750718
1383.893886
1375.481261
1313.388222
1320.539367
1316.665938
1323.489741
1316.709156
1340.230457
1331.634772
1044.023066
1022.445896
1024.491762
602.042528
610.2725971
660.6478828
559.2243595
564.1185902
551.7330702
1035.970959
396.9113729
349.7955514
286.2376103
1228.357257
1230.239431
1236.036542
-353.0425886
133.3561551
78.24652644
239.4706222
230.6412299
240.6087484
62.13731619
-67.81528499
-48.71227442
51.10386852
1179.288179
1194.531036
1187.051258
988.2396379
1030.451391
1045.342262
1090.930739
1106.270518
1153.09853
884.0165099
908.8435148
1001.012928
917.0777097
939.3234426
1053.754135
945.4100926
957.5037051
1105.999295
1066.645903
1065.790757
1150.740701
1156.345558
1175.75754
1226.626646
775.9473864
784.2529511
879.0265677
786.3394561
786.9865371
902.2903456
784.472656
763.413736
909.4801788
853.1642054
845.7995601
918.3083543
872.9965941
859.2446781
926.9367456
669.5675134
662.1382549
753.2145836
658.6863663
641.8873051
749.7891447
633.1570739
592.3484216
718.0267644
572.5939362
492.7650342
628.7378162
454.0191506
572.6117129
550.6231854
632.938934
542.258267
511.3705018
607.6665398
498.3708039
448.2999456
553.8191631
427.6587513
349.7182981
451.8724706
320.6025169
489.4424722
456.7619437
525.0447215
444.4132543
403.097021
481.6342836
387.552944
334.0144699
416.7905318
312.1050036
245.2895656
320.3864319
217.5982999
419.2284567
384.7279461
437.105808
371.4389181
326.1907329
380.8440685
309.6740136
254.3636175
310.533587
233.1699687
175.9471126
224.5171883
151.6557284
360.0321281
326.2851922
369.0003802
313.6518695
271.8231246
311.3020211
256.7345746
206.5604477
240.4115052
188.0157113
137.3532569
163.9444846
117.4468994
310.0490607
278.2616015
313.3981352
266.6075636
228.9039159
260.1384398
215.5561517
172.0969041
197.0942913
156.9194908
112.3598056
130.6184147
95.86636368
267.6144657
238.396064
267.6084871
227.8523458
194.3167222
219.578268
182.5503841
144.6550507
164.6315816
131.6780388
93.62329192
107.2443713
79.60155479
231.372374
204.925194
229.4871974
195.5005507
165.8582328
186.6946118
155.5012803
122.4821638
138.6769383
111.3438763
78.72334885
89.58944258
66.72829051
200.205014
176.5189323
197.393205
168.1643982
142.0621671
159.5182233
132.9690574
104.2379599
117.5956644
94.65872105
66.58129225
75.46104697
56.29515199
173.2011431
152.1676171
170.0849751
144.8081866
121.9016414
136.7146378
113.9436994
88.97498963
100.1727979
80.72415426
56.50558826
63.89011596
47.6804842
149.6272628
131.0893513
146.6177096
124.641161
104.6177656
117.3361173
97.67813847
76.02224004
85.54192068
68.91455217
48.01905162
54.25025402
40.45430833
128.8963392
112.6759968
126.2570023
107.0573999
89.6393763
100.6761981
83.61450585
64.89181728
73.08492208
58.77774595
40.77917483
46.10345781
34.30968982
110.5278601
96.44566244
108.4303091
91.58242935
76.52593752
86.20101774
71.32558276
55.2155391
62.34871719
49.97377755
34.53044279
39.13255778
29.01984682
94.12355849
82.01078465
92.68174928
77.83759467
64.93087557
73.49643966
60.47731465
46.7109125
52.98884759
42.2428975
29.07775902
33.09907218
24.41314952
79.3449306
69.05371496
78.644209
65.514378
54.57517393
62.23549558
50.8020141
39.15769874
44.74103729
35.38382513
24.26852668
27.82039658
20.35648422
65.91062298
57.31198728
66.01346656
54.35819903
45.23101058
52.15222447
42.08240336
32.37519014
37.39622833
29.22965974
19.9783962
23.15169385
16.74274034
53.59776185
46.56997373
54.54058248
44.15888985
36.7103458
43.03045944
34.13922594
26.21215557
30.78175561
23.64130055
16.10455588
18.97455348
13.48364896
42.20190434
36.63255738
44.01774889
34.72749863
28.84642911
34.68899837
26.81396551
20.54011389
24.7527434
18.50217872
12.56026659
15.19068405
10.50494606
31.49767672
27.31365238
34.25165399
25.88746497
21.48793413
26.96508191
19.96398762
15.24751489
19.18555325
13.71185073
9.271452483
11.71681461
7.743666715
21.306731
18.44667375
25.06075235
17.47791607
14.49478219
19.71072601
13.45752455
10.23126662
13.97148542
9.177441093
6.172501439
8.481309726
5.144737093
11.4693153
9.878754687
16.28242801
9.348291515
7.728735827
12.78776304
7.164774346
5.394819687
9.008833847
4.812712881
3.208686688
5.420631592
2.662978652
2.214619719
1.758691492
7.76434633
1.602733188
1.123617399
6.05223864
0.9859272542
0.9074340774
4.198435364
0.9606195505
0.3727266127
2.484162666
0.1924752488
1242.632554
1288.703316
1264.069508
946.8859254
996.2130176
991.2270853
661.0810004
1178.12024
1255.969138
1217.589125
1303.110133
1266.93441
1187.195569
948.0486765
1036.826405
1013.076024
1052.992287
1040.582729
948.1159574
1159.046484
1070.986298
1087.529538
1100.005672
1157.76861
1137.999837
1136.779233
1132.545732
1120.787544
1265.211209
1256.716484
1262.231714
510.1865892
720.5048977
756.2771972
663.6794086
467.1482904
641.7060495
628.6142792
1286.197541
1280.607268
1273.296767
1354.727498
1370.416703
1279.681877
1303.495697
962.1893426
994.0837817
953.6638249
1108.549613
1095.132777
1101.198716
1012.941022
1016.735616
1079.634142
939.9568054
911.1666155
1057.42875
1195.180353
1185.272815
1190.553374
1146.354035
1154.351956
1173.644758
1108.142181
1142.036976
1126.355001
1218.482677
1227.155613
1243.903482
1192.071803
1209.818122
1201.331276
1217.474903
1212.688867
1204.246117
1325.763162
1317.595642
1321.538507
1282.224417
1290.894718
1306.305399
1259.944142
1275.483622
1266.807437
1341.120643
1350.691365
1321.551633
1336.360551
1326.964871
1347.310494
1342.203886
1334.014998
1061.558071
1058.266875
1096.487085
1006.128816
1044.803004
1039.345446
470.3577084
512.0841623
547.2942857
261.6411801
310.8136948
274.7472527
144.8200265
182.7375345
221.8072076
-135.8777387
18.22590444
733.1340029
788.193186
800.4232986
763.8349891
774.2608367
713.5665954
916.3490767
823.3788714
799.8054511
788.3161241
824.4618691
834.1584089
898.6362042
801.3749328
746.2730183
933.5065113
862.9610364
781.8916944
1154.591874
1144.105238
1149.056955
1134.184471
1138.97661
1149.622377
1116.032258
1127.771867
1123.209679
732.7455291
721.3284083
724.9755351
658.4851809
685.556198
740.9550877
1382.747225
1388.398365
1382.842251
946.9029403
946.3338295
639.0689428
983.3170574
987.7028118
993.1269221
954.1786856
973.891131
968.8880579
1087.054929
1090.564077
1103.729132
1060.640315
1076.260259
1073.52842
313.6884785
764.9005029
866.7110569
825.8357343
657.6280576
874.9374215
688.2729262
741.9985056
693.3333105
1176.181739
1180.420611
1190.135369
1160.075116
1170.434441
1165.788793
1179.714873
1175.026816
1164.56785
1229.634533
1220.970833
1225.010934
1212.568482
1216.649205
1225.41835
1199.261468
1208.048333
1203.300653
1361.465159
1368.170667
1376.352137
1028.814038
1025.5646
1043.580829
988.31373
1006.77352
1013.512974
423.7070004
385.8027152
403.1046593
316.8204811
353.3673324
392.168689
63.33645161
114.2342014
91.03944153
1247.084435
1251.642405
1259.99119
1234.266854
1243.10098
1238.23028
1252.968561
1247.911859
1238.758329
1294.300684
1287.285417
1291.725212
1278.610121
1282.802343
1290.220557
1267.956205
1275.540882
1270.586837
1309.412878
1313.430823
1321.403406
1297.802855
1305.559886
1301.17168
1313.229751
1309.564188
1301.822796
1357.666836
1350.125286
1355.600386
1340.18173
1344.914954
1352.356207
1329.347628
1337.25221
1332.234257
434.7544342
476.9073321
440.5883412
535.1190855
508.1016431
472.2473432
580.2532813
551.7073951
583.9249549
-88.29294869
975.6285856
965.868643
975.9791662
1021.464537
1002.069008
989.97001
1296.000226
1085.502662
1054.68361
992.1109276
930.7886038
1035.627357
910.7391355
984.6537185
993.7014855
741.0492394
758.1263998
718.4747659
888.4974195
900.2329621
916.0874623
934.4319467
955.4036325
975.2502207
826.5398232
834.2532312
867.9655245
844.8252127
856.2144271
896.1597183
867.8964121
876.2008328
951.418619
937.2715028
948.1678882
975.393726
982.4180098
993.9253429
1027.348804
1027.126636
1037.512781
1079.883581
1189.074459
1194.69818
1210.771564
760.5288824
764.7946308
800.3289789
769.8409654
774.8052134
816.4275553
778.8931363
772.9531126
851.3287034
830.7128903
836.3043005
865.1146614
852.5210222
857.0870258
891.9198729
865.256526
865.0595051
908.5721997
693.0366695
693.250419
729.2399866
692.9437895
691.7312047
732.8948788
689.2097473
671.6211143
747.4478907
722.0815381
722.3804195
750.525148
721.3715281
719.958649
753.3454857
707.1049882
698.952012
738.9699758
656.7838945
634.7168931
682.0404333
529.4767977
522.5015407
583.1944991
626.4420296
623.2079981
658.2231438
618.6769028
612.5602094
651.5574601
605.0939785
579.3121407
647.7721009
619.6146428
614.9260235
640.7731388
598.5859768
591.7532225
622.5716744
563.5092281
550.4189132
585.7592657
496.2752307
472.5408081
509.630622
385.0268141
334.7442239
369.3530508
562.513727
556.5433974
589.6414427
548.8327989
539.1333002
574.9998903
528.0664656
498.4797399
558.2041583
529.2096463
520.1882376
542.3273429
490.2068155
478.9425908
505.2991919
439.0976873
423.2700341
452.4981828
366.0406205
341.5681621
371.6350365
263.7501156
227.8291048
249.8712827
502.4683697
494.6138733
525.2135158
484.8092689
472.8862315
505.0816347
459.7032181
429.0667571
480.2584074
452.8459221
442.4179822
460.5151319
405.3609813
391.1371413
410.3646697
344.3900026
327.4812935
348.1392117
267.738166
246.9796978
266.8282823
180.5621608
152.3512777
169.2392212
446.9994914
438.0128577
465.895533
427.0484569
414.0046454
442.5273009
399.6336561
369.9048118
413.559498
388.3677554
377.6993527
392.7922681
341.0343861
327.2278713
341.8089956
281.4673459
264.9734108
278.2000918
208.4001692
189.5207139
200.3870164
130.5010654
106.062446
114.251153
396.3365763
386.8362031
412.0027105
375.4469194
362.1768761
387.2505324
347.4260028
319.5028153
356.7668248
333.9976774
323.6524839
336.2760485
288.9508586
276.1953692
287.9421898
234.9217727
220.1219828
230.1756286
171.8369748
155.7316989
162.7622773
106.0324206
86.59457551
91.24937412
350.403013
340.8674887
363.4568239
329.5757208
316.6639547
338.6769755
302.1848764
276.3971824
308.3538946
287.9819629
278.2779647
288.9069653
246.3248936
234.8030805
244.3898933
198.1917277
185.1957865
193.2183821
143.5790987
129.9870103
135.8716891
87.25110733
71.22597692
74.65882002
308.9666238
299.7295741
319.9427183
288.8811524
276.6722743
296.0325084
263.0278118
239.4151544
266.8719167
248.7932202
239.8883018
248.9066358
210.9724312
200.698964
208.6439067
168.383961
156.972834
163.5056628
120.9838346
109.4241423
114.1580945
72.81097802
59.39381772
62.09405398
271.6751734
262.9519729
281.0287916
252.7695502
241.422484
258.4914121
228.833225
207.4786959
231.2231164
215.2163984
207.1566218
214.8706274
181.2773935
172.1881668
178.8650192
143.7415583
133.7437931
139.1538132
102.6094749
92.71775606
96.59238777
61.25115076
49.93693446
52.11986696
238.1436185
230.063381
246.2374545
220.6815655
210.3003622
225.3823317
198.8565339
179.7119612
200.3809035
186.2322976
179.0128745
185.6667719
156.0431641
148.0419454
153.7232115
123.0697939
114.3330764
118.8784695
87.39174772
78.89038021
82.11834745
51.79085983
42.19432396
43.99513647
207.9784343
200.6104414
215.1066545
192.0937041
182.7197153
196.0997329
172.4418104
155.402809
173.5180687
161.0253942
154.6148813
160.4014338
134.3678309
127.3529273
132.2416869
105.5046345
97.89074863
101.7606398
74.58526571
67.2629647
69.9925633
43.91537363
35.74298883
37.25236206
180.7988262
174.1715802
187.1962719
166.5395895
158.1734734
170.0947635
149.0410048
133.9759662
149.9592967
138.9387307
133.2922978
138.3647661
115.558706
109.43595
113.6860394
90.40038981
83.78700146
87.12145206
63.66059241
57.35226658
59.69010927
37.26255618
30.29116073
31.57298866
156.2433692
150.3585033
162.1040178
143.6028018
136.2198084
146.8967991
128.1894493
114.9557178
129.1572325
119.4432858
114.5100464
118.9920422
99.08182597
93.76775881
97.49812606
77.27088293
71.55278382
74.45740714
54.2269294
48.80285743
50.82848989
31.5696808
25.62765002
26.72903607
133.9736012
128.8162957
139.4569648
122.9119516
116.473433
126.0916369
109.4903062
97.94466826
110.6573546
102.1022006
97.8303649
101.8231433
84.51421977
79.93595489
83.24085265
65.73919794
60.8259926
63.38284446
45.98780129
41.34539116
43.11958638
26.64010665
21.59344917
22.55017301
113.6758946
109.2223459
118.9172996
104.1366253
98.60023548
107.3207809
92.60860998
82.59826745
94.07932708
86.55052766
82.89134925
86.47995827
71.5154123
67.60981916
70.5659796
55.50773794
51.32297803
53.59741843
38.7154408
34.77177285
36.34194306
22.32325582
18.06608309
18.90608822
95.06097002
91.28108362
100.1763505
86.97643463
82.29974537
90.27147343
77.28850833
68.63795963
79.08508114
72.47425262
69.38634296
72.64201164
59.8041517
56.51729887
59.18787158
46.33446778
42.81450144
44.85927405
32.22784564
28.91557025
30.32044081
18.50008622
14.94797316
15.69380905
77.85498307
74.71733184
82.95079511
71.15685729
67.28011905
74.64560442
63.23101937
55.84084472
65.41049798
59.62652235
57.07055906
60.04907691
49.15103557
46.43623183
48.87249317
38.02407538
35.11513812
36.97319827
26.37251799
23.63846365
24.91016913
15.07380276
12.15932434
12.82946305
61.82306317
59.28159829
66.97426497
56.42846325
53.29255191
60.17008523
50.10310197
43.99588598
52.84916633
47.80095566
45.73667918
48.48819706
39.35873834
37.17565522
39.42363795
30.40869785
28.06576197
29.77514873
21.02221467
18.82399084
19.98985325
11.96344599
9.633187677
10.24335369
46.63443765
44.70211118
52.00239895
42.56105232
40.16226738
46.63171359
37.7292607
32.84676034
41.19495879
36.77478418
35.17454441
37.75366021
30.24395913
28.56040345
30.66271598
23.33802633
21.52531492
23.11983074
16.06934313
14.37325652
15.45668571
9.100746127
7.312981819
7.876477963
32.16780741
30.86326973
37.78397206
29.36381681
27.67692267
33.8498218
25.97149659
22.23135478
30.19297758
26.34863053
25.19046611
27.64110201
21.63852616
20.4299614
22.42540688
16.67583421
15.366793
16.8772533
11.41833858
10.19902772
11.22113512
6.427067547
5.150216523
5.678560695
18.43140859
17.51720756
24.21385382
16.65222628
15.67152148
21.60179485
14.66190028
11.98767154
19.68113014
16.35079035
15.61787603
17.98057913
13.38739747
12.63429423
14.55984156
10.29319511
9.470502678
10.92653642
6.978664034
6.220476017
7.200670213
3.891456065
3.103194546
3.606026865
6.03437752
5.508970794
10.82686507
5.095275871
4.741287491
9.604558422
4.362856931
2.361560968
9.503075797
6.634791259
6.315227693
8.615911696
5.348975463
5.028615659
6.915091932
4.052667476
3.715268519
5.145060989
2.688725346
2.386038095
3.313547708
1.454527247
1.134766317
1.626470221
1226.542312
1241.928917
1234.400625
941.4298953
961.1167159
959.5563304
1246.808987
1235.688252
1206.801324
982.6969463
980.2698438
947.4575782
1176.990998
1146.269014
1154.459114
1089.641322
1108.112693
1103.10508
1307.693393
1314.499159
1049.689975
1052.002738
1070.936285
110.5463824
912.4047118
877.0295325
874.0575915
929.4614536
908.6437557
927.2467404
859.8342355
874.8795606
914.2862981
241.7873631
597.2604913
548.4691862
603.1007264
1001.801945
1028.286848
1013.281236
1059.864942
1043.826811
1015.847422
1060.423839
1093.111694
1076.317018
1127.453706
1110.172265
1075.632676
1121.661836
1162.638035
1144.937292
1199.014469
1180.631159
1137.22592
892.1649086
919.9985352
910.496193
939.6350027
929.7261742
900.4747762
988.0760457
959.36687
970.8379567
925.0077211
959.2749617
949.5491469
977.6722676
968.6965727
932.4789523
1040.582068
1005.286405
1016.382734
950.5773263
993.9240615
986.1203056
1007.65833
1001.034558
954.7047047
1092.819024
1047.577435
1057.714699
1161.28794
1178.148075
1171.468149
1193.203161
1185.477185
1168.300534
1218.523527
1202.239588
1210.175295
778.8435454
807.3733876
803.1708972
815.5896482
811.5809089
781.6849051
872.0983465
841.916548
847.3948296
787.7510104
822.1101225
819.1752175
824.921988
824.1038238
787.7785609
897.5162312
860.8668633
863.6450598
779.9725157
822.0012735
824.3025979
810.6066884
817.5836522
773.0895308
909.8663321
863.4883818
859.6671431
924.4911893
904.1734569
905.8439681
667.3490335
694.5603459
695.5240853
691.9547189
693.4488911
664.9395628
752.0518625
722.5539012
722.1147028
654.3312866
686.8806706
689.8591839
677.0613144
682.6999058
648.8309531
752.3469831
717.2961003
713.0883373
622.2639213
660.0167114
669.6365304
632.5113395
647.7819532
608.7941737
729.9837343
688.1908861
674.3794223
549.0111343
590.5994844
613.636131
536.8315694
564.0146131
521.4797565
658.5051755
609.2593028
581.0258246
407.7354032
456.9254342
492.0521226
396.8278258
354.6895539
482.377825
442.0835237
565.6431126
589.8735234
595.7359788
577.1672685
583.7472885
558.364896
637.0682085
609.9728373
604.585267
533.081291
561.9482585
569.9675307
542.4022787
552.8589532
522.8677433
615.8317317
583.8294525
574.5234707
483.6303847
516.3319425
530.3162033
481.7418561
500.1918264
466.9400401
571.2128232
534.9463583
516.9095139
403.6872842
437.304229
461.0435385
381.2749425
409.2081999
375.8683545
481.6215699
444.4182769
415.070927
274.4981345
302.8012579
352.2907212
266.0133754
242.5693949
320.0372245
291.2749367
479.4584135
499.2925995
508.9271207
477.957225
488.8904579
468.5102375
533.9164414
510.6909121
500.7394255
431.4261091
454.2938521
466.466704
427.3491737
441.3012885
417.6903195
494.0582232
466.7820461
453.5543914
371.0143406
396.0785673
412.3054994
359.6262878
378.631815
353.3807223
435.4718347
406.0019461
387.2045747
289.0547348
313.9429839
337.9932128
268.2755319
290.8604562
267.5718306
344.823706
316.5300036
293.2996862
187.6824282
207.2601489
239.4176214
175.5687199
155.2395725
219.8067061
197.3448901
408.5901069
425.1171131
435.6900833
401.2705181
413.6639756
397.1008858
449.3028378
431.0464552
418.6976661
357.224677
373.5862532
387.9101882
342.4485267
358.3639266
342.1135941
395.9826976
376.2101004
360.6270237
292.6686838
309.0214356
326.0034931
270.6852566
290.8918346
274.5641193
330.3026772
309.4580425
289.405425
213.7742228
229.2849131
249.2696137
189.924052
210.5726145
195.8888348
246.5007757
227.4726096
206.0725649
124.6947578
137.419982
165.1207816
107.7698746
96.8899742
136.9813841
121.1166401
349.4731174
363.2682365
373.9150206
339.8212827
351.9122537
338.2240034
381.3114917
366.2626179
354.0458614
300.3346714
313.4164789
326.987064
284.2286733
299.1407801
286.3680588
326.940095
312.6511108
297.3695098
240.9480951
252.550218
268.7292007
217.2062528
235.5293748
224.282199
260.3665323
247.6852217
228.7280315
170.321177
179.3782304
197.7538278
144.385381
162.7674455
154.376954
183.3384445
172.589188
153.5082213
95.71315336
100.0716222
122.8219267
77.37900012
73.77909646
88.31772866
81.8936323
299.9959316
311.566825
321.7936097
289.4220367
300.7789885
289.3945441
325.1612616
312.6908404
301.1224872
254.4599356
265.0488887
277.5039659
238.741029
252.1047825
241.8705744
274.3021863
262.8988711
249.1329594
201.6944029
210.652561
224.9692067
180.0225022
195.6430567
187.181874
214.048529
204.577147
188.3544744
142.1366803
148.8038933
164.2287032
117.892532
133.7661328
127.6418948
147.1070673
140.2865012
123.9990678
78.30254518
82.24017278
100.6673142
63.69085384
60.67381272
70.36132075
66.94867257
258.3001596
268.0819947
277.6145829
247.7025572
258.1106614
248.5521929
278.5069134
268.0869967
257.4306755
216.9591827
225.6698342
236.8768757
202.3179112
214.1368442
205.7705335
232.1548857
222.9207618
210.7271291
170.3709664
177.5919507
190.1728932
150.956898
164.4973411
157.7170354
179.1900563
171.6423248
157.6029067
119.1524244
124.4241009
137.4693391
97.8981158
111.4880727
106.6943121
121.9264691
116.5578206
102.4341065
64.95391336
67.99242334
83.3088084
52.71474348
50.35609344
57.86401972
55.21579517
222.8880651
231.2198329
239.9325759
212.7723735
222.1642966
214.0634799
239.3887855
230.5997137
220.9529305
185.8300205
193.1014569
203.0710237
172.4876467
182.905833
175.950358
197.7933807
190.1796123
179.4259628
144.8168369
150.7502485
161.7928733
127.6118878
139.3342788
133.7874732
151.2772406
145.1570826
133.0031759
100.6586078
104.9305712
116.0420691
82.15643238
93.79446819
89.92601213
102.1604371
97.86695347
85.77345199
54.41731429
56.83862746
69.68812218
44.03200433
42.14056595
48.13055101
46.02595179
192.5681229
199.7250226
207.5882616
183.2052676
191.5937585
184.6631841
206.2791385
198.7948188
190.1587746
159.6320284
165.7818883
174.5895148
147.6355925
156.8024614
150.9370577
169.2933638
162.9165503
153.4496946
123.6199652
128.5702803
138.2390835
108.4879581
118.6271735
114.0160609
128.4983165
123.450193
112.9361163
85.49199031
89.02131781
98.54260943
69.40047154
79.40662223
76.22171336
86.2473063
82.74509579
72.35724556
45.88160552
47.8598607
58.7125344
37.01193876
35.46390579
40.34450564
38.6370768
166.3911381
172.5899869
179.6173192
157.9214022
165.353534
159.3703525
177.9880699
171.5556911
163.889884
137.3125195
142.5756116
150.3209058
126.6460636
134.6899672
129.6827501
145.3052041
139.8936367
131.5799886
105.7846364
109.9720609
118.4157274
92.55162341
101.3223922
97.43330128
109.6028846
105.3754424
96.28093442
72.83551331
75.79887695
83.987732
58.85958354
67.48841853
64.82263128
73.17982213
70.27157407
61.31875497
38.82780016
40.47356714
49.68967371
31.23271487
29.94580228
33.98770414
32.57872398
143.6049399
149.0179852
155.2452018
136.0883168
142.6279951
137.4169154
153.5950155
148.0175297
141.2611252
118.0834681
122.6366684
129.420125
108.7032486
115.7358905
111.413536
124.8612133
120.2153791
112.9396969
90.57873453
94.16627481
101.5192211
79.0732556
86.65666336
83.33287986
93.69857794
90.10921758
82.24397157
62.11750434
64.64007808
71.69492984
50.01239291
57.46054404
55.1976034
62.26704015
59.81505243
52.08769313
32.9067347
34.29571595
42.14923524
26.40497246
25.32093564
28.71437777
27.53513003
123.6130209
128.37635
133.8505354
117.0577796
122.7752155
118.198911
132.3767104
127.4987676
121.5822937
101.3487535
105.3258507
111.2390417
93.19381944
99.31448109
95.54622708
107.24115
103.2105189
96.87053966
77.46092414
80.56887012
86.94921492
67.5254098
74.06882354
71.19528682
80.13155551
77.04561018
70.25460927
52.92588206
55.09905754
61.17535805
42.48746466
48.90996677
46.96566382
53.02154114
50.92717116
44.26094805
27.87180732
29.05834297
35.75797882
22.32106717
21.3973808
24.28062287
23.28143037
105.9316971
110.1575745
114.9303841
100.3211402
105.2852607
101.231709
113.7627607
109.4603475
104.3140097
86.64474401
90.15182696
95.27551482
79.64968247
84.94617284
81.62873603
91.89937767
88.3679134
82.87295405
66.02029444
68.74200668
74.25099738
57.51494152
63.14070676
60.62840185
68.41949003
65.73622062
59.89125815
44.95196465
46.84520679
52.06513232
36.01120861
41.53181057
39.84189127
45.0903189
43.28019067
37.54426634
23.54029999
24.56543758
30.27229855
18.82699956
18.0312178
20.50837434
19.65216526
90.16374527
93.94463546
98.06760301
85.46948602
89.74356297
86.12145409
97.29337308
93.46594986
89.02481971
73.60295978
76.7248457
81.1293976
67.70343709
72.25204896
69.30313292
78.41011275
75.28623564
70.55721885
55.93707044
58.3453581
63.06977609
48.74006161
53.54889845
51.32895954
58.19475884
55.83629056
50.83161109
37.95926025
39.626193
44.08676512
30.37518749
35.09316001
33.6083825
38.20719433
36.62525388
31.71486171
19.77299758
20.66826715
25.50856674
15.80501927
15.11212848
17.26317976
16.52160442
75.97643862
79.39068781
82.91099771
72.16975181
75.80927152
72.54231611
82.59463011
79.1587561
75.36522736
61.92439677
64.7305318
68.4767072
57.06116807
60.92759339
58.28018418
66.43536519
63.64479529
59.61347371
46.95693593
49.11051581
53.12353947
40.96722702
45.0403892
43.05785426
49.17300843
47.07782034
42.82742837
31.7632729
33.24630463
37.02644921
25.41770961
29.4143853
28.09585032
32.168502
30.77123886
26.60104041
16.46124545
17.25157776
21.32529834
13.1635902
12.55374841
14.44169463
13.79255398
63.09341088
66.20375752
69.16131077
60.14576823
63.19815574
60.22459026
69.35380556
66.24011145
63.04502662
51.36280519
53.91008405
57.04980625
47.48291537
50.72314225
48.32239116
55.69914826
53.18096552
49.78893838
38.87414737
40.82041793
44.18291657
34.00723777
37.41215772
35.62247467
41.12743578