/*--------------------------------*- C++ -*----------------------------------*\
| =========                 |                                                 |
| \\      /  F ield         | OpenFOAM: The Open Source CFD Toolbox           |
|  \\    /   O peration     | Version:  v2012                                 |
|   \\  /    A nd           | Website:  www.openfoam.com                      |
|    \\/     M anipulation  |                                                 |
\*---------------------------------------------------------------------------*/
FoamFile
{
    version     2.0;
    format      ascii;
    class       pointVectorField;
    location    "1.44";
    object      pointDisplacement;
}
// * * * * * * * * * * * * * * * * * * * * * * * * * * * * * * * * * * * * * //

dimensions      [0 1 0 0 0 0 0];


internalField   nonuniform List<vector> 
6962
(
(0 0 0)
(0 0 0)
(0 0 0)
(0 0 0)
(0 0 0)
(0 0 0)
(0 0 0)
(0 0 0)
(0 0 0)
(0 0 0)
(-0.0005932156197 -0.001048914902 5.606626274e-15)
(0 0 0)
(0 0 0)
(0 0 0)
(0 0 0)
(0 0 0)
(0 0 0)
(0 0 0)
(0 0 0)
(0 0 0)
(0 0 0)
(0 0 0)
(0 0 0)
(0 0 0)
(0 0 0)
(-0.001054668027 -0.002042420667 9.964251646e-15)
(-0.0009615307577 -0.001821452731 9.076073226e-15)
(-0.0008229118479 -0.001524293925 7.771561172e-15)
(-0.004092746881 -0.008312038914 4.243827512e-14)
(-0.004397218645 -0.009131331567 4.557465516e-14)
(-0.006667945358 -0.01454064186 7.260858581e-14)
(-0.006295726889 -0.01342838891 6.858402735e-14)
(-0.01337824907 -0.03357267592 1.718070131e-13)
(-0.01362549804 -0.03495012159 1.748601264e-13)
(-0.0154818178 -0.04219731918 2.112199304e-13)
(-0.01527848324 -0.04074561323 2.086109063e-13)
(-0.01813719613 -0.05969027013 3.058248099e-13)
(-0.01819832655 -0.0611878076 3.064909437e-13)
(-0.0180919508 -0.06601878324 3.306799279e-13)
(-0.01798950633 -0.06427035485 3.292782713e-13)
(-0.01455249561 -0.07020646155 0)
(-0.01458061973 -0.07181093389 0)
(-0.01287690145 -0.07184187786 0)
(-0.0128629937 -0.07103991847 0)
(-0.01284930822 -0.07023788037 0)
(-0.007757350127 -0.07033035437 0)
(-0.007763588822 -0.07073097451 0)
(-0.00734173568 -0.07073835484 0)
(-0.007335536345 -0.07033784583 0)
(0 0 0)
(0 0 0)
(0 0 0)
(0 0 0)
(0 0 0)
(0 0 0)
(0 0 0)
(0 0 0)
(0 0 0)
(0 0 0)
(0 0 0)
(0 0 0)
(0 0 0)
(0 0 0)
(-0.001000171757 -0.002115461415 9.492406861e-15)
(-0.0011302791 -0.00234259034 1.072752998e-14)
(-0.001207772185 -0.002451953687 1.146305273e-14)
(-0.004869806201 -0.01083860103 5.070943665e-14)
(-0.0047132842 -0.01070931815 4.907185769e-14)
(-0.00702894611 -0.01677073638 7.688294446e-14)
(-0.007216397273 -0.01686633054 7.895073484e-14)
(-0.01423595697 -0.03913530425 1.834921104e-13)
(-0.01400643869 -0.03929809609 1.804667527e-13)
(-0.01583544818 -0.0472046106 2.168820679e-13)
(-0.01605945606 -0.04691119207 2.200462035e-13)
(-0.0185464061 -0.06685016262 3.137629045e-13)
(-0.0183971786 -0.06763603538 3.109318358e-13)
(-0.01814862014 -0.07242710095 3.329281295e-13)
(-0.01825615985 -0.07144652748 3.35315109e-13)
(-0.01447678439 -0.07664359549 0)
(-0.01450670259 -0.07824829539 0)
(-0.01279822836 -0.07828014837 0)
(-0.01278327274 -0.0774779848 0)
(-0.01276831016 -0.07667544847 0)
(-0.007642962035 -0.07677100602 0)
(-0.007657924609 -0.07757354235 0)
(-0.006803724771 -0.07758946814 0)
(-0.006796240009 -0.0771880136 0)
(-0.006788762197 -0.07678693181 0)
(-0.007215862116 -0.07677896891 0)
(0 0 0)
(0 0 0)
(0 0 0)
(0 0 0)
(0 0 0)
(0 0 0)
(0 0 0)
(0 0 0)
(0 0 0)
(0 0 0)
(0 0 0)
(0 0 0)
(0 0 0)
(0 0 0)
(-0.0002336241231 -0.0005339996024 2.220446049e-15)
(-0.0004239052153 -0.0009508345335 4.024558464e-15)
(-0.0006297774129 -0.001385725556 5.981326545e-15)
(-0.003611855285 -0.008715058368 3.760880496e-14)
(-0.003086045443 -0.007592423862 3.214095656e-14)
(-0.005025249394 -0.01298457366 5.499767308e-14)
(-0.005684239224 -0.01440343505 6.220024495e-14)
(-0.01227406618 -0.03656592035 1.581235143e-13)
(-0.01138004481 -0.03457531623 1.466604616e-13)
(-0.01319932868 -0.04259668192 1.807443084e-13)
(-0.01410706173 -0.04464090243 1.931232951e-13)
(-0.01708690699 -0.06659538603 2.882832861e-13)
(-0.0163358495 -0.06491109918 2.756128659e-13)
(-0.01645447912 -0.07090615954 3.010786065e-13)
(-0.01709618045 -0.07227606839 3.128747261e-13)
(-0.0144317333 -0.08216884429 3.554934125e-13)
(-0.01421127942 -0.08237816243 3.496092305e-13)
(-0.01280268261 -0.08398463733 3.563260798e-13)
(-0.01287993594 -0.08304570461 3.591571485e-13)
(-0.007762648732 -0.08319055114 0)
(-0.007792573882 -0.0847956238 0)
(-0.00608413693 -0.08482747609 0)
(-0.006054211781 -0.08322240343 0)
(-0.006908448894 -0.08320647694 0)
(0 0 0)
(0 0 0)
(0 0 0)
(0 0 0)
(0 0 0)
(0 0 0)
(0 0 0)
(0 0 0)
(0 0 0)
(0 0 0)
(0 0 0)
(0 0 0)
(0 0 0)
(0 0 0)
(0 0 0)
(0 0 0)
(-5.738578134e-06 -1.360563474e-05 5.551115123e-17)
(-0.001373222195 -0.0035746188 1.432187702e-14)
(-0.0008620740249 -0.002285169013 8.992806499e-15)
(-0.002004793441 -0.005585227113 2.198241589e-14)
(-0.002753487894 -0.007531311304 3.017031069e-14)
(-0.008006869829 -0.02578073345 1.033895192e-13)
(-0.006747332499 -0.0221424781 8.722189637e-14)
(-0.008342802593 -0.0290926419 1.146305273e-13)
(-0.009689417671 -0.03314587005 1.329769628e-13)
(-0.013129651 -0.05529969568 2.220168493e-13)
(-0.01178616014 -0.05062184109 1.99604222e-13)
(-0.01229229512 -0.05724048147 2.257222187e-13)
(-0.01355646849 -0.06190146307 2.485511796e-13)
(-0.01258090444 -0.07710015499 3.095024237e-13)
(-0.01169800967 -0.07309967864 2.882138972e-13)
(-0.01087713596 -0.07680581675 3.027855744e-13)
(-0.01161477304 -0.0804427267 3.228528556e-13)
(-0.007528163718 -0.08594036426 3.446271046e-13)
(-0.007166072157 -0.08336421674 3.283762151e-13)
(-0.005669343655 -0.0842445443 3.317485175e-13)
(-0.005939470892 -0.08661448348 3.47222251e-13)
(0 0 0)
(0 0 0)
(0 0 0)
(0 0 0)
(0 0 0)
(0 0 0)
(0 0 0)
(0 0 0)
(0 0 0)
(0 0 0)
(0 0 0)
(0 0 0)
(0 0 0)
(0 0 0)
(0 0 0)
(0 0 0)
(0 0 0)
(-5.038027608e-06 -1.406946034e-05 5.551115123e-17)
(0 0 0)
(-5.187979877e-05 -0.000154983354 5.828670879e-16)
(-0.000306592632 -0.0009006284937 3.358424649e-15)
(-0.003093586147 -0.01073295277 4.013456234e-14)
(-0.002062669031 -0.007285461826 2.678413047e-14)
(-0.003071422565 -0.01154208996 4.243827512e-14)
(-0.004284175597 -0.0158079495 5.911937606e-14)
(-0.007335761898 -0.03341706364 1.250527459e-13)
(-0.005850963783 -0.02717687411 9.998946116e-14)
(-0.006478228044 -0.03265940482 1.201816424e-13)
(-0.007965190407 -0.0393661012 1.473265954e-13)
(-0.008275018054 -0.05498678463 2.057937154e-13)
(-0.006991635685 -0.04745628714 1.746519596e-13)
(-0.006694147089 -0.05141103092 1.891958812e-13)
(-0.007859263986 -0.0590554219 2.210037708e-13)
(-0.005389777437 -0.06700352642 2.5061897e-13)
(-0.004650654039 -0.05927876792 2.18047802e-13)
(-0.003691879765 -0.06045630763 2.223499163e-13)
(-0.004278468691 -0.06817633199 2.549627176e-13)
(0 0 0)
(0 0 0)
(0 0 0)
(0 0 0)
(0 0 0)
(0 0 0)
(0 0 0)
(0 0 0)
(0 0 0)
(0 0 0)
(0 0 0)
(0 0 0)
(0 0 0)
(0 0 0)
(0 0 0)
(0 0 0)
(0 0 0)
(0 0 0)
(0 0 0)
(0 0 0)
(0 0 0)
(-0.0001331161025 -0.00049467307 1.734723476e-15)
(0 0 0)
(-9.676535508e-05 -0.0003893309572 1.33226763e-15)
(-0.0004796873445 -0.001899033441 6.661338148e-15)
(-0.0020446177 -0.01004848202 3.522182546e-14)
(-0.001140556543 -0.005705706449 1.967870311e-14)
(-0.001536293034 -0.008360050982 2.883804306e-14)
(-0.002530746149 -0.01352123062 4.737876758e-14)
(-0.003310161386 -0.02394958944 8.393286066e-14)
(-0.002281105366 -0.01684745424 5.812017534e-14)
(-0.002313982266 -0.01940596011 6.696032617e-14)
(-0.003286395522 -0.0269726655 9.453549055e-14)
(-0.002411020903 -0.03327962272 1.166289287e-13)
(-0.001752886836 -0.02484805025 8.572309529e-14)
(-0.001393488562 -0.02570103811 8.86651863e-14)
(-0.001914009101 -0.03425563659 1.200428645e-13)
(0 0 0)
(0 0 0)
(0 0 0)
(0 0 0)
(0 0 0)
(0 0 0)
(0 0 0)
(0 0 0)
(0 0 0)
(0 0 0)
(0 0 0)
(0 0 0)
(0 0 0)
(0 0 0)
(0 0 0)
(0 0 0)
(0 0 0)
(0 0 0)
(0 0 0)
(0 0 0)
(0 0 0)
(0 0 0)
(0 0 0)
(0 0 0)
(0 0 0)
(0 0 0)
(0 0 0)
(0 0 0)
(-1.496484802e-05 -8.55963703e-05 2.775557562e-16)
(-0.0002680367771 -0.002093973045 6.911138328e-15)
(-3.018725234e-05 -0.0002396479673 7.771561172e-16)
(-6.591550477e-05 -0.0005962403587 1.942890293e-15)
(-0.0003392613376 -0.003017848696 9.950373858e-15)
(-0.0003475396477 -0.00529706203 1.745825706e-14)
(-0.0001126161464 -0.001750880673 5.689893001e-15)
(-9.645021239e-05 -0.001972679617 6.411537967e-15)
(-0.0002841651056 -0.005686612573 1.873501354e-14)
(0 0 0)
(0 0 0)
(0 0 0)
(0 0 0)
(0 0 0)
(0 0 0)
(0 0 0)
(0 0 0)
(0 0 0)
(0 0 0)
(0 0 0)
(0 0 0)
(0 0 0)
(0 0 0)
(0 0 0)
(0 0 0)
(0 0 0)
(0 0 0)
(0 0 0)
(0 0 0)
(0 0 0)
(0 0 0)
(0 0 0)
(0 0 0)
(0 0 0)
(0 0 0)
(0 0 0)
(0 0 0)
(0 0 0)
(0 0 0)
(0 0 0)
(0 0 0)
(0 0 0)
(0 0 0)
(0 0 0)
(0 0 0)
(0 0 0)
(0 0 0)
(0 0 0)
(0 0 0)
(0 0 0)
(0 0 0)
(0 0 0)
(0 0 0)
(0 0 0)
(0 0 0)
(0 0 0)
(0 0 0)
(0 0 0)
(0 0 0)
(0 0 0)
(0 0 0)
(0 0 0)
(0 0 0)
(0 0 0)
(0 0 0)
(0 0 0)
(0 0 0)
(0 0 0)
(0 0 0)
(0 0 0)
(0 0 0)
(0 0 0)
(0 0 0)
(0 0 0)
(0 0 0)
(0 0 0)
(0 0 0)
(0 0 0)
(0 0 0)
(0 0 0)
(0 0 0)
(0 0 0)
(0 0 0)
(0 0 0)
(0 0 0)
(0 0 0)
(0 0 0)
(0 0 0)
(0 0 0)
(0 0 0)
(0 0 0)
(0 0 0)
(0 0 0)
(0 0 0)
(0 0 0)
(0 0 0)
(0 0 0)
(0 0 0)
(0 0 0)
(0 0 0)
(0 0 0)
(0 0 0)
(0 0 0)
(0 0 0)
(0 0 0)
(0 0 0)
(0 0 0)
(0 0 0)
(0 0 0)
(0 0 0)
(0 0 0)
(0 0 0)
(0 0 0)
(0 0 0)
(0 0 0)
(0 0 0)
(0 0 0)
(0 0 0)
(0 0 0)
(0 0 0)
(0 0 0)
(0 0 0)
(0 0 0)
(0 0 0)
(0 0 0)
(0 0 0)
(0 0 0)
(0 0 0)
(0 0 0)
(0 0 0)
(0 0 0)
(0 0 0)
(0 0 0)
(0 0 0)
(0 0 0)
(0 0 0)
(0 0 0)
(0 0 0)
(0 0 0)
(0 0 0)
(0 0 0)
(0 0 0)
(0 0 0)
(0 0 0)
(0 0 0)
(0 0 0)
(0 0 0)
(0 0 0)
(0 0 0)
(0 0 0)
(0 0 0)
(0 0 0)
(0 0 0)
(0 0 0)
(0 0 0)
(0 0 0)
(0 0 0)
(0 0 0)
(0 0 0)
(0 0 0)
(0 0 0)
(0 0 0)
(0 0 0)
(0 0 0)
(0 0 0)
(0 0 0)
(0 0 0)
(0 0 0)
(0 0 0)
(0 0 0)
(0 0 0)
(0 0 0)
(0 0 0)
(0 0 0)
(0 0 0)
(0 0 0)
(0 0 0)
(0 0 0)
(0 0 0)
(0 0 0)
(0 0 0)
(0 0 0)
(0 0 0)
(0 0 0)
(0 0 0)
(0 0 0)
(0 0 0)
(0 0 0)
(0 0 0)
(0 0 0)
(0 0 0)
(0 0 0)
(0 0 0)
(0 0 0)
(0 0 0)
(0 0 0)
(0 0 0)
(0 0 0)
(0 0 0)
(0 0 0)
(0 0 0)
(0 0 0)
(0 0 0)
(0 0 0)
(0 0 0)
(0 0 0)
(0 0 0)
(0 0 0)
(0 0 0)
(0 0 0)
(0 0 0)
(0 0 0)
(0 0 0)
(0 0 0)
(0 0 0)
(0 0 0)
(0 0 0)
(0 0 0)
(0 0 0)
(0 0 0)
(0 0 0)
(0 0 0)
(0 0 0)
(0 0 0)
(0 0 0)
(0 0 0)
(0 0 0)
(0 0 0)
(0 0 0)
(0 0 0)
(0 0 0)
(0 0 0)
(0 0 0)
(0 0 0)
(0 0 0)
(0 0 0)
(0 0 0)
(0 0 0)
(0 0 0)
(0 0 0)
(0 0 0)
(0 0 0)
(0 0 0)
(0 0 0)
(0 0 0)
(0 0 0)
(0 0 0)
(0 0 0)
(0 0 0)
(0 0 0)
(0 0 0)
(0 0 0)
(0 0 0)
(0 0 0)
(0 0 0)
(0 0 0)
(0 0 0)
(0 0 0)
(0 0 0)
(0 0 0)
(0 0 0)
(0 0 0)
(0 0 0)
(0 0 0)
(0 0 0)
(0 0 0)
(0 0 0)
(0 0 0)
(0 0 0)
(0 0 0)
(0 0 0)
(0 0 0)
(0 0 0)
(0 0 0)
(0 0 0)
(0 0 0)
(0 0 0)
(0 0 0)
(0 0 0)
(0 0 0)
(0 0 0)
(0 0 0)
(0 0 0)
(0 0 0)
(0 0 0)
(0 0 0)
(0 0 0)
(0 0 0)
(0 0 0)
(0 0 0)
(0 0 0)
(0 0 0)
(0 0 0)
(0 0 0)
(0 0 0)
(0 0 0)
(0 0 0)
(0 0 0)
(0 0 0)
(0 0 0)
(0 0 0)
(0 0 0)
(0 0 0)
(0 0 0)
(0 0 0)
(0 0 0)
(0 0 0)
(0 0 0)
(0 0 0)
(0 0 0)
(0 0 0)
(0 0 0)
(0 0 0)
(0 0 0)
(0 0 0)
(0 0 0)
(0 0 0)
(0 0 0)
(0 0 0)
(0 0 0)
(0 0 0)
(0 0 0)
(0 0 0)
(0 0 0)
(0 0 0)
(0 0 0)
(0 0 0)
(0 0 0)
(0 0 0)
(0 0 0)
(0 0 0)
(0 0 0)
(0 0 0)
(0 0 0)
(0 0 0)
(0 0 0)
(0 0 0)
(0 0 0)
(0 0 0)
(0 0 0)
(0 0 0)
(0 0 0)
(0 0 0)
(0 0 0)
(0 0 0)
(0 0 0)
(0 0 0)
(0 0 0)
(0 0 0)
(0 0 0)
(0 0 0)
(0 0 0)
(0 0 0)
(0 0 0)
(0 0 0)
(0 0 0)
(0 0 0)
(0 0 0)
(0 0 0)
(0 0 0)
(0 0 0)
(0 0 0)
(0 0 0)
(0 0 0)
(0 0 0)
(0 0 0)
(0 0 0)
(0 0 0)
(0 0 0)
(0 0 0)
(0 0 0)
(0 0 0)
(0 0 0)
(0 0 0)
(0 0 0)
(0 0 0)
(0 0 0)
(0 0 0)
(0 0 0)
(0 0 0)
(0 0 0)
(0 0 0)
(0 0 0)
(0 0 0)
(0 0 0)
(0 0 0)
(0 0 0)
(0 0 0)
(0 0 0)
(0 0 0)
(0 0 0)
(0 0 0)
(0 0 0)
(0 0 0)
(0 0 0)
(0 0 0)
(0 0 0)
(0 0 0)
(0 0 0)
(0 0 0)
(0 0 0)
(0 0 0)
(0 0 0)
(0 0 0)
(0 0 0)
(0 0 0)
(0 0 0)
(0 0 0)
(0 0 0)
(0 0 0)
(0 0 0)
(0 0 0)
(0 0 0)
(0 0 0)
(0 0 0)
(0 0 0)
(0 0 0)
(0 0 0)
(0 0 0)
(0 0 0)
(0 0 0)
(0 0 0)
(0 0 0)
(0 0 0)
(0 0 0)
(0 0 0)
(0 0 0)
(0 0 0)
(0 0 0)
(0 0 0)
(0 0 0)
(0 0 0)
(0 0 0)
(0 0 0)
(0 0 0)
(0 0 0)
(0 0 0)
(0 0 0)
(0 0 0)
(0 0 0)
(0 0 0)
(0 0 0)
(0 0 0)
(0 0 0)
(0 0 0)
(0 0 0)
(0 0 0)
(0 0 0)
(0 0 0)
(0 0 0)
(0 0 0)
(0 0 0)
(0 0 0)
(0 0 0)
(0 0 0)
(0 0 0)
(0 0 0)
(0 0 0)
(0 0 0)
(0 0 0)
(0 0 0)
(0 0 0)
(0 0 0)
(0 0 0)
(0 0 0)
(0 0 0)
(0 0 0)
(0 0 0)
(0 0 0)
(0 0 0)
(0 0 0)
(0 0 0)
(0 0 0)
(0 0 0)
(0 0 0)
(0 0 0)
(0 0 0)
(0 0 0)
(0 0 0)
(0 0 0)
(0 0 0)
(0 0 0)
(0 0 0)
(0 0 0)
(0 0 0)
(0 0 0)
(0 0 0)
(0 0 0)
(0 0 0)
(0 0 0)
(0 0 0)
(0 0 0)
(0 0 0)
(0 0 0)
(0 0 0)
(0 0 0)
(0 0 0)
(0 0 0)
(0 0 0)
(0 0 0)
(0 0 0)
(0 0 0)
(0 0 0)
(0 0 0)
(0 0 0)
(0 0 0)
(0 0 0)
(0 0 0)
(0 0 0)
(0 0 0)
(0 0 0)
(0 0 0)
(0 0 0)
(0 0 0)
(0 0 0)
(0 0 0)
(0 0 0)
(0 0 0)
(0 0 0)
(0 0 0)
(0 0 0)
(0 0 0)
(0 0 0)
(0 0 0)
(0 0 0)
(0 0 0)
(0 0 0)
(0 0 0)
(0 0 0)
(0 0 0)
(0 0 0)
(0 0 0)
(0 0 0)
(0 0 0)
(0 0 0)
(0 0 0)
(0 0 0)
(0 0 0)
(0 0 0)
(0 0 0)
(0 0 0)
(0 0 0)
(0 0 0)
(0 0 0)
(0 0 0)
(0 0 0)
(0 0 0)
(0 0 0)
(0 0 0)
(0 0 0)
(0 0 0)
(0 0 0)
(0 0 0)
(0 0 0)
(0 0 0)
(0 0 0)
(0 0 0)
(0 0 0)
(0 0 0)
(0 0 0)
(0 0 0)
(0 0 0)
(0 0 0)
(0 0 0)
(0 0 0)
(0 0 0)
(0 0 0)
(0 0 0)
(0 0 0)
(0 0 0)
(0 0 0)
(0 0 0)
(0 0 0)
(0 0 0)
(0 0 0)
(0 0 0)
(0 0 0)
(0 0 0)
(0 0 0)
(0 0 0)
(0 0 0)
(0 0 0)
(0 0 0)
(0 0 0)
(0 0 0)
(0 0 0)
(0 0 0)
(0 0 0)
(0 0 0)
(0 0 0)
(0 0 0)
(0 0 0)
(0 0 0)
(0 0 0)
(0 0 0)
(0 0 0)
(0 0 0)
(0 0 0)
(0 0 0)
(0 0 0)
(0 0 0)
(0 0 0)
(0 0 0)
(0 0 0)
(0 0 0)
(0 0 0)
(0 0 0)
(0 0 0)
(0 0 0)
(0 0 0)
(0 0 0)
(0 0 0)
(0 0 0)
(0 0 0)
(0 0 0)
(0 0 0)
(0 0 0)
(0 0 0)
(0 0 0)
(0 0 0)
(0 0 0)
(0 0 0)
(0 0 0)
(0 0 0)
(0 0 0)
(0 0 0)
(0 0 0)
(0 0 0)
(0 0 0)
(0 0 0)
(0 0 0)
(0 0 0)
(0 0 0)
(0 0 0)
(0 0 0)
(0 0 0)
(0 0 0)
(0 0 0)
(-0.007329365252 -0.06993685154 0)
(-0.007751141758 -0.06992936078 0)
(-0.007208377353 -0.07637751437 0)
(-0.007635477272 -0.07636955148 0)
(-0.01283591398 -0.06943546395 0)
(-0.01282237065 -0.06863305031 0)
(-0.01452496511 -0.06860182899 0)
(-0.007745001685 -0.06952803032 0)
(-0.008589969074 -0.06951291055 0)
(-0.008602766903 -0.07031533809 0)
(-0.007707700298 -0.06712132396 0)
(-0.01275334759 -0.07587291214 0)
(-0.01286499681 -0.07509135767 0)
(-0.01457089671 -0.07505742726 0)
(-0.00762799946 -0.07596846969 0)
(-0.008482236573 -0.0759525432 0)
(-0.008497199148 -0.07675507953 0)
(-0.008615557088 -0.0711173556 0)
(-0.007769991211 -0.07113237465 0)
(-0.007809863897 -0.07353899578 0)
(-0.007387789188 -0.07354649211 0)
(-0.007380872589 -0.07314551172 0)
(-0.007802946603 -0.07313797812 0)
(-0.004428325613 -0.07359917036 0)
(-0.004411840526 -0.07340017219 0)
(-0.004630309936 -0.07339565157 0)
(-0.00464223411 -0.07359521951 0)
(-0.004357725698 -0.07039265598 0)
(-0.00458485257 -0.07038748919 0)
(-0.004592300239 -0.07058695416 0)
(-0.004368456874 -0.07059183599 0)
(-0.00689348632 -0.08240394061 0)
(-0.007747686158 -0.08238801481 0)
(-0.004351418716 -0.07019257313 0)
(-0.004580522125 -0.07018722034 0)
(-0.007713913532 -0.06752257848 0)
(-0.00729213772 -0.06753010652 0)
(-0.004133502126 -0.0703975449 0)
(-0.00412304824 -0.07019783768 0)
(-0.004226773302 -0.07683246052 0)
(-0.004220012501 -0.07642763654 0)
(-0.004431630086 -0.07642480977 0)
(-0.004644648209 -0.07642270264 0)
(-0.004653018101 -0.07682563221 0)
(-0.004655794225 -0.07379453323 0)
(-0.004445586024 -0.07379815407 0)
(-0.007816927511 -0.07393986156 0)
(-0.007394814138 -0.07394728403 0)
(-0.004261829105 -0.07380072242 0)
(-0.004243084191 -0.07360191554 0)
(-0.003800705907 -0.07684040417 0)
(-0.003796595377 -0.07643553078 0)
(-0.004009487081 -0.07643044295 0)
(-0.004148268381 -0.07059635138 0)
(-0.004223328864 -0.07340331394 0)
(-0.002183892486 -0.07213859901 0)
(-0.001965772959 -0.072143486 0)
(-0.00195478054 -0.0719450939 0)
(-0.002171177255 -0.07194020175 0)
(-0.00446072179 -0.07198957984 0)
(-0.004658079946 -0.07198713078 0)
(-0.00466293155 -0.07218735262 0)
(-0.004469109679 -0.07218947473 0)
(-0.006100705445 -0.07196414958 0)
(-0.006107134686 -0.0723649899 0)
(-0.005689675159 -0.07237202729 0)
(-0.00568343299 -0.07197122077 0)
(-0.006127444823 -0.07356834942 0)
(-0.005709910747 -0.07357538821 0)
(-0.00570610007 -0.07337499781 0)
(-0.005702737391 -0.07317463634 0)
(-0.006120454369 -0.0731674077 0)
(-0.006074785428 -0.07035989716 0)
(-0.006081132473 -0.07076032885 0)
(-0.00566274176 -0.07076742089 0)
(-0.005656061323 -0.07036710729 0)
(-0.005676706938 -0.07157046056 0)
(-0.006094239624 -0.07156334723 0)
(-0.004448952277 -0.07179030731 0)
(-0.00465014353 -0.0717874512 0)
(-0.004387354725 -0.06878244586 0)
(-0.00459245432 -0.06877921857 0)
(-0.004597759482 -0.06897976755 0)
(-0.004394968173 -0.06898280265 0)
(-0.006049743337 -0.06875473346 0)
(-0.006056109147 -0.06915617158 0)
(-0.005637757099 -0.06916333748 0)
(-0.005631317434 -0.06876193803 0)
(-0.005649853649 -0.06996615097 0)
(-0.006068577754 -0.06995894085 0)
(-0.006030607497 -0.06755235883 0)
(-0.005611512724 -0.06755968773 0)
(-0.005624733533 -0.06836080229 0)
(-0.006043346507 -0.06835363152 0)
(-0.004378320141 -0.06858226471 0)
(-0.004586144811 -0.06857880018 0)
(-0.004183949069 -0.0687855297 0)
(-0.00417125077 -0.06858564059 0)
(-0.004195218083 -0.06898555732 0)
(-0.006134654759 -0.07396906332 0)
(-0.005717527931 -0.07397594537 0)
(-0.005713570238 -0.07377566957 0)
(-0.00606766719 -0.07522010139 0)
(-0.005648428243 -0.07521169735 0)
(-0.0056976746 -0.07498708719 0)
(-0.005720922918 -0.07478003974 0)
(-0.006138530914 -0.07477896569 0)
(-0.004386475925 -0.07523351007 0)
(-0.004460861096 -0.07500705155 0)
(-0.004659825815 -0.07500677255 0)
(-0.004590457831 -0.07523813414 0)
(-0.004282538791 -0.07518231218 0)
(-0.004332318565 -0.0750003125 0)
(-0.002294028246 -0.07533706779 0)
(-0.002287059344 -0.07513748204 0)
(-0.002488543997 -0.07513816283 0)
(-0.002495641278 -0.07533763433 0)
(-0.002219486823 -0.07374494564 0)
(-0.002427341376 -0.07374308394 0)
(-0.002433770671 -0.07394312721 0)
(-0.002226654674 -0.07394460226 0)
(-0.004265663076 -0.07199176229 0)
(-0.004249543729 -0.07179298104 0)
(-0.002382612317 -0.07192298512 0)
(-0.002439766921 -0.07208714361 0)
(-0.002212784913 -0.07354528032 0)
(-0.002422150567 -0.07354286842 0)
(-0.002387759984 -0.07234148666 0)
(-0.002185064075 -0.07234123862 0)
(-0.004280010395 -0.07219109862 0)
(-0.001970644022 -0.07234475155 0)
(-0.002013782674 -0.0737459469 0)
(-0.002005744856 -0.07354682853 0)
(-0.01285807866 -0.08149029369 0)
(-0.01452780616 -0.0812514438 3.584493813e-13)
(-0.007732730533 -0.08158585124 0)
(-0.008586967646 -0.08156992475 0)
(-0.009441204759 -0.08155399826 0)
(-0.009471122959 -0.08315869816 0)
(-0.008512161723 -0.07755761586 0)
(-0.007702805384 -0.07998077858 0)
(-0.006848605545 -0.07999670437 0)
(-0.006833642971 -0.07919416805 0)
(-0.007687842809 -0.07917824225 0)
(-0.004285920298 -0.08004448336 0)
(-0.004270957724 -0.07924194703 0)
(-0.005125168744 -0.07922602103 0)
(-0.005140131319 -0.08002855735 0)
(-0.004660658914 -0.07722745672 0)
(-0.004233820427 -0.07723504187 0)
(-0.004420156043 -0.07279598534 0)
(-0.004634824513 -0.0727917966 0)
(-0.00462372117 -0.0729942549 0)
(-0.004400282716 -0.07299905461 0)
(-0.005277298795 -0.07277970638 0)
(-0.005279262388 -0.07298102613 0)
(-0.005065190575 -0.07298501731 0)
(-0.005065572543 -0.07278350467 0)
(-0.00529032931 -0.07358261432 0)
(-0.005077039583 -0.07358655363 0)
(-0.005071144966 -0.07338638852 0)
(-0.005285774518 -0.07338231237 0)
(-0.003806981435 -0.0772429999 0)
(-0.003431694368 -0.08006040964 0)
(-0.003416731793 -0.07925787331 0)
(-0.00434980467 -0.06798320184 0)
(-0.004132107111 -0.06798752164 0)
(-0.004119796412 -0.06778822192 0)
(-0.004340788661 -0.06778361697 0)
(-0.004383949063 -0.06958677888 0)
(-0.004366407587 -0.06978931993 0)
(-0.004146986963 -0.069793821 0)
(-0.004180289935 -0.06958986745 0)
(-0.004421935636 -0.07546183589 0)
(-0.004145510087 -0.07550800663 0)
(-0.005911711943 -0.07559924713 0)
(-0.005483866519 -0.07560722393 0)
(-0.005517380129 -0.07542276819 0)
(-0.005934487808 -0.076802859 0)
(-0.005507269114 -0.07681045123 0)
(-0.005499567649 -0.07640937361 0)
(-0.00592689122 -0.07640140654 0)
(-0.005295328626 -0.07378275883 0)
(-0.00508375078 -0.07378651707 0)
(-0.005310156875 -0.07438409045 0)
(-0.005103717455 -0.07438745458 0)
(-0.00509789044 -0.07418691533 0)
(-0.005305745624 -0.07418348752 0)
(-0.004497940288 -0.07439584028 0)
(-0.004481930745 -0.0741963485 0)
(-0.004684152185 -0.07419354776 0)
(-0.004696120584 -0.07439348776 0)
(-0.002022319285 -0.07394501868 0)
(-0.002269694435 -0.0749418935 0)
(-0.00432084054 -0.07439787435 0)
(-0.004302416951 -0.07419850215 0)
(-0.003083133951 -0.07453773698 0)
(-0.003071184632 -0.07434022035 0)
(-0.003269796057 -0.07432999198 0)
(-0.003331193343 -0.07448911203 0)
(-0.002517893975 -0.07686618546 0)
(-0.002510789421 -0.07646472383 0)
(-0.002938982516 -0.07645599479 0)
(-0.00294541561 -0.07685784182 0)
(-0.00252086261 -0.07553121198 0)
(-0.002318764937 -0.07553125109 0)
(-0.004409016424 -0.07119089804 0)
(-0.004199810233 -0.07119446291 0)
(-0.004182630058 -0.07099458279 0)
(-0.004395178703 -0.07099069458 0)
(-0.004187094579 -0.0730160429 0)
(-0.004170383253 -0.07284811004 0)
(-0.002164284718 -0.07130311193 0)
(-0.0021082382 -0.07114038702 0)
(-0.00211649753 -0.07155558647 0)
(-0.005268579257 -0.07197802315 0)
(-0.005271792835 -0.07217838739 0)
(-0.00506594843 -0.07218166585 0)
(-0.005062771432 -0.07198126364 0)
(-0.005066601395 -0.07258268845 0)
(-0.00527527594 -0.07257920806 0)
(-0.004450345331 -0.07259242544 0)
(-0.004650333982 -0.07258966633 0)
(-0.004621311597 -0.07118701456 0)
(-0.004631239587 -0.07138751464 0)
(-0.00442265962 -0.07139106784 0)
(-0.005252916097 -0.07117591005 0)
(-0.00525692427 -0.07137689338 0)
(-0.005048921374 -0.07138039853 0)
(-0.00504387019 -0.07117947193 0)
(-0.005058556982 -0.07178121636 0)
(-0.005264996402 -0.07177785222 0)
(-0.004359193684 -0.06818259333 0)
(-0.004144943645 -0.06818662512 0)
(-0.004200858415 -0.06938708353 0)
(-0.004396438541 -0.06938466763 0)
(-0.004702468758 -0.07459398001 0)
(-0.004507931013 -0.07459570529 0)
(-0.005312034798 -0.0745848152 0)
(-0.005106267028 -0.07458820409 0)
(-0.005226932564 -0.07521825067 0)
(-0.005014721987 -0.07522407156 0)
(-0.005071703529 -0.07499834769 0)
(-0.005280211599 -0.07499393821 0)
(-0.003148284755 -0.07532058162 0)
(-0.003118754781 -0.07513010465 0)
(-0.00335797021 -0.07511632263 0)
(-0.003448876423 -0.07528399085 0)
(-0.003289391678 -0.07473882752 0)
(-0.003088251852 -0.07473784199 0)
(-0.004338004984 -0.07459671069 0)
(-0.003040901491 -0.07372914634 0)
(-0.003100638386 -0.07389060923 0)
(-0.002852968994 -0.07393915232 0)
(-0.002842823292 -0.07373977494 0)
(-0.002872659327 -0.07454046787 0)
(-0.002864079375 -0.07434147147 0)
(-0.002252434584 -0.07454393986 0)
(-0.00224298037 -0.07434425129 0)
(-0.002448109911 -0.07434423023 0)
(-0.00245605492 -0.07454417067 0)
(-0.004216643748 -0.0713943495 0)
(-0.002263186985 -0.07158245842 0)
(-0.002196924392 -0.07294378151 0)
(-0.002407866347 -0.07294111648 0)
(-0.002411975858 -0.07314213522 0)
(-0.002201391745 -0.07314479357 0)
(-0.0028294179 -0.07354236004 0)
(-0.00298086671 -0.07356690596 0)
(-0.00219408483 -0.07274247808 0)
(-0.002407075155 -0.07273887995 0)
(-0.004268880777 -0.07259334767 0)
(-0.005237266142 -0.07037450518 0)
(-0.00524043341 -0.07057438555 0)
(-0.005029079911 -0.07057817689 0)
(-0.005025019426 -0.07037838776 0)
(-0.005038780339 -0.07097847148 0)
(-0.005248533782 -0.07097485912 0)
(-0.004611270393 -0.07098644202 0)
(-0.004594427983 -0.06958307842 0)
(-0.004586740064 -0.06978472728 0)
(-0.005226180194 -0.06957189658 0)
(-0.005228394984 -0.06977268962 0)
(-0.005017898121 -0.0697764277 0)
(-0.005016762924 -0.06957553996 0)
(-0.005021582197 -0.07017802768 0)
(-0.005233531405 -0.07017418794 0)
(-0.003940404154 -0.07040129419 0)
(-0.003923133381 -0.07020335475 0)
(-0.003906519348 -0.07001424036 0)
(-0.004124810277 -0.06999674676 0)
(-0.004353616179 -0.06999143681 0)
(-0.00446380302 -0.07399704537 0)
(-0.004282008675 -0.07399927883 0)
(-0.004381394051 -0.0707909376 0)
(-0.004165134622 -0.07079519329 0)
(-0.003976752981 -0.07079810889 0)
(-0.003957702156 -0.07059949415 0)
(-0.004399759354 -0.07320038344 0)
(-0.004204200835 -0.07320555828 0)
(-0.002051544925 -0.07097577247 0)
(-0.001956630163 -0.07069650079 0)
(-0.005214193385 -0.06876896917 0)
(-0.005217674145 -0.06896966403 0)
(-0.005009894206 -0.06897312773 0)
(-0.005006264345 -0.06877243565 0)
(-0.005015292248 -0.06937465847 0)
(-0.005223630621 -0.06937114707 0)
(-0.004599918747 -0.0693815824 0)
(-0.004566124434 -0.06797898231 0)
(-0.004572717551 -0.06817861236 0)
(-0.005199961974 -0.06796764972 0)
(-0.00520342814 -0.0681675618 0)
(-0.004994345651 -0.06817116165 0)
(-0.004990432878 -0.06797129519 0)
(-0.005002374253 -0.06857178571 0)
(-0.005210638076 -0.0685682757 0)
(-0.003981983881 -0.06878847482 0)
(-0.003965797755 -0.06858891175 0)
(-0.003949383302 -0.0683895021 0)
(-0.004158093732 -0.06838594648 0)
(-0.004368781394 -0.06838224212 0)
(-0.004399119192 -0.06918344772 0)
(-0.004202663793 -0.06918591724 0)
(-0.004010652805 -0.06918796829 0)
(-0.003997470622 -0.0689881255 0)
(-0.00449985044 -0.07479829367 0)
(-0.004694544931 -0.07479697564 0)
(-0.004895066619 -0.07479420658 0)
(-0.004864243336 -0.07500296136 0)
(-0.004801751563 -0.07523113713 0)
(-0.003668411021 -0.0752790029 0)
(-0.003599793957 -0.07507404108 0)
(-0.003787899834 -0.07530153452 0)
(-0.004346921045 -0.07479853473 0)
(-0.00246405104 -0.07474325253 0)
(-0.002261188781 -0.07474308216 0)
(-0.002878858021 -0.07474014256 0)
(-0.00293124918 -0.07532600772 0)
(-0.002903984468 -0.07513463088 0)
(-0.004087134991 -0.0719937857 0)
(-0.004068675643 -0.07179549553 0)
(-0.004050932738 -0.07159663268 0)
(-0.004233221264 -0.07159390526 0)
(-0.004436035633 -0.07159090702 0)
(-0.002141144634 -0.07174876465 0)
(-0.002322439112 -0.07175012018 0)
(-0.002540868554 -0.07236525588 0)
(-0.002599863545 -0.07252792581 0)
(-0.002399285945 -0.07253949593 0)
(-0.002188838803 -0.07254230088 0)
(-0.004468714507 -0.07239027914 0)
(-0.004286458075 -0.07239132799 0)
(-0.004124805511 -0.072390091 0)
(-0.004106232378 -0.07219269787 0)
(-0.001985470565 -0.07294679167 0)
(-0.001980625279 -0.07274630869 0)
(-0.003887180781 -0.06759299229 0)
(-0.00390196839 -0.06779254414 0)
(-0.003711407725 -0.06779598511 0)
(-0.003695088798 -0.0675964991 0)
(-0.003917156992 -0.06799160377 0)
(-0.003727673835 -0.06799483821 0)
(-0.003995795787 -0.06959129362 0)
(-0.003891776344 -0.06984668097 0)
(-0.00386751115 -0.06957138702 0)
(-0.005088034217 -0.07543226449 0)
(-0.004869859599 -0.07543819658 0)
(-0.005062800154 -0.07601480401 0)
(-0.004847694111 -0.07601732295 0)
(-0.004840817133 -0.07581646768 0)
(-0.005057085659 -0.07581429995 0)
(-0.004211470384 -0.07601426948 0)
(-0.004199244343 -0.07580531054 0)
(-0.004407541461 -0.07581298637 0)
(-0.004419252724 -0.07601673456 0)
(-0.004670099151 -0.07399379577 0)
(-0.004880224652 -0.07399013919 0)
(-0.004890258212 -0.0741903017 0)
(-0.00489857989 -0.07439064529 0)
(-0.003054925724 -0.07414375357 0)
(-0.003206415474 -0.07416889534 0)
(-0.004013558027 -0.07601199327 0)
(-0.004024359693 -0.07578955411 0)
(-0.00336870786 -0.07604004986 0)
(-0.003372772497 -0.07583526177 0)
(-0.00359652937 -0.07582214085 0)
(-0.003587696406 -0.07603037378 0)
(-0.00345802416 -0.07549584109 0)
(-0.003227959365 -0.07549602874 0)
(-0.004014800612 -0.07119724106 0)
(-0.00399617043 -0.07099738797 0)
(-0.003780616668 -0.0685916931 0)
(-0.003762749175 -0.06839234783 0)
(-0.003798378148 -0.06879115222 0)
(-0.003933042894 -0.06819046395 0)
(-0.003744924265 -0.06819348651 0)
(-0.004015656732 -0.06938856018 0)
(-0.003851279789 -0.06938759771 0)
(-0.003833830284 -0.06919007177 0)
(-0.00381610608 -0.06899061196 0)
(-0.004902508648 -0.07459136909 0)
(-0.003108372919 -0.07493226049 0)
(-0.003315734238 -0.07493074358 0)
(-0.003511972682 -0.07492223742 0)
(-0.003441048471 -0.07476392889 0)
(-0.002857305315 -0.07414113632 0)
(-0.00264860493 -0.07414223073 0)
(-0.002643359029 -0.07394086031 0)
(-0.002636163948 -0.07374094317 0)
(-0.004032979765 -0.07139710256 0)
(-0.002629229723 -0.07333921735 0)
(-0.002620003961 -0.07314038215 0)
(-0.002819138693 -0.07312962198 0)
(-0.002878457284 -0.07329004859 0)
(-0.002607252087 -0.07294261947 0)
(-0.002759078325 -0.0729670092 0)
(-0.002631317019 -0.07354057209 0)
(-0.002657717155 -0.07268897635 0)
(-0.004141820474 -0.07257270976 0)
(-0.006300530929 -0.01313407727 6.865341629e-14)
(-0.004068114623 -0.008074477872 4.217459715e-14)
(-0.01327978167 -0.03258198806 1.706274011e-13)
(-0.01107222417 -0.02565216447 1.342537193e-13)
(-0.01097980761 -0.02602532485 1.330879851e-13)
(-0.01517676906 -0.0395766976 2.073480276e-13)
(-0.01804650405 -0.05810321671 3.046590757e-13)
(-0.01762336185 -0.05260675214 2.758071549e-13)
(-0.01772136183 -0.0540819202 2.770700336e-13)
(-0.01790987096 -0.0626087863 3.282790706e-13)
(-0.01608104315 -0.06796183637 3.561595463e-13)
(-0.01612767594 -0.06963312918 3.565758799e-13)
(-0.01449811182 -0.0669975194 0)
(-0.01279600194 -0.06702873169 0)
(-0.01109601674 -0.06705990437 0)
(-0.01194567386 -0.06704432428 0)
(-0.007099460354 -0.01619915264 7.742417818e-14)
(-0.004759915536 -0.01034356358 4.94049246e-14)
(-0.01414911603 -0.03796052477 1.817435091e-13)
(-0.01195791683 -0.03030547878 1.450228826e-13)
(-0.01206207913 -0.03131932206 1.467714839e-13)
(-0.01144484321 -0.02772720876 1.386391002e-13)
(-0.01599529902 -0.04559275829 2.183808689e-13)
(-0.01856447036 -0.06525210001 3.127359482e-13)
(-0.01825971734 -0.05952883994 2.85285684e-13)
(-0.0182696069 -0.06106249027 2.865763182e-13)
(-0.01782616635 -0.0555867024 2.78416179e-13)
(-0.01830042025 -0.06981499942 3.34593464e-13)
(-0.01621637458 -0.07475401777 3.580608032e-13)
(-0.01613105574 -0.07636460372 3.581995811e-13)
(-0.01617580046 -0.07131110191 3.570199691e-13)
(-0.01460995246 -0.07342023116 0)
(-0.01290559235 -0.0734467498 0)
(-0.0128911074 -0.07264383168 0)
(-0.01120329191 -0.07347774191 0)
(-0.01118899682 -0.07267500669 0)
(-0.0120397722 -0.07265940576 0)
(-0.01205417912 -0.07346213889 0)
(-0.01114805636 -0.07026911395 0)
(-0.01199834716 -0.07025352205 0)
(-0.01201192012 -0.07105552496 0)
(-0.01116144295 -0.07107112033 0)
(-0.007782862897 -0.07193476352 0)
(-0.007360900014 -0.07194225776 0)
(-0.007354507353 -0.07154137947 0)
(-0.007776394991 -0.07153384935 0)