/*--------------------------------*- C++ -*----------------------------------*\
| =========                 |                                                 |
| \\      /  F ield         | OpenFOAM: The Open Source CFD Toolbox           |
|  \\    /   O peration     | Version:  v2012                                 |
|   \\  /    A nd           | Website:  www.openfoam.com                      |
|    \\/     M anipulation  |                                                 |
\*---------------------------------------------------------------------------*/
FoamFile
{
    version     2.0;
    format      ascii;
    class       volScalarField;
    location    "2.7";
    object      k;
}
// * * * * * * * * * * * * * * * * * * * * * * * * * * * * * * * * * * * * * //

dimensions      [0 2 -2 0 0 0 0];


internalField   nonuniform List<scalar> 
3259
(
34.92340272
34.93552084
34.96767601
35.038671
35.16564024
35.39912075
35.85113106
36.45315032
37.45693642
38.98909345
41.46180888
43.75726309
34.79517651
34.80977658
34.84838609
34.9300435
35.07533447
35.34977795
35.84888695
36.50865067
37.60385943
39.27652502
41.97514765
42.36973321
34.6728454
34.6898058
34.73434519
34.82597645
34.98397653
35.28725727
35.82015859
36.51722222
37.65880205
39.42552008
42.28860975
38.55369305
34.55358581
34.57276731
34.62256475
34.7236284
34.89413896
35.22087433
35.78243174
36.50190967
37.66171399
39.45363907
42.26090877
34.77397787
34.43693973
34.45809984
34.51215946
34.62125066
34.80285772
35.14799895
35.73278243
36.46887028
37.6271536
39.39364513
41.87516145
34.35213405
34.31955561
34.34244763
34.40003567
34.51628202
34.70807677
35.06699468
35.66843232
36.42421061
37.57337826
39.26851597
41.40208843
35.0114897
34.2024947
34.2268155
34.28697537
34.40861058
34.60841565
34.97722049
35.5894956
36.35767045
37.51788052
39.16242272
40.94967504
34.50230094
34.08208096
34.10757767
34.16984078
34.29627235
34.50332515
34.87891554
35.49737597
36.27191141
37.43521948
39.04467141
40.4832038
31.6911838
33.96161355
33.98799795
34.05159103
34.18099183
34.39276976
34.77282549
35.39394748
36.17068356
37.33094118
38.88715798
39.97301146
29.23995657
33.83627019
33.8633594
33.92819478
34.06066956
34.27727621
34.66003556
35.28129622
36.05738225
37.21038101
38.69950982
39.42584304
27.37488304
33.71226217
33.7398287
33.80528964
33.93897387
34.15750338
34.54178419
35.16139876
35.93492297
37.07738485
38.48829991
38.86073159
25.95853902
33.5820868
33.6100488
33.67639428
33.81235235
34.0343908
34.41930007
35.03604701
35.80571866
36.93472638
38.25739267
38.29497617
24.87816822
33.45607446
33.48426379
33.55089157
33.68691575
33.90862394
34.2937053
34.90683208
35.67176436
36.78425744
38.00839578
37.73693394
24.00045333
33.32178358
33.3502074
33.41765124
33.55591056
33.78110985
34.16592124
34.77503909
35.53459174
36.62686182
37.74366967
37.18829409
23.20540886
33.19606148
33.2245885
33.29215122
33.42960296
33.65224253
34.03670495
34.64167901
35.39523825
36.46280685
37.46542497
36.64605842
22.44145194
33.05804463
33.08674452
33.15518045
33.2953346
33.52286299
33.90665686
34.5074796
35.25431533
36.29224123
37.17666667
36.10634982
21.71189046
32.93530968
32.9640703
33.03255913
33.17106237
33.39296725
33.77626179
34.37297541
35.11217449
36.11555355
36.8808538
35.56730892
21.03241384
32.79298849
32.82191851
32.89135985
33.03333983
33.26350199
33.64593276
34.23855337
34.96899214
35.93335296
36.58083964
35.02915385
20.41052823
32.67653236
32.7055276
32.77505035
32.91458551
33.13397852
33.51600384
34.1045147
34.82485999
35.74636096
36.27742996
34.49309179
19.86296016
32.52788387
32.55708012
32.62757948
32.77130402
33.00575596
33.38680524
33.97110482
34.67984493
35.55532733
35.97113252
33.96026952
19.38953843
32.42216307
32.45144776
32.52218135
32.66322862
32.87766752
33.25864599
33.83855169
34.53399236
35.36088509
35.66248493
33.43142713
18.98230602
32.2631385
32.29267765
32.36432484
32.5090902
32.7522211
33.13210252
33.7072243
34.38739399
35.16365825
35.35224327
32.90739057
18.63452588
32.17422472
32.20390121
32.27600452
32.42029487
32.62777293
33.00825364
33.57826932
34.24013504
34.96418397
35.04107594
32.38985157
18.33985328
31.97150956
32.00158817
32.07493015
32.22264827
32.51087973
32.88990149
33.45571195
34.09272665
34.76370045
34.73199691
31.88400128
18.09199262
43.79607466
42.84180889
41.3589359
43.87329083
41.88036485
43.36530336
43.83196821
43.44015895
32.52924042
35.1676536
41.36377987
35.31977041
33.21007928
40.00419643
32.47010554
43.39272781
32.00707049
76.11084209
33.12435075
32.01733168
47.90320673
34.21058012
41.48144854
40.99021207
42.10439414
41.65707914
34.35447521
37.07883166
42.66676377
42.25093701
42.79686739
37.22497078
35.43083775
35.29999055
40.80211147
40.33781769
32.09926163
33.0845423
41.74209194
41.91477312
32.70257197
69.47667458
42.32332736
60.89054088
32.62682797
45.3137459
40.83491933
42.23108603
42.90303507
43.27043039
41.8661083
34.07091425
41.57459326
32.92415961
38.08202316
37.6608708
68.4991793
50.93798341
35.88624302
34.09482329
38.79536521
39.03951547
38.23922254
37.52418747
37.1220809
32.33472733
40.84732847
31.98532059
87.64837476
43.44997206
41.83960282
46.2710635
32.9505771
32.11013068
38.67406268
38.20776023
33.28845799
34.69973784
39.19333939
38.80589495
35.7677783
34.68566292
32.28075339
36.93330732
36.25341189
70.20414444
77.50020306
31.91787892
81.47399221
61.12331614
41.39569079
32.88486263
69.16999139
45.27745014
79.39388484
47.28927471
32.22775373
39.68624069
39.31551427
34.81691714
36.14113622
40.19561545
39.80807588
32.40007176
32.43570424
33.34553475
31.98874282
33.06403128
32.35672501
32.3810172
32.0356779
40.67992584
40.31987271
36.47653489
37.62478383
41.11255626
40.78776376
33.50468414
33.57112562
35.54232972
35.16388498
33.33396264
33.42529085
32.20177695
33.08768966
32.4306667
109.1939012
32.34514116
41.45102628
55.98320355
50.11208822
32.12170223
32.1543418
32.75467128
68.07278921
73.6337861
71.17544661
54.49850043
32.56944962
32.07242765
32.09789515
41.81831818
32.80008236
32.75772668
32.53129666
33.60455687
32.48345378
32.61299043
34.44616806
33.61319959
39.45933619
32.37770796
33.95883107
33.81626844
31.96425248
85.92366418
87.53474407
62.55714036
77.21615091
66.87845122
32.28252173
32.32476391
33.01202284
32.0690544
32.6294001
32.57591182
32.7132243
32.6777812
32.93369784
33.20735876
34.96032159
32.39820342
32.35148243
32.52392362
32.46077873
33.72912088
33.4520701
32.18405721
68.5258604
93.73153984
99.22471567
93.16957992
94.17573258
73.7441402
32.12027856
71.88423088
52.51351034
56.35443294
32.81882048
32.17970786
32.23641051
69.23702756
76.76748787
74.74160184
60.72092835
67.23592246
81.7985007
77.06173995
50.58732627
72.78421582
63.7360504
32.31603751
32.01605634
32.35376808
36.44199556
37.13692948
37.42659419
38.49467385
38.93212757
40.60755843
36.50072985
37.26313772
37.16340718
37.57791185
38.74210323
38.54195792
39.22118875
41.07139048
40.7000502
41.57991363
42.68840214
42.52841255
43.6259223
42.50794283
42.84408627
36.51751855
37.31992161
37.28430544
37.65092061
38.88567232
38.78813122
39.40029097
41.4066211
41.16830642
42.06995347
42.90949686
43.00679739
42.26303731
39.11932143
39.91197588
36.50810846
37.32837142
37.32555523
37.66382527
38.92460834
38.90458198
39.45504652
41.51953413
41.46324807
42.3079344
41.40842417
42.63331059
35.3822402
36.47786194
37.30372053
37.32572344
37.63952055
38.8928848
38.92261161
39.41817064
41.35665506
41.5099392
41.98744881
40.39661275
41.07885917
34.22861828
36.43756288
37.25789042
37.29322705
37.58626288
38.8021315
38.87348783
39.30102592
41.02024469
41.27880138
41.52006078
39.81107948
40.23770238
34.89392451
36.37634308
37.20677817
37.24698317
37.53437198
38.71627049
38.7773491
39.18502494
40.6882371
40.93344233
41.06082941
39.06540317
39.65427971
34.85475741
36.2950058
37.12977337
37.18983185
37.45815734
38.62848183
38.69813809
39.07829307
40.38694217
40.61340286
40.60379342
37.7826558
38.80175894
32.41686732
36.1972789
37.03172216
37.10699704
37.35871481
38.50488305
38.60056126
38.92967229
40.02523965
40.30234231
40.10457304
36.30936755
37.41016088
29.79117745
36.08668267
36.91787616
37.00456146
37.24181404
38.35385752
38.46941502
38.74886874
39.61825072
39.92677009
39.5652349
34.93366523
35.95384248
27.79497337
35.96625774
36.79214192
36.88742407
37.11163198
38.18148231
38.31256185
38.5430315
39.18698491
39.51252265
39.00256696
33.69739062
34.61076072
26.27654103
35.83853252
36.65738195
36.75919737
36.97117506
37.99190647
38.13557962
38.31689019
38.73827518
39.07605799
38.43588859
32.60852278
33.4117088
25.12408131
35.70560074
36.51570513
36.62254058
36.82254138
37.78700222
37.94208609
38.07218113
38.28090759
38.62438733
37.8755267
31.64189131
32.3571448
24.20878957
35.56911582
36.36844271
36.47937274
36.66683811
37.56754234
37.73346544
37.81119447
37.82178833
38.16614523
37.32468325
30.74402658
31.41311853
23.4006446
35.43023639
36.21623885
36.3308355
36.5044377
37.33464248
37.51050702
37.53611569
37.36284441
37.70703521
36.781253
29.87081325
30.52441777
22.63026274
35.28966816
36.05931934
36.17743997
36.33547923
37.09046583
37.27450905
37.24962596
36.90347326
37.24807001
36.24118971
29.01021814
29.65435741
21.89099626
35.14780692
35.89781795
36.01935655
36.16026777
36.83752687
37.02796141
36.95536186
36.44300784
36.78845681
35.70201535
28.16887447
28.79791838
21.19725424
35.00487483
35.73198416
35.85674769
35.9793806
36.57750768
36.77316772
36.65615952
35.98149706
36.3277036
35.16352741
27.35232027
27.96219197
20.56029302
34.86097291
35.56217213
35.68988264
35.79351345
36.31176298
36.511524
36.35357764
35.51960084
35.86602229
34.62679368
26.55949964
27.15313896
19.99287462
34.71617583
35.38883499
35.51914487
35.6034265
36.04203053
36.24464893
36.04794197
35.05817611
35.40417304
34.09301403
25.79197833
26.36620199
19.50095882
34.57052361
35.21242248
35.34499777
35.40977873
35.76973026
35.97410865
35.73981652
34.59784383
34.94299668
33.56290425
25.05746536
25.60794986
19.07695251
34.4241068
35.03339391
35.16788787
35.21319411
35.49548112
35.70134859
35.42990123
34.13905575
34.48310649
33.03685249
24.35870138
24.88514321
18.71304621
34.27700041
34.85217397
34.98827491
35.01421171
35.21943482
35.42663194
35.11867665
33.68184477
34.02516239
32.51468307
23.69665837
24.20080222
18.40231279
34.12919059
34.6689232
34.80659416
34.81296145
34.94110483
35.15036713
34.80532739
33.22397225
33.5704294
31.99388916
23.07198604
23.55767193
18.13733696
33.97162007
34.47214609
34.62387815
34.59668161
34.64181736
34.87486307
34.4684101
32.73428865
33.12386163
31.43982501
22.445862
22.95833714
17.90124619
42.95222016
43.25966716
43.91392401
40.09954447
40.66074107
43.00689213
43.42718742
42.47164124
42.27936538
41.24728791
43.98126593
42.79474921
42.937497
42.97179193
42.73114402
41.66622383
43.6376872
43.14260449
43.34146451
42.9819001
43.11184266
43.69390233
42.02190628
42.38647331
43.58299531
32.59974431
34.40393471
34.26298713
37.05569909
36.91359144
35.04226786
28.67113841
33.21609576
41.61852113
47.91645061
42.94830514
43.94816416
44.53119881
35.52096626
37.38788234
37.21058949
41.21245485
37.75782342
43.95148655
43.35624759
40.90503081
33.30893176
32.73463822
34.15477668
34.03792321
32.42425011
43.2419267
41.49274844
41.8833633
74.68773022
72.14787938
68.79129743
35.92247148
35.74205955
34.0466582
41.34094142
39.98204748
40.1076353
38.91854321
39.45077059
41.15017713
41.95955189
40.77215789
40.96299499
40.37524067
40.55650424
41.80249047
34.46637684
36.22389385
36.08356449
38.5662892
38.41508591
36.92186243
42.5317541
41.54674258
41.72938926
41.16152973
41.35477056
42.39260387
43.04683886
42.23614077
41.9040615
42.07274855
42.92346491
37.36022988
38.84752932
38.70961702
40.67350347
38.38269906
38.77536625
37.64003283
38.21052689
40.40075686
41.62902725
42.2430887
42.26151425
45.73612579
44.50462384
41.60192711
43.00153902
49.59926693
47.28804902
43.65811937
41.34588881
43.03010148
42.9754219
42.15635738
42.86852234
43.47278633
43.43547567
43.36265231
43.40323196
42.97448731
39.27319082
39.70325768
42.05870617
36.12551798
35.43253659
35.26491992
37.92911063
37.37257797
42.84396492
34.8603481
34.5912777
32.71927673
37.9400107
36.42065007
36.62227497
36.10188122
36.25104345
37.79853023
57.06758888
44.07632971
43.83696649
47.19169091
46.20246811
56.45936774
33.75653199
33.82628663
36.00830886
33.90386761
34.33615474
38.71664225
38.73602424
35.94228266
36.31429468
35.25145182
35.71883763
38.48473321
37.3904151
35.83302389
35.97052605
35.55892004
35.71777937
37.24855187
41.06563328
43.19169257
49.46644106
48.31351624
51.21692238
56.0085789
42.86084143
90.78755658
105.218453
38.51934253
37.25493439
37.42251117
36.84265173
37.05954383
38.37969701
33.75604804
35.48977771
35.18978874
36.50356163
36.36662389
34.58602055
39.06060882
37.85737888
37.99599413
37.57358304
37.71634901
38.93863193
35.6583882
33.63576579
33.69183815
36.83154887
35.16995597
35.44472791
33.80282002
34.94684812
36.31852732
48.18587845
49.84684085
64.88238549
41.4820482
43.64233275
43.07680675
57.31856418
53.16503202
43.94358829
39.56047892
38.40285675
38.53950177
38.13324983
38.26847607
39.44182682
34.92921107
36.77743262
36.64248274
37.82472569
37.59585778
35.80292692
40.06271909
38.99097095
39.15747634
38.68113511
38.83053162
39.93613718
40.56166242
39.61578719
39.75041051
39.31982029
39.47362753
40.44689084
36.72194877
38.24377981
38.04781736
39.11687617
38.98312177
37.49417995
41.00432585
40.13300138
40.25894977
39.87984004
40.00756969
40.9006094
42.60265439
42.35942926
41.55160442
54.48367707
45.70578289
46.46210523
44.48327718
44.77800004
52.06440625
42.5691988
33.91574636
33.48603644
33.63290834
32.97746369
33.32333146
33.75379735
38.69439237
34.04436355
33.76595062
87.9511904
87.35863527
56.68464249
81.10927588
98.73201181
98.17067866
96.86044022
98.47256219
79.37246187
35.21856075
35.3103188
35.44153581
35.62388781
35.86464464
36.25923557
35.12142532
35.22926307
35.25950902
35.38076507
35.58791245
35.59088759
35.8588847
36.29589022
36.26435582
36.46220376
36.67647025
36.66263027
37.48877895
37.82109432
37.78186247
39.05361899
39.56388173
39.48983437
43.71303466
43.5427968
43.60187115
35.02887048
35.1510449
35.18750384
35.3192102
35.54610265
35.56772256
35.83558371
36.29925182
36.29846025
36.51337364
36.74605359
36.73794862
37.62408357
37.98354857
37.9579749
39.32381431
39.88508637
39.82616729
34.93887227
35.07311641
35.10957958
35.25516631
35.4979602
35.52305363
35.80232654
36.28289834
36.29622291
36.51580661
36.75905578
36.75882622
37.66329686
38.03589931
38.02935221
39.4429545
40.04210001
40.01813799
42.32019315
43.02481168
43.03945217
37.53029692
27.7328839
29.31507974
34.8487377
34.99255908
35.03077226
35.18575489
35.44056807
35.47051895
35.75937647
36.25154841
36.27490611
36.49465666
36.74340541
36.75004316
37.65727314
38.03112089
38.03550984
39.44679147
40.05143515
40.05893598
42.1843796
42.66464641
42.78919183
34.35311787
22.61946326
23.80268941
34.75596536
34.9070772
34.94819578
35.10891413
35.37243566
35.40788891
35.70247452
36.20714176
36.24153036
36.45972249
36.70810489
36.71745447
37.61428768
37.9823661
37.99810777
39.3645012
39.93758192
39.9771929
41.75824173
42.07537267
42.22926164
34.53776606
20.44430474
20.68146461
34.65881196
34.81532496
34.85997966
35.02349187
35.29307123
35.33413714
35.63071367
36.14246015
36.19224991
36.40967734
36.6624011
36.67601386
37.5616004
37.91979119
37.93388599
39.2379055
39.76300073
39.80537184
41.28612925
41.46587638
41.61582893
35.05112657
20.31407029
20.35403318
34.55643635
34.71679247
34.7651601
34.9293346
35.20291049
35.24927767
35.54497166
36.05944104
36.12289003
36.33796104
36.5932161
36.6125652
37.49959654
37.85830965
37.87657516
39.13736439
39.62041444
39.6541319
40.83735928
40.8582985
41.01594941
33.99960101
19.7283321
19.85329279
34.44847671
34.61159276
34.66355027
34.82697669
35.10302888
35.15409457
35.44694433
35.96111369
36.0358701
36.24795571
36.5039947
36.52792346
37.41093372
37.76773394
37.79276214
39.00857328
39.45288158
39.49928804
40.35979929
40.17531535
40.35118772
31.0131335
19.45044987
19.52177371
34.33534662
34.50028217
34.55547117
34.71734334
34.99476399
35.0498526
35.33864317
35.85059114
35.9343031
36.14338216
36.39916867
36.42662564
37.30214848
37.6544032
37.68454663
38.84276717
39.2428828
39.29871341
39.83915916
39.45174279
39.63459215
28.72586188
19.16127396
19.233542
34.2174946
34.38373885
34.44166827
34.60163539
34.87950612
34.93791928
35.22213659
35.73075164
35.82126756
36.02752642
36.28246359
36.31258487
37.17816983
37.52369421
37.55776917
38.64868904
39.00030789
39.06351944
39.28538385
38.71884151
38.90163527
26.98308334
18.87511012
18.94515838
34.09598187
34.26295038
34.32306902
34.48109101
34.75863838
34.81968377
35.099297
35.60402861
35.69954393
35.90316468
36.15683832
36.18894832
37.04253219
37.37944881
37.41661275
38.43234271
38.73244672
38.80161776
38.71889653
37.99764801
38.17601675
25.66194475
18.60732675
18.67231543
33.97130114
34.13890183
34.20070414
34.35690253
34.63351283
34.69652423
34.97183304
35.47246196
35.57146802
35.77259916
36.02465094
36.05820637
36.89778722
37.22435032
37.26404046
38.19668069
38.44151924
38.51634611
38.15457345
37.30080477
37.4723682
24.6455766
18.35860952
18.41942847
33.84470719
34.01247148
34.07548254
34.23009195
34.50536173
34.56974583
34.84118662
35.33765424
35.43898341
35.63771693
35.88776895
35.92235089
36.74553835
37.05982485
37.10180689
37.94360572
38.13067466
38.20985039
37.59895504
36.63133511
36.79639316
23.79752936
18.11472606
18.17591875
33.71623099
33.88439192
33.94825994
34.10149664
34.37521329
34.44047948
34.70850298
35.20076425
35.30357941
35.49991942
35.74751439
35.78284385
36.58646427
36.88626772
36.93049584
37.67534123
37.8066222
37.88861152
37.05230542
35.98223146
36.14319167
23.01228599
17.86628462
17.9284651
33.58732396
33.75528488
33.81965453
33.97178244
34.24387072
34.3096501
34.57464438
35.06255627
35.16631271
35.36012957
35.60469848
35.64061743
36.4207629
36.70386128
36.75027146
37.39405512
37.47532786
37.55870258
36.51100542
35.34312697
35.50241638
22.25587706
17.62139397
17.68073023
33.45725831
33.62563362
33.69031605
33.84149551
34.11194498
34.17795187
34.44023379
34.92351138
35.0278642
35.21887687
35.45972757
35.49615954
36.24861897
36.51316171
36.56156123
37.1032792
37.13829728
37.22304553
35.97154109
34.70781915
34.86642493
21.53744879
17.39656915
17.44896146
33.32805202
33.49586962
33.56057058
33.71106183
33.97990606
34.04592703
34.30572239
34.78393697
34.88867365
35.07646395
35.31280635
35.34971482
36.07048944
36.31517956
36.3652961
36.80615066
36.79650291
36.88235432
35.4326274
34.07537929
34.2331813
20.87123398
17.21027877
17.25251118
33.19778908
33.3662883
33.43098631
33.58084456
33.84810703
33.91399283
34.17143259
34.64399303
34.74900045
34.93303444
35.16403152
35.20139798
35.88701593
36.11101472
36.16257515
36.50528529
36.45092529
36.53760369
34.8948437
33.44752985
33.6040342
20.26658766
17.06939617
17.09907698
33.06976364
33.23719849
33.30163801
33.45109853
33.71682401
33.78249536
34.03760817
34.50377513
34.6089852
34.78868122
35.01350414
35.05129586
35.69895127
35.90181142
35.95453002
36.20109521
36.10280212
36.19002804
34.35947137
32.82632185
32.9811306
19.73788369
16.98021995
16.99674586
32.93996757
33.10868402
33.17318004
33.32200132
33.58620158
33.65173607
33.90437544
34.36330632
34.46870758
34.6434503
34.86132297
34.89951732
35.50701148
35.6884896
35.74216623
35.89415636
35.75286153
35.84048948
33.82746749
32.21289197
32.36597731
19.28095771
16.94015163
16.94630812
32.81409292
32.98080724
33.04546092
33.19347735
33.45619156
33.52204093
33.77164223
34.22264827
34.32818872
34.49740427
34.70762186
34.74617967
35.31181362
35.47178447
35.52622319
35.58503958
35.40160953
35.48952668
33.29935289
31.60772995
31.75948329
18.88790389
16.94557957
16.9403079
32.68397576
32.8530121
32.91968896
33.06512281
33.32628963
33.39393243
33.63888199
34.08181709
34.18749117
34.35063407
34.55257908
34.59145691
35.11397384
35.25245332
35.30750865
35.27443858
35.04954272
35.13770012
32.77533562
31.01094582
31.16275592
18.55152389
16.98676179
16.9701902
32.558683
32.72392064
32.79611392
32.93536177
33.194859
33.26856442
33.50408275
33.94072948
34.04663865
34.20321609
34.39635412
34.43553127
34.91392557
35.03084825
35.08655074
34.96250855
34.69664145
34.78578544
32.25448737
30.42154287
30.57793206
18.2644808
17.0553521
17.03039761
32.41238054
32.58321814
32.6786387
32.79428477
33.05192011
33.14875649
33.35724746
33.79080759
33.90598584
34.05414765
34.23788442
34.27906787
34.71007804
34.80471125
34.86464975
34.64443226
34.33732708
34.43748797
31.73098416
29.83516585
30.00987396
18.02023101
17.14438535
17.11333115
43.65986549
43.71628673
43.83802964
42.13769144
42.30450624
42.83231137
43.91224431
43.71716775
43.71643657
43.43130227
43.62398004
43.60072761
43.71312186
43.70621686
43.78842744
43.15995375
43.22628628
43.49016737
44.02032744
43.97684996
43.34052964
43.02288342
43.08988225
40.90306884
43.57313921
43.5434476
43.1853437
32.84383004
32.97173843
41.57976658
62.68374086
68.14358461
71.2134829
40.89992859
41.97923465
43.16004967
42.18510565
36.64614399
36.63527842
36.43432784
37.11574848
36.86246983
36.87695476
37.74632146
37.70910204
37.3968247
38.44041077
38.05551887
38.10092221
39.42118222
39.34938651
38.86945154
40.50917994
39.89005543
39.9738041
36.72560495
36.69047375
36.47199865
37.21201761
36.93689041
36.97954895
36.89911881
36.91836984
37.18865834
37.92647602
37.85532931
37.51733612
38.64537827
38.2297734
38.31279876
38.1419813
38.18932739
38.59818829
39.75921315
39.62659894
39.10817124
40.88620616
40.21238724
40.36903668
40.05355973
40.1405043
40.80289825
43.42020327
43.48193478
43.67218774
42.62079466
43.15094425
43.06648708
43.31555862
43.23462727
42.73499076
36.75675103
36.7523529
36.5161849
37.31134408
37.0160658
37.02218807
36.99622823
37.00740609
37.29960876
38.01861643
38.0035133
37.63942498
38.8598863
38.40860359
38.42813271
38.35099818
38.3822709
38.82628901
39.98295784
39.93762617
39.36534836
41.33786176
40.59057529
40.64753098
40.45032207
40.52351526
41.25653543
41.20704575
41.06860614
39.7107996
36.75496187
36.7578491
36.51259928
37.32922625
37.02849261
37.02679389
37.02638196
37.02869922
37.32837694
38.03786803
38.03832713
37.66442584
38.92361395
38.45564243
38.4557618
38.44238123
38.4514987
38.91713684
40.06005124
40.05621767
39.45280848
41.51714113
40.74455735
40.74936639
40.69534578
40.72659843
41.50018104
42.89651137
42.97836946
42.32343037
41.81317873
43.08159797
42.90107071
43.35976554
43.24039521
42.23882054
25.15874314
26.34801691
36.39417809
43.79433097
42.91262581
45.78580137
44.49325483
36.72687623
36.73585929
36.4863025
37.31329068
37.00968966
37.00111117
37.02320509
37.01740288
37.32085387
38.01201733
38.02367625
37.64992632
38.90765152
38.44029126
38.42721482
38.4533162
38.44841905
38.91629925
40.01092906
40.03697664
39.4366388
41.42570923
40.7103381
40.66859565
40.74748873
40.73676136
41.48026841
42.38083839
42.52718296
42.09186
40.58238207
42.31744923
42.13001057
42.70910183
42.51143927
40.80549395
21.08569095
21.7476402
34.21148261
39.13946321
37.2876246
41.98478808
40.70403164
36.68803897
36.69851593
36.44921073
37.26945092
36.9702907
36.96016023
36.9911262
36.98059246
37.28156645
37.94980711
37.96657658
37.60023078
38.82652523
38.37307799
38.35325316
38.41112564
38.39234858
38.85076342
39.84964288
39.8946426
39.33338626
41.1079625
40.49804207
40.43533865
40.61847776
40.5597499
41.19493619
41.76772164
41.92100798
41.63920365
39.95461848
41.60332954
41.43337464
41.94958897
41.77486093
40.09356027
20.34028067
20.34220639
34.73711329
31.53799258
29.84390291
35.35330328
33.38493228
36.63060451
36.64722839
36.39356717
37.22199251
36.92247063
36.90655156
36.94927191
36.93674287
37.23537132
37.89282453
37.90696558
37.54894171
38.73366011
38.30029803
38.28575514
38.33368324
38.31566759
38.75432953
39.68661306
39.72333929
39.20963768
40.76677229
40.25630687
40.20201774
40.37338049
40.31340942
40.84881685
41.1686272
41.31709892
41.17248097
39.28034428
40.90356109
40.7142315
41.26126261
41.08690252
39.4833762
20.02625869
20.26519242
34.9226273
26.26706321
25.51611394
28.40040774
27.16620343
36.55081817
36.57260052
36.31695381
37.15123266
36.84985196
36.82826009
36.88908197
36.87015504
37.17128629
37.81627617
37.83816452
37.47965139
38.65415845
38.22937181
38.20632806
38.2692326
38.25039053
38.67743872
39.54286319
39.58329405
39.10925339
40.4672698
40.05122121
39.99530832
40.15200714
40.10330149
40.54230047
40.52399132
40.69322115
40.72175727
38.15345897
40.04793019
39.80226063
40.508799
40.28940779
38.51282434
19.59162706
19.65908981
33.19717678
24.65880119
24.62475955
25.05624738
24.72131348
36.45328154
36.47909223
36.22300566
37.05789482
36.75661217
36.73068029
36.80547295
36.78156578
37.0830131
37.71353475
37.74129153
37.38540448
38.53863738
38.12641015
38.09654862
38.18140719
38.15473213
38.57057298
39.35242701
39.40386509
38.97018951
40.12091754
39.80794543
39.73998148
39.93566621
39.87321096
40.21343897
39.81647037
39.99689218
40.23356035
36.67142607
39.05451137
38.80442414
39.55422469
39.30471038
37.03897929
19.3062035
19.37849028
30.38123947
24.51170722
24.46847666
24.58900847
24.55180481
36.34209919
36.37098126
36.1153434
36.94758204
36.64771063
36.61851319
36.70384937
36.6761714
36.97649557
37.59095074
37.62318138
37.272421
38.39381224
37.99870195
37.96359887
38.06525496
38.03261225
38.43236184
39.12525594
39.18504016
38.79663818
39.72257478
39.5211995
39.44314419
39.6694628
39.59660715
39.82560527
39.08492447
39.26840614
39.7031645
35.26542452
38.060973
37.81716089
38.55510678
38.3070945
35.60559393
19.01643656
19.08836293
28.2444634
24.3149598
24.25443626
24.42154137
24.37076784
36.2206054
36.25179646
35.99713342
36.82451805
36.52704283
36.49539356
36.58864267
36.55813781
36.85629321
37.45306866
37.48877585
37.14523951
38.22631311
37.85184293
37.81262973
37.92738163
37.8901124
38.27002836
38.86933898
38.9355774
38.59650969
39.29680195
39.19583927
39.10952123
39.36292315
39.28038455
39.40535678
38.35580294
38.53681763
39.14419819
33.99240752
37.10340658
36.87241874
37.5760602
37.33803147
34.2969338
18.73864543
18.80605641
26.61724725
24.04238156
23.96183758
24.18895454
24.11837206
36.09143444
36.12432678
35.8710262
36.69178722
36.39754706
36.36406915
36.46324196
36.43061627
36.7257392
37.30313221
37.34160694
37.00711656
38.04076788
37.68982108
37.64727051
37.77253126
37.73158758
38.08867077
38.58988403
38.66189686
38.37520087
38.8515715
38.84170684
38.75018646
39.02162422
38.93232843
38.9641998
37.64571763
37.82082835
38.57722427
32.86760991
36.20303424
35.98802713
36.64528843
36.42214712
33.13522733
18.48127853
18.54345241
25.3841843
23.69411948
23.59907703
23.87654809
23.78699748
35.95669976
35.99081208
35.73922461
36.55168537
36.26149244
36.22665657
36.33022031
36.29602005
36.58730434
37.14322439
37.18407336
36.8603875
37.83962115
37.5150968
37.46954763
37.60396206
37.55990386
37.89132152
38.2881277
38.36539665
38.13494253
38.39558621
38.47209956
38.37817194
38.65810454
38.56541634
38.51011357
36.96290278
37.1310045
38.01474427
31.87474382
35.36585222
35.16526557
35.77695611
35.56965612
32.11288551
18.23732077
18.29752423
24.42261863
23.30770425
23.21248658
23.50225822
23.40464894
35.8179988
35.85298495
35.60350403
36.40573998
36.12052936
36.08464596
36.19154314
36.15616336
36.44271797
36.9741651
37.01727726
36.70639973
37.62372841
37.32851688
37.28003915
37.42326873
37.37626009
37.67904113
37.96997135
38.0506928
37.87786016
37.93657049
38.09319548
37.99728189
38.28368089
38.18867356
38.05135837
36.30490609
36.46757143
37.46155962
30.96492272
34.5785524
34.38667319
34.96744829
34.77201592
31.18780844
17.99087307
18.05244272
23.59741994
22.94575595
22.86670034
23.11988889
23.03050813
35.67639328
35.71203089
35.4651389
36.25473589
35.97567817
35.93892404
36.04854269
36.01221887
36.29293588
36.79614867
36.84148179
36.54565644
37.39404618
37.13036934
37.07909381
37.23085175
37.18096046
37.45267723
37.64170194
37.72433557
37.60611456
37.47758452
37.70738474
37.61006558
37.90100224
37.80438643
37.59231014
35.66196449
35.82187359
36.91665007
30.08796685
33.81722762
33.62864463
34.19601725
34.00629092
30.30593137
17.74203714
17.80362119
22.82014043
22.66365461
22.6081474
22.79334242
22.72571059
35.53246751
35.5686494
35.32494587
36.09898333
35.82745773
35.78989944
35.90196978
35.86481463
36.1383577
36.60949282
36.65692851
36.37831925
37.15240465
36.92142375
36.86767295
37.02715867
36.97459488
37.21376198
37.30748737
37.39158338
37.32210186
37.01839871
37.31660793
37.21834789
37.51248017
37.41465647
37.13326172
35.02516719
35.18407321
36.37606617
29.22386763
33.06514868
32.87791822
33.44047824
33.25262432
29.4386292
17.50544255
17.56204349
22.07143646
22.47908986
22.44585577
22.55940949
22.51673105
35.38650283
35.42317625
35.18338119
35.93860931
35.67607003
35.63774067
35.75214657
35.71420555
35.97912365
36.41500982
36.46430397
36.20462544
36.90147081
36.70323563
36.64744109
36.81337065
36.75855347
36.9649587
36.96792886
37.05325136
37.02949785
36.55823522
36.92241465
36.82341406
37.11988154
37.02123979
36.67338623
34.39116661
34.54941912
35.83677228
28.37717346
32.31907683
32.13379316
32.69117302
32.5048044
28.58677563
17.29808061
17.34520872
21.36515956
22.37170223
22.35517003
22.41677476
22.39213692
35.23864618
35.27578383
35.04070418
35.77382985
35.52164559
35.48257704
35.59922775
35.56052983
35.81541981
36.21379979
36.26467508
36.02509579
36.6431091
36.47748097
36.420007
36.59121082
36.53455314
36.70835078
36.62409964
36.71040611
36.73125855
36.09694306
36.52550385
36.42591874
36.72425917
36.62495466
36.21234879
33.76074605
33.91795054
35.29804786
27.55385464
31.58233059
31.3998284
31.94929597
31.76532126
27.75713807
17.13350279
17.17015428
20.71404748
22.31739644
22.30630825
22.34119006
22.32895193
35.08898064
35.12656044
34.89703564
35.60497174
35.36432303
35.32456106
35.44333477
35.40391393
35.64754291
36.0069793
36.05914467
35.84040125
36.3786234
36.24567061
36.18694997
36.36221261
36.30409438
36.44521719
36.27712994
36.36409892
36.42953253
35.63506357
36.12652505
36.02655211
36.32622263
36.22641416
35.75053183
33.13601079