/*--------------------------------*- C++ -*----------------------------------*\
| =========                 |                                                 |
| \\      /  F ield         | OpenFOAM: The Open Source CFD Toolbox           |
|  \\    /   O peration     | Version:  v2012                                 |
|   \\  /    A nd           | Website:  www.openfoam.com                      |
|    \\/     M anipulation  |                                                 |
\*---------------------------------------------------------------------------*/
FoamFile
{
    version     2.0;
    format      ascii;
    class       volVectorField;
    location    "0.09";
    object      U;
}
// * * * * * * * * * * * * * * * * * * * * * * * * * * * * * * * * * * * * * //

dimensions      [0 1 -1 0 0 0 0];


internalField   nonuniform List<vector> 
3259
(
(101.3202829 -0.1870566407 6.70689382e-21)
(101.2648953 -0.5654466506 1.05908727e-19)
(101.1579269 -0.95793064 -2.133959547e-19)
(100.9826447 -1.395373314 -5.656679336e-22)
(100.6655717 -1.714279786 -1.689944761e-21)
(100.2900209 -2.212677455 0)
(99.79864072 -2.838371027 -1.196335479e-19)
(99.18474558 -3.442515274 -6.035123592e-20)
(98.27599381 -4.330803727 -9.080678263e-19)
(97.01394471 -5.471036141 2.7868206e-19)
(95.34663198 -6.981682083 2.854120608e-19)
(93.4653426 -8.563981181 0)
(101.6893887 -0.2010803658 0)
(101.6448293 -0.6089667894 0)
(101.5593004 -1.030323875 0)
(101.4184694 -1.497975481 0)
(101.1434892 -1.864979498 0)
(100.837057 -2.410669042 0)
(100.4575102 -3.089265223 -1.042674678e-19)
(99.98201525 -3.741287488 0)
(99.2883609 -4.685351282 -1.142479413e-19)
(98.33198142 -5.905963623 -1.739883247e-19)
(97.12102836 -7.629702476 0)
(95.88025815 -10.11370977 -6.122571717e-20)
(102.0801044 -0.2093977955 0)
(102.0471836 -0.635033867 0)
(101.9852663 -1.073238125 0)
(101.8806633 -1.551779066 0)
(101.6478001 -1.945373139 0)
(101.4209676 -2.509247355 0)
(101.1518226 -3.186921831 6.038337126e-21)
(100.8131718 -3.859541934 0)
(100.3415798 -4.779144169 1.419695905e-19)
(99.70394657 -5.938650158 -1.538939078e-21)
(99.06283944 -7.496668749 0)
(98.76193573 -9.748552304 1.164025644e-19)
(102.4817898 -0.2122475089 0)
(102.4599212 -0.6439056627 0)
(102.4204432 -1.087171081 0)
(102.35003 -1.5622664 0)
(102.1573877 -1.966816262 0)
(102.0014316 -2.523633406 0)
(101.8274509 -3.1703405 -3.403187354e-22)
(101.6003711 -3.832340186 1.59970214e-19)
(101.3145095 -4.666518437 -1.604824929e-19)
(100.9097117 -5.664018227 1.541909569e-19)
(100.5948578 -6.86344718 -1.334468455e-19)
(98.05271132 -7.909355581 -1.171733349e-19)
(102.8843953 -0.2103150671 0)
(102.8721541 -0.6376912054 0)
(102.851742 -1.075594779 0)
(102.8105206 -1.53577938 0)
(102.6541431 -1.938105678 0)
(102.5566172 -2.468953996 0)
(102.4567681 -3.063993543 0)
(102.3122728 -3.68227671 3.363720829e-22)
(102.1414611 -4.415677029 1.355339757e-19)
(101.8683377 -5.219651384 -5.42025755e-19)
(101.6331594 -6.069239861 0)
(96.44317169 -6.319939861 -5.710350892e-20)
(103.2791672 -0.2044622213 0)
(103.274838 -0.6191744435 0)
(103.2695014 -1.043218641 0)
(103.2513412 -1.479557476 0)
(103.1255896 -1.868692346 0)
(103.0716659 -2.361632889 0)
(103.0229872 -2.895813824 0)
(102.9281142 -3.447894598 0)
(102.8135304 -4.067610066 -2.756074928e-20)
(102.574724 -4.701149775 -1.45379185e-19)
(102.3443671 -5.313093165 1.474251451e-19)
(95.33486955 -5.253397855 2.204999487e-19)
(103.6592256 -0.1955652186 0)
(103.6610294 -0.5911832454 0)
(103.6667757 -0.9949478836 0)
(103.6653903 -1.401618512 0)
(103.5633683 -1.769656602 0)
(103.5386556 -2.218696295 0)
(103.5200178 -2.690225491 0)
(103.4495283 -3.171695504 0)
(103.3463968 -3.679301799 0)
(103.0929112 -4.173097725 0)
(102.7904535 -4.620072394 -5.568050086e-20)
(95.44143797 -4.570399603 7.27321978e-20)
(104.0195286 -0.1844887063 0)
(104.0257087 -0.5564847401 0)
(104.0387308 -0.9355540455 0)
(104.0482237 -1.309583999 0)
(103.9632823 -1.651637682 0)
(103.9552876 -2.05484009 0)
(103.9502651 -2.468515116 0)
(103.885246 -2.880733538 0)
(103.7695772 -3.294238224 0)
(103.4839363 -3.677583341 0)
(103.0596059 -4.00242194 0)
(95.95179269 -3.98877352 0)
(104.3567124 -0.1720412411 0)
(104.3656534 -0.5176463693 0)
(104.3825413 -0.8693600515 0)
(104.3977434 -1.209976183 0)
(104.3242139 -1.523581365 0)
(104.322907 -1.882099489 0)
(104.3184199 -2.243900524 0)
(104.247735 -2.593006053 0)
(104.1065088 -2.92999927 0)
(103.7825769 -3.230291153 0)
(103.2250302 -3.468182261 0)
(96.43408993 -3.475580407 0)
(104.6688724 -0.1589175269 0)
(104.6791994 -0.4768764024 0)
(104.6971273 -0.8000755942 0)
(104.7137494 -1.107882015 0)
(104.6473116 -1.392485454 0)
(104.6450838 -1.709306803 0)
(104.6320821 -2.024643759 0)
(104.5490117 -2.319097439 0)
(104.3762781 -2.594621262 0)
(104.0136655 -2.832351429 0)
(103.3263948 -3.008652719 0)
(96.866096 -3.032946402 0)
(104.9553477 -0.1456722277 0)
(104.9659537 -0.4359246396 0)
(104.9827527 -0.7306589726 0)
(104.9974718 -1.007163485 0)
(104.9347192 -1.263494597 0)
(104.9262906 -1.542428796 0)
(104.8988016 -1.815743543 0)
(104.7996878 -2.064896796 0)
(104.5937623 -2.291024281 0)
(104.1948931 -2.481154076 0)
(103.385744 -2.61275452 0)
(97.24285143 -2.651092524 0)
(105.2164608 -0.1327275799 0)
(105.2264858 -0.3960936284 0)
(105.2405856 -0.6633000384 0)
(105.251 -0.9106034632 0)
(105.1893438 -1.140177157 0)
(105.1712643 -1.385145703 0)
(105.1263196 -1.621031848 0)
(105.0085573 -1.832837866 0)
(104.7703385 -2.019296837 0)
(104.3386281 -2.172816808 0)
(103.417646 -2.271343449 0)
(97.56653041 -2.320554484 0)
(105.4532308 -0.1203933177 0)
(105.4620266 -0.3583123318 0)
(105.4723419 -0.5995350638 0)
(105.4768186 -0.8201026438 0)
(105.4143436 -1.024871325 0)
(105.3844659 -1.239656716 0)
(105.320673 -1.443163235 0)
(105.183173 -1.623642379 0)
(104.9147283 -1.778188963 0)
(104.4534909 -1.903209766 0)
(103.4318441 -1.976942723 0)
(97.84257659 -2.034063684 0)
(105.6671462 -0.1088865978 0)
(105.6742429 -0.3232142389 0)
(105.6800652 -0.5403875706 0)
(105.677566 -0.73686282 0)
(105.6129127 -0.9189857247 0)
(105.5700445 -1.107227754 0)
(105.4869226 -1.282992658 0)
(105.3297015 -1.437058835 0)
(105.0336723 -1.565834987 0)
(104.5457021 -1.668357543 0)
(103.4348318 -1.723336891 0)
(98.0775786 -1.785911145 0)
(105.8600129 -0.09834884765 0)
(105.865085 -0.2911994663 0)
(105.8659933 -0.4864882827 0)
(105.8559243 -0.6615617536 0)
(105.7881238 -0.8232853751 0)
(105.7317373 -0.9883813715 0)
(105.629443 -1.1405115 0)
(105.453144 -1.272269476 0)
(105.132354 -1.380170647 0)
(104.6199186 -1.464707148 0)
(103.4309339 -1.505414033 0)
(98.27811999 -1.57148274 0)
(106.0338432 -0.08886238639 0)
(106.0366767 -0.2624892868 0)
(106.0324606 -0.4381727881 0)
(106.0145459 -0.5944974414 0)
(105.9429201 -0.7380457152 0)
(105.8729262 -0.8831214063 0)
(105.7520034 -1.015206384 0)
(105.5576099 -1.128136588 0)
(105.2147861 -1.219091193 0)
(104.6797409 -1.28911739 0)
(103.4230075 -1.318905695 0)
(98.45019913 -1.38687631 0)
(106.1907284 -0.08046775487 0)
(106.191192 -0.2371796228 0)
(106.1817885 -0.3955732291 0)
(106.1559707 -0.5357248106 0)
(106.0800407 -0.6632464317 0)
(105.996626 -0.791157305 0)
(105.8578263 -0.9063233702 0)
(105.6464972 -1.003426875 0)
(105.2840955 -1.080632363 0)
(104.7279966 -1.138906282 0)
(103.4129388 -1.160344765 0)
(98.59915339 -1.228985526 0)
(106.332836 -0.0731753036 0)
(106.330852 -0.2152786024 0)
(106.3162901 -0.3586824825 0)
(106.2826568 -0.4851319765 0)
(106.2020308 -0.5986847053 0)
(106.1055459 -0.7120452603 0)
(105.9496069 -0.8128758917 0)
(105.7226837 -0.896933587 0)
(105.3427899 -0.9630120055 0)
(104.7669581 -1.011776083 0)
(103.401972 -1.02682798 0)
(98.72898242 -1.095133982 0)
(106.4621563 -0.06698131816 0)
(106.4576956 -0.1967488709 0)
(106.4380655 -0.3274075992 0)
(106.3968001 -0.4425648665 0)
(106.311237 -0.544050414 0)
(106.2021487 -0.6452540912 0)
(106.0298288 -0.7337429507 0)
(105.7885293 -0.807551942 0)
(105.3929212 -0.8646545271 0)
(104.7984922 -0.9057951468 0)
(103.390881 -0.9160407003 0)
(98.84281032 -0.9832823304 0)
(106.5812356 -0.06185805732 0)
(106.57425 -0.1815019799 0)
(106.5496283 -0.3015961482 0)
(106.5009312 -0.4076951277 0)
(106.4098697 -0.4989939022 0)
(106.2886698 -0.5901614716 0)
(106.1009642 -0.66840825 0)
(105.8460258 -0.7341471197 0)
(105.4362228 -0.784149975 0)
(104.8241836 -0.8192875318 0)
(103.3801723 -0.8260185752 0)
(98.94394404 -0.8917185641 0)
(106.6903391 -0.05782212189 0)
(106.6809192 -0.1695307387 0)
(106.6514724 -0.2811336663 0)
(106.5956222 -0.380650006 0)
(106.4999825 -0.4630712312 0)
(106.3671251 -0.5461649275 0)
(106.1652304 -0.6169739157 0)
(105.8969919 -0.6755762024 0)
(105.4742203 -0.7202458477 0)
(104.8453776 -0.7508126339 0)
(103.3702844 -0.7551543297 0)
(99.03540179 -0.8188876816 0)
(106.7980401 -0.0547282412 0)
(106.7858466 -0.1605421616 0)
(106.7513878 -0.2657422981 0)
(106.6878193 -0.3595476076 0)
(106.5839472 -0.4360805017 0)
(106.4392724 -0.5130723045 0)
(106.2237651 -0.5788161189 0)
(105.9432232 -0.6311371519 0)
(105.5082842 -0.6719311628 0)
(104.8633092 -0.6992384379 0)
(103.3615943 -0.7022935964 0)
(99.11913897 -0.7635744953 0)
(106.8806837 -0.05299084728 0)
(106.86665 -0.1552657897 0)
(106.8282996 -0.2562931357 0)
(106.759601 -0.3487733459 0)
(106.661644 -0.4173785249 0)
(106.5066522 -0.4902998749 0)
(106.2780791 -0.5529642697 0)
(105.9860391 -0.6001848369 0)
(105.5396024 -0.6383487145 0)
(104.8791181 -0.6635356673 0)
(103.3546038 -0.6663493985 0)
(99.19653811 -0.7246065725 0)
(107.0363477 -0.05118258506 0)
(107.0184486 -0.1508210835 0)
(106.9726371 -0.2486985603 0)
(106.8909524 -0.3364567389 0)
(106.7334484 -0.4075990967 0)
(106.5676664 -0.477991915 0)
(106.3273988 -0.5394406182 0)
(106.0266201 -0.5821649269 0)
(105.5691461 -0.61877574 0)
(104.8938098 -0.6427921772 0)
(103.3499843 -0.6464479368 0)
(99.26872596 -0.7013370595 0)
(93.35107642 -8.467814662 2.458240621e-19)
(95.61038197 -9.891880304 4.095202889e-19)
(94.94803068 -6.76104427 0)
(93.45221122 -8.251987115 -7.527155636e-20)
(96.65063003 -7.537294389 -2.531609078e-19)
(95.6423658 -9.588654154 -8.425440265e-19)
(93.68033263 -8.418937876 3.657433124e-19)
(94.35989375 -9.166383622 -2.261855866e-19)
(91.50241999 -10.07190384 0)
(91.46766678 -9.297108321 -1.949799646e-18)
(98.89492546 -9.850500316 0)
(91.43933369 -9.242571406 -2.44362669e-19)
(90.67838149 -9.235031098 1.006261648e-18)
(81.33854835 -9.486174492 -6.668242465e-20)
(91.53031962 -10.1393228 0)
(94.50239615 -9.262701383 2.269184216e-19)
(90.037979 -10.03834862 2.89941733e-19)
(47.15774003 -7.83680315 1.383200599e-19)
(90.69082524 -9.285572013 -2.536273872e-21)
(90.01943434 -9.971855712 8.704067078e-19)
(87.80679424 -28.60383018 1.243528439e-20)
(91.73373825 -9.698385956 -5.386280942e-19)
(93.34664255 -9.441212796 5.403216706e-19)
(93.73398757 -9.756779329 2.583473761e-19)
(92.88548841 -9.037047517 5.582672714e-19)
(93.22719781 -9.337624192 -2.711211803e-19)
(91.7112989 -9.630590568 1.596726843e-18)
(91.3697917 -8.940926668 -5.317523423e-19)
(92.459977 -8.652852165 0)
(92.77717385 -8.938981429 -5.589617584e-19)
(92.35555481 -8.557332002 2.874501375e-19)
(91.32167509 -8.895973955 2.654929225e-19)
(90.90216243 -8.923984143 1.11445083e-18)
(90.95008178 -8.966162136 0)
(93.87567396 -9.86306173 -5.146348274e-19)
(94.32296955 -10.17488573 0)
(92.46378171 -11.03469723 3.307276842e-18)
(92.21869831 -11.19047052 2.799610143e-18)
(88.93001582 -23.7047855 -2.061259769e-19)
(88.34741778 -26.6474419 0)
(90.91819189 -9.586352572 -1.114111651e-18)
(80.69550358 -27.09142221 -5.938513605e-19)
(87.98989743 -26.9162876 -6.630425073e-20)
(82.08484473 -27.22279487 -4.724850212e-20)
(90.93422633 -9.662603618 -2.906260835e-19)
(88.53495838 -28.55479455 1.569542451e-19)
(91.05840497 -27.23083989 8.883113099e-20)
(98.60224187 -7.595473609 3.940446776e-19)
(98.45348824 -9.354479053 -4.756597458e-20)
(96.01447779 -9.69095342 1.054206099e-20)
(97.20660851 -10.17945542 0)
(81.85442205 -8.747009122 -2.256090975e-19)
(79.03471462 -9.159699441 -5.145430612e-19)
(91.53258712 -9.932994273 -9.336502469e-19)
(92.98630818 -9.830853205 -3.226128185e-19)
(93.15236339 -10.01512406 -2.129875086e-19)
(51.12932989 -8.086258816 1.46059286e-20)
(75.55463525 -11.66431651 3.728019468e-19)
(90.72828392 -8.690398975 5.347429876e-19)
(90.88757014 -9.093947001 0)
(91.08336532 -10.03364988 1.150013789e-17)
(94.34225622 -10.33793313 -2.025059957e-18)
(94.78759991 -10.77579553 -2.311482636e-19)
(93.21398925 -10.07711338 8.56194037e-19)
(93.42983841 -10.25940586 2.140431645e-19)
(91.70851916 -10.40086664 -2.01738788e-18)
(91.09962692 -26.88300609 -3.302584177e-20)
(90.21642404 -10.32170255 2.811743777e-19)
(65.16291229 -21.10486488 4.236846391e-19)
(87.2110176 -19.10612516 -1.72397641e-19)
(88.84859667 -23.19054877 -4.761017362e-19)
(86.83858099 -10.58326793 -1.613145919e-17)
(90.83684932 -9.443735592 -5.309371296e-19)
(90.14864012 -9.922423469 1.960206984e-18)
(92.78198503 -9.613576033 -1.455055433e-21)
(92.93097987 -9.774968428 2.213683984e-19)
(91.63083353 -9.873357286 -1.937305574e-18)
(91.64251563 -9.487304885 -5.083153749e-19)
(92.58819839 -9.401252204 0)
(92.73352227 -9.551060835 2.28690575e-19)
(90.75912188 -8.753461839 1.082082555e-18)
(91.01260573 -9.095004185 -2.701420805e-19)
(91.75623467 -10.49959251 -7.562638629e-19)
(93.50953868 -10.31160032 2.138492608e-19)
(93.66931078 -10.41229607 -3.659093728e-19)
(68.42631796 -20.5829014 -2.27087432e-18)
(66.81292168 -21.07796555 8.921863488e-19)
(90.23543518 -10.45768516 2.912828718e-19)
(69.81639095 -23.00690412 1.146520197e-18)
(74.17775082 -23.10777594 -1.107166114e-19)
(88.91589046 -25.54827792 -5.963096054e-20)
(90.8883128 -9.458706871 2.684887448e-19)
(81.15537497 -27.39974872 0)
(86.34964792 -27.46021035 -1.690706187e-20)
(70.30149116 -23.34262563 0)
(85.47705679 -27.4983916 2.898743876e-20)
(90.33132924 -9.873653988 1.715196379e-18)
(92.3884497 -9.197609129 -2.286378229e-19)
(92.53827556 -9.344777285 4.572218805e-19)
(91.59886408 -9.452597175 0)
(91.46291071 -9.093999258 0)
(92.21007951 -8.99762771 -1.151815041e-19)
(92.34190203 -9.140259196 0)
(89.28036247 -9.111881491 9.016406739e-19)
(89.32055994 -9.073653961 -5.696912728e-19)
(90.69527213 -9.184860412 -4.942160673e-19)
(90.07926394 -10.12099808 -1.175144778e-18)
(90.72002287 -9.347767907 0)
(89.30544027 -9.26823487 -3.08686681e-19)
(89.27725956 -9.173211839 -3.079070349e-19)
(90.02554448 -9.906623483 -8.423100338e-19)
(92.01904514 -8.812261708 2.329339472e-19)
(92.16521923 -8.945996837 -2.317107494e-19)
(91.46490604 -9.066181016 5.135157514e-19)
(91.18041686 -8.733229265 -7.745294916e-19)
(91.82040094 -8.611664207 -9.972451213e-22)
(91.96873671 -8.758734012 -2.343599024e-19)
(90.19827124 -8.919890489 -8.722316931e-19)
(90.13461357 -8.875157339 0)
(90.84934636 -8.875278946 2.760334525e-19)
(90.98943758 -9.006745284 2.846139895e-19)
(90.29068271 -8.990081576 -8.945706229e-19)
(90.25067638 -8.955687272 -2.953187584e-19)
(91.50927012 -10.66464501 1.674934148e-18)
(92.71056157 -10.50737673 1.933120369e-18)
(92.74200788 -10.70283149 1.736060302e-20)
(41.04090629 -14.20013881 9.603837408e-18)
(89.75300124 -10.87295748 -1.966641368e-18)
(88.9586769 -25.18006543 1.170262206e-19)
(75.32626493 -22.86916803 -2.236961968e-19)
(77.39385643 -22.25836932 5.954265026e-19)
(89.55100558 -9.48177507 -3.170404058e-19)
(89.56182984 -9.41351318 3.132316305e-19)
(90.9138809 -9.522492301 2.752342091e-19)
(81.27683386 -27.25470377 0)
(77.01753997 -26.24170255 -4.254339398e-19)
(77.72862678 -26.26667339 -2.192626607e-19)
(83.67076574 -27.44734861 2.366753816e-19)
(90.92102679 -9.741707247 2.892044769e-19)
(89.57551185 -9.635134478 6.706750199e-19)
(89.57049607 -9.561707846 1.278665951e-18)
(90.26296877 -28.33937985 -9.510494388e-20)
(88.70950305 -8.51338786 -2.616653095e-18)
(88.70425223 -8.575613172 1.65260539e-18)
(88.59645677 -8.950849202 -4.744327257e-18)
(90.77145128 -9.129370439 1.480827935e-18)
(89.4729834 -9.053008504 -2.080522748e-18)
(89.70560957 -9.036735701 -1.14030955e-19)
(93.52461532 -10.44170329 5.582936991e-18)
(93.13995079 -10.79609385 -6.720551771e-19)
(80.48299925 -9.616181547 1.109576463e-18)
(91.63132547 -10.30707122 -2.005493715e-18)
(92.5066763 -10.311366 1.182844649e-18)
(92.58327998 -10.38993011 2.414229977e-19)
(90.13865549 -10.22726737 2.048246398e-18)
(65.88761621 -21.53333568 1.027550177e-18)
(65.22790059 -21.63328363 2.783252965e-18)
(46.24349605 -3.043025739 0)
(64.3069779 -16.48767689 -3.613966655e-19)
(68.49475543 -20.02536953 2.193153702e-18)
(89.49870028 -9.383420206 -3.105328637e-19)
(89.38906047 -9.356131261 6.196448135e-19)
(90.77170311 -9.40858299 2.62670568e-19)
(90.05353513 -9.902393736 -1.066252321e-18)
(88.86257906 -8.841536186 6.623799347e-19)
(88.95198852 -8.881873256 -3.321971273e-19)
(88.71763274 -8.666465089 0)
(88.77332459 -8.766561553 -1.654499475e-18)
(90.28144435 -9.063888134 -1.098584808e-21)
(90.28162031 -9.02688568 4.555129968e-19)
(91.00479994 -9.044394188 1.384806779e-21)
(89.06872701 -8.950004068 -1.790962674e-18)
(89.05944292 -8.949363626 5.055469064e-20)
(89.01841181 -8.907622369 1.659609789e-18)
(89.06697806 -8.92869491 -1.631315525e-21)
(92.65661828 -10.45978223 0)
(92.77187182 -10.54884342 -2.271846768e-19)
(91.92257553 -10.63599262 2.453619119e-19)
(69.34196052 -21.0243918 1.15382567e-18)
(58.82122843 -18.63468756 -1.225465299e-18)
(55.74056157 -17.47633095 -5.161342035e-18)
(59.9037002 -19.54763434 -2.216788576e-18)
(60.21308377 -19.2879367 -1.504276863e-18)
(68.31757699 -21.05573191 1.684934281e-18)
(90.40452624 -10.61869789 7.46121393e-20)
(71.30720661 -22.98509564 2.002600176e-19)
(78.99603852 -24.64587944 -6.016567063e-20)
(77.97928883 -24.8262232 1.456277629e-20)
(90.90989006 -9.480276212 -2.735418659e-19)
(89.57988048 -9.377800077 1.240958935e-18)
(89.56985278 -9.373519436 -1.233630537e-18)
(81.54591141 -27.43845056 0)
(73.70116316 -24.6477803 -3.917325269e-19)
(74.17993798 -24.92209043 -4.74738565e-20)
(76.87623174 -24.75692627 5.0837242e-20)
(75.11639243 -24.63980065 8.333299239e-19)
(69.5268379 -23.40555722 -1.283332757e-18)
(73.44426039 -24.93060486 4.001474569e-20)
(84.60729232 -27.58924919 5.114866913e-20)
(77.31107917 -26.03348088 1.735212054e-19)
(78.68335883 -26.05889598 0)
(89.10111277 -9.78690628 0)
(89.56729608 -9.67330575 -1.539458309e-18)
(90.92222665 -9.810342621 0)
(98.99190241 -3.346855054 6.221447887e-20)
(98.30523637 -3.976098425 5.183037748e-19)
(98.02995531 -4.211193532 0)
(97.06744797 -5.013661118 -7.143538432e-20)
(96.69825001 -5.318831947 0)
(95.42863007 -6.367308774 0)
(99.7811235 -3.683010661 4.498780414e-19)
(99.24865436 -4.365870659 -1.423677524e-18)
(98.53644422 -4.089197165 -9.011305999e-19)
(99.03391638 -4.620876181 4.770610229e-19)
(98.28420083 -5.496268019 5.575694983e-19)
(97.36418041 -5.156529241 3.374314861e-19)
(97.99779725 -5.833564527 -6.164460734e-19)
(97.01646204 -7.029653143 -4.995117518e-19)
(95.80519719 -6.560096969 0)
(95.77077809 -7.179609132 -8.655119904e-21)
(95.30155486 -7.8148975 5.210737465e-19)
(94.61478826 -7.473735517 -5.562096501e-19)
(93.8281996 -8.8184603 2.388893864e-19)
(93.42330663 -9.213803251 -2.60463702e-19)
(93.07012554 -8.921713101 2.697331946e-19)
(100.6084684 -3.844678581 0)
(100.2355927 -4.525126697 2.829516366e-21)
(99.48774464 -4.428787475 1.29383878e-19)
(100.0830469 -4.777420197 4.211822231e-19)
(99.56231728 -5.636081585 2.517068752e-19)
(98.59503228 -5.566144604 1.810710276e-21)
(99.3714456 -5.964543539 -8.674830202e-20)
(98.78246363 -7.125366419 -3.917624811e-19)
(97.4445515 -7.118681868 -5.984014182e-21)
(97.61938561 -7.664968747 0)
(97.37760956 -8.203094348 -2.131687226e-19)
(96.58776511 -8.289184893 0)
(96.30344926 -10.19801534 -5.688582258e-20)
(96.17728863 -10.95118337 0)
(95.35249361 -10.67103903 1.25581744e-21)
(101.4094415 -3.852056425 8.797228765e-20)
(101.1824138 -4.480203032 -1.663251352e-19)
(100.4798566 -4.531185004 6.38434548e-20)
(101.0827785 -4.710903291 1.731921107e-19)
(100.7467461 -5.472789645 -3.293215494e-19)
(99.87293084 -5.619688783 -4.77901768e-21)
(100.6300783 -5.753610879 2.435626173e-19)
(100.3209461 -6.69463578 -7.747759902e-20)
(99.20169165 -7.053474604 -8.516399405e-20)
(100.262071 -7.047676372 0)
(100.377338 -8.175261755 0)
(99.12579216 -9.114927013 -1.558321782e-19)
(98.34042511 -8.372777468 0)
(102.1430243 -3.729618636 -1.727843148e-20)
(102.0104179 -4.29206078 -2.838698713e-19)
(101.4019466 -4.444790064 1.656369456e-19)
(101.9490394 -4.489553044 -1.382011762e-19)
(101.7305574 -5.118640254 0)
(101.0135311 -5.397422048 -7.848392553e-20)
(101.6537286 -5.340847262 6.198758888e-20)
(101.4478685 -6.033346922 -1.563349541e-20)
(100.645054 -6.545043376 8.792101423e-22)
(101.4087171 -6.266934548 -2.089520628e-19)
(100.7349654 -6.931057658 -9.061978856e-20)
(100.6137785 -7.857348552 1.336072021e-20)
(96.86451535 -6.672204909 -6.668071255e-21)
(102.7831927 -3.51188082 0)
(102.7031479 -3.995394457 -1.553272682e-20)
(102.1967513 -4.226211342 0)
(102.659684 -4.160684451 1.125968627e-19)
(102.4865991 -4.664597088 1.618975475e-19)
(101.9405031 -5.012017201 2.44088331e-19)
(102.4187352 -4.83360184 -2.459461554e-19)
(102.2195884 -5.33334024 5.612119283e-21)
(101.668571 -5.856443484 -1.370603049e-20)
(102.1927194 -5.496301267 3.099512938e-19)
(99.68768777 -5.762567045 -1.762063908e-20)
(100.5803753 -6.62838199 -1.906129522e-19)
(95.48929732 -5.472028546 1.524862386e-19)
(103.3276598 -3.243098992 0)
(103.2636217 -3.643329307 0)
(102.854794 -3.910224946 1.326633606e-20)
(103.2244794 -3.777121894 0)
(103.0512904 -4.174435549 0)
(102.6433704 -4.543308606 2.448513754e-19)
(102.9769151 -4.303541899 -3.935384029e-20)
(102.7542599 -4.673551681 0)
(102.3722332 -5.163601804 -1.682749067e-19)
(102.700787 -4.78717164 -4.104515007e-21)
(98.42094109 -4.81860633 -9.572024076e-20)
(99.32689799 -5.499227136 -2.623888546e-19)
(95.33856364 -4.723625099 -7.771651151e-20)
(103.7836613 -2.953892384 0)
(103.7152649 -3.282032153 0)
(103.3858985 -3.552778393 0)
(103.6727083 -3.389026169 0)
(103.479858 -3.698732153 0)
(103.1694514 -4.052521645 0)
(103.3959598 -3.797127534 0)
(103.1255084 -4.072208965 0)
(102.8597865 -4.517160786 3.34439386e-20)
(103.0039574 -4.149179929 0)
(98.04502235 -4.129321083 0)
(98.23458438 -4.628346377 -1.428486449e-21)
(95.82436504 -4.127678014 0)
(104.1633032 -2.6641847 0)
(104.0788187 -2.932811712 0)
(103.8136526 -3.19304113 0)
(104.0292443 -3.018555256 0)
(103.8095764 -3.261664414 0)
(103.5704205 -3.585519415 0)
(103.7150871 -3.337432927 0)
(103.3839667 -3.542237194 0)
(103.199126 -3.932656349 0)
(103.1907468 -3.594255712 0)
(98.00085033 -3.558635789 0)
(98.02628185 -3.977747867 0)
(96.31777862 -3.597044507 0)
(104.4788186 -2.386167114 0)
(104.372315 -2.606471231 0)
(104.1581281 -2.848813867 0)
(104.3142533 -2.67553689 0)
(104.0662244 -2.86820161 0)
(103.8797478 -3.159166234 0)
(103.9611554 -2.927317817 0)
(103.5659183 -3.082298304 0)
(103.4355497 -3.421066666 0)
(103.3056985 -3.117169172 0)
(98.02629226 -3.078073777 0)
(98.00186235 -3.430596677 0)
(96.76323705 -3.137490465 0)
(104.7412633 -2.126682811 0)
(104.6104162 -2.307932421 0)
(104.4365334 -2.52912865 0)
(104.5436194 -2.363907018 0)
(104.2684849 -2.518070012 0)
(104.1212883 -2.776681687 0)
(104.1535089 -2.564773907 0)
(103.6943188 -2.683226033 0)
(103.6023444 -2.977159241 0)
(103.3739526 -2.706293542 0)
(98.09834673 -2.671991581 0)
(98.04061959 -2.970185086 0)
(97.15380413 -2.741415356 0)
(104.9598228 -1.888962344 0)
(104.8046419 -2.038643554 0)
(104.6626963 -2.237863636 0)
(104.7295159 -2.084293648 0)
(104.42976 -2.208783915 0)
(104.3122145 -2.43704023 0)
(104.305689 -2.246107302 0)
(103.7844421 -2.337066773 0)
(103.7199558 -2.592008105 0)
(103.411646 -2.352019028 0)
(98.2014667 -2.326343119 0)
(98.12172631 -2.580381303 0)
(97.49032122 -2.398804927 0)
(105.1423731 -1.674018923 0)
(104.9639935 -1.798214313 0)
(104.8474428 -1.975870674 0)
(104.8812504 -1.835691657 0)
(104.559661 -1.937115771 0)
(104.464867 -2.137474766 0)
(104.4271103 -1.967203875 0)
(103.8469956 -2.037150858 0)
(103.8023221 -2.257991581 0)
(103.429555 -2.046495081 0)
(98.3241321 -2.030598644 0)
(98.23067163 -2.24807785 0)
(97.77767842 -2.101891325 0)
(105.2954141 -1.481818401 0)
(105.0955434 -1.585361744 0)
(104.9992476 -1.742477663 0)
(105.0060164 -1.616337671 0)
(104.6651061 -1.699628506 0)
(104.5880913 -1.874672932 0)
(104.5244979 -1.724012469 0)
(103.889611 -1.777757689 0)
(103.8592741 -1.96870819 0)
(103.4348697 -1.783207227 0)
(98.45814224 -1.776797272 0)
(98.35682768 -1.96348216 0)
(98.02230875 -1.84461845 0)
(105.4242105 -1.31165777 0)
(105.2048217 -1.398423664 0)
(105.1247626 -1.536268307 0)
(105.1093465 -1.424201033 0)
(104.7511425 -1.49305131 0)
(104.6882679 -1.645209432 0)
(104.6028394 -1.512874021 0)
(103.9177536 -1.554049861 0)
(103.8978268 -1.718658203 0)
(103.4323774 -1.55679727 0)
(98.59786884 -1.558859545 0)
(98.49271102 -1.719157001 0)
(98.23087863 -1.622155907 0)
(105.5330753 -1.162457839 0)
(105.2961897 -1.235573482 0)
(105.2291946 -1.355524437 0)
(105.1955165 -1.257170068 0)
(104.8215994 -1.314393237 0)
(104.7700886 -1.445878097 0)
(104.6659682 -1.330541672 0)
(103.9353786 -1.36191489 0)
(103.9230182 -1.503201018 0)
(103.4252509 -1.36279245 0)
(98.73947316 -1.371987838 0)
(98.63321352 -1.509394013 0)
(98.40953603 -1.430415484 0)
(105.6255713 -1.032987775 0)
(105.3731001 -1.095007588 0)
(105.3166565 -1.198407318 0)
(105.2678523 -1.113227811 0)
(104.8794694 -1.161031727 0)
(104.8371461 -1.27377141 0)
(104.7168845 -1.174212172 0)
(103.9453763 -1.197932045 0)
(103.9384984 -1.318395632 0)
(103.4155796 -1.197533269 0)
(98.880336 -1.212399582 0)
(98.77484128 -1.329653114 0)
(98.5638387 -1.266107915 0)
(105.7046912 -0.9220243231 0)
(105.4383199 -0.9750605986 0)
(105.390405 -1.063149823 0)
(105.3289929 -0.9905525827 0)
(104.927149 -1.030721225 0)
(104.8922614 -1.126374006 0)
(104.7579818 -1.041505795 0)
(103.9498887 -1.059251386 0)
(103.9469493 -1.160991301 0)
(103.4047486 -1.057994963 0)
(99.01860417 -1.07729815 0)
(98.91520556 -1.176423418 0)
(98.69814855 -1.126466117 0)
(105.772927 -0.8284403648 0)
(105.4941088 -0.8742214775 0)
(105.4530726 -0.948115439 0)
(105.3810925 -0.8875168972 0)
(104.9666106 -0.9215352351 0)
(104.9377151 -1.001513098 0)
(104.791214 -0.9304015408 0)
(103.9504894 -0.9435292045 0)
(103.9503531 -1.028248619 0)
(103.3936354 -0.9417161268 0)
(99.15297011 -0.9643875879 0)
(99.05259627 -1.047074376 0)
(98.81567953 -1.009274716 0)
(105.8323368 -0.751107818 0)
(105.5423437 -0.7911217688 0)
(105.5068083 -0.8518350157 0)
(105.4259515 -0.8026744738 0)
(104.9995254 -0.8318172933 0)
(104.9753933 -0.8973418681 0)
(104.8182318 -0.8391735232 0)
(103.9484009 -0.8488123668 0)
(103.950178 -0.9179544747 0)
(103.3827887 -0.8466752864 0)
(99.2826024 -0.8716436818 0)
(99.18584598 -0.939384448 0)
(98.9196716 -0.9127998154 0)
(105.8847543 -0.6889159444 0)
(105.5846654 -0.7245112228 0)
(105.5534181 -0.7729688335 0)
(105.4651407 -0.7347245782 0)
(105.0273269 -0.7601089405 0)
(105.0069036 -0.8122527418 0)
(104.8404326 -0.7663055568 0)
(103.9446084 -0.7734027674 0)
(103.9475772 -0.8282050524 0)
(103.3726584 -0.7711405752 0)
(99.40688313 -0.7974448042 0)
(99.31419114 -0.8514050523 0)
(99.01332466 -0.8354069333 0)
(105.9320361 -0.6409875006 0)
(105.622558 -0.673360962 0)
(105.5944996 -0.7103083454 0)
(105.5000688 -0.6825967239 0)
(105.0512949 -0.7052400253 0)
(105.0336299 -0.7448539321 0)
(104.8590671 -0.7106048041 0)
(103.94 -0.7160742313 0)
(103.9434986 -0.7574180266 0)
(103.3636334 -0.7138809086 0)
(99.52524653 -0.7407312345 0)
(99.43705079 -0.7816628412 0)
(99.09885477 -0.7758260929 0)
(105.9755852 -0.6067226464 0)
(105.6572973 -0.6368417615 0)
(105.6314933 -0.6628903041 0)
(105.5319728 -0.6454058222 0)
(105.0726117 -0.6661984987 0)
(105.0568299 -0.6940339177 0)
(104.8753085 -0.6710258803 0)
(103.9354646 -0.6757097782 0)
(103.938823 -0.7044364773 0)
(103.3561525 -0.6738054027 0)
(99.63677269 -0.70053266 0)
(99.55381331 -0.7291744472 0)
(99.17771656 -0.7328685501 0)
(106.0166283 -0.5855160016 0)
(105.6899609 -0.6142406661 0)
(105.6656194 -0.6299106927 0)
(105.5618976 -0.6223882796 0)
(105.0923097 -0.6420725779 0)
(105.0776498 -0.6588007384 0)
(104.890205 -0.6466220132 0)
(103.931915 -0.6513513229 0)
(103.9344485 -0.6681535124 0)
(103.3508972 -0.6499875255 0)
(99.74032681 -0.6759495935 0)
(99.66343096 -0.6929485167 0)
(99.25127235 -0.7056444965 0)
(106.0610463 -0.5765539585 0)
(105.72509 -0.6046958431 0)
(105.6978844 -0.6106999658 0)
(105.5940085 -0.6126017284 0)
(105.1134927 -0.631652425 0)
(105.0970626 -0.6382762327 0)
(104.9064706 -0.6361370486 0)
(103.9305599 -0.6420618074 0)
(103.9312955 -0.6476694415 0)
(103.3485717 -0.641743355 0)
(99.84603924 -0.6667255447 0)
(99.76457185 -0.6721760947 0)
(99.32865779 -0.6933983574 0)
(92.95815045 -8.826084441 2.549568913e-21)
(92.63276227 -8.544202866 5.488453272e-19)
(93.01975434 -8.213267142 -5.031977983e-19)
(95.12113138 -10.56116876 -2.212893206e-19)
(94.63500271 -10.18417508 3.978538055e-20)
(95.10985229 -9.664296176 -2.126579586e-19)
(90.47066253 -19.68192378 1.70249439e-19)
(94.40359628 -7.344452888 5.673647716e-19)
(93.81624609 -6.955229992 -2.96742242e-19)
(94.57035169 -6.524790032 1.595435123e-19)
(92.82449456 -7.747837769 0)
(93.56104807 -7.139559951 0)
(94.15409583 -7.56485354 2.894375732e-19)
(96.30590185 -8.228807202 0)
(95.55064565 -7.918418937 2.414986694e-21)
(96.21633949 -7.362353198 -1.299815774e-19)
(94.7232816 -9.065801966 -2.703825388e-19)
(95.33421476 -8.187274552 -5.096042192e-19)
(96.12879405 -8.537105327 0)
(94.37003541 -7.700318979 0)
(95.07506379 -8.077481888 0)
(94.4380483 -8.910580144 2.705946862e-19)
(93.94739155 -9.616034217 0)
(93.54739325 -9.313282464 -2.580419867e-19)
(93.95465928 -8.915805624 2.34027416e-19)
(91.48732154 -10.0188802 4.738812367e-19)
(92.3117735 -10.03404663 4.503409883e-19)
(92.34878586 -10.09429816 -3.122473357e-21)
(91.9055524 -9.278174159 4.739115474e-19)
(91.94782489 -9.3318804 0)
(91.5045605 -9.353621214 2.640916892e-21)
(81.88977333 -7.729942589 1.407168096e-19)
(81.95697002 -8.686789653 3.669619684e-19)
(97.66182887 -10.12982576 3.797087687e-19)
(78.01822902 -11.27642096 -1.581950071e-20)