/*--------------------------------*- C++ -*----------------------------------*\
| =========                 |                                                 |
| \\      /  F ield         | OpenFOAM: The Open Source CFD Toolbox           |
|  \\    /   O peration     | Version:  v2012                                 |
|   \\  /    A nd           | Website:  www.openfoam.com                      |
|    \\/     M anipulation  |                                                 |
\*---------------------------------------------------------------------------*/
FoamFile
{
    version     2.0;
    format      ascii;
    class       pointVectorField;
    location    "2.42";
    object      pointDisplacement;
}
// * * * * * * * * * * * * * * * * * * * * * * * * * * * * * * * * * * * * * //

dimensions      [0 1 0 0 0 0 0];


internalField   nonuniform List<vector> 
7018
(
(0 0 0)
(0 0 0)
(0 0 0)
(0 0 0)
(0 0 0)
(0 0 0)
(0 0 0)
(0 0 0)
(0 0 0)
(0 0 0)
(0 0 0)
(0 0 0)
(0 0 0)
(0 0 0)
(0 0 0)
(0 0 0)
(0 0 0)
(0 0 0)
(0 0 0)
(0 0 0)
(0 0 0)
(0 0 0)
(0 0 0)
(0 0 0)
(0 0 0)
(0 0 0)
(0 0 0)
(0 0 0)
(0 0 0)
(0 0 0)
(0 0 0)
(0 0 0)
(0 0 0)
(0 0 0)
(0 0 0)
(0 0 0)
(0 0 0)
(0 0 0)
(0 0 0)
(0 0 0)
(0 0 0)
(0 0 0)
(0 0 0)
(0 0 0)
(-4.042892925e-07 4.561796834e-06 3.330669074e-16)
(1.868271924e-06 3.879082064e-06 2.91433544e-16)
(0 0 0)
(0 0 0)
(0 0 0)
(0 0 0)
(0 0 0)
(0 0 0)
(0 0 0)
(0 0 0)
(0 0 0)
(0 0 0)
(0 0 0)
(0 0 0)
(0 0 0)
(0 0 0)
(0 0 0)
(0 0 0)
(0 0 0)
(0 0 0)
(0 0 0)
(0 0 0)
(0 0 0)
(0 0 0)
(0 0 0)
(0 0 0)
(0 0 0)
(0 0 0)
(0 0 0)
(0 0 0)
(0 0 0)
(0 0 0)
(0 0 0)
(0 0 0)
(0 0 0)
(0 0 0)
(0 0 0)
(-2.346008184e-05 -0.0002812898485 3.524958103e-14)
(-2.043338463e-05 -0.0008803222507 5.827283101e-14)
(0.000418811941 -0.0008710117197 5.752343046e-14)
(0.0002415726159 -0.0002773798579 3.466671394e-14)
(0.0007912717451 -0.0002141042306 2.657596365e-14)
(0.001406001958 -0.000712777737 4.679590049e-14)
(0.001537372036 -0.0006233283641 4.088396288e-14)
(0.0008309417545 -0.000179327457 2.224609386e-14)
(0.0004875760971 -6.53421099e-05 8.118505868e-15)
(0.001211131997 -0.0003064614356 2.010891453e-14)
(0.0009105289881 -0.0002044774194 1.34336986e-14)
(0.0002847276566 -3.382294747e-05 4.204969706e-15)
(0 0 0)
(4.792507748e-05 -8.033684531e-06 5.273559367e-16)
(0 0 0)
(0 0 0)
(0 0 0)
(0 0 0)
(0 0 0)
(0 0 0)
(0 0 0)
(0 0 0)
(0 0 0)
(0 0 0)
(0 0 0)
(0 0 0)
(0 0 0)
(0 0 0)
(0 0 0)
(0 0 0)
(0 0 0)
(0 0 0)
(0 0 0)
(0 0 0)
(0 0 0)
(0 0 0)
(0 0 0)
(0 0 0)
(0.0001085627095 -0.005470846531 1.499356195e-13)
(0.0001947220471 -0.008037506911 1.842692665e-13)
(0.001588765611 -0.008003195024 1.8299251e-13)
(0.001242106084 -0.005441735209 1.487421297e-13)
(0.00407394277 -0.004833072708 1.312006059e-13)
(0.005141052213 -0.00721871068 1.638827962e-13)
(0.005938580268 -0.006740213197 1.527528104e-13)
(0.004670551241 -0.004468306783 1.21125332e-13)
(0.004992974656 -0.003025258546 8.187894807e-14)
(0.00664677306 -0.004797869775 1.085104229e-13)
(0.006280690446 -0.004041354674 9.144074387e-14)
(0.004595748542 -0.002479753198 6.716849299e-14)
(0.002336232984 -0.0009458588697 2.57294186e-14)
(0.003738984281 -0.001809024504 4.10921297e-14)
(0.00264087258 -0.001178682964 2.682576383e-14)
(0.001465473621 -0.0005471157042 1.490474411e-14)
(0 0 0)
(0.0001266675612 -4.574141175e-05 1.054711873e-15)
(0 0 0)
(0 0 0)
(0 0 0)
(0 0 0)
(0 0 0)
(0 0 0)
(0 0 0)
(0 0 0)
(0 0 0)
(0 0 0)
(0 0 0)
(0 0 0)
(0 0 0)
(0 0 0)
(0 0 0)
(0 0 0)
(0 0 0)
(0 0 0)
(0 0 0)
(0 0 0)
(0.0004912817412 -0.01828844217 2.813027589e-13)
(0.0005660705673 -0.02219878925 3.077121891e-13)
(0.002901565841 -0.02217154952 3.065048215e-13)
(0.002624286911 -0.01825364396 2.799982468e-13)
(0.008327994228 -0.01705459529 2.596256543e-13)
(0.009244913475 -0.02093204858 2.871591853e-13)
(0.010925135 -0.02009174776 2.750438766e-13)
(0.009786103739 -0.01627186775 2.471911564e-13)
(0.01201659862 -0.01281218442 1.939420846e-13)
(0.01374825737 -0.01622056307 2.211841821e-13)
(0.01378214545 -0.01453122475 1.980915432e-13)
(0.011915073 -0.01134862248 1.717792575e-13)
(0.009059690097 -0.006506315894 9.871270468e-14)
(0.0112971433 -0.008987362793 1.224575996e-13)
(0.009727410496 -0.007159086385 9.749145935e-14)
(0.007706612086 -0.005110242332 7.749356712e-14)
(0.002665840845 -0.00143781141 2.187139359e-14)
(0.003985112947 -0.002384796822 3.265443471e-14)
(0.002247792806 -0.001265102131 1.734723476e-14)
(0.001284308393 -0.0006514801205 9.922618283e-15)
(0 0 0)
(0 0 0)
(0 0 0)
(0 0 0)
(0 0 0)
(0 0 0)
(0 0 0)
(0 0 0)
(0 0 0)
(0 0 0)
(0 0 0)
(0 0 0)
(0 0 0)
(0 0 0)
(0 0 0)
(0 0 0)
(0 0 0)
(0 0 0)
(0.0005953279758 -0.03327189558 3.557709682e-13)
(0.0005339302937 -0.03617602139 3.594347042e-13)
(0.003281732163 -0.03625419558 3.593930709e-13)
(0.003307309318 -0.03330765176 3.552852457e-13)
(0.01117518389 -0.03261736077 3.453626274e-13)
(0.01146244409 -0.03603899071 3.546607452e-13)
(0.01394129293 -0.03552936732 3.488043188e-13)
(0.01349015501 -0.03192457766 3.372163659e-13)
(0.0182841309 -0.027730521 2.911837438e-13)
(0.01943488281 -0.03166487469 3.08433834e-13)
(0.02033644372 -0.0296448183 2.880612415e-13)
(0.01893257035 -0.02565331802 2.686600942e-13)
(0.01740772662 -0.01792883311 1.875305466e-13)
(0.01918514127 -0.02125749791 2.065569937e-13)
(0.0175533707 -0.01799500524 1.750682932e-13)
(0.01574302496 -0.0150005128 1.571104358e-13)
(0.008552138743 -0.006633093168 6.98885394e-14)
(0.01008167575 -0.008415336018 8.233691506e-14)
(0.007264094891 -0.00570436402 5.592748487e-14)
(0.005950945273 -0.004341854687 4.585221092e-14)
(0.0003924978098 -0.0002429453878 2.581268532e-15)
(0.0006743004323 -0.0004493592093 4.427014311e-15)
(1.711664332e-05 -1.086203003e-05 1.110223025e-16)
(0 0 0)
(0 0 0)
(0 0 0)
(0 0 0)
(0 0 0)
(0 0 0)
(0 0 0)
(0 0 0)
(0 0 0)
(0 0 0)
(0 0 0)
(0 0 0)
(0 0 0)
(0 0 0)
(0 0 0)
(0.0003009813317 -0.04385717695 0)
(0.0002625165056 -0.04513711421 0)
(0.001664770014 -0.04517813205 0)
(0.001695636969 -0.04389808693 0)
(0.01157347375 -0.04430092971 0)
(0.01157581759 -0.0456167452 0)
(0.0115874947 -0.04695322568 0)
(0.01298117943 -0.04703535663 0)
(0.01435537668 -0.04709154177 0)
(0.01437401308 -0.04444987781 0)
(0.02161713516 -0.04280814326 3.436834151e-13)
(0.02193349201 -0.04605474768 3.495398415e-13)
(0.02358552468 -0.04426280697 3.355232758e-13)
(0.02309099897 -0.04088702213 3.279043703e-13)
(0.02328797629 -0.03130043445 2.507993813e-13)
(0.0241181429 -0.03434054078 2.598754545e-13)
(0.02288431526 -0.03014359179 2.282202205e-13)
(0.02185156451 -0.02717316612 2.178673908e-13)
(0.0140803581 -0.01426572445 1.148248163e-13)
(0.01539852887 -0.01651630163 1.255662241e-13)
(0.01212879407 -0.01223862699 9.323097849e-14)
(0.01092390701 -0.01041297813 8.398837181e-14)
(0.002430686539 -0.001964570236 1.59317004e-14)
(0.00303831893 -0.002599076148 1.99146255e-14)
(0.001088393605 -0.0008860317389 6.800116026e-15)
(0.000740520231 -0.0005696210936 4.62130334e-15)
(0 0 0)
(0 0 0)
(0 0 0)
(0 0 0)
(0 0 0)
(0 0 0)
(0 0 0)
(0 0 0)
(0 0 0)
(0 0 0)
(0 0 0)
(0 0 0)
(0 0 0)
(0 0 0)
(0.01144282873 -0.05481292385 0)
(0.01141140773 -0.05612105037 0)
(0.01277654731 -0.05616737694 0)
(0.01280934793 -0.05486122957 0)
(0.02226827141 -0.05492735255 3.57686103e-13)
(0.02224725464 -0.05764614872 3.585604036e-13)
(0.02446005088 -0.05654737218 3.51274565e-13)
(0.0243914849 -0.05370289896 3.492761635e-13)
(0.02641999987 -0.04398950863 2.857297732e-13)
(0.02671748363 -0.04665837123 2.894628981e-13)
(0.02578844662 -0.04161837249 2.583072645e-13)
(0.02543857638 -0.03915209095 2.544353617e-13)
(0.01806785117 -0.02260829845 1.474931288e-13)
(0.01847080849 -0.02422119358 1.50879309e-13)
(0.01499603549 -0.01849328491 1.153938056e-13)
(0.01461304989 -0.01719742175 1.123823257e-13)
(0.004408241253 -0.004395817348 2.887967643e-14)
(0.004977866022 -0.005201895664 3.262667914e-14)
(0.002373895757 -0.00236020352 1.482147738e-14)
(0.001954231639 -0.001854187059 1.219857548e-14)
(0 0 0)
(0 0 0)
(0 0 0)
(0 0 0)
(0 0 0)
(0 0 0)
(0 0 0)
(0 0 0)
(0 0 0)
(0 0 0)
(0 0 0)
(0 0 0)
(0 0 0)
(0 0 0)
(0.01116099092 -0.06524833458 0)
(0.01112229514 -0.06654912977 0)
(0.01248427853 -0.06659073908 0)
(0.01252319416 -0.06529061 0)
(0.02206714018 -0.06557484378 3.594069486e-13)
(0.02198885103 -0.06817786532 3.59448582e-13)
(0.02443542215 -0.06746772219 3.55326879e-13)
(0.02447728559 -0.06480328368 3.547717675e-13)
(0.02746258727 -0.0547380571 2.992467385e-13)
(0.02757359474 -0.0572500362 3.010924843e-13)
(0.02693541229 -0.05161991359 2.71546674e-13)
(0.02677014943 -0.04926556867 2.694233725e-13)
(0.01991607155 -0.02972635776 1.630640067e-13)
(0.02019869836 -0.03137279889 1.655203752e-13)
(0.01676558165 -0.02447439178 1.293271046e-13)
(0.01646899015 -0.02310630623 1.269540029e-13)
(0.005707387542 -0.006777498847 3.741451593e-14)
(0.005939114602 -0.007335867155 3.895495038e-14)
(0.003062750533 -0.003598434241 1.91235916e-14)
(0.002887431696 -0.003261697637 1.802724636e-14)
(0 0 0)
(0 0 0)
(0 0 0)
(0 0 0)
(0 0 0)
(0 0 0)
(0 0 0)
(0 0 0)
(0 0 0)
(0 0 0)
(0 0 0)
(0 0 0)
(0 0 0)
(0 0 0)
(0.01083679024 -0.07564286568 0)
(0.01079428814 -0.07693863034 0)
(0.01215477871 -0.07697803646 0)
(0.01219744794 -0.07568269651 0)
(0.02173451156 -0.07595284343 3.594208264e-13)
(0.02164434034 -0.07852413634 3.593514375e-13)
(0.02404743711 -0.07752867491 3.544942118e-13)
(0.02416330918 -0.0750799445 3.549521788e-13)
(0.02728218279 -0.06349954383 2.998434834e-13)
(0.02712321966 -0.06541531964 2.987610159e-13)
(0.0264850578 -0.05887889798 2.689792833e-13)
(0.02664724823 -0.05719005722 2.701311397e-13)
(0.01993967479 -0.03460169425 1.638689184e-13)
(0.01979516351 -0.03555236151 1.628419621e-13)
(0.01639120298 -0.02764862104 1.26815225e-13)
(0.01652262547 -0.02693327189 1.27731159e-13)
(0.005777489356 -0.00796141775 3.791411629e-14)
(0.005701647222 -0.00812778864 3.742839372e-14)
(0.002888722804 -0.00391630142 1.805500194e-14)
(0.002942146799 -0.003855959998 1.838806885e-14)
(0 0 0)
(0 0 0)
(0 0 0)
(0 0 0)
(0 0 0)
(0 0 0)
(0 0 0)
(0 0 0)
(0 0 0)
(0 0 0)
(0 0 0)
(0 0 0)
(0 0 0)
(0 0 0)
(0.01048709526 -0.08599382358 0)
(0.01044093307 -0.08728767982 0)
(0.01180014708 -0.08732566867 0)
(0.01184659801 -0.08603218083 0)
(0.02132733479 -0.08607434665 3.585187702e-13)
(0.02119465863 -0.08847141726 3.577971253e-13)
(0.02335213357 -0.08640192308 3.49179019e-13)
(0.02357214052 -0.08438263434 3.512190538e-13)
(0.02611476843 -0.06961979065 2.89532287e-13)
(0.02555342469 -0.07029237198 2.838840274e-13)
(0.02485006619 -0.06291846565 2.541855615e-13)
(0.02531208923 -0.06212720942 2.584460423e-13)
(0.01832654463 -0.03624664856 1.511707426e-13)
(0.01786031677 -0.03640812413 1.474514955e-13)
(0.01449156038 -0.02772445353 1.124100812e-13)
(0.01492506235 -0.02770837416 1.15699117e-13)
(0.004659803361 -0.007305386727 3.06143999e-14)
(0.004409525535 -0.007122054214 2.897682094e-14)
(0.001960851059 -0.003011864247 1.226796442e-14)
(0.002128683176 -0.003173749129 1.330879851e-14)
(0 0 0)
(0 0 0)
(0 0 0)
(0 0 0)
(0 0 0)
(0 0 0)
(0 0 0)
(0 0 0)
(0 0 0)
(0 0 0)
(0 0 0)
(0 0 0)
(0 0 0)
(0 0 0)
(0.01010860633 -0.09631927616 0)
(0.01005879777 -0.09760876618 0)
(0.01141756488 -0.09764566242 0)
(0.01146779276 -0.09635618497 0)
(0.02070666097 -0.09517608281 3.541056337e-13)
(0.02049579447 -0.09713969677 3.520239655e-13)
(0.02229799745 -0.09336919164 3.382016889e-13)
(0.0226132926 -0.09191398419 3.417821581e-13)
(0.02397400443 -0.07206622553 2.678968158e-13)
(0.0235545308 -0.07282953648 2.637334795e-13)
(0.02236083168 -0.06351818733 2.300937219e-13)
(0.02307932124 -0.06377937777 2.371575158e-13)
(0.01577292622 -0.03501050338 1.304928388e-13)
(0.01478269979 -0.033697151 1.223604551e-13)
(0.0114691418 -0.02452314464 8.913703109e-14)
(0.0124621676 -0.02594984405 9.681144775e-14)
(0.003128420378 -0.005496959657 2.056688153e-14)
(0.002732190606 -0.004929982405 1.797173521e-14)
(0.0008875380224 -0.001523252694 5.551115123e-15)
(0.001117104661 -0.00186688672 6.994405055e-15)
(0 0 0)
(0 0 0)
(0 0 0)
(0 0 0)
(0 0 0)
(0 0 0)
(0 0 0)
(0 0 0)
(0 0 0)
(0 0 0)
(0 0 0)
(0 0 0)
(0 0 0)
(0 0 0)
(0.01119938603 -0.06394956889 0)
(0.009837374423 -0.06390490095 0)
(0.009818169364 -0.06455353412 0)
(0.009799257277 -0.06520439445 0)
(0.01007360374 -0.05475687637 0)
(0.01004531561 -0.05607049829 0)
(0.01087909942 -0.07434553638 0)
(0.009519160548 -0.0743057271 0)
(0.009498203946 -0.0749547874 0)
(0.009477073023 -0.07560366261 0)
(0.009780209223 -0.06585579032 0)
(0.009761035976 -0.0665073623 0)
(0.01053172397 -0.0847011205 0)
(0.009172671706 -0.08466373606 0)
(0.009150603248 -0.08530988512 0)
(0.009128249643 -0.08595554599 0)
(0.009455820499 -0.07625259414 0)
(0.009434678159 -0.07689985018 0)
(0.01015839872 -0.09503032527 0)
(0.008800159961 -0.09499380461 0)
(0.00874956369 -0.09628357079 0)
(0.009082250999 -0.08724994673 0)
(0.008701670223 -0.09757317818 0)
(-0.001075106519 -0.04381682359 0)
(-0.001117440625 -0.04509718447 0)
(0.01147048043 -0.0534985316 0)
(0.01010119495 -0.05344450224 0)
(0.01017537996 -0.04423587411 0)
(0.0101729775 -0.04554201422 0)
(0.005855955388 -0.05985697379 0)
(0.005864039351 -0.05952831281 0)
(0.005520305856 -0.05951781042 0)
(0.005511280766 -0.05984666503 0)
(0.005965765647 -0.05458637575 0)
(0.005279865195 -0.0545561151 0)
(0.005271676941 -0.05522185495 0)
(0.00595668545 -0.05525026859 0)
(0.01256205413 -0.0639923379 0)
(0.02214237305 -0.06296977156 3.593236819e-13)
(0.01941989377 -0.06290580154 0)
(0.01934060855 -0.06550056008 0)
(0.0196447092 -0.05510451627 0)
(0.01957158467 -0.05770376917 0)
(0.005484594601 -0.0702830492 0)
(0.0054958708 -0.06995830314 0)
(0.005108803197 -0.06994711923 0)
(0.005097647995 -0.07027162909 0)
(0.005700613154 -0.06507960568 0)
(0.005344452346 -0.06507024765 0)
(0.00534456604 -0.06539545507 0)
(0.005695992153 -0.06540515082 0)
(0.01223986795 -0.07438567031 0)
(0.02182199323 -0.07336822658 3.594624598e-13)
(0.01909394668 -0.07328858878 0)
(0.01900828355 -0.07588009834 0)
(0.01926024752 -0.06809720497 0)
(0.005232841823 -0.08067189787 0)
(0.005241276853 -0.08034772616 0)
(0.004898707945 -0.08033817602 0)
(0.004892183809 -0.08066240502 0)
(0.005391934052 -0.07548377544 0)
(0.005042466127 -0.0754727594 0)
(0.005022260224 -0.07579657824 0)
(0.005376449684 -0.07580809556 0)
(0.01189171132 -0.08473931241 0)
(0.02144386841 -0.08360320145 3.589628594e-13)
(0.01874437573 -0.08364140904 0)
(0.01865357098 -0.08622443051 0)
(0.01892175652 -0.07846642574 0)
(0.004877049773 -0.09101463882 0)
(0.004900945878 -0.09036932398 0)
(0.004224614971 -0.09035144702 0)
(0.00420142033 -0.09099696276 0)
(0.005059976441 -0.08584425854 0)
(0.004382015566 -0.08582555329 0)
(0.004370453014 -0.08614945138 0)
(0.004359693171 -0.08647397309 0)
(0.005037677377 -0.08649130004 0)
(-0.0009091942035 -0.101201959 0)
(-0.0005716870909 -0.1012103981 0)
(-0.0005651329908 -0.1008867695 0)
(-0.000905894633 -0.1008773935 0)
(0.004475992931 -0.101330901 0)
(0.004503032746 -0.1006865198 0)
(0.003827079855 -0.1006700332 0)
(0.003800574367 -0.1013141906 0)
(0.004684402516 -0.09617627382 0)
(0.004009375102 -0.09615891559 0)
(0.003984385164 -0.09680371799 0)
(0.004659706101 -0.09682108501 0)
(0.005707443357 -0.06475376703 0)
(0.005348384466 -0.06474468186 0)
(0.005502910694 -0.06017466991 0)
(0.005847245781 -0.06018470468 0)
(0.01130998517 -0.06004025569 0)
(0.009946122942 -0.05999331988 0)
(0.009928444209 -0.06064503859 0)
(0.009910994416 -0.06129912046 0)
(0.01127399923 -0.06134465756 0)
(0.005839637703 -0.06051149131 0)
(0.006522345345 -0.06053405616 0)
(0.00653929383 -0.05988069673 0)
(0.006050206848 -0.06508942637 0)
(0.006058420199 -0.06476344931 0)
(0.005407635877 -0.07516000144 0)
(0.005062959576 -0.07514954874 0)
(0.005090467945 -0.07059673777 0)
(0.005476902993 -0.0706086222 0)
(0.01100305208 -0.07044878267 0)
(0.01032267949 -0.07042832633 0)
(0.01030240042 -0.07107878595 0)
(0.0109826568 -0.07109911889 0)
(0.005853591275 -0.07062003457 0)
(0.005862156859 -0.0702943079 0)
(0.005737565204 -0.07549437668 0)
(0.005750398886 -0.07517027688 0)
(0.006042960918 -0.06541513264 0)
(0.005872917293 -0.06996936651 0)
(0.01102324073 -0.0697993396 0)
(0.01034280823 -0.06977888147 0)
(0.005081974812 -0.08519804742 0)
(0.004403505367 -0.08517950679 0)
(0.004392784428 -0.08550253076 0)
(0.004882308716 -0.08098641365 0)
(0.005222406043 -0.0809960096 0)
(0.01066456122 -0.08082399908 0)
(0.009305026143 -0.08078672008 0)
(0.00928329196 -0.08143371855 0)
(0.0092614685 -0.08207969509 0)
(0.01062069688 -0.08211720473 0)
(0.005211386194 -0.08131920448 0)
(0.00589016953 -0.08133787443 0)
(0.005911898326 -0.08069105566 0)
(0.005737310134 -0.08586288504 0)
(0.005759498397 -0.08521673957 0)
(0.005724835166 -0.0758190192 0)
(0.005933105956 -0.08004362171 0)
(0.005592613861 -0.08003359422 0)
(0.005250412155 -0.08002399514 0)
(0.01070766478 -0.07953017106 0)
(0.00934870295 -0.07949177007 0)
(0.009327070614 -0.08013937117 0)
(0.004709694353 -0.09553100082 0)
(0.004034151776 -0.09551362715 0)
(0.004178370058 -0.09164266269 0)
(0.004854233121 -0.09166034575 0)
(-0.001240587613 -0.1011954419 0)
(-0.001254535545 -0.1015166904 0)
(-0.0009195066225 -0.1015242757 0)
(-0.001242961458 -0.1008690875 0)
(0.003772839065 -0.1019577715 0)
(0.004448226485 -0.1019747208 0)
(-0.0005821288996 -0.1015327109 0)
(0.003141531609 -0.05713462457 0)
(0.003126815532 -0.05681031643 0)
(0.002782314263 -0.05681902507 0)
(0.002882330357 -0.05708573601 0)
(0.003190963702 -0.05444529249 0)
(0.002832592591 -0.05442706466 0)
(0.002822592904 -0.05477342943 0)
(0.00318329119 -0.05478682846 0)
(0.002190255579 -0.08834103511 0)
(0.002186775944 -0.08801530709 0)
(0.001827691326 -0.08798008011 0)
(0.001766470107 -0.08824906828 0)
(0.01151703526 -0.09506757734 0)
(0.02089017642 -0.09305065449 3.556877015e-13)
(0.01837280727 -0.09396355515 3.594624598e-13)
(0.01826817542 -0.09650052122 3.592959263e-13)
(0.01856156459 -0.08880753587 0)
(-0.0009528046673 -0.09852113603 0)
(-0.0005333501707 -0.09861237346 0)
(-0.0005249828158 -0.09828885924 0)
(-0.0008739061213 -0.09825507606 0)
(0.001886547159 -0.09868839521 0)
(0.001911733583 -0.09804383853 0)
(0.001236454591 -0.09802707233 0)
(0.001224286392 -0.09834957326 0)
(0.001212948443 -0.09867197916 0)
(0.00198752346 -0.09610927606 0)
(0.001650181079 -0.09610078195 0)
(0.001637806813 -0.09642315679 0)
(0.00197517136 -0.09643171152 0)
(0.006641209595 -0.05527903943 0)
(0.006653155554 -0.05462055185 0)
(0.006555986618 -0.0592258667 0)
(0.005872834502 -0.05920072838 0)
(0.01134529261 -0.058736487 0)
(0.009981719045 -0.05869192213 0)
(0.009964081256 -0.05934227507 0)
(0.001999286706 -0.09578628334 0)
(0.001661681946 -0.09577754154 0)
(0.002071689163 -0.09352431683 0)
(0.001722120584 -0.09351245838 0)
(0.001716223027 -0.09383658624 0)
(0.002062478374 -0.09384756594 0)
(0.01030220791 -0.0911612072 0)
(0.008943511477 -0.09112395334 0)
(0.008896262572 -0.0924140597 0)
(0.01025473017 -0.09245094696 0)
(0.005530418466 -0.0916782783 0)
(0.005553786824 -0.09103276777 0)
(0.00536015356 -0.09619389356 0)
(0.005385729338 -0.09554874899 0)
(0.005715047601 -0.08650950794 0)
(0.005577329504 -0.09038744234 0)
(0.0103494436 -0.08986954158 0)
(0.008990509354 -0.08983222064 0)
(0.000170562942 -0.04897699316 0)
(-0.0005758199061 -0.04896085938 0)
(-0.0005946063033 -0.04960132703 0)
(0.000150824693 -0.04961750422 0)
(0.005974517043 -0.05392385086 0)
(0.005287404118 -0.05389263532 0)
(0.005961069455 -0.04925702915 0)
(0.004531027348 -0.0491712901 0)
(0.004523950884 -0.0498195434 0)
(0.004552068997 -0.05049219283 0)
(0.005285082225 -0.05055728799 0)
(0.005987686535 -0.0505997493 0)
(0.0009301482662 -0.04964629304 0)
(0.0009448222111 -0.04900500661 0)
(0.003037781348 -0.05755067615 0)
(0.00591927104 -0.05723132059 0)
(0.005235608738 -0.0572064008 0)
(0.005227573877 -0.05753702384 0)
(0.00521959148 -0.05786709684 0)
(0.005904765752 -0.05789058103 0)
(0.003465501653 -0.0574859867 0)
(0.003481193676 -0.05715213972 0)
(0.00353828881 -0.05479898756 0)
(0.003543266881 -0.05445993144 0)
(0.003483020004 -0.05681941796 0)
(0.005933765233 -0.05657423024 0)
(0.005250980486 -0.05655123738 0)
(0.005243212416 -0.05687836096 0)
(0.005660044407 -0.06768427852 0)
(0.005337107959 -0.06767363814 0)
(0.005323925073 -0.06799898657 0)
(0.005647114907 -0.06800957458 0)
(0.005668606399 -0.06735867166 0)
(0.005343565573 -0.06734802815 0)
(0.0053200774 -0.07808073524 0)
(0.004982534928 -0.07807151565 0)
(0.004969284942 -0.07839650232 0)
(0.005308654445 -0.07840577668 0)
(0.005328588469 -0.07775482707 0)
(0.004989571186 -0.07774520353 0)
(0.002149625553 -0.09093755203 0)
(0.002163457852 -0.09061534081 0)
(0.001820756556 -0.09060560684 0)
(0.001797459597 -0.09092573562 0)
(0.001892240534 -0.0886664785 0)
(0.00221162343 -0.08867125652 0)
(0.004969905568 -0.08843059962 0)
(0.0042931164 -0.08841240914 0)
(0.004270166154 -0.08905757247 0)
(0.004947314738 -0.08907577372 0)
(0.00255677236 -0.08868154352 0)
(0.002552145584 -0.08835548133 0)
(0.002499469082 -0.09094923885 0)
(0.002510422449 -0.09062646168 0)
(0.002319212897 -0.08575753857 0)
(0.002255641156 -0.0860567343 0)
(0.002611612619 -0.08609120843 0)
(0.002640296609 -0.08577058161 0)
(0.002555918995 -0.0880314097 0)
(0.004992578453 -0.08778488837 0)
(0.004315821032 -0.08776663889 0)
(0.004304273436 -0.08808963808 0)
(0.001780592317 -0.1012659861 0)
(0.001807871153 -0.1006220318 0)
(0.001136257626 -0.1006063947 0)
(0.001109843788 -0.1012504949 0)
(0.001200685593 -0.09899423743 0)
(0.001188680928 -0.0993166833 0)
(0.001861074395 -0.09933270348 0)
(-0.0008506556776 -0.09893681886 0)
(-0.0005256617133 -0.09894110557 0)
(0.005786719823 -0.0624727006 0)
(0.005441010194 -0.06246191714 0)
(0.005435974082 -0.06278810935 0)
(0.005779374483 -0.06279972294 0)
(0.005794942154 -0.06214642404 0)
(0.005448244131 -0.06213561094 0)
(0.005505145087 -0.0728873359 0)
(0.005184616765 -0.07287856641 0)
(0.00517233002 -0.07320382178 0)
(0.005494493684 -0.0732126403 0)
(0.005511479906 -0.07256202201 0)
(0.005190234549 -0.07255317107 0)
(0.005833727327 -0.07289664661 0)
(0.00584161782 -0.07257143931 0)
(0.008201718899 -0.0729663158 0)
(0.008222080066 -0.07231711773 0)
(0.007542718636 -0.07229693154 0)
(0.007522653391 -0.07294625839 0)
(0.00828257647 -0.07036710766 0)
(0.007602441692 -0.07034671842 0)
(0.00758251126 -0.07099754822 0)
(0.008262528028 -0.07101787398 0)
(0.008118326817 -0.07556406896 0)
(0.008139403225 -0.07491501224 0)
(0.007460392232 -0.07489513634 0)
(0.007439254126 -0.07554425116 0)
(0.007502156256 -0.07359599199 0)
(0.008181103755 -0.07361598591 0)
(0.005823676746 -0.07322190906 0)
(0.005990329704 -0.06769477946 0)
(0.005999728539 -0.06736925764 0)
(0.008361778315 -0.06776713041 0)
(0.008381222342 -0.06711652585 0)
(0.007701397853 -0.06709578617 0)
(0.007682071835 -0.06774645422 0)
(0.008438248495 -0.06516227475 0)
(0.007757832162 -0.0651412775 0)
(0.007739190856 -0.06579310526 0)
(0.008419429277 -0.06581403722 0)
(0.008302530889 -0.06971747771 0)
(0.007622338004 -0.06969702676 0)
(0.007662335477 -0.0683968102 0)
(0.008342163558 -0.06841743008 0)
(0.005978659956 -0.06802005333 0)
(0.005147119293 -0.083258789 0)
(0.00480639658 -0.08324905438 0)
(0.004796359146 -0.08357287827 0)
(0.005136442697 -0.08358253377 0)
(0.002685698303 -0.08545369362 0)
(0.002382836481 -0.08544581348 0)
(0.005156875786 -0.08293513655 0)
(0.004815283882 -0.08292519601 0)
(0.002135357171 -0.09126010991 0)
(0.00248763875 -0.09127246939 0)
(0.002415904214 -0.09353475571 0)
(0.002426140532 -0.09321129752 0)
(0.002080000797 -0.09320026133 0)
(0.00478280358 -0.0935960582 0)
(0.004806873993 -0.09295032889 0)
(0.004131252337 -0.09293259311 0)
(0.00410728077 -0.09357862517 0)
(0.001726681695 -0.09318751101 0)
(0.001776344905 -0.09124646944 0)
(-0.001087639823 -0.09897354268 0)
(0.001081824532 -0.1018933478 0)
(0.001753146934 -0.1019090961 0)
(0.001766645839 -0.05433880683 0)
(0.0013454015 -0.05432647412 0)
(0.001714134608 -0.05473885137 0)
(0.0005658140874 -0.09735937763 0)
(0.0005785591468 -0.09703683404 0)
(0.0002205400592 -0.09702286361 0)
(0.0002082855987 -0.09734524204 0)
(0.0006310614203 -0.09607328831 0)
(0.0002972467284 -0.09606591922 0)
(0.0002816988016 -0.09638735953 0)
(0.0006186805613 -0.09639548309 0)
(-0.001772491067 -0.0542550438 0)
(-0.001814528674 -0.05462871419 0)
(-0.001384295226 -0.05469139252 0)
(-0.00140423333 -0.05421607825 0)
(0.0006363731237 -0.09574890306 0)
(0.0002923066362 -0.09573870846 0)
(0.0006642306976 -0.09477784344 0)
(0.0003452731358 -0.0947742773 0)
(0.0003295437052 -0.09509577213 0)
(0.0006600996795 -0.09510244396 0)
(7.513150674e-05 -0.05153867531 0)
(-0.0007204926964 -0.05153518512 0)
(-0.0007626160768 -0.05218111669 0)
(-0.0003348671805 -0.0521723735 0)
(7.181476382e-05 -0.05217834763 0)
(-0.002304280414 -0.05223641863 0)
(-0.002202989874 -0.05154201724 0)
(0.003193664333 -0.05410180614 0)
(0.002837797533 -0.0540806407 0)
(0.003149644312 -0.05173120499 0)
(0.002421879728 -0.05167882806 0)
(0.002437893794 -0.05234303849 0)
(0.003175510459 -0.05240997442 0)
(0.0005081023576 -0.05219709865 0)
(0.0009075316809 -0.05222092624 0)
(0.0008993329803 -0.05157281458 0)
(0.00556566675 -0.06898508325 0)
(0.005202872896 -0.06897438719 0)
(0.005156889123 -0.06929929191 0)
(0.005535206744 -0.06931015356 0)
(0.004308037597 -0.06504247536 0)
(0.004328931485 -0.06536650704 0)
(0.004639725047 -0.06537600395 0)
(0.004624207417 -0.06505183366 0)
(0.00437660221 -0.06634132977 0)
(0.004680152348 -0.06635084937 0)
(0.0046688758 -0.06602560709 0)
(0.004363887394 -0.0660158645 0)
(0.005684735532 -0.06638264379 0)
(0.005688686816 -0.06605683875 0)
(0.005347554955 -0.06604655226 0)
(0.005348268883 -0.06637213742 0)
(0.005270654146 -0.07937617249 0)
(0.004922310608 -0.07936584968 0)
(0.004911494441 -0.07968965022 0)
(0.005259721174 -0.07970026932 0)
(0.003841281345 -0.07932690706 0)
(0.003824253848 -0.07964950214 0)
(0.004192828387 -0.07966396888 0)
(0.004205423074 -0.07934064134 0)
(0.003884509189 -0.08063693326 0)
(0.004212807449 -0.08064431685 0)
(0.004209793247 -0.08031806318 0)
(0.003874643893 -0.08030921512 0)
(0.004033847916 -0.07544156349 0)
(0.003999415119 -0.07576435626 0)
(0.004310793919 -0.07577333112 0)
(0.00434315529 -0.07545083598 0)
(0.003884843706 -0.07670757467 0)
(0.004244149925 -0.07674100959 0)
(0.004250960401 -0.07641702901 0)
(0.003922022848 -0.07640357065 0)
(0.005341819544 -0.07678027119 0)
(0.005350011976 -0.07645639199 0)
(0.004989500374 -0.07644396566 0)
(0.004982987615 -0.07676801513 0)
(0.005746705035 -0.06377549478 0)
(0.005400412554 -0.0637647538 0)
(0.00537848211 -0.06409109907 0)
(0.005731559137 -0.06410072439 0)
(0.004411460884 -0.0637295308 0)
(0.004237552103 -0.06413849677 0)
(0.004663425354 -0.06407302048 0)
(0.004719505609 -0.06374332214 0)
(0.00461391689 -0.06472770016 0)
(0.004285461113 -0.06472157093 0)
(0.006129477444 -0.06248315574 0)
(0.006138113706 -0.06215707146 0)
(0.00851264966 -0.06255843628 0)
(0.008531010053 -0.06190797911 0)
(0.007850252262 -0.06188637205 0)
(0.007832062598 -0.06253713413 0)
(0.008583355227 -0.05994787383 0)
(0.00790229936 -0.05992620987 0)
(0.00788522676 -0.06057970948 0)
(0.008566158872 -0.06060150163 0)
(0.008456991648 -0.06451104961 0)
(0.007776459102 -0.06448992896 0)
(0.007813937071 -0.06318975678 0)
(0.008494466026 -0.06321099724 0)
(0.006121224586 -0.06281045065 0)
(0.005453473778 -0.07418696267 0)
(0.005121654999 -0.07417761489 0)
(0.005102788517 -0.07450135397 0)
(0.005438603407 -0.07451100142 0)
(0.004161926427 -0.07415178178 0)
(0.004132240896 -0.07447381753 0)
(0.004435556798 -0.07448255067 0)
(0.00446360038 -0.07415968626 0)
(0.004375200986 -0.07512887099 0)
(0.004068092655 -0.07512044385 0)
(0.005488285958 -0.07158571466 0)
(0.005477510783 -0.0712599478 0)
(0.00510027858 -0.0712482793 0)
(0.00512652901 -0.07157462999 0)
(0.003865973928 -0.08095882362 0)
(0.004201126874 -0.08096755188 0)
(0.00376962582 -0.08191715776 0)
(0.004135855766 -0.0819314343 0)
(0.00415663558 -0.08160967118 0)
(0.003799573769 -0.0815971684 0)
(0.005188235293 -0.08196526113 0)
(0.005199358773 -0.08164200941 0)
(0.004856993521 -0.08163186581 0)
(0.004844382056 -0.08195495302 0)
(0.005825316777 -0.08327720156 0)
(0.005846729897 -0.08263091294 0)
(0.005167039631 -0.08261209588 0)
(0.007859869118 -0.08333357722 0)
(0.007881623696 -0.0826878984 0)
(0.007203246491 -0.08266888088 0)
(0.007181541041 -0.08331492092 0)
(0.007947140767 -0.08074841132 0)
(0.007268649144 -0.0807292105 0)
(0.007246978455 -0.08137609097 0)
(0.007925470078 -0.08139529178 0)
(0.005659051532 -0.07808939817 0)
(0.0056686193 -0.07776424116 0)
(0.008033988733 -0.07815537841 0)
(0.008055288589 -0.077506868 0)
(0.007376274005 -0.0774871119 0)
(0.007355337156 -0.07813551328 0)
(0.007417990827 -0.0761935421 0)
(0.008097186916 -0.07621324368 0)
(0.007969076207 -0.0801006994 0)
(0.00729040308 -0.0800815531 0)
(0.007333716237 -0.07878473354 0)
(0.008012507373 -0.07880394333 0)
(0.005648356389 -0.07841416165 0)
(0.004082587356 -0.09422373624 0)
(0.004758543262 -0.0942411223 0)
(0.002405228196 -0.09385748124 0)
(0.002661137749 -0.09612557266 0)
(0.002685200978 -0.09548008297 0)
(0.002011218872 -0.09546305586 0)
(-0.0009200458218 -0.0998946421 0)
(-0.001341407507 -0.09980298776 0)
(-0.001235601559 -0.1002197395 0)
(-0.0009079455049 -0.1002248255 0)
(0.003152526194 -0.05580607248 0)
(0.002796490693 -0.05579353452 0)
(0.002788519483 -0.05613123433 0)
(0.003139913747 -0.05614739243 0)
(0.002100210055 -0.05472873118 0)
(0.002116231312 -0.05437810175 0)
(0.003164329031 -0.05546635908 0)
(0.002806360176 -0.05545671302 0)
(0.002313496705 -0.08706741656 0)
(0.002032589967 -0.08706756924 0)
(0.001964643128 -0.08737550738 0)
(0.002268573603 -0.0873829399 0)
(0.002322660778 -0.08674452579 0)
(0.002096143381 -0.08677958482 0)
(0.0005297418778 -0.09865245713 0)
(0.000539608608 -0.09832952747 0)
(0.0001883962842 -0.09831690027 0)
(0.0001794670372 -0.09864015781 0)
(0.0002055011976 -0.09767012275 0)
(0.0005579139732 -0.09768290586 0)
(-0.0007066667027 -0.09768972349 0)
(-0.0004695759215 -0.09765342256 0)
(-0.0005750363198 -0.09723812011 0)
(-0.0018973281 -0.05569169785 0)
(-0.001779087826 -0.05541849531 0)