/*--------------------------------*- C++ -*----------------------------------*\
| =========                 |                                                 |
| \\      /  F ield         | OpenFOAM: The Open Source CFD Toolbox           |
|  \\    /   O peration     | Version:  v2012                                 |
|   \\  /    A nd           | Website:  www.openfoam.com                      |
|    \\/     M anipulation  |                                                 |
\*---------------------------------------------------------------------------*/
FoamFile
{
    version     2.0;
    format      ascii;
    class       volScalarField;
    location    "0";
    object      k;
}
// * * * * * * * * * * * * * * * * * * * * * * * * * * * * * * * * * * * * * //

dimensions      [0 2 -2 0 0 0 0];


internalField   nonuniform List<scalar> 
3019
(
42.2761
50.4776
44.6709
41.2005
39.1132
37.7362
36.6654
35.9753
35.3325
35.0718
34.9445
34.8922
48.9322
50.4172
44.8407
41.3894
39.2544
37.8153
36.6835
35.9484
35.2599
34.976
34.8355
34.7769
49.7665
49.8443
44.7599
41.4418
39.317
37.85
36.6788
35.9061
35.184
34.8822
34.7308
34.667
48.1631
48.8961
44.4955
41.3907
39.3088
37.8372
36.6397
35.8462
35.1017
34.7875
34.6269
34.5591
46.5976
47.9092
44.0708
41.2201
39.2302
37.7733
36.5666
35.766
35.0106
34.6885
34.5211
34.4502
45.1461
46.9813
43.6055
40.9718
39.0789
37.659
36.4637
35.666
34.9085
34.5828
34.4115
34.3381
43.8095
46.1192
43.1448
40.6937
38.8891
37.5125
36.3391
35.5506
34.7969
34.4704
34.2964
34.2216
42.5762
45.3133
42.7034
40.4083
38.6808
37.3468
36.1987
35.4227
34.6767
34.3513
34.1759
34.1002
41.4335
44.5564
42.2843
40.1258
38.4652
37.1702
36.0473
35.2852
34.5494
34.2262
34.0502
33.974
40.3699
43.8423
41.8839
39.8509
38.2483
36.988
35.8887
35.1408
34.4163
34.096
33.9199
33.8435
39.3758
43.1657
41.4978
39.5849
38.0336
36.8038
35.7257
34.9916
34.2788
33.9616
33.7857
33.7092
38.4431
42.5215
41.1235
39.3271
37.8228
36.6198
35.5605
34.8394
34.1382
33.8241
33.6486
33.572
37.5652
41.9057
40.7594
39.0761
37.6167
36.4374
35.3947
34.6856
33.9954
33.6842
33.5091
33.4324
36.7367
41.3149
40.4046
38.8308
37.4152
36.2576
35.2294
34.5311
33.8512
33.5427
33.3679
33.2911
35.9529
40.7464
40.058
38.5902
37.2179
36.0806
35.0653
34.3767
33.7062
33.4002
33.2257
33.1487
35.21
40.1981
39.7188
38.3539
37.0246
35.9066
34.9027
34.2228
33.561
33.2572
33.0828
33.0057
34.505
39.6681
39.3865
38.1212
36.8349
35.7354
34.742
34.0699
33.4159
33.114
32.9397
32.8623
33.8352
39.1552
39.0602
37.8919
36.6482
35.5671
34.5833
33.9182
33.2712
32.971
32.7967
32.719
33.1984
38.658
38.7396
37.6655
36.4644
35.4015
34.4267
33.7678
33.1272
32.8284
32.6541
32.576
32.5926
38.1758
38.4243
37.4419
36.2832
35.2383
34.2721
33.6189
32.984
32.6865
32.512
32.4336
32.0163
37.7078
38.1141
37.2207
36.1042
35.0775
34.1197
33.4716
32.8418
32.5453
32.3706
32.2918
31.468
37.2535
37.8086
37.0018
35.9273
34.9189
33.9693
33.3258
32.7007
32.405
32.23
32.1507
30.9467
36.8124
37.5079
36.7851
35.7524
34.7624
33.821
33.1818
32.5615
32.2668
32.0914
32.0118
30.4514
36.3843
37.2118
36.5706
35.5794
34.608
33.6759
33.0406
32.431
32.137
31.9612
31.881
40.5169
41.9098
51.9573
44.9265
40.7025
48.6267
52.1616
51.8988
45.3946
45.366
53.6546
42.7252
42.3661
45.024
53.9868
53.7612
39.5986
41.0066
39.6979
39.9969
48.3219
41.3277
50.1331
51.4748
52.0514
49.5976
48.6511
40.1418
54.0604
54.036
45.405
45.0052
52.0272
40.9149
38.6172
43.754
47.7344
43.8116
39.8708
48.5535
52.4756
43.7097
47.2419
54.2586
40.6023
42.749
39.1746
40.1149
52.4744
52.5767
40.4658
52.2066
49.6779
50.9499
45.8178
40.0353
42.8886
40.7474
45.7256
42.1176
39.8586
43.2128
54.0047
54.2233
54.844
51.4994
53.4053
38.9848
39.079
51.2799
48.9725
50.6747
50.2208
53.3752
53.6053
51.9483
44.8135
50.9634
48.9182
53.6367
52.9826
46.0256
48.0021
49.5404
54.7629
50.758
45.4351
46.6199
52.2899
46.1022
47.357
43.8493
44.96
51.6207
44.5923
41.8237
41.1313
39.498
39.0654
38.0031
43.4542
50.8257
49.8931
50.4915
46.0115
45.8902
44.8181
42.0588
41.8975
41.3551
39.676
39.5511
39.2265
38.1124
38.0351
49.2792
53.5875
54.0117
50.0395
45.9228
46.0225
44.7953
42.134
42.0937
41.4414
39.7638
39.7066
39.3099
38.1705
38.1314
42.4579
42.9381
48.5677
50.2863
51.1987
49.1447
45.6038
45.8674
44.5837
42.0824
42.1299
41.4112
39.7664
39.7706
39.3158
38.1726
38.1753
41.4458
42.2264
46.9789
49.0694
49.9765
48.1517
45.0945
45.4863
44.1837
41.901
42.052
41.2728
39.6984
39.7578
39.2583
38.1246
38.166
40.3399
41.1715
45.4978
47.9363
48.7775
47.2067
44.5438
44.9575
43.7224
41.625
41.8375
41.0379
39.5451
39.6663
39.1214
38.0155
38.1021
39.2508
40.0642
44.1335
46.8904
47.667
46.3291
44.0054
44.4071
43.2585
41.316
41.5494
40.7645
39.346
39.4984
38.9389
37.8673
37.9814
38.21
38.9855
42.8756
45.9224
46.6414
45.51
43.4947
43.8749
42.8116
41.001
41.2372
40.4796
39.1258
39.2922
38.7339
37.6964
37.8262
37.2245
37.9584
41.7114
45.0226
45.6915
44.7414
43.012
43.3716
42.3871
40.6913
40.9228
40.1958
38.8979
39.0692
38.5194
37.5132
37.6515
36.2932
36.9867
40.6289
44.1811
44.8071
44.0171
42.5516
42.8951
41.9825
40.3916
40.6153
39.9188
38.6692
38.8406
38.3024
37.3241
37.4663
35.4126
36.0684
39.6183
43.3895
43.9788
43.3316
42.1086
42.4393
41.5931
40.1028
40.3184
39.6506
38.4435
38.6124
38.0869
37.1331
37.2764
34.5789
35.1999
38.6709
42.641
43.1986
42.6797
41.6806
42.0003
41.216
39.8234
40.0321
39.3908
38.2227
38.3878
37.8751
36.9427
37.0854
33.7888
34.3774
37.7799
41.9297
42.4598
42.0572
41.2661
41.5758
40.8495
39.5516
39.7548
39.1383
38.0072
38.1683
37.6678
36.7545
36.8954
33.0391
33.5977
36.9394
41.2513
41.7572
41.4604
40.8635
41.1643
40.4925
39.2859
39.4846
38.8916
37.7968
37.9541
37.4651
36.5693
36.7079
32.3274
32.8578
36.1448
40.6021
41.0864
40.8865
40.4716
40.7645
40.1439
39.0255
39.2203
38.6499
37.591
37.7449
37.2669
36.3873
36.5235
31.6514
32.1552
35.3921
39.9793
40.4441
40.3334
40.0894
40.3752
39.803
38.7698
38.9612
38.4126
37.3893
37.5402
37.0726
36.2087
36.3424
31.009
31.4877
34.6779
39.3806
39.8275
39.799
39.716
39.9953
39.469
38.5182
38.7065
38.1791
37.1912
37.3394
36.882
36.0332
36.1645
30.3987
30.8535
33.9995
38.804
39.2344
39.2819
39.3505
39.6239
39.1412
38.2703
38.4559
37.949
36.9964
37.1422
36.6946
35.8608
35.9898
29.8188
30.2509
33.3546
38.248
38.6631
38.7809
38.9924
39.2603
38.8193
38.0258
38.2089
37.7219
36.8044
36.9481
36.5101
35.6912
35.8182
29.2681
29.6785
32.7412
37.7114
38.1121
38.295
38.6412
38.904
38.5027
37.7843
37.9651
37.4976
36.615
36.7568
36.3283
35.5242
35.6492
28.7454
29.1349
32.1577
37.1931
37.5801
37.8235
38.2965
38.5544
38.1912
37.5456
37.7244
37.2757
36.4279
36.568
36.1487
35.3597
35.4829
28.2496
28.619
31.6026
36.6924
37.0663
37.3658
37.9581
38.2113
37.8845
37.3096
37.4864
37.0563
36.243
36.3815
35.9714
35.1974
35.3189
27.7799
28.1298
31.0746
36.2086
36.5699
36.9215
37.6258
37.8744
37.5826
37.0761
37.251
36.839
36.0599
36.197
35.796
35.0371
35.1571
27.3354
27.6664
30.5728
35.7412
36.0902
36.4901
37.2995
37.5437
37.2854
36.845
37.0181
36.6239
35.8788
36.0145
35.6224
34.8789
34.9974
26.9205
27.2282
30.1036
35.3018
35.6269
36.0843
36.9927
37.219
37.0061
36.6288
36.7877
36.423
35.7105
35.8338
35.4616
34.7331
34.8398
40.3618
39.4648
39.5164
44.5598
44.1562
41.5715
51.9768
53.881
53.9815
44.0794
38.5909
40.2364
39.3155
40.4744
51.7581
51.5584
46.7278
51.7389
54.0489
53.9431
54.0082
54.0514
51.7691
45.1319
44.5351
53.5432
50.7457
51.4571
50.4965
53.7087
40.2501
40.0516
40.3641
40.6404
43.0749
42.0176
39.8683
40.1021
51.7226
51.0973
43.8515
53.9229
52.8729
53.0585
51.6655
52.6695
53.8466
40.3464
39.9776
39.5638
43.4734
44.409
49.4146
40.7198
39.1773
39.064
39.8687
41.3721
40.8134
43.0067
42.6657
39.7986
47.9867
45.3115
45.6988
44.9252
47.6429
39.5213
39.6682
41.6676
41.8247
42.6046
38.8944
39.011
52.6838
53.0843
49.2667
51.7156
52.9431
52.6023
53.8504
53.2347
51.9027
49.2902
46.859
47.2363
46.0888
46.4736
48.9718
41.2719
43.7611
43.3739
54.0771
53.4064
53.4491
53.2008
53.3164
54.0679
46.4363
51.3676
51.1213
44.8135
39.9744
40.147
41.4679
44.6604
43.6449
38.9894
38.9112
39.2902
39.1172
38.7488
43.416
40.921
41.2315
46.2254
42.0253
42.8611
40.754
41.3285
44.9131
39.7269
39.729
39.5686
41.1998
44.6006
43.5235
47.3087
45.8617
41.9148
39.413
41.1387
40.5645
42.6001
41.811
39.7233
42.7616
42.0163
40.1204
48.7596
48.6962
50.9519
45.7284
47.1104
47.1982
39.4802
39.4484
40.1845
42.0811
39.9231
40.2909
39.4264
39.6379
41.3651
40.2305
40.12
40.0165
42.9979
41.2955
41.5271
41.0668
42.7345
40.5761
41.1494
38.9917
39.393
39.1577
40.0878
39.7007
39.0166
37.7097
37.0603
36.6492
36.2999
35.9852
35.7105
42.6613
45.3692
44.9656
50.5026
48.8506
48.8137
44.7337
43.678
43.6121
41.2609
40.6413
40.5851
39.1559
38.756
38.718
37.8
37.115
37.091
36.6769
36.3035
36.3032
35.9645
35.6676
35.6901
49.1258
51.9502
51.8893
50.3171
48.7594
48.8264
44.8375
43.8144
43.7962
41.4148
40.7915
40.7643
39.2775
38.8656
38.8443
37.8452
37.1408
37.1318
36.6845
36.2876
36.2982
35.9304
35.6176
35.6441
49.3752
51.813
52.2543
49.6245
48.2855
48.4443
44.716
43.7473
43.7759
41.4365
40.8239
40.8254
39.3202
38.9067
38.9033
37.8441
37.1368
37.1421
36.6638
36.248
36.2709
35.8794
35.5558
35.5886
47.7625
50.0679
50.4935
48.6464
47.521
47.7219
44.3979
43.522
43.597
41.3594
40.7694
40.7922
39.2982
38.8879
38.8973
37.7953
37.0866
37.1175
36.6078
36.1848
36.2195
35.81
35.4795
35.5198
46.2235
48.4686
48.8526
47.6707
46.716
46.9149
43.9557
43.1611
43.2573
41.1628
40.6073
40.6561
39.1975
38.7973
38.8269
37.6915
36.9955
37.0455
36.5182
36.0946
36.1425
35.7188
35.388
35.4365
44.8015
47.03
47.376
46.76
45.9503
46.1368
43.489
42.7617
42.8625
40.9038
40.3801
40.4404
39.0341
38.6471
38.6885
37.5515
36.8744
36.9381
36.4037
35.9839
36.0415
35.6106
35.2813
35.3363
43.492
45.7265
46.0411
45.9128
45.2357
45.4099
43.0323
42.3616
42.4607
40.6225
40.1261
40.1908
38.8383
38.4647
38.5123
37.3897
36.7323
36.8054
36.2705
35.8571
35.9223
35.4885
35.1629
35.2234
42.2826
44.5338
44.8227
45.1198
44.5644
44.7286
42.5966
41.9746
42.0698
40.3371
39.8643
39.9298
38.6273
38.2661
38.3167
37.2151
36.5763
36.6557
36.1241
35.7181
35.7889
35.3553
35.0349
35.0999
41.1606
43.433
43.7004
44.374
43.9285
44.0844
42.1826
41.605
41.6958
40.0563
39.6037
39.6684
38.4109
38.0606
38.1123
37.0339
36.4117
36.4948
35.9687
35.5704
35.6452
35.214
34.8994
34.9679
40.1152
42.4098
42.659
43.6699
43.3236
43.4721
41.7861
41.2511
41.3383
39.7836
39.3487
39.4118
38.1943
37.8536
37.9053
36.8499
36.242
36.3273
35.8076
35.4167
35.4941
35.0669
34.7584
34.8295
39.1371
41.453
41.6865
43.0018
42.7462
42.8882
41.4032
40.9096
40.994
39.5197
39.1009
39.1622
37.9805
37.6482
37.6993
36.6657
36.0701
36.1562
35.6432
35.2593
35.3383
34.9159
34.6135
34.6864
38.2187
40.554
40.7737
42.365
42.193
42.3291
41.0315
40.5778
40.66
39.2637
38.8603
38.9198
37.7708
37.446
37.4961
36.4828
35.8977
35.9838
35.4776
35.1001
35.1799
34.7627
34.4662
34.5401
37.3537
39.7058
39.9134
41.7557
41.661
41.7921
40.6699
40.2543
40.3345
39.0143
38.6259
38.684
37.5659
37.2478
37.2969
36.3023
35.7261
35.8117
35.312
34.9402
35.0202
34.6084
34.3173
34.3919
36.5366
38.903
39.0997
41.1707
41.1479
41.2745
40.3172
39.938
40.0165
38.7702
38.3967
38.4536
37.3655
37.0537
37.1019
36.1246
35.5561
35.6408
35.1472
34.7805
34.8603
34.4539
34.1677
34.2426
35.7634
38.1412
38.328
40.6075
40.6517
40.7742
39.9725
39.6283
39.7052
38.5308
38.172
38.2278
37.1693
36.8637
36.9109
35.9498
35.3881
35.4718
34.9838
34.6217
34.701
34.2997
34.018
34.0929
35.0303
37.4165
37.5944
40.0639
40.1707
40.2895
39.6351
39.3245
39.4
38.2954
37.9513
38.0061
36.9769
36.6774
36.7236
35.778
35.2224
35.3049
34.8221
34.4642
34.5428
34.1463
33.8687
33.9434
34.3344
36.7262
36.8957
39.5384
39.7035
39.8191
39.3043
39.0261
39.1002
38.0636
37.734
37.788
36.7879
36.4944
36.5399
35.609
35.059
35.1404
34.6624
34.3081
34.3859
33.994
33.7199
33.7943
33.673
36.0675
36.2293
39.0294
39.2493
39.3617
38.9795
38.7324
38.8054
37.8351
37.5197
37.573
36.602
36.3145
36.3592
35.4426
34.898
34.9782
34.5047
34.1537
34.2306
33.8429
33.5721
33.646
33.0441
35.4385
35.593
38.5361
38.807
38.9165
38.6603
38.4432
38.5151
37.6094
37.3082
37.3608
36.4189
36.1374
36.1815
35.2789
34.7394
34.8184
34.3491
34.001
34.0771
33.6932
33.4253
33.4986
32.4458
34.8374
34.9851
38.0575
38.3761
38.4828
38.3463
38.1582
38.2291
37.3863
37.0992
37.1512
36.2382
35.9629
36.0063
35.1175
34.5831
34.661
34.1957
33.8502
33.9254
33.5451
33.2797
33.3524
31.8767
34.2627
34.404
37.593
37.9561
38.0601
38.0373
37.8771
37.947
37.1657
36.8925
36.9439
36.0598
35.7906
35.8334
34.9583
34.429
34.5057
34.0443
33.7013
33.7755
33.3985
33.1354
33.2075
31.3353
33.7134
33.8484
37.142
37.5466
37.648
37.733
37.5997
37.6687
36.9474
36.6878
36.7388
35.8834
35.6204
35.6627
34.8013
34.277
34.3527
33.8949
33.5542
33.6275
33.2536
32.9925
33.0639
30.8205
33.1882
33.3173
36.7042
37.1472
37.2461
37.4334
37.3261
37.3942
36.7312
36.4852
36.5356
35.709
35.4521
35.494
34.6463
34.1272
34.2018
33.7477
33.4091
33.4814
33.1104
32.8511
32.9216
30.3315
32.6866
32.8098
36.2794
36.7582
36.8544
37.1388
37.0564
37.1233
36.5176
36.2848
36.3345
35.5368
35.2862
35.3272
34.5039
33.9886
34.0539
33.6121
33.2754
33.3383
32.9786
32.7221
32.7826
51.9704
52.8968
52.888
44.4041
41.4662
41.8682
39.5974
39.7102
40.868
52.8643
52.8386
51.8467
52.9384
53.6022
47.6428
47.2999
44.6463
41.2789
41.0523
39.8839
39.1618
39.3904
40.3086
41.7307
41.5278
45.7749
48.4401
48.0762
38.8496
38.9838
43.5327
43.4399
44.4996
41.7397
42.5289
42.6179
40.5212
40.4491
41.0528
39.4389
39.9148
39.9803
38.6756
38.6288
39.0126
37.9675
38.2819
38.323
46.1685
45.7693
43.0548
50.5253
48.325
48.6871
47.6057
47.9649
50.175
48.8717
48.8704
50.5051
45.9855
47.3472
47.3555
47.2671
47.3167
45.9446
43.7704
43.7307
44.7826
42.0149
42.8135
42.8569
42.6951
42.7604
41.9614
40.7302
40.6897
41.3122
39.6401
40.1358
40.1745
40.0386
40.0905
39.5984
38.8193
38.7898
39.1937
38.0897
38.4235
38.4498
38.3602
38.3937
38.0642
51.8905
51.9467
49.2355
53.4688
53.4372
53.9265
48.5711
48.6738
50.1929
45.9682
47.2552
47.1849
47.3543
47.3125
46.0022
43.7974
43.8106
44.8216
42.1312
42.9183
42.9146
42.89
42.913
42.12
40.8218
40.8121
41.4347
39.752
40.2545
40.2656
40.207
40.2336
39.7318
38.8962
38.8829
39.2954
38.1605
38.5065
38.5185
38.4722
38.4911
38.1477
42.6632
42.8298
50.9281
51.3691
48.9732
50.5962
51.4658
51.0825
52.2334
51.8513
50.9025
47.9188
48.1082
49.3891
45.7099
46.8652
46.7215
47.1014
46.9949
45.7994
43.6618
43.7113
44.6596
42.1037
42.8616
42.8301
42.9034
42.8855
42.1195
40.8071
40.8176
41.4262
39.7716
40.2687
40.2614
40.2712
40.2721
39.7731
38.9035
38.9067
39.3197
38.1761
38.5273
38.5242
38.5247
38.5275
38.1773
41.7153
41.977
49.2471
49.6522
47.3674
49.3668
49.9684
49.612
50.7042
50.3327
49.6695
47.116
47.3184
48.3978
45.2293
46.2444
46.0788
46.5679
46.4081
45.3606
43.3504
43.4392
44.2932
41.9589
42.6628
42.5912
42.7842
42.7278
42.0098
40.7001
40.7382
41.3197
39.7249
40.2087
40.1772
40.2501
40.2335
39.745
38.8523
38.8729
39.2812
38.143
38.4951
38.4759
38.5182
38.5093
38.157
40.6171
40.8947
47.7307
48.0948
45.857
48.2111
48.5907
48.2659
49.2636
48.9232
48.4914
46.3266
46.5198
47.4365
44.6815
45.5826
45.4198
45.9127
45.7471
44.8196
42.963
43.0627
43.8393
41.6987
42.3505
42.265
42.5145
42.4339
41.7698
40.4988
40.5546
41.1018
39.589
40.052
40.0027
40.14
40.098
39.6296
38.7276
38.764
39.1611
38.0472
38.3939
38.3601
38.4523
38.4248
38.0762
39.5192
39.7904
46.363
46.6925
44.4641
47.1442
47.3358
47.0397
47.9486
47.6387
47.403
45.587
45.767
46.5427
44.1377
44.9445
44.7909
45.2591
45.1006
44.2716
42.5605
42.6609
43.3733
41.3945
42.0021
41.9136
42.1781
42.0903
41.4724
40.2549
40.3181
40.8346
39.3984
39.8407
39.7834
39.9508
39.8966
39.4493
38.5587
38.6038
38.9873
37.907
38.2446
38.2024
38.3237
38.2851
37.9451
38.4651
38.7236
45.1176
45.4187
43.1808
46.1576
46.1893
45.9175
46.7501
46.4667
46.3973
44.8952
45.0642
45.7097
43.6196
44.3448
44.2007
44.6399
44.4912
43.7463
42.166
42.2633
42.9213
41.0795
41.6495
41.5625
41.8252
41.7372
41.1584
39.9954
40.0609
40.551
39.182
39.6057
39.5453
39.7249
39.6656
39.2375
38.3667
38.4161
38.7865
37.7406
38.0683
38.0216
38.1588
38.1141
37.7839
37.4657
37.7103
43.9729
44.2506
41.9943
45.2417
45.1339
44.8826
45.6512
45.3901
45.4646
44.2423
44.4023
44.9291
43.1304
43.7799
43.6431
44.0585
43.9183
43.2502
41.7876
41.8806
42.4912
40.7679
41.3056
41.2216
41.4761
41.3904
40.8451
39.7335
39.7988
40.2663
38.9551
39.3626
39.3017
39.4845
39.4236
39.0123
38.1638
38.2151
38.5735
37.5598
37.8778
37.829
37.9742
37.9263
37.6059
36.5211
36.7523
42.9125
43.1704
40.8925
44.3865
44.155
43.9207
44.6357
44.3932
44.5951
43.6224
43.7745
44.1944
42.6649
43.2421
43.1114
43.508
43.3743
42.7794
41.4263
41.5152
42.082
40.4654
40.9749
40.8944
41.1385
41.0563
40.54
39.4753
39.5393
39.9873
38.7262
39.1197
39.0595
39.2408
39.1801
38.7833
37.9571
38.0089
38.3566
37.3717
37.6811
37.6315
37.7799
37.7306
37.4191
35.6282
35.8468
41.9237
42.1648
39.8647
43.5832
43.2404
43.0207
43.6903
43.4636
43.7795
43.0317
43.1768
43.4997
42.2179
42.7271
42.6016
42.982
42.8539
42.3281
41.079
41.1647
41.6892
40.174
40.6575
40.5799
40.8147
40.7357
40.2458
39.2239
39.2861
39.7168
38.4995
38.8808
38.822
38.9996
38.94
38.5558
37.7506
37.802
38.1405
37.1809
37.4826
37.433
37.5818
37.5322
37.2287
34.7831
34.9901
40.9967
41.2231
38.9022
42.8244
42.381
42.1739
42.8043
42.5911
43.0103
42.4667
42.6057
42.8398
41.7863
42.2321
42.1113
42.4773
42.3541
41.8929
40.7426
40.8258
41.3093
39.8924
40.3508
40.2755
40.503
40.4266
39.962
38.9798
39.0401
39.455
38.2774
38.6479
38.5906
38.7636
38.7055
38.3325
37.5466
37.5972
37.9276
36.9902
37.2851
37.2361
37.3836
37.3343
37.0377
33.9824
34.1786
40.1239
40.3374
37.9977
42.1043
41.5694
41.3733
41.9696
41.7682
42.281
41.9245
42.0581
42.2102
41.3685
41.7551
41.6384
41.9915
41.8728
41.4718
40.4151
40.4962
40.9402
39.6189
40.0525
39.9791
40.2007
40.1264
39.6866
38.7424
38.8012
39.2008
38.0606
38.4211
38.3653
38.5337
38.4772
38.1143
37.3463
37.396
37.7191
36.8013
37.0903
37.0422
37.1873
37.1387
36.8483
33.2229
33.4091
39.299
39.5011
37.1451
41.418
40.7998
40.6134
41.1796
40.9885
41.5866
41.4022
41.531
41.6073
40.9631
41.294
41.181
41.5227
41.4079
41.0634
40.0953
40.1746
40.5809
39.3518
39.7613
39.6894
39.9061
39.8335
39.418
38.5107
38.5681
38.9528
37.8489
38.1999
38.1454
38.3098
38.2547
37.9014
37.1502
37.1989
37.5154
36.6153
36.899
36.8518
36.9942
36.9465
36.6615
32.5019
32.6787
38.5172
38.7089
36.3394
40.7618
40.0676
39.8899
40.4292
40.2473
40.9232
40.8978
41.0223
41.028
40.5686
40.847
40.7373
41.0688
40.9575
40.6663
39.7824
39.86
40.2303
39.0902
39.4761
39.4056
39.618
39.5468
39.1551
38.2838
38.3401
38.7099
37.642
37.9836
37.9303
38.0912
38.0373
37.6933
36.9582
37.0059
37.316
36.4325
36.7114
36.6651
36.8048
36.758
36.4779
31.8172
31.9851
37.7744
37.9567
35.5765
40.1327
39.369
39.1992
39.7143
39.5406
40.2876
40.4093
40.53
40.4699
40.1841
40.4128
40.3061
40.6284
40.5203
40.2794
39.4757
39.5519
39.8875
38.8333
39.1962
39.1271
39.3355
39.2657
38.8971
38.0612
38.1165
38.4716
37.4394
37.7717
37.7193
37.8772
37.8243
37.4897
36.7701
36.8168
37.1208
36.253
36.5275
36.4821
36.619
36.5732
36.2976
31.1665
31.3261
37.0672
37.2408
34.853
39.5281
38.7011
38.5386
39.0314
38.8653
39.6771
39.9354
40.0526
39.9309
39.8086
39.9901
39.8861
40.2001
40.0948
39.9017
39.1747
39.2494
39.5518
38.5807
38.9212
38.8532
39.0582
38.9896
38.6435
37.8422
37.8966
38.2371
37.2404
37.5635
37.5119
37.6671
37.6152
37.2898
36.5855
36.6313
36.9293
36.0768
36.3471
36.3025
36.4369
36.3919
36.1206
30.5484
30.7
36.393
36.5586
34.1659
38.9461
38.0614
37.9056
38.3778
38.2188
39.0896
39.4749
39.5888
39.4096
39.4412
39.5779
39.4764
39.7827
39.68
39.5323
38.8787
38.9522
39.2226
38.332
38.6506
38.5836
38.7854
38.7179
38.3938
37.6265
37.6801
38.0062
37.0448
37.3585
37.3078
37.4606
37.4095
37.0934
36.4041
36.4492
36.7412
35.9036
36.1698
36.126
36.258
36.2138
35.9467
29.961
30.105
35.7494
35.9075
33.5128
38.3851
37.4478
37.2983
37.7514
37.5988
38.5235
39.0267
39.1376
38.9047
39.0813
39.1754
39.0762
39.3754
39.2751
39.1706
38.5873
38.6597
38.8992
38.0866
38.3839
38.3178
38.5168
38.4502
38.1477
37.4136
37.4666
37.7784
36.8521
37.1566
37.1065
37.2572
37.2068
36.9
36.2257
36.27
36.556
35.7334
35.9955
35.9524
36.0823
36.0388
35.7757
29.4032
29.5399
35.1345
35.2856
32.8917
37.8438
36.8588
36.7152
37.1503
37.0038
37.9773
38.5902
38.6983
38.4151
38.7284
38.7819
38.6849
38.9775
38.8794
38.816
38.3002
38.3716
38.5813
37.8444
38.1208
38.0556
38.2519
38.1863
37.9047
37.2034
37.2557
37.5534
36.6621
36.9572
36.9078
37.0566
37.0068
36.7094
36.0499
36.0936
36.3735
35.5657
35.824
35.7815
35.9094
35.8666
35.6074
28.8735
29.0033
34.5468
34.6913
32.3009
37.321
36.2928
36.1549
36.573
36.4322
37.45
38.1648
38.2701
37.9401
38.3821
38.3971
38.3022
38.5884
38.4925
38.468
38.0172
38.0875
38.2686
37.605
37.8611
37.7966
37.9905
37.9257
37.6646
36.9956
37.0473
37.331
36.4745
36.7603
36.7114
36.8585
36.8093
36.5212
35.8764
35.9196
36.1934
35.4006
35.6549
35.613
35.7391
35.6969
35.4416
28.3711
28.4942
33.985
34.1231
31.7387
36.8159
35.749
35.6163
36.0182
35.8829
36.9406
37.7501
37.8528
37.479
38.0421
38.0205
37.9276
38.2078
38.1139
38.1265
37.738
37.8074
37.9607
37.3684
37.6045
37.5408
37.7324
37.6684
37.4273
36.7899
36.8411
37.1109
36.289
36.5655
36.5171
36.6626
36.614
36.3352
35.7052
35.7478
36.0155
35.2377
35.488
35.4467
35.5712
35.5295
35.2782
27.8949
28.0116
33.4478
33.5798
31.2041
36.328
35.2262
35.0986
35.485
35.3549
36.4484
37.3456
37.4458
37.0313
37.7083
37.6519
37.561
37.8352
37.7433
37.7912
37.4625
37.531
37.6577
37.1342
37.351
37.288
37.4774
37.4141
37.1925
36.5862
36.637
36.8931
36.1055
36.3726
36.3247
36.4688
36.4207
36.1512
35.536
35.5781
35.8396
35.077
35.3233
35.2825
35.4054
35.3643
35.117
27.4442
27.5545
32.9345
33.0606
30.6959
35.8565
34.7237
34.6012
34.9724
34.8474
35.9728
36.9514
37.049
36.5967
37.3805
37.2912
37.2022
37.4706
37.3806
37.4619
37.1906
37.2583
37.3593
36.9026
37.1004
37.0382
37.2253
37.1627
36.9602
36.3846
36.4348
36.6775
35.9239
36.1817
36.1343
36.2769
36.2293
35.9691
35.3687
35.4104
35.6656
34.9183
35.1606
35.1202
35.2417
35.2011
34.9578
27.0186
27.1225
32.4534
32.5653
30.2136
35.4024
34.2419
34.1342
34.4799
34.3599
35.5136
36.5803
36.6639
36.1764
37.0607
36.94
36.8646
37.1137
37.0259
37.1389
36.9355
36.9913
37.0676
36.6756
36.8549
36.804
36.9762
36.9147
36.7308
36.1965
36.2368
36.4662
35.7463
35.9948
35.9571
36.087
36.0401
35.7893
35.2139
35.2466
35.4957
34.7637
35.0019
34.9703
35.08
35.0402
34.801
52.9007
52.9003
51.9762
53.92
53.6183
53.6128
53.6248
53.6224
53.9512
41.5146
41.5736
44.4326
39.2122
39.4355
39.6145
39.4062
39.8254
39.2011
39.2834
39.371
39.2886
39.5265
47.0308
49.3714
49.2117
54.0348
53.4998
53.5422
53.3174
53.4075
53.9965
54.0295
53.6107
53.6201
53.573
53.5947
54.0444
40.2749
40.3652
45.212
40.0333
39.8196
50.9935
52.4736
52.2979
52.7757
52.6336
51.2284
49.9814
51.7516
52.0984
51.9296
50.2441
53.6566
53.0395
53.1394
51.5486
49.6493
49.92
49.0279
49.3547
51.3332
44.2554
46.9382
46.5536
51.8645
53.0253
52.9095
39.0953
39.5757
39.4786
39.8144
39.7019
39.0582
39.8119
40.7846
40.529
38.9774
38.8533
39.0427
39.6913
40.0957
49.0045
48.7508
46.1195
38.6855
38.7508
37.7604
37.4736
37.4551
37.8283
37.5269
37.5176
37.8506
37.5432
37.5442
37.8277
37.5177
37.5293
37.749
37.4406
37.4648
37.625
37.323
37.3557
37.4727
37.1789
37.2171
37.3035
37.0182
37.0598
37.1251
36.8476
36.8911
36.9421
36.6717
36.7162
36.7577
36.4936
36.5383
36.574
36.3153
36.3599
36.3923
36.1383
36.1824
36.2131
35.9632
36.0069
36.0368
35.7906
35.8336
35.8635
35.6206
35.6629
35.6931
35.4532
35.4949
35.5255
35.2884
35.3294
35.3604
35.126
35.1664
35.1979
34.9661
35.0059
35.0376
34.8084
34.8476
34.8796
34.6528
34.6916
34.7236
34.4994
34.5376
34.57
34.3486
34.3858
45.3231
40.4503
40.5137
42.2436
42.5947
45.7077
49.9101
49.8956
50.9487
53.7623
53.344
53.1979
52.7255
52.6814
51.7122
51.8073
52.8048
52.7701
40.7661
40.4418
49.2018
51.6424
51.7766
53.7335
53.1181
53.2345
50.9538
49.8827
49.8748
37.4332
37.4101
37.6799
37.5049
37.4909
37.7813
37.5404
37.5351
37.8381
37.5357
37.5408
37.8485
37.4853
37.5037
37.813
37.3859
37.4148
37.7212
37.2536
37.2894
37.5888
37.1002
37.1402
37.4315
36.9338
36.9765
37.2595
36.7601
36.8042
37.0796
36.5828
36.6274
36.896
36.4044
36.4491
36.7116
36.2266
36.271
36.5283
36.0505
36.0944
36.3472
35.8766
35.9199
36.1687
35.7053
35.7479
35.9932
35.5366
35.5786
35.8207
35.3705
35.4118
35.6509
35.2069
35.2476
35.484
35.0458
35.0859
35.3196
34.8869
34.9265
35.1576
34.7303
34.7693
34.9979
34.5758
34.6143
34.8404
34.4234
34.4614
34.6849
34.2846
34.3132
34.5337
85.8785
112.666
52.4025
86.3381
110.613
49.7959
86.0242
112.306
51.9836
86.1556
111.044
50.2998
86.1993
110.337
49.2585
85.9045
111.424
51.0497
86.0964
111.82
51.5236
86.983
86.8423
86.8165
109.257
85.7119
114.16
53.2505
85.4811
113.614
52.975
86.6901
110.096
47.374
86.4678
109.668
46.9303
86.6861
110.215
47.8479
86.5469
110.227
48.3814
)
;

boundaryField
{
    topAndBottom
    {
        type            slip;
    }
    inlet
    {
        type            fixedValue;
        value           nonuniform List<scalar> 0();
    }
    outlet
    {
        type            inletOutlet;
        inletValue      uniform 37;
        value           nonuniform List<scalar> 
32
(
32.431
32.137
31.9612
31.881
26.9205
30.1036
35.3018
36.0843
36.9927
37.0061
36.6288
36.423
35.7105
35.4616
34.7331
34.5039
33.9886
33.6121
33.2754
32.9786
32.7221
32.4534
34.1342
36.5803
36.8646
36.9355
36.804
36.1965
35.9571
35.2139
34.9703
34.2846
)
;
    }
    wing
    {
        type            kqRWallFunction;
        value           nonuniform List<scalar> 
13
(
52.4025
49.7959
51.9836
50.2998
49.2585
51.0497
51.5236
53.2505
52.975
47.374
46.9303
47.8479
48.3814
)
;
    }
    front
    {
        type            empty;
    }
    back
    {
        type            empty;
    }
    procBoundary3to1
    {
        type            processor;
        value           nonuniform List<scalar> 
136
(
48.1366
48.1366
39.4464
46.8114
40.6838
40.2123
39.7227
39.2602
87.2405
56.5641
87.18
40.4388
57.0877
43.5185
87.3796
56.9898
33.9411
36.289
32.4409
33.4572
31.5849
32.1919
30.9408
31.4122
30.3672
30.7936
29.8168
30.2283
29.2756
29.6809
28.7412
29.1414
28.2152
28.6088
27.6998
28.0852
27.1973
27.5729
26.7096
27.074
26.2379
26.5901
25.7832
26.1226
25.3462
25.6723
24.9273
25.2398
24.5268
24.8254
24.1448
24.4295
23.7817
24.0523
23.4374
23.6938
23.112
23.3542
22.8084
23.0337
40.0568
38.9384
38.7685
38.7107
38.7269
38.7269
45.5852
42.6531
39.752
40.2211
39.2229
39.2229
40.0307
44.4929
41.2397
39.8154
34.5422
35.304
32.7262
33.0597
31.7697
31.9703
31.0921
31.2486
30.5074
30.6494
29.9533
30.0904
29.4103
29.5453
28.8741
29.0075
28.3457
28.477
27.8275
27.956
27.3216
27.4468
26.8301
26.9515
26.3543
26.4717
25.8952
26.0084
25.4538
25.5625
25.0303
25.1344
24.6252
24.7247
24.2386
24.3335
23.8707
23.9609
23.5217
23.6072
23.1916
23.2723
22.8807
22.9565
38.9384
38.849
39.3119
38.8961
38.6728
41.8928
39.4824
38.4985
38.1526
38.6851
87.18
109.105
109.105
108.907
46.1414
46.1414
)
;
    }
    procBoundary3to2
    {
        type            processor;
        value           nonuniform List<scalar> 
51
(
36.6288
35.9916
35.4064
35.4064
35.1735
35.0614
35.0162
42.8829
53.5459
53.5459
40.5694
47.2973
53.8413
51.9752
46.901
42.5011
51.2941
50.9508
48.6132
49.716
40.0309
44.5354
44.5354
45.6211
47.0048
53.608
40.8527
44.3915
43.3328
40.965
40.369
38.9548
38.5777
37.023
36.2938
35.7306
52.8274
52.8985
41.6445
42.427
39.3739
39.8425
37.9291
38.2373
51.5695
37.6479
37.3837
49.8597
85.7283
114.408
53.5866
)
;
    }
}


// ************************************************************************* //
