/*--------------------------------*- C++ -*----------------------------------*\
| =========                 |                                                 |
| \\      /  F ield         | OpenFOAM: The Open Source CFD Toolbox           |
|  \\    /   O peration     | Version:  v2012                                 |
|   \\  /    A nd           | Website:  www.openfoam.com                      |
|    \\/     M anipulation  |                                                 |
\*---------------------------------------------------------------------------*/
FoamFile
{
    version     2.0;
    format      ascii;
    class       volScalarField;
    location    "0";
    object      nut;
}
// * * * * * * * * * * * * * * * * * * * * * * * * * * * * * * * * * * * * * //

dimensions      [0 2 -1 0 0 0 0];


internalField   nonuniform List<scalar> 
3019
(
0.0423427
0.212279
0.296462
0.39702
0.526108
0.696713
0.978677
1.16122
1.15308
1.14944
1.14792
1.14767
0.0976994
0.314624
0.411414
0.513552
0.638162
0.802489
1.06652
1.1623
1.15362
1.14964
1.14795
1.14764
0.147375
0.504019
0.626327
0.698762
0.801714
0.950833
1.16716
1.16317
1.15412
1.14988
1.14806
1.14771
0.16417
0.521054
0.81403
0.980044
1.03038
1.15531
1.16803
1.16379
1.15453
1.15012
1.1482
1.14782
0.177807
0.532744
0.822755
1.0164
1.11503
1.15657
1.16842
1.16413
1.15482
1.15031
1.14833
1.14795
0.189161
0.539407
0.82861
1.01879
1.11599
1.15701
1.16841
1.16419
1.15496
1.15043
1.14842
1.14804
0.198758
0.541965
0.832419
1.01993
1.11611
1.15687
1.16809
1.16404
1.15498
1.15047
1.14846
1.14808
0.206974
0.542845
0.834206
1.0202
1.11568
1.15632
1.16753
1.16371
1.15489
1.15045
1.14845
1.14806
0.214088
0.543228
0.833561
1.01975
1.11485
1.1555
1.1668
1.16325
1.15473
1.15036
1.14838
1.14799
0.220309
0.543324
0.830865
1.0185
1.11371
1.15448
1.16597
1.16271
1.15451
1.15022
1.14825
1.14786
0.2258
0.543158
0.827092
1.01631
1.11228
1.15331
1.16507
1.16213
1.15425
1.15004
1.14809
1.14768
0.23069
0.542757
0.822919
1.01322
1.1105
1.15201
1.16412
1.16151
1.15396
1.14984
1.14789
1.14746
0.235082
0.54216
0.818635
1.00947
1.10839
1.15058
1.16315
1.16088
1.15365
1.1496
1.14766
1.14721
0.239062
0.541411
0.814346
1.00531
1.10597
1.14904
1.16215
1.16025
1.15333
1.14935
1.14741
1.14693
0.242701
0.540551
0.810093
1.00092
1.1033
1.1474
1.16115
1.15962
1.153
1.14909
1.14715
1.14664
0.246059
0.539621
0.805901
0.996404
1.10044
1.14567
1.16013
1.15898
1.15266
1.14882
1.14687
1.14633
0.249185
0.538654
0.801789
0.991846
1.09742
1.14388
1.15911
1.15836
1.15232
1.14854
1.14658
1.14601
0.252126
0.537682
0.797774
0.987294
1.0943
1.14202
1.15808
1.15773
1.15198
1.14826
1.14628
1.14568
0.254917
0.536732
0.793871
0.98278
1.09111
1.14013
1.15704
1.15711
1.15164
1.14797
1.14598
1.14535
0.257595
0.535827
0.790095
0.978331
1.08787
1.13819
1.15601
1.15649
1.1513
1.14768
1.14568
1.14501
0.26019
0.534991
0.78646
0.973966
1.08461
1.13623
1.15496
1.15588
1.15096
1.1474
1.14539
1.14468
0.262728
0.534242
0.78298
0.969703
1.08135
1.13424
1.15392
1.15527
1.15063
1.14711
1.14509
1.14435
0.265238
0.533598
0.779668
0.965557
1.0781
1.13224
1.15287
1.15467
1.1503
1.14685
1.14481
1.14405
0.267743
0.533078
0.776537
0.961543
1.07488
1.13023
1.15184
1.15409
1.15003
1.14662
1.14457
1.14378
0.0325433
0.0397953
0.189663
0.0645453
0.0339943
0.0929189
0.254172
0.192312
0.0859305
0.0680351
0.143386
0.0490702
0.0467559
0.0613984
0.158089
0.146204
0.0225422
0.0377927
0.0215112
0.0265741
0.077594
0.039986
0.142398
0.415618
0.286648
0.0929612
0.0813256
0.0279742
0.198919
0.16465
0.0642538
0.0717673
0.00745573
0.0181881
0.0254627
0.0559039
0.0146545
0.0159856
0.0267644
0.0144558
0.0113181
0.0160615
0.0147665
0.0115477
0.01839
0.0165781
0.0214408
0.0190893
0.0137981
0.00739392
0.0189086
0.0111729
0.0142401
0.19304
0.255525
0.0283053
0.0164564
0.0182356
0.0150127
0.016936
0.0217141
0.0427224
0.0110155
0.00731357
0.00724957
0.0139715
0.0117526
0.026028
0.0226695
0.0120855
0.014302
0.0128829
0.0141266
0.00726635
0.0108013
0.0121035
0.0155787
0.014079
0.0144708
0.0116074
0.0122365
0.0151395
0.0147073
0.0143392
0.0108923
0.0141
0.0154647
0.0150877
0.0119817
0.0149775
0.0146463
0.0158606
0.0153796
0.0126245
0.27719
0.348432
0.375522
0.468901
0.504489
0.626118
0.0503234
0.110853
0.0969328
0.278766
0.352327
0.27411
0.376107
0.451742
0.369587
0.479134
0.571506
0.49066
0.605923
0.721531
0.647831
0.110093
0.244764
0.216154
0.49008
0.54368
0.388767
0.561102
0.621224
0.486888
0.644619
0.724776
0.604352
0.755542
0.858138
0.752931
0.0818482
0.0702794
0.160326
0.434193
0.420977
0.517366
0.744131
0.612755
0.811234
0.887687
0.677736
0.896988
0.944719
0.772726
0.966428
1.04793
0.902111
0.0953538
0.0854086
0.174636
0.446274
0.437796
0.530274
0.755279
0.747334
0.82089
0.977192
0.973107
1.01553
1.09666
1.01193
1.11461
1.14942
1.10724
0.107152
0.0984482
0.186506
0.452717
0.448337
0.538213
0.762933
0.757466
0.827358
0.980653
0.978239
1.01833
1.09817
1.09716
1.11584
1.15016
1.14969
0.11756
0.109874
0.1965
0.456252
0.453753
0.541567
0.768026
0.764434
0.831641
0.982572
0.981254
1.01974
1.09864
1.09837
1.11614
1.1502
1.15023
0.126804
0.119973
0.205032
0.458913
0.456968
0.542691
0.770386
0.768898
0.833977
0.98342
0.982872
1.0202
1.09843
1.09864
1.11583
1.14977
1.15013
0.13506
0.128954
0.2124
0.461091
0.459501
0.543161
0.769787
0.770494
0.833948
0.983371
0.983493
1.01993
1.09774
1.0983
1.11509
1.149
1.1496
0.142474
0.136987
0.218828
0.462815
0.461563
0.543325
0.767229
0.769277
0.831677
0.982274
0.983206
1.0189
1.09668
1.09751
1.11403
1.14801
1.14877
0.149167
0.14421
0.224488
0.464127
0.46318
0.543223
0.76388
0.766435
0.828091
0.979953
0.981809
1.01695
1.09524
1.09636
1.11267
1.14684
1.14773
0.155242
0.15074
0.229517
0.465085
0.464397
0.542877
0.760294
0.762995
0.82398
0.976563
0.979192
1.01407
1.09336
1.09481
1.11098
1.1455
1.14652
0.160786
0.156675
0.234025
0.465755
0.465277
0.542325
0.756648
0.759385
0.819709
0.972468
0.975591
1.01046
1.09105
1.09282
1.10895
1.144
1.14514
0.165874
0.162098
0.238101
0.466195
0.465884
0.54161
0.752997
0.755735
0.815416
0.967987
0.971375
1.00638
1.08834
1.0904
1.1066
1.14235
1.1436
0.170572
0.167083
0.24182
0.46646
0.466276
0.540774
0.749365
0.752086
0.811151
0.96332
0.966832
1.00203
1.08534
1.08762
1.10399
1.14056
1.14191
0.174936
0.171692
0.245243
0.466598
0.466505
0.539858
0.745773
0.748463
0.806942
0.958582
0.962139
0.997539
1.0821
1.08455
1.10117
1.13865
1.14009
0.179017
0.175981
0.248423
0.466648
0.466617
0.538897
0.742239
0.744883
0.802809
0.953842
0.957395
0.992987
1.07871
1.08127
1.09819
1.13664
1.13815
0.182858
0.179998
0.251406
0.466647
0.466651
0.537924
0.738782
0.741367
0.798768
0.94914
0.952661
0.98843
1.0752
1.07784
1.09509
1.13455
1.13613
0.1865
0.183785
0.254232
0.466625
0.466642
0.536966
0.735421
0.737932
0.794835
0.944507
0.947974
0.983904
1.07163
1.07432
1.09192
1.1324
1.13402
0.189978
0.187383
0.256935
0.466609
0.466619
0.536048
0.732172
0.734598
0.791026
0.939964
0.943362
0.979436
1.06803
1.07073
1.08869
1.1302
1.13186
0.193326
0.190826
0.259547
0.466624
0.466609
0.535193
0.729052
0.731379
0.787355
0.935528
0.938844
0.975049
1.06441
1.06712
1.08543
1.12796
1.12965
0.196573
0.194146
0.262097
0.466691
0.466635
0.53442
0.726075
0.728293
0.783835
0.931216
0.934438
0.970759
1.06081
1.06351
1.08216
1.1257
1.1274
0.19975
0.197373
0.264612
0.466831
0.466719
0.533748
0.723256
0.725355
0.780479
0.92704
0.930158
0.966582
1.05723
1.05991
1.07891
1.12341
1.12513
0.202882
0.200536
0.267116
0.467062
0.466879
0.533195
0.720608
0.722577
0.777301
0.923015
0.926019
0.962533
1.05371
1.05635
1.07568
1.12112
1.12284
0.205971
0.203661
0.26961
0.467416
0.467136
0.532814
0.718268
0.719975
0.774465
0.919371
0.922034
0.958856
1.05048
1.05284
1.07271
1.11901
1.12055
0.0312092
0.0249437
0.0261635
0.054192
0.0512249
0.0373487
0.172781
0.148488
0.155887
0.0581906
0.0266402
0.0189488
0.021536
0.0336138
0.13251
0.127096
0.0752007
0.222748
0.182614
0.220527
0.159401
0.175282
0.215015
0.0751247
0.0645929
0.140496
0.10411
0.117161
0.0998815
0.139604
0.0198907
0.0243337
0.0372414
0.0391155
0.051355
0.0444968
0.0335539
0.035377
0.121358
0.11545
0.053057
0.152791
0.135344
0.138706
0.121497
0.131997
0.149028
0.0188577
0.0196534
0.02365
0.016277
0.0158503
0.0143813
0.03566
0.0225382
0.025725
0.0205569
0.017461
0.018124
0.0428713
0.0403061
0.022791
0.073956
0.0551588
0.0583296
0.0520683
0.0703722
0.029976
0.0317267
0.0422264
0.0172931
0.0167614
0.0269059
0.0271423
0.231558
0.225355
0.113843
0.39881
0.319029
0.325306
0.244871
0.307679
0.337079
0.0890245
0.068383
0.0718744
0.0616044
0.064942
0.0851113
0.0350254
0.0483545
0.0455633
0.184198
0.160882
0.173127
0.14417
0.151348
0.172859
0.0725458
0.122863
0.118194
0.0682674
0.0400719
0.0426049
0.0175285
0.0154137
0.0158763
0.0298564
0.0283517
0.032921
0.0313547
0.0243498
0.0536213
0.0409735
0.0429219
0.015078
0.0169585
0.0163924
0.0182307
0.0175739
0.0155278
0.0252824
0.0205717
0.021563
0.0177376
0.0157608
0.0162343
0.0148736
0.0153067
0.0171359
0.0206127
0.0178029
0.018399
0.0167344
0.0172523
0.0198231
0.0163668
0.0168811
0.0196922
0.219021
0.205338
0.182131
0.239444
0.221703
0.235507
0.0226327
0.0237565
0.0297095
0.016982
0.0197094
0.018937
0.0214698
0.0205585
0.0175787
0.0268656
0.0255655
0.0207662
0.0411471
0.0323539
0.0339384
0.0307616
0.039319
0.0185052
0.0178776
0.0249779
0.0207035
0.0215635
0.019098
0.019863
0.0238062
0.667833
0.809417
0.947347
1.09585
1.16063
1.15714
0.0449507
0.0603334
0.0572351
0.229931
0.251876
0.233422
0.318938
0.342414
0.31921
0.421232
0.450478
0.42624
0.550065
0.587707
0.564062
0.759934
0.890336
0.845911
1.01804
1.15416
1.12183
1.1618
1.1581
1.15764
0.102094
0.142616
0.13771
0.360396
0.383596
0.33828
0.454205
0.477423
0.435506
0.55219
0.580412
0.542154
0.673576
0.708776
0.674284
0.892521
1.00688
0.943705
1.12561
1.16588
1.16536
1.16278
1.15895
1.15855
0.151975
0.241855
0.237017
0.508898
0.587583
0.582647
0.701468
0.711393
0.641914
0.75874
0.778808
0.721576
0.852364
0.881511
0.833013
1.07512
1.16516
1.08274
1.16766
1.1667
1.16633
1.16352
1.15962
1.15932
0.167828
0.256858
0.253604
0.524425
0.603207
0.599824
0.816552
0.876371
0.874219
1.01338
1.04598
0.985798
1.10149
1.12031
1.05167
1.15635
1.16611
1.16572
1.16828
1.16718
1.16698
1.16401
1.16009
1.15989
0.180836
0.268082
0.265485
0.534895
0.614082
0.611732
0.824444
0.882975
0.881582
1.01714
1.04911
1.0485
1.11537
1.12967
1.12939
1.15697
1.16646
1.16635
1.16846
1.16732
1.16729
1.1642
1.16034
1.16026
0.191708
0.277331
0.275178
0.540334
0.620902
0.619609
0.829737
0.887234
0.886342
1.01918
1.05069
1.0504
1.11609
1.13023
1.13016
1.15695
1.16636
1.16646
1.16828
1.16717
1.16728
1.16415
1.16037
1.16039
0.200928
0.285011
0.283221
0.542267
0.623466
0.623165
0.833073
0.889851
0.889332
1.02007
1.05123
1.05117
1.11605
1.1301
1.13018
1.15649
1.16591
1.16617
1.16783
1.1668
1.16701
1.1639
1.16025
1.16033
0.208846
0.291431
0.289929
0.542971
0.62335
0.623513
0.834277
0.890959
0.890841
1.02015
1.05107
1.05116
1.1155
1.12951
1.12969
1.15572
1.16521
1.16559
1.16718
1.16625
1.16654
1.1635
1.15999
1.16014
0.21572
0.296852
0.295578
0.543278
0.622308
0.622606
0.833042
0.890203
0.890581
1.01952
1.05033
1.05057
1.11459
1.12859
1.12885
1.15475
1.16435
1.1648
1.1664
1.16559
1.16593
1.16299
1.15964
1.15983
0.221745
0.301477
0.300386
0.543306
0.620973
0.621324
0.829988
0.887585
0.888385
1.01805
1.04898
1.04938
1.11339
1.12743
1.12774
1.15361
1.16338
1.16388
1.16552
1.16485
1.16523
1.16243
1.15923
1.15945
0.227074
0.305465
0.30452
0.543078
0.619472
0.619861
0.82607
0.883748
0.884782
1.01562
1.0469
1.04749
1.11187
1.12602
1.12639
1.15235
1.16232
1.16286
1.1646
1.16408
1.16447
1.16182
1.15879
1.15902
0.231831
0.308939
0.308113
0.542624
0.617831
0.618253
0.821853
0.879341
0.880472
1.01234
1.04409
1.04485
1.11001
1.12435
1.12479
1.15095
1.1612
1.16177
1.16364
1.16328
1.16368
1.1612
1.15832
1.15856
0.236112
0.311999
0.311268
0.541985
0.616076
0.616524
0.817561
0.874724
0.875887
1.00846
1.04072
1.0416
1.10781
1.12241
1.12292
1.14943
1.16003
1.16062
1.16265
1.16247
1.16288
1.16057
1.15784
1.15809
0.240001
0.314724
0.31407
0.541205
0.614236
0.614702
0.813278
0.870058
0.871225
1.00423
1.03694
1.03791
1.10533
1.12023
1.1208
1.14782
1.1588
1.15942
1.16165
1.16166
1.16207
1.15993
1.15736
1.15761
0.243565
0.317182
0.316589
0.540324
0.612343
0.61282
0.809038
0.865415
0.866572
0.999796
1.03291
1.03393
1.1026
1.11786
1.11847
1.14611
1.15754
1.15818
1.16064
1.16085
1.16125
1.1593
1.15687
1.15712
0.24686
0.319425
0.318882
0.539381
0.61043
0.610908
0.804865
0.860831
0.86197
0.995266
1.02873
1.02978
1.09969
1.11532
1.11597
1.14433
1.15625
1.1569
1.15962
1.16004
1.16044
1.15867
1.15639
1.15663
0.249936
0.321502
0.320997
0.53841
0.608524
0.608998
0.800776
0.85633
0.857446
0.990706
1.02447
1.02554
1.09665
1.11266
1.11333
1.14249
1.15494
1.1556
1.15859
1.15923
1.15964
1.15804
1.1559
1.15615
0.252836
0.323453
0.322975
0.537441
0.606653
0.607116
0.796787
0.85193
0.85302
0.986161
1.02018
1.02125
1.09351
1.1099
1.1106
1.14061
1.1536
1.15427
1.15756
1.15843
1.15883
1.15742
1.15542
1.15566
0.255596
0.32531
0.324853
0.5365
0.60484
0.605287
0.792914
0.847647
0.848706
0.981661
1.0159
1.01697
1.09031
1.10707
1.10778
1.13868
1.15225
1.15292
1.15653
1.15763
1.15803
1.1568
1.15493
1.15518
0.258251
0.327107
0.326662
0.535611
0.603107
0.603532
0.789172
0.843495
0.84452
0.977231
1.01166
1.01272
1.08706
1.10419
1.10491
1.13672
1.15088
1.15156
1.15548
1.15683
1.15723
1.15619
1.15445
1.1547
0.260828
0.328869
0.32843
0.534795
0.601473
0.601871
0.785575
0.839488
0.840475
0.97289
1.00748
1.00852
1.0838
1.10128
1.10201
1.13474
1.14949
1.15019
1.15444
1.15604
1.15644
1.15558
1.15398
1.15422
0.263358
0.330622
0.330183
0.53407
0.599956
0.600324
0.782136
0.835638
0.836585
0.968655
1.00337
1.00439
1.08053
1.09836
1.09909
1.13274
1.1481
1.1488
1.15339
1.15525
1.15564
1.15497
1.15351
1.15375
0.265864
0.332389
0.331945
0.533456
0.598573
0.598905
0.778867
0.831957
0.832861
0.96454
0.99936
1.00035
1.07729
1.09543
1.09616
1.13073
1.1467
1.1474
1.15235
1.15446
1.15485
1.15437
1.15304
1.15328
0.268372
0.334194
0.333738
0.532969
0.59734
0.597632
0.775787
0.828464
0.829316
0.960568
0.995466
0.996423
1.07409
1.09254
1.09326
1.12889
1.14542
1.14602
1.15141
1.15377
1.15408
1.15386
1.15268
1.15284
0.182013
0.172139
0.176636
0.0609848
0.0451158
0.0475155
0.0274125
0.0286912
0.0352869
0.186374
0.187857
0.198555
0.134379
0.140482
0.0797705
0.0765285
0.0586425
0.0338007
0.0322043
0.0252374
0.0218258
0.0208952
0.0293899
0.0370024
0.0355217
0.0670893
0.0876107
0.0839233
0.0236408
0.0227677
0.299122
0.281539
0.260371
0.329693
0.304717
0.322994
0.404605
0.385293
0.356386
0.449432
0.416151
0.435599
0.542687
0.523513
0.485117
0.609048
0.564701
0.583505
0.0667265
0.0634933
0.0476101
0.106173
0.0827554
0.0866232
0.0754154
0.0789929
0.100925
0.302523
0.274722
0.251234
0.321669
0.297444
0.327062
0.252204
0.272563
0.295946
0.399927
0.369089
0.345196
0.420848
0.394399
0.4253
0.343688
0.367345
0.393584
0.508202
0.477718
0.44854
0.541705
0.508788
0.539017
0.45738
0.481674
0.51484
0.642663
0.613833
0.576589
0.695429
0.653252
0.681447
0.604503
0.627715
0.669142
0.151653
0.147249
0.106215
0.180912
0.186142
0.232274
0.505405
0.438796
0.41802
0.483921
0.462113
0.524569
0.363739
0.408469
0.432342
0.579966
0.525183
0.503731
0.570984
0.547885
0.600201
0.460984
0.501474
0.525615
0.669752
0.622552
0.596235
0.680015
0.650413
0.696255
0.572512
0.609859
0.64071
0.7879
0.746871
0.71237
0.821278
0.782656
0.822252
0.71222
0.745957
0.784361
0.0781508
0.0743007
0.250069
0.246179
0.156274
0.430207
0.340401
0.344325
0.330919
0.33594
0.425816
0.59612
0.592056
0.513329
0.740591
0.668079
0.671954
0.599318
0.663805
0.695145
0.871816
0.791922
0.790908
0.80988
0.798555
0.88457
0.659129
0.724974
0.740743
0.910035
0.841656
0.824525
0.882972
0.861079
0.925832
0.746132
0.801013
0.825486
0.990588
0.934249
0.907418
0.996332
0.963313
1.01783
0.865757
0.912853
0.946261
0.092153
0.0888402
0.262762
0.259895
0.171313
0.443839
0.353353
0.355647
0.347754
0.350744
0.441014
0.609141
0.606305
0.527497
0.752877
0.681621
0.684302
0.675478
0.678689
0.750238
0.88003
0.8783
0.81883
0.976
0.930713
0.932149
0.927279
0.929097
0.974644
1.04779
1.04695
1.01453
1.09607
1.0739
1.07461
0.996805
1.07307
1.08758
1.12903
1.1286
1.1141
1.14909
1.14009
1.14047
1.07638
1.13964
1.1487
0.104342
0.101443
0.272923
0.270559
0.183733
0.451506
0.361284
0.362915
0.357693
0.359556
0.450065
0.618035
0.616187
0.536716
0.761278
0.691048
0.692905
0.686755
0.689
0.75946
0.885342
0.884223
0.825974
0.979957
0.935556
0.936441
0.933423
0.934554
0.979156
1.05005
1.04963
1.01779
1.09791
1.07611
1.07645
1.0752
1.0757
1.09757
1.13005
1.12989
1.11564
1.15005
1.1412
1.14133
1.14077
1.14101
1.14989
0.115074
0.112514
0.281347
0.279385
0.194152
0.455489
0.367375
0.36874
0.364467
0.365952
0.454665
0.622659
0.621914
0.541038
0.766985
0.697267
0.698278
0.694567
0.696026
0.765785
0.888724
0.888026
0.830747
0.982206
0.938501
0.939016
0.937221
0.937905
0.981769
1.05106
1.0509
1.01949
1.0986
1.07706
1.07715
1.07671
1.07691
1.09851
1.13023
1.13025
1.11614
1.15024
1.14146
1.14143
1.14141
1.14146
1.15025
0.124592
0.122315
0.288361
0.286723
0.203019
0.458296
0.372495
0.373638
0.370048
0.371299
0.457648
0.623605
0.6236
0.542503
0.770085
0.699901
0.700009
0.699052
0.699588
0.769587
0.890612
0.890279
0.833596
0.983293
0.940124
0.940354
0.939456
0.939824
0.983111
1.05123
1.05125
1.02016
1.09853
1.07717
1.0771
1.0772
1.0772
1.09861
1.12985
1.12999
1.11595
1.14991
1.14116
1.14101
1.14137
1.14127
1.15003
0.13308
0.131046
0.294252
0.292871
0.210654
0.46059
0.376766
0.377714
0.37473
0.375771
0.46006
0.622884
0.623135
0.543076
0.770175
0.699391
0.698968
0.69994
0.699724
0.770418
0.890833
0.890959
0.83419
0.983471
0.940597
0.940511
0.940513
0.940596
0.98351
1.05077
1.05094
1.02006
1.09795
1.07669
1.0765
1.07699
1.07686
1.09814
1.12909
1.12931
1.1153
1.14922
1.14046
1.14025
1.14085
1.14067
1.14942
0.140692
0.138864
0.299253
0.298076
0.217299
0.462425
0.380304
0.381089
0.378618
0.379481
0.462008
0.621665
0.621993
0.54331
0.767978
0.697356
0.696751
0.698476
0.697934
0.768667
0.889095
0.889705
0.832409
0.982661
0.939675
0.939197
0.940331
0.940053
0.98297
1.04974
1.05006
1.01924
1.09698
1.07576
1.07545
1.07628
1.07603
1.09726
1.12804
1.12833
1.11432
1.14828
1.1395
1.13923
1.14001
1.13976
1.14853
0.147555
0.145904
0.303542
0.302528
0.223137
0.463835
0.383234
0.383885
0.381837
0.382552
0.463519
0.620241
0.620612
0.543272
0.764752
0.69484
0.694182
0.696127
0.695489
0.765606
0.885772
0.886711
0.82906
0.980645
0.937206
0.93638
0.938622
0.937956
0.981265
1.04803
1.04853
1.01753
1.09564
1.07434
1.0739
1.07512
1.07475
1.09601
1.12676
1.1271
1.11304
1.14715
1.13833
1.138
1.13894
1.13864
1.14744
0.153776
0.152276
0.307259
0.306377
0.228313
0.464875
0.38567
0.386213
0.384507
0.385102
0.464646
0.618667
0.619074
0.542984
0.7612
0.692171
0.691492
0.693517
0.692847
0.762101
0.881587
0.882681
0.825031
0.977491
0.933538
0.932498
0.935488
0.934538
0.97837
1.04558
1.04626
1.01487
1.09387
1.07236
1.07178
1.07343
1.07291
1.09436
1.12522
1.12563
1.11143
1.14585
1.13695
1.13658
1.13767
1.13732
1.14619
0.159445
0.158075
0.310515
0.309739
0.232942
0.465611
0.387707
0.388163
0.386733
0.38723
0.465452
0.616966
0.617402
0.54248
0.757561
0.68943
0.688737
0.690808
0.690121
0.758474
0.877046
0.878198
0.820782
0.973539
0.929191
0.928046
0.931422
0.930318
0.974581
1.04247
1.0433
1.01141
1.09166
1.06982
1.0691
1.07116
1.0705
1.09226
1.12341
1.12389
1.10949
1.14439
1.13537
1.13495
1.13619
1.13579
1.14477
0.164641
0.163383
0.313399
0.312709
0.237119
0.466103
0.389426
0.389814
0.388601
0.389022
0.466
0.615164
0.615622
0.541802
0.753909
0.686642
0.68594
0.68804
0.687342
0.754821
0.872392
0.873559
0.816488
0.969131
0.92453
0.923342
0.926885
0.925712
0.970261
1.03887
1.0398
1.00743
1.08905
1.06679
1.06598
1.06836
1.06759
1.08974
1.12135
1.12189
1.10722
1.14278
1.13359
1.13311
1.13451
1.13405
1.1432
0.169431
0.168268
0.315983
0.315361
0.24092
0.466408
0.390894
0.391229
0.390187
0.390547
0.466346
0.613294
0.613766
0.540992
0.75027
0.683829
0.683125
0.685237
0.684533
0.751177
0.867731
0.868894
0.812213
0.964497
0.919752
0.918552
0.922148
0.920951
0.965668
1.03495
1.03595
1.00314
1.08611
1.06341
1.06252
1.06514
1.06429
1.08687
1.11907
1.11966
1.10466
1.14102
1.13162
1.1311
1.13263
1.13213
1.14147
0.173874
0.172793
0.318327
0.31776
0.244411
0.466573
0.392168
0.392462
0.391552
0.391865
0.466542
0.611387
0.611866
0.540093
0.746666
0.681015
0.680314
0.682421
0.681717
0.747563
0.863114
0.864263
0.807988
0.959769
0.914955
0.91376
0.917352
0.916153
0.960955
1.03083
1.03187
0.99867
1.08293
1.05978
1.05885
1.06162
1.06071
1.08374
1.11661
1.11724
1.10189
1.13913
1.1295
1.12895
1.13058
1.13004
1.13962
0.178021
0.177009
0.320482
0.319959
0.247648
0.466642
0.393296
0.39356
0.392748
0.393025
0.466631
0.609474
0.609951
0.53914
0.743116
0.678224
0.677533
0.679615
0.678919
0.743997
0.858569
0.859697
0.803834
0.955024
0.910193
0.909013
0.912568
0.911379
0.956209
1.0266
1.02767
0.994127
1.07957
1.05599
1.05502
1.0579
1.05695
1.08042
1.114
1.11467
1.09895
1.13715
1.12725
1.12667
1.12839
1.12782
1.13765
0.181918
0.180965
0.322491
0.322
0.250676
0.46665
0.394318
0.394561
0.393818
0.39407
0.466652
0.607583
0.608052
0.538167
0.739638
0.67548
0.674804
0.676845
0.67616
0.7405
0.854116
0.85522
0.799769
0.95031
0.9055
0.90434
0.907836
0.906665
0.951484
1.02232
1.0234
0.989567
1.07609
1.05209
1.05111
1.05405
1.05307
1.07697
1.11129
1.11198
1.09588
1.13508
1.12489
1.12429
1.12608
1.12549
1.13561
0.185606
0.184701
0.324391
0.323924
0.253538
0.466631
0.39527
0.395501
0.394801
0.395037
0.466637
0.605738
0.606193
0.537202
0.736251
0.672804
0.672148
0.674132
0.673465
0.737088
0.849773
0.850848
0.795807
0.945657
0.900896
0.899762
0.903185
0.902037
0.946813
1.01804
1.01911
0.98503
1.07253
1.04815
1.04716
1.05012
1.04914
1.07342
1.10849
1.1092
1.09272
1.13295
1.12245
1.12183
1.12368
1.12307
1.13349
0.189122
0.188257
0.326215
0.325764
0.256269
0.466611
0.396182
0.396407
0.395729
0.395956
0.466615
0.603962
0.604399
0.536272
0.732973
0.670217
0.669586
0.671498
0.670854
0.733781
0.845554
0.846596
0.791966
0.94109
0.896402
0.895297
0.898635
0.897515
0.942223
1.01378
1.01484
0.980546
1.06893
1.04418
1.04319
1.04617
1.04517
1.06983
1.10563
1.10635
1.0895
1.13076
1.11996
1.11932
1.12121
1.12059
1.13131
0.192499
0.191666
0.32799
0.327549
0.258901
0.466616
0.397082
0.397307
0.396632
0.396857
0.466611
0.602277
0.602688
0.535399
0.729819
0.667737
0.667136
0.668962
0.668346
0.730595
0.841473
0.842479
0.788259
0.936626
0.892032
0.890961
0.894201
0.893112
0.937731
1.00956
1.01061
0.976137
1.06531
1.04023
1.03925
1.0422
1.04122
1.06622
1.10274
1.10346
1.08625
1.12853
1.11741
1.11677
1.11869
1.11805
1.12909
0.195769
0.19496
0.329745
0.329307
0.261464
0.466669
0.397993
0.398225
0.397534
0.397762
0.46665
0.600699
0.601082
0.534604
0.726805
0.665382
0.664815
0.666543
0.665958
0.727544
0.837542
0.83851
0.7847
0.932281
0.8878
0.886766
0.889898
0.888845
0.933356
1.00541
1.00644
0.971821
1.0617
1.03631
1.03534
1.03827
1.03729
1.0626
1.09982
1.10055
1.08298
1.12627
1.11484
1.11419
1.11613
1.11548
1.12683
0.198961
0.198169
0.331503
0.331062
0.263985
0.466788
0.398938
0.399182
0.39846
0.398697
0.466751
0.599247
0.599597
0.533906
0.723945
0.663168
0.662638
0.664257
0.663708
0.724645
0.833775
0.834701
0.781302
0.92807
0.88372
0.882724
0.88574
0.884725
0.92911
1.00135
1.00236
0.967615
1.05812
1.03245
1.03149
1.03437
1.03341
1.05901
1.09689
1.09762
1.07972
1.12398
1.11224
1.11159
1.11354
1.11289
1.12456
0.202102
0.20132
0.333286
0.332836
0.26649
0.466994
0.399938
0.400199
0.39943
0.399681
0.466934
0.597936
0.598249
0.533322
0.721253
0.661109
0.660621
0.662118
0.661609
0.721909
0.830184
0.831065
0.778078
0.924006
0.879802
0.87885
0.88174
0.880765
0.925008
0.997394
0.998374
0.963532
1.05458
1.02865
1.02771
1.03054
1.02959
1.05546
1.09398
1.09471
1.07648
1.12169
1.10965
1.109
1.11094
1.11029
1.12227
0.205217
0.20444
0.3351
0.334653
0.269001
0.467309
0.401014
0.401292
0.400464
0.400736
0.467217
0.596845
0.597065
0.532875
0.718763
0.659236
0.658869
0.660143
0.659678
0.719356
0.82696
0.827645
0.775067
0.920142
0.876097
0.875355
0.877909
0.876985
0.921069
0.993787
0.994547
0.959632
1.05115
1.02499
1.02426
1.02678
1.02587
1.05198
1.0913
1.09186
1.07333
1.11945
1.1071
1.10661
1.10835
1.10771
1.11998
0.164584
0.168388
0.176608
0.151263
0.159783
0.157094
0.166459
0.162833
0.153219
0.0447957
0.0450185
0.0607026
0.0324594
0.0343479
0.0357678
0.0340808
0.0197146
0.0234774
0.0224459
0.0263164
0.024972
0.0205844
0.0780879
0.0991679
0.0968299
0.191153
0.212978
0.199726
0.234247
0.2221
0.207268
0.163787
0.177062
0.171595
0.190694
0.183396
0.168825
0.0450864
0.0475216
0.078378
0.039222
0.0374757
0.108412
0.129828
0.130297
0.131737
0.131972
0.112798
0.0919268
0.116098
0.124671
0.120374
0.095886
0.141867
0.138845
0.13312
0.122196
0.0980712
0.101662
0.0904928
0.094324
0.119529
0.055862
0.0732714
0.0699551
0.124771
0.130692
0.132946
0.0235765
0.0289485
0.0277143
0.0314105
0.0302653
0.0246446
0.023967
0.030417
0.0287209
0.0224627
0.0233482
0.0280991
0.0198597
0.0191656
0.094065
0.091082
0.0698714
0.0253239
0.0245445
0.709252
0.770022
0.73399
0.820715
0.883684
0.833148
0.976616
1.03925
0.970243
1.15572
1.16107
1.16074
1.15675
1.1619
1.16177
1.15702
1.16207
1.16208
1.15677
1.16175
1.16187
1.15614
1.1611
1.16129
1.15526
1.16022
1.16046
1.1542
1.15918
1.15946
1.153
1.15802
1.15832
1.15166
1.15675
1.15708
1.15021
1.15539
1.15574
1.14864
1.15395
1.15432
1.14697
1.15244
1.15283
1.14523
1.15088
1.15128
1.14342
1.14928
1.14969
1.14155
1.14763
1.14805
1.13965
1.14596
1.14639
1.1377
1.14426
1.14469
1.13573
1.14254
1.14298
1.13374
1.14081
1.14124
1.13173
1.13906
1.1395
1.12973
1.13732
1.13775
0.0823126
0.0499684
0.0523718
0.0499552
0.0523929
0.0711089
0.203764
0.199021
0.194781
0.238981
0.191214
0.19601
0.221167
0.228185
0.235454
0.206186
0.198725
0.20295
0.0438797
0.0416682
0.117398
0.161755
0.157046
0.270029
0.277849
0.253586
0.183156
0.193712
0.186986
0.727032
0.697526
0.657568
0.822006
0.779044
0.744753
0.955795
0.896715
0.870645
1.14168
1.05867
1.04305
1.16158
1.16136
1.15606
1.16205
1.162
1.15688
1.16196
1.16203
1.157
1.16146
1.16162
1.15664
1.16069
1.16091
1.15594
1.15972
1.15998
1.15501
1.15861
1.15891
1.15391
1.1574
1.15772
1.15268
1.15608
1.15642
1.15131
1.15468
1.15504
1.14982
1.1532
1.15358
1.14823
1.15167
1.15206
1.14654
1.15008
1.15049
1.14478
1.14846
1.14887
1.14296
1.1468
1.14722
1.14108
1.14511
1.14554
1.13916
1.1434
1.14384
1.13721
1.14168
1.14211
1.13523
1.13993
1.14037
1.13324
1.13818
1.13862
1.13123
1.13661
1.13692
1.12927
0.00947156
0.00615745
0.000505799
0.00998171
0.00593779
0.000506858
0.00989909
0.00609409
0.000507347
0.00947978
0.00600185
0.000505688
0.0099493
0.00588125
0.000507081
0.00997053
0.00601395
0.000507843
0.0100019
0.00606004
0.000507454
0.00977724
0.0098905
0.00937666
0.00584348
0.00999207
0.00617526
0.000506606
0.00998493
0.00624621
0.000505983
0.00997292
0.00590678
0.000503771
0.00993044
0.00591086
0.000503945
0.00976404
0.00584434
0.000505304
0.00931259
0.00584783
0.000504986
)
;

boundaryField
{
    topAndBottom
    {
        type            calculated;
        value           nonuniform List<scalar> 
24
(
1.14767
1.14764
1.14771
1.14782
1.14795
1.14804
1.14808
1.14806
1.14799
1.14786
1.14768
1.14746
1.14721
1.14693
1.14664
1.14633
1.14601
1.14568
1.14535
1.14501
1.14468
1.14435
1.14405
1.14378
)
;
    }
    inlet
    {
        type            calculated;
        value           nonuniform List<scalar> 0();
    }
    outlet
    {
        type            calculated;
        value           nonuniform List<scalar> 
32
(
1.15003
1.14662
1.14457
1.14378
0.205971
0.26961
0.467416
0.532814
0.718268
0.774465
0.919371
0.958856
1.05048
1.07271
1.11901
1.12889
1.14542
1.15141
1.15377
1.15386
1.15268
0.3351
0.401292
0.596845
0.658869
0.82696
0.875355
0.993787
1.02426
1.0913
1.10661
1.13661
)
;
    }
    wing
    {
        type            nutkWallFunction;
        value           nonuniform List<scalar> 
13
(
0.000206429
0.00020161
0.000205652
0.000202553
0.000200594
0.000203939
0.000204819
0.000207956
0.000207489
0.000197015
0.000196194
0.000197906
0.00019893
)
;
    }
    front
    {
        type            empty;
    }
    back
    {
        type            empty;
    }
    procBoundary3to1
    {
        type            processor;
        value           nonuniform List<scalar> 
136
(
0.014716
0.014716
0.0215158
0.0150978
0.0186403
0.0193143
0.0207987
0.0219514
0.00983818
0.00723495
0.00929262
0.0194344
0.0110389
0.0164075
0.00970032
0.0104659
0.0304209
0.0246097
0.0385809
0.0324327
0.0468422
0.0406483
0.0549594
0.0488918
0.0627887
0.0569479
0.0702497
0.0646908
0.0773034
0.0720523
0.0839371
0.079001
0.0901574
0.0855302
0.0959828
0.09165
0.10144
0.0973806
0.10656
0.10275
0.111375
0.107791
0.115921
0.112536
0.120231
0.11702
0.124338
0.121276
0.128273
0.125337
0.132067
0.129234
0.135747
0.132997
0.139343
0.136653
0.142879
0.140231
0.146359
0.143756
0.021032
0.0249779
0.027369
0.0285824
0.0324674
0.0324674
0.0155059
0.0168963
0.0245163
0.0230453
0.0214455
0.0214455
0.0201767
0.0159408
0.0180058
0.0200216
0.0284406
0.0265
0.0365187
0.0344671
0.0447827
0.0427172
0.0529526
0.0509297
0.0608638
0.0589162
0.0684218
0.0665684
0.0755792
0.073829
0.0823178
0.0806727
0.0886404
0.087098
0.0945623
0.093118
0.100109
0.0987555
0.105309
0.10404
0.110198
0.109003
0.114808
0.11368
0.119174
0.118103
0.123328
0.122308
0.127304
0.126325
0.13113
0.130186
0.134836
0.13392
0.13845
0.137554
0.141999
0.141116
0.145507
0.144632
0.0249779
0.0261631
0.0259809
0.0274416
0.0298085
0.0174141
0.020739
0.0289023
0.0303536
0.0311135
0.00929262
0.00579257
0.00579257
0.00578608
0.000503126
0.000503126
)
;
    }
    procBoundary3to2
    {
        type            processor;
        value           nonuniform List<scalar> 
51
(
0.923915
1.16
1.15256
1.15256
1.14933
1.14802
1.14784
0.0163968
0.139918
0.139918
0.0190764
0.0668883
0.14609
0.168321
0.0146741
0.0376771
0.011158
0.173284
0.193594
0.0880754
0.0231651
0.0490138
0.0490138
0.225356
0.209506
0.154689
0.0292229
0.245464
0.266045
0.339381
0.368058
0.467749
0.506337