/*--------------------------------*- C++ -*----------------------------------*\
| =========                 |                                                 |
| \\      /  F ield         | OpenFOAM: The Open Source CFD Toolbox           |
|  \\    /   O peration     | Version:  v2012                                 |
|   \\  /    A nd           | Website:  www.openfoam.com                      |
|    \\/     M anipulation  |                                                 |
\*---------------------------------------------------------------------------*/
FoamFile
{
    version     2.0;
    format      ascii;
    class       volScalarField;
    location    "0";
    object      omega;
}
// * * * * * * * * * * * * * * * * * * * * * * * * * * * * * * * * * * * * * //

dimensions      [0 0 -1 0 0 0 0];


internalField   nonuniform List<scalar> 
3019
(
998.428
111.135
57.8262
41.3332
35.332
32.7805
31.483
30.9806
30.642
30.5122
30.4416
30.4027
500.845
105.048
57.1078
41.4022
35.446
32.8287
31.4642
30.9286
30.5646
30.4235
30.3458
30.303
337.687
98.8937
55.8568
41.2044
35.4297
32.8165
31.4255
30.8692
30.4856
30.3355
30.2518
30.2054
293.373
93.8407
54.6608
40.8973
35.3246
32.7508
31.3689
30.8012
30.4034
30.2468
30.1577
30.1084
262.069
89.9291
53.5649
40.5551
35.1831
32.6597
31.2958
30.7234
30.317
30.1557
30.062
30.0103
238.665
87.098
52.6249
40.2159
35.0172
32.5485
31.2079
30.6358
30.2248
30.0607
29.9642
29.9102
220.417
85.0963
51.8306
39.8983
34.8434
32.4259
31.1099
30.5408
30.1277
29.9619
29.8629
29.8077
205.709
83.4738
51.1905
39.6083
34.6703
32.298
31.0045
30.4395
30.0259
29.8591
29.7584
29.7024
193.535
82.0214
50.7273
39.3487
34.5026
32.1682
30.8941
30.3333
29.9199
29.7526
29.6507
29.5944
183.242
80.6928
50.4099
39.1269
34.343
32.0388
30.7801
30.2231
29.8103
29.643
29.5404
29.484
174.384
79.4717
50.1731
38.9496
34.1943
31.9115
30.6641
30.11
29.698
29.5307
29.4277
29.3716
166.644
78.3435
49.9727
38.8138
34.0591
31.7878
30.5471
29.9949
29.5836
29.4165
29.3133
29.2575
159.796
77.2939
49.7895
38.7093
33.9381
31.6687
30.4301
29.8786
29.4677
29.3007
29.1976
29.1423
153.67
76.3097
49.616
38.6255
33.8301
31.5547
30.3139
29.7618
29.3508
29.184
29.0809
29.0262
148.137
75.3794
49.4486
38.5549
33.7332
31.4456
30.1988
29.6449
29.2335
29.0666
28.9637
28.9095
143.096
74.4932
49.285
38.4923
33.6454
31.3411
30.0851
29.5283
29.116
28.949
28.8462
28.7925
138.471
73.6431
49.1232
38.4346
33.5649
31.2407
29.973
29.4123
28.9987
28.8314
28.7287
28.6755
134.2
72.8222
48.9615
38.3796
33.49
31.1439
29.8626
29.2972
28.8817
28.714
28.6114
28.5587
130.232
72.0249
48.7984
38.3255
33.4195
31.0505
29.754
29.1829
28.7652
28.5969
28.4943
28.4421
126.527
71.2465
48.6326
38.2712
33.3523
30.9599
29.647
29.0697
28.6493
28.4804
28.3778
28.3259
123.05
70.4831
48.4628
38.2156
33.2876
30.8719
29.5418
28.9576
28.5342
28.3645
28.2618
28.2102
119.774
69.7315
48.2881
38.1578
33.2246
30.7862
29.4383
28.8467
28.4199
28.2492
28.1463
28.0951
116.675
68.989
48.1075
38.0972
33.1625
30.7024
29.3364
28.737
28.3068
28.1352
28.0321
27.9812
113.734
68.2533
47.9203
38.0332
33.1009
30.6203
29.2366
28.6292
28.2
28.0275
27.9242
27.8733
1245.02
1053.14
138.754
696.045
1197.33
523.325
134.346
136.033
528.272
666.803
301.421
870.695
906.114
733.309
267.334
291.548
1756.64
1085.04
1845.45
1505.11
622.754
1033.55
352.063
123.851
131.349
533.53
598.226
1434.95
244.306
260.542
706.652
627.098
3872.92
2249.54
1516.62
782.663
3257.31
2740.68
1489.7
3358.76
3843.15
2721.4
3199.27
4001.47
2207.84
2578.65
1827.1
2101.43
3803.02
3909.56
2140.07
3838.41
3488.6
120.234
66.0974
1414.41
2606.19
2234.49
3045.8
2486.87
1835.61
1011.48
4003.37
4085
4160.94
3686.04
3897.7
1497.8
1723.85
3714.64
3424.16
3610.37
3555.04
4011.26
3981.18
3745.91
2876.58
3619.81
3380.47
3944.59
3840.66
3040.1
3263.84
3454.9
4096.41
3599.85
2938
3089.92
3811.14
3078.1
3233.37
2764.66
2923.36
3703.1
57.9097
43.8907
41.2612
36.3107
35.2791
33.2128
863.499
458.495
514.719
106.763
64.8736
65.8522
57.3248
43.9894
43.9552
41.4136
36.4791
36.3711
35.431
33.3026
33.2429
447.614
218.936
238.11
100.356
63.0615
64.5085
56.1666
43.7338
43.9588
41.2749
36.4804
36.4939
35.4468
33.3166
33.3123
518.74
610.963
302.931
115.815
121.619
94.9903
61.2847
62.6071
54.9579
43.3213
43.6329
40.9749
36.3608
36.4567
35.3549
33.2599
33.3069
434.653
494.405
269.011
109.953
114.155
90.8053
59.7058
60.8647
53.8241
42.879
43.2142
40.6416
36.1992
36.3237
35.2216
33.1685
33.2391
376.476
418.205
243.949
105.886
108.797
87.7102
58.385
59.3526
52.8458
42.4462
42.7682
40.2991
36.01
36.1536
35.0599
33.0523
33.1413
333.879
364.638
224.597
102.773
105.05
85.5464
57.2967
58.0915
52.0158
42.0489
42.3432
39.9753
35.8133
35.961
34.887
32.9223
33.0208
301.332
324.953
209.117
100.068
102.067
83.8598
56.4583
57.0621
51.3343
41.6923
41.9558
39.6781
35.6198
35.7644
34.7132
32.7861
32.8886
275.615
294.355
196.381
97.6436
99.4371
82.3722
55.8752
56.2907
50.827
41.3794
41.6097
39.4104
35.4344
35.5725
34.5439
32.6485
32.7517
254.735
270.001
185.666
95.4615
97.0768
81.0143
55.4613
55.7603
50.4793
41.1204
41.3091
39.1783
35.2602
35.3897
34.382
32.512
32.6142
237.402
250.11
176.483
93.4864
94.9498
79.7677
55.1246
55.3724
50.2277
40.9232
41.0654
38.9897
35.1006
35.2188
34.2303
32.3787
32.4783
222.742
233.514
168.488
91.6841
93.0209
78.6176
54.8217
55.0466
50.0207
40.7791
40.8828
38.8444
34.9589
35.0634
34.0916
32.2503
32.3461
210.148
219.419
161.435
90.0253
91.257
77.5497
54.538
54.7493
49.8342
40.6713
40.7494
38.7332
34.8355
34.9263
33.9671
32.128
32.2191
199.182
207.268
155.141
88.485
89.63
76.5502
54.2678
54.4693
49.6587
40.5851
40.6482
38.645
34.7287
34.8074
33.856
32.0123
32.0985
189.523
196.655
149.47
87.0431
88.1161
75.6074
54.0079
54.2019
49.49
40.5115
40.5658
38.5716
34.6353
34.7042
33.7565
31.9031
31.9844
180.931
187.284
144.315
85.6827
86.6959
74.7111
53.7556
53.9442
49.3257
40.4449
40.4943
38.5074
34.5525
34.6137
33.6666
31.7997
31.8767
173.219
178.926
139.592
84.3904
85.3537
73.8526
53.5084
53.6934
49.1636
40.3822
40.429
38.4487
34.4776
34.5331
33.5844
31.7015
31.7747
166.242
171.41
135.238
83.155
84.0765
73.025
53.264
53.4471
49.002
40.3211
40.3668
38.3932
34.4087
34.4599
33.5082
31.6079
31.6777
159.887
164.599
131.198
81.9673
82.8539
72.2223
53.0205
53.2031
48.8394
40.2599
40.3058
38.339
34.3442
34.3922
33.4368
31.5181
31.5851
154.061
158.384
127.43
80.82
81.677
71.4395
52.7761
52.9596
48.6743
40.1976
40.2445
38.2848
34.2829
34.3287
33.3689
31.4317
31.4962
148.689
152.678
123.899
79.7067
80.5387
70.6728
52.5292
52.7147
48.5057
40.1331
40.1817
38.2296
34.2236
34.2679
33.3036
31.3482
31.4106
143.71
147.41
120.576
78.6224
79.4331
69.9185
52.2785
52.4669
48.3323
40.0655
40.1165
38.1725
34.1655
34.209
33.2402
31.2672
31.3277
139.073
142.521
117.434
77.5625
78.3553
69.1739
52.0228
52.2151
48.1532
39.994
40.048
38.1127
34.1079
34.1511
33.178
31.1881
31.2472
134.736
137.962
114.455
76.5235
77.3009
68.4366
51.7612
51.958
47.9677
39.9182
39.9755
38.0496
34.05
34.0935
33.1163
31.1108
31.1687
130.7
133.694
111.656
75.5255
76.2666
67.7239
51.5026
51.6948
47.7828
39.8412
39.8984
37.9859
33.9946
34.0355
33.0579
31.039
31.0917
1293.26
1582.15
1510.36
822.257
862.006
1113.06
144.901
260.661
238.931
757.5
1448.59
2123.43
1825.57
1204.1
390.597
405.664
621.375
127.79
212.215
200.458
232.71
216.73
129.542
600.76
689.473
311.882
487.424
439.201
505.564
295.811
2023.57
1645.93
1083.85
1038.98
838.768
944.282
1188.19
1133.57
407.264
442.591
826.498
274.727
351.832
339.963
425.242
364.879
282.83
2139.52
2034.13
1672.89
2670.84
2801.77
3436.03
1141.89
1738.27
1518.52
1939.44
2369.4
2251.9
1003.16
1058.54
1746.24
648.854
821.474
783.458
862.813
677.012
1318.43
1250.31
986.767
2418.57
2541.82
1445.57
1437.28
227.519
235.559
432.758
126.235
165.951
161.701
195.962
170.62
128.722
553.67
685.243
657.206
748.141
715.617
575.385
1178.34
905.005
951.949
249.211
311.468
304.665
329.688
320.349
254.56
640.096
418.09
432.522
656.44
997.568
942.308
2365.74
2897.44
2749.06
1305.9
1372.45
1193.47
1247.57
1591.34
809.678
998.719
960.616
3065.76
2478.13
2614.7
2235.47
2351.7
2892.43
1571.33
1931.24
1835.02
2322.73
2829.85
2680.96
3180.71
2996.19
2446.03
1912.07
2310.79
2204.71
2545.67
2423.5
2003.88
2612.7
2488.95
2037.38
92.1023
93.0379
124.736
66.2805
77.3734
76.9829
1744.39
1660.53
1352.58
2477.98
2025.59
2127.63
1836.37
1928.05
2353.13
1497.47
1569.31
1927
1044.98
1276.37
1223.6
1335
1086.87
2192.69
2301.73
1561.05
1902.72
1815.92
2099.06
1998.72
1638.93
32.7585
31.9082
31.4848
31.1994
31.0048
30.861
949.069
751.975
785.631
109.62
90.2864
91.2025
57.6919
51.8049
51.8466
41.3816
39.3339
39.2822
35.3745
34.5261
34.4894
32.8233
31.9294
31.9231
31.4761
31.1678
31.1849
30.956
30.7985
30.8301
481.183
364.266
376.8
103.402
86.2165
87.3341
56.8006
51.3322
51.4717
41.3723
39.379
39.3868
35.453
34.598
34.5898
32.8241
31.916
31.927
31.447
31.1246
31.1476
30.9005
30.7327
30.7662
324.89
214.232
220.467
97.5136
82.1764
83.1453
55.5591
50.4902
50.6984
41.1295
39.2164
39.2701
35.4081
34.5685
34.5853
32.7704
31.8727
31.8967
31.3995
31.069
31.0984
30.8368
30.6615
30.6979
284.593
194.925
199.104
92.7615
78.7805
79.5599
54.3724
49.6616
49.8696
40.8133
38.9773
39.0412
35.2927
34.4727
34.4999
32.6851
31.8037
31.8409
31.3349
31.0019
31.0369
30.7643
30.5833
30.6233
255.609
180.798
184.013
89.1216
76.0745
76.692
53.3155
48.8814
49.0678
40.469
38.7064
38.7754
35.1431
34.3439
34.3788
32.5778
31.716
31.7619
31.2533
30.9209
30.9628
30.681
30.498
30.5419
233.696
169.581
172.165
86.539
74.0056
74.4611
52.413
48.1966
48.3588
40.1341
38.4321
38.4999
34.9741
34.1942
34.2327
32.4574
31.615
31.6668
31.16
30.83
30.8766
30.5895
30.4051
30.4521
216.455
160.438
162.563
84.6682
72.5553
72.8698
51.6549
47.6052
47.7444
39.8232
38.1705
38.2343
34.7998
34.0366
34.0763
32.3303
31.5053
31.561
31.058
30.7313
30.7815
30.4911
30.3064
30.3563
202.458
152.811
154.599
83.0978
71.4918
71.7365
51.0581
47.1117
47.2248
39.5403
37.9274
37.9863
34.6278
33.8786
33.9179
32.2007
31.3903
31.4483
30.9498
30.6265
30.6795
30.3871
30.2028
30.255
190.806
146.312
147.847
81.6784
70.5896
70.8062
50.6368
46.7365
46.8186
39.2893
37.7059
37.759
34.4618
33.7239
33.7621
32.071
31.2721
31.3314
30.8374
30.5171
30.5723
30.2787
30.095
30.1492
180.907
140.673
142.014
80.378
69.7673
69.9669
50.3454
46.4757
46.532
39.0783
37.5115
37.5572
34.3047
33.5752
33.6117
31.943
31.1524
31.2123
30.7223
30.4044
30.4611
30.1669
29.984
30.0397
172.354
135.705
136.892
79.1815
69.0043
69.19
50.1207
46.2911
46.3324
38.9121
37.3494
37.3868
34.1592
33.4348
33.469
31.8183
31.0328
31.0925
30.6056
30.2895
30.3472
30.0527
29.8705
29.9273
164.856
131.269
132.334
78.0743
68.292
68.4657
49.9257
46.1458
46.1798
38.7852
37.2192
37.249
34.0276
33.3047
33.3362
31.698
30.9143
30.9733
30.4886
30.1734
30.2316
29.9369
29.7552
29.8129
158.203
127.263
128.228
77.0422
67.6232
67.7867
49.7454
46.0194
46.0499
38.6868
37.1147
37.1388
33.9099
33.1856
33.2143
31.5828
30.7977
30.8557
30.3719
30.0568
30.1152
29.8203
29.6389
29.6971
152.235
123.61
124.494
76.0724
66.9904
67.1456
49.5737
45.9027
45.9313
38.6069
37.0289
37.049
33.8049
33.0768
33.1031
31.4725
30.6834
30.7402
30.2562
29.9404
29.9986
29.7033
29.5221
29.5805
146.833
120.25
121.065
75.154
66.387
66.5355
49.4075
45.7911
45.8187
38.5386
36.9559
36.9733
33.7105
32.9771
33.0012
31.3668
30.5717
30.6272
30.1418
29.8245
29.8824
29.5866
29.4052
29.4636
141.904
117.137
117.894
74.2776
65.8072
65.9502
49.2445
45.6821
45.7092
38.4775
36.8915
36.907
33.6247
32.885
32.9074
31.2654
30.4625
30.5168
30.0289
29.7095
29.7669
29.4703
29.2884
29.3467
137.373
114.233
114.941
73.4354
65.2457
65.3845
49.0828
45.5736
45.6008
38.4207
36.8328
36.8471
33.5457
32.7993
32.8202
31.1678
30.3558
30.4088
29.9176
29.5955
29.6523
29.3547
29.172
29.2301
133.181
111.508
112.174
72.6208
64.6981
64.8339
48.9209
45.4643
45.4918
38.366
36.7775
36.7911
33.472
32.7188
32.7385
31.0735
30.2514
30.3033
29.8081
29.4827
29.5389
29.2399
29.0563
29.114
129.282
108.937
109.567
71.8287
64.1608
64.2944
48.7572
45.3529
45.381
38.312
36.7242
36.7374
33.4024
32.6425
32.6612
30.9823
30.1493
30.2001
29.7003
29.3712
29.4268
29.1262
28.9413
28.9987
125.637
106.502
107.099
71.0544
63.6307
63.7627
48.5905
45.2382
45.2672
38.2574
36.6716
36.6847
33.336
32.5695
32.5875
30.8937
30.0494
30.0991
29.5942
29.2611
29.316
29.0135
28.8272
28.8841
122.213
104.184
104.753
70.2942
63.1053
63.2363
48.4196
45.1193
45.1494
38.2014
36.6186
36.6319
33.2717
32.4991
32.5165
30.8074
29.9514
30.0002
29.4898
29.1524
29.2066
28.902
28.714
28.7705
118.984
101.97
102.514
69.5452
62.5822
62.7128
48.2435
44.9953
45.0268
38.143
36.5645
36.5782
33.209
32.4306
32.4476
30.7232
29.8554
29.9032
29.3871
29.0451
29.0985
28.7917
28.6019
28.6578
115.926
99.8474
100.37
68.8045
62.0597
62.1904
48.0613
44.8654
44.8985
38.0816
36.5085
36.5227
33.1471
32.3635
32.3802
30.6407
29.7612
29.8081
29.2861
28.9392
28.9919
28.6826
28.4908
28.5461
113.021
97.8073
98.3101
68.0703
61.5365
61.6674
47.8725
44.7291
44.7638
38.0166
36.4501
36.4649
33.0855
32.2973
32.3138
30.5643
29.6734
29.7151
29.1921
28.8406
28.8873
28.581
28.388
28.4364
140.781
165.312
162.487
728.119
919.105
881.146
1444.5
1384.05
1158.17
159.66
156.918
133.636
370.258
309.695
597.249
618.068
761.329
1221.25
1274.74
1580.35
1794.29
1885.14
1371.51
1127.78
1169.08
682.298
552.902
572.859
1643.33
1712.24
51.8462
51.7997
57.9447
43.795
47.239
47.321
39.2109
39.1176
41.1624
36.2362
37.5114
37.5956
34.4444
34.3905
35.2151
33.1767
33.7213
33.7658
691.907
720.852
904.321
475.877
583.95
562.057
631.246
607.206
497.149
88.4725
89.3733
108.108
65.2212
75.4498
74.8286
76.5247
76.0095
65.5467
51.6167
51.7271
57.522
44.0017
47.3436
47.2964
47.3636
47.3704
43.9921
39.3829
39.3671
41.4072
36.4546
37.7498
37.7728
37.662
37.713
36.4187
34.576
34.5549
35.4075
33.2875
33.8584
33.8771
33.8032
33.8339
33.2681
342.165
352.781
463.543
295.551
287.077
232.167
84.134
85.1455
101.851
63.5358
72.8081
72.1144
74.271
73.5321
64.0224
50.9115
51.1247
56.4834
43.8287
47.0126
46.87
47.2297
47.146
43.9132
39.319
39.3605
41.3386
36.4978
37.7773
37.7501
37.7841
37.7851
36.4998
34.5978
34.6005
35.4517
33.319
33.8999
33.8981
33.8898
33.8973
33.318
545.909
576.439
203.656
208.666
313.38
117.609
151.192
148.356
157.843
154.347
119.541
80.3846
81.2562
96.2132
61.7208
70.1492
69.5307
71.4554
70.7961
62.1679
50.0814
50.2893
55.2629
43.4244
46.4331
46.2914
46.7235
46.5768
43.5288
39.1006
39.1594
41.0524
36.3959
37.6345
37.5894
37.7161
37.6772
36.4282
34.5253
34.5483
35.3829
33.2781
33.8567
33.8367
33.8879
33.8739
33.2942
452.675
472.5
187.421
191.047
276.497
111.227
141.412
139.498
145.805
143.503
112.626
77.3482
78.0439
91.7498
60.0753
67.8447
67.3369
68.9407
68.379
60.4616
49.2601
49.4582
54.0934
42.9907
45.8389
45.6914
46.1396
45.9885
43.1027
38.8439
38.9114
40.7279
36.2432
37.4418
37.3879
37.5428
37.4937
36.2849
34.4121
34.4435
35.2583
33.194
33.7649
33.737
33.8144
33.7907
33.2176
389.268
403.129
174.887
177.761
249.585
106.778
134.494
132.995
137.726
136.066
107.743
74.958
75.4962
88.383
58.6927
65.9616
65.5499
66.8546
66.3963
59.015
48.527
48.7012
53.0759
42.5515
45.2677
45.1336
45.5469
45.4055
42.659
38.5683
38.6372
40.3835
36.0586
37.2191
37.1618
37.3325
37.2761
36.1066
34.2707
34.3078
35.102
33.0831
33.6436
33.61
33.7073
33.676
33.1128
343.423
353.649
164.789
167.126
229.016
103.502
128.849
127.569
131.558
130.177
104.259
73.2134
73.5907
86.0247
57.547
64.4581
64.1448
65.1616
64.7973
57.8121
47.8895
48.0402
52.21
42.1444
44.7544
44.6357
45.0034
44.877
42.2426
38.2992
38.3652
40.0539
35.8625
36.9903
36.9339
37.1044
37.0472
35.9117
34.1158
34.1552
34.9306
32.9556
33.505
33.469
33.5757
33.5406
32.9885
308.728
316.588
156.462
158.406
212.694
100.716
124
122.893
126.335
125.146
101.382
71.993
72.2646
84.2571
56.6425
63.3588
63.1431
63.8577
63.5963
56.8439
47.345
47.472
51.4893
41.7775
44.3022
44.1988
44.5207
44.4095
41.8654
38.0465
38.1079
39.7497
35.6675
36.7684
36.7147
36.878
36.8228
35.7157
33.9574
33.997
34.7564
32.8204
33.3594
33.3227
33.4326
33.3961
32.8546
281.527
287.765
149.44
151.092
199.352
98.2256
119.793
118.827
121.824
120.792
98.8233
71.0282
71.2562
82.7308
56.0007
62.5972
62.4394
62.9462
62.7652
56.1386
46.9085
47.0062
50.9371
41.453
43.9142
43.829
44.0994
44.0045
41.5299
37.8137
37.8698
39.4743
35.4798
36.5588
36.5087
36.6618
36.6099
35.5259
33.8007
33.8395
34.5856
32.6829
33.2127
33.1762
33.2859
33.2492
32.7173
259.581
264.663
143.399
144.83
188.185
95.9863
116.104
115.251
117.891
116.984
96.5245
70.1703
70.3778
81.3428
55.5548
62.0087
61.8748
62.2899
62.1467
55.654
46.5938
46.6617
50.5545
41.1795
43.6054
43.5419
43.749
43.6744
41.2424
37.6049
37.6545
39.2325
35.3025
36.3647
36.3191
36.4596
36.4116
35.3457
33.6486
33.6861
34.4216
32.5459
33.068
33.0325
33.1399
33.1039
32.58
241.456
245.687
138.115
139.375
178.656
93.9627
112.83
112.067
114.421
113.615
94.4503
69.3789
69.5714
80.0697
55.2046
61.492
61.3695
61.7444
61.6169
55.287
46.3765
46.4241
50.285
40.9669
43.3816
43.337
43.4836
43.4303
41.0142
37.4263
37.4678
39.0326
35.1389
36.1904
36.1504
36.2748
36.2318
35.1784
33.5038
33.5392
34.2671
32.4117
32.9278
32.8936
32.9972
32.9623
32.4449
226.193
229.781
133.427
134.55
170.39
92.1201
109.889
109.199
111.323
110.597
92.5656
68.6423
68.8217
78.8969
54.8953
61.014
60.8992
61.249
61.1306
54.9702
46.2151
46.2521
50.0699
40.8111
43.2235
43.191
43.2961
43.2584
40.8455
37.2806
37.3141
38.8771
34.9925
36.0399
36.0062
36.112
36.0752
35.0274
33.3684
33.4012
34.1249
32.2818
32.7939
32.7616
32.8599
32.8267
32.3138
213.129
216.218
129.217
130.23
163.121
90.428
107.219
106.587
108.524
107.864
90.8385
67.9527
68.121
77.8097
54.6075
60.5647
60.4562
60.7861
60.6746
54.6779
46.081
46.1129
49.8795
40.6958
43.1047
43.0788
43.1606
43.1319
40.7217
37.1642
37.191
38.7584
34.8647
35.9136
35.8855
35.9739
35.9431
34.895
33.2438
33.2739
33.9969
32.1579
32.668
32.6378
32.7299
32.6987
32.1883
201.79
204.484
125.396
126.319
156.652
88.8602
104.769
104.187
105.969
105.363
89.2418
67.3027
67.4619
76.7944
54.3342
60.139
60.0358
60.3492
60.2435
54.4014
45.9602
45.9896
49.7018
40.6052
43.007
42.9845
43.054
43.0301
40.6262
37.0699
37.0918
38.6654
34.754
35.8081
35.7844
35.8586
35.8328
34.7802
33.1299
33.1574
33.8826
32.0406
32.5506
32.5226
32.6082
32.5792
32.0693
191.83
194.206
121.897
122.745
150.836
87.3953
102.502
101.961
103.615
103.054
87.7529
66.6854
66.837
75.8384
54.072
59.7328
59.6338
59.9338
59.8328
54.1367
45.8465
45.8745
49.5317
40.5291
42.9203
42.8997
42.9627
42.9413
40.5472
36.9911
37.0097
38.5889
34.6576
35.7186
35.6983
35.7616
35.7397
34.6805
33.0259
33.0511
33.7804
31.9298
32.4414
32.4153
32.495
32.468
31.957
182.99
185.107
118.665
119.451
145.56
86.016
100.388
99.8804
101.428
100.904
86.3536
66.0945
66.2401
74.9313
53.8181
59.342
59.2463
59.5357
59.4385
53.8809
45.7364
45.7637
49.3665
40.4611
42.8395
42.8198
42.8794
42.8594
40.4776
36.9229
36.9392
38.5228
34.5723
35.641
35.623
35.6786
35.6595
34.5928
32.9302
32.9534
33.6883
31.8251
32.3396
32.3152
32.3897
32.3644
31.8507
175.073
176.975
115.661
116.393
140.736
84.7077
98.4019
97.9231
99.3803
98.8876
85.0288
65.5244
65.6652
74.0641
53.5698
58.9629
58.8696
59.1512
59.0568
53.6315
45.6279
45.655
49.204
40.3977
42.7615
42.7422
42.8003
42.7809
40.4133
36.8616
36.8764
38.463
34.4957
35.5719
35.5556
35.6055
35.5885
34.5142
32.8415
32.8631
33.6043
31.7256
32.2441
32.2211
32.2911
32.2674
31.75
167.924
169.646
112.85
113.536
136.295
83.459
96.5245
96.0702
97.4507
96.9846
83.7662
64.9704
65.1076
73.2294
53.3249
58.5922
58.5005
58.7767
58.6843
53.386
45.5192
45.5464
49.0424
40.3363
42.6843
42.6649
42.7229
42.7036
40.3515
36.8048
36.8187
38.4069
34.4255
35.5088
35.4937
35.5397
35.5241
34.4425
32.7585
32.7788
33.5268
31.6309
32.1541
32.1323
32.1985
32.1761
31.6542
161.423
162.993
110.205
110.852
132.181
82.2602
94.7398
94.3065
95.6214
95.178
82.5556
64.4284
64.5629
72.4209
53.0814
58.227
58.1363
58.4091
58.3179
53.1423
45.4089
45.4367
48.8802
40.2753
42.6063
42.5866
42.6455
42.626
40.2906
36.7507
36.7641
38.3525
34.36
35.4498
35.4355
35.4788
35.4642
34.376
32.6802
32.6994
33.4543
31.5402
32.0686
32.0479
32.1108
32.0896
31.5625
155.472
156.913
107.704
108.317
128.349
81.1034
93.0349
92.6198
93.8781
93.4542
81.389
63.8951
64.0277
71.6336
52.8374
57.8647
57.7744
58.0457
57.9552
52.8985
45.296
45.3246
48.7159
40.2134
42.5265
42.5061
42.5667
42.5467
40.229
36.6979
36.711
38.2984
34.298
35.3934
35.3796
35.4213
35.4073
34.3132
32.6056
32.624
33.3856
31.453
31.9869
31.967
32.0273
32.007
31.4745
149.993
151.322
105.329
105.912
124.761
79.9821
91.399
90.9997
92.2089
91.802
80.2595
63.3676
63.499
70.8631
52.5912
57.5033
57.4128
57.684
57.5937
52.6531
45.1793
45.2089
48.5482
40.1495
42.4436
42.4223
42.4855
42.4647
40.1657
36.6452
36.6584
38.2436
34.2383
35.3386
35.325
35.3659
35.3522
34.253
32.534
32.5517
33.3197
31.3688
31.9084
31.8892
31.9473
31.9278
31.3896
144.921
146.154
103.064
103.621
121.388
78.891
89.8232
89.4377
90.6041
90.212
79.1613
62.8435
62.9743
70.106
52.3416
57.1408
57.0499
57.3223
57.2316
52.4044
45.058
45.0888
48.3761
40.0827
42.3569
42.3346
42.4008
42.379
40.0997
36.5918
36.6052
38.187
34.18
35.2842
35.2706
35.3114
35.2978
34.1945
32.4647
32.4818
33.2559
31.2872
31.8325
31.8139
31.8702
31.8513
31.3074
140.203
141.352
100.898
101.431
118.204
77.8254
88.2999
87.9265
89.0554
88.6762
78.0896
62.321
62.4516
69.3593
52.0873
56.7758
56.684
56.9587
56.8674
52.1514
44.9311
44.9634
48.1986
40.0123
42.2656
42.242
42.3119
42.2889
40.0303
36.5368
36.5507
38.1279
34.1223
35.2296
35.2158
35.257
35.2433
34.1367
32.3969
32.4137
33.1935
31.2077
31.7586
31.7404
31.7954
31.7769
31.2274
135.794
136.869
98.8176
99.3301
115.186
76.7815
86.8228
86.46
87.5559
87.188
77.0406
61.7982
61.929
68.6204
51.8272
56.4069
56.314
56.5919
56.4996
51.8928
44.7981
44.8319
48.0148
39.9376
42.169
42.1439
42.218
42.1937
39.9567
36.4796
36.4941
38.0657
34.0646
35.174
35.1599
35.202
35.188
34.079
32.3303
32.3469
33.1317
31.13
31.6863
31.6684
31.7223
31.7043
31.1493
131.658
132.667
96.847
97.3108
112.318
75.758
85.3883
85.0607
86.0998
85.742
76.0109
61.2895
61.4068
67.8891
51.5618
56.0346
55.9513
56.2207
56.1273
51.628
44.6642
44.6947
47.825
39.8586
42.0672
42.0447
42.1185
42.0928
39.8785
36.4228
36.4355
38.0002
34.0067
35.1174
35.1054
35.1457
35.1314
34.021
32.2679
32.2814
33.0706
31.0544
31.6159
31.6014
31.6506
31.633
31.0728
171.228
168.219
142.82
252.721
203.336
208.108
194.559
198.804
245.579
926.754
923.477
731.972
1208.04
1148.12
1107.55
1156.26
2020.09
1669.74
1750.13
1496.06
1573.31
1920.22
602.28
497.857
508.229
208.055
173.422
176.454
166.09
169.571
204.107
226.946
186.684
190.503
179.673
183.07
221.612
893.281
849.409
576.846
1020.68
1062.54
470.368
387.581
401.375
364.158
374.859
454.161
543.709
445.757
417.886
431.403
523.998
302.189
359.73
350.042
417.172
506.258
491.038
541.788
523.246
429.464
792.227
640.606
665.479
412.646
345.6
353.972
1658.23
1367.11
1424.49
1267.55
1311.79
1584.86
1661.11
1340.85
1411.14
1735.2
1664.08
1389.46
1998.59
2092.07
520.964
535.241
660.062
1527.63
1578.8
32.7993
32.3969
32.3863
32.8312
32.4111
32.4128
32.8037
32.3807
32.3943
32.7308
32.3131
32.3323
32.6336
32.2236
32.248
32.5187
32.1178
32.1455
32.3944
32.0025
32.032
32.2656
31.882
31.9125
32.1357
31.7591
31.79
32.0067
31.6359
31.6666
31.8802
31.5138
31.5441
31.7576
31.3943
31.4238
31.6398
31.278
31.3067
31.527
31.1654
31.1931
31.4191
31.0563
31.0832
31.3156
30.9507
30.9767
31.2162
30.8483
30.8735
31.1203
30.7488
30.7733
31.0276
30.652
30.6759
30.9377
30.5577
30.581
30.8503
30.4657
30.4885
30.7651
30.3758
30.398
30.6817
30.2876
30.3095
30.6002
30.2014
30.2226
550.622
809.516
773.578
845.629
812.986
642.785
105.027
105.93
121.657
224.965
278.976
271.404
149.363
147.174
126.323
131.466
154.274
151.758
929.042
970.568
419.103
319.262
329.691
191.72
160.125
163.308
123.184
106.969
108.038
32.3706
32.3532
32.7307
32.4102
32.4058
32.8128
32.402
32.4082
32.8292
32.3493
32.3662
32.788
32.2709
32.2929
32.7085
32.1723
32.1985
32.606
32.0611
32.0898
32.4882
31.9427
31.9728
32.3623
31.8207
31.8514
32.2331
31.6975
31.7283
32.1033
31.5746
31.6052
31.9747
31.4537
31.4836
31.8491
31.3357
31.3648
31.7276
31.2212
31.2494
31.6111
31.1104
31.1377
31.4996
31.0031
31.0295
31.3928
30.8991
30.9247
31.2904
30.7982
30.8231
31.1919
30.7001
30.7243
31.0968
30.6046
30.6282
31.0048
30.5115
30.5345
30.9156
30.4205
30.443
30.8288
30.3315
30.3535
30.7441
30.2442
30.2658
30.6612
30.164
30.1809
30.5807
8578.59
16051.7
28921.7
8645.88
16022.2
28195.4
8587.62
16020.5
28807.9
8606.85
15988.2
28337.1
8663.85
16048.5
28044.2
8615.84
16022.9
28548
8608.05
16019.6
28679
8765.36
8780.37
8735.75
16022.5
8578
16155.7
29155.9
8561.01
16080.7
29075.7
8692.54
16014.5
27502
8707.35
16012.4
27367.8
8692.65
16056.5
27641.9
8678.21
16065.1
27794.3
)
;

boundaryField
{
    topAndBottom
    {
        type            slip;
    }
    inlet
    {
        type            fixedValue;
        value           nonuniform List<scalar> 0();
    }
    outlet
    {
        type            inletOutlet;
        inletValue      uniform 32;
        value           nonuniform List<scalar> 
32
(
28.2
28.0275
27.9242
27.8733
130.7
111.656
75.5255
67.7239
51.5026
47.7828
39.8412
37.9859
33.9946
33.0579
31.039
30.5643
29.6734
29.1921
28.8406
28.581
28.388
96.847
85.0607
61.2895
55.9513
44.6642
42.0447
36.4228
35.1054
32.2679
31.6014
30.164
)
;
    }
    wing
    {
        type            omegaWallFunction;
        value           nonuniform List<scalar> 
13
(
28921.7
28195.4
28807.9
28337.1
28044.2
28548
28679
29155.9
29075.7
27502
27367.8
27641.9
27794.3
)
;
    }
    front
    {
        type            empty;
    }
    back
    {
        type            empty;
    }
    procBoundary3to1
    {
        type            processor;
        value           nonuniform List<scalar> 
136
(
3271.03
3271.03
1833.37
3100.54
2182.57
2082
1909.86
1788.5
8867.54
4383.22
8802.3
2080.79
4354.73
2652.35
8846.8
4383.24
1115.72
1474.58
840.852
1031.59
674.282
791.96
562.976
642.484
483.642
540.732
424.441
467.274
378.71
411.935
342.414
368.873
312.954
334.488
288.591
306.44
268.112
283.145
250.654
263.493
235.581
246.683
222.42
232.127
210.813
219.385
200.48
208.119
191.207
198.07
182.823
189.034
175.191
180.849
168.199
173.386
161.76
166.541
155.839
160.227
1904.56
1558.91
1416.51
1354.35
1192.79
1192.79
2939.86
2524.4
1621.45
1745.31
1828.96
1828.96
1984.01
2791.14
2290.35
1988.62
1214.54
1332.23
896.15
959.165
709.418
748.418
587.169
613.565
501.241
520.219
437.774
452.023
389.132
400.186
350.764
359.57
319.784
326.954
294.277
300.221
272.92
277.927
254.774
259.05
239.154
242.852
225.552
228.786
213.585
216.441
202.956
205.501
193.436
195.723
184.844
186.913
177.034
178.92
169.892
171.621
163.323
164.916
157.248
158.723
1558.91
1484.88
1513.11
1417.41
1297.37
2405.69
1903.77
1332.02
1256.94
1243.36
8802.3
16033.2
16033.2
16040.5
27141.6
27141.6
)
;
    }
    procBoundary3to2
    {
        type            processor;
        value           nonuniform List<scalar> 
51
(
31.4819
31.0272
30.7199
30.7199
30.6035
30.5407
30.5061
2615.32
317.411
317.411
2126.68
707.108
268.995
147.036
3196.17
1128.03
3757.53
126.345
93.9
564.47
1728.07
908.63
908.63
66.3886
77.6904
213.179
1397.97
57.9186
51.6976
41.0346
39.0016
35.1399
34.3279
31.8847
31.2115
30.8916
381.479
174.35
43.6619
47.111
36.1475
37.4091
33.1356
33.67
460.759
32.6998
32.3307
109.182
8602.26
16253.3
29251.2
)
;
    }
}


// ************************************************************************* //
