/*--------------------------------*- C++ -*----------------------------------*\
| =========                 |                                                 |
| \\      /  F ield         | OpenFOAM: The Open Source CFD Toolbox           |
|  \\    /   O peration     | Version:  v2012                                 |
|   \\  /    A nd           | Website:  www.openfoam.com                      |
|    \\/     M anipulation  |                                                 |
\*---------------------------------------------------------------------------*/
FoamFile
{
    version     2.0;
    format      ascii;
    class       volScalarField;
    location    "0";
    object      p;
}
// * * * * * * * * * * * * * * * * * * * * * * * * * * * * * * * * * * * * * //

dimensions      [0 2 -2 0 0 0 0];


internalField   nonuniform List<scalar> 
3019
(
-775.027
-916.987
-957.856
-915.11
-849.536
-785.737
-714.455
-675.244
-627.36
-609.814
-599.111
-593.71
224.556
-390.041
-603.535
-673.849
-682.913
-667.465
-630.008
-609.435
-574.663
-563.885
-557.101
-553.591
179.606
-169.441
-381.039
-490.667
-540.312
-557.397
-547.031
-542.169
-519.955
-515.441
-512.317
-510.624
125.635
-88.0191
-254.904
-364.127
-428.112
-462.578
-470.631
-477.423
-465.952
-466.66
-466.645
-466.537
88.8914
-55.4705
-181.053
-276.103
-341.429
-383.284
-403.079
-417.616
-414.521
-419.226
-421.65
-422.769
64.8493
-40.2928
-136.575
-215.884
-276.104
-319.253
-344.963
-363.885
-366.811
-374.258
-378.451
-380.456
48.5228
-32.0781
-107.832
-173.553
-226.844
-267.925
-295.69
-316.529
-323.338
-332.439
-337.76
-340.382
37.0221
-26.9803
-87.973
-142.651
-188.99
-226.56
-254.075
-275.182
-284.23
-294.112
-300.037
-302.994
28.6736
-23.4113
-73.4301
-119.231
-159.244
-192.862
-218.867
-239.217
-249.298
-259.327
-265.453
-268.537
22.4665
-20.6563
-62.2525
-100.876
-135.342
-165.051
-188.932
-207.941
-218.22
-227.965
-234.004
-237.061
17.7628
-18.3714
-53.3171
-86.067
-115.737
-141.792
-163.312
-180.688
-190.623
-199.807
-205.565
-208.492
14.1425
-16.3809
-45.945
-73.8251
-99.3579
-122.088
-141.223
-156.861
-166.118
-174.581
-179.937
-182.666
11.3201
-14.5913
-39.7093
-63.4979
-85.4539
-105.199
-122.035
-135.941
-144.332
-151.993
-156.878
-159.373
9.09505
-12.9502
-34.329
-54.6362
-73.4848
-90.5639
-105.242
-117.482
-124.916
-131.75
-136.134
-138.377
7.32336
-11.4267
-29.6124
-46.9217
-63.0541
-77.755
-90.436
-101.109
-107.552
-113.569
-117.447
-119.432
5.89881
-10.0012
-25.4222
-40.1206
-53.8615
-66.4368
-77.2816
-86.4968
-91.9539
-97.1817
-100.564
-102.296
4.7419
-8.66038
-21.6571
-34.0568
-45.6753
-56.3429
-65.5017
-73.3692
-77.8618
-82.3394
-85.2442
-86.7314
3.79178
-7.3937
-18.2385
-28.5921
-38.3104
-47.2558
-54.863
-61.4856
-65.0437
-68.8129
-71.2626
-72.5166
3.00115
-6.19238
-15.1039
-23.6156
-31.6162
-38.9949
-45.167
-50.6363
-53.2856
-56.3857
-58.4029
-59.4346
2.33254
-5.04849
-12.2015
-19.0358
-25.4672
-31.4076
-36.2417
-40.6362
-42.409
-44.8771
-46.4843
-47.3067
1.75564
-3.95418
-9.4869
-14.7747
-19.7558
-24.3616
-27.9353
-31.318
-32.1859
-34.0452
-35.2562
-35.8729
1.24568
-2.90129
-6.92114
-10.7649
-14.3893
-17.7418
-20.1136
-22.5391
-22.6319
-23.9254
-24.7704
-25.21
0.783485
-1.87986
-4.46835
-6.94646
-9.28579
-11.4452
-12.6446
-14.1456
-12.9299
-13.6234
-14.0745
-14.2804
0.365463
-0.874677
-2.09344
-3.26404
-4.37187
-5.38414
-5.31642
-5.97655
-5.71452
-6.08243
-6.28991
-6.4626
-831.325
-864.799
-1034.24
312.877
-787.217
177.659
-403.358
-938.358
284.637
321.568
-973.537
-62.5605
-139.458
-191.373
-480.331
-840.122
-1161.31
-481.314
-1207.5
-1206.65
-1221.39
-392.067
196.604
-123.366
-296.366
-900.85
-1139.71
-1161.27
-140.811
-378.067
-118.691
341.793
-1401.48
-1395.28
373.064
133.72
-1178.39
-1012.61
-1018.8
-1020.08
-1183.23
-810.902
-969.321
-590.347
-606.447
-761.913
-400.409
-553.755
-493.241
-1193.89
-1352.64
-1386.59
-1190.45
-1046.09
-1079.72
-974.041
-966.671
-814.431
-1504.85
-1493.55
-1391.54
-1377.46
-817.881
-833.171
-664.31
-665.28
-760.907
-201.125
-350.585
-1507.97
-1393.62
-1464.32
-1031.78
-1031.95
-1021.55
-1126.79
-847.143
-831.772
-818.309
-962.054
-912.259
-904.14
-591.042
-649.399
-649.272
-474.809
-475.786
-520.444
-1322.73
-1323.05
-1379.14
-1200.56
-1256.59
-1270.42
-1064.51
-1004.42
-981.95
-914.401
-892.853
-833.134
-512.484
-593.765
-822.918
-491.2
-650.569
-959.158
-679.708
-724.193
-929.516
-729.242
-727.206
-866.299
-722.85
-703.983
-800.89
251.784
19.5488
-86.788
-205.557
-383.695
-568.334
-425.413
-511.877
-664.096
-530.694
-566.481
-683.907
-573.155
-582.899
-672.424
191.608
266.382
137.899
-46.2362
-94.2528
-101.635
-242.661
-339.729
-280.625
-369.047
-470.271
-391.301
-441.32
-531.801
-453.352
-478.949
-555.115
131.001
172.852
96.6442
-23.3582
-37.8684
-61.3013
-165.522
-218.711
-195.994
-273.644
-341.776
-295.079
-347.253
-415.414
-361.015
-393.29
-456.012
94.9134
120.332
69.9846
-15.6402
-20.6294
-43.1956
-121.8
-152.334
-145.841
-210.193
-255.297
-228.937
-277.17
-327.586
-290.716
-324.574
-374.551
71.3807
88.1261
52.0661
-12.7268
-14.6454
-33.7453
-94.8269
-113.891
-113.992
-166.904
-197.852
-182.866
-225.476
-262.779
-237.934
-270.344
-309.81
55.1004
66.7652
39.5508
-11.4496
-12.3156
-28.0703
-76.809
-89.6769
-92.3363
-136.058
-158.244
-149.553
-186.487
-214.715
-197.585
-227.258
-258.66
43.3536
51.8129
30.5284
-10.7228
-11.2386
-24.2079
-63.9223
-73.2057
-76.6924
-113.119
-129.711
-124.536
-156.324
-178.239
-166.058
-192.596
-217.91
34.6048
40.9293
23.857
-10.1503
-10.5735
-21.2914
-54.1699
-61.2444
-64.8024
-95.3945
-108.277
-105.084
-132.39
-149.837
-140.864
-164.292
-185.008
27.9261
32.7686
18.8235
-9.58776
-10.0115
-18.91
-46.446
-52.0798
-55.3833
-81.2456
-91.5704
-89.497
-112.952
-127.162
-120.3
-140.826
-158.037
22.7247
26.5054
14.9633
-8.989
-9.44218
-16.8569
-40.1045
-44.7497
-47.6678
-69.639
-78.1367
-76.6847
-96.8369
-108.648
-103.195
-121.088
-135.593
18.6062
21.6059
11.963
-8.34645
-8.83233
-15.0232
-34.7507
-38.6852
-41.1789
-59.902
-67.0502
-65.9275
-83.2397
-93.2272
-88.7301
-104.266
-116.649
15.2978
17.7119
9.60392
-7.66709
-8.17965
-13.3485
-30.1312
-33.5347
-35.6054
-51.5796
-57.7031
-56.7333
-71.5897
-80.1631
-76.3191
-89.7576
-100.454
12.6056
14.5732
7.73012
-6.96233
-7.49282
-11.7977
-26.0768
-29.0699
-30.7375
-44.3553
-49.6808
-48.7567
-61.475
-68.9306
-65.5352
-77.1081
-86.446
10.3881
12.0114
6.22715
-6.24352
-6.78353
-10.3492
-22.469
-25.1368
-26.4265
-38.0002
-42.6926
-41.7458
-52.5886
-59.1485
-56.0573
-65.9675
-74.2019
8.53927
9.89478
5.00963
-5.52041
-6.0628
-8.98827
-19.221
-21.626
-22.5631
-32.3435
-36.5261
-35.5117
-44.6955
-50.5299
-47.6382
-56.0604
-63.3916
6.97857
8.12481
4.0127
-4.80063
-5.33991
-7.70391
-16.2671
-18.4572
-19.0643
-27.2538
-31.0224
-29.9086
-37.6119
-42.8551
-40.0833
-47.1661
-53.7557
5.64297
6.6257
3.18605
-4.08964
-4.62189
-6.48701
-13.5551
-15.5683
-15.8639
-22.6259
-26.0571
-24.8192
-31.1886
-35.9494
-33.234
-39.1019
-45.0837
4.48243
5.33816
2.49
-3.39109
-3.91373
-5.32951
-11.0419
-12.9097
-12.9079
-18.3742
-21.5308
-20.148
-25.3028
-29.6712
-26.9594
-31.7156
-37.2013
3.45619
4.21472
1.89271
-2.70688
-3.21865
-4.22353
-8.69095
-10.4403
-10.1501
-14.4258
-17.3613
-15.8139
-19.85
-23.9028
-21.1478
-24.8759
-29.9622
2.53018
3.21649
1.36805
-2.03736
-2.53816
-3.16113
-6.46991
-8.12471
-7.55063
-10.7183
-13.4786
-11.7472
-14.7404
-18.5437
-15.7033
-18.4693
-23.2399
1.67589
2.31088
0.895286
-1.38025
-1.87208
-2.13292
-4.34882
-5.9314
-5.0728
-7.19601
-9.82241
-7.88613
-9.89486
-13.5071
-10.541
-12.3954
-16.9245
0.873254
1.47084
0.462342
-0.729326
-1.21725
-1.12723
-2.29968
-3.83082
-2.68321
-3.80951
-6.33846
-4.17615
-5.24432
-8.71645
-5.5878
-6.56967
-10.9186
-0.0159301
0.68516
-0.0812173
-0.231963
-0.563054
-0.288086
-0.463203
-1.79293
-0.522906
-0.703164
-2.97643
-0.76337
-0.943946
-4.10233
-1.00426
-1.19748
-5.13862
-880.143
-873.306
-825.752
-877.172
-963.566
-955.537
-1349.36
-1383.38
-992.174
185.531
444.054
-767.096
-614.658
-666.133
57.8878
-14.5297
115.631
-595.105
-444.217
-216.472
-869.609
-538.781
-668.55
325.433
365.75
-1111.55
-1140.25
-911.342
-1218.97
-1216.93
-1485.47
-1477.91
-2.84004
74.3164
8.84158
-220.265
-170.673
-84.8487
-318.901
-527.615
-428.183
-592.493
-536.506
-413.178
-838.163
-669.24
-713.114
-1162.79
-1116.48
-1114.99
-362.698
-423.772
-415.28
-573.484
-566.072
-421.597
-1256.68
-1256.93
-1206.4
-1226.34
-1314.78
-1346.2
-1303.1
-1308.31
-1223.58
-1393.05
-1384.98
-354.266
-261.535
-304.915
-259.665
-307.062
-26.1927
-156.468
79.6407
66.8332
247.085
-163.249
-57.6477
-27.3785
-164.709
-105.922
-218.565
-979.695
-971.884
-889.285
-1139.01
-1055.1
-1059.42
-1046.64
-1050.42
-1137.79
-207.039
-118.223
-48.7832
-302.339
-203.147
-286.771
67.339
-105.977
-214.996
357.314
468.476
435.364
-1442.68
-1446.15
-1395.02
144.596
61.4727
287.137
219.84
302.011
74.3175
144.799
207.823
-1120.04
-1117.74
-1165.63
-1013.98
-1061.48
-1051.74
-1068.07
-1065.06
-1015.93
-654.493
-646.427
-597.89
-758.647
-688.517
-704.516
-451.678
-437.476
-382.657
-539.979
-488.255
-502.11
-1360.97
-1313.04
-1307.11
-1094.56
-1259.62
-1337.78
-1206.68
-1234.73
-1090.39
-969.915
-921.279
-925.325
-910.884
-917.314
-967.908
-819.72
-866.793
-859.165
-1386.89
-1432.84
-1438.57
-1422.7
-1427.89
-1384.89
-1471.47
-1465.23
-154.887
-209.306
-253.305
-229.872
-178.863
-328.443
-277.98
-297.714
-815.191
-785.292
-754.71
-728.367
-705.917
-687.441
-686.716
-707.051
-791.551
-754.778
-797.571
-940.054
-857.482
-862.099
-951.854
-850.293
-841.139
-899.477
-806.496
-793.87
-832.946
-696.663
-689.465
-738.126
-672.505
-656.854
-693.478
-642.833
-630.896
-658.978
245.496
136.246
105.994
-311.484
-387.076
-464.432
-535.769
-566.514
-630.115
-622.234
-631.944
-679.904
-644.543
-644.798
-680.432
-583.504
-593.117
-640.739
-587.951
-581.789
-619.337
-575.568
-569.849
-600.067
164.501
80.2355
82.4699
-141.021
-202.114
-234.968
-342.827
-377.578
-416.088
-454.25
-472.216
-507.386
-509.395
-517.379
-546.842
-484.508
-504.5
-547.551
-507.799
-509.08
-544.851
-509.134
-508.504
-538.849
114.828
63.496
68.161
-77.158
-120.471
-135.189
-232.482
-263.615
-287.429
-339.148
-358.843
-383.686
-404.479
-415.897
-438.985
-401.369
-426.771
-464.241
-435.67
-442.023
-474.705
-446.593
-449.808
-478.9
81.9247
46.9294
50.6857
-50.6418
-82.0667
-89.3951
-167.878
-193.244
-207.802
-258.893
-277.348
-295.025
-323.279
-335.726
-353.789
-333.696
-360.803
-392.301
-372.854
-382.287
-411.222
-389.701
-395.52
-422.506
60.1854
34.5301
37.2673
-37.7983
-61.5199
-65.6517
-128.262
-148.738
-158.17
-203.932
-220.171
-232.703
-262.491
-274.557
-288.347
-279.469
-306.004
-332.111
-319.292
-330.214
-355.318
-339.168
-346.497
-370.981
45.276
25.5494
27.5316
-30.5964
-49.1364
-51.7406
-102.213
-118.863
-125.347
-164.944
-178.912
-188.073
-216.461
-227.535
-238.196
-235.865
-260.648
-282.258
-274.005
-285.339
-306.939
-294.888
-302.89
-324.763
34.6874
19.0111
20.4604
-25.982
-40.8696
-42.6736
-83.9346
-97.6332
-102.341
-136.209
-148.137
-155.062
-180.897
-190.786
-199.181
-200.458
-222.991
-240.96
-235.746
-246.819
-265.357
-256.33
-264.434
-283.819
26.9507
14.1984
15.2698
-22.6637
-34.8625
-36.2128
-70.3741
-81.7695
-85.3511
-114.238
-124.416
-129.82
-152.79
-161.498
-168.242
-171.339
-191.499
-206.559
-203.305
-213.728
-229.664
-222.811
-230.643
-247.754
21.169
10.6212
11.4202
-20.0499
-30.1934
-31.2668
-59.8407
-69.4075
-72.2395
-96.8864
-105.582
-109.919
-130.087
-137.696
-143.217
-147.069
-164.927
-177.665
-175.636
-185.21
-198.961
-193.645
-200.983
-216.062
16.7691
7.94237
8.54209
-17.8508
-26.3733
-27.2662
-51.3475
-59.4357
-61.7475
-82.7958
-90.238
-93.8033
-111.374
-117.993
-122.594
-126.575
-142.289
-153.169
-151.868
-160.514
-172.439
-168.194
-174.921
-188.215
13.3711
5.92635
6.37829
-15.9172
-23.1274
-23.8952
-44.2924
-51.1635
-53.0996
-71.0841
-77.4609
-80.4525
-95.6738
-101.413
-105.308
-109.059
-122.821
-132.2
-131.3
-139.009
-149.409
-145.9
-151.966
-163.706
10.7142
4.40538
4.74653
-14.1686
-20.2935
-20.9697
-38.2927
-44.1457
-45.8008
-61.1594
-66.6243
-69.178
-82.2977
-87.26
-90.602
-93.9215
-105.924
-114.083
-113.367
-120.169
-129.295
-126.279
-131.679
-142.075
8.61432
3.25742
3.5148
-12.5592
-17.7699
-18.3758
-33.0937
-38.0822
-39.5211
-52.6103
-57.2882
-59.5004
-70.7459
-75.0215
-77.9246
-80.7058
-91.1319
-98.29
-97.6133
-103.561
-111.619
-108.924
-113.677
-122.913
6.93817
2.39246
2.58618
-11.0617
-15.4904
-16.0402
-28.52
-32.7647
-34.0332
-45.1435
-49.1365
-51.0774
-60.6499
-64.3172
-66.8671
-69.0558
-78.0722
-84.4059
-83.6711
-88.8248
-95.9874
-93.4837
-97.623
-105.864
5.58715
1.74302
1.8882
-9.65853
-13.4086
-13.9125
-24.4444
-28.0415
-29.1733
-38.5415
-41.9329
-43.6555
-51.7284
-54.8547
-57.1175
-58.6896
-66.444
-72.0958
-71.2356
-75.6564
-82.0687
-79.66
-83.2242
-90.6153
4.48703
1.25794
1.36612
-8.33712
-11.4908
-11.9564
-20.7726
-23.7989
-24.8197
-32.6392
-35.4973
-37.0426
-43.7633
-46.4054
-48.4337
-49.3797
-56.0002
-61.0879
-60.0533
-63.7991
-69.5845
-67.1952
-70.2235
-76.8922
3.58076
0.897897
0.977988
-7.08753
-9.71044
-10.1439
-17.4304
-19.9479
-20.8781
-27.306
-29.6867
-31.0876
-36.579
-38.7845
-40.6212
-40.9371
-46.5334
-51.1562
-49.9087
-53.0319
-58.2968
-55.8644
-58.394
-64.4541
2.82384
0.632324
0.691281
-5.90133
-8.04608
-8.45236
-14.3584
-16.4171
-17.2732
-22.4367
-24.3856
-25.6687
-30.0322
-31.8407
-33.5207
-33.2033
-37.869
-42.111
-40.6184
-43.1641
-48.0008
-45.4718
-47.5355
-53.0869
2.18078
0.43709
0.480424
-4.77058
-6.47904
-6.86262
-11.5069
-13.1467
-13.9428
-17.9435
-19.4973
-20.6854
-24.0021
-25.4459
-26.9995
-26.0413
-29.8539
-33.7889
-32.0205
-34.0268
-38.5173
-35.8422
-37.4677
-42.6035
1.62272
0.29295
0.325091
-3.68742
-4.99252
-5.35747
-8.83295
-10.0856
-10.8338
-13.7511
-14.9391
-16.0517
-18.3852
-19.4901
-20.9434
-19.3324
-22.3544
-26.0473
-23.9725
-25.4693
-29.6865
-26.8168
-28.0233
-32.8188
1.12625
0.184915
0.209185
-2.64344
-3.57048
-3.92085
-6.2987
-7.18876
-7.89989
-9.79456
-10.6396
-11.6938
-13.0918
-13.878
-15.2536
-12.971
-15.2521
-18.7598
-16.3487
-17.363
-21.3687
-18.2697
-19.0803
-23.6223
0.67397
0.103465
0.121543
-1.62802
-2.19602
-2.53612
-3.8689
-4.41502
-5.09899
-6.0154
-6.53486
-7.54595
-8.04247
-8.52531
-9.84322
-6.87059
-8.45426
-11.8046
-9.05069
-9.5981
-13.4216
-10.0689
-10.484
-14.7242
0.256418
0.0424705
0.0639509
-0.635371
-0.858568
-1.18325
-1.51808
-1.73394
-2.39093
-2.36834
-2.57484
-3.54785
-3.17504
-3.36691
-4.63523
-1.26921
-2.34637
-4.97957
-2.52981
-2.7073
-5.64416
-2.88647
-3.00736
-6.45715
-1136.86
-1132.44
-1022.77
264.833
362.218
392.204
-779.977
-735.127
-736.342
-916.684
-815.682
-841.185
-1362.71
-1357.02
-240.487
-311.837
-267.319
-1205.38
-1252.66
-1254.22
47.241
-6.17106
-1117.66
-1113.06
-1161.14
-50.1692
-104.01
-174.61
138.416
88.2398
-1046.47
-1144.81
-1176.08
-1081.21
-1112.97
-1026.17
-959.222
-1019.7
-1050.03
-962.544
-990.51
-936.614
-872.073
-910.841
-935.979
-864.732
-887.098
-852.137
-542.098
-623.486
-598.985
-672.258
-646.888
-568.646
-807.515
-726.713
-745.705
-559.491
-670.308
-612.135
-743.438
-713.036
-611.321
-954.144
-827.699
-846.587
-700.707
-778.172
-764.518
-788.746
-785.774
-715.055
-942.077
-861.657
-857.371
-730.939
-784.798
-788.165
-772.26
-779.292
-730.051
-883.059
-830.446
-818.762
-717.307
-755.214
-764.144
-736.04
-745.767
-710.923
-816.685
-781.124
-768.476
164.222
154.197
252.337
2.68511
39.3258
-46.8049
-275.051
-324.879
-251.637
-435.593
-385.57
-333.959
-522.807
-447.885
-496.712
-460.018
-509.953
-476.687
-557.938
-536.669
-488.528
-649.875
-590.377
-608.701
-545.692
-587.147
-574.501
-603.422
-596.639
-557.465
-683.04
-638.521
-642.589
-577.867
-610.584
-607.919
-611.748
-611.763
-581.055
-676.845
-643.735
-641.663
212.782
235.55
72.7574
76.8335
151.089
-57.5802
8.55522
13.007
-9.55932
1.38592
-73.0429
-153.086
-175.074
-118.894
-270.477
-225.662
-200.14
-291.359
-255.83
-302.486
-314.108
-343.891
-309.74
-399.179
-373.551
-343.443
-445.599
-407.41
-432.811
-410.572
-440.007
-421.208
-469.296
-455.924
-427.147
-520.952
-487.144
-499.422
-463.483
-489.605
-480.428
-503.073
-497.087
-471.95
-551.702
-523.668
-528.496
143.093
156.875
54.7182
58.9992
105.255
-26.9326
16.6664
16.387
15.3856
16.4268
-31.6347
-98.0183
-108.248
-68.411
-180.7
-145.733
-132.806
-178.796
-160.891
-198.255
-224.167
-242.643
-213.007
-294.083
-269.643
-250.036
-316.313
-291.696
-316.827
-314.412
-335.711
-316.077
-368.554
-353.144
-331.758
-400.685
-376.139
-391.285
-373.177
-393.944
-382.1
-413.191
-404.258
-383.891
-448.234
-425.733
-434.132
102.457
110.879
40.2355
43.4506
75.6524
-16.9076
13.9676
12.9533
15.7618
14.9238
-18.5322
-70.3672
-75.7882
-46.6039
-130.717
-103.849
-96.5857
-121.721
-112.157
-140.821
-168.624
-180.255
-156.214
-223.771
-202.782
-190.086
-232.547
-216.871
-238.747
-246.327
-261.166
-243.225
-292.697
-277.638
-262.391
-312.151
-294.178
-309.46
-303.088
-318.857
-306.412
-340.266
-330.112
-314.353
-364.789
-346.899
-356.892
76.4373
81.9957
29.6791
32.0064
55.9401
-13.2317
9.90012
8.94213
11.9206
10.8968
-13.8588
-54.6361
-57.8744
-35.6359
-100.518
-79.5068
-74.9993
-90.1962
-84.5413
-106.838
-132.431
-140.196
-120.771
-176.326
-158.728
-150.083
-178.608
-168.199
-186.605
-197.95
-208.62
-192.961
-237.021
-223.303
-212.152
-248.325
-235.33
-249.427
-249.548
-261.648
-249.793
-282.75
-272.618
-260.342
-299.561
-285.669
-295.869
58.6659
62.5416
22.026
23.7185
42.2942
-11.6922
6.35539
5.59544
8.02968
7.16692
-11.9764
-44.6355
-46.7798
-29.2689
-80.7247
-63.9306
-60.8798
-70.9412
-67.2695
-84.9968
-107.417
-112.906
-97.0665
-142.891
-128.194
-122.003
-142.165
-134.894
-150.265
-162.465
-170.397
-156.966
-195.281
-183.171
-174.78
-201.794
-192.156
-204.671
-208.075
-217.512
-206.726
-237.161
-227.65
-217.964
-248.791
-237.908
-247.593
45.9626
48.7751
16.4241
17.6686
32.5282
-10.8808
3.61407
3.04714
4.88623
4.22641
-11.0511
-37.6553
-39.2026
-25.0617
-66.7921
-53.1102
-50.8909
-58.0798
-55.4989
-69.8774
-89.1706
-93.2546
-80.1848
-118.282
-105.964
-101.322
-116.265
-110.933
-123.8
-135.553
-141.647
-130.184
-163.197
-152.656
-146.153
-166.928
-159.568
-170.49
-175.35
-182.855
-173.265
-200.612
-191.967
-184.197
-208.816
-200.16
-209.018
36.5688
38.6725
12.2793
13.2036
25.3486
-10.2892
1.59584
1.1876
2.52333
2.04029
-10.4297
-32.3981
-33.594
-21.959
-56.3847
-45.0673
-43.3559
-48.8215
-46.885
-58.7376
-75.233
-78.4037
-67.5043
-99.4392
-89.0564
-85.4376
-96.9756
-92.8949
-103.725
-114.489
-119.314
-109.531
-137.896
-128.773
-123.595
-140.026
-134.241
-143.703
-149.009
-155.097
-146.673
-170.879
-163.164
-156.822
-176.828
-169.822
-177.755
29.4383
31.0496
9.18612
9.87789
19.9569
-9.73092
0.158687
-0.12579
0.813406
0.471102
-9.872
-28.1978
-29.1721
-19.4687
-48.2276
-38.7574
-37.3757
-41.7398
-40.2097
-50.1025
-64.1732
-66.7229
-57.5546
-84.5116
-75.7142
-72.7992
-82.0188
-78.7828
-87.9483
-97.5399
-101.461
-93.0988
-117.461
-109.586
-105.362
-118.685
-114.021
-122.192
-127.4
-132.43
-125.079
-146.321
-139.51
-134.246
-150.781
-145.014
-152.032
23.9107
25.1691
6.86324
7.38368
15.8374
-9.14286
-0.829281
-1.01919
-0.384133
-0.618085
-9.29392
-24.6905
-25.5156
-17.3465
-41.5849
-33.5947
-32.4395
-36.0583
-34.7996
-43.1315
-55.1192
-57.2287
-49.4665
-72.3435
-64.8585
-62.4467
-70.0255
-67.382
-75.1731
-83.5729
-86.8312
-79.6716
-100.603
-93.8115
-90.2934
-101.334
-97.4881
-104.536
-109.361
-113.587
-107.197
-125.735
-119.766
-115.329
-129.212
-124.387
-130.548
19.5509
20.5494
5.1125
5.50513
12.6457
-8.51093
-1.47535
-1.59374
-1.1893
-1.34093
-8.67294
-21.6664
-22.3851
-15.465
-36.0122
-29.2342
-28.2423
-31.3299
-30.2625
-37.3225
-47.5192
-49.3052
-42.7052
-62.1887
-55.8027
-53.763
-60.1382
-57.9257
-64.5692
-71.831
-74.5896
-68.454
-86.4374
-80.5868
-77.6044
-86.9229
-83.6903
-89.7637
-94.069
-97.6709
-92.1343
-108.246
-103.042
-99.2507
-111.071
-106.977
-112.355
16.0607
16.8644
3.791
4.08741
10.143
-7.83979
-1.86342
-1.92806
-1.6972
-1.78677
-8.0107
-18.9976
-19.6366
-13.7545
-31.2276
-25.4613
-24.5922
-27.2843
-26.358
-32.3613
-41.0092
-42.5497
-36.9259
-53.5469
-48.0923
-46.3361
-51.8014
-49.9127
-55.5864
-61.7906
-64.1637
-58.9063
-74.3446
-69.312
-66.7449
-74.7356
-71.9736
-77.2002
-80.9274
-84.0382
-79.2552
-93.2057
-88.6885
-85.4096
-95.602
-92.0817
-96.7544
13.2294
13.8845
2.79423
3.01762
8.15992
-7.14026
-2.05801
-2.08249
-1.98151
-2.02458
-7.31715
-16.6029
-17.1793
-12.1751
-27.0446
-22.1362
-21.3631
-23.7494
-22.9312
-28.0417
-35.3408
-36.6896
-31.8973
-46.0722
-41.4163
-39.8817
-44.6404
-43.0016
-47.8462
-53.0806
-55.1496
-50.6517
-63.878
-59.5603
-57.3218
-64.2673
-61.874
-66.3617
-69.4976
-72.2147
-68.0978
-80.126
-76.2243
-73.3575
-82.2451
-79.1834
-83.2244
10.9043
11.4448
2.04433
2.21214
6.5732
-6.42397
-2.10848
-2.10322
-2.09867
-2.10714
-6.60402
-14.4271
-14.9529
-10.7027
-23.3342
-19.164
-18.4676
-20.6108
-19.878
-24.2231
-30.3367
-31.5332
-27.4585
-39.5176
-35.5542
-34.1959
-38.3948
-36.9531
-41.0809
-45.4286
-47.2546
-43.4192
-54.7089
-51.0193
-49.0443
-55.1547
-53.055
-56.8943
-59.4463
-61.8454
-58.319
-68.6352
-65.2843
-62.7518
-70.5832
-67.892
-71.3679
8.97165
9.42309
1.48263
1.60805
5.29107
-5.70113
-2.05255
-2.02547
-2.09184
-2.0748
-5.88197
-12.431
-12.9149
-9.32094
-20.0031
-16.4762
-15.8425
-17.788
-17.1245
-20.8044
-25.8661
-26.9396
-23.4918
-33.6999
-30.3433
-29.1273
-32.8758
-31.5922
-35.0934
-38.6288
-40.2581
-37.0059
-46.5864
-43.4528
-41.6912
-47.1266
-45.2638
-48.5302
-50.5158
-52.6556
-49.6551
-58.441
-55.5843
-53.325
-60.2944
-57.9053
-60.8745
7.34544
7.7272
1.06438
1.15753
4.24422
-4.97993
-1.91898
-1.87616
-1.99396
-1.95835
-5.15972
-10.5849
-11.0337
-8.01834
-16.9811
-14.0219
-13.4398
-15.2226
-14.6159
-17.7108
-21.8293
-22.8025
-19.9087
-28.4792
-25.6601
-24.5598
-27.9424
-26.7872
-29.7348
-32.5217
-33.991
-31.257
-39.3156
-36.6782
-35.0904
-39.9764
-38.3062
-41.0626
-42.5016
-44.4292
-41.9002
-49.3108
-46.8995
-44.864
-51.1274
-48.9855
-51.4989
5.95867
6.28598
0.754949
0.823692
3.37906
-4.26633
-1.72975
-1.6758
-1.83017
-1.78128
-4.44376
-8.86498
-9.28425
-6.78536
-14.2129
-11.7606
-11.2215
-12.8693
-12.3097
-14.8837
-18.1464
-19.0377
-16.6391
-23.7445
-21.4067
-20.401
-23.4851
-22.4343
-24.8878
-26.9789
-28.3177
-26.0489
-32.7396
-30.5488
-29.1028
-33.5409
-32.0275
-34.3258
-35.2365
-36.9906
-34.8877
-41.0533
-39.046
-37.1937
-42.8791
-40.9396
-43.0402
4.75851
5.04355
0.527208
0.57774
2.65362
-3.56443
-1.50166
-1.44014
-1.61967
-1.56156
-3.73865
-7.25147
-7.64587
-5.61375
-11.6537
-9.65964
-9.15606
-10.6919
-10.1715
-12.276
-14.7527
-15.5772
-13.6266
-19.406
-17.5041
-16.5752
-19.416
-18.4507
-20.4578
-21.8953
-23.1283
-21.2813
-26.7299
-24.9451
-23.6142
-27.6879
-26.3026
-28.1855
-28.5819
-30.1952
-28.4806
-33.5096
-31.8717
-30.1684
-35.3825
-33.6087
-35.3327
3.70212
3.95481
0.359675
0.396925
2.03429
-2.87653
-1.2475
-1.18108
-1.37717
-1.31291
-3.04714
-5.7267
-6.10046
-4.49561
-9.26529
-7.69075
-7.21622
-8.66032
-8.17203
-9.84829
-11.5929
-12.3636
-10.8232
-15.388
-13.8855
-13.0184
-15.6631
-14.7669
-16.3662
-17.1815
-18.3296
-16.8698
-21.1777
-19.7661
-18.5274
-22.3083
-21.0261
-22.5283
-22.4193
-23.9197
-22.5628
-26.5436
-25.2467
-23.6629
-28.498
-26.8578
-28.235
2.75392
2.98255
0.235179
0.263042
1.49363
-2.20343
-0.976907
-0.907508
-1.11378
-1.04569
-2.37035
-4.27447
-4.63161
-3.42312
-7.01465
-5.82911
-5.37771
-6.74801
-6.28576
-7.5661
-8.61931
-9.34767
-8.18772
-11.6257
-10.4939
-9.67542
-12.1647
-11.3234
-12.5456
-12.7612
-13.8426
-12.7423
-15.9901
-14.9256
-13.7593
-17.3085
-16.1083
-17.2575
-16.6466
-18.0584
-17.0348
-20.0377
-19.0595
-17.5694
-22.1048
-20.5709
-21.625
1.8841
2.09565
0.141122
0.162254
1.00952
-1.54364
-0.696095
-0.624574
-0.837553
-0.767079
-1.70754
-2.87839
-3.2231
-2.38739
-4.87134
-4.05136
-3.61729
-4.93118
-4.48919
-5.3987
-5.78888
-6.48533
-5.68279
-8.0621
-7.27859
-6.49676
-8.86717
-8.06847
-8.93728
-8.5665
-9.59749
-8.83529
-11.0855
-10.3479
-9.23636
-12.6083
-11.4715
-12.2892
-11.1739
-12.5185
-11.8094
-13.8885
-13.2117
-11.7926
-16.0988
-14.6469
-15.3965
1.06982
1.26866
0.0723454
0.0874733
0.567332
-0.891562
-0.405688
-0.331647
-0.552439
-0.479659
-1.05453
-1.52135
-1.85754
-1.37686
-2.80636
-2.33426
-1.91238
-3.18669
-2.75921
-3.31688
-3.06279
-3.73623
-3.27376
-4.64566
-4.19362
-3.4383
-5.72248
-4.95504
-5.48863
-4.53784
-5.53223
-5.09201
-6.39193
-5.96576
-4.8941
-8.13621
-7.04637
-7.54918
-5.92375
-7.21891
-6.80995
-8.00596
-7.61774
-6.25142
-10.3876
-8.99683
-9.45533
0.349503
0.487634
-0.126365
0.0781497
0.20913
-0.206273
-0.0663567
-0.179383
-0.252284
-0.186096
-0.40998
-0.345386
-0.486407
-0.347272
-0.7617
-0.624661
-0.403963
-1.48953
-1.08035
-1.30018
-0.582869
-1.03236
-0.897623
-1.29799
-1.16585
-0.64298
-2.68532
-1.94769
-2.15922
-0.82357
-1.55763
-1.42864
-1.80981
-1.68477
-0.883756
-3.82745
-2.77841
-2.97864
-1.06512
-2.05264
-1.93251
-2.28614
-2.17023
-1.12804
-4.89118
-3.55316
-3.73025
-1361.02
-1245.35
-1241.74
-1249.77
-1247.99
-1372.04
-1008.84
-1126.67
-1119.22
264.635
309.164
229.883
390.706
351.619
482.071
468.931
-714.846
-723.454
-772.646
-624.789
-675.575
-663.838
156.321
104.804
51.3033
-358.776
-421.779
-501.978
-281.022
-352.243
-282.592
-752.619
-787.028
-894.925
-589.604
-685.027
-641.967
406.673
379.246
308.747
468.946
471.724
-1062.64
-1067.08
-1143.78
-921.204
-996.748
-987.488
-1376.97
-1369.3
-1216.97
-1293.11
-1297.86
-1288.14
-1290.32
-1219.01
-391.251
-352.983
-288.947
-495.322
-421.41
-453.102
-346.377
-385.807
-462.849
-767.313
-778.413
-853.196
-515.636
-528.161
-579.564
-428.29
-482.512
-467.325
-1300.81
-1297.13
-1342.81
-130.603
-87.0299
-100.791
-54.6328
-103.561
8.30139
-52.357
9.65169
232.149
178.201
-756.094
-744.468
-770.516
-638.698
-635.302
-661.706
-531.949
-534.367
-558.664
-441.128
-446.908
-468.265
-365.671
-373.259
-391.361
-305.084
-313.226
-328.256
-256.503
-264.487
-276.929
-217.269
-224.737
-235.077
-185.212
-192.009
-200.668
-158.673
-164.757
-172.07
-136.405
-141.792
-148.026
-117.486
-122.219
-127.578
-101.225
-105.356
-110.001
-87.0978
-90.684
-94.7385
-74.7041
-77.7972
-81.362
-63.7274
-66.3749
-69.5307
-53.9152
-56.1597
-58.9727
-45.0603
-46.9383
-49.4641
-36.9906
-38.5331
-40.8179
-29.5587
-30.7914
-32.8755
-22.6371
-23.5805
-25.499
-16.1143
-16.7843
-18.5677
-9.89032
-10.2961
-11.9715
-3.88412
-4.01454
-5.59892
290.962
354.098
332.221
394.545
393.299
340.056
-1051.51
-1140.16
-1140.05
-17.2439
65.4618
82.6084
-552.179
-479.245
-517.589
-756.527
-722.577
-632.624
473.828
467.334
239.162
181.028
168.195
-125.017
-180.504
-233.822
-1236.95
-1230.44
-1324.6
-798.788
-823.311
-843.79
-689.433
-716.058
-726.298
-583.348
-608.901
-610.804
-488.907
-511.685
-507.868
-408.252
-428.043
-420.988
-341.678
-358.19
-349.502
-287.596
-301.268
-292.181
-243.621
-254.955
-246.153
-207.602
-217.053
-208.875
-177.78
-185.729
-178.313
-152.8
-159.545
-152.922
-131.628
-137.402
-131.547
-113.484
-118.468
-113.33
-97.7737
-102.11
-97.6291
-84.0391
-87.8376
-83.954
-71.9204
-75.2716
-71.9277
-61.1307
-64.1075
-61.2514
-51.4367
-54.0996
-51.6855
-42.6438
-45.0435
-43.032
-34.588
-36.7678
-35.1257
-27.1271
-29.1243
-27.8244
-20.1375
-21.9848
-21.0052
-13.5089
-15.2352
-14.5591
-7.15335
-8.77823
-8.39142
-1.29838
-2.58467
-2.40515
-1428.78
-1447.01
-1459.26
-1174.21
-1177.7
-1186.56
-1377.97
-1379.09
-1385.32
-1215.94
-1225.89
-1231.71
-1123.92
-1129.32
-1135.56
-1278.17
-1289.16
-1297.62
-1326.77
-1334.41
-1342.37
-802.759
-753.513
-854.541
-865.087
-1516.15
-1523.99
-1529.69
-1478.96
-1495
-1504.97
-962.902
-968.74
-973.17
-918.178
-931.167
-940.001
-1008.36
-1006.49
-1010.08
-1052.92
-1059.62
-1063.97
)
;

boundaryField
{
    topAndBottom
    {
        type            slip;
    }
    inlet
    {
        type            zeroGradient;
    }
    outlet
    {
        type            fixedValue;
        value           uniform 0;
    }
    wing
    {
        type            zeroGradient;
    }
    front
    {
        type            empty;
    }
    back
    {
        type            empty;
    }
    procBoundary3to1
    {
        type            processor;
        value           nonuniform List<scalar> 
136
(
-342.661
-342.661
471.692
-282.122
78.8786
124.256
423.883
507.861
-583.335
-489.942
-685.622
343.239
-395.251
-126.99
-636.465
-467.006
255.119
367.622
172.618
229.648
124.663
158.343
93.8765
115.747
72.7587
87.877
57.5769
68.5068
46.2723
54.4455
37.6223
43.8969
30.856
35.7775
25.4659
29.3952
21.1035
24.29
17.523
20.143
14.5451
16.7279
12.0363
13.8783
9.89496
11.4699
8.04188
9.40738
6.41386
7.61595
4.95937
6.0358
3.63506
4.61764
2.40336
3.31983
1.23307
2.10598
0.0572258
0.951128
559.66
480.128
581.966
557.87
520.974
520.974
-242.188
-75.7841
522.46
561.988
253.675
253.675
392.456
-188.386
27.3366
171.819
286.169
324.655
188.984
207.86
134.613
145.769
100.463
107.721
77.3738
82.3963
60.9469
64.5806
48.8115
51.5299
39.5836
41.6714
32.402
34.0401
26.7055
28.0136
22.1126
23.1735
18.3555
19.228
15.241
15.9679
12.6255
13.239
10.4005
10.9251
8.48179
8.93662
6.80273
7.20317
5.30921
5.66783
3.95606
4.28339
2.7045
3.00981
1.52112
1.81193
0.425125
0.667498
480.128
583.064
483.857
445.428
548.025
-26.6026
215.779
411.909
416.592
538.631
-685.622
-801.42
-801.42
-757.82
-871.653
-871.653
)
;
    }
    procBoundary3to2
    {
        type            processor;
        value           nonuniform List<scalar> 
51
(
-791.926
-733.856
-674.523
-674.523
-650.606
-636.262
-629.137
-1535.22
-1429.07
-1429.07
-1527.98
-1466.95
-1518.72
-1459.42
-1550.53
-1509.31
-1560.44
-1439.93
-1432.08
-1456.28
-1521.41
-1478.05
-1478.05
-1338.3
-1384.9
-1498.13
-1515.34
-1291.1
-1245.53
-1118.44
-1080.1
-978.351
-948.754
-829.271
-760.412
-710.959
-1436.61
-1478.95
-1158.88
-1201.33
-1010.08
-1044.02
-895.474
-921.158
-1445.63
-871.758
-850.431
-1420.57
-1553.41
-1553.38
-1558.04
)
;
    }
}


// ************************************************************************* //
