/*--------------------------------*- C++ -*----------------------------------*\
| =========                 |                                                 |
| \\      /  F ield         | OpenFOAM: The Open Source CFD Toolbox           |
|  \\    /   O peration     | Version:  v2012                                 |
|   \\  /    A nd           | Website:  www.openfoam.com                      |
|    \\/     M anipulation  |                                                 |
\*---------------------------------------------------------------------------*/
FoamFile
{
    version     2.0;
    format      ascii;
    class       volVectorField;
    location    "0";
    object      U;
}
// * * * * * * * * * * * * * * * * * * * * * * * * * * * * * * * * * * * * * //

dimensions      [0 1 -1 0 0 0 0];


internalField   nonuniform List<vector> 
3019
(
(104.331 -26.8222 -3.86735e-19)
(107.248 -16.7364 0)
(106.926 -11.4445 2.86823e-20)
(105.583 -7.97394 0)
(104.092 -5.67943 9.10781e-20)
(102.778 -4.12501 1.22019e-18)
(101.543 -2.96582 -1.29853e-18)
(100.895 -2.19548 0)
(100.108 -1.49525 0)
(99.7658 -1.03103 5.27314e-19)
(99.5569 -0.596546 9.76417e-20)
(99.4487 -0.198019 -2.97189e-19)
(97.2582 -17.1391 0)
(102.485 -13.7899 0)
(103.505 -10.5213 1.08045e-18)
(103.18 -7.88055 0)
(102.404 -5.89783 0)
(101.568 -4.42721 -9.87684e-19)
(100.687 -3.22769 -1.76455e-18)
(100.233 -2.42496 -6.50459e-19)
(99.5886 -1.64367 -8.43793e-19)
(99.3128 -1.13317 8.4955e-19)
(99.141 -0.656909 0)
(99.0509 -0.21814 7.98972e-19)
(98.6333 -10.8463 -5.51729e-29)
(100.499 -10.5224 0)
(101.319 -8.94694 0)
(101.335 -7.21191 0)
(100.951 -5.6831 0)
(100.443 -4.42569 -1.97152e-19)
(99.8518 -3.30174 0)
(99.5538 -2.52354 0)
(99.045 -1.71759 -1.57476e-18)
(98.8318 -1.18662 7.93277e-19)
(98.6953 -0.690482 3.33363e-20)
(98.6232 -0.229478 -5.51989e-19)
(99.3884 -8.25732 4.51547e-33)
(99.8091 -8.21118 0)
(100.072 -7.44342 0)
(100.036 -6.35385 0)
(99.7937 -5.23406 0)
(99.4685 -4.22002 0)
(99.0871 -3.23706 -5.63823e-19)
(98.8984 -2.51617 8.65001e-19)
(98.5044 -1.72675 4.9176e-19)
(98.3445 -1.19795 8.5626e-19)
(98.2384 -0.700291 -9.7628e-19)
(98.1823 -0.232776 0)
(99.7973 -6.64272 9.65236e-38)
(99.5218 -6.6303 0)
(99.3521 -6.20617 0)
(99.1534 -5.50757 0)
(98.9133 -4.70677 0)
(98.6723 -3.916 0)
(98.4082 -3.07405 0)
(98.2912 -2.43006 0)
(97.9861 -1.68513 1.70403e-18)
(97.8676 -1.17527 -1.62758e-18)
(97.7856 -0.690056 -1.10537e-19)
(97.7423 -0.229525 1.03965e-19)
(100.018 -5.50928 0)
(99.3683 -5.49305 0)
(98.9059 -5.22743 0)
(98.5468 -4.75729 0)
(98.254 -4.17639 0)
(98.0294 -3.56167 0)
(97.8213 -2.85369 0)
(97.7431 -2.28989 0)
(97.5015 -1.60558 0)
(97.4123 -1.12545 0)
(97.3485 -0.664749 0)
(97.3149 -0.221657 0)
(100.137 -4.65751 0)
(99.2655 -4.63372 0)
(98.6068 -4.44838 0)
(98.1154 -4.11447 0)
(97.7551 -3.68209 0)
(97.5132 -3.20025 0)
(97.3218 -2.60877 0)
(97.2584 -2.12092 0)
(97.0571 -1.50268 0)
(96.9862 -1.05826 0)
(96.9344 -0.628354 0)
(96.908 -0.209605 0)
(100.198 -3.98947 0)
(99.1852 -3.95952 0)
(98.3914 -3.81887 0)
(97.7965 -3.56958 0)
(97.3705 -3.23834 0)
(97.0967 -2.85524 0)
(96.8989 -2.36049 0)
(96.8339 -1.94032 0)
(96.6553 -1.38765 0)
(96.5937 -0.981453 0)
(96.5486 -0.585489 0)
(96.5266 -0.195226 0)
(100.225 -3.45005 -5.23462e-34)
(99.1164 -3.41582 0)
(98.2269 -3.30235 0)
(97.552 -3.10814 0)
(97.0676 -2.84724 0)
(96.7571 -2.53759 0)
(96.5403 -2.12156 0)
(96.4638 -1.75975 0)
(96.2948 -1.26878 0)
(96.2357 -0.900845 0)
(96.1933 -0.539609 0)
(96.1737 -0.179824 0)
(100.23 -3.00556 0)
(99.0547 -2.96858 0)
(98.0952 -2.87302 0)
(97.3582 -2.71634 0)
(96.824 -2.50569 0)
(96.4768 -2.25129 0)
(96.2351 -1.89897 0)
(96.1412 -1.58661 0)
(95.9729 -1.15186 0)
(95.9119 -0.820608 0)
(95.8691 -0.493282 0)
(95.8501 -0.16429 0)
(100.221 -2.63409 -6.64492e-34)
(98.9979 -2.59552 0)
(97.986 -2.51261 0)
(97.2005 -2.38259 0)
(96.6241 -2.20884 0)
(96.2425 -1.99663 0)
(95.9737 -1.69599 0)
(95.8597 -1.42524 0)
(95.6864 -1.0407 0)
(95.6202 -0.743582 0)
(95.5751 -0.448314 0)
(95.5554 -0.149234 0)
(100.203 -2.32061 0)
(98.9451 -2.28127 0)
(97.893 -2.20781 0)
(97.0691 -2.09747 0)
(96.4573 -1.95153 0)
(96.0444 -1.77211 0)
(95.7484 -1.51362 0)
(95.6134 -1.27782 0)
(95.4315 -0.937571 0)
(95.3583 -0.671558 0)
(95.3095 -0.405898 0)
(95.2884 -0.135053 0)
(100.179 -2.05444 2.17492e-34)
(98.8954 -2.01489 0)
(97.8121 -1.94881 0)
(96.9575 -1.85349 0)
(96.316 -1.72898 0)
(95.875 -1.57545 0)
(95.5529 -1.3516 0)
(95.397 -1.14516 0)
(95.2046 -0.843666 0)
(95.1234 -0.605558 0)
(95.07 -0.366757 0)
(95.047 -0.121987 0)
(100.151 -1.82766 0)
(98.8485 -1.78826 0)
(97.7407 -1.72815 0)
(96.8613 -1.64459 0)
(96.1947 -1.53694 0)
(95.7287 -1.40413 0)
(95.3821 -1.20897 0)
(95.2061 -1.02722 0)
(95.0022 -0.759443 0)
(94.9127 -0.546063 0)
(94.8544 -0.331277 0)
(94.829 -0.11016 0)
(100.119 -1.63431 0)
(98.8042 -1.59529 0)
(97.6768 -1.54009 0)
(96.7773 -1.46595 0)
(96.0895 -1.37175 0)
(95.6013 -1.25573 0)
(95.2319 -1.08445 0)
(95.0369 -0.923489 0)
(94.8211 -0.684888 0)
(94.7233 -0.493189 0)
(94.6599 -0.299605 0)
(94.6322 -0.0996184 0)
(100.086 -1.46974 0)
(98.762 -1.43122 0)
(97.6191 -1.38013 0)
(96.703 -1.31361 0)
(95.9971 -1.23029 0)
(95.4892 -1.12796 0)
(95.0988 -0.976635 0)
(94.8861 -0.833171 0)
(94.6585 -0.619701 0)
(94.5526 -0.446823 0)
(94.4842 -0.271731 0)
(94.4539 -0.0903544 0)
(100.051 -1.33028 0)
(98.7218 -1.29231 0)
(97.5663 -1.24468 0)
(96.6365 -1.1844 0)
(95.9153 -1.10992 0)
(95.3898 -1.01879 0)
(94.9801 -0.884177 0)
(94.7509 -0.755388 0)
(94.5117 -0.563438 0)
(94.398 -0.406721 0)
(94.3247 -0.247554 0)
(94.292 -0.0823319 0)
(100.015 -1.21303 0)
(98.6834 -1.17561 0)
(97.5178 -1.13088 0)
(96.5765 -1.07571 0)
(95.8419 -1.00842 0)
(95.3008 -0.926457 0)
(94.8733 -0.805806 0)
(94.6288 -0.689257 0)
(94.3783 -0.515589 0)
(94.2571 -0.372578 0)
(94.1791 -0.22692 0)
(94.144 -0.0754963 0)
(99.9789 -1.11563 -3.10739e-35)
(98.6465 -1.07873 0)
(97.4727 -1.03642 0)
(96.5217 -0.985402 0)
(95.7755 -0.923942 0)
(95.2203 -0.849433 0)
(94.7763 -0.740398 0)
(94.5175 -0.633958 0)
(94.2562 -0.475691 0)
(94.1279 -0.344088 0)
(94.0455 -0.20967 0)
(94.0079 -0.0697946 0)
(99.9422 -1.03622 0)
(98.6108 -0.999776 0)
(97.4304 -0.959452 0)
(96.4712 -0.91177 0)
(95.7147 -0.854967 0)
(95.1467 -0.786444 0)
(94.6874 -0.686985 0)
(94.4153 -0.588764 0)
(94.1429 -0.443176 0)
(94.0079 -0.32092 0)
(93.9211 -0.19561 0)
(93.8812 -0.065154 0)
(99.9053 -0.973302 0)
(98.5763 -0.937231 0)
(97.3903 -0.89848 0)
(96.4239 -0.853419 0)
(95.6584 -0.800255 0)
(95.0786 -0.736438 0)
(94.605 -0.644762 0)
(94.3202 -0.553085 0)
(94.0382 -0.418108 0)
(93.8968 -0.302939 0)
(93.8059 -0.184686 0)
(93.7639 -0.0615727 0)
(99.8685 -0.925712 0)
(98.5425 -0.889916 0)
(97.352 -0.852345 0)
(96.3793 -0.809254 0)
(95.6054 -0.758827 0)
(95.0149 -0.698579 0)
(94.5276 -0.613082 0)
(94.2309 -0.52639 0)
(93.9345 -0.398763 0)
(93.7864 -0.289532 0)
(93.6913 -0.176462 0)
(93.6467 -0.0588484 0)
(99.8317 -0.892598 0)
(98.5093 -0.856925 0)
(97.3149 -0.820141 0)
(96.3365 -0.778416 0)
(95.555 -0.729918 0)
(94.9542 -0.672238 0)
(94.454 -0.591443 0)
(94.1458 -0.508472 0)
(93.8517 -0.389867 0)
(93.6995 -0.281793 0)
(93.6011 -0.171775 0)
(93.555 -0.0574202 0)
(99.795 -0.873392 0)
(98.4764 -0.837576 0)
(97.2787 -0.801186 0)
(96.295 -0.760263 0)
(95.5063 -0.712946 0)
(94.8958 -0.657015 0)
(94.3861 -0.57963 0)
(94.0683 -0.498204 0)
(93.7139 -0.377697 0)
(93.5516 -0.275181 0)
(93.4479 -0.167489 0)
(93.3986 -0.0558483 0)
(104.29 -27.5681 1.83517e-19)
(105.035 -27.1347 0)
(108.41 -18.4403 -1.73772e-18)
(96.0171 -18.2076 0)
(103.932 -27.4697 0)
(97.4219 -18.4449 1.68257e-19)
(102.757 -15.7393 -6.52461e-19)
(107.501 -18.2708 -2.08783e-19)
(97.6217 -11.235 1.0228e-27)
(96.0169 -17.484 -1.68663e-22)
(107.666 -22.8443 7.82894e-19)
(98.3416 -23.4605 2.68845e-20)
(98.9017 -24.1242 0)
(99.7608 -23.5665 2.28175e-19)
(103.401 -20.5159 -9.42156e-20)
(106.505 -22.3877 -1.849e-18)
(106.424 -28.3613 1.24484e-19)
(101.468 -26.3439 0)
(106.641 -28.4238 0)
(107.403 -28.1458 -1.27219e-19)
(109.137 -25.8335 7.50375e-19)
(100.794 -25.8574 1.70787e-19)
(98.3563 -11.7917 -4.97126e-28)
(100.36 -11.6083 0)
(101.842 -14.6342 4.0841e-19)
(106.43 -25.0114 -7.42988e-19)
(108.447 -25.6679 -2.32799e-23)
(107.108 -28.0661 0)
(100.601 -17.2382 0)
(102.539 -19.7484 -2.3523e-20)
(99.2199 -22.9564 3.37001e-20)
(96.5445 -13.7979 -2.99633e-25)
(98.2702 -27.5862 0)
(107.263 -28.4777 -3.67172e-20)
(92.642 -22.0828 3.408e-20)
(96.9903 -21.2791 2.0591e-19)
(99.9033 -28.1889 0)
(101.081 -28.441 -2.43947e-19)
(105.591 -28.0916 3.4388e-19)
(97.6023 -27.9603 0)
(96.1787 -27.6504 7.60347e-18)
(98.9409 -28.2324 0)
(97.8597 -28.0538 1.00036e-18)
(88.3918 -26.6868 6.8477e-19)
(99.3861 -27.9826 -1.46831e-19)
(99.1791 -28.2493 -4.3281e-20)
(98.7969 -27.2848 -2.88517e-19)
(99.3045 -27.8435 1.32069e-19)
(89.3141 -26.7327 1.1459e-19)
(95.5266 -27.5086 0)
(107.194 -28.4982 7.63517e-20)
(98.6828 -27.7389 9.50568e-19)
(98.9091 -27.9538 0)
(108.455 -17.5604 1.10527e-18)
(108.317 -12.6472 1.98687e-18)
(105.275 -28.0285 1.05707e-19)
(101.205 -28.4856 -9.83333e-19)
(101.365 -28.3134 0)
(104.605 -28.1678 1.47041e-18)
(107.318 -28.4424 -1.4167e-18)
(108.497 -28.3152 0)
(109.818 -27.3067 -2.82549e-19)
(91.1853 -27.1046 0)
(90.5135 -27.0069 0)
(88.1488 -26.6207 0)
(91.828 -27.1667 -4.58777e-18)
(90.8336 -27.0719 6.00851e-18)
(97.8036 -26.2198 9.28541e-20)
(98.5541 -27.1083 2.56489e-19)
(101 -27.6168 -4.34224e-18)
(101.466 -27.9087 9.38547e-18)
(100.594 -27.7228 -7.98008e-18)
(96.7177 -27.7581 0)
(93.3488 -27.2747 0)
(93.8095 -27.3761 -7.34979e-19)
(95.8342 -27.6655 3.36338e-18)
(98.5141 -28.1668 -1.0162e-19)
(94.1605 -27.512 0)
(95.2486 -27.7351 1.00132e-19)
(93.6497 -27.3598 -4.17439e-18)
(93.1505 -27.3732 0)
(98.0925 -28.1726 1.05003e-19)
(93.4951 -27.5448 0)
(92.9328 -27.3807 -4.366e-19)
(88.7829 -26.728 -8.81074e-19)
(90.2233 -26.8749 -1.29534e-19)
(94.311 -27.5008 -2.60848e-19)
(93.944 -27.4939 1.26337e-19)
(98.4746 -27.7675 5.44856e-18)
(102.376 -28.3153 1.58876e-19)
(102.221 -28.1755 0)
(102.866 -28.477 0)
(102.527 -28.4601 -1.47745e-19)
(97.9684 -27.8094 0)
(107.954 -11.4632 -2.87902e-20)
(106.693 -8.61342 8.88743e-19)
(106.247 -7.85693 -8.82211e-19)
(104.94 -6.02593 7.43029e-19)
(104.53 -5.53408 -1.88636e-19)
(103.412 -4.32166 -3.10334e-20)
(102.251 -25.6727 1.33975e-20)
(103.897 -23.7165 0)
(105.776 -24.7306 0)
(103.39 -14.6652 -1.95827e-18)
(104.218 -11.7053 0)
(107.165 -12.5653 2.57324e-20)
(104.242 -10.8454 0)
(103.922 -8.60888 1.16925e-18)
(105.953 -8.70992 0)
(103.733 -7.97441 -1.23482e-18)
(103.051 -6.35017 5.16635e-19)
(104.455 -6.16958 0)
(102.809 -5.89175 3.34399e-20)
(102.094 -4.71639 0)
(103.083 -4.46002 -6.07815e-19)
(97.5167 -14.0385 2.81665e-25)
(99.4657 -14.0623 0)
(100.195 -16.3801 0)
(100.811 -11.2541 0)
(101.643 -9.85502 0)
(103.432 -11.2856 0)
(101.76 -9.34974 0)
(101.804 -7.8729 0)
(103.326 -8.47384 -3.37177e-20)
(101.742 -7.41022 0)
(101.422 -6.14685 0)
(102.613 -6.33913 1.10184e-18)
(101.288 -5.76694 6.40252e-19)
(100.856 -4.75071 0)
(101.771 -4.75397 -3.5382e-21)
(98.8958 -8.36258 5.30154e-33)
(97.769 -10.321 5.86643e-29)
(99.2375 -8.78226 -4.98464e-33)
(99.7692 -8.81595 0)
(100.131 -10.7808 0)
(99.925 -8.70635 0)
(100.264 -8.07296 0)
(101.209 -9.38239 0)
(100.32 -7.79816 0)
(100.347 -6.8858 0)
(101.383 -7.63317 0)
(100.316 -6.57112 0)
(100.136 -5.65078 0)
(101.067 -6.04028 0)
(100.056 -5.35822 0)
(99.7867 -4.53727 0)
(100.571 -4.71509 0)
(99.6576 -6.72266 3.65135e-33)
(99.1427 -7.88152 -4.79834e-33)
(99.7177 -6.98954 -3.44221e-33)
(99.5978 -7.01618 0)
(99.7077 -8.29496 0)
(99.5755 -6.97512 0)
(99.5248 -6.6472 0)
(100.037 -7.68101 0)
(99.4992 -6.48905 0)
(99.3907 -5.92105 0)
(100.068 -6.63729 0)
(99.3433 -5.71149 0)
(99.1735 -5.05957 0)
(99.8669 -5.50691 0)
(99.1103 -4.84114 0)
(98.9163 -4.20313 0)
(99.55 -4.45985 0)
(100.04 -5.59569 0)
(99.7774 -6.40571 -1.02345e-37)
(99.9744 -5.76091 0)
(99.5243 -5.76769 0)
(99.5749 -6.66394 0)
(99.4001 -5.74645 0)
(99.0908 -5.55005 0)
(99.3957 -6.34565 0)
(99.0002 -5.45113 0)
(98.7543 -5.0783 0)
(99.2075 -5.69764 0)
(98.6788 -4.93468 0)
(98.4673 -4.46883 0)
(98.9759 -4.90935 0)
(98.4017 -4.3066 0)
(98.2258 -3.81541 0)
(98.7281 -4.10888 0)
(100.245 -4.74906 0)
(100.103 -5.36297 0)
(100.114 -4.8504 0)
(99.4745 -4.84388 0)
(99.5107 -5.51213 0)
(99.2884 -4.82843 0)
(98.8098 -4.6948 0)
(99.0099 -5.31661 0)
(98.672 -4.62743 0)
(98.3138 -4.36793 0)
(98.6294 -4.88876 0)
(98.2107 -4.26548 0)
(97.9436 -3.92363 0)
(98.3217 -4.32732 0)
(97.8676 -3.80121 0)
(97.6799 -3.42016 0)
(98.0771 -3.71554 0)
(100.359 -4.08117 0)
(100.28 -4.56794 0)
(100.187 -4.14274 0)
(99.4301 -4.12787 0)
(99.4632 -4.64853 0)
(99.2039 -4.11415 0)
(98.6112 -4.01382 0)
(98.7542 -4.51033 0)
(98.4395 -3.96444 0)
(97.9947 -3.77359 0)
(98.2247 -4.20924 0)
(97.8681 -3.69741 0)
(97.5467 -3.4387 0)
(97.8342 -3.79655 0)
(97.4579 -3.3443 0)
(97.2456 -3.04429 0)
(97.562 -3.32333 0)
(100.42 -3.53837 0)
(100.378 -3.93526 0)
(100.221 -3.57494 0)
(99.3865 -3.55475 0)
(99.4192 -3.97304 0)
(99.1328 -3.54162 0)
(98.4606 -3.46082 0)
(98.57 -3.86501 0)
(98.2644 -3.42245 0)
(97.7534 -3.27532 0)
(97.9283 -3.64077 0)
(97.6076 -3.21646 0)
(97.2384 -3.01471 0)
(97.4625 -3.32712 0)
(97.1371 -2.9402 0)
(96.8959 -2.69983 0)
(97.1511 -2.95463 0)
(100.448 -3.08856 4.63523e-34)
(100.429 -3.41816 5.52694e-34)
(100.23 -3.10912 -4.39314e-34)
(99.3428 -3.08552 0)
(99.3756 -3.42886 0)
(99.0696 -3.07271 0)
(98.3401 -3.00448 0)
(98.4282 -3.33865 0)
(98.1257 -2.97328 0)
(97.564 -2.85539 0)
(97.7019 -3.1636 0)
(97.4028 -2.80843 0)
(96.9931 -2.6468 0)
(97.172 -2.91772 0)
(96.8803 -2.58669 0)
(96.6103 -2.39067 0)
(96.8192 -2.61887 0)
(100.455 -2.71092 0)
(100.451 -2.98803 0)
(100.225 -2.72102 0)
(99.2993 -2.69527 0)
(99.3319 -2.98132 0)
(99.0117 -2.68277 0)
(98.2397 -2.62328 0)
(98.3134 -2.90282 0)
(98.0116 -2.59705 0)
(97.4107 -2.49964 0)
(97.5227 -2.76092 0)
(97.2371 -2.46113 0)
(96.7935 -2.32862 0)
(96.9394 -2.56285 0)
(96.6706 -2.27915 0)
(96.3736 -2.11666 0)
(96.547 -2.31864 0)
(100.448 -2.39104 -5.95406e-34)
(100.455 -2.62599 7.00312e-34)
(100.209 -2.39418 5.65322e-34)
(99.2563 -2.36713 0)
(99.2885 -2.60794 0)
(98.958 -2.35498 0)
(98.1535 -2.30199 0)
(98.217 -2.53783 0)
(97.915 -2.27938 0)
(97.2833 -2.19692 0)
(97.3767 -2.41937 0)
(97.0998 -2.16463 0)
(96.628 -2.05382 0)
(96.7493 -2.25609 0)
(96.4963 -2.01242 0)
(96.1749 -1.87573 0)
(96.3207 -2.05317 0)
(100.431 -2.11859 0)
(100.444 -2.31882 0)
(100.186 -2.11701 0)
(99.2141 -2.08925 0)
(99.2457 -2.29333 0)
(98.9075 -2.07748 0)
(98.0782 -2.02955 0)
(98.1338 -2.22966 0)
(97.8313 -2.00971 0)
(97.1753 -1.93856 0)
(97.2547 -2.12846 0)
(96.9838 -1.91098 0)
(96.4885 -1.81678 0)
(96.5909 -1.99123 0)
(96.3492 -1.7816 0)
(96.006 -1.66512 0)
(96.1301 -1.82012 0)
(100.406 -1.88581 -1.96031e-34)
(100.425 -2.05693 -2.28829e-34)
(100.158 -1.88101 1.86431e-34)
(99.1729 -1.85291 0)
(99.2037 -2.02656 0)
(98.86 -1.84155 0)
(98.0111 -1.79773 0)
(98.0607 -1.96807 0)
(97.7578 -1.78006 0)
(97.0822 -1.71772 0)
(97.1508 -1.88006 0)
(96.8841 -1.69381 0)
(96.3692 -1.61257 0)
(96.4569 -1.76282 0)
(96.2234 -1.5823 0)
(95.8608 -1.48189 0)
(95.9676 -1.61666 0)
(100.376 -1.68679 0)
(100.399 -1.83309 0)
(100.127 -1.67979 0)
(99.1328 -1.65161 0)
(99.1628 -1.79952 0)
(98.815 -1.64066 0)
(97.9507 -1.60024 0)
(97.9954 -1.74535 0)
(97.6921 -1.58431 0)
(97.0007 -1.529 0)
(97.0608 -1.66771 0)
(96.7973 -1.508 0)
(96.2658 -1.43707 0)
(96.342 -1.56615 0)
(96.1145 -1.41071 0)
(95.7347 -1.32325 0)
(95.8276 -1.43986 0)
(100.343 -1.5169 0)
(100.368 -1.64175 0)
(100.094 -1.5084 0)
(99.0939 -1.4803 0)
(99.123 -1.60614 0)
(98.7724 -1.46975 0)
(97.8957 -1.43219 0)
(97.9365 -1.55563 0)
(97.633 -1.4177 0)
(96.9286 -1.36807 0)
(96.9819 -1.48631 0)
(96.7207 -1.34942 0)
(96.1754 -1.28679 0)
(96.2421 -1.39726 0)
(96.0191 -1.26359 0)
(95.6243 -1.18665 0)
(95.7058 -1.28698 0)
(100.307 -1.37247 0)
(100.334 -1.47853 0)
(100.06 -1.36296 0)
(99.0562 -1.33503 0)
(99.0844 -1.44167 0)
(98.7317 -1.32485 0)
(97.8453 -1.28972 0)
(97.8827 -1.3943 0)
(97.5791 -1.27641 0)
(96.864 -1.23143 0)
(96.9118 -1.33175 0)
(96.6525 -1.21469 0)
(96.0953 -1.1588 0)
(96.1544 -1.2528 0)
(95.9349 -1.13817 0)
(95.5266 -1.06981 0)
(95.5988 -1.15553 0)
(100.27 -1.25055 0)
(100.298 -1.33998 0)
(100.024 -1.2404 0)
(99.0196 -1.21267 0)
(99.0469 -1.3024 0)
(98.6929 -1.20284 0)
(97.7986 -1.16976 0)
(97.8333 -1.25773 0)
(97.5296 -1.15744 0)
(96.8057 -1.11627 0)
(96.8489 -1.20073 0)
(96.591 -1.10108 0)
(96.0236 -1.05067 0)
(96.0766 -1.12999 0)
(95.8596 -1.03214 0)
(95.4394 -0.970795 0)
(95.5039 -1.04335 0)
(100.231 -1.14877 0)
(100.26 -1.2233 0)
(99.988 -1.13823 0)
(98.9839 -1.11072 0)
(99.0106 -1.18536 0)
(98.6556 -1.1012 0)
(97.755 -1.06985 0)
(97.7874 -1.14299 0)
(97.4837 -1.05833 0)
(96.7524 -1.02028 0)
(96.7919 -1.09056 0)
(96.535 -1.00635 0)
(95.9589 -0.960392 0)
(96.0068 -1.0265 0)
(95.7916 -0.943554 0)
(95.3608 -0.887921 0)
(95.419 -0.948531 0)
(100.193 -1.06523 0)
(100.222 -1.12624 3.25577e-35)
(99.9514 -1.05448 0)
(98.9492 -1.02718 0)
(98.9752 -1.08818 0)
(98.6196 -1.01792 0)
(97.7139 -0.987995 0)
(97.7445 -1.04776 0)
(97.4407 -0.977143 0)
(96.7031 -0.941611 0)
(96.7397 -0.999057 0)
(96.4835 -0.928696 0)
(95.8997 -0.886305 0)
(95.9436 -0.94041 0)
(95.7295 -0.87083 0)
(95.2891 -0.819789 0)
(95.3423 -0.86948 0)
(100.154 -0.998374 0)
(100.183 -1.047 0)
(99.9145 -0.987554 0)
(98.9152 -0.960432 0)
(98.9406 -1.00897 0)
(98.5848 -0.951398 0)
(97.675 -0.922616 0)
(97.704 -0.97016 0)
(97.4001 -0.912291 0)
(96.6571 -0.878753 0)
(96.6914 -0.924466 0)
(96.4355 -0.866638 0)
(95.8449 -0.827055 0)
(95.8856 -0.870148 0)
(95.6721 -0.812653 0)
(95.223 -0.765236 0)
(95.2721 -0.804857 0)
(100.115 -0.947021 1.21217e-34)
(100.144 -0.984124 0)
(99.8777 -0.936224 -1.15871e-34)
(98.8818 -0.909239 0)
(98.9068 -0.946219 0)
(98.5509 -0.900371 0)
(97.6377 -0.872465 0)
(97.6655 -0.908693 0)
(97.3614 -0.862542 0)
(96.6137 -0.830522 0)
(96.6461 -0.865365 0)
(96.3903 -0.819016 0)
(95.7935 -0.781569 0)
(95.8317 -0.81443 0)
(95.6184 -0.767984 0)
(95.1612 -0.723335 0)
(95.2072 -0.75356 0)
(100.077 -0.910269 -3.99072e-35)
(100.106 -0.936492 0)
(99.8409 -0.899554 3.81667e-35)
(98.8488 -0.87263 0)
(98.8735 -0.898751 0)
(98.5175 -0.86387 0)
(97.6015 -0.836566 0)
(97.6285 -0.862186 0)
(97.3241 -0.826927 0)
(96.5721 -0.795986 0)
(96.6031 -0.820636 0)
(96.3471 -0.784914 0)
(95.7447 -0.749 0)
(95.7811 -0.772244 0)
(95.5674 -0.736005 0)
(95.1027 -0.693367 0)
(95.1463 -0.714715 0)
(100.039 -0.887544 0)
(100.067 -0.903288 0)
(99.8041 -0.876914 0)
(98.816 -0.849893 0)
(98.8406 -0.865669 0)
(98.4845 -0.841167 0)
(97.5662 -0.814185 0)
(97.5926 -0.829728 0)
(97.2876 -0.804714 0)
(96.5318 -0.774439 0)
(96.5619 -0.789405 0)
(96.3052 -0.763641 0)
(95.6976 -0.728707 0)
(95.7328 -0.742798 0)
(95.5183 -0.716097 0)
(95.0465 -0.674801 0)
(95.0885 -0.687657 0)
(99.9982 -0.877909 -1.56542e-36)
(100.03 -0.884039 0)
(99.7638 -0.867414 1.51467e-36)
(98.7803 -0.840135 0)
(98.8079 -0.846304 0)
(98.4489 -0.831375 0)
(97.5284 -0.804445 0)
(97.5575 -0.810632 0)
(97.2488 -0.795039 0)
(96.4891 -0.76506 0)
(96.5219 -0.771017 0)
(96.261 -0.754387 0)
(95.6481 -0.71989 0)
(95.6861 -0.725491 0)
(95.4667 -0.707445 0)
(94.9877 -0.666645 0)
(95.0328 -0.671897 0)
(104.618 -27.7649 2.00157e-19)
(104.02 -28.0627 -9.50056e-20)
(103.728 -27.9211 -2.69893e-19)
(105.606 -26.4142 -4.12833e-19)
(106.311 -26.6839 4.12765e-19)
(105.742 -27.4053 4.61233e-19)
(111.288 -18.9012 -2.51843e-18)
(111.478 -22.3873 0)
(107.983 -21.6453 -1.97307e-19)
(96.6709 -20.4866 0)
(92.5738 -20.9936 -7.15471e-19)
(101.327 -28.2405 -8.89309e-20)
(100.878 -27.8453 2.82427e-19)
(102.847 -27.1818 7.28439e-19)
(98.7309 -18.1363 0)
(99.2084 -19.293 3.51282e-19)
(97.5859 -20.2711 0)
(104.395 -16.724 -1.01645e-18)
(103.172 -18.919 8.6713e-20)
(101.267 -16.7493 0)
(106.893 -21.2384 1.82722e-18)
(103.988 -19.5901 -9.7184e-19)
(105.101 -17.0852 0)
(96.8565 -13.0082 -7.21567e-26)
(95.8787 -15.817 0)
(108.879 -23.2093 0)
(108.713 -24.9728 -8.96672e-19)
(106.756 -24.3412 1.42282e-18)
(109.377 -25.1227 2.32914e-19)
(109.875 -23.0614 0)
(108.908 -28.3454 -1.66484e-19)
(109.758 -28.1037 0)
(97.2867 -23.9622 4.57477e-20)
(96.7657 -23.2079 -2.0325e-19)
(97.832 -22.769 5.71643e-20)
(99.5037 -24.7462 4.82552e-19)
(98.45 -25.3321 -1.61891e-19)
(97.8533 -24.669 1.44494e-19)
(101.645 -22.0024 -6.07182e-20)
(103.299 -23.3871 -6.26485e-19)
(101.588 -25.2075 3.91432e-20)
(104.359 -21.221 1.17432e-19)
(103.665 -22.2948 0)
(102.645 -21.4909 -1.82685e-20)
(106.139 -24.0828 0)
(104.781 -23.0027 1.41894e-18)
(105.399 -21.8478 -1.20546e-18)
(105.248 -28.5554 0)
(105.144 -28.5205 -1.83745e-19)
(106.176 -28.287 6.1632e-20)
(94.5751 -27.343 2.09494e-20)
(94.4715 -27.4674 -8.70458e-19)
(90.452 -26.8771 1.58513e-19)
(102.157 -26.7912 -5.65102e-19)
(100.66 -27.6817 -1.16984e-20)
(99.8273 -27.0877 1.00938e-19)
(106.851 -28.4813 7.03195e-20)
(105.279 -28.6268 0)
(105.272 -28.5801 0)
(108.442 -27.2905 -3.4916e-21)
(109.152 -27.4266 8.71278e-19)
(108.266 -28.3021 0)
(109.834 -25.9739 2.60671e-19)
(109.55 -26.7049 -5.66944e-19)
(108.843 -26.5629 -5.27582e-19)
(110.255 -26.8182 1.48186e-19)
(110.531 -26.0904 2.79185e-19)
(99.7071 -26.5153 -2.47736e-20)
(99.0728 -25.959 1.55654e-19)
(100.136 -25.3269 -1.71574e-19)
(94.8761 -26.991 -5.18396e-20)
(94.7318 -27.1557 -2.05634e-20)
(96.3684 -25.2125 -2.2234e-20)
(97.4983 -25.9602 7.04082e-20)
(99.1987 -11.9409 0)
(99.1972 -13.0963 0)
(97.6806 -13.2589 6.78607e-26)
(100.687 -12.5355 0)
(100.038 -12.9139 0)
(99.8332 -11.8591 0)
(100.847 -16.0016 0)
(100.381 -14.1133 0)
(101.164 -13.5535 0)
(107.094 -25.2581 0)
(106.739 -25.9609 4.35923e-19)
(106.051 -25.7007 3.64274e-19)
(108.136 -26.3913 1.45485e-18)
(107.434 -26.1913 -9.08645e-19)
(107.765 -25.4802 2.26694e-19)
(106.443 -27.6405 -1.05507e-18)
(107.019 -26.9184 4.69435e-19)
(107.729 -27.12 -7.62573e-19)
(101.131 -18.0836 -2.31572e-19)
(100.275 -18.6986 2.17287e-20)
(99.7669 -17.7047 0)
(101.732 -20.6157 -1.1057e-18)
(100.937 -19.6786 -4.08677e-19)
(101.778 -18.9327 3.74666e-19)
(97.9006 -20.9742 -1.95607e-19)
(99.8794 -20.4241 -7.66793e-20)
(100.704 -21.5113 1.25239e-18)
(96.2087 -14.7199 0)
(94.5549 -14.2714 2.81392e-22)
(95.1655 -13.3979 0)
(107.294 -28.4818 3.23166e-19)
(104.781 -28.3361 0)
(105.068 -28.4006 -7.84451e-19)
(95.3798 -23.6197 -1.09955e-19)
(95.8615 -24.4555 -1.90334e-20)
(94.5524 -21.8542 1.01171e-18)
(94.957 -22.7481 -2.79311e-19)
(92.9688 -23.0776 -3.78029e-19)
(97.3793 -22.0338 -8.5883e-20)
(96.3054 -22.4092 1.16725e-19)
(95.9072 -21.5804 0)
(100.377 -28.3802 -1.29578e-19)
(103.358 -28.6114 0)
(103.206 -28.5662 0)
(103.4 -28.5242 1.76658e-19)
(103.406 -28.5628 0)
(100.76 -28.3761 1.28355e-19)
(105.885 -28.255 1.25523e-19)
(104.98 -28.4627 1.22249e-19)
(104.778 -28.3777 1.11977e-19)
(99.3894 -28.0727 -7.85896e-20)
(96.749 -27.9348 -7.33675e-20)
(97.0249 -27.9343 1.54219e-19)
(95.8001 -27.9124 3.90486e-20)
(96.2842 -27.8911 8.1392e-20)
(99.3092 -28.1618 -1.21066e-19)
(98.9977 -27.5048 -2.15169e-19)
(97.2243 -27.5874 1.70073e-19)
(97.1513 -27.4039 5.02487e-20)
(97.172 -27.8275 -1.35584e-19)
(97.2408 -27.7139 0)
(99.1672 -27.6839 0)
(105.289 -28.5283 1.58695e-19)
(105.315 -28.6171 0)
(107.047 -28.512 -7.11313e-20)
(108.798 -15.4842 -1.99497e-18)
(110.33 -15.5717 0)
(111.147 -17.8817 2.20177e-18)
(109.53 -12.5997 1.94791e-18)
(109.992 -14.0078 -2.24234e-18)
(108.626 -13.9861 1.3642e-20)
(104.557 -28.2973 -8.7468e-19)
(104.293 -28.1856 3.1243e-19)
(104.958 -27.8498 -2.00504e-19)
(101.252 -28.46 1.5703e-19)
(103.181 -28.4046 -2.09538e-19)
(103.322 -28.4811 5.04073e-19)
(102.844 -28.1852 0)
(103.022 -28.2953 0)
(101.319 -28.3771 -1.00965e-19)
(109.17 -28.0296 -1.45594e-19)
(109.473 -28.0766 1.55694e-19)
(108.716 -28.3419 -3.15585e-19)
(110.146 -27.4143 0)
(109.902 -27.7431 -2.98499e-19)
(109.54 -27.715 9.9387e-22)
(110.22 -27.7791 -1.56467e-19)
(110.502 -27.4067 0)
(94.9322 -26.5538 2.26228e-20)
(94.9393 -26.7998 -3.70463e-20)
(98.0642 -26.5686 6.70006e-20)
(96.8428 -26.7424 6.19786e-20)
(96.6669 -26.4666 -9.33538e-20)
(97.0698 -27.1993 -2.01917e-19)
(96.9676 -26.9762 4.06245e-20)
(98.3204 -26.7896 -2.20584e-19)
(103.078 -3.98765 -8.13287e-20)
(102.45 -3.20081 -7.25717e-19)
(101.951 -2.75256 6.15529e-19)
(101.547 -2.35967 -6.35319e-19)
(101.204 -2.02513 -9.49396e-21)
(100.888 -1.71311 5.93077e-19)
(103.631 -26.4776 -6.73454e-19)
(104.216 -25.7743 6.4356e-19)
(104.907 -26.1105 7.03056e-19)
(105.776 -16.1657 -2.86954e-18)
(106.042 -14.7964 2.87485e-18)
(107.36 -15.2171 0)
(105.958 -11.3241 0)
(105.764 -10.3772 -2.03322e-19)
(106.638 -10.4352 2.05001e-19)
(104.938 -8.02832 1.47547e-18)
(104.622 -7.3854 -1.45609e-18)
(105.206 -7.31081 0)
(103.656 -5.78562 6.31432e-19)
(103.344 -5.34417 6.2027e-19)
(103.741 -5.23433 -6.77953e-19)
(101.866 -4.38101 3.33813e-20)
(101.475 -3.61092 -3.12549e-19)
(101.969 -3.44105 1.63979e-18)
(101.117 -3.12289 1.88978e-20)
(100.824 -2.69689 5.49791e-19)
(101.194 -2.55066 0)
(100.569 -2.32484 -4.1594e-19)
(100.323 -1.97354 0)
(100.614 -1.88624 0)
(97.2617 -15.9637 0)
(98.3204 -15.9399 0)
(98.4515 -16.9967 0)
(101.774 -12.9034 0)
(102.24 -12.2152 0)
(102.962 -12.937 0)
(102.847 -10.15 0)
(102.878 -9.50121 0)
(103.5 -9.79136 -1.05785e-18)
(102.663 -7.75072 0)
(102.524 -7.23317 1.10108e-18)
(103.007 -7.3269 -1.25802e-18)
(102.014 -5.87703 0)
(101.829 -5.48197 -6.69257e-21)
(102.191 -5.48753 9.50032e-20)
(100.711 -4.44731 2.00814e-19)
(100.496 -3.76098 -4.94975e-19)
(100.98 -3.71527 8.2176e-19)
(100.263 -3.28495 1.29416e-19)
(100.071 -2.86553 1.18628e-19)
(100.448 -2.80064 1.04457e-18)
(99.8922 -2.48732 -4.84072e-19)
(99.7112 -2.12493 -6.27144e-20)
(100.02 -2.09363 6.36448e-20)
(98.8651 -10.0602 -6.19198e-30)
(99.3282 -10.1435 0)
(99.253 -10.9696 0)
(100.258 -9.85615 0)
(100.508 -9.59315 0)
(100.806 -10.1882 0)
(100.935 -8.55239 0)
(100.993 -8.16546 0)
(101.381 -8.50503 0)
(100.964 -7.00322 0)
(100.904 -6.63024 0)
(101.263 -6.80537 0)
(100.633 -5.58507 0)
(100.525 -5.26468 0)
(100.828 -5.34377 0)
(99.6949 -4.28326 0)
(99.5971 -3.71364 0)
(100.032 -3.75623 2.38632e-19)
(99.4596 -3.28493 0)
(99.3405 -2.89364 -4.37163e-19)
(99.7007 -2.89544 1.0344e-19)
(99.2211 -2.52986 1.63901e-19)
(99.0945 -2.17848 4.22123e-19)
(99.4011 -2.19451 0)
(99.5163 -7.79006 4.11008e-33)
(99.5956 -7.79189 0)
(99.5372 -8.27091 0)
(99.7157 -7.7611 0)
(99.7704 -7.64687 0)
(99.9052 -8.07299 0)
(99.8552 -7.10696 0)
(99.8559 -6.88162 0)
(100.088 -7.18707 0)
(99.7828 -6.13603 0)
(99.736 -5.8765 0)
(99.9904 -6.06874 0)
(99.5494 -5.10573 0)
(99.4769 -4.85687 0)
(99.7152 -4.96813 0)
(98.8559 -3.99918 0)
(98.8177 -3.5413 0)
(99.1929 -3.64062 0)
(98.7363 -3.16536 7.67319e-19)
(98.6642 -2.81533 0)
(98.994 -2.86516 -1.00699e-18)
(98.5879 -2.48106 -7.66451e-19)
(98.5021 -2.15223 7.87149e-19)
(98.7938 -2.20481 -3.896e-19)
(99.8656 -6.32478 0)
(99.768 -6.30674 0)
(99.7331 -6.62685 0)
(99.4757 -6.31258 0)
(99.4072 -6.2517 0)
(99.4787 -6.56039 0)
(99.2214 -5.93953 0)
(99.1616 -5.79984 0)
(99.3065 -6.04969 0)
(98.9806 -5.30995 0)
(98.9188 -5.13076 0)
(99.0966 -5.31147 0)
(98.7303 -4.57238 0)
(98.6683 -4.38433 0)
(98.8503 -4.50508 0)
(98.1769 -3.6529 0)
(98.1556 -3.2894 0)
(98.472 -3.42212 0)
(98.1032 -2.96872 0)
(98.0585 -2.66294 0)
(98.3521 -2.74584 0)
(98.0089 -2.3646 0)
(97.9515 -2.06652 0)
(98.2208 -2.14448 0)
(100.055 -5.27483 0)
(99.8656 -5.25567 0)
(99.8466 -5.48975 0)
(99.3394 -5.2567 0)
(99.1948 -5.21763 0)
(99.2395 -5.45005 0)
(98.8206 -5.01615 0)
(98.712 -4.92339 0)
(98.8083 -5.12535 0)
(98.4255 -4.58671 0)
(98.3411 -4.45932 0)
(98.4681 -4.619 0)
(98.1163 -4.04856 0)
(98.0509 -3.90567 0)
(98.1902 -4.02352 0)
(97.6318 -3.29065 0)
(97.6038 -3.0027 0)
(97.8669 -3.14823 0)
(97.5612 -2.73279 0)
(97.5282 -2.46957 0)
(97.784 -2.56926 0)
(97.4927 -2.20779 0)
(97.4516 -1.94191 0)
(97.6947 -2.03442 0)
(100.156 -4.47593 0)
(99.9155 -4.45938 0)
(99.9064 -4.64026 0)
(99.2439 -4.45042 0)
(99.0506 -4.42165 0)
(99.0825 -4.60298 0)
(98.5467 -4.27863 0)
(98.4016 -4.21272 0)
(98.4698 -4.37701 0)
(98.0269 -3.96961 0)
(97.9204 -3.87581 0)
(98.0141 -4.01354 0)
(97.6497 -3.56619 0)
(97.5753 -3.45593 0)
(97.6832 -3.56464 0)
(97.1927 -2.94022 0)
(97.1461 -2.71046 0)
(97.3643 -2.85598 0)
(97.1015 -2.48414 0)
(97.0696 -2.25906 0)
(97.2904 -2.36492 0)
(97.0388 -2.03147 0)
(97.0051 -1.79664 0)
(97.2216 -1.8951 0)
(100.207 -3.84413 0)
(99.9354 -3.83005 0)
(99.9326 -3.97483 0)
(99.1671 -3.81295 0)
(98.9411 -3.78971 0)
(98.9662 -3.93516 0)
(98.3464 -3.68031 0)
(98.1742 -3.63067 0)
(98.2252 -3.76584 0)
(97.7295 -3.44697 0)
(97.6037 -3.3754 0)
(97.6752 -3.49325 0)
(97.2882 -3.1357 0)
(97.2029 -3.04894 0)
(97.288 -3.14639 0)
(96.8357 -2.61516 0)
(96.7653 -2.42957 0)
(96.9471 -2.5679 0)
(96.7123 -2.23936 0)
(96.675 -2.04703 0)
(96.8649 -2.15212 0)
(96.6423 -1.84987 0)
(96.6098 -1.64347 0)
(96.8012 -1.74209 0)
(100.228 -3.33102 -4.93395e-34)
(99.9359 -3.31866 0)
(99.9372 -3.43731 0)
(99.1004 -3.29598 0)
(98.8514 -3.2761 0)
(98.8724 -3.39522 0)
(98.1914 -3.18765 0)
(97.9989 -3.14846 0)
(98.039 -3.26093 0)
(97.4995 -3.00414 0)
(97.3577 -2.94778 0)
(97.4139 -3.04847 0)
(97.0019 -2.75738 0)
(96.9057 -2.68771 0)
(96.9742 -2.77378 0)
(96.542 -2.32084 0)
(96.4466 -2.16875 0)
(96.5991 -2.29632 0)
(96.3817 -2.008 0)
(96.3353 -1.84321 0)
(96.4988 -1.94329 0)
(96.2968 -1.67237 0)
(96.2613 -1.49126 0)
(96.4299 -1.58619 0)
(100.229 -2.90653 0)
(99.9239 -2.89527 0)
(99.9278 -2.99407 0)
(99.0401 -2.86906 0)
(98.7744 -2.85144 0)
(98.7927 -2.95047 0)
(98.0661 -2.77705 0)
(97.8584 -2.74494 0)
(97.8909 -2.83937 0)
(97.3159 -2.62786 0)
(97.1609 -2.58224 0)
(97.2063 -2.66835 0)
(96.7704 -2.4275 0)
(96.6642 -2.37048 0)
(96.7202 -2.44585 0)
(96.2973 -2.0583 0)
(96.1777 -1.93181 0)
(96.3066 -2.04719 0)
(96.0994 -1.79497 0)
(96.0421 -1.65312 0)
(96.1834 -1.74588 0)
(95.9956 -1.50476 0)
(95.9545 -1.34575 0)
(96.1029 -1.43466 0)
(100.218 -2.55076 0)
(99.9037 -2.54023 0)
(99.9094 -2.6234 0)
(98.9844 -2.51194 0)
(98.7062 -2.49598 0)
(98.7226 -2.57919 0)
(97.9614 -2.43163 0)
(97.7419 -2.40456 0)
(97.7692 -2.48443 0)
(97.1655 -2.30707 0)
(96.9998 -2.26929 0)
(97.0373 -2.34306 0)
(96.5796 -2.141 0)
(96.4645 -2.09355 0)
(96.5111 -2.15923 0)
(96.0909 -1.82635 0)
(95.9487 -1.71964 0)
(96.0587 -1.82264 0)
(95.857 -1.60226 0)
(95.7881 -1.47949 0)