/*--------------------------------*- C++ -*----------------------------------*\
| =========                 |                                                 |
| \\      /  F ield         | OpenFOAM: The Open Source CFD Toolbox           |
|  \\    /   O peration     | Version:  v2012                                 |
|   \\  /    A nd           | Website:  www.openfoam.com                      |
|    \\/     M anipulation  |                                                 |
\*---------------------------------------------------------------------------*/
FoamFile
{
    version     2.0;
    format      ascii;
    class       surfaceScalarField;
    location    "1.79";
    object      phi;
}
// * * * * * * * * * * * * * * * * * * * * * * * * * * * * * * * * * * * * * //

dimensions      [0 3 -1 0 0 0 0];
oriented        oriented;


internalField   nonuniform List<scalar> 
5999
(
0.0004331042149
0.9162168958
0.0005343584636
0.9165987458
0.0006248533602
0.9165595051
0.000304558615
0.9165865384
0.0003837563288
0.4583387887
0.0003157698976
0.4583073791
0.0003888427026
-0.0003962217708
-0.0004925788089
0.4582830474
0.0005595313619
-0.0006239987067
0.4582309404
0.0007280583392
-0.0008418584662
0.4582062071
0.0009656513685
-0.001108221685
0.4581808847
0.001262336999
-0.001419155053
0.4581773059
0.001576849202
-0.001732448074
0.4582037983
0.001860149814
0.001189934271
0.9150269615
0.00188173588
0.9159069441
0.002133155697
0.9163080853
0.0006090183637
0.917108848
0.001001827742
0.4580738746
0.000729839687
-0.4581946959
-0.458177982
-0.0008975999164
0.4579669745
0.001108607328
-0.4580304168
-0.001370545145
0.4577140804
0.0007934164432
0.0008934650385
-0.228952731
-0.0009661747314
0.2288686651
0.001050240584
-0.001412769059
-0.2288878925
0.2287759545
0.001524707071
-0.001986002921
-0.2288308996
0.2286834576
0.002133444962
-0.002670112672
-0.228814703
0.2286482674
0.002836548271
-0.003361361185
-0.2288637997
0.2287455244
0.00347972363
0.001504336107
0.9135226254
0.004036849825
0.9133744304
0.006833030707
0.9135119044
0.002792544598
0.9149005373
0.006248796827
-0.4580299273
0.4578540632
0.002968408695
-0.4577815935
-0.002951578543
0.458428988
0.002304184053
-0.4572843643
-0.002389232479
0.4570490129
0.001271144268
0.001353439569
-0.2284621938
-0.001582444114
0.228286145
0.001758492859
-0.2282158297
-0.002394005364
0.227967576
0.002642259001
-0.2280305574
-0.002900398002
0.2308209842
0.0001176697006
-0.2334504526
0.009460886989
0.2360917619
-0.01206820652
-0.2325031611
0.01770199366
0.2336454963
-0.01881946023
0.0004992869126
0.9130233385
0.001095582814
0.9127781345
0.002292760546
0.9123147267
0.003134262604
0.9119651164
0.00209391879
-0.4571050411
0.4566818653
0.003557438362
-0.4599748709
-0.0047591116
0.4569344801
0.007799502375
-0.4585244861
-0.009050443447
0.4600880906
0.002063552412
0.005423286528
-0.2276423598
-0.002044949814
0.2274413494
0.002245960167
-0.2287452529
-0.001926377188
0.2325343748
-0.001843949525
-0.2414167178
0.01254237627
0.2445494497
-0.01559134523
-0.2428302253
0.02243502034
0.244370953
-0.02388721669
-0.2359465614
0.02605944462
0.2361581689
-0.02622246338
0.0001062912616
0.9129170472
0.0002671148933
0.9126173109
0.0005882495445
0.911993592
0.001219307541
0.9109340027
0.0004000557288
-0.4564196562
0.4556266936
0.002012270079
-0.4555172587
-0.002428379041
0.4548980858
0.003047552029
-0.4540082886
-0.003900031141
0.4532475387
0.002474716218
0.002186064775
-0.2280895417
-0.004303638287
0.226651236
0.005743082252
-0.2438543455
0.0005029725655
0.2490765151
-0.005623422006
-0.2515891596
0.01608432437
0.2530417539
-0.01738851202
-0.2458123097
0.01780868453
0.2450455841
-0.01692326229
-0.234288403
0.01234230317
0.2326214223
-0.01062182016
-0.0001799159974
0.9130969632
-0.0002606189205
0.9126980138
-9.598190318e-05
0.911828955
0.0001665731194
0.9105238871
0.0001475606254
-0.4547597581
0.4544577233
0.0004686079092
-0.4543998753
-0.001420883245
0.4536458016
0.002174956947
-0.452437568
-0.002712370921
0.4514328135
0.001833168159
0.001883957273
-0.2333987444
-0.0001267204469
0.2356977946
-0.002119509513
-0.2521116339
0.007827319224
0.2535656455
-0.009117200032
-0.2544814963
0.008131094393
0.2522448335
-0.005714113027
-0.2388019017
-0.003572357679
0.2388891353
0.003590782309
-0.2239789942
-0.01656369797
0.2209296418
0.0196385523
-0.0006016010288
0.9136985643
-0.001071401398
0.9131678142
-0.001384915952
0.9121424696
-0.0001892916424
0.9102677982
-0.0009395354777
-0.4543427708
0.4540491815
0.0001042976676
-0.452610174
-0.0003256823835
0.4522549715
0.0006808848472
-0.4510638739
-0.001639598715
0.4508037094
0.0009717635201
0.0009284676765
-0.2402851917
0.001563261705
0.2415729338
-0.00275288259
-0.258006211
0.005023331395
0.2554510259
-0.002262468541
-0.2478405855
0.0006747748332
0.2463999525
0.0009450924887
-0.2235401216
-0.01004408291
0.2180619857
0.01558347748
-0.2100937958
-0.03419001201
0.106746279
0.101027305
0.01610811111
0.02040211265
-0.001041969485
0.9147405338
-0.002029051257
0.914154896
-0.002817728296
0.9129311466
-0.001479407591
0.9109839284
-0.002054450835
-0.4540410334
0.4540623789
-0.00150075305
-0.4521064886
0.00157331112
0.4520284765
-0.001495299055
-0.4499622186
0.001348832466
0.4503366348
-0.0006002511142
-0.001113031722
-0.2434452736
0.0002960901961
0.2434401821
-0.0001687665588
-0.255178792
-0.0007688613276
0.2550301554
0.00113189542
-0.2420213274
-0.003387132933
0.2411247486
0.004454205739
-0.2088163193
-0.008259760871
0.2074513598
0.009644958287
-0.09434749429
-0.006358060774
0.09433334782
0.006372207236
-0.001475173107
0.9162157069
-0.002878083597
0.9155578065
-0.004350588307
0.9144036513
-0.002551817777
0.9123035915
-0.003118433605
-0.4542922896
0.4545125998
-0.002772127959
-0.4521314202
0.003026563629
0.4523708555
-0.00326599886
-0.4505874689
0.003485073842
0.4511613914
-0.00191995235
-0.002116607295
-0.2442752145
0.002404059128
0.2443452089
-0.002341195681
-0.2538245717
0.001385236222
0.2535200894
-0.0008634537191
-0.2389130434
-0.0008698452004
0.2385793885
0.001366635092
-0.2067647523
-0.001975326707
0.2071588215
0.001590028763
-0.09795752082
0.0008627873565
0.09848890207
-0.001394168616
-0.001869857333
0.9180855642
-0.003851041107
0.9175389903
-0.005769847767
0.916322458
-0.003616877793
0.9143425172
-0.004191895705
-0.4549461118
0.4553750782
-0.004045844204
-0.4526979245
0.00453773558
0.4532585186
-0.005098329661
-0.4518938198
0.005634070383
0.4530304737
-0.003167641523
-0.003569725995
-0.2446054249
0.003819629658
0.2447788636
-0.003854383766
-0.2529471466
0.003350632872
0.2528610461
-0.003046193609
-0.2382172723
0.002129240948
0.2381949212
-0.001948236907
-0.2088233392
0.002213179851
0.209401627
-0.002786579543
-0.1009709654
0.002640418126
0.1012190609
-0.001429857162
-0.001458656445
-0.002346439189
0.9204320034
-0.004683650813
0.9198762019
-0.007164145203
0.9188029524
-0.004643194435
0.9170232327
-0.005201666297
-0.456002645
0.4566271671
-0.005267716559
-0.4538968275
0.006027366386
0.4546043553
-0.006734894257
-0.4545574059
0.007554120964
0.4563908816
-0.004563423332
-0.004775444344
-0.2454632556
0.005131526531
0.2457375514
-0.005260295707
-0.2528301886
0.005107810338
0.2528836086
-0.004941461522
-0.2383660681
0.004502781866
0.23848619
-0.0044692089
-0.2111961481
0.005023557683
0.2118172911
-0.005642885249
-0.1026712365
0.003809853053
0.1028344384
-0.001972517284
-0.002000537668
-0.002777484134
-0.005574329276
-0.008500786986
-0.00556794203
-0.4574115615
-0.006341271718
-0.4555182347
0.007236397394
-0.008197413476
-0.4583045401
0.009244739642
-0.005593598339
-0.005195373987
-0.2466860698
0.006342278836
0.2470589154
-0.006562372796
-0.2531993196
0.006668395991
0.2533491875
-0.006597480136
-0.2389879204
0.006403430002
0.2391797522
-0.006447481811
-0.2138466569
0.007200339966
0.2146063535
-0.007959874429
-0.103909671
0.00504911805
0.1040726485
-0.002586961055
-0.002625134544
0.0004699561236
-0.001054010161
-0.09737346677
0.002476622161
-0.1007093859
-0.001356265032
-0.001381936615
0.003672741715
-0.1024958751
-0.001913085155
-0.001935017914
0.00487927351
-0.1037517947
-0.002501057641
-0.002536092187
-0.007959932611
0.00834421286
-0.09473177455
0.001321531427
-0.001908154365
-0.2082309423
0.1013315355
-0.1010675885
0.002212675156
-0.09854751806
0.0004061265219
0.09900417891
0.004394401563
-0.004999406322
-0.2105886937
0.1030272788
-0.1028444137
0.003489876562
0.002395102443
0.1015768512
0.1019024157
0.003109263892
-0.1016897984
-0.001650583249
-0.001671297943
0.05062697956
-0.001093959336
-0.05039317666
0.002029197958
-0.00116904152
-0.04993884897
-0.0008842737056
0.001724329504
0.04997052767
-0.0008717345002
0.006697953425
-0.007415155105
-0.2131289658
0.1043481462
-0.1041796771
0.004710804434
0.00363842859
0.1031987033
0.103302079
0.004240125301
-0.1031481872
-0.002182015581
-0.002212001514
0.02564366175
-0.001056039436
-0.0257127857
0.001125163393
-0.05055923141
-0.00103593447
0.002150991957
0.05056152568
-0.00111735176
0.004871947415
0.1045253168
0.05237051176
0.002809965545
-0.00286455027
-0.05231592704
0.02731423153
-0.002068404348
-0.02706861391
0.00182278673
-0.0265538412
-0.001053228507
0.001217984813
0.02638908489
-0.04547359703
0.001453333344
0.04603814679
-0.001017524629
-0.001000358476
0.0486897911
0.001798045034
-0.04834190347
-0.001146463014
-0.0009994696571
-0.003675874431
-0.04193330014
0.04200890538
0.003600269204
0.001224316533
-0.001805461765
-0.0448924518
-0.0008499259541
-0.04990131463
0.001687086043
-0.0008746944227
-0.001586078949
-0.04933207473
0.001521396502
0.04939675718
-0.0997669157
0.001909104458
0.1001130043
-0.002255193052
-0.04916332348
0.04918020412
-0.000768065185
-0.0008348944024
0.02505308487
-0.0008532574336
-0.02504975339
0.001729970448
0.04886975712
-0.001038723004
-0.0008712134558
0.001564531134
-0.04914756372
-0.000772843595
-0.0008074472958
-0.001042310768
-0.05060152494
0.002099662125
-0.001015057828
-0.001153270739
0.002012842935
0.05075359367
-0.0009861863042
0.003252943233
0.1021148392
-0.001720915094
-0.001744451597
-0.02566183848
0.0257218669
-0.001213299158
0.02508904649
-0.0009793169143
-0.02515204035
0.02503245418
-0.0008636430162
-0.001303191255
-0.02545260656
-0.001094346259
-0.02668885805
0.001229363116
-0.001065026895
0.00114267603
0.02556601261
0.004392252004
0.1034525971
-0.002254132224
-0.002288637869
-0.02583888156
0.02569020047
-0.0009163458026
0.02716690206
-0.0008525920993
-0.02740865622
0.02506101469
-0.001007902664
-0.00090879412
-0.02598612687
-0.001501577292
0.001558054378
0.02725775444
-0.002910486775
-0.02783381969
0.02763615739
-0.001303914991
0.02689389278
-0.0007802192218
-0.00230966412
-0.02759255992
-0.003328135274
0.003182062764
-0.2066083168
-0.0980652498
-1.231214451e-05
-0.0959763314
-0.006232988321
0.09585125893
0.09547398217
-0.002283165024
0.001696064874
-0.09488688201
0.04571918924
-0.04523096719
0.0007360944787
-0.04279612236
-0.00374620185
0.04286644979
0.001696289929
-0.002076346688
-0.09938685894
-0.04927822893
0.001510685337
-0.04849266784
0.001527704089
0.04869493419
-0.04822919386
0.001534571057
0.000998179685
0.04617434291
-0.001298158832
0.09610071431
0.0006714267034
-0.02118247122
1.49920692e-05
0.02105703545
0.0001104437034
-0.002334803859
-0.01745752151
0.01736311864
0.002429206729
0.001894300392
0.02002144065
-0.002086815048
-0.019828926
-0.02542134311
-0.09668566817
0.04737857045
0.04597069431
0.01438361025
0.01437413626
-0.00460582971
0.005291940195
-0.04261941062
-0.001174280521
-0.02515866111
0.001327319065
0.02500562257
-0.05158300229
0.002845698795
0.05160973426
-0.002872430759
0.05173518646
0.002995152929
-0.003035533121
-0.05169480627
0.0053818386
-0.02059672548
0.02908107949
-0.01386619261
-5.395525104e-05
-0.02128606162
0.0001575456569
0.0472605145
0.00171368559
-0.04691763691
-0.001033392489
-0.001023170687
0.02340257718
-0.02374649855
0.0002899661213
-0.02256169253
0.003673377702
0.02427015343
0.02360518658
-0.02575491064
0.002178048132
-2.832407247e-05
0.0003634942769
0.02305407497
0.001751666323
0.04757422984
-0.001025299322
-0.001040082333
0.04304632292
-0.0008373241364
0.000255020648
-0.04246401943
0.02047680595
-0.02004448496
0.001461979404
-0.0185753531
-0.001921151747
0.01816170099
-0.003774664969
-0.02180029732
0.003013269766
-0.002542862388
0.001885875266
0.02113379307
-5.889165461e-05
0.04367688409
-0.0005716695176
0.02060685197
-0.003128273697
-0.003692788314
-0.02067860213
0.02499792056
0.0008424970809
-0.000936189728
-0.02490422791
-0.02158009505
0.0001017327737
0.02150440031
-2.603803364e-05
0.000876394399
0.02503585099
-0.0009143248308
0.04906598197
0.001607240306
-0.04901925046
-0.0008560425892
-0.0007979292226
0.02211746985
-0.02216317848
0.0001025378986
-5.682926617e-05
0.0007227180964
0.0228588342
2.363428867e-05
-0.02164782182
0.0001033724783
-3.564571153e-05
0.0001069851473
0.02204863059
-3.814588799e-05
0.001587339865
0.04910477074
-0.0008309595783
-0.0007951690607
0.02555729756
0.0009489286029
-0.0009254709783
-0.02558075518
0.001018600535
0.02547487371
-0.000936176688
0.02495612594
0.0009381266071
-0.000927120606
-0.02496713194
0.0009434027876
0.02495113749
-0.0009384143431
0.02493453961
0.001375833468
-0.001434563058
-0.02487581002
0.001629241412
0.02524832903
-0.001943030835
0.02667049598
0.001294666625
-0.001509268436
-0.02645589416
0.001185432297
0.02672080899
-0.001235745307
0.003037821565
-0.003069989566
0.02488617338
0.001120079815
-0.0008355306365
-0.02517072256
0.02462144717
-0.0009095543075
-0.04428683996
-0.01538278101
0.04048849841
-0.003443143331
0.003535799068
-0.01755017724
-0.02603021058
0.001153258445
0.02606238444
-0.05115252473
0.002171550315
0.05118462565
-0.002203651239
0.05126313256
0.002276854581
-0.002302490212
-0.05123749692
-0.05101042578
0.0020505435
0.05104793294
-0.002088050656
0.002145746742
-0.002179309343
-0.05111896213
-0.02591490235
0.001179358393
-0.05150741068
0.002649394035
0.05152786687
-0.002669850223
0.002790035655
-0.002807340255
-0.0515656977
-0.02532761582
0.001289034531
-0.05071392867
-0.0009698735071
0.002025099159
0.05067730355
-0.05084976962
0.001930983555
0.05089358901
-0.00197480294
0.002017734574
-0.002056525985
-0.05097163437
0.02423469744
-0.0003528454357
-0.02451610067
0.0006342486753
-0.0003415564548
-0.02532144636
0.0006071704013
0.02505583241
-0.02532112778
0.001015216766
0.02525933508
-0.0009534240666
-0.02524614192
0.001432540172
0.02544284316
-0.0513675125
0.002499606293
0.05139044501
-0.002522538799
0.002606282299
-0.002631040182
-0.0514826528
0.002314850111
0.05128858441
-0.002340301964
0.002437520299
-0.002464636544
-0.05134039625
-0.02518805415
0.001317745701
0.02523432091
0.00108856045
-0.0009344088815
-0.02538847248
0.02467606998
-9.333996391e-05
-0.0249541896
0.0003714595834
-0.02569026454
-0.0001436063143
0.0003907150458
0.02544315581
0.02299367826
-0.02314777414
0.0001713177378
-1.722185177e-05
-0.02654814486
0.002278140113
0.02425265643
1.734831184e-05
-0.02729894464
0.001668050672
0.0275882557
-0.001957361734
0.02529483255
0.001300886644
-0.00148718436
-0.02510853483
0.02344978574
-0.002206354212
-0.02340524144
0.002161809913
-0.0004114099188
0.0007014140193
0.02394469334
-0.0001358865774
-0.02593899875
0.0003846207868
-0.0001203015139
-0.02669044485
0.000374078812
0.02643666755
-0.02642097485
0.001038052327
0.02627797802
-0.0008950555002
0.02603623431
0.001052499121
-0.0007648977664
-0.02632383567
0.02249015943
-0.02261021197
0.0001069794774
1.307307194e-05
0.0001045087001
0.02284914804
4.002152469e-05
-0.01957161763
0.004462744965
0.01506253008
4.634259012e-05
-0.0245806425
0.002610925399
0.02546977899
-0.003500061894
0.01905289424
0.001340081132
-0.02048018959
8.721421057e-05
0.004272328755
0.01469882574
8.173975314e-05
0.0181080368
-9.826283803e-06
-0.0003460292683
-0.01775218125
0.0006136078989
0.01863746637
-0.001143037463
0.0217347287
0.0005940933713
-0.02246840111
0.0001395790436
0.0001448755891
0.0214925191
9.733401974e-05
-0.02488680236
0.0005788268048
0.02445285114
-0.02404598606
0.00116095125
0.02399944383
-0.001114409024
0.0236577713
0.001071169895
-0.0009487248961
-0.0237802163
-0.02298017041
0.001463473904
0.02341185303
-0.001895156519
0.001245636738
-0.001301171073
-0.02399045172
-0.02534870005
0.001055991064
-0.02138015093
0.004271396858
0.02138108282
-0.02388996039
0.00167792285
0.02450354301
-0.002291505468
0.02625458764
0.001405326118
-0.001732437745
-0.02592747602
0.001083223469
0.023555068
-0.0009805201665
0.001462736924
-0.001774302147
-0.02357839517
-0.02209927732
0.002059207525
-0.0009044493319
-0.02274343732
0.001250504245
0.02239738241
-0.02199335141
0.001099197397
0.02212464828
-0.001230494266
0.001370319953
-0.001784747438
-0.02256574293
0.02285559452
0.001610464235
-0.001449926435
-0.02301613232
0.02222777232
-0.0002766271295
-0.02074225188
0.001465345448
0.01928501479
-8.108350529e-06
-0.02336544054
0.001598108383
0.02376375814
-0.001996425974
0.02719577355
0.002205415413
-0.003239694042
-0.02616149492
-0.02373212374
0.0006700352566
0.02356982897
-0.0005077404818
0.001105732413
-0.001149668836
-0.02332150412
-0.02121894459
0.0004432059796
3.348673095e-05
-0.02717382502
0.0005402763274
0.02695720977
-0.0003236610793
0.02630021637
0.0005136601287
-0.0002906864047
-0.02652319009
0.001638968741
0.02759238151
-0.0020355767
0.0006013692457
-0.000388879529
-0.02738631474
-0.02239572574
9.019534538e-05
0.02233986529
-3.433490047e-05
-0.02584538844
0.000718663112
0.0256583105
-0.0005315851736
0.02510653723
0.0006865273887
-0.000508718288
-0.02528434633
0.001118715055
0.0262995322
-0.001163659608
0.0007449543095
-0.0005623376305
-0.02602800512
-0.02247182616
9.385403526e-05
-1.77536143e-05
-0.02185039055
5.405503611e-05
0.02176246408
3.387143458e-05
-0.0244115602
0.0006538348842
0.02423603389
-0.0004783085688
0.0006574382353
-0.0004919973859
-0.02389756459
0.0006817838032
0.0249324275
-0.000507674063
0.000658694912
-0.0004831667228
-0.02458708839
-0.0219321654
6.197630524e-05
1.979854183e-05
-0.02690763046
0.0003600340164
0.02667003916
-0.0001224427152
0.02597517898
0.0003084709649
-7.547335451e-05
-0.02620817659
-0.02779627917
0.002111569666
0.02788794585
-0.002203236351
0.000433534968
-0.000160082442
-0.02718108299
-0.02505912566
0.02483424975
-0.000116680544
0.02411949381
-9.800357807e-05
-0.02437433567
0.0003091532102
0.02574155363
-7.552785691e-05
0.0003376018227
-0.0001136900013
-0.02528303748
-0.0253108246
0.0005187279958
0.02505680699
-0.0002647103874
0.02428342501
0.0005445555798
-0.0002836597862
-0.02454432081
0.0005046366668
0.02605812315
-0.0002625434478
0.0005122538728
-0.0002608287032
-0.02556224977
-0.02323505284
0.002093628677
0.02329202576
-0.002150601592
0.00335390582
-0.004639722437
-0.02651046255
0.0005703645045
0.02401883707
-0.0003057765602
0.001244679262
-0.001012518334
-0.02346721377
-0.000503292853
0.02303741543
-0.02364500045
0.001110877869
-9.05460506e-05
0.0003816267008
0.02438498933
0.001104301682
0.02508487542
-0.000954856192
-0.02217087643
0.02205006268
3.026769957e-05
0.02117829281
-0.02168646778
4.88211417e-06
-0.02258306256
0.02247878831
-3.933206645e-05
-0.02229899617
3.477977832e-05
0.001518220192
0.01966912458
-9.051960871e-06
0.001930826737
-0.002565441333
-0.02666433004
-0.03128923114
0.00476080715
-1.972086449e-05
0.002266485578
0.02228915005
-0.002253632875
0.02801238453
-0.02793282051
0.002174068847
-0.004537272241
0.003373629316
0.02461342867
0.001436509008
0.02559782302
-0.001739499478
-0.02217099753
0.02217353067
-0.00453980538
0.0243249864
-0.02657753589
-1.08338942e-06
0.02383074957
-0.0001226656742
-0.001495763056
-0.02288158868
-0.02299614871
0.02289100413
-1.515693166e-05
-0.02268648677
-3.246236528e-05
0.0007884813687
0.02354234387
-5.838838301e-06
0.0001268801213
-0.02310949596
-1.353286741e-05
0.001039505602
-0.0009061112525
-0.0265543692
-0.0269570229
0.0003934581673
0.0011712155
0.0276296504
0.02198391539
-0.02211894996
0.0001575160827
-2.248150939e-05
0.0001181265648
0.02237192477
1.08097698e-07
0.001063680666
0.02574725993
-0.0007747062875
0.002060585478
-0.002315530988
-0.02432569699
-0.02110509472
0.001462973857
7.05032391e-05
0.0001960078644
0.0218275532
-3.964567153e-05
-0.0500805485
-0.0009711590786
0.001868271214
0.05012683916
-0.05042249517
0.001694784014
0.05048006982
-0.001752358661
0.0506592478
0.001788610467
-0.001846885353
-0.05060097291
0.001547394757
-0.05017763476
0.05024136532
-0.001611125308
0.001656258873
-0.001719098942
-0.0503596551
-0.0009312730586
-0.05004283391
0.001831685073
0.00181888447
0.05071555133
-0.001875187996
0.001907209787
-0.001948459111
-0.0508085203
-0.001023596827
-0.05074464764
0.0020032444
0.02577448099
0.0009301432983
-0.0009490476559
-0.02575557664
0.02746585153
-0.02772234041
0.0006900238486
-0.02766869475
0.001758734512
0.0280215299
-0.02666275619
0.002347967262
-0.02396355782
0.001732316262
0.02432487023
-0.02500333339
0.001064036462
0.02511188405
-0.001172587122
0.000186385452
0.02093777177
-6.712177702e-05
0.02461890867
0.004310447585
0.0001517232342
-0.01420474819
0.0003385555742
-5.846345663e-05
-0.02140453991
0.0001769417443
0.0002951675243
-0.02410012953
0.02393457561
-0.02432666314
0.0006872550634
0.02355015855
0.0006743831774
0.004554188722
-0.03028715886
-2.194049839e-05
0.02681360204
-0.02555200307
0.003292589745
0.02691725774
0.00207439244
0.02318273648
0.0007309163485
-0.0005618011069
0.02284249718
0.0009020404041
0.02267865932
-0.02091173319
0.000656789918
0.0211802995
-0.0009253562266
0.0009488359185
-0.001198094782
-0.02174409254
-0.02269182634
0.001558853263
-0.004478135146
0.02203517745
0.003049809665
-0.01901353432
0.02675488293
-0.01221948375
-0.002958869806
-0.01918293821
-0.01814918693
0.000251650429
0.0009844741296
-0.01941135233
0.0002776912779
-0.02148593708
0.00179180908
0.01490920229
-0.01483510627
-7.409602787e-05
0.030664169
-0.0216181538
0.005863187092
0.02612048784
0.004557733212
-1.40520423e-05
0.02325330481
-0.02344559566
0.000294023624
-0.0001168261212
0.02302794155
0.0003421893841
0.02141645926
-2.888506593e-05
0.02261715969
-0.02268384
0.0001205872452
-5.390693407e-05
0.02256973585
0.0001105159215
-6.309208467e-05
0.0239609715
0.002179952446
-2.043610791e-05
0.02322750961
0.0007593591841
-2.58972927e-05
5.236485535e-05
-0.02226061377
4.507043598e-05
0.02509290564
-0.02530697973
0.0002664389488
0.02491047978
0.0002849637518
0.02655812997
0.001081845862
-0.0002308567638
0.02620995289
0.0005790338485
0.02259738626
3.059118135e-05
0.0001072927822
-0.02170400626
-5.110834035e-05
0.02362397315
-0.02379576837
0.0002790880075
0.0002817499613
0.0247282408
0.0002892241319
-0.0001094102056
0.02455004695
0.00028760405
0.02198780447
-4.85840883e-05
0.02639738656
-0.02666941809
0.0005805024942
0.0006218532576
0.02720403229
0.001036150096
0.02568047021
-0.0009421393076
0.0009938034307
-0.0009466753421
-0.02536825586
-0.02558640875
0.0006025642128
0.0005817366426
0.02612480313
0.02448255426
-0.02468911755
0.0007511188697
-0.02530486187
0.0007225618892
0.02510102798
-0.02500634147
0.0009176940915
0.0249887043
-0.0009000569233
0.02202120694
-0.02209717632
5.896795506e-05
1.700143333e-05
0.02193952909
6.142414334e-05
2.025370193e-05
0.02246509939
4.565157906e-05
5.898487636e-05
0.02238956624
4.580512748e-05
2.972803084e-05
-0.01508264046
0.01505472885
2.791161642e-05
0.02185289473
7.153732668e-05
1.509703405e-05
9.868396659e-05
0.02174388649
1.032427936e-05
0.00102473982
-0.001068138437
-0.02495993478
-0.02395510221
0.001236223653
0.0007732263967
0.02427969237
0.0003901149042
-0.0001461896952
-0.02519811481
0.02522213327
0.0006863215655
-0.02551833993
0.02490962218
0.0006839706662
0.0003080951399
-0.0234463467
-9.522583581e-06
0.02717528114
-0.02758973511
0.0007225491203
0.02683346927
0.0005131296061
0.02802075459
-0.02799497465
0.002252360165
-0.0008032529235
0.001234272403
3.056812327e-06
0.02318710377
-0.0240189114
0.0008283213264
3.486303786e-06
0.0003435626148
-1.936728792e-05
9.9581857e-05
-0.02272806329
1.826946085e-05
0.02589879829
-0.0262022655
0.0004030490742
0.02559627519
0.0004095025723
0.02651051491
0.0004274630623
-9.635302919e-05
0.0004046024313
2.473171653e-05
0.02632873205
-0.03108865881
0.004751362625
8.564127153e-06
0.00229971974
1.01009205e-05
0.02208772814
-0.02216047312
0.004535489947
-0.0150311255
0.006030194831
3.140457939e-05
0.0004147049584
4.28772306e-05
0.01468552281
1.330292817e-05
0.016251362
1.355157105e-05
-0.01561398914
0.01655036469
0.0007492418231
0.01952197231
-0.02327587342
0.002664637828
0.01700048644
0.001720532557
0.000800953317
0.01662413877
0.001670938999
-0.009540047511
0.002888312866
0.001991912594
0.0001585949674
3.039734666e-05
5.758183982e-05
0.02359785551
-0.02253789164
0.003211432985
-0.005779446768
0.003825299215
0.000994086956
0.0225499379
0.001286646241
0.002071253782
-0.02268815251
0.02061718468
0.0006210413971
0.003651953873
0.0004147765543
0.002670999004
0.01325147877
0.0007901378603
0.001031995026
-0.0001928470129
0.0009346822623
-0.01988247494
0.0002782755924
0.0004580826125
0.0215346
-0.02217401107
0.002104756515
-0.004502163202
0.004418609399
-5.225468093e-05
0.0001655292862
3.198538309e-05
0.0226941793
0.0004992915357
0.0009633742176
0.02276147581
-0.02284860333
0.0001207808483
-3.365333189e-05
0.0001173423033
-3.970648932e-05
0.0229724337
0.0002752146222
-2.013871609e-05
0.0001502285946
-2.639821988e-05
0.02551719202
-0.02571812233
0.0002911256519
-6.123769424e-05
0.0002714499868
1.801383156e-05
0.0001106586871
1.490141206e-05
0.02593963712
0.0003809744522
0.0003153688305
0.02397470731
-0.0241744548
0.0002538025296
-8.901258224e-05
0.0002679515196
-3.055475772e-05
9.86619708e-05
-4.302289765e-05
0.02437116247
0.0002775464553
0.0002586839754
-0.0001033845913
0.02644286702
0.0003305567296
-0.02299785543
0.02291390162
-1.943077898e-05
-0.02309492804
-2.537011152e-05
-0.02281732652
0.02272856264
1.329051995e-05
7.834291698e-05
1.823218891e-05
0.0003130333467
-0.0007579989325
0.02752288515
0.001123059636
-0.02426051761
0.02348835172
1.416695974e-05
-0.02649380163
3.00476719e-05
-0.02323029025
-2.472022931e-05
0.0002900592884
-3.199781769e-05
0.0006318614489
-0.0001173492323
0.02460805497
0.0003435440141
-0.02228572127
0.02219988071
-3.150867045e-05
-0.02237552053
-2.688128244e-05
-0.02210901333
0.02199904211
1.196763661e-05
0.0001089867114
-1.811933084e-05
0.0003427060155
-8.102775598e-05
0.02550691335
0.0003156680346
-0.02264042368
0.02254361449
1.578143415e-05
1.26111069e-05
-0.02246300575
-2.620478184e-05
0.0001055630334
-2.495429128e-05
0.0003294389048
0.02216986418
5.179782058e-05
-0.02224510258
2.344058033e-05
5.770581653e-05
1.498203688e-05
-0.0002705164889
0.02480181447
0.0005255090097
-0.02480871244
0.02459590177
-0.02502162501
-0.02437932236
0.02415708672
0.0002755473647
0.0005330410281
0.02232174083
5.160918685e-05
1.621622323e-05
4.773167524e-05
2.890657632e-05
0.01959138569
0.001459594295
-0.02106768041
1.670043139e-05
0.004489939958
1.880527116e-05
-0.004467771464
0.02446165842
0.003298138805
-0.02204495419
0.02206712269
-0.02273596149
-0.03115468787
2.116380208e-05
0.005967163659
0.003918359528
-0.0003672323629
0.02374600983
0.0006400596087
-0.02392284749
0.02365429909
-0.02328938703
-0.0004590927931
0.0005418316281
-0.0001769195654
0.0008206276856
0.02154562636
2.134056634e-05
1.885315276e-05
0.0006273878498
-0.0240615589
-0.0002108293954
0.0239200912
-0.02425511539
0.0009624120374
0.02363279581
0.001398173262
0.02458661992
0.0007046289672
-0.0004440775226
0.0007755820486
-0.0001206470919
0.02191134857
1.806702205e-05
1.405139592e-05
0.02237993071
0.0001490791277
-5.022152891e-05
-6.52551525e-05
0.01511180109
0.004564938426
-7.614931561e-06
0.0151598677
-4.806660817e-05
0.006120764428
-0.02225012787
0.02676311011
-0.02475450345
0.00411215777
0.003528942616
0.0236359592
0.002263322189
-0.004603960601
0.003485416348
-0.01513747292
0.03127696147
0.006034042116
-0.01512733273
-1.014018711e-05
-0.01967577098
8.632863915e-06
0.004701984999
-2.55940937e-06
-0.0002089258382
0.02345136223
0.0005883131781
-0.02187332369
0.0216644236
-2.57413436e-08
3.052748293e-06
-0.02117418771
2.653676303e-06
0.000493141954
-2.906063865e-06
0.001062915499
0.02278878719
0.0001228358094
-2.061887355e-05
0.000130446708
-2.814628631e-05
0.0232596941
0.0002931493903
-1.049961743e-05
0.0001619561497
-1.175801402e-05
0.0001355144893
-0.02224855946
-5.904982629e-06
0.02468015063
-0.02498995455
0.000445318414
0.02436194175
0.0004757249628
0.02529432898
0.0004200727734
-0.000125755903
0.0004301303335
-2.390599459e-06
0.0005516278031
-0.0215939261
-6.279643026e-05
0.02295616698
-0.02357694379
0.001172404612
0.002258667719
0.02401257218
0.0005453774357
-0.0002844508185
0.0007200792134
-5.082371776e-05
-0.001437036658
0.001597405934
-0.228622563
0.002167865956
0.2282936116
-0.228502335
-0.001959142459
-0.2289800846
-0.001270090732
0.2288374062
0.002385822566
-0.2284337863
0.003140054151
0.2280507131
-0.2283265715
-0.002864195807
-0.2289225728
-0.001818460083
0.22875503
0.003361875037
-0.2282522611
-0.003820050171
0.2326670083
-0.2297041145
0.0008720390497
-0.2288939933
-0.002478208061
0.2287020887
-0.006499473286
-0.2307515857
-0.01241983413
0.2333022457
-0.2316791193
0.01081737631
-0.2289117063
-0.003187052532
0.2287373976
-0.01364260822
-0.2312627023
-0.001907774556
0.002138032653
-0.2278726179
0.002978803259
0.2272223314
-0.2275241818
-0.00267695286
-0.002165660471
0.2280652667
0.001632060169
-0.2273943259
-0.009562405557
0.2392916698
-0.2356578435
0.005981259336
-0.003191330963
0.2283430775
-0.01289594588
-0.2380187074
-0.02084384138
0.2434796267
-0.2411356694
0.01857821823
0.006529757524
0.2356289703
-0.02272329361
-0.2408745007
-0.02609888597
0.2381508432
-0.2373209203
0.02532372567
0.0162083099
0.2348257938
-0.02657660786
-0.2354249627
-0.009152131092
0.01037210728
-0.2293095179
-0.004216353688
0.241236374
-0.2355648781
-0.00139864562
-0.002802439387
0.2281014335
-0.008150011393
-0.2398394604
-0.01647231013
0.2509962515
-0.2486257313
0.01423064499
0.009188646322
0.2427184526
-0.01822263293
-0.2497040548
-0.02043391475
0.2482356703
-0.2478804889
0.02020385174
0.02056358665
0.2454436513
-0.02021045629
-0.2459211928