/*--------------------------------*- C++ -*----------------------------------*\
| =========                 |                                                 |
| \\      /  F ield         | OpenFOAM: The Open Source CFD Toolbox           |
|  \\    /   O peration     | Version:  v2012                                 |
|   \\  /    A nd           | Website:  www.openfoam.com                      |
|    \\/     M anipulation  |                                                 |
\*---------------------------------------------------------------------------*/
FoamFile
{
    version     2.0;
    format      ascii;
    class       surfaceVectorField;
    location    "1.26";
    object      Uf;
}
// * * * * * * * * * * * * * * * * * * * * * * * * * * * * * * * * * * * * * //

dimensions      [0 1 -1 0 0 0 0];


internalField   nonuniform List<vector> 
6430
(
(101.3217621 -0.3600474766 5.415681672e-20)
(101.5254203 -0.1864588646 3.226178393e-21)
(101.2484083 -0.7291700247 -4.966085474e-20)
(101.4797483 -0.5632768362 5.097345232e-20)
(101.1207002 -1.115829935 -9.510885941e-20)
(101.3916687 -0.951081169 -1.026914858e-19)
(100.8487774 -1.506373449 -1.410090622e-21)
(101.245764 -1.37804318 -2.374056612e-22)
(100.9918321 -1.552345049 2.972093689e-19)
(100.6566579 -1.562815429 -8.076509122e-22)
(100.8526318 -1.649207063 2.058002508e-19)
(100.6735343 -1.71260134 -8.104926887e-22)
(100.2883602 -2.014235643 0)
(100.5012954 -1.950240505 0)
(100.5309794 -2.129044444 0)
(100.2962809 -2.205026906 0)
(99.78985468 -2.555554149 1.077292841e-19)
(100.0601466 -2.48077466 1.055632288e-19)
(100.078726 -2.705371413 -1.099003684e-19)
(99.73440409 -2.764244338 -1.315233788e-19)
(99.83755112 -2.81851288 7.337375924e-20)
(99.21521872 -3.166249651 -5.006698218e-20)
(99.38597771 -3.115897744 -1.542584351e-19)
(99.38399057 -3.256879354 -5.005016193e-20)
(99.19901388 -3.318170717 1.512506838e-19)
(98.15672251 -4.103054385 -3.003552234e-20)
(98.42289226 -4.031415841 2.109363144e-19)
(98.37938646 -4.218290489 2.293343906e-19)
(98.0934465 -4.306045098 2.037253694e-19)
(96.5724325 -5.332351155 1.367235272e-19)
(96.93117045 -5.241775595 -1.154942555e-19)
(96.87287325 -5.47833625 -3.008339566e-20)
(96.49297272 -5.589080745 -2.826542089e-21)
(94.65186297 -6.800559487 -3.547778061e-20)
(95.08340199 -6.705907053 2.377529523e-19)
(95.03646784 -7.008745857 1.320101453e-19)
(94.50834046 -7.067980433 -3.802111267e-19)
(94.64194102 -7.144286353 -2.393472907e-20)
(92.84997756 -8.312829958 -2.381554918e-19)
(92.97535533 -8.307776595 -2.245445386e-19)
(92.94758139 -8.394943847 -3.476134781e-21)
(92.83259136 -8.409203108 5.175823176e-21)
(101.6800922 -0.3888884519 0)
(101.8907417 -0.1982395135 0)
(101.6198707 -0.7878918287 0)
(101.8545512 -0.5999083886 0)
(101.5150205 -1.207704668 0)
(101.7860405 -1.012024815 0)
(101.2777627 -1.640515428 0)
(101.6711165 -1.46181487 0)
(101.4326946 -1.680478184 0)
(101.0848056 -1.723783352 2.059664232e-19)
(101.3049447 -1.782217416 0)
(101.1253734 -1.87486857 0)
(100.7733182 -2.226744474 0)
(100.9801722 -2.135372763 0)
(101.0349084 -2.303339214 0)
(100.8101565 -2.413823062 0)
(100.3628823 -2.831293177 -2.53473297e-19)
(100.6182962 -2.715090011 -4.193196127e-20)
(100.6732256 -2.921867743 1.412800847e-20)
(100.3500489 -3.038465377 -9.194964518e-20)
(100.461523 -3.063920846 -8.92295293e-20)
(99.90546457 -3.493484047 2.039283048e-19)
(100.0670051 -3.418264175 -3.391961761e-19)
(100.0921311 -3.548841218 -1.814316158e-19)
(99.91912432 -3.636343944 -5.451227683e-19)
(99.05438495 -4.506830177 1.832494368e-19)
(99.30064259 -4.399821092 1.926138471e-19)
(99.30100727 -4.56518245 5.411690176e-19)
(99.03615842 -4.693131532 -2.402000867e-21)
(97.78314538 -5.834513207 2.595775657e-20)
(98.11178308 -5.694032839 2.36973753e-20)
(98.1164233 -5.897262994 -2.544195025e-20)
(97.76947893 -6.068813136 -1.051703774e-19)
(96.27342205 -7.529316449 3.848029755e-19)
(96.68559924 -7.333446458 -4.159501278e-19)
(96.74175509 -7.609101786 1.437170902e-19)
(96.23039073 -7.811071087 -4.799527464e-19)
(96.41041009 -7.835984218 3.808888405e-19)
(94.89917372 -9.748503998 -3.943127399e-20)
(95.13963519 -9.695635495 -5.912989501e-20)
(95.23745125 -9.951495193 -5.911487005e-20)
(94.79208761 -9.891170914 3.723050476e-19)
(94.79093487 -10.08980889 -5.973744147e-19)
(94.93713623 -10.12727839 2.365393999e-19)
(102.0616099 -0.408267137 0)
(102.2742674 -0.2052394844 0)
(102.0161049 -0.8266313049 0)
(102.2475406 -0.6217161887 0)
(101.9360741 -1.265465229 0)
(102.1982806 -1.048046273 0)
(101.7360174 -1.720897296 0)
(102.1124569 -1.506179332 0)
(101.8962748 -1.749656158 0)
(101.5448105 -1.827443595 0)
(101.78107 -1.859321015 0)
(101.609364 -1.972411794 0)
(101.3016702 -2.360024967 0)
(101.4966776 -2.243968912 0)
(101.5715975 -2.398065958 0)
(101.3657765 -2.531293645 0)
(100.9870003 -2.982172263 5.504746967e-20)
(101.2200611 -2.839985524 0)
(101.3015133 -3.016982734 -5.340595859e-21)
(101.013459 -3.166540217 1.137444337e-19)
(101.125185 -3.185752141 1.084672412e-19)
(100.6587246 -3.649070631 8.119844648e-20)
(100.8036693 -3.553543403 0)
(100.8473288 -3.663907115 0)
(100.6978013 -3.767470532 1.595290095e-19)
(100.0486143 -4.635270284 -3.168771685e-19)
(100.2643229 -4.503627148 -1.580632922e-19)
(100.2964209 -4.627910525 -4.724043364e-19)
(100.0727813 -4.787463163 -3.410486934e-19)
(99.11861044 -5.922657605 -6.850256535e-19)
(99.40278312 -5.737710475 -3.290826503e-19)
(99.4428085 -5.88407609 -6.347468406e-19)
(99.16016481 -6.094530707 -2.576824109e-19)
(98.14405837 -7.563751268 -5.5101263e-19)
(98.46840055 -7.302099417 8.017549331e-20)
(98.58056969 -7.462882041 -3.249501821e-19)
(98.2964316 -7.763580469 -3.473928505e-19)
(97.93446421 -9.762871928 0)
(97.98177144 -9.372631285 -1.678708746e-20)
(97.60793052 -9.486788913 0)
(92.49060574 -9.050769246 1.353613444e-19)
(97.54815711 -9.984729279 0)
(102.4566535 -0.4180004885 0)
(102.6669594 -0.2077795193 0)
(102.4254083 -0.8453083772 0)
(102.6489546 -0.6294594687 0)
(102.3693825 -1.291213018 0)
(102.6171872 -1.060366799 0)
(102.2055565 -1.758397447 0)
(102.5580848 -1.515543359 0)
(102.3653606 -1.772723803 0)
(102.0218166 -1.879308071 0)
(102.2623958 -1.888032051 0)
(102.1034183 -2.014510544 0)
(101.8410494 -2.418794871 0)
(102.0203221 -2.28633918 0)
(102.1086128 -2.423663098 0)
(101.9246032 -2.571147728 0)
(101.6129508 -3.028672141 -5.495352081e-21)
(101.8202767 -2.874416508 -1.658898719e-22)
(101.9173921 -3.0196073 -1.658987165e-22)
(101.6646584 -3.199634713 -6.499307902e-20)
(101.7716543 -3.197388159 -1.41984236e-20)
(101.4009418 -3.66048455 3.783777534e-19)
(101.5230974 -3.558725893 1.10631932e-19)
(101.5781538 -3.645429226 -2.183696281e-19)
(101.4542666 -3.753660697 7.35944719e-20)
(100.9957231 -4.542956889 5.539905158e-19)
(101.167446 -4.404524688 4.123668453e-19)
(101.2143454 -4.497969402 6.895653119e-19)
(101.03843 -4.647526302 6.884653615e-19)
(100.3488164 -5.654043087 2.914384312e-19)
(100.5738547 -5.460333226 2.926212785e-19)
(100.6242041 -5.551230111 5.365283569e-19)
(100.4060525 -5.75775797 2.713840744e-20)
(99.71185331 -6.976196279 -6.746979655e-20)
(99.94230997 -6.715269882 -6.563191608e-20)
(100.0269687 -6.775549238 -2.960870885e-19)
(99.82993112 -7.047490356 1.682965223e-19)
(97.68303895 -8.278556342 -9.859899943e-20)
(98.77286955 -7.894756641 -3.352904216e-19)
(97.95733664 -7.915046463 3.380134028e-20)
(93.73627861 -7.718657889 -2.940227794e-19)
(102.8561235 -0.4189849688 0)
(103.0605534 -0.2064454082 0)
(102.8373395 -0.8460945415 0)
(103.050159 -0.6249868044 0)
(102.8022231 -1.289016396 0)
(103.0332675 -1.052013606 0)
(102.6708704 -1.757610771 0)
(102.9968252 -1.495101138 0)
(102.8260518 -1.754509554 0)
(102.4983659 -1.886069559 0)
(102.734341 -1.87475674 0)
(102.5904737 -2.008822352 0)
(102.3711236 -2.414067988 0)
(102.5325571 -2.272434183 0)
(102.6279056 -2.391588495 0)
(102.4659385 -2.545766428 0)
(102.2132562 -2.99230326 0)
(102.394644 -2.833431061 0)
(102.4983893 -2.949261069 0)
(102.2773683 -3.148293808 0)
(102.3763205 -3.125658305 0)
(102.0819698 -3.57067942 3.473207184e-20)
(102.1816675 -3.471751158 4.299878889e-24)
(102.2399914 -3.537665385 7.703305587e-21)
(102.1393119 -3.640583876 3.127592856e-20)
(101.818235 -4.321772644 -3.046740998e-19)
(101.9526878 -4.190987434 -1.771524115e-19)
(102.0014777 -4.253916328 -3.632603372e-19)
(101.8648274 -4.389771647 -6.805222205e-20)
(101.3554633 -5.20103664 4.361629148e-19)
(101.5288872 -5.028940938 4.4055546e-19)
(101.5683825 -5.078004018 6.408133977e-19)
(101.3994911 -5.253659039 4.2811466e-19)
(100.8244014 -6.158848305 2.600814595e-20)
(101.0035033 -5.942452084 -2.255053753e-19)
(101.0477008 -5.959343976 -1.344151558e-20)
(100.8878069 -6.170456468 3.700207138e-19)
(99.02923904 -6.89577519 4.015937133e-20)
(99.92062687 -6.686900738 -3.317615104e-19)
(99.38244018 -6.601350489 2.905120091e-19)
(95.64884272 -6.465672808 -2.46454807e-19)
(103.2520813 -0.4125917524 0)
(103.4481416 -0.2019185859 0)
(103.2435069 -0.831885566 0)
(103.4440217 -0.6105155961 0)
(103.225318 -1.263699451 0)
(103.438913 -1.026762103 0)
(103.1214518 -1.723492804 0)
(103.420304 -1.450779153 0)
(103.2690135 -1.705501465 0)
(102.9621702 -1.854375797 0)
(103.1876572 -1.826963482 0)
(103.0588843 -1.963539198 0)
(102.8766353 -2.357943757 0)
(103.0204005 -2.213217801 0)
(103.1172953 -2.314826849 0)
(102.9756792 -2.469388945 0)
(102.7714933 -2.893013418 0)
(102.9285088 -2.735516349 0)
(103.0314827 -2.826001303 0)
(102.8392745 -3.030330736 0)
(102.9281593 -2.994259378 0)
(102.684975 -3.41650676 0)
(102.7692798 -3.320310845 0)
(102.8241169 -3.369662393 0)
(102.7393979 -3.468450908 0)
(102.4967434 -4.038921478 -1.448766504e-20)
(102.6028528 -3.924524133 6.789315424e-20)
(102.6442285 -3.965919579 4.082621375e-20)
(102.5357815 -4.081813358 5.310611496e-20)
(102.1233802 -4.713063171 3.182435199e-19)
(102.2604749 -4.570956181 -1.01640593e-21)
(102.2825661 -4.595991134 1.884193347e-19)
(102.1465838 -4.73730787 9.586192699e-20)
(101.6139881 -5.399981975 1.607332292e-19)
(101.7630792 -5.231106089 -2.434941647e-21)
(101.7722877 -5.228856538 1.430451206e-19)
(101.6325604 -5.389343066 -1.461351806e-19)
(100.2353061 -5.864857774 -2.609751414e-19)
(100.8045243 -5.749854961 1.178366296e-19)
(100.4313261 -5.658118302 -1.498361467e-20)
(97.39908326 -5.574429087 -1.494464896e-20)
(103.6381621 -0.4002951797 0)
(103.8241785 -0.1949002687 0)
(103.6374588 -0.8057485056 0)
(103.8248833 -0.5883128136 0)
(103.6320153 -1.220258195 0)
(103.828303 -0.9885411847 0)
(103.5495877 -1.662811995 0)
(103.8224896 -1.388908513 0)
(103.687718 -1.633966004 0)
(103.4035664 -1.792522038 0)
(103.6154803 -1.753426813 0)
(103.5004363 -1.88840883 0)
(103.3481885 -2.263895847 0)
(103.4756183 -2.120902887 0)
(103.5698533 -2.206675051 0)
(103.445704 -2.356854552 0)
(103.2779273 -2.750494483 0)
(103.413866 -2.598836215 0)
(103.5107573 -2.66861986 0)
(103.3427607 -2.868412195 0)
(103.4212246 -2.824982265 0)
(103.2133453 -3.215225974 0)
(103.2860027 -3.124031331 0)
(103.3341281 -3.160322195 0)
(103.2606249 -3.252595253 0)
(103.0435483 -3.741669367 0)
(103.1343195 -3.639152307 0)
(103.164341 -3.665021773 0)
(103.0705116 -3.767723908 0)
(102.6918052 -4.264477379 9.924027438e-21)
(102.8054136 -4.148952442 0)
(102.8086925 -4.159559059 0)
(102.6931802 -4.273365793 9.491248172e-21)
(102.1686392 -4.762107486 -6.592496999e-20)
(102.2973975 -4.632343335 0)
(102.2768612 -4.621113938 0)
(102.1511517 -4.744672668 0)
(100.7291645 -5.106879889 -4.707054055e-20)
(101.2012682 -5.008757813 0)
(100.7027337 -4.932200894 2.147848165e-23)
(98.15532027 -4.865828755 4.014963542e-20)
(104.0095257 -0.3835926985 0)
(104.184525 -0.1860856856 0)
(104.0143754 -0.770831971 0)
(104.1886356 -0.5606002217 0)
(104.0176053 -1.16386942 0)
(104.1975219 -0.9411607605 0)
(103.9506007 -1.583608934 0)
(104.1998395 -1.315439765 0)
(104.078393 -1.547515771 0)
(103.8170981 -1.709309419 0)
(104.013739 -1.662619819 0)
(103.910676 -1.792946581 0)
(103.78111 -2.144586936 0)
(103.8943093 -2.006807638 0)
(103.9828493 -2.078885697 0)
(103.8730381 -2.221549555 0)
(103.7303826 -2.582398169 0)
(103.849268 -2.439080525 0)
(103.937021 -2.493592874 0)
(103.7873659 -2.681721927 0)
(103.855828 -2.636395455 0)
(103.6700995 -2.989608977 0)
(103.7342272 -2.905271907 0)
(103.7740207 -2.931523603 0)
(103.708347 -3.01588791 0)
(103.4936339 -3.433733073 0)
(103.5753216 -3.341878398 0)
(103.5932775 -3.35708373 0)
(103.5075256 -3.447938866 0)
(103.1189299 -3.853986833 0)
(103.223598 -3.754814829 0)
(103.2105784 -3.755538183 0)
(103.1023074 -3.852365321 0)
(102.5487608 -4.231024997 0)
(102.6691469 -4.126205035 0)
(102.6274059 -4.109482659 0)
(102.5052306 -4.20991666 0)
(100.3025839 -4.4249601 0)
(101.0396388 -4.374423868 0)
(100.1591045 -4.270325798 0)
(97.95861432 -4.221704586 0)
(104.3627831 -0.3639188319 0)
(104.5264098 -0.1761200399 0)
(104.3710278 -0.7301193984 0)
(104.5326452 -0.5294246373 0)
(104.3792378 -1.099235372 0)
(104.5442892 -0.8880665018 0)
(104.3222226 -1.492643266 0)
(104.5506576 -1.235481994 0)
(104.4395379 -1.452680863 0)
(104.1999685 -1.612660374 0)
(104.3809931 -1.561803943 0)
(104.2878952 -1.68533401 0)
(104.1742644 -2.010747872 0)
(104.2756217 -1.880458125 0)
(104.3564982 -1.941175058 0)
(104.2578892 -2.074414764 0)
(104.1309722 -2.403502625 0)
(104.2364708 -2.268564851 0)
(104.3129044 -2.313083854 0)
(104.1774473 -2.48269775 0)
(104.2372412 -2.441745562 0)
(104.0627075 -2.756715387 0)
(104.1211267 -2.679888947 0)
(104.1520058 -2.69883269 0)
(104.0913299 -2.774940017 0)
(103.865286 -3.131432191 0)
(103.9415583 -3.050055821 0)
(103.9477936 -3.05812485 0)
(103.8665696 -3.137876757 0)
(103.4558363 -3.472308338 0)
(103.5559414 -3.387075153 0)
(103.5288682 -3.38215509 0)
(103.4240124 -3.464810223 0)
(102.8352937 -3.767596069 0)
(102.9535633 -3.680028689 0)
(102.8963616 -3.660919431 0)
(102.7732261 -3.745030673 0)
(99.77306024 -3.849198953 0)
(100.7713335 -3.823047897 0)
(99.65905897 -3.721782117 0)
(97.76059072 -3.701705112 0)
(104.6958421 -0.3425407659 0)
(104.8481923 -0.1655592711 0)
(104.7056124 -0.6861915964 0)
(104.8554528 -0.4965480529 0)
(104.7156468 -1.030350694 0)
(104.8675918 -0.8322106726 0)
(104.6641081 -1.395613714 0)
(104.8745514 -1.153131141 0)
(104.7713297 -1.354664429 0)
(104.5516461 -1.509119491 0)
(104.7175839 -1.456827403 0)
(104.6324302 -1.572265954 0)
(104.5289619 -1.871063018 0)
(104.6207973 -1.749470943 0)
(104.6928942 -1.801112833 0)
(104.6027147 -1.923969039 0)
(104.4834726 -2.223169782 0)
(104.5791772 -2.096853788 0)
(104.6433913 -2.134433472 0)
(104.518729 -2.284881213 0)
(104.5708715 -2.249319365 0)
(104.4001035 -2.528168558 0)
(104.4549463 -2.458899132 0)
(104.4769268 -2.472627456 0)
(104.41917 -2.540690474 0)
(104.1737725 -2.845486452 0)
(104.2471715 -2.7738165 0)
(104.2425597 -2.777284031 0)
(104.1635263 -2.847050532 0)
(103.725897 -3.125060237 0)
(103.8239317 -3.051704618 0)
(103.7850624 -3.043856982 0)
(103.6816303 -3.114694817 0)
(103.058461 -3.3614309 0)
(103.1768744 -3.287535325 0)
(103.1061407 -3.268103106 0)
(102.9761043 -3.338298516 0)
(99.3582613 -3.373224821 0)
(100.5109831 -3.361324228 0)
(99.27091603 -3.267154675 0)
(97.66570574 -3.268332449 0)
(105.0077334 -0.3205085019 0)
(105.1492776 -0.15485196 0)
(105.0175086 -0.6411610372 0)
(105.156657 -0.463384033 0)
(105.0268131 -0.9604421232 0)
(105.1675241 -0.7759764821 0)
(104.9772041 -1.297620628 0)
(105.1723802 -1.07151131 0)
(105.0749023 -1.257347326 0)
(104.8731879 -1.403825939 0)
(105.0247697 -1.352131553 0)
(104.9459078 -1.458989869 0)
(104.847885 -1.731935128 0)
(104.9323175 -1.619512028 0)
(104.9951512 -1.664004823 0)
(104.9111388 -1.776269881 0)
(104.7933886 -2.047437902 0)
(104.8824012 -1.930184171 0)
(104.9341413 -1.962630753 0)
(104.8173148 -2.095259487 0)
(104.8628842 -2.064794298 0)
(104.6906978 -2.311026997 0)
(104.7435424 -2.248970672 0)
(104.7570484 -2.259044889 0)
(104.7007036 -2.319612064 0)
(104.4317992 -2.581316976 0)
(104.5040363 -2.518358487 0)
(104.4896689 -2.518989299 0)
(104.4113217 -2.579969211 0)
(103.9461377 -2.813544952 0)
(104.0435051 -2.750210042 0)
(103.9949589 -2.741159751 0)
(103.8918823 -2.802187359 0)
(103.2326161 -3.00613883 0)
(103.3538489 -2.943462949 0)
(103.269745 -2.924537988 0)
(103.1273638 -2.982992912 0)
(99.04393792 -2.975217249 0)
(100.2794582 -2.971695049 0)
(98.97911176 -2.885927197 0)
(97.65121887 -2.902678159 0)
(105.2983957 -0.2986494672 0)
(105.4298286 -0.144347534 0)
(105.3070002 -0.5966728432 0)
(105.4366046 -0.4310125854 0)
(105.3136296 -0.8919190518 0)
(105.4448781 -0.7211831647 0)
(105.263167 -1.201981612 0)
(105.4456195 -0.9929426119 0)
(105.3521081 -1.163588658 0)
(105.16633 -1.30057008 0)
(105.3045829 -1.250937064 0)
(105.2305707 -1.34916137 0)
(105.1343781 -1.59773641 0)
(105.2132091 -1.494499565 0)
(105.266737 -1.533434487 0)
(105.1870393 -1.635389298 0)
(105.0662983 -1.880344435 0)
(105.1510449 -1.772628368 0)
(105.1904683 -1.800825256 0)
(105.0792062 -1.918043925 0)
(105.1192301 -1.891584621 0)
(104.9420747 -2.109261886 0)
(104.9940608 -2.053901294 0)
(104.9996808 -2.061489211 0)
(104.9436965 -2.115218542 0)
(104.6496326 -2.341127722 0)
(104.72181 -2.285872084 0)
(104.6988092 -2.284896032 0)
(104.6202337 -2.338215533 0)
(104.1290592 -2.536675043 0)
(104.2264971 -2.481793274 0)
(104.1700734 -2.472624371 0)
(104.0667079 -2.525448716 0)
(103.3679333 -2.695627317 0)
(103.4945105 -2.642395941 0)
(103.3966576 -2.624369925 0)
(103.2380224 -2.672970648 0)
(98.81354384 -2.63936038 0)
(100.0826468 -2.640797268 0)
(98.76725543 -2.563739031 0)
(97.69514879 -2.591527944 0)
(105.5684314 -0.2775843931 0)
(105.6906062 -0.1343079092 0)
(105.5749909 -0.5539471586 0)
(105.6962204 -0.4002215325 0)
(105.5775417 -0.8265275306 0)
(105.7009547 -0.6691422626 0)
(105.5241477 -1.111068621 0)
(105.6961547 -0.9190548923 0)
(105.6051651 -1.075352283 0)
(105.4333069 -1.20204616 0)
(105.5594015 -1.155474437 0)
(105.4890481 -1.245304999 0)
(105.391968 -1.471354241 0)
(105.4667004 -1.377030933 0)
(105.511159 -1.411659835 0)
(105.4343248 -1.503904118 0)
(105.307429 -1.724336833 0)
(105.3898572 -1.62666876 0)
(105.4176722 -1.651134033 0)
(105.3097266 -1.756141349 0)
(105.3449207 -1.73191628 0)
(105.1606517 -1.924888608 0)
(105.2125334 -1.875660784 0)
(105.2109225 -1.88158997 0)
(105.1546198 -1.92917013 0)
(104.8354022 -2.125331953 0)
(104.9081827 -2.076847063 0)
(104.8776281 -2.075133379 0)
(104.7983211 -2.121792301 0)
(104.2835818 -2.292300444 0)
(104.3815016 -2.244598529 0)
(104.318562 -2.235980591 0)
(104.2144033 -2.281831442 0)
(103.472312 -2.424771161 0)
(103.6063001 -2.379576934 0)
(103.4943575 -2.362718536 0)
(103.3170897 -2.403042558 0)
(98.65228128 -2.354675926 0)
(99.9207489 -2.358920094 0)
(98.62129468 -2.290474217 0)
(97.77996657 -2.325938003 0)
(105.8189083 -0.2577596936 0)
(105.9327454 -0.1249236258 0)
(105.8227941 -0.5138503978 0)
(105.9367786 -0.3715683532 0)
(105.8203016 -0.7654732163 0)
(105.9373289 -0.620765987 0)
(105.7624853 -1.026441434 0)
(105.9260333 -0.8509449179 0)
(105.836407 -0.9939213166 0)
(105.6765842 -1.110055337 0)
(105.7917361 -1.067178371 0)
(105.7240573 -1.149028542 0)
(105.6240864 -1.354500655 0)
(105.6959509 -1.268671632 0)
(105.7317295 -1.299986476 0)
(105.6566055 -1.383252552 0)
(105.5217286 -1.581368683 0)
(105.6031116 -1.493423899 0)
(105.6200388 -1.51514452 0)
(105.513726 -1.608979525 0)
(105.5449138 -1.587186721 0)
(105.351896 -1.758493612 0)
(105.4042411 -1.714785175 0)
(105.3960761 -1.719717944 0)
(105.3389737 -1.761822426 0)
(104.9955863 -1.933329861 0)
(105.0693482 -1.890769758 0)
(105.0322576 -1.888935699 0)
(104.9519637 -1.929811728 0)
(104.4160211 -2.077853952 0)
(104.5147281 -2.036303135 0)
(104.446239 -2.028625396 0)
(104.3408406 -2.068474557 0)
(103.5521845 -2.189175093 0)
(103.6951098 -2.15086124 0)
(103.5689493 -2.135342224 0)
(103.3719027 -2.168710155 0)
(98.54802045 -2.112811476 0)
(99.79162114 -2.118382828 0)
(98.52964722 -2.05825571 0)
(97.89198242 -2.098821848 0)
(106.051225 -0.2394812249 0)
(106.1577138 -0.1163238056 0)
(106.0520037 -0.4769672215 0)
(106.1598605 -0.3454198604 0)
(106.0438409 -0.7095463105 0)
(106.1558134 -0.5766426712 0)
(105.9805377 -0.9490717029 0)
(106.137426 -0.7892810095 0)
(106.0481921 -0.9200804152 0)
(105.8986201 -1.025739663 0)
(106.0040544 -0.9869334346 0)
(105.9382163 -1.061313795 0)
(105.8338885 -1.248201607 0)
(105.9038916 -1.170334741 0)
(105.9314879 -1.199182148 0)
(105.8571134 -1.274224604 0)
(105.7130687 -1.452490865 0)
(105.7943434 -1.373555117 0)
(105.801219 -1.39340965 0)
(105.6953707 -1.477058353 0)
(105.7231991 -1.457738235 0)
(105.5204703 -1.610068099 0)
(105.5736924 -1.571290253 0)
(105.5596158 -1.575722102 0)
(105.5013875 -1.612967308 0)
(105.1353362 -1.764055694 0)
(105.2102799 -1.726666385 0)
(105.1675799 -1.725139426 0)
(105.0861755 -1.760994539 0)
(104.5309466 -1.890792195 0)
(104.6307133 -1.854548624 0)
(104.5573645 -1.848022304 0)
(104.4503288 -1.882674266 0)
(103.6126946 -1.985081969 0)
(103.7656018 -1.952679416 0)
(103.6252924 -1.93858942 0)
(103.408139 -1.966091861 0)
(98.49070511 -1.907387203 0)
(99.69211143 -1.913174364 0)
(98.48270025 -1.861127819 0)
(98.02091161 -1.904652026 0)
(106.2670146 -0.2229449273 0)
(106.367148 -0.1085917468 0)
(106.264402 -0.4436632874 0)
(106.3671918 -0.322003505 0)
(106.2501936 -0.6592181229 0)
(106.3583054 -0.5371279051 0)
(106.1806694 -0.8795047106 0)
(106.3324948 -0.7344345258 0)
(106.242846 -0.8542371726 0)
(106.1018778 -0.9497421252 0)
(106.1987879 -0.9151940123 0)
(106.1340802 -0.9826721471 0)
(106.0243284 -1.152965941 0)
(106.0932975 -1.082446472 0)
(106.1132602 -1.10955121 0)
(106.0388662 -1.177110143 0)
(105.8848816 -1.337870891 0)
(105.9667776 -1.267164508 0)
(105.9643759 -1.28580564 0)
(105.8581993 -1.36024317 0)
(105.8832395 -1.343338003 0)
(105.6703026 -1.479144979 0)
(105.7246881 -1.444754846 0)
(105.7053013 -1.449068729 0)
(105.6457374 -1.482008209 0)
(105.2587644 -1.61618446 0)
(105.3349773 -1.583316127 0)
(105.2874708 -1.582395661 0)
(105.2048989 -1.613871111 0)
(104.6318283 -1.728702017 0)
(104.7328949 -1.697075804 0)
(104.6551851 -1.69181779 0)
(104.5461706 -1.721936774 0)
(103.6579039 -1.809194945 0)
(103.8214618 -1.781898995 0)
(103.6672038 -1.769283314 0)
(103.4301161 -1.791797941 0)
(98.47195839 -1.733474437 0)
(99.61886811 -1.738608263 0)
(98.47243892 -1.694438872 0)
(98.15907371 -1.739119741 0)
(106.4680138 -0.2082670459 0)
(106.5627938 -0.1017756321 0)
(106.461838 -0.4141465412 0)
(106.5605842 -0.3014421977 0)
(106.4413916 -0.6147360576 0)
(106.546739 -0.502405933 0)
(106.3651496 -0.8179882881 0)
(106.5133576 -0.6865628299 0)
(106.4225988 -0.7965445566 0)
(106.2887124 -0.8823680809 0)
(106.3782444 -0.8521421134 0)
(106.3140534 -0.9133012996 0)
(106.1980985 -1.068942366 0)
(106.2667238 -1.005118046 0)
(106.2796285 -1.031107143 0)
(106.2045836 -1.091902917 0)
(106.0400523 -1.237122823 0)
(106.123221 -1.174128528 0)
(106.1122684 -1.191754118 0)
(106.0052367 -1.258660903 0)
(106.0279375 -1.243352306 0)
(105.8046823 -1.365077941 0)
(105.8604081 -1.334610883 0)
(105.8362462 -1.339099955 0)
(105.7752402 -1.368208222 0)
(105.3691138 -1.488342806 0)
(105.446619 -1.459450054 0)
(105.3949742 -1.459350482 0)
(105.3112098 -1.486975828 0)
(104.7213489 -1.589420498 0)
(104.8239227 -1.561850522 0)
(104.742215 -1.557932328 0)
(104.6309327 -1.584060414 0)
(103.6909687 -1.658676232 0)
(103.8655733 -1.635831161 0)
(103.6976365 -1.624716245 0)
(103.4410723 -1.64292856 0)
(98.48465385 -1.587153098 0)
(99.56866403 -1.590974715 0)
(98.49201093 -1.554500355 0)
(98.30082569 -1.598805587 0)
(106.6560931 -0.1955033193 0)
(106.7464601 -0.09590145675 0)
(106.6462549 -0.3885092745 0)
(106.7418944 -0.2837901894 0)
(106.6195031 -0.5761810928 0)
(106.7230479 -0.4725398382 0)
(106.5361693 -0.7645941789 0)
(106.6820997 -0.6457125903 0)
(106.5895846 -0.7470015722 0)
(106.4613672 -0.8236969641 0)
(106.5445966 -0.7977652063 0)
(106.4803992 -0.853187372 0)
(106.3576727 -0.9960182991 0)
(106.4265383 -0.9382402747 0)
(106.4329624 -0.9636220217 0)
(106.3567689 -1.018373265 0)
(106.1813387 -1.149656633 0)
(106.2663151 -1.094044394 0)
(106.2475563 -1.110788037 0)
(106.1390334 -1.171768975 0)
(106.159785 -1.157289921 0)
(105.9263119 -1.267086004 0)
(105.9834718 -1.240116943 0)
(105.9550533 -1.244993634 0)
(105.8925549 -1.270709949 0)
(105.4689599 -1.379192911 0)
(105.5477608 -1.353805749 0)
(105.492537 -1.354673755 0)
(105.4075549 -1.378901186 0)
(104.8016345 -1.471051028 0)
(104.9059075 -1.447065478 0)
(104.8204751 -1.444525385 0)
(104.7066667 -1.4671194 0)
(103.7143219 -1.531124047 0)
(103.9001928 -1.512185244 0)
(103.7188743 -1.502578086 0)
(103.4434421 -1.517030835 0)
(98.52276565 -1.465296851 0)
(99.5385691 -1.467332484 0)
(98.53565521 -1.438334561 0)
(98.44222131 -1.481052105 0)
(106.8328938 -0.1846818262 0)
(106.91995 -0.09097407579 0)
(106.819355 -0.3667807195 0)
(106.9129486 -0.2690503085 0)
(106.7863192 -0.5435431336 0)
(106.8890983 -0.4475156188 0)
(106.6957129 -0.7191042412 0)
(106.8406088 -0.6117816777 0)
(106.7457685 -0.7054512225 0)
(106.6219131 -0.7736446786 0)
(106.6999066 -0.7519539 0)
(106.6352128 -0.8021336829 0)
(106.50531 -0.9338876122 0)
(106.574906 -0.8815505486 0)
(106.5753949 -0.9067603681 0)
(106.4976455 -0.956152528 0)
(106.3111964 -1.075127695 0)
(106.3983861 -1.026422709 0)
(106.3725601 -1.04268132 0)
(106.2619391 -1.098719256 0)
(106.2810678 -1.0847795 0)
(106.0375198 -1.184323389 0)
(106.0961687 -1.160477614 0)
(106.0639555 -1.165913899 0)
(105.999954 -1.188622876 0)
(105.5604037 -1.28747262 0)
(105.6405001 -1.265187563 0)
(105.5821587 -1.267132711 0)
(105.4959286 -1.288348927 0)
(104.8744227 -1.37194186 0)
(104.980574 -1.351143357 0)
(104.8916194 -1.350006407 0)
(104.7750493 -1.369451686 0)
(103.7298533 -1.424513372 0)
(103.927099 -1.40902794 0)
(103.7326957 -1.400929145 0)
(103.4390909 -1.412054174 0)
(98.58121017 -1.36521272 0)
(99.52588396 -1.365196518 0)
(98.59846329 -1.343305427 0)
(98.58052677 -1.383564979 0)
(107.0009649 -0.1757755964 0)
(107.0850734 -0.08701419897 0)
(106.9836576 -0.3489208273 0)
(107.0755921 -0.257247745 0)
(106.9443529 -0.5167056608 0)
(107.0467152 -0.4273050568 0)
(106.8459388 -0.6815617489 0)
(106.9909516 -0.5848949027 0)
(106.8931769 -0.671932683 0)
(106.77238 -0.7320766289 0)
(106.8460354 -0.7144824031 0)
(106.780466 -0.7599729909 0)
(106.643041 -0.8821939224 0)
(106.7138045 -0.8347455495 0)
(106.7088673 -0.8601498471 0)
(106.6292115 -0.9048145181 0)
(106.4320773 -1.013542036 0)
(106.5216178 -0.9705931459 0)
(106.4895805 -0.9876794721 0)
(106.3759417 -1.037694479 0)
(106.3937855 -1.025925312 0)
(106.1402769 -1.115900196 0)
(106.2004485 -1.094783807 0)
(106.1649216 -1.1009336 0)
(106.0993886 -1.121022222 0)
(105.6451917 -1.212039687 0)
(105.7266005 -1.192497743 0)
(105.6655302 -1.195605777 0)
(105.5780005 -1.214151067 0)
(104.9411514 -1.290670763 0)
(105.0493597 -1.272713801 0)
(104.9570332 -1.272992466 0)
(104.8374743 -1.2896223 0)
(103.7390818 -1.337141544 0)
(103.9477408 -1.324728618 0)
(103.740565 -1.318135697 0)
(103.4295526 -1.32630781 0)
(98.65551353 -1.284570983 0)
(99.52785257 -1.282552687 0)
(98.67608118 -1.26725467 0)
(98.71389728 -1.304449947 0)
(107.1593913 -0.1688682528 0)
(107.243708 -0.08396266195 0)
(107.1384037 -0.3349930728 0)
(107.2316411 -0.2482796893 0)
(107.0929718 -0.4957591694 0)
(107.1977387 -0.4118136379 0)
(106.9878835 -0.6504282878 0)
(107.1339517 -0.5639260387 0)
(107.033383 -0.6455401705 0)
(106.914308 -0.6987021259 0)
(106.9854423 -0.6852611961 0)
(106.9180407 -0.7261555758 0)
(106.7727195 -0.8406232181 0)
(106.8451071 -0.7975049155 0)
(106.8352032 -0.8236456939 0)
(106.7531825 -0.864015835 0)
(106.5453687 -0.9649167783 0)
(106.6374531 -0.9262716563 0)
(106.5996649 -0.9451342862 0)
(106.4832005 -0.9883983306 0)
(106.500077 -0.979747854 0)
(106.2365889 -1.061090699 0)
(106.2983975 -1.042400578 0)
(106.2598715 -1.04946152 0)
(106.1927657 -1.06718313 0)
(105.7248439 -1.15189207 0)
(105.8076044 -1.134793493 0)
(105.7441095 -1.139143928 0)
(105.6552131 -1.155299782 0)
(105.0030475 -1.226001544 0)
(105.1134901 -1.21059493 0)
(105.0178932 -1.21230292 0)
(104.8951292 -1.22639668 0)
(103.7433454 -1.267588496 0)
(103.9633874 -1.257913003 0)
(103.7437717 -1.252837383 0)
(103.416119 -1.258366804 0)
(98.74168466 -1.221797891 0)
(99.54197871 -1.217967166 0)
(98.76469279 -1.208746358 0)
(98.84115625 -1.242456986 0)
(107.3201847 -0.1636626851 0)
(107.3974615 -0.08201190522 0)
(107.2950999 -0.324659837 0)
(107.3828822 -0.2424519621 0)
(107.2428299 -0.4803283373 0)
(107.343982 -0.4014959586 0)
(107.1265659 -0.6297709081 0)
(107.2731566 -0.5509504197 0)
(107.1704171 -0.6272388005 0)
(107.05109 -0.6735967993 0)
(107.1188826 -0.6636565109 0)
(107.0499636 -0.7019407911 0)
(106.8960825 -0.8092105571 0)
(106.9703941 -0.7700072775 0)
(106.9558781 -0.797171314 0)
(106.8712727 -0.8336568514 0)
(106.6526621 -0.9282615327 0)
(106.7475634 -0.8932256551 0)
(106.7045354 -0.9142350102 0)
(106.5850142 -0.9513421335 0)
(106.6011447 -0.9455538307 0)
(106.3279531 -1.01941233 0)
(106.3914144 -1.002889895 0)
(106.3502041 -1.01097875 0)
(106.281509 -1.026574259 0)
(105.8006226 -1.106216005 0)
(105.8847742 -1.091314706 0)
(105.8190928 -1.096973637 0)
(105.7287608 -1.110974358 0)
(105.061151 -1.176918597 0)
(105.1740009 -1.163822033 0)
(105.0751958 -1.166983313 0)
(104.949022 -1.178771251 0)
(103.7437589 -1.214664819 0)
(103.9751042 -1.207456732 0)
(103.743369 -1.203920544 0)
(103.3998319 -1.207041718 0)
(98.83652823 -1.175625899 0)
(99.56639374 -1.170239338 0)
(98.86128695 -1.166533069 0)
(98.96179628 -1.196592486 0)
(107.4453119 -0.1611612657 0)
(107.5488562 -0.0806403154 0)
(107.4173519 -0.3189091263 0)
(107.5310623 -0.2387955449 0)
(107.3607417 -0.4716562319 0)
(107.4874725 -0.3949376774 0)
(107.250741 -0.6183812369 0)
(107.4091698 -0.5414362383 0)
(107.2933969 -0.6145062617 0)
(107.1823281 -0.6557420794 0)
(107.2451644 -0.6516699942 0)
(107.1760476 -0.6852747409 0)
(107.0145694 -0.787484751 0)
(107.0908381 -0.7515551052 0)
(107.0726168 -0.7801931933 0)
(106.9847259 -0.8133438431 0)
(106.7555289 -0.903049441 0)
(106.8532539 -0.8710283434 0)
(106.805624 -0.8944590734 0)
(106.682721 -0.9257915236 0)