/*--------------------------------*- C++ -*----------------------------------*\
| =========                 |                                                 |
| \\      /  F ield         | OpenFOAM: The Open Source CFD Toolbox           |
|  \\    /   O peration     | Version:  v2012                                 |
|   \\  /    A nd           | Website:  www.openfoam.com                      |
|    \\/     M anipulation  |                                                 |
\*---------------------------------------------------------------------------*/
FoamFile
{
    version     2.0;
    format      ascii;
    class       volVectorField;
    location    "2.12";
    object      U;
}
// * * * * * * * * * * * * * * * * * * * * * * * * * * * * * * * * * * * * * //

dimensions      [0 1 -1 0 0 0 0];


internalField   nonuniform List<vector> 
3019
(
(103.4830475 -29.48122381 0)
(107.3709566 -19.09190254 1.628871472e-19)
(107.1997034 -13.51525243 -1.356282561e-18)
(106.0761509 -9.882372593 3.715042301e-19)
(104.7961422 -7.338275724 1.477982631e-20)
(103.4501364 -5.409587109 1.199265858e-20)
(101.8978818 -3.85876117 -6.871569979e-20)
(101.0404904 -2.835613133 0)
(100.1280261 -1.935557938 0)
(99.72114849 -1.306726695 1.211092819e-20)
(99.46093465 -0.7606526477 2.235871058e-21)
(99.32668908 -0.2505056914 -7.232898658e-21)
(96.80758323 -19.09649857 0)
(102.3962159 -15.66864735 2.748607116e-19)
(103.4880871 -12.31619852 1.710495132e-18)
(103.3280158 -9.636044306 -5.132042296e-19)
(102.7297095 -7.484781468 2.458350728e-19)
(101.8676392 -5.684076353 5.964912684e-20)
(100.7802834 -4.130970012 -9.430481601e-20)
(100.1685295 -3.082884761 -3.555826518e-20)
(99.46400867 -2.101148692 -1.968831996e-20)
(99.14326169 -1.424453752 1.934457139e-20)
(98.93217481 -0.8323056543 0)
(98.82203577 -0.2741074667 1.934658735e-20)
(98.35441998 -12.42093873 9.332735402e-20)
(100.3846795 -12.05861601 -9.71970841e-20)
(101.1618596 -10.48312718 -2.497440435e-19)
(101.2575719 -8.756107384 0)
(100.9817119 -7.111921034 -2.007057586e-19)
(100.443993 -5.595434067 -2.471617703e-20)
(99.70054119 -4.166900774 0)
(99.29940637 -3.171933716 0)
(98.77740656 -2.167122526 -3.636919156e-20)
(98.53401915 -1.482015775 1.794576437e-20)
(98.3701873 -0.8692403361 7.531173551e-22)
(98.28339746 -0.2863214313 -1.330720904e-20)
(99.21616272 -9.539579614 1.237944538e-19)
(99.70262143 -9.513353041 9.334664375e-20)
(99.87633674 -8.770101103 -1.777057243e-19)
(99.83025116 -7.694444711 -5.074341741e-19)
(99.61571388 -6.477868969 0)
(99.24508833 -5.266710669 0)
(98.72892507 -4.029476569 -3.009106647e-20)
(98.48547212 -3.135632034 4.619716244e-20)
(98.10022654 -2.153921678 1.126151601e-20)
(97.92163844 -1.487911802 1.924583746e-20)
(97.79841136 -0.8754850528 -2.185288813e-20)
(97.73178437 -0.2884268164 0)
(99.71280316 -7.72480461 0)
(99.47476462 -7.757897193 -1.393244444e-20)
(99.16683828 -7.361367859 1.519098492e-20)
(98.88197298 -6.657317209 8.831999743e-20)
(98.58435413 -5.764216764 -3.550231116e-21)
(98.27350157 -4.826339865 0)
(97.89308889 -3.792533134 0)
(97.74292504 -3.007397742 0)
(97.4564297 -2.081397998 3.873606514e-20)
(97.32776079 -1.452654778 -3.622672019e-20)
(97.2358882 -0.8566500368 -2.457092651e-21)
(97.18496656 -0.2826480294 2.465265124e-21)
(100.0235695 -6.452927892 -2.876584947e-20)
(99.38898433 -6.481311899 -2.454279708e-20)
(98.73443601 -6.229814992 -2.107754602e-20)
(98.22161581 -5.73215136 8.907648021e-21)
(97.81699492 -5.071545439 0)
(97.50193966 -4.350276935 0)
(97.18175586 -3.495842126 0)
(97.07926207 -2.816236468 0)
(96.85882779 -1.966171294 0)
(96.76534695 -1.385154013 0)
(96.69646281 -0.8197713917 0)
(96.65694803 -0.2716034891 0)
(100.2060236 -5.497366864 -3.531658917e-21)
(99.31900269 -5.50284262 -6.265581768e-22)
(98.42550188 -5.311163501 0)
(97.73997969 -4.942377764 0)
(97.23849626 -4.447319857 0)
(96.88743359 -3.882030828 0)
(96.58431542 -3.175417576 0)
(96.49740212 -2.594078765 0)
(96.31433268 -1.826881888 0)
(96.24257254 -1.297616837 0)
(96.18823599 -0.7701439667 0)
(96.15725314 -0.2558194979 0)
(100.3049627 -4.748733743 0)
(99.23938615 -4.724551975 0)
(98.18816042 -4.566968153 0)
(97.37765464 -4.283000588 0)
(96.79058082 -3.898945993 0)
(96.39200265 -3.447359832 0)
(96.08208095 -2.858619853 0)
(95.99090958 -2.362346113 0)
(95.82449214 -1.677101137 0)
(95.76364687 -1.199584405 0)
(95.71702298 -0.7136769518 0)
(95.69113263 -0.2375638557 0)
(100.3496668 -4.13804232 -5.531933788e-35)
(99.15956861 -4.095016368 0)
(97.9978778 -3.958848134 0)
(97.09363 -3.730165663 0)
(96.43460489 -3.42273098 0)
(95.98835287 -3.055516129 0)
(95.65697376 -2.560476783 0)
(95.55069 -2.134875002 0)
(95.38700058 -1.526236089 0)
(95.32901837 -1.098159171 0)
(95.28495381 -0.65464511 0)
(95.26164386 -0.2183692451 0)
(100.360608 -3.629554741 0)
(99.08054162 -3.57598372 0)
(97.83849982 -3.454600785 0)
(96.8630771 -3.263919944 0)
(96.14471777 -3.011070662 0)
(95.65420639 -2.70677984 0)
(95.29513028 -2.286802437 0)
(95.16760842 -1.919796351 0)
(94.99768148 -1.380613564 0)
(94.93702014 -0.9983180332 0)
(94.89191123 -0.5960916072 0)
(94.86929994 -0.1992544169 0)
(100.3491562 -3.201711907 -7.188124727e-35)
(99.00281507 -3.142301325 0)
(97.70079609 -3.031931185 0)
(96.67054988 -2.868632684 0)
(95.90351919 -2.655905961 0)
(95.37337834 -2.399430059 0)
(94.98492596 -2.039887676 0)
(94.83326681 -1.721507801 0)
(94.65171047 -1.244166722 0)
(94.58481737 -0.9033103179 0)
(94.53630475 -0.5400513329 0)
(94.51306186 -0.1808949975 0)
(100.3229194 -2.838972331 0)
(98.92676654 -2.776550481 0)
(97.57911903 -2.674864827 0)
(96.50605257 -2.532120231 0)
(95.69908472 -2.349755575 0)
(95.13408418 -2.130356805 0)
(94.71681075 -1.819865766 0)
(94.54029123 -1.541936555 0)
(94.34420232 -1.119053003 0)
(94.26898149 -0.8150998628 0)
(94.21562916 -0.487795751 0)
(94.19086031 -0.1637167981 0)
(100.286838 -2.530066185 2.414808172e-35)
(98.85266363 -2.466257716 0)
(97.4698239 -2.371698699 0)
(96.36291558 -2.244912393 0)
(95.52308594 -2.086118248 0)
(94.92771125 -1.896002637 0)
(94.48322242 -1.625665493 0)
(94.28238167 -1.381492099 0)
(94.07047782 -1.006218509 0)
(93.98585695 -0.7347379676 0)
(93.9268948 -0.4400412191 0)
(93.90003482 -0.1479653448 0)
(100.2441268 -2.266428404 0)
(98.78063431 -2.202132017 0)
(97.37040661 -2.113578601 0)
(96.23649567 -1.999519551 0)
(95.36951158 -1.859419551 0)
(94.74778203 -1.692793228 0)
(94.27812002 -1.455601317 0)
(94.05417881 -1.239680502 0)
(93.82619921 -0.9058262362 0)
(93.7317951 -0.662645356 0)
(93.6669155 -0.3971105865 0)
(93.63763963 -0.1337580719 0)
(100.1969628 -2.041355096 0)
(98.71072808 -1.977108801 0)
(97.27907981 -1.893716324 0)
(96.12345998 -1.790015335 0)
(95.23392865 -1.664988757 0)
(94.58935268 -1.517428788 0)
(94.09667511 -1.307784448 0)
(93.85116951 -1.115549517 0)
(93.60741264 -0.8175671025 0)
(93.50327969 -0.598828486 0)
(93.43247528 -0.3590598594 0)
(93.40062542 -0.1211245121 0)
(100.1468978 -1.849561333 0)
(98.64293644 -1.78568612 0)
(97.19449055 -1.706778047 0)
(96.02130114 -1.611623763 0)
(95.11294274 -1.498891404 0)
(94.4485282 -1.366932748 0)
(93.93491195 -1.180282539 0)
(93.66947013 -1.007904012 0)
(93.41053491 -0.7408602657 0)
(93.29698501 -0.5430373188 0)
(93.22042665 -0.3257766516 0)
(93.18595318 -0.1100378793 0)
(100.0950317 -1.686919299 0)
(98.57719477 -1.623576068 0)
(97.11557619 -1.548563242 0)
(95.92808006 -1.46050863 0)
(95.00390038 -1.357863361 0)
(94.32219518 -1.238713328 0)
(93.78954216 -1.071279942 0)
(93.50575135 -0.9155008572 0)
(93.23235966 -0.6750163513 0)
(93.10983727 -0.4948885817 0)
(93.02778916 -0.2970575497 0)
(92.99070993 -0.1004403705 0)
(100.0421274 -1.550099086 0)
(98.51336485 -1.487355626 0)
(97.04144482 -1.415700027 0)
(95.84222578 -1.333546243 0)
(94.9046444 -1.239183081 0)
(94.20776902 -1.130519336 0)
(93.65779415 -0.979132482 0)
(93.35711466 -0.8371470622 0)
(93.06994826 -0.6193081278 0)
(92.93895178 -0.4539400936 0)
(92.85171046 -0.2726540244 0)
(92.81207523 -0.09225734151 0)
(99.98871673 -1.43639748 -3.764631484e-36)
(98.45126325 -1.374276373 0)
(96.97132689 -1.305479594 0)
(95.76243496 -1.228204539 0)
(94.81339252 -1.140621301 0)
(94.10302558 -1.040579509 0)
(93.53728579 -0.9024776872 0)
(93.22100255 -0.7717399782 0)
(92.92080931 -0.5730914699 0)
(92.78183282 -0.4197440021 0)
(92.68969768 -0.2523176784 0)
(92.64758452 -0.08541519943 0)
(99.9351738 -1.343632615 0)
(98.39068922 -1.282139148 0)
(96.90454574 -1.21573436 0)
(95.68760299 -1.142438261 0)
(94.72867679 -1.060344986 0)
(94.00635776 -0.967529186 0)
(93.4257512 -0.8402652842 0)
(93.09513152 -0.718358914 0)
(92.78206323 -0.5356235281 0)
(92.6355651 -0.3918804323 0)
(92.5387726 -0.2357890991 0)
(92.49420789 -0.07982765634 0)
(99.8817631 -1.270053298 0)
(98.33142498 -1.209184752 0)
(96.84047701 -1.144728819 0)
(95.61673942 -1.074591383 0)
(94.64917417 -0.996797209 0)
(93.91623839 -0.909456335 0)
(93.3213316 -0.7911480682 0)
(92.97732867 -0.6759062022 0)
(92.65339932 -0.5068749848 0)
(92.49984277 -0.3699930193 0)
(92.39866719 -0.2229364715 0)
(92.35182626 -0.07547624403 0)
(99.82868037 -1.214327001 0)
(98.2732529 -1.154056742 0)
(96.77854633 -1.091122469 0)
(95.54894475 -1.023385443 0)
(94.57363349 -0.9488102442 0)
(93.83069905 -0.8653865457 0)
(93.22266598 -0.7540917117 0)
(92.86587444 -0.6445386394 0)
(92.52618974 -0.4842052298 0)
(92.36504076 -0.3536719788 0)
(92.25937568 -0.2133480528 0)
(92.20987729 -0.07215617608 0)
(99.77603962 -1.175480722 0)
(98.21593594 -1.115742413 0)
(96.71820279 -1.053907329 0)
(95.48339013 -0.9878612899 0)
(94.50097019 -0.9155345929 0)
(93.74863736 -0.8348061116 0)
(93.12825409 -0.7286653638 0)
(92.75948115 -0.6232279057 0)
(92.42518475 -0.473156754 0)
(92.25943457 -0.3437245957 0)
(92.15039945 -0.207792965 0)
(92.09937414 -0.07036238893 0)
(99.72396632 -1.152873643 0)
(98.15929655 -1.093549374 0)
(96.65896693 -1.032377752 0)
(95.41935061 -0.9673362437 0)
(94.43023703 -0.896347838 0)
(93.66883743 -0.8173464045 0)
(93.0407761 -0.7147058026 0)
(92.66197293 -0.611751144 0)
(92.23986347 -0.4589267471 0)
(92.06090389 -0.3357396971 0)
(91.94534893 -0.2029568838 0)
(91.89086147 -0.06834733314 0)
(103.2855775 -30.25443248 -3.472548029e-19)
(104.1798865 -29.86979682 -9.333680015e-19)
(108.4545609 -21.00602024 -1.276106493e-18)
(95.49567224 -20.18640714 0)
(102.9406448 -30.1152392 3.280987406e-19)
(96.95412349 -20.4509699 0)
(102.6540917 -17.77869778 -9.560137936e-19)
(107.506564 -20.75475251 -5.583132052e-19)
(97.24345187 -12.80338228 0)
(95.49746675 -19.43620291 0)
(107.4399343 -25.59295165 -5.866810801e-19)
(97.62340896 -25.57627942 2.241496062e-20)
(98.13069228 -26.28002237 -8.28490934e-20)
(99.10595406 -25.7826695 1.942472534e-19)
(103.1028711 -22.87134649 -5.203148269e-19)
(106.2423541 -25.02197945 5.853751151e-19)
(105.3658557 -31.31289882 0)
(100.5117958 -28.71834609 -6.255096478e-19)
(105.567963 -31.41322092 0)
(106.4804809 -31.17053571 -4.973029501e-19)
(108.7045014 -28.88416152 6.563559008e-19)
(99.87128794 -28.17593116 2.000482485e-19)
(98.0615624 -13.44876575 2.489388557e-20)
(100.232343 -13.23034928 -6.528965173e-20)
(101.7190924 -16.56059734 3.866780261e-19)
(105.956445 -27.80211602 -4.594837691e-19)
(107.9984722 -28.65153898 1.749513575e-18)
(106.1846072 -31.05538596 4.977238366e-19)
(100.3430846 -19.2816378 0)
(102.2520456 -22.01211683 0)
(98.59972946 -25.13294159 -5.558225829e-20)
(96.0446796 -15.58748299 -7.798575182e-21)
(93.88749858 -29.40409973 0)
(106.0249441 -31.55228297 5.907152142e-19)
(91.60871597 -23.85556489 3.898089295e-19)
(96.40390922 -23.32972643 2.611368126e-19)
(96.61677721 -30.29654087 -5.366312815e-19)
(98.72567706 -30.81366631 4.532411482e-19)
(104.5522094 -30.93835609 -4.240423447e-19)
(93.92777865 -29.78698719 1.213701709e-18)
(91.66908419 -29.24182139 3.474481635e-18)
(96.39674745 -30.37278422 -3.541855979e-19)
(94.45395454 -29.96244199 1.544905136e-18)
(82.89820811 -27.36575922 0)
(97.6293557 -30.24986407 -2.694853601e-19)
(96.90374938 -30.46394687 3.251616032e-19)
(97.3397288 -29.46238033 -3.403814481e-19)
(97.65558857 -30.10306868 0)
(84.16423205 -27.50485565 -2.20915607e-20)
(90.80059191 -29.03124783 1.716771541e-17)
(106.0248792 -31.55760345 -5.829750986e-19)
(94.46513697 -29.61092154 1.768124068e-18)
(95.15823222 -29.91208384 -3.587523726e-18)
(108.5955236 -20.06685276 -6.096680103e-19)
(108.654698 -14.85425964 -7.373219632e-19)
(104.2410619 -30.83440808 4.240771733e-19)
(99.05819263 -30.91593424 0)
(99.67679473 -30.79136342 0)
(102.1336376 -30.83669252 -2.082972885e-18)
(105.8815393 -31.50569324 1.327035014e-18)
(107.5790541 -31.47970824 -5.939518199e-19)
(109.2055027 -30.50969881 0)
(85.955293 -28.11336665 -1.404433731e-18)
(85.09332831 -27.95312674 1.782137032e-17)
(82.39932393 -27.26217822 -1.162680614e-18)
(87.06116506 -28.26686494 6.205505148e-20)
(85.70211674 -28.06381309 2.059882951e-18)
(96.55777505 -28.26766637 -1.215858873e-19)
(97.14835654 -29.24573815 -2.025140963e-19)
(97.22622131 -29.75934183 3.182750679e-18)
(98.05087453 -30.13881863 3.971524408e-18)
(96.82004508 -29.84440672 -5.005910928e-18)
(92.65575663 -29.45572536 3.094381368e-18)
(88.33072598 -28.54391578 -9.650947032e-18)
(88.91469289 -28.69990651 2.467730622e-18)
(91.42160389 -29.25255903 0)
(95.66038911 -30.23120563 6.65800427e-20)
(89.72367484 -28.91239205 -2.453308049e-18)
(91.30030785 -29.29022808 3.67628148e-19)
(88.81574574 -28.66847553 -2.883777463e-18)
(88.33093349 -28.65378351 8.144521628e-19)
(94.93730357 -30.15126095 3.764590484e-19)
(89.58878182 -28.91461019 0)
(88.6285174 -28.6291249 0)
(83.19730467 -27.42329629 2.269706472e-18)
(85.47335762 -27.75731526 4.567394192e-19)
(91.07557928 -29.03762872 2.962809505e-19)
(90.39468433 -28.96288789 -1.089605846e-19)
(94.32967003 -29.63086947 0)
(99.60777948 -30.73503393 -6.186097558e-19)
(99.20325732 -30.52320317 1.951203925e-18)
(100.5831935 -31.03519231 -2.237322734e-19)
(99.9814402 -30.94469557 0)
(93.83483714 -29.64727056 4.267728367e-18)
(108.3250866 -13.59123705 7.545845228e-19)
(107.221233 -10.59770366 -2.005850366e-19)
(106.8443639 -9.790139618 -3.708084296e-19)
(105.716958 -7.767754892 -2.666291089e-20)
(105.344305 -7.194130418 -6.901235184e-19)
(104.2246011 -5.697272944 3.168800796e-19)
(101.4499819 -28.13509173 1.05058609e-18)
(103.4431755 -26.23428404 1.20866209e-18)
(105.3016438 -27.45424151 0)
(103.3223276 -16.6417763 5.76214248e-19)
(104.2374659 -13.59101558 9.205148503e-19)
(107.4070257 -14.69099139 6.671439744e-19)
(104.2798165 -12.70958902 -9.420279642e-19)
(104.087219 -10.4369023 8.257225688e-19)
(106.3833795 -10.66318286 -1.708838895e-19)
(103.9548519 -9.777420538 0)
(103.4338158 -8.031640442 -1.648684358e-20)
(105.1209589 -7.906142134 1.384701823e-18)
(103.2260148 -7.509780477 5.714383334e-19)
(102.5131662 -6.085141437 0)
(103.7936659 -5.843831232 -2.962074587e-19)
(97.10027729 -15.82827591 1.598917209e-19)
(99.20770145 -15.8956842 0)
(99.94463496 -18.35961626 0)
(100.7011652 -12.86246764 0)
(101.5105041 -11.44959606 -4.18800605e-19)
(103.4013821 -13.09602072 -8.167658453e-19)
(101.6274677 -10.94578143 -1.074062905e-19)
(101.7366884 -9.480496137 0)
(103.4211159 -10.24797394 7.527147731e-19)
(101.7110476 -9.009910041 0)
(101.4945139 -7.669047074 -4.064738929e-19)
(102.9059568 -7.986505009 5.081034555e-19)
(101.3819711 -7.23901234 8.449214289e-19)
(100.9482097 -6.024747758 0)
(102.1026469 -6.104813366 -2.714015086e-21)
(98.51385906 -9.64824178 1.20537899e-19)
(97.35705297 -11.76289399 4.176743196e-20)
(99.04041193 -10.12631021 -2.227983343e-20)
(99.65855708 -10.1705936 3.013953224e-20)
(100.00635 -12.32936278 6.576794554e-20)
(99.81109166 -10.06056326 -2.753171919e-20)
(100.0891141 -9.439247001 7.711912016e-20)
(101.0563132 -10.91500652 2.4663047e-19)
(100.1278479 -9.172503182 -3.583517362e-19)
(100.1525463 -8.280121563 -1.053555924e-19)
(101.2747224 -9.183182794 0)
(100.13537 -7.960677171 -6.960218277e-19)
(99.99632518 -6.978821079 -1.519439068e-19)
(101.0787528 -7.514778158 2.161028302e-19)
(99.92255308 -6.648279709 -8.009312809e-20)
(99.6283989 -5.669781145 0)
(100.5930774 -5.955230213 0)
(99.18935843 -7.806073619 -7.526797741e-20)
(98.75484167 -9.111070427 -3.916090332e-19)
(99.6083226 -8.117736681 -2.889897485e-20)
(99.55383377 -8.170177898 -2.507204573e-21)
(99.60876327 -9.594778782 -6.526465952e-20)
(99.51054621 -8.141583308 -2.388706249e-21)
(99.3649348 -7.836401237 -9.631697869e-20)
(99.861495 -8.999680144 -1.908103997e-20)
(99.30951927 -7.68493963 -3.196115201e-20)
(99.14364892 -7.123444075 9.572720158e-20)
(99.85666554 -7.981876069 3.702068943e-19)
(99.08597405 -6.907481456 0)
(98.89005145 -6.197384922 5.661933152e-20)
(99.68701217 -6.787404645 0)
(98.81437076 -5.944898737 1.827650975e-21)
(98.57378792 -5.185795205 0)
(99.34112782 -5.555559085 0)
(99.51783874 -6.536145346 1.070622909e-19)
(99.28462676 -7.449430099 1.686766147e-19)
(99.96133308 -6.735827734 -3.629782002e-20)
(99.56329818 -6.779314706 1.250304498e-20)
(99.55310547 -7.778155662 0)
(99.40568612 -6.767038041 -2.686166506e-20)
(98.96188094 -6.587286166 -9.535017719e-21)
(99.24394281 -7.495090388 -8.115060116e-20)
(98.8269435 -6.490474366 6.049436139e-20)
(98.47226601 -6.106885818 -3.209689507e-20)
(98.95151196 -6.855116293 -8.913609909e-20)
(98.3672762 -5.95172734 2.925488679e-20)
(98.07724401 -5.42646404 0)
(98.66288037 -5.999035519 2.815853214e-20)
(97.98825708 -5.238965357 0)
(97.74792749 -4.661419072 0)
(98.34831339 -5.055761772 0)
(99.82846972 -5.598207257 0)
(99.59350221 -6.278444713 -1.167857186e-21)
(100.169353 -5.713378758 8.976917987e-21)
(99.57041619 -5.736544164 1.242428611e-21)
(99.56929319 -6.491627093 3.090184532e-22)
(99.33779497 -5.726437064 -1.277723028e-21)
(98.68933045 -5.594198479 -3.565883822e-21)
(98.88609346 -6.318264871 0)
(98.49514728 -5.523425946 2.507094427e-21)
(97.99106095 -5.240923419 0)
(98.33766927 -5.876094633 -2.265233741e-20)
(97.84714098 -5.126642752 0)
(97.4751362 -4.737801681 0)
(97.90998563 -5.245834244 0)
(97.36900971 -4.596305692 0)
(97.10106337 -4.14956802 0)
(97.57146611 -4.530555905 0)
(100.0976644 -4.844727796 0)
(99.90407569 -5.395670409 1.522116465e-20)
(100.2864834 -4.920783898 0)
(99.54061607 -4.917599472 0)
(99.56560892 -5.514156759 6.282694472e-22)
(99.25939472 -4.903301479 0)
(98.47612902 -4.793695649 0)
(98.63106339 -5.377377514 0)
(98.24222729 -4.738716379 0)
(97.63321887 -4.523765531 0)
(97.8920118 -5.048592661 0)
(97.45963661 -4.436977524 0)
(97.01655244 -4.138910088 0)
(97.34912428 -4.579793998 0)
(96.89269487 -4.029021382 0)
(96.5871848 -3.676214673 0)
(96.96166264 -4.026548544 0)
(100.2545039 -4.225565544 0)
(100.1462963 -4.678485883 0)
(100.3421881 -4.280118185 0)
(99.49378423 -4.257295006 0)
(99.53001225 -4.739554944 0)
(99.17947271 -4.240822567 0)
(98.30406333 -4.145129275 0)
(98.42997507 -4.619034286 0)
(98.0420742 -4.100083773 0)
(97.35556712 -3.928286496 0)
(97.55757564 -4.364576473 0)
(97.15885313 -3.859554147 0)
(96.6565654 -3.623115603 0)
(96.91866488 -4.002552986 0)
(96.51656372 -3.535413128 0)
(96.17266496 -3.250963758 0)
(96.47533974 -3.564847348 0)
(100.3406598 -3.711990299 4.692514037e-35)
(100.281156 -4.088335247 5.545044885e-35)
(100.3603434 -3.748389109 -4.68174534e-35)
(99.43819062 -3.714417867 0)
(99.48053194 -4.111817966 0)
(99.10019325 -3.69691724 0)
(98.15853261 -3.610677427 0)
(98.26559067 -4.001996657 0)
(97.87602951 -3.572270361 0)
(97.13139028 -3.429610946 0)
(97.29527542 -3.795371015 0)
(96.91666103 -3.373281871 0)
(96.36604061 -3.180135738 0)
(96.57830824 -3.505958845 0)
(96.21205602 -3.108378004 0)
(95.83260363 -2.874261362 0)
(96.08149578 -3.151884821 0)
(100.3851974 -3.280453145 0)
(100.3549751 -3.597164799 0)
(100.353648 -3.302048178 0)
(99.37751285 -3.26177205 0)
(99.42339038 -3.593646729 0)
(99.02210232 -3.243773408 0)
(98.03140697 -3.164574479 0)
(98.12525513 -3.491680533 0)
(97.73354162 -3.130909682 0)
(96.94457254 -3.008970622 0)
(97.08165871 -3.317758677 0)
(96.71573258 -2.961520075 0)
(96.1258378 -2.799815146 0)
(96.30186085 -3.079556979 0)
(95.95997942 -2.739825446 0)
(95.54889163 -2.543565992 0)
(95.75698493 -2.787053963 0)
(100.4026794 -2.914306504 -6.186973445e-35)
(100.3917039 -3.183318814 7.20402527e-35)
(100.3305588 -2.924223983 6.173572362e-35)
(99.31406081 -2.880542345 0)
(99.36184005 -3.160369764 0)
(98.94560386 -2.862364223 0)
(97.91785858 -2.788770134 0)
(98.00188936 -3.06461308 0)
(97.60825859 -2.758676051 0)
(96.78494566 -2.652146097 0)
(96.90242376 -2.914255765 0)
(96.54495499 -2.611292498 0)
(95.9231061 -2.473142025 0)
(96.0720426 -2.713439146 0)
(95.74724814 -2.422068509 0)
(95.30852275 -2.254898377 0)
(95.48516234 -2.467308652 0)
(100.401559 -2.601664946 0)
(100.4038908 -2.831517154 0)
(100.2965831 -2.602749884 0)
(99.24934833 -2.557326659 0)
(99.29795555 -2.794736756 0)
(98.87099789 -2.539183319 0)
(97.81483775 -2.470254126 0)
(97.89121037 -2.704197734 0)
(97.49613837 -2.442961273 0)
(96.64586375 -2.348320981 0)
(96.74845549 -2.571586 0)
(96.39697778 -2.31253101 0)
(95.74903466 -2.192520279 0)
(95.87718158 -2.398938509 0)
(95.56477996 -2.148362875 0)
(95.1021262 -2.003990984 0)
(95.25405057 -2.188520745 0)
(100.3873343 -2.33378008 -2.096284809e-35)
(100.3990596 -2.530788152 -2.419916181e-35)
(100.2552941 -2.328485339 2.091916062e-35)
(99.18433702 -2.282215794 0)
(99.23309536 -2.484367819 0)
(98.79844316 -2.264250552 0)
(97.72027519 -2.199309601 0)
(97.79047014 -2.398381533 0)
(97.39444112 -2.174283791 0)
(96.52277644 -2.089089867 0)
(96.61373713 -2.279617501 0)
(96.26673189 -2.057292479 0)
(95.59737374 -1.951583094 0)
(95.70922046 -2.128789226 0)
(95.40606538 -1.912899222 0)
(94.92277465 -1.786701811 0)
(95.05498645 -1.94642969 0)
(100.3638473 -2.103972215 0)
(100.3822065 -2.272986773 0)
(100.2090777 -2.094319334 0)
(99.11964496 -2.047710992 0)
(99.16811542 -2.22003593 0)
(98.72800511 -2.030022824 0)
(97.63270396 -1.968556203 0)
(97.69777534 -2.138102767 0)
(97.30123283 -1.945408402 0)
(96.41246121 -1.867888791 0)
(96.49410563 -2.030449257 0)
(96.15061251 -1.839305494 0)
(95.46358542 -1.745081231 0)
(95.56240102 -1.896914155 0)
(95.26633782 -1.71079867 0)
(94.76526281 -1.599285081 0)
(94.88152829 -1.736974305 0)
(100.3338883 -1.907022593 0)
(100.3568744 -2.051827318 0)
(100.1596202 -1.894635454 0)
(99.05568324 -1.847990555 0)
(99.10357349 -1.9947158 0)
(98.65968984 -1.830647253 0)
(97.55101989 -1.772242686 0)
(97.61176818 -1.916443739 0)
(97.21506978 -1.750675705 0)
(96.31252398 -1.679489416 0)
(96.38658361 -1.817892812 0)
(96.04593689 -1.653532002 0)
(95.34424681 -1.568654313 0)
(95.43251066 -1.698307247 0)
(95.14197847 -1.53795172 0)
(94.62555124 -1.438415289 0)
(94.72880638 -1.556515611 0)
(100.2994383 -1.738958386 0)
(100.3256336 -1.862428297 0)
(100.1081209 -1.725040823 0)
(98.99270375 -1.678521179 0)
(99.03983831 -1.802936667 0)
(98.59344462 -1.661555631 0)
(97.474348 -1.605848076 0)
(97.53141076 -1.727989058 0)
(97.13482401 -1.58562116 0)
(96.2211201 -1.519706006 0)
(96.28893361 -1.637000774 0)
(95.95063866 -1.495912262 0)
(95.23670194 -1.418699697 0)
(95.31634285 -1.528805848 0)
(95.03016647 -1.390928069 0)
(94.50043714 -1.301209962 0)
(94.59301413 -1.401836292 0)
(100.2618824 -1.596651988 0)
(100.2902965 -1.701076087 0)
(100.0554184 -1.582040393 0)
(98.93081937 -1.535729912 0)
(98.97712856 -1.640445946 0)
(98.52915249 -1.519143698 0)
(97.40195671 -1.465788956 0)
(97.45587571 -1.568488312 0)
(97.05957294 -1.446696989 0)
(96.1367784 -1.385176305 0)
(96.19942437 -1.483823024 0)
(95.86307366 -1.363169774 0)
(95.13883209 -1.292256817 0)
(95.21140167 -1.384988778 0)
(94.92864393 -1.266887701 0)
(94.38731909 -1.185213523 0)
(94.47112744 -1.270173621 0)
(100.2221836 -1.477549227 0)
(100.2521284 -1.564789832 0)
(100.0020938 -1.46278197 0)
(98.87003363 -1.416730198 0)
(98.91552156 -1.503849303 0)
(98.46663691 -1.40050446 0)
(97.33319516 -1.349175012 0)
(97.38445008 -1.434537224 0)
(96.98851784 -1.331037837 0)
(96.05827107 -1.273165843 0)
(96.1166483 -1.35515722 0)
(95.7818767 -1.252631381 0)
(95.04888479 -1.186884031 0)
(95.11566424 -1.264023191 0)
(94.83553906 -1.163480097 0)
(94.28398903 -1.08837424 0)
(94.36065013 -1.15915968 0)
(100.1810215 -1.379578984 0)
(100.2120083 -1.451148354 3.772045078e-36)
(99.94855611 -1.364964044 0)
(98.81029768 -1.319210601 0)
(98.85500434 -1.390416631 0)
(98.40570129 -1.30331349 0)
(97.26748542 -1.253697737 0)
(97.31650343 -1.323404005 0)
(96.92096315 -1.236353053 0)
(95.9845612 -1.18147597 0)
(96.03943166 -1.248414787 0)
(95.70590177 -1.162141704 0)
(94.96541226 -1.10059468 0)
(95.0274614 -1.163592924 0)
(94.7493162 -1.078789992 0)
(94.18871419 -1.009062088 0)
(94.25947603 -1.066878399 0)
(100.1389057 -1.301035891 0)
(100.1705646 -1.358180842 0)
(99.89509106 -1.286728353 0)
(98.75152365 -1.24131195 0)
(98.79551805 -1.297959919 0)
(98.34612958 -1.225704844 0)
(97.20428863 -1.177504264 0)
(97.25147106 -1.232904731 0)
(96.85627148 -1.16080227 0)
(95.91472542 -1.10832738 0)
(95.96677339 -1.161511527 0)
(95.63413334 -1.089948641 0)
(94.88714311 -1.031729149 0)
(94.94540498 -1.081802658 0)
(94.66863142 -1.011187439 0)
(94.10003161 -0.9456911422 0)
(94.16598551 -0.9917399997 0)
(100.0962462 -1.240584238 1.450149802e-35)
(100.1282785 -1.284271602 0)
(99.84191281 -1.226643717 -1.447366596e-35)
(98.69360943 -1.181590269 0)
(98.73696927 -1.224726083 0)
(98.28770628 -1.166228474 0)
(97.14310651 -1.119153644 0)
(97.18882349 -1.161292466 0)
(96.79385907 -1.102953409 0)
(95.84792854 -1.052332148 0)
(95.89777283 -1.092767168 0)
(95.56565221 -1.034684291 0)
(94.81289698 -0.9789898437 0)
(94.8682488 -1.017074509 0)
(94.59220845 -0.959398028 0)
(94.01624038 -0.8970404252 0)
(94.0786873 -0.9321243749 0)
(100.0533491 -1.197227072 -4.783766968e-36)
(100.0855349 -1.228174639 0)
(99.78915393 -1.183649043 4.774662058e-36)
(98.63642042 -1.138954973 0)
(98.67925013 -1.169365029 0)
(98.23019806 -1.123786993 0)
(97.0834565 -1.077550695 0)
(97.12806903 -1.107218516 0)
(96.73316848 -1.061717326 0)
(95.78339488 -1.012436635 0)
(95.83161211 -1.040883389 0)
(95.49961085 -0.9953134551 0)
(94.74161486 -0.9414247153 0)
(94.79483732 -0.9682076177 0)
(94.51892104 -0.9225119092 0)
(93.93606488 -0.8624124101 0)
(93.9959048 -0.8870670191 0)
(100.0104002 -1.170291619 0)
(100.0426174 -1.18897408 0)
(99.73684845 -1.157023781 0)
(98.57977913 -1.112645788 0)
(98.62221853 -1.130870963 0)
(98.17334512 -1.097613267 0)
(97.02486117 -1.051919325 0)
(97.06872918 -1.069669852 0)
(96.67365792 -1.036318733 0)
(95.72039936 -0.9878834235 0)
(95.76753075 -1.00488407 0)
(95.43522493 -0.971090104 0)
(94.67234183 -0.9183358227 0)
(94.72414529 -0.934317675 0)
(94.44775996 -0.8998505012 0)
(93.85832926 -0.8411737912 0)
(93.91644329 -0.8558311506 0)
(99.96238383 -1.158380114 -2.960648924e-37)
(99.99977533 -1.166093061 0)
(99.6789174 -1.145622913 2.956655206e-37)
(98.51679062 -1.10184527 0)
(98.56578629 -1.10855775 0)
(98.1101227 -1.086894113 0)
(96.95990395 -1.041393135 0)
(97.01039178 -1.047941758 0)
(96.60776744 -1.025878931 0)
(95.65087752 -0.9777960444 0)
(95.70486296 -0.9840766868 0)
(95.36423081 -0.9611477454 0)
(94.59611133 -0.9088781945 0)
(94.65527866 -0.9147640804 0)
(94.3694922 -0.8905578115 0)
(93.77292671 -0.8322238315 0)
(93.83917832 -0.8378948252 0)
(103.6018188 -30.4911309 -3.681752986e-19)
(102.8690065 -30.77228711 1.209966828e-20)
(102.5917016 -30.58764428 1.047963218e-18)
(104.8946493 -29.19089849 1.393540887e-18)
(105.6025699 -29.53289987 2.680548897e-20)
(104.8816592 -30.2223079 -4.985913874e-20)
(111.520774 -21.73490326 0)
(111.483853 -25.46506338 -7.880807959e-19)
(107.8358048 -24.39532221 1.183157399e-18)
(96.11656072 -22.52375855 -2.413601049e-20)
(91.64367577 -22.81978264 0)
(99.7491668 -30.71302113 0)
(99.48160231 -30.24967495 0)
(101.8437836 -29.70847572 -4.35267946e-19)
(98.34166065 -20.16288092 -5.400257494e-20)
(98.80891887 -21.38466014 4.11936606e-20)
(97.07578536 -22.33548807 0)
(104.3522018 -18.89667018 3.63919059e-19)
(102.9545159 -21.17429997 -2.376814841e-19)
(101.0526394 -18.78802742 0)
(106.7116737 -23.88703599 0)
(103.7712846 -21.93357923 3.4930176e-19)
(105.0760995 -19.31712197 0)
(96.37247824 -14.74623581 -2.823302332e-20)
(95.34547958 -17.70115426 6.690681142e-20)
(108.6875162 -26.08661894 -3.295773566e-19)
(108.364735 -27.95860317 -5.861173369e-19)
(106.3763154 -27.136568 2.277634973e-20)
(109.0479705 -28.16438527 -6.29919866e-19)
(109.7287111 -26.02655982 -6.168591185e-19)
(107.9605547 -31.56860137 -1.222045147e-20)
(108.9904732 -31.36021282 -1.094587945e-20)
(96.43419258 -25.9963033 -5.384743276e-20)
(95.98182634 -25.21850329 0)
(97.16202352 -24.85721748 0)
(98.67896145 -26.95242262 0)
(97.4549103 -27.44372544 -3.722899207e-20)
(96.9287772 -26.73650146 -1.008324429e-19)
(101.2225453 -24.29220875 3.294903783e-19)
(102.8532244 -25.84462695 -5.153170875e-19)
(100.8192262 -27.5990855 -5.545402112e-19)
(104.0555805 -23.67176805 0)
(103.2958962 -24.71408481 4.815240899e-19)
(102.2714689 -23.81851265 2.473064076e-19)
(105.7546282 -26.81861829 8.85694486e-19)
(104.4300867 -25.539136 -5.402459048e-20)
(105.1061959 -24.39031435 -8.688675305e-19)
(103.9167066 -31.42817024 2.554462375e-19)
(103.8843099 -31.38021228 0)
(105.1273728 -31.20885401 -4.723473605e-19)
(91.85234065 -29.01141322 -2.666883643e-20)
(91.50425302 -29.07783441 -2.603690827e-20)
(85.98090293 -27.83644803 1.674954347e-19)
(101.1755309 -29.23440861 0)
(99.30499827 -30.06288702 2.408268901e-19)
(98.5798942 -29.34767104 -1.494069266e-20)
(105.7603445 -31.50346988 0)
(103.7503429 -31.51289318 0)
(103.8484623 -31.46561994 -2.44771483e-19)
(107.7618957 -30.36260854 -1.101703467e-18)
(108.4859295 -30.57393891 -1.790465499e-19)
(107.3479535 -31.43082788 -5.841528491e-19)
(109.4230436 -29.09326478 -1.336291494e-18)
(109.0275293 -29.84635458 -2.362075603e-20)
(108.2979833 -29.6308783 2.279785417e-20)
(109.7572325 -30.0370508 7.095394366e-19)
(110.1457227 -29.27712784 2.347974025e-20)
(98.58969175 -28.7393519 3.911926066e-20)
(98.01273934 -28.1185275 3.102470945e-19)
(99.25910513 -27.58923231 -6.990358124e-19)
(92.62998295 -28.72750432 -9.592413708e-20)
(92.25259706 -28.86474295 -1.333222708e-19)
(95.20860968 -27.1478211 -7.5041548e-22)
(96.29801267 -27.98088596 1.269638083e-19)