/*--------------------------------*- C++ -*----------------------------------*\
| =========                 |                                                 |
| \\      /  F ield         | OpenFOAM: The Open Source CFD Toolbox           |
|  \\    /   O peration     | Version:  v2012                                 |
|   \\  /    A nd           | Website:  www.openfoam.com                      |
|    \\/     M anipulation  |                                                 |
\*---------------------------------------------------------------------------*/
FoamFile
{
    version     2.0;
    format      ascii;
    class       surfaceVectorField;
    location    "0.92";
    object      Uf;
}
// * * * * * * * * * * * * * * * * * * * * * * * * * * * * * * * * * * * * * //

dimensions      [0 1 -1 0 0 0 0];


internalField   nonuniform List<vector> 
5975
(
(104.3696977 -28.90620114 -1.811389651e-19)
(103.6830429 -29.17248822 -2.521825496e-19)
(103.6674959 -28.54481327 -3.917849442e-19)
(104.3690563 -28.39383973 -2.599103555e-22)
(103.4714748 -29.01773587 -3.367759484e-20)
(107.646007 -19.42315287 2.09716221e-19)
(108.3448668 -18.89567157 1.598766979e-19)
(106.7436694 -17.95676792 -1.07503469e-19)
(107.5963054 -17.54564194 -2.34845406e-19)
(107.0702302 -19.11123788 -1.429929345e-19)
(108.3898623 -18.22359117 -5.525223895e-20)
(107.7824964 -12.72484371 -3.779994553e-19)
(107.3568081 -13.30433968 -3.142225015e-19)
(106.7176705 -12.61941139 -1.57554581e-19)
(107.0879184 -12.15776428 -1.8138299e-20)
(106.2122436 -8.885574036 -6.672610249e-20)
(106.0452374 -9.340437163 -1.496609294e-19)
(105.504804 -8.956825556 -7.576312552e-20)
(105.6577436 -8.575034218 -2.207576331e-19)
(104.5321106 -6.331664483 -6.715450478e-20)
(104.4831668 -6.676641984 -2.096549097e-19)
(104.0519033 -6.455369052 -7.408450948e-20)
(104.1056406 -6.156550768 -2.476324847e-19)
(103.0490053 -4.855209857 3.720319057e-20)
(103.0509746 -4.597936393 -6.553357536e-20)
(102.7129597 -4.720127074 1.860913426e-22)
(102.727858 -4.492428865 -3.349663101e-20)
(101.7421028 -3.254336654 -1.495877167e-20)
(101.7516727 -3.632269552 1.091851091e-20)
(101.2761374 -3.446014171 -3.182854204e-20)
(101.3161355 -3.133890346 -3.232143378e-20)
(100.9652789 -2.403231748 2.470938521e-22)
(100.9538882 -2.697219258 0)
(100.6043174 -2.558736483 -1.080119809e-20)
(100.6483007 -2.311519368 0)
(99.7771939 -1.437244253 5.76459577e-21)
(99.66359345 -1.795794932 -9.368863119e-21)
(100.1012786 -2.057597769 0)
(100.3236044 -1.988414931 0)
(99.48137416 -0.9246026156 6.828829995e-21)
(99.33372395 -1.220906819 1.403797686e-20)
(99.30954374 -0.4524587617 -2.376118088e-21)
(99.12742343 -0.7138946961 1.061451025e-21)
(99.02152655 -0.2352119218 6.124651957e-21)
(97.07629352 -19.31467206 -6.804638759e-20)
(96.13586191 -18.85407782 2.72752062e-22)
(97.02135442 -18.00792957 5.070205836e-21)
(97.63412249 -18.55804324 1.234732064e-20)
(96.15415023 -18.37660374 -2.456026297e-20)
(102.1804061 -15.53599492 3.898589104e-20)
(102.9922498 -15.54121356 8.821228176e-20)
(102.1549771 -14.59614958 4.102692279e-20)
(102.774271 -14.63894949 3.310945409e-20)
(103.9874099 -11.79761281 -1.071838991e-20)
(103.5588831 -12.02620313 -1.180413193e-19)
(103.2498285 -11.40832133 -1.039949785e-19)
(103.5955779 -11.22922421 -2.367084808e-19)
(103.5610232 -8.825229361 1.165764627e-19)
(103.3398086 -9.090745576 2.474167282e-20)
(102.9866262 -8.690408396 4.898133994e-22)
(103.1736156 -8.466625863 5.363438667e-20)
(102.665965 -6.59727643 8.411466863e-20)
(102.5572685 -6.837848964 1.395447808e-19)
(102.233817 -6.579775495 8.239851548e-20)
(102.3322242 -6.369754614 5.570073308e-20)
(101.6495102 -5.15003385 -2.77580798e-20)
(101.7027345 -4.943121205 1.946953168e-22)
(101.3732995 -4.975745972 -5.330637803e-20)
(101.4276425 -4.797066164 5.644996366e-20)
(100.7982479 -3.580031561 -4.428659712e-20)
(100.7261103 -3.911790693 -2.304975757e-20)
(100.3189428 -3.660940685 -4.13813916e-20)
(100.4167567 -3.398726856 -1.714029238e-20)
(100.2303263 -2.676799693 -2.770443136e-20)
(100.1579288 -2.944465685 1.003583491e-20)
(99.84944627 -2.76131608 -2.937657896e-20)
(99.93341522 -2.537508977 -1.524901193e-20)
(99.23007898 -1.572099307 -4.609613759e-22)
(99.06834232 -1.906055897 -2.679198878e-20)
(99.44461815 -2.231678181 -6.820530417e-21)
(99.6759299 -2.182422517 -4.117408874e-21)
(98.98939926 -1.012070253 9.21928848e-21)
(98.80655161 -1.30301545 1.734732242e-20)
(98.84770842 -0.4956527655 9.218465125e-21)
(98.64042922 -0.7639722024 3.596803652e-22)
(98.55409407 -0.251737769 2.223885813e-21)
(98.22975141 -12.46895958 4.420473769e-20)
(97.89519693 -11.69529112 2.006610806e-20)
(98.50286725 -11.52577542 -1.100403976e-20)
(98.73460138 -11.98383221 2.20520146e-20)
(100.6180395 -11.9549346 -3.090636145e-21)
(100.2520272 -11.70131242 7.620838941e-21)
(100.3267064 -11.20289794 3.355644124e-20)
(100.6109445 -11.38422391 -2.765587304e-20)
(101.518138 -10.09576055 -1.935719782e-20)
(101.2295149 -10.10983274 1.730847651e-20)
(101.0822668 -9.658108216 -8.587202754e-21)
(101.3135781 -9.638580101 -2.650276509e-20)
(101.5026917 -8.112162407 1.736345308e-20)
(101.3109868 -8.229932999 -3.884938566e-20)
(101.0853332 -7.883568142 2.106862373e-21)
(101.2448176 -7.779917291 4.539948302e-21)
(101.0474552 -6.379737935 0)
(100.9274393 -6.526899055 4.26605003e-20)
(100.6913659 -6.274567759 -1.055337244e-20)
(100.7962394 -6.145106155 3.040240666e-20)
(100.3689226 -5.109062738 -1.329823415e-20)
(100.4454581 -4.963039286 1.534111227e-22)
(100.1520496 -4.927077735 -1.187189897e-20)
(100.2264453 -4.794594103 -1.034780768e-20)
(99.84938266 -3.69354216 3.325390966e-21)
(99.73146017 -3.957027214 6.195027829e-21)
(99.39802456 -3.685225084 0)
(99.52746325 -3.474223008 2.679189273e-21)
(99.47368115 -2.812387626 -1.25160484e-20)
(99.36044668 -3.039526098 2.676815454e-21)
(99.09781366 -2.833379614 4.224149308e-21)
(99.20811716 -2.637772758 0)
(98.65485373 -1.637591327 -7.870149212e-21)
(98.46312212 -1.939246205 -1.15848122e-20)
(98.78327596 -2.296105835 -1.102680668e-21)
(99.01119753 -2.272136996 -1.158370106e-20)
(98.46650794 -1.057838037 8.931701713e-21)
(98.26181463 -1.336612271 1.780385645e-20)
(98.35446316 -0.5192110611 -5.983605532e-21)
(98.13270085 -0.7858167596 -1.011251042e-20)
(98.06450257 -0.2590061148 -6.346854466e-21)
(99.10631061 -9.395706284 2.854184567e-20)
(98.97177059 -8.949143276 1.847164534e-20)
(99.25721134 -8.84786203 -1.281592891e-21)
(99.28072511 -9.103938243 5.800444135e-21)
(99.7902356 -9.329170058 -7.343994303e-21)
(99.66952069 -9.106960958 0)
(99.68050297 -8.814932129 7.831068051e-22)
(99.77635595 -8.984060902 0)
(100.0956502 -8.421441068 -3.578559801e-21)
(99.95172155 -8.35584396 1.933091853e-21)
(99.84966239 -8.04258358 5.334829577e-22)
(99.96748972 -8.088628924 1.394406299e-20)
(100.0411193 -7.164999048 -5.191654387e-20)
(99.91047601 -7.199259945 -4.049260822e-20)
(99.75350729 -6.923815024 3.062594526e-20)
(99.86158132 -6.889123134 -4.295167122e-20)
(99.74737787 -5.891395902 3.419584048e-20)
(99.64719774 -5.970861653 3.920059519e-21)
(99.47161909 -5.749511364 -4.575178411e-21)
(99.55913985 -5.676077557 4.179020071e-21)
(99.27431051 -4.842258789 0)
(99.35340156 -4.748534021 0)
(99.10742289 -4.671587155 0)
(99.18257384 -4.580439454 0)
(98.97200545 -3.643582719 -1.45451946e-20)
(98.83618819 -3.839295765 -1.453129328e-20)
(98.57065312 -3.574363201 5.38952401e-21)
(98.7097118 -3.409960172 -4.058666808e-20)
(98.73819372 -2.826904531 2.642460871e-20)
(98.60624078 -3.01067627 -3.648117794e-21)
(98.38389864 -2.797431026 2.539377526e-21)
(98.5072794 -2.632630761 1.251400613e-20)
(98.07826023 -1.643437947 1.462747091e-20)
(97.8727728 -1.910509203 2.406588174e-20)
(98.14288233 -2.270760757 2.974501696e-20)
(98.35931416 -2.277650291 -1.248603481e-20)
(97.93528283 -1.067371212 -1.856372077e-21)
(97.7214088 -1.328988339 -8.122412522e-21)
(97.84900565 -0.5249676538 -1.046391383e-20)
(97.62267202 -0.7831293166 -1.165852843e-20)
(97.56948457 -0.2583579449 1.184685236e-21)
(99.59024047 -7.517688561 -9.300691953e-21)
(99.53853473 -7.244811139 -8.107530545e-21)
(99.67003508 -7.152265596 -1.099395456e-20)
(99.61636422 -7.325688122 -6.437921003e-21)
(99.45468754 -7.522089947 2.865745207e-21)
(99.45114784 -7.353554295 5.851642625e-21)
(99.40047493 -7.158841142 2.50014467e-22)
(99.3988722 -7.294051925 -1.035196655e-20)
(99.27569934 -7.023892213 1.844975908e-20)
(99.22628861 -6.944385665 9.030746645e-21)
(99.12579121 -6.721591895 7.304688875e-21)
(99.1652781 -6.782926998 -1.072983014e-20)
(99.04040616 -6.218881287 2.347229675e-20)
(98.97126053 -6.209529106 -1.023051465e-20)
(98.84358523 -5.996216903 1.043156645e-20)
(98.90172139 -5.998580826 0)
(98.74972374 -5.304773894 3.849573313e-21)
(98.68007826 -5.340573493 8.28737887e-21)
(98.54169383 -5.154440844 0)
(98.60361744 -5.119078311 0)
(98.38216868 -4.46711213 0)
(98.44984937 -4.409546243 0)
(98.25045459 -4.314384372 0)
(98.31591186 -4.25482732 0)
(98.1962082 -3.482487191 1.983699965e-20)
(98.06108019 -3.620110029 0)
(97.84665422 -3.371959196 0)
(97.98058917 -3.247985849 0)
(98.05181536 -2.747800671 -1.969360604e-20)
(97.91604623 -2.891862584 0)
(97.72764618 -2.681216669 0)
(97.85302445 -2.546762257 0)
(97.52118181 -1.603189638 -2.057416714e-21)
(97.31438788 -1.834845039 1.866776479e-20)
(97.5427727 -2.182597104 1.241949357e-20)
(97.74211324 -2.216541591 1.244000503e-20)
(97.41378723 -1.047522841 -1.865029053e-20)
(97.20053673 -1.288087766 -1.746608701e-20)
(97.34767432 -0.5158921439 2.310600732e-23)
(97.12450751 -0.7610283286 -1.180741685e-21)
(97.08314141 -0.251777655 1.184595392e-21)
(99.84332442 -6.219552441 -1.3265529e-20)
(99.84109585 -6.035020854 -1.177286058e-20)
(99.88403324 -5.952165237 -2.430202369e-20)
(99.79488768 -6.0784994 -8.01020586e-22)
(99.27041162 -6.221398073 -5.520806896e-22)
(99.32689822 -6.093779288 9.126429765e-21)
(99.23445283 -5.950943971 1.973115519e-22)
(99.17894606 -6.057571577 4.478725451e-22)
(98.76140081 -5.912757967 3.6845189e-20)
(98.77174828 -5.838024356 1.125248911e-20)
(98.66233088 -5.672508998 1.242176987e-20)
(98.65036222 -5.733156464 4.089389447e-23)
(98.34792411 -5.372541481 4.647199846e-21)
(98.32543882 -5.346169544 -1.549186208e-20)
(98.2092634 -5.179753759 -1.603607712e-22)
(98.22775515 -5.198531103 -1.645488051e-22)
(98.00002313 -4.710364519 0)
(97.96035395 -4.72064196 0)
(97.84352171 -4.566650795 0)
(97.87980507 -4.554019768 0)
(97.66981792 -4.047259069 0)
(97.72175394 -4.015373211 0)
(97.56142883 -3.913619152 0)
(97.6124457 -3.87656963 0)
(97.52288746 -3.248120476 0)
(97.40126694 -3.341258832 0)
(97.22422054 -3.115318746 0)
(97.34337882 -3.023307412 0)
(97.42831417 -2.601894713 0)
(97.29957505 -2.711978543 0)
(97.13950748 -2.513295439 0)
(97.25831372 -2.404524018 0)
(96.99579308 -1.528063672 0)
(96.79627678 -1.727230254 0)
(96.99340253 -2.052843035 0)
(97.17290992 -2.106353736 0)
(96.91422756 -1.004037562 0)
(96.70826718 -1.222772946 0)
(96.86319112 -0.4965214663 0)
(96.64896081 -0.7246742549 0)
(96.61634759 -0.2405494873 0)
(99.9720856 -5.248091748 -5.644162439e-21)
(99.99757308 -5.11297061 -2.557137622e-22)
(99.99338046 -5.040769675 1.168401546e-21)
(99.88391525 -5.136792487 -2.557939114e-22)
(99.1427991 -5.237599752 -1.024428389e-21)
(99.23528865 -5.138633796 -1.347488793e-23)
(99.11746902 -5.027564382 -1.024667716e-21)
(99.02793575 -5.112717203 -1.169840638e-21)
(98.41560172 -5.02623757 -1.112879306e-21)
(98.46537297 -4.960796674 0)
(98.34711128 -4.832848859 0)
(98.29995231 -4.887895559 0)
(97.85536817 -4.645315289 0)
(97.86765966 -4.613421542 0)
(97.75468936 -4.481160052 0)
(97.74284403 -4.506259171 0)
(97.43320907 -4.153725323 0)
(97.41922896 -4.150261697 0)
(97.31357965 -4.022899783 0)
(97.32752378 -4.022925558 0)
(97.10162673 -3.625230721 0)
(97.13701716 -3.608894425 0)
(97.00688616 -3.509204554 0)
(97.04301688 -3.486719478 0)
(96.94926291 -2.97725745 0)
(96.84775567 -3.039366035 0)
(96.69647489 -2.837042897 0)
(96.7965003 -2.770255852 0)
(96.87526904 -2.418131863 0)
(96.75996128 -2.501300921 0)
(96.62146511 -2.318898303 0)
(96.72874219 -2.231109231 0)
(96.50960377 -1.430689222 0)
(96.32430388 -1.601995029 0)
(96.49870476 -1.901298344 0)
(96.65832525 -1.964920325 0)
(96.44454583 -0.9447219355 0)
(96.25175005 -1.142560803 0)
(96.40378808 -0.4691973473 0)
(96.2022779 -0.6788532695 0)
(96.17558412 -0.2258521589 0)
(100.0422807 -4.484178889 0)
(100.078419 -4.381257021 0)
(100.0541151 -4.317522591 0)
(99.93341369 -4.393853665 0)
(99.052926 -4.465021102 0)
(99.16955598 -4.386460698 0)
(99.03373952 -4.297078718 0)
(98.92165096 -4.366038188 0)
(98.17135292 -4.308967493 0)
(98.24781816 -4.252969809 0)
(98.12085976 -4.151013674 0)
(98.04919883 -4.199224972 0)
(97.49325618 -4.027497595 0)
(97.53111914 -3.995330025 0)
(97.41751542 -3.888329065 0)
(97.38276025 -3.914711677 0)
(96.99701774 -3.65244185 0)
(97.00407602 -3.64220764 0)
(96.90375403 -3.536343471 0)
(96.89896617 -3.542935727 0)
(96.64477657 -3.226424476 0)
(96.66443405 -3.21904895 0)
(96.55787618 -3.126186097 0)
(96.5796692 -3.113004439 0)
(96.46398535 -2.697160648 0)
(96.38524589 -2.73925971 0)
(96.25013609 -2.55959517 0)
(96.32987089 -2.51160251 0)
(96.39040908 -2.217374991 0)
(96.29155954 -2.280244468 0)
(96.16863347 -2.115413529 0)
(96.26189517 -2.044149121 0)
(96.06620193 -1.321928576 0)
(95.8992223 -1.469556918 0)
(96.05738989 -1.741241952 0)
(96.19858539 -1.807622815 0)
(96.00992256 -0.876890027 0)
(95.83368132 -1.054822048 0)
(95.97486667 -0.4366506582 0)
(95.78874008 -0.628097044 0)
(95.76539497 -0.2094000464 0)
(100.0785896 -3.866197245 -2.046014394e-35)
(100.1221472 -3.786618974 7.915731027e-36)
(100.0837148 -3.729986461 -3.976242601e-35)
(99.95654112 -3.792074324 -2.046254259e-35)
(98.98131325 -3.842264718 0)
(99.11416463 -3.778723547 0)
(98.96524195 -3.705080905 0)
(98.83751918 -3.76161691 0)
(97.9880771 -3.720180354 0)
(98.08324789 -3.672615826 0)
(97.94902983 -3.589439623 0)
(97.85983782 -3.631053967 0)
(97.21761938 -3.503648575 0)
(97.27452863 -3.473507529 0)
(97.15877081 -3.385540762 0)
(97.10656889 -3.410869199 0)
(96.65451901 -3.209946543 0)
(96.67854522 -3.196829984 0)
(96.58034547 -3.108204868 0)
(96.56012631 -3.117878056 0)
(96.27404313 -2.862496295 0)
(96.27937326 -2.860697937 0)
(96.19208146 -2.776541554 0)
(96.200522 -2.769583038 0)
(96.05291757 -2.425763867 0)
(95.99702815 -2.45496907 0)
(95.87105066 -2.296455398 0)
(95.93137858 -2.261381757 0)
(95.96737968 -2.01415788 0)
(95.88597919 -2.062278153 0)
(95.77398746 -1.914739343 0)
(95.85212577 -1.856422782 0)
(95.66562021 -1.209600732 0)
(95.51882005 -1.337244868 0)
(95.66601474 -1.58171871 0)
(95.79040918 -1.647316324 0)
(95.61210913 -0.8055091472 0)
(95.45405609 -0.9651086757 0)
(95.57927867 -0.4020188573 0)
(95.40970042 -0.5757510009 0)
(95.38771697 -0.1923542995 0)
(100.0921382 -3.357712966 -1.720124527e-35)
(100.1415066 -3.294730143 0)
(100.0930252 -3.244513105 0)
(99.96175511 -3.295674525 0)
(98.92036483 -3.330484344 0)
(99.06484599 -3.278404302 0)
(98.9063678 -3.216697745 0)
(98.76725248 -3.263502089 0)
(97.84432625 -3.230845978 0)
(97.95310406 -3.190540378 0)
(97.81298075 -3.121506976 0)
(97.71083155 -3.157168516 0)
(97.00124195 -3.058619593 0)
(97.07261153 -3.031401116 0)
(96.95423948 -2.958127175 0)
(96.88854967 -2.981360134 0)
(96.38020406 -2.823128661 0)
(96.41789482 -2.80928224 0)
(96.32008045 -2.734536043 0)
(96.28722458 -2.745270499 0)
(95.96983431 -2.53597195 0)
(95.96295943 -2.537454472 0)
(95.89050909 -2.462212242 0)
(95.88763476 -2.458837994 0)
(95.7031399 -2.172223691 0)
(95.66844812 -2.192213152 0)
(95.54799744 -2.053418577 0)
(95.59001154 -2.027053365 0)
(95.59873514 -1.817813856 0)
(95.53458023 -1.855280189 0)
(95.43004925 -1.724069794 0)
(95.49312377 -1.675702496 0)
(95.30584537 -1.099061278 0)
(95.17976457 -1.210040653 0)
(95.31987857 -1.428764835 0)
(95.42936446 -1.491213955 0)
(95.25079821 -0.7343254871 0)
(95.11142369 -0.8773498352 0)
(95.21764228 -0.3672183663 0)
(95.0648592 -0.5242133247 0)
(95.04275244 -0.1755096017 0)
(100.0912302 -2.933216551 -2.607367951e-35)
(100.1449552 -2.882581448 6.224410095e-36)
(100.0893914 -2.838076532 -2.607367951e-35)
(99.95547933 -2.880623787 -2.607068035e-35)
(98.86677976 -2.904119772 0)
(99.01988394 -2.86100348 0)
(98.85430371 -2.808688628 0)
(98.706603 -2.847720609 0)
(97.7276336 -2.820291381 0)
(97.84665008 -2.786137693 0)
(97.70172349 -2.728102841 0)
(97.58971407 -2.758552603 0)
(96.82686704 -2.679505907 0)
(96.90941494 -2.65543738 0)
(96.78841728 -2.593746403 0)
(96.71214185 -2.614502014 0)
(96.15637829 -2.486720991 0)
(96.20513456 -2.473304262 0)
(96.10677395 -2.409832287 0)
(96.06353435 -2.420492067 0)
(95.71688721 -2.246440381 0)
(95.69960322 -2.249577084 0)
(95.63874084 -2.182976981 0)
(95.62607195 -2.181643509 0)
(95.40435352 -1.940277094 0)
(95.38876745 -1.954131544 0)
(95.27123745 -1.832906964 0)
(95.29648608 -1.812420357 0)
(95.27721458 -1.633821674 0)
(95.22940866 -1.66363591 0)
(95.12976763 -1.547456571 0)
(95.17845001 -1.506668523 0)
(94.9838271 -0.9938450579 0)
(94.8781004 -1.091054465 0)
(95.01391601 -1.286035882 0)
(95.11035808 -1.343903596 0)
(94.92436941 -0.6658758865 0)
(94.80332981 -0.7941187679 0)
(94.88913022 -0.3335608867 0)
(94.75269989 -0.4750900864 0)
(94.72940571 -0.159397225 0)
(100.0809745 -2.575461024 2.21875763e-35)
(100.137875 -2.534346151 0)
(100.0773603 -2.494928368 0)
(99.94178786 -2.530499212 0)
(98.81874045 -2.545518552 0)
(98.97839952 -2.509592561 0)
(98.80745345 -2.464889263 0)
(98.6531112 -2.497578428 0)
(97.63034517 -2.473393058 0)
(97.75729542 -2.444464432 0)
(97.60843284 -2.395225839 0)
(97.48872103 -2.421140974 0)
(96.68315502 -2.35572108 0)
(96.77450553 -2.334743648 0)
(96.65105958 -2.282377146 0)
(96.56634443 -2.300581311 0)
(95.97065894 -2.195034987 0)
(96.02846179 -2.182659179 0)
(95.92908983 -2.128457666 0)
(95.87725408 -2.138412119 0)
(95.50393907 -1.991748101 0)
(95.4777632 -1.995518809 0)
(95.42606366 -1.937000802 0)
(95.40492037 -1.936719181 0)
(95.14759469 -1.731331301 0)
(95.14896321 -1.741304512 0)
(95.03264173 -1.635496441 0)
(95.04272904 -1.618929209 0)
(94.99611661 -1.465074735 0)
(94.96343437 -1.489453215 0)
(94.86684512 -1.386856149 0)
(94.90211617 -1.351834845 0)
(94.69608272 -0.8961128717 0)
(94.60974362 -0.98203109 0)
(94.74324811 -1.155504431 0)
(94.82836143 -1.208058531 0)
(94.6304188 -0.6017784568 0)
(94.52683239 -0.7169923953 0)
(94.59194926 -0.3018971307 0)
(94.47100706 -0.4293976931 0)
(94.44580388 -0.1443581728 0)
(100.0646401 -2.272215197 8.525024847e-36)
(100.1238474 -2.238645075 -9.834411858e-37)
(100.0598785 -2.20379824 8.525024847e-36)
(99.92332487 -2.233576817 8.526024279e-36)
(98.77510881 -2.242088777 0)
(98.93984574 -2.212077896 0)
(98.7647901 -2.173697374 0)
(98.60520665 -2.201094438 0)
(97.54752014 -2.178943817 0)
(97.68076855 -2.15450425 0)
(97.52865298 -2.112475504 0)
(97.40278942 -2.134422071 0)
(96.56245869 -2.078774564 0)
(96.66086598 -2.060724347 0)
(96.5352157 -2.016017963 0)
(96.44366844 -2.031726951 0)
(95.81427526 -1.94274474 0)
(95.87955275 -1.931725813 0)
(95.77897259 -1.88525071 0)
(95.71995643 -1.894148885 0)
(95.32266412 -1.769092873 0)
(95.28886052 -1.77286035 0)
(95.24451984 -1.721768449 0)
(95.21603818 -1.721896719 0)
(94.9255145 -1.545304413 0)
(94.94184415 -1.552974316 0)
(94.82558702 -1.460613376 0)
(94.82209209 -1.446594658 0)
(94.74955085 -1.31277255 0)
(94.73064507 -1.333342396 0)
(94.63578855 -1.242873261 0)
(94.65877054 -1.212234633 0)
(94.43901427 -0.8070315096 0)
(94.37071539 -0.8837503135 0)
(94.50334596 -1.037986729 0)
(94.57867596 -1.084945596 0)
(94.366131 -0.5429775377 0)
(94.27876598 -0.6468203194 0)
(94.32373997 -0.2727408894 0)
(94.21714616 -0.3877120306 0)
(94.18957651 -0.1305911518 0)
(100.0444001 -2.014401569 7.299121085e-36)
(100.1053171 -1.986935482 0)
(100.0389159 -1.956211905 0)
(99.90184652 -1.981096685 0)
(98.73508638 -1.984501632 0)
(98.90381454 -1.95944771 0)
(98.725573 -1.926411541 0)
(98.56178817 -1.949319111 0)
(97.47579272 -1.928424946 0)
(97.61413609 -1.907877343 0)
(97.45930236 -1.871866215 0)
(97.32843904 -1.89032095 0)
(96.45944487 -1.841826135 0)
(96.56359497 -1.826493685 0)
(96.43598575 -1.788179627 0)
(96.33883644 -1.801518036 0)
(95.68086084 -1.725088414 0)
(95.75236752 -1.715566134 0)
(95.6505208 -1.675599848 0)
(95.58546292 -1.683264039 0)
(95.16676601 -1.575479723 0)
(95.12639939 -1.578853632 0)
(95.08803034 -1.53450856 0)
(95.05318548 -1.534630277 0)
(94.73213958 -1.381252954 0)
(94.76164306 -1.387708778 0)
(94.64469017 -1.307057993 0)
(94.62909128 -1.29461289 0)
(94.53240266 -1.177047595 0)
(94.52592316 -1.195004298 0)
(94.43184739 -1.115282141 0)
(94.44369734 -1.087956326 0)
(94.20909248 -0.7270759439 0)
(94.15732753 -0.7963806854 0)
(94.2901044 -0.933559447 0)
(94.35701224 -0.9748996833 0)
(94.12852637 -0.4899331481 0)
(94.05599429 -0.5839585822 0)
(94.08185447 -0.2463603477 0)
(93.98834662 -0.3503009487 0)
(93.95814588 -0.1181944165 0)
(100.0217356 -1.795138399 0)
(100.0839787 -1.772690908 0)
(100.0158166 -1.745692442 0)
(99.87854273 -1.76638923 0)
(98.69807326 -1.765701776 0)
(98.86997114 -1.744860394 0)
(98.6892315 -1.716391763 0)
(98.52203805 -1.735446844 0)
(97.41277666 -1.715281234 0)
(97.55530038 -1.698130912 0)
(97.39816618 -1.667205094 0)
(97.26318578 -1.682575925 0)
(96.37029344 -1.639388434 0)
(96.47917077 -1.626549373 0)
(96.34982282 -1.593629729 0)
(96.24803525 -1.604755415 0)
(95.56570694 -1.537965757 0)
(95.64243864 -1.529973085 0)
(95.53933205 -1.49553247 0)
(95.46916391 -1.501892567 0)
(95.03141906 -1.408051694 0)
(94.9853945 -1.410801446 0)
(94.95189414 -1.372535943 0)
(94.91152718 -1.372385671 0)
(94.56264019 -1.237832036 0)
(94.60373738 -1.243832302 0)
(94.48557962 -1.173378747 0)
(94.45922672 -1.161796039 0)
(94.34029994 -1.057428349 0)
(94.34495701 -1.073662228 0)
(94.25096528 -1.003414971 0)
(94.25281116 -0.9785593534 0)
(94.00295631 -0.656272165 0)
(93.96614248 -0.7196867385 0)
(94.09983528 -0.8418602886 0)
(94.15953559 -0.8777210246 0)
(93.9146091 -0.4427732554 0)
(93.85543365 -0.5284165676 0)
(93.86352488 -0.2228505316 0)
(93.78176273 -0.317211049 0)
(93.74880033 -0.1071930933 0)
(99.99764406 -1.609028992 0)
(100.060996 -1.590780464 0)
(99.9914798 -1.567154955 0)
(99.8542007 -1.584219196 0)
(98.66357626 -1.580158572 0)
(98.83801128 -1.562950205 0)
(98.65529385 -1.538430566 0)
(98.48530587 -1.554134226 0)
(97.35669024 -1.534307034 0)
(97.50268655 -1.520153496 0)
(97.34358335 -1.493579626 0)
(97.20517309 -1.50620255 0)
(96.29215245 -1.466966098 0)
(96.40496195 -1.45641496 0)
(96.27406929 -1.428101492 0)
(96.16840565 -1.437167269 0)
(95.46520898 -1.377830444 0)
(95.5463541 -1.371354997 0)
(95.44202873 -1.341646976 0)
(95.36751222 -1.34668144 0)
(94.91281781 -1.264171871 0)
(94.86189846 -1.266153664 0)
(94.83238724 -1.233363274 0)
(94.78721462 -1.232760173 0)
(94.41301619 -1.113506738 0)
(94.46432197 -1.119590817 0)
(94.34461135 -1.058023571 0)
(94.30871675 -1.046769179 0)
(94.16944344 -0.9530861165 0)
(94.18404003 -0.9682739283 0)
(94.08961086 -0.9063504865 0)
(94.08251425 -0.8832866804 0)
(93.8174546 -0.5943655673 0)
(93.79403432 -0.6532218719 0)
(93.92923239 -0.7622772463 0)
(93.98279346 -0.7928757769 0)
(93.72145401 -0.4014113781 0)
(93.6741727 -0.4800020265 0)
(93.66597144 -0.2021921374 0)
(93.5946266 -0.2883570741 0)
(93.55886126 -0.09756813256 0)
(99.97277958 -1.451784295 0)
(100.0371648 -1.437112562 0)
(99.96649642 -1.416556888 0)
(99.82932536 -1.43042474 0)
(98.63117678 -1.423496097 0)
(98.80765476 -1.409473112 0)
(98.62336017 -1.388412997 0)
(98.4510609 -1.401152947 0)
(97.30617406 -1.381353144 0)
(97.45508754 -1.369880522 0)
(97.29428394 -1.347083199 0)
(97.15298533 -1.357224693 0)
(96.22284868 -1.320900911 0)
(96.33896244 -1.312466332 0)
(96.20669377 -1.288136257 0)
(96.09776062 -1.295271066 0)
(95.37655947 -1.241684424 0)
(95.46146072 -1.236702907 0)
(95.35597233 -1.211087768 0)
(95.27773114 -1.214789504 0)
(94.80791913 -1.141507868 0)
(94.75274571 -1.1426203 0)
(94.72651796 -1.114783007 0)
(94.67714781 -1.113591094 0)
(94.27994733 -1.006746546 0)
(94.340252 -1.013311501 0)
(94.21874129 -0.9594971192 0)
(94.17438304 -0.9481534796 0)
(94.01655481 -0.8630512938 0)
(94.03999868 -0.8777249169 0)
(93.94472457 -0.8230933876 0)
(93.92966726 -0.8012567043 0)
(93.64969237 -0.5409555029 0)
(93.6381626 -0.5964349979 0)
(93.77534647 -0.6940947598 0)
(93.82371843 -0.7196703981 0)
(93.54629317 -0.365640363 0)
(93.50948185 -0.438409312 0)
(93.48651268 -0.1842997666 0)
(93.42428473 -0.2635766224 0)
(93.38573026 -0.08927378316 0)
(99.94757225 -1.319938678 0)
(100.0129825 -1.308368066 0)
(99.94124826 -1.290605076 0)
(99.80424039 -1.30163678 0)
(98.60051336 -1.292216236 0)
(98.77864357 -1.281018327 0)
(98.59308061 -1.263016053 0)
(98.41885747 -1.273106737 0)
(97.26016218 -1.253087889 0)
(97.41154722 -1.24403646 0)
(97.24925783 -1.22454914 0)
(97.10550629 -1.232429887 0)
(96.16067722 -1.198205955 0)
(96.27958942 -1.191739025 0)
(96.14608042 -1.170884607 0)
(96.03436891 -1.176202213 0)
(95.29750927 -1.127008829 0)
(95.38562532 -1.123489883 0)
(95.27902109 -1.10143851 0)
(95.19757289 -1.103810674 0)
(94.71419767 -1.038014451 0)
(94.65532037 -1.038181151 0)
(94.63176782 -1.014839422 0)
(94.57873364 -1.012945142 0)
(94.16063625 -0.9161108512 0)
(94.22889539 -0.9234610827 0)
(94.10538603 -0.8764339737 0)
(94.05350985 -0.8646502692 0)
(93.87877223 -0.7863288261 0)
(93.91007409 -0.8009230694 0)
(93.81361894 -0.7526600205 0)
(93.79149719 -0.7315709789 0)
(93.49696154 -0.4955701365 0)
(93.495912 -0.5487627842 0)
(93.63551968 -0.636588015 0)
(93.67954506 -0.6573879761 0)
(93.38647814 -0.3351885362 0)
(93.3588108 -0.4032790479 0)
(93.32254038 -0.1690500501 0)
(93.26821387 -0.2426726146 0)
(93.22691561 -0.08225249063 0)
(99.92225946 -1.210719296 -1.21561289e-36)
(99.98868383 -1.201896399 -1.861801734e-37)
(99.91592709 -1.186684787 -2.363340148e-36)
(99.77912077 -1.195154615 -1.215473062e-36)
(98.57127683 -1.18350175 0)
(98.75074972 -1.174843766 0)
(98.56416098 -1.159578152 0)
(98.38832415 -1.167267741 0)
(97.21779713 -1.146821002 0)
(97.37129561 -1.13998512 0)
(97.20769287 -1.123433202 0)
(97.06183857 -1.129227666 0)
(96.10426295 -1.096438503 0)
(96.22556683 -1.091820547 0)
(96.09092491 -1.074029755 0)
(95.97683168 -1.07762026 0)
(95.22621849 -1.031710122 0)
(95.31710862 -1.029628016 0)
(95.2094298 -1.010707311 0)
(95.12519696 -1.011753623 0)
(94.62953292 -0.9520436312 0)
(94.567365 -0.9512198421 0)
(94.54607561 -0.9320478511 0)
(94.4897344 -0.9293779747 0)
(94.05267255 -0.8403574403 0)
(94.12804241 -0.848805439 0)
(94.00223618 -0.8077591783 0)
(93.94371988 -0.7951124584 0)
(93.75355933 -0.7219541926 0)
(93.7918309 -0.7368597913 0)
(93.69389725 -0.694131679 0)
(93.66553775 -0.6733454199 0)
(93.35692447 -0.4577337936 0)
(93.36498445 -0.5096179293 0)
(93.5073718 -0.5890094698 0)
(93.54784089 -0.6052056282 0)
(93.23968863 -0.3097711651 0)
(93.21981487 -0.374248158 0)
(93.17175795 -0.1563142009 0)
(93.12406443 -0.2254352978 0)
(93.08007422 -0.07643882924 0)
(99.89691546 -1.121918647 0)
(99.96432293 -1.115565668 0)
(99.89057394 -1.102693735 0)
(99.75401388 -1.108814147 0)
(98.54320813 -1.095104684 0)
(98.72377108 -1.088760405 0)
(98.53634583 -1.075964569 0)
(98.35915277 -1.081454328 0)
(97.17838087 -1.060404207 0)
(97.33370069 -1.055616623 0)
(97.16891637 -1.041692039 0)
(97.0212449 -1.045540286 0)
(96.05247797 -1.013620699 0)
(96.17583991 -1.01075452 0)
(96.04013846 -0.995681377 0)
(95.92399122 -0.9976173137 0)
(95.16118765 -0.9540508477 0)
(95.25447889 -0.9533780371 0)
(95.14575125 -0.9372122153 0)
(95.05910043 -0.9369433912 0)
(94.5523304 -0.882149886 0)
(94.48723825 -0.8804124201 0)
(94.4678874 -0.8650350863 0)
(94.40860292 -0.8615480882 0)
(93.9537922 -0.7785004485 0)
(94.03545343 -0.7881364367 0)
(93.90715635 -0.7524202667 0)
(93.84282253 -0.7384893863 0)
(93.63864665 -0.6690728241 0)
(93.68308051 -0.6846286259 0)
(93.58344304 -0.6466691849 0)
(93.54955468 -0.6258606111 0)
(93.22686726 -0.4269650425 0)
(93.24299691 -0.478665222 0)
(93.38869367 -0.550859391 0)
(93.42619519 -0.5627847255 0)
(93.10317361 -0.2890928714 0)
(93.09029791 -0.3509807788 0)
(93.03136598 -0.1459399998 0)
(92.98959411 -0.2116993804 0)
(92.94297835 -0.07178961074 0)
(99.87152137 -1.051771184 0)
(99.93988566 -1.047680381 0)
(99.86515872 -1.036984608 0)
(99.7288974 -1.04090795 0)
(98.51607174 -1.025252157 0)
(98.69752467 -1.021047543 0)
(98.50940754 -1.010518444 0)
(98.33106555 -1.013954027 0)
(97.14131233 -0.9921124486 0)
(97.29822094 -0.9892500718 0)
(97.13234659 -0.9777066149 0)
(96.98308633 -0.9797069424 0)
(96.0043359 -0.9481314056 0)
(96.12948425 -0.9469515861 0)
(95.99276213 -0.9343089712 0)
(95.87482936 -0.934632485 0)
(95.10107866 -0.892532985 0)
(95.19645148 -0.8932651349 0)
(95.08666877 -0.8795299499 0)
(94.99792017 -0.877926933 0)
(94.48102512 -0.8268211132 0)
(94.41346959 -0.8240865743 0)
(94.39543337 -0.8121005417 0)
(94.33375551 -0.8076233873 0)
(93.86210899 -0.7293380838 0)
(93.94917357 -0.7401468776 0)
(93.8185547 -0.7091375898 0)
(93.74897537 -0.6937803442 0)
(93.53197527 -0.6267682153 0)
(93.58181893 -0.6433313196 0)
(93.48004664 -0.6094587758 0)
(93.44150213 -0.5880497377 0)
(93.1064514 -0.4029436074 0)
(93.12877072 -0.4546932573 0)
(93.27754659 -0.5209967298 0)
(93.31315181 -0.5280804318 0)
(92.97663261 -0.2729719552 0)
(92.96820268 -0.3331325376 0)
(92.9011623 -0.1378828742 0)
(92.8626985 -0.2012197614 0)
(92.81345133 -0.06820368406 0)
(99.84602596 -0.9989651756 -4.681179903e-36)
(99.91536183 -0.9969897206 0)
(99.83962861 -0.9883549353 -3.904087997e-36)
(99.7037147 -0.9901803458 0)
(98.48965212 -0.9725967898 0)
(98.67183129 -0.9704152773 0)
(98.48313114 -0.961997216 0)
(98.30380751 -0.9634741982 0)
(97.10604797 -0.940618084 0)
(97.26435762 -0.9396046952 0)
(97.09745116 -0.9302444937 0)
(96.94678359 -0.9304542665 0)
(95.95894423 -0.8987061077 0)
(96.08566261 -0.8991850517 0)
(95.94792764 -0.888739203 0)
(95.82842309 -0.887459004 0)
(95.04464322 -0.84600082 0)
(95.1418435 -0.8481662139 0)
(95.03097695 -0.8366034229 0)
(94.9403756 -0.8336195453 0)
(94.41389028 -0.7851884242 0)
(94.34413525 -0.7811899713 0)
(94.32705183 -0.7725166341 0)
(94.26310988 -0.7670048539 0)