/*--------------------------------*- C++ -*----------------------------------*\
| =========                 |                                                 |
| \\      /  F ield         | OpenFOAM: The Open Source CFD Toolbox           |
|  \\    /   O peration     | Version:  v2012                                 |
|   \\  /    A nd           | Website:  www.openfoam.com                      |
|    \\/     M anipulation  |                                                 |
\*---------------------------------------------------------------------------*/
FoamFile
{
    version     2.0;
    format      ascii;
    class       volScalarField;
    location    "1.07";
    object      k;
}
// * * * * * * * * * * * * * * * * * * * * * * * * * * * * * * * * * * * * * //

dimensions      [0 2 -2 0 0 0 0];


internalField   nonuniform List<scalar> 
3019
(
36.90870595
36.90876995
36.90890863
36.90915031
36.95448969
36.95541951
36.95709098
36.96064364
36.96743033
36.97841834
36.99222273
37.00521495
36.72747896
36.72771705
36.72806016
36.72890942
36.77504369
36.77982172
36.78951735
36.82558115
36.8571994
36.90889488
36.98024441
37.02863798
36.54752509
36.54815368
36.54928125
36.55158349
36.59954045
36.61152952
36.63480996
36.69264803
36.7688967
36.88740776
37.00920817
37.09448988
36.36890994
36.36972847
36.3717388
36.3767246
36.42917073
36.4540021
36.5054411
36.60339614
36.75522145
36.93670482
37.11681698
37.25166397
36.19219516
36.1936629
36.19767852
36.20793624
36.26766799
36.31270626
36.40965638
36.57472238
36.80359648
37.06785005
37.34528257
37.58198231
36.01687557
36.01918342
36.02600263
36.04328978
36.1176896
36.19404603
36.36114039
36.5957661
36.90992088
37.29648942
37.76636346
38.27911731
35.8443351
35.84839983
35.86028058
35.88978546
35.98087538
36.10061744
36.35572027
36.65746254
37.08271782
37.64901022
38.49023167
39.88792695
35.67578306
35.68198502
35.70014232
35.74537834
35.85755161
36.03410811
36.37546627
36.75426341
37.30945612
38.10851099
39.52019091
42.68128204
35.51466348
35.52437753
35.55181898
35.61751747
35.75227081
35.99383078
36.41572654
36.87838477
37.56675396
38.59029469
40.50742401
45.34102471
35.36290805
35.37634315
35.41359003
35.50144719
35.66668176
35.97579445
36.47135165
37.01827073
37.82591466
39.02502917
41.24438595
46.57011808
35.22402125
35.24274428
35.29286782
35.40802249
35.60006549
35.9764036
36.53869752
37.16373898
38.07081624
39.40234392
41.83221163
47.14250484
35.09772766
35.12116137
35.18281511
35.32392438
35.54910059
35.98678221
36.61203516
37.30704685
38.29859896
39.73980826
42.36613524
46.93199711
45.12852196
46.45059619
47.12164013
46.98238357
42.22330723
41.07984787
45.33211823
44.27128458
41.69702088
46.15583568
45.45453848
46.8780767
49.40569686
50.46150228
42.24975654
46.48435114
46.22693859
47.12127562
45.3831337
47.58424815
46.49734289
46.70774241
40.20781924
42.83603383
50.10796801
52.37538336
44.96984653
49.60124311
50.58699765
51.2886104
46.01543387
52.14356983
50.70163638
52.5804379
52.29688526
47.79560983
49.22407684
46.96052282
48.83043247
46.78872948
50.60851859
48.95683231
42.98137351
45.24697421
47.09605576
44.17758321
41.42752591
46.65226167
44.33088534
40.01497755
46.67865464
37.84162123
41.27260794
38.07797576
40.28607641
44.06911422
41.97269945
43.94742326
48.3403664
44.47242224
45.88525908
51.34899778
50.86767924
50.67300162
48.73680782
44.29459717
59.67678286
47.83610218
57.27963033
41.97910725
44.39441478
41.64246736
46.23887497
45.86217019
64.98352884
60.25880701
51.27194976
60.71832129
61.78962953
55.39869769
60.30442145
51.57971014
47.10606673
54.41005105
46.99030051
60.78190178
55.34647799
47.83946893
58.18287898
64.7704979
51.46661352
46.89938999
51.37524175
52.72337908
50.86576767
54.73525851
47.35597557
50.36475682
52.66695806
47.90083529
47.7689659
49.8935452
49.78929197
43.08449148
42.89608143
45.55896739
45.40120537
45.73234507
40.17979672
40.02447941
43.98747442
47.26237574
46.36138788
47.9115316
47.63523029
48.24949471
47.99962815
46.52175271
46.70728185
46.35810936
41.79444929
48.43816913
48.53102956
48.32615341
42.64155273
43.21505084
47.21648418
44.12469635
47.13909039
46.81843702
47.53937319
47.24213099
44.27687218
43.71919191
37.58555022
37.96732365
34.03452814
34.33785429
41.95767186
46.19562168
41.71429557
42.48282978
38.11685499
38.54530771
44.78927682
40.81011616
33.73005989
33.96402306
33.20177363
39.17336652
57.25676701
57.11965699
51.6138185
52.83697341
63.23854009
62.52717137
62.04053411
55.07313629
55.7841795
53.84974932
54.79903185
62.39416985
58.38704208
56.31237338
56.16532976
55.96159523
56.27161292
58.73498515
58.87594963
52.33943826
53.52428975
62.78452507
63.32613369
45.24809165
51.62238373
50.58847762
52.59902455
51.90238114
45.94488613
49.1628544
48.45876831
50.22991296
49.40565887
52.40545723
55.27316098
54.63641308
56.02221608
55.47493889
52.95755291
48.55942689
53.52164969
52.83416354
54.4165699
53.74772395
48.99382202
42.0356347
41.47757383
43.00475541
42.23148665
40.58549079
40.03938968
41.29996566
40.75031227
47.34384222
46.68964803
48.23244676
47.56786768
45.39309998
43.51670548
46.45338233
45.79994186
37.08218707
37.43470684
43.56533047
34.71992164
34.46887121
35.09209793
34.822166
34.29732406
42.18620131
34.55100392
36.63919151
39.49394297
41.42458062
46.04171838
39.0457833
36.24830917
39.9282506
39.08007434
35.53832314
35.21001034
36.04942018
35.66180976
44.94149221
38.69756497
39.21272483
33.43241893
33.66227249
40.65568361
39.44894892
33.19958653
33.38351922
49.89900263
48.84122347
48.77538647
48.82735243
48.8475323
50.04836064
48.73741731
48.59001567
48.64217857
48.43374361
44.95137747
45.67605396
46.03133144
47.12448858
49.33512436
58.78928031
64.61439182
65.52581943
61.0484939
61.18632298
59.66849272
59.51408698
56.09800972
57.35260628
56.88779491
59.32277036
59.05794644
59.77054927
50.49680546
51.94357788
58.25405499
60.02467034
67.10857042
62.57610221
67.04443129
67.45642386
63.94077189
43.272047
45.90302917
45.2977636
50.22968074
49.94704271
46.61696668
42.80452779
42.51697835
44.77941201
44.36461766
51.37136155
54.01498259
53.61709184
56.45589363
56.04222455
54.11638003
47.70916964
50.95529311
50.62195683
53.21780739
52.82790835
49.89510269
44.16643497
44.74962236
48.30520789
47.3515792
43.39987831
43.9760898
48.20333917
48.78503691
50.21099542
40.88631952
40.7099657
42.27102758
42.04547928
38.08546834
40.45784863
40.31341683
49.44856631
47.3941061
48.00233404
37.69169713
40.32449159
40.17987168
34.12095719
36.698897
36.56515361
37.10566951
36.85761924
34.21059437
33.36519733
33.29711582
33.81514153
36.23124767
36.11347802
36.45221508
36.33869124
33.88594975
33.52168344
33.4276085
34.76525216
33.72417902
33.17736579
58.32249205
54.92504864
54.84981233
58.56095556
66.88389055
68.48346337
59.67392339
65.51884851
70.25729485
63.98312356
61.7272264
58.29711377
57.84080632
56.77079974
59.37749757
58.83326547
58.52369667
68.45818083
68.17356103
61.66879427
69.15500041
71.5073671
63.81477772
68.14668945
68.40819292
48.60734232
48.41633267
45.22606294
46.1259555
49.50291586
49.30564115
43.38544822
43.08199421
44.01670847
43.6893661
54.81805703
54.41258524
51.86634143
53.53088756
55.63434276
55.22559326
51.69300771
51.33829905
48.16756129
49.41941768
52.43860499
52.06764044
41.8434388
38.42892025
38.60939259
38.10345535
38.26834865
41.66113864
42.68279584
39.21108398
39.4797941
38.78982934
38.99122476
42.44302715
40.39091426
37.15791018
37.32591361
36.87531525
37.04121796
40.2463345
41.11557991
37.78322894
37.94823941
37.4609801
37.63378978
40.94106494
41.33321053
41.13197473
47.12693911
44.72375214
44.94386598
44.27372306
44.47468208
46.89980349
41.79579538
41.57692958
39.51328341
39.4538754
45.08097892
42.73103213
42.81002117
39.87615454
40.41070328
44.26165963
46.25624983
43.84073154
44.00689102
43.40289024
43.5199062
45.98760882
40.03510934
39.93216876
37.1483064
39.67815814
39.53614166
40.01151005
39.87822503
37.35018826
34.65572936
34.52835962
35.00454979
34.89001618
34.19078547
33.67895725
34.92298843
38.22200925
37.54160327
39.20934749
38.8961211
36.5871195
37.04443682
35.16476313
36.12643833
36.56412159
39.67339204
36.59552272
36.78421153
36.24835373
36.51927379
39.59116658
35.43096787
35.30971929
35.9090899
35.77709506
33.51704821
35.78541779
35.64894831
36.00719639
35.88289365
33.57643402
33.27023004
35.32897848
35.03894201
35.56791654
35.39863351
33.30700598
36.7225969
36.76668991
36.8471521
36.78489589
36.85733084
36.8932641
36.88530278
36.97072192
36.95948403
36.99555511
37.05777785
37.01927505
37.07149669
36.62070152
36.71298585
36.74629011
36.75249285
36.87512661
36.85672476
36.91743216
37.04264571
36.98143032
37.08067842
37.17681756
37.0785337
37.20092202
36.57608931
36.73047228
36.71318758
36.78584956
36.96407312
36.89011094
37.02606854
37.21342064
37.07454212
37.27331533
37.43508469
37.22435992
37.48060597
36.58668938
36.79840532
36.74192054
36.87646685
37.13411299
36.99906446
37.22818974
37.53217525
37.27703645
37.63794603
37.9629138
37.53106808
38.06608777
36.63863881
36.9258496
36.82508303
37.03354252
37.40568928
37.19260722
37.549381
38.06577761
37.64099633
38.27323519
39.05316716
38.15313841
39.36121169
36.72643867
37.10241811
36.96598226
37.24698532
37.76948876
37.48965939
37.98500872
38.84619447
38.24119922
39.24755657
41.59836334
39.45424914
40.69873771
41.23716303
40.1649004
36.84458263
37.31701382
37.15463185
37.50120241
38.18347041
37.87343852
38.47376308
39.68936325
39.06600154
39.78954796
40.42536792
40.09767159
43.12982388
43.82865076
43.25889196
36.98266134
37.54346084
37.37354344
37.76227449
38.57513417
38.28367155
38.92242276
40.37679465
39.87725576
40.7129584
41.54168232
41.29985915
45.54249449
46.78695517
46.55485951
37.12813497
37.76509278
37.59946297
38.01215405
38.92501755
38.66632054
39.31302387
40.92472833
40.52329937
41.40258153
42.33183992
42.15220942
46.68190974
48.25424296
48.15608953
37.27551549
37.97541086
37.8176778
38.24527438
39.23835436
39.00541518
39.65962842
41.40698988
41.04733088
41.9757769
42.98465303
42.81736581
47.14320722
47.86952131
48.02912622
38.02350077
39.31078138
41.52037186
42.52311238
43.84929154
43.40806064
46.87460256
46.7106587
46.96061767
46.31355929
46.02119912
44.88015654
48.10937508
47.90898647
46.32251199
48.0763294
48.19857084
47.08435824
47.04016521
47.26767698
47.02705651
43.9925752
41.74132959
40.99070336
40.36341169
41.52497066
41.96491315
41.76122391
40.90227491
44.93095393
42.59050618
42.91641372
42.07488082
42.47238945
44.7862773
42.66535375
42.49825293
41.54996193
45.89256914
43.3948295
43.65837573
43.01763036
43.30289113
45.79165267
48.29718849
48.27522494
46.78484599
49.57862101
49.52058944
49.40829975
50.02721307
49.95934176
50.32553827
43.30695811
43.12111157
42.10174978
46.41695994
44.0815396
44.32498174
43.74554517
43.99766055
46.38226556
47.61711701
47.81001698
47.13696043
45.7931587
47.14222824
46.96205142
48.15693455
47.9903273
47.33628936
44.40022512
44.59308772
46.51082099
46.35552037
46.62367614
46.81208217
40.92068994
43.93929382
43.88328509
45.20564207
44.99338088
42.39687171
50.54769248
53.16222805
52.13833281
55.12140021
55.00364639
52.12802837
45.58209108
46.28924003
45.57808602
51.42020916
50.69056505
49.0905604
50.9372786
48.69091381
48.80582305
48.47820702
48.64233565
51.03813274
46.18282744
47.80899276
47.26598949
51.98090061
52.22982139
52.76997736
49.74591439
50.33416908
50.99427889
52.70676521
54.79120815
55.07571394
52.94661809
53.46679799
52.43629551
48.01648039
48.46646062
48.31136761
49.29011902
49.16597448
49.03570556
47.03007048
48.2305339
48.29130995
48.69609652
48.11099612
48.27644676
45.86019386
46.0256193
46.93561833
50.31468231
48.97871473
49.55331696
48.44587286
48.6160626
49.08893089
43.44093625
45.61529733
45.41059089
46.77918013
46.59442863
44.83721296
47.06475972
47.34004272
47.5493889
44.02467483
42.52570253
42.68733791
39.30716725
39.46916993
41.58848976
46.50382302
45.52710993
45.69798565
42.85181124
43.01471888
44.48386876
43.8008695
46.26307009
37.66319296
34.94891761
35.06637376
41.11880787
39.01151953
39.15841296
35.26991876
35.6831447
38.40426658
41.03440887
40.74217793
40.04665212
43.32130457
41.42250251
41.92732452
40.62236213
41.23690355
43.02280875
44.87084117
44.37174301
43.55687212
46.86882763
45.04224991
45.942361
43.77996709
44.7083551
46.26349792
47.18073067
46.9602335
45.70857504
51.37030833
48.10184936
48.40148563
47.64032085
48.00007761
51.30463106
49.99163188
47.03543589
47.51175018
46.19349518
46.8588881
49.72209168
44.60667996
45.69336943
45.30821265
48.9395587
50.45117891
48.87941261
62.19409034
59.69851286
55.64763557
42.25803043
43.34056894
42.77496218
43.21434747
42.12609213
45.92465791
43.72433064
43.09625118
44.35597058
44.0783261
41.13180132
46.11283076
45.35699048
45.53898904
45.01389861
45.20373479
45.9905812
54.15505872
53.43400467
50.93144242
58.23167304
58.92947527
62.53830826
51.86303423
54.87808124
54.35457187
48.29770915
47.33930912
46.32518163
51.11505994
48.63010807
50.00107352
46.29988913
47.17920745
50.00139773
60.01490665
56.9068821
57.52097098
53.13369165
53.8769087
56.36699134
48.4921572
50.01657699
49.1615528
51.39238431
52.03635276
51.79238428
51.08456389
50.53394431
51.16409792
54.26405404
54.67208166
52.74258052
52.56279732
53.63413602
54.11381803
47.15645685
47.31561166
48.03900457
47.62850045
46.83630367
46.99722197
49.63985743
49.77339372
50.00363765
49.67522164
49.36775493
49.50484403
41.52232026
41.70056951
43.25107137
42.68043207
40.99194066
41.28318416
44.21913563
44.44863506
45.71666529
45.2464018
43.8383551
44.01820054
44.8384626
38.12740592
38.2878159
40.34240574
39.85073502
37.81414845
37.99755673
44.61665583
45.29581449
47.49204817
47.31915586
45.93044458
47.82146632
47.71702424
47.84324064
47.45696044
47.5881142
47.72917274
48.16922601
48.20460452
48.3195543
47.96680247
48.08774509
48.08538301
47.14715124
47.83097021
47.66103002
46.59344799
46.01890871
46.17537971
45.69605925
45.86218965
46.47768772
42.2489376
44.78414851
44.55524493
48.76098285
48.61546665
48.22807465
48.46739925
48.64086276
48.74160281
48.42953084
48.53709318
48.39890437
42.8441798
44.71288854
44.52700996
45.07436964
44.89048852
43.0189342
47.07214973
46.18716736
46.35097038
46.02144086
45.81926154
43.61158093
47.03426789
46.62479883
46.77015482
46.32717917
46.47719128
46.92730782
47.44204418
47.18875775
47.32370797
46.91247565
47.05172111
47.34290404
44.70049048
46.40735341
46.21711282
42.20280889
42.36122576
43.87140392
40.64531015
40.49004302
37.84247938
41.76136778
39.65370305
39.89163309
45.1582649
45.35549506
46.3593318
42.09406478
43.96605686
43.70586518
44.3524863
44.15316116
42.24692516
38.25263518
40.97150369
40.81072395
41.30122766
41.13732512
38.40262418
44.63679291
43.17858089
43.3414501
38.71990742
38.86838333
40.96577562
38.80812771
36.40199839
37.10908727
54.51780522
52.04252424
49.98294017
49.89748571
53.0016459
54.5241424
58.2603755
55.67586791
59.75042698
59.7381754
61.60935124
55.33499381
57.42578382
57.20818452
57.68708765
57.5898073
55.56886431
54.18267315
56.14707104
55.6499574
56.93164631
56.57729394
54.49527986
62.58251247
59.4020544
59.67180131
56.30394404
57.3929589
57.50019224
56.90640334
57.1783424
56.26357448
56.11219851
57.69197356
57.71812899
57.56664243
57.63799393
56.20816052
55.81277027
56.37170157
59.49102587
52.75826276
54.19872496
53.68430783
55.14994374
54.66080795
53.11384681
51.35057728
50.2790008
50.60878728
48.71255279
49.46296929
50.98655283
52.37269583
51.6262191
51.89527429
51.04774527
51.29619665
52.12889792
48.92435689
46.65554203
46.92219542
46.13870352
46.39602686
48.68985004
49.92579854
47.78159066
48.16491623
47.19217927
47.47424849
49.65710042
55.06567594
55.18164361
55.47721248
54.58565337
54.88484792
54.85291492
55.85300338
56.34496365
56.6271448
55.77028682
56.05975259
55.66895979
53.29443839
52.79162683
53.08469474
52.20218455
52.48927596
53.06317877
54.19494239
53.98166328
54.28329508
53.38305155
53.67999211
53.97156666
48.01079719
45.65924875
45.89344502
45.18687958
45.41717999
47.78783182
43.41167956
41.87964596
42.03746207
40.21569803
40.61563785
42.43732002
39.95906545
42.61744274
42.27869782
43.41860885
43.02856201
40.65408764
45.86066716
44.69812823
44.94348534
43.5048378
43.66925234
45.09357589
38.84963642
41.63879925
41.46875174
42.02347433
41.81970756
39.01756605
40.49692507
38.42507576
38.57791795
37.38891853
37.67616623
39.67822146
49.71992925
49.6243201
49.74272588
48.82767371
49.28302646
49.33287875
49.1629592
49.22601569
48.80478559
48.84256002
49.44148836
49.46428711
49.3760331
49.41207375
48.84851521
50.19126552
49.88694512
49.80729583
48.69392846
49.01386028
49.09190942
48.83800411
48.92884573
48.64400135
48.84166637
49.03618206
48.90100673
47.79016426
47.94957446
48.56864438
45.16360738
46.90036812
46.71136668
47.31317165
47.09857678
45.39697312
46.4492467
47.79826079
47.54984688
48.24405099
48.03407735
46.83934316
49.20990185
48.78030807
48.93670551
51.01363649
51.96648805
51.28240161
53.17132441
52.56386845
51.46675849
57.36938062
54.57238649
55.24399936
44.35898296
46.16327599
45.98225091
46.52683292
46.34444569
44.55217876
48.16897924
47.47363398
47.63194396
46.51264938
46.67549897
47.49455852
43.5945834
45.43836149
45.25499146
45.80154178
45.61970308
43.78369897
48.39605157
49.28312305
49.11971454
49.60669275
49.44598584
48.59235538
50.10468576
49.90486109
50.03507902
49.08546962
49.22817683
49.56705653
47.59568568
48.61350111
48.43882771
48.95312741
48.78690449
47.81033851
36.86708903
36.8692631
36.95608377
36.87264999
36.87803377
36.95836856
36.88376726
36.89260434
36.96357286
36.9045494
36.91989145
36.97237938
36.93866961
36.96117906
36.98512433
36.98621174
37.00624204
37.00100662
37.01755732
37.02461853
37.0076504
36.68852197
36.69049994
36.77698399
36.69464103
36.70109294
36.78390896
36.70979056
36.71331477
36.82005513
36.78908628
36.79745321
36.831606
36.82930255
36.84394553
36.86753561
36.89482226
36.91639557
36.92433282
36.9817312
36.99812266
36.99159376
37.03916443
37.04780751
37.03462481
36.51632954
36.52158268
36.6044722
36.53137822
36.54599186
36.62146341
36.56670479
36.59861867
36.68037157
36.66568179
36.68401788
36.7080907
36.75770429
36.78941713
36.79560671
36.89290098
36.92863259
36.91976253
37.02754002
37.05637272
37.03522749
37.12311815
37.13875621
37.10844714
36.35061397
36.36165706
36.4392295
36.38087874
36.41010034
36.47524343
36.45212935
36.53132263
36.57576746
36.59093876
36.62826853
36.63508304
36.76145252
36.80956792
36.79882369
36.96099719
37.01257158
36.98365754
37.16030867
37.20476294
37.15635814
37.31515349
37.34105443
37.27568585
36.19482088
36.21562161
36.28591076
36.25029718
36.30229127
36.35214886
36.38005311
36.52323186
36.52281315
36.57621863
36.63345153
36.62800302
36.82282469
36.89306992
36.86694637
37.11541232
37.19277691
37.13760488
37.42897135
37.50591444
37.41122761
37.71934529
37.76765467
37.6340378
36.04980027
36.08613772
36.14831455
36.14418317
36.22993369
36.26139662
36.35347127
36.55439298
36.52732521
36.60761103
36.68556733
36.66827179
36.94725732
37.04469034
36.99942717
37.37282537
37.49620433
37.40551473
37.91390464
38.06997812
37.89487802
38.57728579
38.70979558
38.42048656
35.91714309
35.97543893
36.02804594
36.06417102
36.19257637
36.20702568
36.36256019
36.61690432
36.5666454
36.67849122
36.78153262
36.75394384
37.13437683
37.26996211
37.2078548
37.75578531
37.95338392
37.82566254
38.72395665
39.07352985
38.77124121
35.80175051
35.88710136
35.92817664
36.01133784
36.18494177
36.18434109
36.39371201
36.7081211
36.63758839
36.78210381
36.91346519
36.87861122
37.37071447
37.55111141
37.47863974
38.22928014
38.52263703
38.37773908
35.70600516
35.82121376
35.85049956
35.98321889
36.1978425
36.18868098
36.44243851
36.81978312
36.73491572
36.91267768
37.07289481
37.03165698
37.63234758
37.85486564
37.77940428
38.70449791
39.07854747
38.94696033
35.62986186
35.77638494
35.79450464
35.97506632
36.22566387
36.20939409
36.50554283
36.94160966
36.84927795
37.05477498
37.24105708
37.19849738
37.88895311
38.14599715
38.07514138
39.12421196
39.55246782
39.44148928
35.57301921
35.74946798
35.75806729
35.98118597
36.26396951
36.24103738
36.57946735
37.06813884
36.97195522
37.20226039
37.411121
37.36735573
38.13169425
38.41576447
38.34870628
39.49106241
39.95966352
39.86183094
35.73651876
36.27981153
37.0958378
37.35107382
37.57694391
37.53143773
38.35559312
38.66163432
38.59999779
39.82089361
40.32747613
40.23638216
42.59559701
42.13050288
41.75558461
40.61004559
40.87355743
45.20354234
44.27472293
44.39726805
43.38903859
43.56367989
44.45874981
46.07563743
45.13322849
45.2256553
44.51245846
44.62593803
45.57250196
46.46661679
45.73837802
45.79431583
45.31219122
45.39634374
46.28786609
45.51982781
46.24660898
46.12657941
45.8442723
45.89199803
46.50675124
40.43223607
41.99974033
41.84645298
43.98719942
43.85475883
42.69061169
50.70938331
50.15100094
50.09028056
50.34483359
50.34285387
51.2108321
50.66265013
50.78630358
50.80189917
50.5079711
50.41481203
50.53917735
43.12887225
44.24588941
44.11388346
46.01227546
45.89126441
45.11016227
41.69219545
41.5411049
39.8467242
46.68085645
43.84252121
43.00071746
43.2039013
41.48953147
41.75637927
42.34210532
47.90051813
46.94450706
47.3224084
44.18304581
44.65849254
45.01920152
51.38084546
50.28001939
50.3267263
49.54456876
49.70595383
51.04463969
50.46362729
49.18922776
49.37639633
47.66434813
47.9834111
49.09745515
44.7902746
44.25664602
43.9036554
42.91706275
42.77381956
41.48276956
53.32478559
51.64589562
52.41175426
46.73908493
47.38007391
47.86667749
51.63186725
51.73182377
51.57372479
51.27482588
51.39634311
51.51594451
47.81145081
46.74847633
46.38192186
46.92696465
46.81601515
46.2121353
46.70203999
47.10448202
47.02687158
41.94858777
43.19156591
43.04825411
45.04834873
44.91409304
43.96100134
44.42173468
45.29829487
45.17148845
36.73535017
36.76520277
36.75449493
36.79065668
36.77627864
36.74926122
36.83919851
36.80634599
36.81764607
36.80726446
36.82362774
36.80509886
36.86477234
36.84179936
36.83005311
36.8803562
36.85869347
36.87695419
36.91550555
36.91405932
36.88637865
36.96394231
36.93835497
36.94215254
36.94260157
36.937302
36.96072092
37.0189652
37.00685429
36.98618345
37.04152005
37.02496667
37.03918462
37.00951055
37.01500381
37.02898503
37.08379619
37.06390322
37.05320459
37.07110104
37.09229605
37.04061031
37.05415603
36.64709424
36.66344906
36.64125787
36.71889165
36.68900526
36.67774208
36.72537881
36.70510655
36.7301093
36.79244847
36.7897394
36.75207452
36.86459457
36.82652059
36.83293372
36.82362402
36.8238435
36.85888139
36.9602185
36.9420116
36.90294425
37.0168717
36.97972377
37.00186498
36.95029538
36.96268163
36.99663172
37.11616001
37.0830797
37.05115457
37.13698239
37.11151051
37.148105
37.05792608
37.08182208
37.10474212
37.22084102
37.17590125
37.15791892
37.18938913
37.23605353
37.11846324
37.15032557
36.62613556
36.62574692
36.58210363
36.72109702
36.6731767
36.67705757
36.67137592
36.67111971
36.71556176
36.84345197
36.82443702
36.77174248
36.93432015
36.87867254
36.90299716
36.84384624
36.85903989
36.90977568
37.08881574
37.04764305
36.99076128
37.15919389
37.10391855
37.15149164
37.02962183
37.06337907
37.11310638
37.33071572
37.26238009
37.21218346
37.35081007
37.30870042
37.38484506
37.19219043
37.2456206
37.28277569
37.51525628
37.42147994
37.38728024
37.44852536
37.54401009
37.29421846
37.3615329
36.65370194
36.64206114
36.57992594
36.77538066
36.70683104
36.72412589
36.68309424
36.6930318
36.75618842
36.95860873
36.9226457
36.84726342
37.08478537
37.00165037
37.04432307
36.93198175
36.96592793
37.04001772
37.32649111
37.25790529
37.1708033
37.43604385
37.34608378
37.42834552
37.20743952
37.2715873
37.35071069
37.74592885
37.61684995
37.52676529
37.78734631
37.70387928
37.85545471
37.47335077
37.58088893
37.65230587
38.13968268
37.94744044
37.86354686
38.00882623
38.217202
37.67458375
37.81196484
36.72863503
36.70588343
36.6219832
36.88873319
36.7947173
36.82442802
36.74461454
36.76818206
36.85527693
37.14858928
37.09474128
36.98858564
37.3286067
37.20770466
37.27205644
37.09341143
37.14773633
37.25730093
37.70632175
37.59689833
37.45740222
37.90735926
37.74683428
37.87810893
37.52060418
37.62713362
37.76533477
38.50395545
38.27080685
38.08239752
38.6803074
38.46841232
38.76659301
38.02376954
38.23607918
38.40733145
39.62867026
39.16285256
38.90784453
39.33891379
40.06954128
38.51646921
38.85939925
36.84334744
36.8116064
36.70161548
37.05469041
36.92904708
36.96838701
36.85669504
36.89146626
37.00870666
37.40439331
37.33652549
37.18989322
37.67311651
37.496397
37.57714095
37.34297978
37.41707301
37.57859865
38.22994873
38.08999277
37.86916487
38.63429478
38.34320838
38.5142904
38.02265494
38.17679885
38.42924454
39.75533342
39.3979056
38.98162756
40.48802285
39.88248289
40.38378348
39.08143308
39.49013513
39.98181914
40.89396378
40.73821317
41.04093278
36.99082578
36.95147023
36.81256617
37.26114726
37.10048679
37.14775453
37.01163728
37.05436983
37.2061011
37.70380753
37.62744872
37.4357366
38.07990382
37.84029065
37.92919934
37.66505668
37.7507784
37.97489321
38.81047774
38.66822553
38.35262339
39.49099159
39.04237245
39.20944581
38.69305657
38.86870594
39.28169821
37.15636853
37.11424175
36.94712521
37.48676875
37.29339952
37.34254385
37.19609746
37.24474822
37.43027233
38.00320907
37.92939175
37.69740513
38.48034994
38.1880661
38.27178464
38.01621717
38.10288801
38.38312719
39.32594348
39.20471489
38.81523353
40.22042566
39.66571078
39.80298521
39.36921085
39.52152171
40.05466006
37.32613214
37.2831094
37.09074465
37.70989588
37.48864069
37.53759994
37.39142975
37.44040533
37.65524797
38.28348968
38.21476379
37.95039801
38.84064752
38.50895844
38.58517536
38.3528273
38.43220161
38.75506347
39.76247997
39.65893725
39.21963489
40.79555961
40.17606984
40.29123478
39.9329904
40.057318
40.66327355
48.2282884
47.59293976
47.63281492
47.49902149
47.54639485
48.19533352
37.49391337
37.44984953
37.23585116
37.9216382
37.67750748
37.7261969
37.58443085
37.63367193
37.87263199
38.54094565
38.47642338
38.18623472
39.16137475
38.79871292
38.86912086
38.65758943
38.73120764
39.08616265
40.14720722
40.05344958
39.57496091
41.28694789
40.61550948
40.72024162
40.4018126
40.51047089
41.17010864
47.92596582
47.66001058
47.62374591
47.71723952
47.68742252
47.97912884
37.76933404
37.8175219
38.0761061
38.93450812
39.00134779
39.38381402
40.82063833
40.9235525
41.63836723
46.79584447
46.9165619
46.85531601
47.0303691
46.97123518
46.87923995
48.12052663
47.76109208
47.73786713
47.7873742
47.77461416
48.16155774
47.11776134
47.13868321
47.08196672
47.24261688
47.18758328
47.19359346
42.78049215
42.50749185
43.08776416
41.50834498
41.93754769
42.22272054
41.37187966
41.59827641
41.20977994
40.70863528
40.80351442
40.45210916
41.63611874
41.23973698
41.05245716
41.39939664
41.78652519
44.01464334
44.1491723
45.07014805
43.60386658
43.48968625
42.81219783
44.6263439
43.7230304
43.87485574
44.93965413
45.03926053
45.98790781
43.48291439
44.2073582
44.11237845
44.39088104
44.29971645
43.57234
43.11472766
43.81665036
43.71088236
44.01631458
43.91705353
43.21060748
45.68444522
44.73310329
44.83903067
48.29822755
47.73395141
47.75510764
47.67174553
47.70332523
48.29012726
45.6158718
45.68051828
46.44478175
44.15932445
44.89597345
44.81774411
45.04656356
44.97218426
44.24377811
43.82842087
44.56735628
44.48008384
44.73626289
44.65296531
43.91512962
46.33908693
45.4737134
45.54824188
47.68351392
47.5149798
47.4708728
47.59149073
47.55100274
47.74786074
46.47883523
46.3600531
45.65605903
44.4806658
45.18643475
45.1175148
45.31363881
45.25186189
44.52954912
46.50895965
45.93677315
45.97711165
46.44560482
46.67557959
46.61590874
46.79602596
46.72911501
46.53372797
42.31798337
42.13517329
40.67947951
43.16848542
43.37966921
43.92491233
42.54470803
43.7266664
43.59083352
52.84787057
51.91821405
52.13261382
51.53724916
51.72213223
52.51871245
55.13047088
53.97403776
54.04064281
53.72534899
53.86217847
55.09144244
50.25781647
50.2072069
50.82655942
48.73679736
49.49820239
49.49931907
49.48175096
49.49289517
48.77412826
48.55707233
49.44255123
49.38389043
49.49362679
49.4767039
48.5925467
51.12243992
50.32945848
50.30011753
52.41073052
52.37344123
52.22748452
52.64544381
52.50256737
52.59204404
49.94022483
50.54989118
50.39359871
50.86335212
50.70652799
50.13633674
50.89364778
50.90898291
51.0322103
54.89842635
54.04202638
53.99243841
54.07005578
54.06291632
54.99513093
53.12213645
52.90713179
52.7705131
53.15371799
53.02626414
53.29518888
48.25724421
47.79415356
47.79214107
47.77555653
47.78614257
48.27782108
50.16351492
50.28909409
50.41146533
49.17045139
49.92428663
49.76637312
50.23756933
50.08154278
49.36224582
44.50961525
44.37445691
43.28082341
44.97416531
45.77661362
45.65481958
47.41125419
47.34047543
47.28799335
47.43148122
47.38284009
47.48067059
43.70122375
42.82930451
42.98946678
46.55243727
42.55053296
42.78474568
43.59520895
42.69556357
42.03568998
42.30212228
46.09910713
46.54164195
47.41148012
45.36066442
45.80567792
45.40101579
46.52245185
46.16960145
45.65506759
44.97489446
44.48572761
44.32679516
45.61044708
45.13128642
45.62411551
50.10851594
50.20958726
51.39130721
48.20388373
49.12678892
49.01624113
49.31377216
49.22394074
48.30225927
47.76916178
48.65052297
48.50821577
48.90279733
48.77667358
47.88354157
51.19497085
49.85263356
49.99112615
48.77011033
48.99174358
50.2387205
47.21149828
48.02665068
47.82604265
48.36405961
48.19704219
47.36131018
46.43957021
47.12470836
46.82924076
47.61990386
47.37632124
46.65005807
49.42373072
48.26818924
48.53391795
42.5049622
43.01512493
42.82215936
42.7165468
42.98730338
45.0261616
44.6839748
45.20775209
43.5346013
43.90531918
44.28631349
43.48247114
43.70352526
43.25909073
41.31987986
42.63173119
42.46662725
53.92796227
52.70906509
52.90089913
52.32460107
52.52798605
53.69688024
54.71963391
53.41107312
53.57739156
53.07096797
53.25134111
54.55159924
49.94362667
50.8863387
52.30337228
50.61916445
49.84580091
49.42195348
48.72863841
48.19079152
49.05562807
51.62190312
51.79076183
51.64218516
52.08937481
51.93534059
51.8374212
51.15403357
51.27630417
51.18508166
50.73702712
51.17664587
51.02003586
51.48858148
51.33287494
50.94586431
54.40807562