/*--------------------------------*- C++ -*----------------------------------*\
| =========                 |                                                 |
| \\      /  F ield         | OpenFOAM: The Open Source CFD Toolbox           |
|  \\    /   O peration     | Version:  v2012                                 |
|   \\  /    A nd           | Website:  www.openfoam.com                      |
|    \\/     M anipulation  |                                                 |
\*---------------------------------------------------------------------------*/
FoamFile
{
    version     2.0;
    format      ascii;
    class       volScalarField;
    location    "1.42";
    object      k;
}
// * * * * * * * * * * * * * * * * * * * * * * * * * * * * * * * * * * * * * //

dimensions      [0 2 -2 0 0 0 0];


internalField   nonuniform List<scalar> 
3019
(
46.18999531
53.02795629
46.37646674
42.21490607
39.64586122
38.05128646
36.88093799
36.16182089
35.46364096
35.16769943
35.02577806
34.96932226
55.91344471
53.0105581
46.54360657
42.36676329
39.78308267
38.15671553
36.92867514
36.1649912
35.41465512
35.09040252
34.93043352
34.86632978
55.84512682
52.41725727
46.35246916
42.34996876
39.83009818
38.21960464
36.95376054
36.15467812
35.36549219
35.01831422
34.84293403
34.7723661
53.93542151
51.14751805
45.8386695
42.17836617
39.80644203
38.23380929
36.95164925
36.12478043
35.30852571
34.94474117
34.75820762
34.6822972
52.42911857
49.5962967
45.06093852
41.8936403
39.74663635
38.21159187
36.91753215
36.07507938
35.24315611
34.86855587
34.67263187
34.59232569
50.97234526
48.13109791
44.30675704
41.58678274
39.6205677
38.13138627
36.84275253
36.00008767
35.16290442
34.78226863
34.58188315
34.49829077
49.59077087
47.03554171
43.76628019
41.3060634
39.44128271
38.00529489
36.73924498
35.90479536
35.07016499
34.68748848
34.48455692
34.39909992
48.33448757
46.29422104
43.32288307
41.01178044
39.2347641
37.84986149
36.6140961
35.79225331
34.96485278
34.58260698
34.37859059
34.29193651
47.157008
45.608715
42.90380682
40.71825371
39.01596134
37.67686631
36.47295544
35.66582807
34.84964504
34.4701362
34.26616489
34.17885553
46.05768104
44.96443903
42.50772286
40.43258412
38.79344305
37.49428616
36.32043805
35.52880589
34.72472739
34.3485289
34.14500312
34.05736177
45.02128023
44.35473868
42.1305224
40.15743422
38.57219401
37.30737212
36.16048679
35.38404673
34.59409491
34.22248075
34.01985069
33.93211159
44.03676614
43.77385527
41.76880063
39.89272109
38.35492709
37.11947424
35.99620635
35.23399307
34.45646362
34.08863016
33.88667277
33.7988872
43.09190857
43.21684208
41.42016966
39.63736829
38.14289242
36.9327453
35.82988592
35.08053765
34.31724744
33.95433729
33.75329482
33.66553054
42.1825498
42.67945211
41.08268495
39.39017744
37.93642394
36.74845226
35.66312002
34.9252195
34.17218386
33.81231038
33.61162493
33.5237813
41.30460757
42.15848723
40.75468595
39.15010738
37.73542666
36.56730185
35.49702099
34.76909395
34.0297376
33.67467552
33.47466246
33.38675306
40.45238983
41.65121216
40.43465451
38.91621074
37.5395779
36.38961297
35.33230862
34.61309247
33.88029208
33.52695744
33.3268457
33.23869492
39.62447886
41.15564734
40.12127829
38.68766245
37.3484938
36.21550297
35.16946343
34.45766225
33.73889382
33.39034934
33.19064696
33.1022811
38.82111304
40.66992287
39.81339534
38.46370642
37.16175038
36.04494272
35.0087876
34.30346368
33.58578632
33.23737404
33.03715788
32.94836123
38.04031181
40.1927707
39.51006019
38.24369268
36.97893625
35.87783955
34.85048256
34.15051176
33.44980866
33.10637773
32.90632424
32.81717554
37.2803806
39.72364325
39.21060156
38.02710431
36.79967663
35.71403619
34.69467932
33.99951254
33.29095881
32.94610843
32.74526334
32.65550245
36.54097378
39.26317184
38.91457736
37.81351627
36.62360985
35.55332571
34.5415257
33.85008078
33.16675623
32.82678124
32.62580686
32.53561182
35.82338801
38.81045785
38.62181525
37.60263748
36.45045105
35.39559528
34.39143037
33.70362842
32.99543782
32.65383449
32.45197773
32.36099244
35.13043455
38.3654697
38.33237094
37.394252
36.27993817
35.24062567
34.24565523
33.56017815
32.89455459
32.55496432
32.35263892
32.26119079
34.46886474
37.93264771
38.04824921
37.18891594
36.11218979
35.08836957
34.10827886
33.42544085
32.67403039
32.3331434
32.12950692
32.03692389
41.84406703
45.18240657
54.46968582
52.13247825
42.20980985
55.49282499
54.95769195
54.49418437
53.99209508
52.51067461
57.40046033
48.7095979
47.96415912
51.80661852
57.71562138
57.49336626
39.4723751
44.35590138
39.38673194
40.17382342
54.34701464
45.30456936
56.34138702
54.3615328
54.88652369
55.7210903
54.75167233
40.75275183
57.86465081
57.77857416
52.36631292
52.93299038
62.93250522
39.66694344
41.26929289
50.7289243
49.13276674
41.85762287
40.04478356
51.25708525
63.13304986
41.95631594
48.36946056
69.86621783
39.76157862
40.99461444
39.62821585
39.6496203
61.65507815
65.40315527
39.54043201
62.96874695
55.16494163
53.65241141
47.7582708
40.4466523
41.01403141
39.68780943
45.78724917
40.34962439
39.48894312
46.30612322
66.5817187
69.26894322
71.0357821
59.40974802
67.90440107
40.22932704
39.70461247
59.91630533
53.95525043
60.95228222
56.71960974
66.15785674
66.22153677
64.18651769
43.44280345
57.85260268
51.51896351
64.75218897
66.04120257
45.85228809
49.11272767
53.21730129
68.47347054
56.13095485
44.15506286
46.01985033
61.55619206
46.3479355
48.91526781
42.20417738
44.20410207
62.63232778
46.31404619
42.98351984
42.13208499
40.12464674
39.59788357
38.34681985
48.94840519
56.60166973
56.00920365
53.07804581
47.93870987
47.82812853
46.52128077
43.19726266
43.0699201
42.34209466
40.29766687
40.17657295
39.75860612
38.47576651
38.38399705
56.24095906
57.51327513
57.83538066
52.63914681
47.78169992
47.9501696
46.42706313
43.2104008
43.22463299
42.36843598
40.35579718
40.3185242
39.8278113
38.55733434
38.5001929
50.99966059
50.77286792
54.36063947
52.9862407
54.07384558
51.50739114
47.22297877
47.68326781
46.00429624
43.0248488
43.18251772
42.23325615
40.32459726
40.35567259
39.81741701
38.58123175
38.56668079
50.94514437
51.00320378
52.79278888
51.27321833
52.57528385
49.98956131
46.30684697
47.01381387
45.26310039
42.67928278
42.95535371
41.97365557
40.23679291
40.30557539
39.76573902
38.56613977
38.58033235
50.49613541
50.88850354
51.33779316
49.57713739
50.83436452
48.47135288
45.36228265
46.06201832
44.48055195
42.26946936
42.57499554
41.65695342
40.1039697
40.20865749
39.65842635
38.49338264
38.55407346
49.4802839
50.28216813
49.92106942
48.2083985
49.19398979
47.26626115
44.63375956
45.15256077
43.88087596
41.93759611
42.1785622
41.37828122
39.915113
40.06109457
39.48944305
38.36722708
38.4657577
48.1634467
49.17060034
48.64253746
47.28204554
47.93794723
46.47297228
44.12690619
44.50216307
43.43155155
41.61347582
41.85695953
41.08568753
39.69529703
39.86217452
39.28799167
38.20810513
38.32986563
46.84040601
47.82542451
47.44324946
46.4763364
47.0753868
45.77593849
43.65395443
44.0058173
43.00627503
41.29253786
41.5325417
40.79108616
39.46248123
39.63782609
39.07126756
38.02945936
38.16486374
45.59006931
46.52113726
46.32611559
45.72166593
46.28321109
45.12202143
43.20825186
43.54020862
42.60481251
40.98231599
41.21381944
40.5030576
39.22658071
39.40352775
38.84910128
37.84017198
37.98287376
44.40714341
45.28829417
45.27514074
45.01013463
45.54004073
44.50425248
42.78455664
43.1004433
42.22325996
40.68511171
40.90679687
40.22521159
38.99309361
39.16783976
38.6272084
37.64631085
37.79197151
43.28287042
44.12089715
44.27854681
44.33464596
44.83813972
43.91665259
42.37909159
42.68160731
41.85792009
40.40011308
40.61278641
39.95797329
38.76480055
38.93547259
38.40878141
37.45174663
37.59764081
42.2085453
43.00995077
43.32466344
43.68900515
44.17068949
43.35410781
41.98909828
42.28024559
41.50621225
40.12566429
40.3305806
39.70039696
38.54278409
38.708696
38.1953821
37.2588583
37.40331833
41.17305149
41.94643564
42.4067392
43.06774055
43.53157157
42.81214573
41.61221625
41.89373877
41.16610353
39.86023943
40.05851942
39.45126813
38.32714022
38.48828761
37.98751851
37.06896794
37.21108602
40.17188877
40.91947905
41.52150346
42.46720362
42.91578644
42.28734282
41.24642441
41.51980749
40.83588283
39.6026049
39.79514927
39.20951141
38.1175625
38.27419773
37.78517893
36.88274985
37.02206826
39.20647245
39.92714519
40.66316146
41.88363953
42.3198101
41.77687905
40.88991946
41.15649563
40.51399761
39.35167431
39.53928652
38.97415847
37.9135703
38.06606371
37.58808238
36.70045847
36.83681753
38.27492405
38.97046618
39.82912646
41.31550219
41.74020264
41.27853556
40.54112229
40.80204836
40.19906614
39.10647937
39.28987037
38.74434196
37.71463932
37.86338151
37.39584205
36.52211655
36.65551224
37.37496473
38.04704145
39.01972156
40.76148924
41.17571346
40.79054405
40.19870131
40.45496991
39.88990675
38.8661767
39.0459798
38.51930245
37.52026563
37.66564166
37.20805237
36.34763335
36.47815077
36.50465631
37.154721
38.23343733
40.22111298
40.62527475
40.31127382
39.86153131
40.11395696
39.58550712
38.63001642
38.80677811
38.29835576
37.32995505
37.47232868
37.02429158
36.1768371
36.30460589
35.66187391
36.2916425
37.46827077
39.69116663
40.08772787
39.84014477
39.52881376
39.7779612
39.28513141
38.39741295
38.57155567
38.08095592
37.14327973
37.28296492
36.84417935
36.00951869
36.13469851
34.84514525
35.45576515
36.72329581
39.16945486
39.56003648
39.37751395
39.20003114
39.44626468
38.98827231
38.16789869
38.33976289
37.86664857
36.95983987
37.09713398
36.66734303
35.84542179
35.96820937
34.05514077
34.64656907
35.99882781
38.65598651
39.0403436
38.92282384
38.87498627
39.11842439
38.69469737
37.94116891
38.11096807
37.65511696
36.77932021
36.9144508
36.49348363
35.68437189
35.80488769
33.29234612
33.86609849
35.29500331
38.15085449
38.52927142
38.47506036
38.55362189
38.79432796
38.40428918
37.71699173
37.88489734
37.44610527
36.6014376
36.7346159
36.32232608
35.52615637
35.64456659
32.55469644
33.11777854
34.60929853
37.65203096
38.028096
38.03169717
38.23485789
38.47417255
38.11622101
37.49489379
37.66137381
37.23918853
36.42584457
36.55736388
36.15354319
35.37051231
35.48702321
31.79770713
32.40797283
33.89949084
37.12745524
37.54255132
37.56364177
37.89745671
38.16060309
37.81127524
37.26049192
37.44117813
37.02120544
36.24203058
36.38287423
35.97723039
35.20877506
35.33226884
41.28967099
39.71414036
39.92644412
49.99299335
49.14937434
44.12638272
54.37077145
57.07352808
57.1785131
51.1007867
41.87574822
39.55552276
39.47976959
42.44367673
57.46394923
57.32822558
54.06783411
54.51724073
57.2778697
57.25868022
57.20632873
57.27036851
54.52361871
53.22075292
51.99409664
57.31659959
56.29333679
56.79858158
56.09236094
57.28949472
39.49229114
39.86731286
44.52459252
45.30337164
49.47571735
47.11645602
42.84199828
43.65735676
57.29625662
56.78486418
49.78422397
57.64695747
57.49667367
57.62989568
56.93395189
57.36146109
57.57060415
39.50063138
39.39964381
39.53312581
42.07703358
42.99927993
53.00201997
43.42126694
39.52364484
39.71452154
39.37885807
39.91977553
39.62263899
46.27493641
45.18035984
39.54289054
53.90270165
50.31011044
51.07950306
49.46749204
53.40026048
41.25754685
42.01190353
46.22093407
40.81205597
41.34567613
40.7103388
40.42429921
57.06366389
57.45612404
56.18076385
54.59545216
56.32940236
56.01620766
57.1741167
56.55774116
54.7514741
55.44033661
53.0435313
53.55921605
51.79866854
52.43780301
55.10573916
43.09375281
48.23142581
47.26585739
57.85851286
57.87386179
57.9238204
57.7292696
57.80973912
57.82422344
53.60147767
57.18211137
56.96025872
52.60683939
46.14249477
46.54042192
39.94619438
43.76206567
41.96744912
41.83253754
41.35529173
43.11551447
42.63480401
41.04649986
50.02648368
46.19305961
46.77071444
45.73311896
40.31384187
41.02820664
39.61280705
39.87505798
43.26482733
39.76814185
39.35034679
39.36007634
39.98969069
42.85970257
41.69107353
47.68084881
44.63721484
40.36815604
39.63471141
40.15410278
39.97178364
40.93792667
40.43000775
39.61371667
40.95908807
40.32813032
39.4215783
51.12902801
51.03818209
53.39789251
47.6533905
49.26648701
49.36691711
39.40532025
39.5042362
40.85941015
40.38942772
39.40462344
39.48152319
39.38635158
39.38083262
39.96932401
40.44620874
40.23699481
39.47560033
45.12408592
42.55365835
42.44657431
41.7394473
44.70083794
40.29611387
40.51006258
39.99395199
39.88410385
39.92518805
39.87130201
39.86864905
39.82735534
38.01898167
37.29993765
36.85105197
36.47667195
36.15934205
35.86886666
47.1511274
51.50502897
50.78406207
53.06357326
51.23842136
51.18348543
46.45248553
45.19594229
45.12105199
42.25344524
41.49941771
41.45290851
39.69490458
39.2176312
39.174884
38.13470227
37.38621563
37.34676471
36.90697623
36.50660887
36.49222673
36.16599234
35.85334168
35.86385506
56.13876467
57.58980103
57.57769991
52.91382691
51.16762056
51.23678973
46.51409455
45.28419848
45.29249056
42.38311024
41.61831374
41.60156321
39.80299541
39.32556601
39.30580809
38.20835681
37.44121013
37.41700192
36.94413083
36.5236274
36.51650537
36.16270214
35.83135553
35.84562093
55.3221419
56.14629626
56.62207039
52.14939515
50.56091996
50.77899083
46.25842911
45.09483793
45.16766893
42.32058992
41.58813599
41.60766528
39.82929705
39.36556274
39.36170794
38.23416857
37.46350158
37.45656544
36.95604293
36.52222358
36.5255053
36.14493472
35.798823
35.81798963
53.53846531
54.14501567
54.64162826
50.77036497
49.38036563
49.70804482
45.65662031
44.63313241
44.77673691
42.11968089
41.43996793
41.48414575
39.79344676
39.35281478
39.35883003
38.22296312
37.45320464
37.46138333
36.94123827
36.49804223
36.51332104
36.10815556
35.75215845
35.77834964
52.06673164
52.2753509
52.72457673
49.20872259
48.0136302
48.35257627
44.86072826
43.98751083
44.151405
41.81253925
41.21489792
41.2758921
39.72213464
39.29897502
39.31993976
38.15720916
37.40118064
37.43424655
36.88427228
36.43822566
36.47113574
36.04365497
35.6871355
35.72312242
50.60850417
50.60883862
51.0012495
47.8149047
46.8031905
47.07632625
44.14738046
43.40256183
43.53322897
41.51883101
40.98175487
41.04092406
39.5794781
39.17238923
39.20930051
38.04052537
37.30542544
37.3577128
36.79414154
36.35130456
36.39730934
35.95749255
35.60329155
35.64806299
49.27003985
49.19907671
49.51971445
46.84071042
45.97718971
46.14321837
43.65336052
42.98228744
43.08309351
41.23304909
40.72597729
40.79195241
39.39147815
39.00099425
39.04673315
37.89097062
37.17988661
37.24573077
36.67901156
36.24200574
36.29872208
35.85255347
35.50315273
35.55588074
48.03151873
48.04224419
48.32068808
46.11856717
45.35029016
45.50292361
43.21578347
42.58799595
42.68495938
40.93795782
40.45619584
40.52410108
39.18079895
38.80558988
38.85591471
37.72137594
37.03395316
37.10897756
36.54523919
36.11526917
36.18020743
35.73214926
35.38881383
35.44840939
46.87553876
46.98301585
47.24016568
45.44404911
44.7631838
44.90668266
42.80278036
42.21249945
42.30450168
40.64592849
40.18542015
40.2527752
38.96043392
38.59854092
38.65093772
37.54054124
36.87463724
36.95561313
36.3978594
35.97565427
36.04658143
35.59963504
35.26296457
35.32802903
45.79315581
45.99904728
46.23884458
44.80901624
44.20876514
44.34460388
42.41181023
41.85627448
41.94366728
40.36278377
39.92025745
39.98581864
38.73787534
38.38728878
38.44021214
37.3543054
36.70702202
36.79161193
36.241183
35.82699296
35.90208542
35.45810509
35.12804485
35.19739799
44.77068268
45.0757915
45.30162363
44.20702832
43.68189501
43.81127862
42.03875164
41.51641658
41.60001975
40.09031658
39.6635059
39.72685347
38.5174373
38.17639027
38.22891257
37.16639056
36.53482128
36.62130378
36.07872953
35.67227356
35.75010799
35.3101909
34.98663299
35.05895511
43.79711714
44.20286549
44.41629824
43.63254951
43.17816674
43.30214536
41.68050005
41.19001945
41.27048037
39.82805609
39.41561755
39.47678086
38.30140509
37.96849424
38.02009571
36.97921092
36.36075634
36.44788832
35.91318867
35.51385186
35.59331545
35.15804661
34.84039472
34.91495275
42.861365
43.37744628
43.58009558
43.08080078
42.69373515
42.81322608
41.3348265
40.87498364
40.95277365
39.57485213
39.17600744
39.23518143
38.09075469
37.76495305
37.81539401
36.79421725
36.1866918
36.27363775
35.74647967
35.35349649
35.43376318
35.00336811
34.69136644
34.76707896
41.96027419
42.58703424
42.78185289
42.54778144
42.22528894
42.3410526
40.99986062
40.56964132
40.64514607
39.32953327
38.94379507
39.00120046
37.88567353
37.5662677
37.61547478
36.61223696
36.01385319
36.10006116
35.57993586
35.19251991
35.27297447
34.84742827
34.54019555
34.61688961
41.08924225
41.82335966
42.01228896
42.03048091
41.77019107
41.88284261
40.67398943
40.27258429
40.346145
39.09109164
38.71813737
38.77398267
37.68599866
37.37250596
37.42049341
36.43366839
35.84300983
35.92814931
35.41445537
35.03185173
35.11206853
34.69120741
34.38868972
34.46531398
40.24311482
41.08067451
41.26440683
41.52629012
41.32619367
41.43625545
40.35573758
39.98251928
40.05444197
38.85860564
38.49822945
38.55270628
37.4913785
37.18348183
37.23030714
36.25865822
35.6746157
35.75848825
35.25062726
34.87215958
34.95183279
34.5353702
34.23638833
34.31343768
39.42135929
40.35768124
40.53678645
41.033413
40.89149374
40.99938077
40.04383479
39.69832352
39.76888036
38.6312716
38.2833581
38.33664177
37.30141873
36.99892116
37.0446618
36.08721802
35.50892586
35.5914264
35.08883159
34.71388788
34.79281073
34.3804727
34.08548757
34.1615423
38.62380551
39.65148731
39.82656699
40.54983089
40.46453178
40.57063072
39.73716041
39.41899512
39.48842346
38.40835235
38.072858
38.12510998
37.11569091
36.81848595
36.8632302
35.9192655
35.34603106
35.42713694
34.92929755
34.55736478
34.63540419
34.22680144
33.93404651
34.01057573
37.84829056
38.9610193
39.1321819
40.07474977
40.04418412
40.14869259
39.43485501
39.14375226
39.21221681
38.18924479
37.86617543
37.91751656
36.93380461
36.64185173
36.6856735
35.75465675
35.18597786
35.26568334
34.77215857
34.40277437
34.47986907
34.07472046
33.78567028
33.86023634
37.0932526
38.2863438
38.45365596
39.60773334
39.62972334
39.73284405
39.13628667
38.87199898
38.9396342
37.97344207
37.66282985
37.71337609
36.75537543
36.4686761
36.51166428
35.59318164
35.02877408
35.10714087
34.61741071
34.25021733
34.32645311
33.92419268
33.63582809
33.71173259
36.35845038
37.6270409
37.79075523
39.14924664
39.22073971
39.32245602
38.84108363
38.60335452
38.6702349
37.76055436
37.46243514
37.51227276
36.58006003
36.29864362
36.34087043
35.43472122
34.87419987
34.95161443
34.46486652
34.09950134
34.17531316
33.77536238
33.49121479
33.56404486
35.64437343
36.9833135
37.14410313
38.69816524
38.81754172
38.91791193
38.54910813
38.33763373
38.40380276
37.55031282
37.26470912
37.31390517
36.40758551
36.13150537
36.17303311
35.2790629
34.72150404
34.79926145
34.31382351
33.95004151
34.02698294
33.62733164
33.34181569
33.41946697
34.95027568
36.35449002
36.51601374
38.25318334
38.42036725
38.520085
38.26015714
38.07463089
38.14029031
37.34246479
37.06938647
37.1180306
36.23768288
35.96700465
36.00790259
35.12590852
34.56814913
34.65116358
34.16188178
33.79947484
33.88261828
33.478249
33.1990271
33.27666901
34.27010591
35.73376899
35.91315384
37.80759216
38.02286463
38.13336576
37.97019374
37.81102239
37.88118015
37.13502992
36.87475106
36.92503849
36.06913364
35.8040277
35.84555669
34.96694717
34.40324896
34.5122755
33.99854826
33.63741339
33.74634376
33.31694846
33.03203445
33.14345567
54.42797351
55.36867939
55.40232634
51.65224286
48.03706839
48.52226062
40.411151
40.29492869
43.25432444
55.41027995
55.43220659
54.50316959
57.10203588
57.20710422
54.54366256
54.25834023
51.22575964
42.46972751
41.85258803
39.92158697
40.30820863
40.23666404
40.60331709
44.03666523
42.88867933
52.82718617
55.22670937
54.95190275
40.55736573
40.4084455
45.05516341
44.94081035
46.19683943
42.8989601
43.85453527
43.95318937
41.38235015
41.31424856
42.05818268
40.06517293
40.65208791
40.71740588
39.12957116
39.08244019
39.54460961
38.30753438
38.671892
38.71425707
52.75404328
52.17025495
48.09598813
56.43022526
54.88749035
55.26100148
54.07178495
54.4909371
56.18665204
51.28082231
51.25119093
53.06100749
47.92897728
49.54073791
49.5527166
49.44329958
49.50281455
47.89142291
45.27565305
45.24054094
46.49330198
43.17388382
44.14227435
44.17271792
44.03235768
44.08999508
43.11153686
41.58210033
41.54173478
42.3099389
40.25799906
40.86133888
40.90206032
40.77552424
40.82920197
40.22926679
39.27874037
39.24879324
39.72293686
38.44903715
38.82691026
38.85365995
38.75643068
38.79372535
38.41866589
57.48762475
57.56274459
56.25179932
57.93966977
57.92572725
57.79754912
50.94475261
51.0689686
52.79515655
47.85665281
49.4043513
49.30102115
49.53733374
49.48036511
47.90939185
45.22320701
45.26051315
46.48078435
43.22550168
44.18185576
44.15712526
44.19233954
44.20188837
43.24087548
41.61813708
41.62648122
42.37853645
40.35846068
40.95573525
40.94944322
40.92139817
40.94115709
40.33828164
39.35754282
39.34093378
39.82101405
38.53919013
38.91795821
38.93601729
38.87991446
38.9005928
38.5219296
50.98449883
50.94190072
55.14629161
55.65076715
54.8211933
53.37788856
54.8208163
54.37110755
55.65278374
55.2511024
53.74327715
50.01837795
50.30497654
51.84356172
47.40953693
48.80477298
48.56923966
49.17626718
49.01073711
47.56466848
44.90451252
45.00674348
46.14663763
43.08844732
43.99224306
43.91191402
44.11689289
44.06140546
43.14125271
41.52507876
41.560141
42.28115635
40.34020262
40.91611881
40.89158558
40.94635977
40.93472989
40.35108969
39.36271928
39.36505297
39.82535582
38.57917738
38.95436711
38.95458161
38.94376418
38.95048596
38.57483811
50.98331236
50.99983966
53.18578368
53.65931252
53.16045975
51.71319581
52.96316429
52.48696284
53.90885973
53.43840467
52.14890248
48.69690237
49.04137978
50.38268233
46.5503725
47.74766259
47.45505913
48.31047902
48.03464865
46.78775634
44.31620563
44.47817011
45.46316283
42.77997141
43.58698806
43.45787518
43.82038015
43.7090774
42.87387498
41.33548742
41.39149314
42.04992923
40.26177297
40.79733132
40.75831246
40.86267676
40.83011773
40.28361265
39.33545522
39.34486188
39.78034742
38.57279185
38.94419642
38.93657305
38.95339619
38.95042319
38.57804839
50.67700005
50.8102666
51.41278544
51.83801585
51.70271321
49.98120291
51.09065036
50.64947173
52.01377116
51.54704342
50.40197531
47.37115768
47.68504911
48.83212688
45.58586482
46.59357696
46.32680102
47.16199013
46.87330394
45.82034175
43.67556197
43.82790401
44.66616586
42.36751382
43.063936
42.94070995
43.3254413
43.19311243
42.47013783
41.09768896
41.15503203
41.73279941
40.1430234
40.62814445
40.58255567
40.71580884
40.67222592
40.17774559
39.24304422
39.27313026
39.69250292
38.51736216
38.88208053
38.85526147
38.92323331
38.90494092
38.53800925
49.76831485
50.04029804
49.86399568
50.22736756
50.25849134
48.50616311
49.45832474
49.11932375
50.22731866
49.82978277
48.83653713
46.33378738
46.55596577
47.52574476
44.78557457
45.63707474
45.45082827
46.07646971
45.84544251
44.95998677
43.18447687
43.28769759
44.00377476
42.01746253
42.62851103
42.53833199
42.82544874
42.72134285
42.09656421
40.8568232
40.92022626
41.44933954
39.96618159
40.42682008
40.37004902
40.53358488
40.48148913
40.01499182
39.09074761
39.13274866
39.53563022
38.40241426
38.75550672
38.7171286
38.82492499
38.79155219
38.43549778
48.5076368
48.85338166
48.60561581
48.89808231
48.95419636
47.492426
48.28162964
48.03525528
48.80810887
48.5336969
47.70730585
45.65816835
45.81618706
46.65498201
44.24999183
45.00924168
44.87060675
45.29465457
45.15037487
44.37506193
42.78306769
42.8822222
43.5417395
41.6946542
42.26775369
42.17819149
42.44804482
42.35777148
41.77588901
40.59182338
40.65918581
41.15951042
39.75199685
40.19086296
40.12917824
40.31157019
40.25174408
39.80770556
38.90537107
38.95380496
39.3403016
38.25012982
38.59087574
38.54585874
38.67672831
38.63455064
38.29082081
47.16420334
47.49259867
47.5022361
47.7695112
47.73461831
46.67265806
47.32335333
47.0945313
47.79353207
47.55629477
46.87229621
45.05228995
45.20012247
45.94584755
43.76941306
44.46856059
44.3387584
44.73436164
44.60038672
43.88667108
42.39774287
42.4922453
43.11025281
41.37195657
41.91368029
41.82725228
42.08924168
42.00103564
41.45199116
40.32041569
40.38825899
40.8643535
39.52126655
39.94128707
39.87824377
40.06690162
40.00421773
39.5797605
38.70297603
38.75457261
39.12625497
38.07541639
38.40476494
38.35617308
38.49974828
38.45264244
38.12057848
45.89604057
46.20637176
46.48261353
46.73059313
46.59866693
45.90598643
46.43110627
46.21712785
46.86965949
46.64855328
46.09311724
44.48223519
44.62173619
45.28185711
43.3174325
43.96037233
43.83763397
44.21085952
44.08474893
43.42805187
42.03213413
42.12172891
42.70314212
41.0586685
41.57391941
41.49150907
41.74179946
41.65734375
41.13584077
40.051892
40.11844222
40.57418342
39.28548858
39.68948614
39.62698134
39.81519951
39.75224646
39.34449395
38.49310305
38.54590888
38.90478962
37.88813214
38.20748494
38.15724398
38.30704726
38.25742771
37.93570672
44.6969794
44.99068083
45.53060065
45.76305066
45.53236755
45.18438029
45.59445608
45.39284797
46.00645891
45.79894635
45.3609795
43.94217306
44.07464625
44.65564845
42.88864816
43.47853608
43.36167911
43.71645666
43.59677564
42.99392477
41.68450063
41.76990361
42.31700648
40.75820834
41.2500945
41.17145143
41.41008789
41.32962684
40.83209625
39.79076346
39.8552346
40.2936594
39.0510517
39.4415155
39.38050691
39.56478707
39.50295159
39.1093128
38.28159279
38.33440316
38.68244919
37.69497976
38.00566538
37.95503109
38.10683198
38.05626912
37.74352992
43.55890921
43.83825751
44.63330143
44.8531245
44.52309208
44.50047967
44.80403819
44.61274921
45.19399488
44.9977818
44.66829454
43.42738406
43.55394242
44.06101271
42.47890754
43.01882327
42.90695271
43.2461442
43.13187877
42.57973928
41.35167771
41.43364257
41.94788876
40.47030751
40.94044213
40.86497038
41.09365384
41.0166644
40.54119462
39.53847487
39.60071128
40.02382998
38.82130501
39.20019809
39.14103837
39.31994305
39.25983866
38.87820417
38.07195505
38.12406148
38.46295558
37.50031722
37.80354188
37.75328799
37.90445224
37.85393294
37.54894274
42.47288128
42.74009776
43.78505989
43.99256432
43.55973281
43.84795405
44.05135885
43.86808128
44.4237041
44.23656344
44.00848899
42.93376128
43.05539115
43.49265502
42.08528165
42.5778678
42.47020252
42.79619987
42.68651867
42.18231823
41.0311931
41.11026692
41.59297967
40.19337671
40.64268093
40.56987509
40.79020408
40.71611538
40.2616743
39.29483197
39.35497314
39.76395389
38.59768464
38.96637061
38.90907234
39.0823487
39.02412697
38.65298836
37.8661341
37.91717262
38.24822158
37.30685136
37.60367721
37.55423849
37.70322096
37.65333443
37.35499198
41.42870692
41.68653538
42.97844036
43.17695882
42.6330351
43.22100351
43.32935108
43.15326284
43.68668946
43.50713918
43.37559082
42.45768536
42.57524188
42.94592343
41.70533175
42.15268296
42.04853123
42.36347572
42.25764762
41.79915795
40.72118862
40.79780012
41.25014897
39.92582718
40.35497609
40.28444101
40.49766939
40.42604242
39.99191146
39.05902768
39.11729711
39.51282626
38.38047185
38.73982334
38.68425494
38.8522202
38.79580618
38.43418354
37.66498927
37.71482142
38.03896594
37.11613107
37.40743516
37.35901503
37.50505268
37.45610764
37.16348806
40.41891737
40.66817812
42.20249628
42.393926
41.7399835
42.61555591
42.6346522
42.46469878
42.97882078
42.80597633
42.76507073
41.99621948
42.11035683
42.41708861
41.33693663
41.74069217
41.63949969
41.94517681
41.84257369
41.42805457
40.42016168
40.49465427
40.91760038
39.66634592
40.07587956
40.00730763
40.21442912
40.14491375
39.73052163
38.8301993
38.88679974
39.26931582
38.1694141
38.51997514
38.46598694
38.62909999
38.57434256
38.22162316
37.46877984
37.51737192
37.83526018
36.92895288
37.21542238
37.16810663
37.31087933
37.26300806
36.97537846
39.44452011
39.68474617
41.44943893
41.63574625
40.87544741
42.02802955
41.96549299
41.80203933
42.29666771
42.13032427
42.17341798
41.54693433
41.65823255
41.9032875
40.97826512
41.3397429
41.24100601
41.5389627
41.43905233
41.0671153
40.12675576
40.19946151
40.59376629
39.41383346
39.80417123
39.73726739
39.93917607
39.87146848
39.47636573
38.60751446
38.66265266
39.03244607
37.96407344
38.30617929
38.25359964
38.4123641
38.35909732
38.01490175
37.27742037
37.32481795
37.63688598
36.74566906
37.027824
36.98160751
37.12107316
37.07430747
36.79110882
38.50476885
38.73660741
40.71695554
40.89816945
40.03542057
41.45618518
41.31899493
41.1601984
41.63984497
41.47886578
41.59773586
41.10778186
41.21671074
41.40207289
40.62767393
40.94794959
40.85124559
41.14280137
41.0451271
40.71464203
39.83975497
39.91096298
40.27721353
39.16728742
39.53873304
39.47323968
39.67072924
39.60455767
39.22841306
38.39020822
38.44406772
38.80131964
37.76392471
38.09777105
38.04644147
38.20133882
38.1494003
37.81350272
37.09066479
37.13693747
37.4434687
36.56634312
36.84456511
36.79940921
36.93565956
36.8899772
36.61079602
37.59713384
37.82111927
40.00259218
40.17963336
39.21982657
40.89856288
40.68951335
40.53417189
41.00237359
40.8455772
41.03662026
40.67714067
40.78408899
40.91171123
40.28377505
40.56375222
40.46873022
40.75499047
40.65916562
40.369192
39.55810883
39.62807152
39.96671531
38.92583736
39.27859502
39.21428632
39.40806015
39.34318208
38.98576778
38.17760186
38.23034867
38.57515469
37.56846006
37.89414417
37.8439176
37.99539873
37.94463499
37.61691622
36.90821112
36.9534406
37.25460698
36.39090929
36.66546859
36.62131557
36.75451275
36.70986346
36.43440388
36.71966329
36.93620332
39.30432199
39.47743198
38.42800447
40.35513714
40.07270851
39.92039497
40.37959152
40.22575929
40.48983736
40.25357973
40.35885646
40.43029127
39.94537871
40.18582619
40.09220556
40.37408044
40.27977633
40.02951297
39.28090624
39.3498295
39.66120388
38.68870166
39.02289439
38.95958265
39.1502409
39.08644126
38.74761668
37.96907256
38.02085091
38.35324004
37.37717521
37.69472193
37.64546738
37.79394358
37.74420951
37.42462892
36.7297161
36.77398585
37.06987505
36.21920608
36.49028157
36.44706696
36.57740528
36.5337225
36.26178499
35.87043357
36.07996857
38.62174392
38.79093708
37.65779288
39.8227674
39.46774888
39.31817641
39.76886081
39.61796818
39.95496449
39.83628424
39.9400466
39.95724696
39.61160915
39.81321686
39.72082046
39.99890313
39.9059101
39.69465601