/*--------------------------------*- C++ -*----------------------------------*\
| =========                 |                                                 |
| \\      /  F ield         | OpenFOAM: The Open Source CFD Toolbox           |
|  \\    /   O peration     | Version:  v2012                                 |
|   \\  /    A nd           | Website:  www.openfoam.com                      |
|    \\/     M anipulation  |                                                 |
\*---------------------------------------------------------------------------*/
FoamFile
{
    version     2.0;
    format      ascii;
    class       volScalarField;
    location    "2.82";
    object      k;
}
// * * * * * * * * * * * * * * * * * * * * * * * * * * * * * * * * * * * * * //

dimensions      [0 2 -2 0 0 0 0];


internalField   nonuniform List<scalar> 
3259
(
37.00843917
37.00629542
36.99677793
36.98275011
36.97118661
36.96303964
36.95864217
36.95612374
36.90999243
36.90910749
36.90868372
36.90842197
37.04513244
37.03868148
37.00758212
36.94520049
36.88594994
36.84476542
36.7987121
36.78403488
36.73206397
36.72930729
36.72797285
36.72725685
37.12692979
37.11548445
37.05880169
36.95696374
36.83424873
36.73871589
36.65531194
36.62149877
36.55996919
36.55316359
36.55002603
36.54876755
37.30767961
37.28806989
37.19493509
37.03677871
36.8554797
36.68793069
36.54284677
36.47621292
36.39445536
36.38166976
36.37545706
36.3730573
37.69884365
37.66126782
37.49228511
37.22685232
36.94815768
36.70612092
36.47722622
36.35399706
36.23973313
36.21482452
36.20362897
36.19930118
38.60058878
38.49013353
38.06726038
37.59103899
37.14088226
36.77905507
36.4654078
36.26061646
36.09721048
36.05278343
36.03387203
36.02651177
40.58626664
40.45420413
39.11344199
38.1824143
37.45027609
36.91489279
36.48888148
36.20060873
35.9664324
35.89614568
35.86609225
35.85446245
43.48771717
40.78929741
39.02051038
37.87070686
37.10769943
36.54280708
36.16985943
35.85066482
35.74673381
35.70157054
35.68431753
48.61816163
42.82486686
40.01644643
38.37074106
37.34166506
36.61891305
36.16236307
35.7504466
35.60677643
35.54336361
35.51921366
52.07855472
44.6635548
40.99616151
38.87394329
37.58714358
36.70887449
36.1700797
35.6674259
35.4803323
35.39573215
35.36343454
53.74557627
46.01724902
41.8005696
39.31418525
37.81813772
36.80133467
36.18550455
35.6005871
35.36930274
35.26275791
35.22141198
54.45552591
46.8777768
42.37709009
39.65702948
38.01610638
36.88694187
36.20316494
35.5505108
35.27506913
35.14634564
35.09561829
49.24992711
43.90796818
53.05280338
49.71913587
54.75480367
53.36167908
55.42430586
54.86565791
55.46405056
40.5581296
43.39300844
40.32901267
53.99894517
45.89024263
48.05656629
43.31402334
41.42833743
57.03828007
60.00641412
51.76543835
45.59612111
43.92564098
55.03507477
54.63538544
53.6114738
47.24387799
46.06520156
56.77300076
55.71308552
40.60861046
57.9303764
57.61295363
59.98085243
54.36992024
46.96283077
53.14604103
58.5257902
54.75934224
56.76404476
51.59555721
58.08236648
56.62218532
58.70539116
58.23269156
51.33871281
55.5144785
55.12980573
54.29525072
57.12281061
57.38753007
56.54656432
57.07728875
54.1079639
57.546572
56.89317068
43.51967133
45.47090476
57.97082183
40.14952951
68.87496492
49.99601851
57.94162654
54.41475457
48.28345957
47.54703189
68.13500787
47.53533959
45.77535842
45.41960754
52.03590671
46.28387521
45.28415191
41.80661847
55.22154881
57.72771612
57.88231135
57.42528408
57.69713606
55.15411008
42.41146624
45.25101894
42.37138592
42.42185501
74.9279597
50.56417605
68.44375189
48.63572153
63.82426349
49.58900461
59.14133167
59.33344636
54.73488941
54.71237142
41.61017114
52.04044042
56.35499989
42.41408147
41.49404611
55.20304769
43.15150389
56.21132057
51.03949234
48.54377729
59.95938049
58.17270489
57.76447391
55.88155003
56.05372481
57.3886398
56.06877307
55.47880714
56.62239624
56.22622878
57.2752461
59.14676903
54.09070944
52.98096984
55.24828439
54.41203569
59.09931453
55.73456316
56.20010108
55.65180515
41.61221367
44.41926141
57.22091021
41.41253279
41.38886537
69.51950958
51.76758753
68.73520899
40.55209512
42.12797994
57.85514118
43.28715664
50.49390758
44.27469942
48.68058574
44.10746519
44.40170256
58.03770252
61.70268369
59.89319346
59.89695245
54.81692046
44.65453243
44.49079471
50.61676509
50.14512816
54.43524974
59.48052111
63.9356361
62.17598847
55.94254385
50.65315525
49.01902646
52.56027833
51.1637834
56.33741307
55.18980498
51.1489826
50.87856945
56.26280461
44.541898
44.52301227
55.33183941
57.24207878
57.24010779
57.18818304
56.45741507
56.96819021
56.72224514
57.16223092
57.02523711
56.46460628
57.30569963
45.07365769
49.92676085
60.37400068
60.76205384
60.20120468
59.4244948
57.6631703
57.38124653
39.86759894
40.28389777
68.67660541
64.64011954
51.27492213
65.07250934
49.6918508
42.97599303
43.06461192
56.17961254
64.36952484
75.33528871
59.38281081
54.94798631
64.01503914
60.32167824
54.09280945
50.42993532
57.27967128
56.95210816
56.52402744
58.40474136
59.7678187
59.42151272
57.63178993
46.1964941
44.99454029
54.76013362
51.77479763
50.95193518
46.50447594
51.10949666
50.57228178
54.47856718
50.1258422
46.70484318
43.5431714
44.74003303
41.6012754
49.92876996
48.72025466
47.23232719
46.29226148
44.83693136
48.24011423
46.87400438
45.7315128
47.07160412
40.09567362
39.8650156
64.24230664
63.34759917
59.19032236
65.13344648
66.55425787
65.69807319
66.01986385
65.19253355
67.02085264
65.77599416
56.36011933
63.26017328
64.40720737
51.71414989
51.18938896
55.35584414
56.26330043
53.19677858
51.98434107
43.29318955
43.26207635
44.44325217
43.49290741
55.98591643
44.24675963
45.61510839
43.28261847
43.79446894
64.342833
41.0540363
62.97406816
55.14565884
62.48925966
41.03582267
69.63369758
43.0116994
40.84348027
39.38772144
67.58758312
67.02200413
48.45575395
67.98837017
57.89302269
58.00752287
55.59919871
47.12104971
46.17463621
50.70483064
58.04251876
46.80642587
47.09993415
41.79080673
42.17560564
44.89979708
52.4276046
56.99397887
60.21007482
41.57253757
40.37803435
44.2266298
50.74582266
52.76106733
57.78781478
61.17022371
63.04857346
55.91812996
56.03269564
48.87888499
70.79665869
62.54918117
42.03962464
69.59116088
57.28622075
46.32516086
49.14216361
67.07979451
40.40338683
40.1099366
48.02318061
48.45006988
46.68607858
49.19105168
43.62661599
41.9423378
40.57013586
43.65204071
44.06342581
47.72406753
70.91784723
64.69955426
61.52362693
74.28634746
71.00178476
41.92453696
48.40578141
46.56277881
59.79642993
58.8414928
47.67959439
51.36916283
50.33444597
41.48130264
55.97172411
43.23492125
43.95489548
53.58866044
42.31597348
43.79667033
55.06857538
54.43110908
44.71455023
45.48001461
55.72910192
54.14471011
54.46721683
55.41137277
44.5840104
45.60878842
69.59816898
67.08959327
66.07377343
51.45108446
49.09655743
41.43277369
59.3735616
62.04889734
64.72226271
45.34183327
65.33177568
57.34749956
65.80227807
64.03722843
47.66765048
45.67301992
46.61217451
52.65059437
54.65532464
55.10078686
53.94794831
54.25555297
61.14624631
60.7501679
61.14628106
59.86161668
60.25632341
60.5172046
50.67763443
46.90844011
47.24405754
46.40685893
46.62489665
50.9375809
63.14755325
62.26727722
62.35847192
61.60080398
61.95263217
62.63646447
50.81958083
48.29368536
48.68098602
47.58011688
47.9346261
50.84462308
53.35506008
53.33008165
52.57350767
52.65560686
72.23256572
72.83230474
69.72881831
53.35930121
72.49515241
65.7146079
73.05410869
66.2482341
69.30311844
63.98056269
53.90156393
71.12379023
65.00243099
58.42374057
57.75095092
68.76637786
52.38969255
58.8817737
61.28047669
63.92213446
65.76555101
62.67256861
69.74133644
65.2411062
70.40155327
62.5919123
66.21492962
69.55378901
71.57254037
70.78934751
56.38654989
57.06304737
57.41054046
55.94614164
56.12477326
55.913358
58.72725745
58.9633128
59.34629421
58.04509537
58.39719129
58.23047257
45.78184815
46.85724894
46.86599205
51.40708721
51.23833348
48.44161599
52.43695689
52.32965596
51.33245061
50.75615394
51.51371386
48.39707944
46.45515199
46.33187122
46.81489461
46.65655139
47.2350617
59.3261117
53.03513461
42.4980251
61.49784658
61.28876961
60.81516751
46.00309977
59.30742067
58.41953302
42.44818255
42.72772658
50.81430394
63.99163184
62.38397096
62.36375182
62.3290963
62.3611214
63.67370428
65.56370458
65.96684789
65.94104852
69.81613259
69.55893764
69.98576856
69.95754359
65.7686906
67.39940602
68.9860643
70.67277982
67.59322502
51.63917498
49.87462725
50.29787195
49.05720258
49.46628381
51.25508012
52.55612521
51.51050525
51.92207987
50.72505279
51.13517474
52.3941869
54.30849211
53.96230359
55.52917663
46.78402172
49.86955136
44.59015387
53.31031835
53.91158767
52.63542269
53.0217419
45.13096994
43.33490194
49.24796505
46.52716255
52.91240071
53.22579851
43.55661728
61.52128947
45.56640262
47.14994281
42.54647432
43.99828387
62.62605936
61.12601957
60.17344132
49.16468182
54.2341686
63.30255161
68.15180824
37.09677218
37.04282175
37.10000394
37.09598701
37.04277297
37.09026209
37.05627195
37.01989062
37.04043209
36.97378639
36.96381454
36.94895021
36.86449441
36.89977364
36.84017781
36.77641567
36.85379628
37.24283151
37.12314593
37.24977869
37.24501099
37.12220583
37.23441448
37.17485613
37.07707752
37.14837909
37.04689464
36.98490211
37.00818536
36.88554989
36.86478724
36.84501925
36.72764693
36.75754533
37.56142719
37.3003415
37.57647188
37.57450634
37.30009259
37.55298735
37.43913302
37.22633024
37.39507904
37.22878115
37.08000549
37.16614709
36.97688086
36.9008368
36.91631734
36.74932499
36.7281483
38.27499682
37.68053832
38.30205726
38.29423723
37.67956851
38.21577907
37.97657684
37.55018648
37.88692137
37.58437617
37.29778691
37.479704
37.17640456
37.01563286
37.08241269
36.83109436
36.76344441
40.21884393
38.53980653
40.25155265
40.02291198
38.50973397
39.64672541
39.01889304
38.18415083
38.80046854
38.19379467
37.7117011
38.00913381
37.50862737
37.24668888
37.36161745
36.98212785
36.86153558
41.88204512
41.88982149
40.60139077
41.28993786
40.58981962
40.08794442
40.31892784
39.10810724
38.39592348
38.78533955
37.98143974
37.61483938
37.75818501
37.20394078
37.03157746
45.48650589
44.01067939
42.58826053
42.3209649
40.25596065
39.38553616
39.748961
38.556694
38.11720881
38.24073314
37.48041066
37.2696487
50.17286513
47.31130288
46.10687091
44.25287377
41.425003
40.56666752
40.7389293
39.15996822
38.71284353
38.74956198
37.7777643
37.55485966
52.87062781
49.65595492
48.91064482
45.73969168
42.42197611
41.71282901
41.60210379
39.69932025
39.31004809
39.21068842
38.05874148
37.85033727
54.10519128
50.98741201
50.61616897
46.72582155
43.14159755
42.6408724
42.2408665
40.12970634
39.8274461
39.58121579
38.29865183
38.12227012
54.61664526
52.15288262
52.01418754
43.29155895
40.21640911
38.34977166
48.42162314
50.05398831
51.33808715
44.24338104
45.216683
44.67911516
52.70135772
54.9977459
55.45143151
51.73333378
52.79542776
50.49810347
54.61257227
56.39171013
56.59311978
55.56705452
55.88922551
53.64212522
55.3557259
56.38141762
56.42310299
56.14216644
56.20044754
54.97592912
56.45050299
56.49025037
55.51991568
56.23971989
55.99150145
57.94066309
41.92454512
58.58572201
55.68105739
42.73316465
42.92227588
43.65545707
40.49544691
41.81703214
41.50374974
53.3619073
54.2720975
54.97062878
46.77885551
47.78345265
47.01496239
45.74570062
44.35601356
46.11148873
42.67814444
43.75766746
44.52049977
42.2259886
42.98662978
42.04970185
57.34534953
55.0886048
54.59057596
60.8221728
60.64784497
59.99914458
48.62284259
47.64679379
50.60824395
45.07277937
46.57876821
47.16388945
45.251406
45.94183434
44.52097128
54.94801121
52.56543553
52.79103635
51.18914118
51.01638408
54.53285784
50.42950302
49.88725165
53.07943075
46.88751783
48.57118455
48.93553026
47.68759678
48.15726843
46.50412759
56.63638737
54.19707774
54.59180364
49.53838654
50.66015141
55.88637738
39.64304015
39.77210081
41.3539497
57.82073801
53.33755651
54.73755388
56.71826793
56.88264932
57.67867545
59.88592539
61.11045906
61.0240534
55.63570946
56.32016756
54.95356703
48.12339736
49.58441487
47.8342161
53.76432287
52.03022079
51.28443304
55.75829123
55.24885581
57.74579742
54.89160345
51.58906657
51.38063894
54.17638463
53.7134274
56.52314821
54.19197166
54.82848994
52.02973225
57.71892755
57.98189606
57.94328781
58.22765007
58.23726349
56.86468121
59.0550391
56.60550401
56.19357797
57.89638738
57.76766243
58.68083142
50.67047253
53.10529142
53.9574363
55.30661569
47.76177276
49.13855379
52.94869864
53.06845695
55.1966893
56.23092859
56.36397322
54.46963456
57.16129226
58.0467278
58.06846716
57.26431531
57.24555225
57.27458508
56.41619346
58.19165681
58.21198062
58.09405576
58.11357468
56.5248825
53.88564918
55.9658472
56.18333147
57.46985072
56.35214392
56.54393525
54.84807516
55.14719982
57.01748558
55.14227648
39.56791486
51.54597715
56.71340894
53.20060307
51.85630979
51.15863209
54.18080458
48.06236535
49.7707307
49.97971745
49.252208
49.52940318
47.82910838
46.55552815
40.12629401
40.5585286
42.56777731
42.93728457
46.39920883
48.07571349
46.08560152
44.48618924
50.45378554
49.69788789
51.25928599
45.40711114
46.05256249
47.59250591
44.70764536
41.66553664
42.02583371
40.72011
40.70306
42.10024253
56.31744564
56.35661622
55.30596796
57.81529436
57.47366835
57.21473388
57.47700362
57.47425242
57.82695608
57.54584236
57.25008362
57.26214319
57.22601784
57.24577121
57.58530523
55.05997408
56.23974755
56.28523531
43.62039093
44.56702048
44.90777366
45.49883021
42.3304383
43.49429968
43.20493615
43.79548695
43.63542955
42.34185558
52.59636185
56.02459878
52.00879071
54.99389082
49.82690358
47.6607493
59.93001975
58.07446722
63.17977508
48.00849484
49.89573607
51.90472042
58.60230659
58.37439664
58.95835477
59.47948294
59.25118482
59.04763176
51.99593214
52.01031302
54.73801255
54.65739047
51.70536823
51.92281947
53.37752016
53.82961404
56.50053549
42.03839485
41.94857985
41.85824783
43.96796617
43.57877254
41.43702351
41.84087252
41.89757569
44.03562023
56.07329839
51.06010529
51.53924072
50.2534701
44.54769035
45.5851393
40.9375672
41.68518555
49.40723546
60.12764379
60.40589772
58.53385411
57.32419328
59.29482696
59.76018367
52.93462468
52.70957681
55.70417981
56.18645378
53.25331627
53.1292399
58.22353026
58.19555809
57.63790152
55.88742452
57.19742847
57.32256383
56.85386853
57.05089428
55.69637233
56.50133831
57.61110451
57.68294516
57.43210887
57.52895064
56.37519067
56.96811198
58.24195229
58.24209497
57.25878557
56.93564847
59.12611451
53.74596004
55.19842511
55.53669102
54.39977954
54.81097523
53.37491747
54.98838871
56.40719149
56.65602026
55.86676916
56.13710315
54.71482103
58.81568025
57.74370084
57.48802425
46.05433111
47.24687377
56.19076427
55.57460671
53.66664934
53.80677942
42.50097106
51.08338476
51.63261627
52.38510001
51.80657215
42.94609057
57.116705
55.42635051
55.68596249
41.23177419
40.97764659
40.82049308
45.15687804
43.77557579
41.21416231
46.62419275
40.95157093
47.28388315
45.18372959
44.36406166
45.73369502
45.92808517
45.29707797
44.06209957
49.12306756
45.84858675
47.15738263
47.75162346
49.73936165
44.37290942
45.56229295
45.16308236
46.00607704
45.83411844
44.47079229
56.26343234
55.59641687
57.67224257
59.95824029
60.36189513
60.16799645
52.13894567
52.33782129
54.85684594
44.46381546
47.21981853
46.9579591
48.14213589
47.64619958
44.42627942
54.45492299
50.88867499
50.86480788
61.05352639
61.13281342
59.72269338
53.46970334
52.7360863
54.85147398
50.12496358
51.21207977
51.8201022
49.93560759
50.59268933
49.58123312
52.11852576
53.46612012
53.94855696
52.39914
52.949418
51.65093482
57.41483103
54.70738386
54.10699395
52.02278045
51.80373175
55.0395005
56.33614447
53.39944537
53.113117
44.54770796
48.78399817
48.52678477
49.185058
48.9920694
44.51889059
55.27129064
53.15590194
53.24996457
58.00831431
58.02480787
57.19610215
57.22715876
57.97912802
57.974408
57.9779105
57.98062364
57.21268511
58.15213223
58.17297171
56.41717648
56.89391511
57.83973604
57.87675305
57.74394517
57.79615758
56.81821258
57.12234487
57.95422784
57.96862265
57.90836307
57.93416484
57.08211448
56.49587654
58.11946195
58.13929646
55.92462512
56.15080296
57.39531903
46.20674423
53.43795279
53.01161752
54.35825292
53.91525004
49.06844521
54.91068255
58.59920414
66.25869777
39.98110011
41.18407504
40.63354639
43.14236792
41.90078811
40.09147397
54.22821543
47.01376909
41.22569402
41.72534407
40.71079899
40.91659319
44.85010312
42.69997032
40.73885983
40.82912526
57.59812906
60.84853198
63.1834882
57.59942429
59.8527337
56.72067192
64.3676434
66.21351862
61.90190678
52.47244831
54.56045161
56.51803223
51.83042481
53.30486358
51.68852787
59.3534369
55.67254036
54.33316063
58.71646248
57.74606121
57.06570788
59.83129757
59.63573939
59.64707596
46.8720229
46.85843411
45.34166561
54.75192579
52.01324758
52.05332028
51.02514662
51.35273897
54.56836438
42.30481919
42.13058536
41.81428675
49.57710009
45.46501597
45.9527438
44.38764302
44.90017976
49.11357348
45.79397068
42.56038605
42.71275433
42.50416506
42.49501461
45.23240613
47.82994454
43.51575048
43.88677149
42.96002769
43.18827538
47.28351854
44.90620657
42.04585487
42.21835746
40.75538432
41.40725478
50.10756846
40.01127681
39.86750769
39.75854828
40.25816419
40.00480344
39.88637861
58.87398261
60.66601408
60.86208556
58.15288746
58.7526567
56.8423955
63.91161524
61.39209027
60.78519351
62.25014919
61.89916289
64.36971417
55.52493732
52.48163751
52.24963589
53.14326187
53.25002429
56.26217432
43.23546614
44.04231443
43.52813344
45.36752665
44.7198778
43.22759907
44.13913513
42.74748391
42.61238836
43.14185188
42.93120246
43.77864338
41.42358331
41.16113826
41.09828457
41.09547334
42.53313982
41.82975363
42.31819653
41.45281901
41.56442808
40.29981198
40.78490014
41.48909233
39.68989119
40.20935259
39.81958789
50.15500182
50.31196673
48.61982176
57.95656422
57.48741895
57.48176938
57.51883077
57.49813073
57.96571971
46.99289647
48.49351034
48.933149
47.17306
47.81974218
46.99958664
57.54119458
49.65283997
49.71594302
50.91093043
54.87545777
64.60177469
46.93975026
48.50784695
47.99631101
49.19249111
49.04696681
47.00725991
42.93773299
42.67688067
42.09569191
44.16404577
43.2480644
43.38221405
52.96872394
53.61148471
53.0303909
58.17150497
55.64447118
54.74939162
57.39144188
56.4738608
59.13889982
41.13178495
39.72402096
39.82605657
39.68426463
39.68448482
40.67388861
42.46535134
39.94381971
40.27617436
51.44999099
55.10775405
54.74636132
55.72945898
55.42775952
52.13025538
62.02189954
58.99721374
58.17897531
60.25487441
59.59501443
62.46945964
55.3613138
56.93589604
57.56289868
40.04195269
40.23585739
40.66437365
40.53049651
41.17089762
40.99312044
40.15699843
46.78150202
43.73252795
43.50609704
47.86242805
48.6010135
49.27365236
50.04677896
48.79063833
48.06136624
41.03068755
41.28123153
44.15684282
41.29146351
40.44761346
40.57432589
40.4488198
40.42754876
40.86332918
43.74718106
44.13453816
44.05810968
44.636312
44.50513709
43.87663753
46.39214656
45.18009161
45.88885391
51.02902375
47.64468458
48.0027146
46.5371513
47.01023283
50.6579954
41.41286966
43.00028107
42.68703402
53.36204715
53.50027741
55.48088544
44.76757432
49.78604506
49.44881366
50.61590574
50.22866546
45.15356602
45.8996851
46.91338478
46.49784851
47.51359814
47.28370066
46.29596021
51.11477795
48.45069995
49.48717815
37.02683647
37.02571172
37.00801894
37.0208315
37.01234184
37.00333289
36.99719741
36.97609551
36.98904729
36.95247375
36.9327608
36.97657668
36.9161784
36.902871
36.96672346
36.89318732
36.88409512
36.96058938
36.87756046
36.87300194
36.95723373
37.05990998
37.06062854
37.04556925
37.05263862
37.04622944
37.03429634
37.01583593
37.00165043
36.99833969
36.94336831
36.92049661
36.92974771
36.86693905
36.85074378
36.87453043
36.76192992
36.74084803
36.80874996
36.72411901
36.71145677
36.79038704
36.70259212
36.69805381
36.77965353
37.16025548
37.16187669
37.12818485
37.14760396
37.13548383
37.10529074
37.08202159
37.05744815
37.03664772
36.96905678
36.93537818
36.9259729
36.83478229
36.80052994
36.80520883
36.6945704
36.63092191
36.68122119
36.59390508
36.5671052
36.63609752
36.54807574
36.53700506
36.6112895
37.38190913
37.38562792
37.31027646
37.36371115
37.33903097
37.27358845
37.24876845
37.20990512
37.15966196
37.07225864
37.02215957
36.99184241
36.87023868
36.8218673
36.81102256
36.69800679
36.57309123
36.59563599
36.50296798
36.4505441
36.50475864
36.41361298
36.39040135
36.45598268
37.86483929
37.87262538
37.70558527
37.82566785
37.76185921
37.64399475
37.60134454
37.53194528
37.4313323
37.29884113
37.21880755
37.15562949
36.98624577
36.91458529
36.88357371
36.75722553
36.58171534
36.57408369
36.46362357
36.37052136
36.40562467
36.30481117
36.26042596
36.31859864
38.99947734
39.01330781
38.60799639
38.78465678
38.64518861
38.42580772
38.27902044
38.1377011
37.95046321
37.71449137
37.57967881
37.47256026
37.20740009
37.09675902
37.04189609
36.87663249
36.62828075
36.59935158
36.47280361
36.33345168
36.34769113
36.22728039
36.15111705
36.19948364
40.95745422
40.97042603
40.66723737
39.47507622
39.16331897
38.8599403
38.36643442
38.13841795
37.9808995
37.54708459
37.37959368
37.29893572
37.05530936
36.7149045
36.66685066
36.51280521
36.33787324
36.33359845
36.18216627
36.06579516
36.10274269
44.13994768
43.80175116
43.23895394
41.2912591
40.66510491
40.2559999
39.25052242
38.8840099
38.68945269
37.99104769
37.74980873
37.64859037
37.28064051
36.83802387
36.77294227
36.57871915
36.36056862
36.34714823
36.16231683
36.00332486
36.03064003
49.17443765
48.16759205
47.66900132
43.3269046
42.35821822
41.93987338
40.25335761
39.73042413
39.52930581
38.49766782
38.17365119
38.06644271
37.52635829
36.98250884
36.90903308
36.66316976
36.39723548
36.37712663
36.16471797
35.96177558
35.98027214
52.36984225
51.20129067
50.90288448
45.06029642
43.85104262
43.50951156
41.19043401
40.531631
40.36300979
38.9914178
38.59028646
38.48925125
37.76381254
37.13081467
37.05758022
36.75571164
36.44370893
36.41885205
36.17837463
35.93773421
35.94960842
53.88428204
52.79815991
52.64418
46.28995545
44.95336858
44.71425637
41.94446477
41.18651151
41.06211296
39.41234641
38.95117594
38.86467872
37.97088317
37.26914637
37.20199634
36.84594291
36.49365953
36.46757055
36.19666515
35.92676621
35.93331469
54.52463211
53.53053908
53.48034389
47.05307325
45.6748222
45.51016116
42.47597132
41.65042007
41.56782955
39.7144088
39.21476171
39.16412185
37.33098684
36.516099
35.92541134
40.97633528
47.15715908
46.61415552
47.41838767
50.59409727
50.24935146
51.41794861
52.50281607
52.32198632
53.44709327
57.89483166
57.49432538
57.59485903
57.41976939
57.17086208
58.30926873
57.94562167
58.38385411
58.43322989
57.62235419
57.64909
56.69167515
58.84429086
57.80987061
57.60507819
58.50822558
58.56197193
58.38157902
57.96069629
57.96718364
57.35437348
56.49178443
57.56277718
57.5804168
57.67298266
53.39822913
53.33509773
54.33462549
46.18681093
45.62486376
45.15220051
57.77175876
57.94824474
57.93589685
57.91040714
57.91054846
57.86113901
57.46443288
57.94599887
57.95039982
57.93405493
57.9329556
57.65979547
42.2670595
42.68106646
42.71033943
42.76804428
42.76633124
42.40987712
50.91014195
49.19238691
47.92492904
58.01432305
58.07192255
57.48081732
57.17339003
57.89701654
57.95194293
58.54425762
58.45746712
59.16892198
59.02295863
58.66608699
58.61094433
53.96426436
54.04935642
55.80338512
41.81357738
45.04897343
44.60222492
48.14661733
47.64517322
43.92664311
55.30744091
55.0148064
55.53602563
56.70735263
55.87709787
55.54578277
57.51628365
57.51326913
56.44493238
56.47327275
57.52024358
57.51652549
45.49422872
49.09776461
48.58513097
42.79102741
42.29472569
42.44043573
57.91386317
57.91310772
57.91062797
55.55421784
56.51925902
56.5524218
41.91375124
42.50962961
42.36778916
44.53728628
44.13851087
44.23970232
57.73006643
57.02751203
57.17017468
47.25057328
47.90444307
47.27425912
47.3456456
46.43438608
46.62680818
37.07518177
37.05752488
37.10116661
37.07878887
37.07783356
37.07421413
37.07778436
37.10001998
37.04461475
37.05969167
37.05688352
37.08101833
37.06151595
37.06942387
37.04034496
37.05286705
37.07063012
37.0272109
37.03865265
37.0283677
37.02063992
37.00895827
37.02650624
36.96697973
36.98943123
36.99899908
36.97864566
36.98280798
36.96402062
36.92067688
36.91849934
36.94494328
36.87085538
36.89493675
36.89417708
36.91345237
36.90214325
36.88280907
36.81583284
36.83101395
36.85141542
36.79840325
36.81480671
36.79567519
36.86319861
36.83760413
36.82457982
37.19474487
37.15552388
37.25223183
37.20172246
37.20000138
37.19405792
37.19990438
37.25064924
37.12677503
37.16041289
37.15554354
37.217806
37.17250485
37.18500056
37.13601743
37.15664928
37.19805535
37.09324536
37.12099984
37.10274008
37.11773531
37.08438481
37.11211375
37.02064941
37.05405131
37.08392162
37.01242926
37.03043636
37.00022929
36.96758265
36.94905598
36.98591103
36.87446745
36.91215191
36.92679154
36.89646271
36.90201556
36.86777326
36.80498772
36.80157687
36.83810483
36.73273407
36.76552197
36.76606642
36.78051945
36.77037777
36.74334724
37.4547073
37.37155549
37.58186493
37.46988241
37.46563544
37.45481383
37.46666316
37.5806927
37.30799866
37.38413327
37.37803995
37.51359803
37.42352348
37.43907814
37.35960829
37.39674624
37.47666629
37.25332344
37.31196405
37.28251722
37.34429252
37.27160653
37.31744308
37.17028913
37.22256074
37.28851453
37.12137986
37.16699177
37.12066878
37.1023458
37.05947972
37.11576097
36.94546122
37.00224848
37.0391275
36.94654839
36.97152974
36.92037462
36.85804082
36.83753673
36.89044174
36.73825949
36.78705852
36.80249159
36.76883211
36.77590666
36.73145866
38.01692472
37.84437821
38.31355435
38.059463
38.05046
38.00914279
38.04665951
38.31279857
37.69990683
37.87188471
37.86470326
38.11776575
37.96344255
37.99225223
37.81565299
37.89663934
38.05167928
37.60435172
37.71281378
37.6621819
37.78949814
37.64980861
37.73397767
37.47484894
37.56335462
37.68823058
37.36661445
37.45653764
37.37829601
37.37625671
37.29234616
37.38339607
37.11497979
37.20302095
37.2751306
37.08532256
37.13953656
37.06131486
36.99358272
36.95108018
37.03080098
36.80414432
36.8756689
36.90978757
36.82219406
36.84654903
36.78214049
39.42046817
38.95703558
40.26145306
39.50850957
39.51469946
39.29173957
39.42130905
40.14270134
38.57468543
39.00732008
38.95245173
39.42391926
39.10101871
39.24859336
38.6959111
38.88311114
39.23656929
38.30658203
38.53704789
38.4145597
38.5901657
38.34884497
38.51977788
38.01632675
38.18051604
38.38704136
37.83190917
37.99470695
37.85343061
37.83270792
37.70149066
37.85550011
37.41260679
37.55400524
37.6658816
37.35803204
37.44957283
37.32510821
37.22539116
37.15718707
37.27983776
36.93696762
37.04310058
37.09885432
36.94903763
36.99315313
36.89712941
41.88771712
41.45715336
41.42561146
41.36123709
41.41793544
41.93624876
40.65435234
41.0103567
41.00211014
39.86604167
39.49843071
39.87300066
38.85601111
39.16183969
39.46518449
38.62172906
38.87617333
38.61166307
38.49235409
38.31358375
38.5744361
37.85152411
38.07310324
38.22572371
37.79202681
37.92686653
37.72967082
37.55548577
37.46379189
37.64849619
37.14322854
37.29577662
37.37095784
37.15956816
37.22574646
37.0853536
44.93400503
44.34619737
44.75320983
43.45516218
43.89318074
44.39886
41.51599598
41.08860194
41.79963034
39.96804143
40.48694456
40.83775049
39.79288432
40.1285223
39.66236592
39.30375581
39.10420475
39.51185205
38.41193713
38.73926735
38.90941815
38.38943007
38.55572733
38.25909287
37.95817317
37.85531403
38.11821522
37.4092297
37.61980972
37.70557861
37.44910908
37.53294012
37.33785676
49.08193894
48.62986595
49.68072772
46.90940644
47.70569747
48.12243304
46.83091931
47.28377147
46.55715195
43.14686378
42.76136928
43.79645482
41.1588749
41.89584037
42.21785028
41.19928044
41.54686039
40.85360256
40.14407846
39.95631028
40.52035736
39.01759719
39.45782002
39.62256396
39.09706475
39.2704089
38.86161486
38.38537381
38.28211107
38.62755361
37.70509368
37.97584865
38.06271773
37.79550806
37.88536592
37.62973131
51.71717684
51.46201777
52.62870107
49.4330577
50.38870002
50.64571631
49.84350677
50.13770323
49.17258043
44.45589443
44.16326432
45.40555083
42.20661742
43.11214014
43.36231514
42.53988956
42.82887205
41.95206973
40.88334477
40.72986412
41.41949625
39.58088266
40.12050546
40.25285592
39.80341224
39.95483161
39.44358263
38.77711542
38.68522845
39.10437034
37.99125243
38.31589009
38.39473232
38.14957908
38.23570556
37.92344219
53.04082876
52.90646537
53.98626893
45.35957646
45.16437052
46.50516897
43.00896682
44.0145794
44.17430163
43.60413601
43.80419393
42.80945579
41.451154
41.33390668
42.12021294
40.03397477
40.64292711
40.75019824
40.408047
40.51643247
39.92953225
39.09740296
39.02301164
39.49663408
38.24113747
38.6063419
38.67184924
38.46926862
38.54459291
38.18744206
44.33052216
44.47013544
43.41181727
40.85025811
40.92503068
40.28199162
38.73005885
38.77625487
38.39481245
50.49536205
49.64168493
49.17482527
50.38469677
49.96856218
50.92848174
55.16692966
54.03572883
53.85141252
54.36260109
54.20214772
55.30573935
52.10699144
51.08134087
50.70417566
51.71842733
51.38814673
52.46175936
56.42438803
55.65729098
55.61664493
55.69093328
54.64562756
54.50874502
54.8904163
54.77289652
55.78467999
41.3656474
40.9640947
40.9141589
40.47553258
41.69862348
41.20326572
41.24243196
41.00734415
41.08799342
41.59088223
45.24980031
45.88912582
46.37205372
44.89929037
45.40209727
44.89000723
46.81597873
46.0684643
45.49237845
48.31518018
49.21473203
49.54984291
48.50183641
48.87809953
48.00134279
51.04223231
49.89245854
49.49500254
50.27964355
51.25111446
51.44057903
50.85505672
51.07720875
50.07333472
53.2793562
52.14718841
51.93124102
49.90700623
53.04619536
52.87962463
53.42077446
53.25881943
50.33047046
57.2811371
57.40515153
57.85376627
53.84798767
56.24659371
55.99065686
56.67521926
56.46890209
54.3303922
48.61336592
48.01061779
47.46350939
48.84181353
48.34149178
49.11506168
58.04567858
56.95222632
56.66334908
54.42434466
53.25728674
53.02286859
53.6636628
53.44851681
54.62354636
58.26427557
58.30073264
57.81461274
58.01905023
58.28587978
58.3260802
58.24383474
58.27559001
57.97318865
56.78353761
57.69863654
57.7353223
58.12488677
57.96021453
58.96123307
57.85563169
58.15080919
58.20796562
57.97182702
58.07921615
57.80739077