/*--------------------------------*- C++ -*----------------------------------*\
| =========                 |                                                 |
| \\      /  F ield         | OpenFOAM: The Open Source CFD Toolbox           |
|  \\    /   O peration     | Version:  v2012                                 |
|   \\  /    A nd           | Website:  www.openfoam.com                      |
|    \\/     M anipulation  |                                                 |
\*---------------------------------------------------------------------------*/
FoamFile
{
    version     2.0;
    format      ascii;
    class       volScalarField;
    location    "1.32";
    object      omega;
}
// * * * * * * * * * * * * * * * * * * * * * * * * * * * * * * * * * * * * * //

dimensions      [0 0 -1 0 0 0 0];


internalField   nonuniform List<scalar> 
3019
(
31.93071467
31.93156481
31.93247632
31.93330123
31.96666818
31.96717639
31.96756803
31.96832372
31.96984274
31.97257326
31.97681527
31.98206882
31.79389827
31.79639548
31.79903473
31.80140802
31.83539374
31.83715651
31.83924838
31.85835073
31.8652619
31.87782697
31.8975604
31.92236959
31.65857388
31.66298467
31.66756795
31.67129899
31.7058308
31.70918914
31.71394092
31.73721983
31.75382018
31.78346766
31.83008773
31.88660039
31.52473787
31.53065417
31.53675558
31.54190622
31.57741728
31.58326858
31.59309887
31.62506296
31.65966274
31.72480731
31.8250579
31.94557798
31.39304098
31.40056671
31.40837174
31.41499295
31.45148059
31.46068946
31.47792301
31.52388885
31.59569739
31.73118416
31.96661141
32.27973384
31.26254325
31.27143161
31.2806925
31.28914249
31.3282391
31.34303282
31.3730959
31.44107088
31.57014259
31.8572967
32.45750925
33.53972893
31.13408281
31.14465474
31.15590114
31.16657941
31.20783469
31.23011186
31.27824264
31.37896471
31.59590089
32.1712189
33.68040605
38.54869477
31.00746627
31.01947758
31.03251539
31.0458577
31.09133123
31.1230639
31.19388412
31.33150387
31.66958854
32.64066941
35.68306615
51.01395675
30.88376337
30.89777778
30.91347875
30.93035254
30.97978063
31.02277903
31.11929404
31.29557438
31.77130204
33.12852396
37.3386909
60.2929957
30.76288248
30.77842104
30.79661601
30.8174203
30.87363786
30.92900316
31.05232378
31.26794377
31.87644011
33.53699437
38.39879184
67.60019974
30.64653434
30.66446076
30.68580934
30.71176759
30.77251449
30.84136732
30.99127107
31.24804584
31.98369555
33.90123228
39.3727559
76.84205679
30.5335046
30.55313079
30.57727755
30.60857609
30.67589108
30.75907237
30.93457877
31.23517809
32.09308992
34.2614644
40.54020895
88.28137948
59.67959694
66.50732782
75.64454454
86.89161087
49.05033642
38.16711377
57.07030539
53.08527056
39.14873459
63.8329794
57.80409137
71.05012041
206.8127979
181.667566
40.29012429
71.77087091
64.73712388
80.71689916
314.582171
244.767579
72.80995335
90.70743662
503.2270154
394.2691415
139.7395069
169.6365989
89.90028099
134.7178762
178.5564157
158.0187742
63.20962597
209.3193533
227.2307663
175.2699125
205.8761691
241.1482789
210.9461147
72.19096169
274.1828245
321.9744497
229.5568816
270.7072056
389.5971905
318.2229258
82.11618862
394.1007544
502.9167919
325.1326288
389.70485
513.6107502
91.13171895
708.6981905
508.5632544
691.1153581
37.0085774
52.57514579
45.95021621
55.96247413
111.170823
79.01692916
62.57084454
155.537496
134.8031833
131.3174066
114.0321912
57.0938192
1266.880373
191.688363
454.0975927
55.51227214
82.94824696
433.9563628
160.4650243
168.7178908
1082.622873
1266.550125
151.1175665
775.9753954
601.9625977
1256.680107
778.7169555
154.6522103
111.9707684
319.5924752
156.5232872
522.234723
347.1726865
119.2704287
479.124606
766.9854266
212.4442272
1452.635002
213.0980554
188.6612199
1368.687317
1280.506394
1442.469933
1379.884263
192.8230854
295.9592351
299.0520538
247.0836472
249.6268863
427.3025292
434.5955518
356.4209878
360.8602956
171.6805638
549.6796266
554.8155522
92.67371413
176.442625
286.2298193
127.5448171
132.7549174
121.1219576
125.8852002
280.2362748
150.8330914
158.0253276
428.8723307
227.3873291
115.2269001
119.6170104
685.873807
670.1350346
311.8007125
349.6648028
142.2598587
148.6227212
134.5654043
140.2533398
344.9378502
407.3141917
1025.395763
1013.551865
1660.482164
1608.828234
480.0894217
337.2115195
726.8442967
688.5419625
1008.356468
999.4330283
377.1594416
525.6123195
1697.38808
1668.552513
1708.714662
601.774744
1338.680945
1272.610493
294.3383647
319.8281929
1199.292687
1216.331353
756.1120029
258.6585319
282.0927834
232.1431557
251.9751268
747.5718787
837.2994261
324.0608807
357.746759
290.4341512
315.4348273
842.5844645
456.2532688
208.7001131
226.4750933
673.1542512
706.9623864
1505.502435
476.4527293
542.8938126
449.002905
464.9349759
1463.189351
597.5743801
611.1695577
565.1094938
592.7449919
1336.725183
390.2681726
405.3382478
366.5195419
385.011304
1323.782094
1416.324839
429.6001387
443.6384513
410.2844332
424.7832395
1410.38857
949.8204914
957.1559021
919.463824
947.4435665
973.7173032
989.2483924
959.7286247
970.4007724
632.5470922
645.5250169
615.4411462
628.0768592
691.4567973
873.2741337
651.6825253
666.8166289
1041.715636
1032.391836
412.0984672
1686.710416
1692.622894
1648.794007
1675.564907
1742.852761
468.351207
1569.811059
1099.792086
964.2928984
749.0419024
341.6512113
1043.822246
1538.585547
990.4324749
1054.389054
1607.137433
1634.886469
1560.496223
1595.43303
373.0779573
996.5419925
984.3584204
1735.723452
1703.142743
530.9328213
584.4724399
1807.894151
1739.077323
195.2259974
104.6527609
108.4470972
99.86538074
103.431135
191.6838941
109.7565072
113.8278519
223.2650082
283.6611208
629.9438951
601.6406562
578.5624625
509.91592
260.7154995
1296.691568
1130.235284
1515.48235
1248.036627
768.0952539
516.4262951
524.6692831
1216.794678
736.4294766
778.791643
530.0602499
541.9344925
794.8819233
183.5464837
203.588407
428.6965243
547.1672774
990.8140649
704.8824842
1178.414639
1227.58116
769.1627185
1822.923414
1307.81026
1362.862345
884.0957291
887.0287525
1458.238215
1479.844084
1495.221455
1397.085176
1420.859895
1356.028908
826.3654974
831.6444746
797.2115267
804.3032138
1296.852884
1434.583758
871.2078331
876.0442931
837.2655884
842.9118926
1390.373905
648.0258078
634.8587883
286.7498476
308.6806565
665.8071314
652.2749112
476.8182355
463.5321831
239.3591825
1539.165575
1541.993949
1501.612075
1507.364095
1916.900218
1550.925371
1552.224357
257.8292015
498.0914612
482.1577867
1023.283487
703.1374874
707.1229047
1644.686262
1036.962998
1041.531759
1008.108631
1029.937238
1632.542232
1688.575423
1704.401039
1686.314259
1048.591454
1052.717952
1043.623129
1046.662183
1679.227035
1622.626912
1666.417837
1131.893261
1558.341965
2159.856842
1296.277052
1633.185233
463.7443326
639.9958702
1014.941677
1126.420424
668.9873072
987.0976949
1307.385617
1171.586434
1239.316695
590.924606
664.5739299
1169.067664
794.5553203
546.8194551
570.936977
1106.949256
1067.970639
631.3300956
1080.878243
1415.820604
712.6611679
1167.335159
1147.93603
949.1058783
941.556709
1425.962037
1470.621843
900.0693507
897.1208551
1458.125376
1471.363289
1434.552738
1447.956457
817.5703266
822.3125286
1349.86827
1310.321557
808.8084921
813.0935022
859.3732729
864.4440986
1423.867146
1401.846881
848.8799583
854.1640419
952.4234777
1537.148686
1526.023075
1552.770024
1545.453653
954.6534606
937.8586743
1488.982686
1470.546465
1515.682314
1503.357379
944.1602073
979.3951624
1601.673854
1590.873345
1617.650567
1607.154659
982.2092233
962.8047533
1567.103689
1560.634388
1584.358396
1574.44736
965.8642803
1526.888411
1531.322421
636.7311479
930.6817494
927.562952
938.2012396
935.6399679
641.6712599
1514.922124
1520.069002
1599.018633
1513.109262
712.9553375
997.6993804
1007.411713
1434.154751
1379.326006
792.3050866
654.3781637
946.2162513
944.8160209
954.6642356
958.2663781
664.9479471
1564.307649
1556.934879
1045.978744
728.4271657
730.3781198
714.0389932
716.7938418
1033.17037
1687.188764
1701.966719
1654.940191
1672.669966
1644.730137
2093.395015
1503.036259
866.0204846
956.6075515
757.4914043
780.7309689
1088.533399
1441.122436
2003.16632
1578.561584
1501.17851
1003.023557
1632.707666
1618.475999
1670.653576
1624.874417
999.167477
1615.130697
1627.638863
1573.571567
1586.052056
1720.166088
1062.758296
1071.099826
1054.879611
1060.785225
1716.17836
1758.8955
1085.382008
1144.276948
1072.872242
1088.302949
1762.196746
31.76684798
31.77631516
31.86286414
31.78033792
31.79780091
31.87361661
31.80464147
31.83248846
31.89132737
31.84244063
31.87804942
31.91522339
31.88820897
31.65215658
31.6720184
31.74881054
31.68099286
31.71870009
31.77492732
31.73489245
31.79514383
31.81739934
31.81809501
31.89100909
31.87211953
31.91381471
31.54832808
31.58903632
31.64878221
31.60825396
31.68741715
31.70543766
31.72189577
31.8553307
31.79799584
31.90930185
32.09183571
31.91330469
32.13348813
31.45972695
31.53554989
31.57253461
31.57078685
31.73249397
31.69028853
31.81047659
32.14220452
31.89808316
32.285313
32.85391445
32.18275264
32.98606044
31.39280524
31.51970959
31.52797702
31.58505446
31.90939533
31.76233188
32.07496586
32.87244118
32.26864716
33.28205084
35.46978385
33.15607092
36.32956457
31.3428055
31.54082253
31.52165592
31.65102416
32.21414021
31.97251211
32.52121678
34.17036439
33.14781444
35.16665155
44.54681045
36.4497813
41.75013378
47.96990808
40.30604203
31.30367546
31.58607929
31.54803571
31.74520964
32.56254615
32.29572016
33.01356474
35.48814275
34.53073875
36.1810807
38.09443166
37.39865555
52.88130523
59.8314956
57.17141892
31.27416077
31.64422714
31.60018554
31.84966827
32.88243515
32.64709835
33.44074863
36.40207645
35.74662383
37.64174775
40.09768096
39.69768682
61.06901187
72.21116474
70.99649087
31.25216938
31.70768154
31.65999729
31.95546967
33.16960446
32.9567479
33.81147184
37.1438434
36.58762132
38.65380906
41.46976171
41.11400757
68.73462995
90.30150146
87.58131653
31.23670066
31.77550462
31.72556095
32.06376006
33.44904707
33.24020525
34.17088569
37.92131122
37.3181259
39.68638476
43.08851635
42.56247505
78.07089664
107.1011679
103.5477741
31.79540608
33.51905202
38.12090827
40.96063377
46.42708531
44.43450581
90.71039834
130.8117962
125.5740767
70.06282665
68.88515415
58.88384378
86.64448372
83.58024754
65.4287031
102.418547
99.13311701
74.4751754
123.9447345
119.2653622
85.11164264
74.15294466
51.4359733
43.383112
41.45864398
50.63078999
40.79481037
40.44733822
37.90492759
55.14336267
43.5014374
44.14526809
42.59968864
43.295287
54.62490946
42.21063983
41.79700667
38.87561466
61.12967402
45.36179296
46.28293932
44.36298158
45.09883407
60.23780385
94.05754387
91.20586643
69.89960236
202.705053
156.5335623
159.1010918
142.6557765
144.8159276
184.8990105
44.16154921
43.44603691
39.91897792
68.52475999
48.16464781
49.52460948
46.61477471
47.76482712
67.55024432
112.1995838
108.3286275
79.35580098
303.5786568
204.4051219
207.7941328
184.1210946
187.7767815
251.5171997
49.95340692
51.29472804
76.7306197
138.3735923
132.6042788
91.29086605
464.4846473
279.0830014
275.0731822
246.1959868
251.5013886
408.575161
143.8759372
200.7947719
183.6704193
274.8976507
255.8473646
163.3309971
96.54159446
113.1307091
102.9017288
173.0667679
165.7690053
130.5842777
169.8906369
95.44446715
98.71541598
91.92668941
94.47867797
167.0006512
64.3693004
82.26813153
75.58343122
215.4558425
360.8649625
347.7749283
441.5301565
428.3014803
220.3587448
180.2781753
294.4812824
280.4227154
343.6623062
331.6987708
201.1825271
236.0059085
178.2110783
181.4143843
161.7099432
164.3604611
215.0266604
73.32855511
98.08734615
95.03636584
277.4179811
341.7910535
336.9483765
398.0155686
393.6138076
318.3616031
236.914621
458.9868519
445.9159423
331.4592529
325.7949726
267.2690486
374.0309898
236.6408235
241.51212
211.3434781
215.0413855
329.2078759
83.63434933
117.7784003
113.5439773
398.3975197
513.693509
509.0164967
694.3882519
687.2657387
496.613881
328.8267369
406.8770851
402.010279
503.8597624
499.1714156
385.4923429
275.7652505
140.3805026
719.290068
1079.83654
1071.689806
514.2979638
705.5352489
699.969056
1048.450697
994.0360757
663.9129451
39.25075761
38.71463317
36.62046556
50.53728581
41.34557581
42.34481443
39.45433024
40.96249182
49.64734615
64.47237135
62.30477485
54.53309192
100.1669386
71.74842612
76.22472617
65.56457292
70.08676901
95.13405234
75.08502053
73.12546599
61.63207831
147.3917243
87.00739909
90.94653625
83.53186512
86.0231332
144.8463707
123.7787547
80.73289939
82.87879094
77.26243783
80.05518459
121.5044349
58.10086072
67.70269756
66.19814074
224.1368484
279.2083127
225.9160745
705.3298105
602.3854501
400.357493
61.75367643
83.92524366
63.79971601
75.64207233
59.75127519
132.1189216
83.65096393
67.94196508
266.9977347
274.9506257
454.2924288
163.2172219
206.2146567
201.7446616
214.6679395
209.5287013
165.8319193
222.1134935
205.9053265
147.5779362
396.7611894
431.7943347
679.4248151
158.5544397
248.9737454
228.0103525
136.8153142
125.1184528
104.4338659
243.3558678
164.0089784
177.4136096
125.1010062
137.0716847
217.9925682
498.5464762
353.7309331
370.3116934
270.7911586
283.7387587
369.4602437
124.8443725
157.3034442
147.7901173
395.4703899
367.0571098
216.8049367
218.2602552
423.7465688
405.2621712
311.39571
298.8093239
184.4250396
197.1513071
327.6953873
315.5152156
365.7583346
361.8807929
292.8534816
302.2339377
373.5899477
369.6415963
297.5391124
294.2629479
244.4386211
252.347312
304.2266099
300.8718799
547.4870801
541.6776727
421.863331
443.9146423
576.5918803
560.4805727
460.1335956
449.5007958
351.8820365
365.029467
474.6892525
468.3805743
219.0784294
740.776823
732.4834243
542.5194597
563.6121897
757.6964626
744.3320538
111.7040442
125.7995752
197.9106532
201.1330479
299.7210947
129.2481545
157.7150507
155.3393616
162.5532838
160.115966
130.982727
122.6895048
148.5397505
146.2959711
152.9835089
150.6687359
124.2617772
254.1525092
190.4308352
194.5048804
153.178276
191.4347655
188.0037131
198.4914477
194.6508583
155.4940902
413.3267544
256.290049
262.4504694
172.5110188
175.4418098
231.9209642
116.6662259
140.1680406
138.1702924
144.2618215
142.1507527
118.1185521
679.3819517
504.7533173
510.3414253
495.4553586
500.5313923
675.4812388
315.1876282
389.6924866
385.4949448
227.2120768
231.9148859
367.7517522
144.3228126
178.7283084
175.7608396
184.8985713
181.7331488
146.427234
136.4174121
167.6020593
165.0471657
172.9448123
170.2342151
138.3128291
332.9717466
218.8920316
222.9213045
523.7175903
519.2336058
402.9750618
692.6224596
697.1953113
1016.458533
489.3850353
677.7080929
661.7461647
418.5047532
411.7131587
332.436744
701.3191908
526.6562096
538.7983371
514.3022395
521.3387702
699.4939888
1005.601897
682.6754355
687.3099862
673.1385923
677.7482992
1001.720226
381.2598126
494.2825153
489.6287919
716.4159933
710.6080851
519.676607
629.2771751
900.9033668
813.3218298
405.1133199
318.6074462
246.0533556
294.108524
377.1979782
373.3485957
545.9880521
443.969887
496.0213034
507.7343271
763.6215516
266.0805148
355.9177916
344.1925148
376.4657967
366.2348663
273.5164184
238.5947418
304.4181841
290.0780747
331.9373664
318.8397552
245.1415677
726.1525238
460.9814403
481.4727272
334.8189916
452.1408612
427.9676166
503.1865871
480.7528513
346.812953
299.1034408
394.1772079
384.808597
413.8960332
401.0837349
306.8369246
327.9901388
338.0041085
465.2304924
214.8746244
257.9158742
248.9066483
277.9395611
267.1949813
219.840329
490.2248957
669.8327651
648.4881792
825.2407132
747.210287
514.0712569
453.1615742
611.1974579
608.0161073
624.1616159
621.975003
459.7937985
602.1948668
903.9176519
900.6107913
911.1250296
906.9851128
606.6388975
578.7255397
887.8165575
869.3918102
897.9172096
894.3261817
586.9136329
395.3858663
549.4498032
544.1691269
559.7138793
554.5174518
400.3812798
373.5190548
526.3675805
517.3706784
538.7575996
533.0022476
379.5143642
434.2128219
590.8039545
585.9884657
601.1094305
596.6588503
439.1938641
415.1635489
570.2845728
565.0429401
580.7280663
575.6679686
420.0355953
619.6034085
916.989714
914.1645839
923.5825304
920.5145189
623.8834739
416.5509401
534.0431543
529.7840899
636.080217
603.0765184
455.3680152
915.7948318
609.7261064
633.7146419
553.7307932
578.8074683
830.6448051
347.9734634
437.6306209
426.9634118
484.8481274
480.0147151
369.0758299
994.3574569
663.278033
668.3023681
648.3808443
657.0737999
990.8577484
537.3322558
727.9720433
721.3539209
789.3295737
760.5974714
570.4540097
151.655095
154.0583295
198.8728653
105.8958769
125.3536615
123.6657057
128.8461897
127.0806854
107.159678
101.0354501
118.8186046
117.2769724
122.0135871
120.3963064
102.2255915
188.2404953
147.0346561
149.3156196
111.0914764
132.482105
130.64673
136.24964
134.3409901
112.4447303
219.0602005
167.0190616
169.7766681
350.215907
346.1891139
280.6310796
624.0030085
448.8277577
454.1163987
434.4338226
442.5300459
615.5937909
548.7443493
412.3917663
423.9788572
393.8937458
402.088104
524.2077124
263.9127553
320.3905877
315.5963873
191.056563
218.8836883
207.491348
239.6229262
229.4602336
196.8372017
407.3826348
300.8444272
313.3099328
643.7238914
468.1478732
472.6995817
458.9509666
463.6014666
639.402632
289.7724737
358.0113249
354.1584041
381.5627336
377.4975885
305.3566271
660.9954413
486.241231
491.0354376
477.1743734
481.7750065
656.6653998
472.6499496
365.7185854
369.6397747
357.7510091
361.6545785
467.8445505
241.9439483
291.0086091
287.7846859
311.4209786
307.7381869
254.9725974
492.897982
382.5755736
387.3501795
373.8787661
377.8670493
486.1131902
31.9019983
31.90250165
31.96735736
31.90321034
31.90457295
31.96768953
31.90548271
31.90736709
31.96897239
31.91004588
31.9136809
31.97102348
31.91842911
31.92437005
31.97451313
31.93144361
31.93925654
31.97941877
31.94725178
31.95493721
31.98432513
31.77130772
31.77193067
31.8363301
31.77295029
31.77431592
31.83807033
31.77610506
31.76503092
31.85725608
31.82740721
31.8290954
31.85952876
31.83610448
31.83939428
31.8674651
31.85195735
31.85751941
31.88155034
31.87673698
31.88452231
31.9027018
31.90781987
31.91592558
31.92761103
31.64255705
31.64386273
31.70750762
31.64606371
31.64907479
31.71124616
31.65291904
31.64778955
31.73464814
31.70829738
31.71216963
31.74052295
31.72831452
31.73578625
31.76009677
31.76446084
31.77718693
31.79396966
31.8202817
31.83709136
31.84411073
31.88919169
31.90581147
31.90128238
31.51515781
31.5175886
31.58001059
31.52144754
31.52705924
31.58756502
31.5344667
31.53920496
31.61935902
31.59894708
31.60670594
31.63170317
31.64025338
31.65606966
31.67272584
31.71813536
31.74635848
31.7461596
31.84095863
31.87875373
31.85380039
31.98447442
32.02335967
31.96964796
31.39074292
31.39490862
31.4554936
31.40141356
31.41080095
31.46797295
31.4243076
31.44373426
31.51313337
31.50112714
31.5162715
31.53702347
31.5844075
31.61544859
31.62231203
31.74925327
31.81002884
31.78021045
32.04584981
32.14227798
32.03785483
32.42379033
32.55155558
32.32283354
31.2690388
31.27570682
31.33448068
31.28627665
31.30166158
31.3551349
31.32456261
31.36503515
31.42224436
31.42381218
31.45111212
31.46487552
31.57198182
31.63243771
31.62102545
31.91753868
32.05878178
31.97237416
32.67792783
32.96776011
32.67430224
34.08173299
34.6600641
33.74633026
31.15048497
31.16036044
31.21693922
31.17615962
31.19974232
31.24937592
31.23497827
31.30173809
31.34775907
31.3662526
31.40785633
31.41672453
31.61243305
31.72383393
31.69247029
32.27926422
32.57837885
32.42162034
34.13643114
35.04911169
34.36658588
31.03645774
31.05055098
31.10399817
31.07285694
31.10633342
31.15143369
31.15603603
31.24938171
31.28733976
31.32196258
31.38094082
31.38545767
31.69596989
31.8705352
31.82731599
32.77196239
33.27759794
33.0957262
30.9273074
30.94647977
30.99663082
30.97630422
31.02085865
31.06168501
31.08596283
31.20562319
31.23778141
31.28792795
31.36709414
31.36959169
31.7972095
32.03274071
31.99230754
33.23729081
33.90489433
33.76186256
30.82306985
30.84839404
30.89495056
30.88640185
30.94260639
30.97921178
31.02307809
31.16850868
31.19568239
31.26231481
31.36291797
31.36294791
31.90260754
32.19171648
32.15282402
33.63045485
34.40776505
34.28900072
30.7240493
30.75607351
30.79893688
30.80269282
30.87070789
30.9030189
30.96624488
31.13714769
31.16022163
31.24350795
31.36573142
31.36480549
32.00852824
32.34609823
32.3094641
33.9897481
34.86296343
34.74905569
30.70797979
30.83192393
31.13115438
31.23028443
31.37410398
31.37329687
32.11909872
32.50448247
32.46583568
34.3569278
35.33497653
35.21073811
53.69415402
50.53277623
47.03836804
43.87535617
46.6651353
56.37255894
50.61035715
51.0484528
48.33715361
48.72216765
53.61551731
62.93233126
54.99052666
55.68496773
51.50964201
52.00686671
58.57666499
70.59353564
60.92549537
61.76880458
56.39226788
57.13184203
65.66004026
310.9640858
261.2276773
263.8687523
62.58452284
63.49119441
74.19229234
490.6689888
385.3564024
391.2197268
320.4506047
324.1577043
398.9908134
175.5644608
138.5039252
140.5548759
126.7627082
128.7117869
161.2315484
271.9907096
268.845198
224.8557331
232.0074974
278.260747
275.1174982
384.7751187
313.1522583
316.8020958
266.4712141
269.2755742
321.853541
397.038578
402.4414431
521.5443885
101.254571
51.97038649
47.49750902
47.94408159
43.40161524
44.24976974
47.33770166
108.0278835
93.12976918
95.39081782
73.28706001
77.23748303
84.10416193
152.6812333
123.1235951
124.9773431
110.3231181
112.322021
138.3801989
128.523504
106.9919705
108.5675919
97.37256268
99.22934083
116.6874701
92.93248915
84.82098415
77.30831532
351.9198238
356.5921793
440.0563091
296.2038732
240.8419286
254.3146459
146.4648796
159.7996245
175.6992873
242.2479941
235.6011375
212.4240823
214.4423869
251.8904572
247.5203064
201.6387345
167.5639754
152.249311
249.4029556
250.4354028
291.2380141
272.8562503
249.3947906
248.9337058
423.352861
343.5113091
347.9716285
290.1694035
293.8327519
355.1555864
340.7351868
283.6700604
286.9069593
31.76953636
31.79906178
31.79680841
31.80455544
31.80140249
31.77245386
31.86125238
31.83102522
31.83343255
31.78557691
31.81206049
31.80777013
31.82200472
31.81634291
31.790925
31.87069899
31.84297206
31.84732897
31.81334333
31.83470282
31.82751574
31.85019695
31.84147982
31.82183852
31.88680675
31.86325201
31.87001024
31.85469177
31.86824227
31.85822953
31.88787915
31.87697973
31.8657712
31.90957623
31.89201428
31.9003021
31.90068961
31.90683835
31.89691724
31.91421396
31.91114092
31.9340643
31.92302748
31.65767425
31.68450103
31.6797812
31.69653203
31.68993278
31.66418736
31.74416933
31.71663076
31.72217113
31.69172448
31.71289367
31.70398433
31.73487676
31.72290195
31.70408793
31.76672974
31.74392734
31.75377932
31.75304255
31.76351061
31.74816144
31.79682724
31.77965398
31.77191628
31.80469106
31.79047934
31.80582171
31.84219601
31.8375187
31.81628049
31.87812907
31.85744416
31.86597431
31.85671066
31.85478478
31.8729401
31.9392758
31.91677009
31.89725397
31.93436712
31.95553111
31.91295911
31.91931344
31.55945223
31.58269999
31.57339586
31.6070591
31.59371864
31.57289655
31.63948772
31.61595137
31.62703984
31.63062725
31.64219828
31.623117
31.68821412
31.66386385
31.65622141
31.68786384
31.674442
31.69531731
31.76029749
31.75030464
31.71827279
31.82470942
31.7851615
31.80527195
31.7717943
31.77539912
31.80668238
31.96865494
31.91162752
31.86754697
32.00272316
31.95578712
32.03279447
31.88273879
31.91756234
31.95435691
32.2007513
32.08623482
32.05637301
32.13217226
32.2304747
31.99841843
32.04535428
31.48039303
31.49741463
31.4796652
31.54549946
31.51923289
31.50564808
31.55302064
31.53495159
31.55775683
31.61544121
31.61353881
31.57610094
31.71109514
31.65781721
31.66763752
31.65316774
31.65424263
31.69779195
31.90415398
31.851769
31.77625331
32.03760551
31.93821834
32.0152338
31.83560892
31.88039402
31.95939251
32.44964465
32.2721086
32.15032521
32.52411521
32.38838898
32.65479583
32.10660575
32.25394862
32.35774203
33.24081199
32.79328032
32.70850328
32.94278735
33.38012292
32.40103998
32.61052772
31.42688266
31.43818215
31.40763783
31.51992022
31.47500384
31.46785656
31.49379734
31.48370338
31.52280151
31.66991408
31.64727476
31.57656563
31.8500659
31.73710135
31.77648686
31.68386962
31.70879223
31.80290253
32.2847082
32.16127926
31.98953982
32.63063253
32.37166484
32.54683846
32.10816577
32.22979027
32.43432173
33.80235066
33.3374501
32.94830294
34.31677898
33.76195757
34.53312485
32.88882468
33.3514533
33.76882971
37.85634405
35.80728179
35.1832258
36.68884647
40.08035454
34.07016332
35.03008309
31.39266381
31.39940312
31.35391412
31.53128617
31.45684445
31.45623222
31.46267596
31.45933118
31.52583539
31.79353278
31.75504704
31.62888843
32.12495814
31.91697045
31.97714186
31.81520016
31.86614133
32.04774345
32.92310005
32.74043535
32.39252707
33.80406245
33.19747511
33.45529839
32.7402254
32.96492209
33.46644225
36.6581185
35.79882732
34.64110388
40.25021473
37.38651167
39.01541733
35.20715384
36.4307887
38.38819533
44.73446987
43.68930154
45.31545593
31.37243656
31.37605842
31.31235103
31.57272869
31.46040313
31.46412022
31.4560007
31.45833213
31.56128693
31.95108055
31.90978346
31.71956687
32.47570058
32.15593906
32.2171941
32.03126315
32.0963662
32.38939733
33.60895878
33.44624353
32.89360068
35.1971482
34.1872642
34.40579346
33.7041885
33.95553119
34.88063869
31.36393587
31.36534598
31.28079259
31.6293802
31.47918151
31.48501278
31.46869473
31.47356853
31.61441952
32.11285549
32.07343707
31.82374312
32.80693675
32.39408106
32.44986001
32.27761355
32.33613176
32.72803273
34.16708606
34.0395343
33.34155391
36.19735595
34.96141777
35.12303808
34.60593413
34.79118313
35.98496445
31.36361271
31.36311121
31.25710146
31.69223393
31.50615762
31.51323145
31.49165083
31.49844397
31.67555487
32.26917548
32.23152716
31.92990044
33.10045188
32.61409988
32.66615244
32.50554701
32.55963978
33.02887045
34.63659182
34.52266022
33.72203421
36.95281822
35.56583145
35.7110134
35.27430082
35.42385383
36.77843473
89.40605249
79.85745175
80.6004722
78.43187837
79.15700979
88.4853232
31.36978817
31.36857045
31.24093023
31.76038407
31.54003339
31.54710318
31.52219975
31.52912087
31.74052742
32.42514685
32.38791402
32.03854425
33.3794065
32.8266875
32.87856079
32.72044218
32.77129988
33.30818676
35.0941924
34.97645384
34.08003476
37.70243732
36.14158262
36.29719707
35.85087226
35.99879005
37.52002155
105.8887104
92.58905472
93.53950911
90.7912265
91.70589998
104.71409
31.55850882
31.56514405
31.81040595
32.9325474
32.98677419
33.592351
36.44746783
36.61495975
38.35948155
128.9777614
110.2261308
111.7178995
107.6329827
108.9188961
127.2729398
101.2993489
89.05850607
89.93889373
87.38870494
88.23580219
100.2114821
122.3308514
105.1711612
106.4431221
102.8254154
104.004992
120.7828907
61.63750965
56.14309769
59.52371272
48.78889668
51.21863065
56.41365191
45.0649381
47.63554797
45.02298076
44.16822132
45.01727805
42.904231
53.02916282
49.37012194
46.65860509
50.52287292
56.69322711
49.81774209
50.20636633
55.72845899
46.99481396
46.69243602
43.92347757
54.08592952
49.08055196
49.45022128
53.68985647
54.32870275
62.03665007
45.65277823
49.16916694
48.75287289
50.09016511
49.62043758
45.95039668
44.59899002
47.63807814
47.30947703
48.35602648
47.98841842
44.83662674
59.38868878
52.53101743
53.09470534
93.08568642
82.76589352
83.53574648
81.30124456
82.05401677
92.14051949
59.36309718
60.14832366
69.57012935
48.59585644
53.38593711
52.80078865
54.61636293
53.99338987
49.03150251
46.97923401
51.11258947
50.59478043
52.21850636
51.66279265
47.35278806
66.58706315
57.86422286
58.61429278
110.8771485
96.40921408
97.44594693
94.45870767
95.44762914
109.5933437
256.3552845
258.7742662
307.2939632
50.49438291
55.91397627
55.25483854
57.25735188
56.58130335
50.85965767
75.22055046
64.3769731
65.33064205
136.4266331
115.3543833
116.6167854
112.9052543
114.4448741
134.5482663
372.4196081
379.950286
476.718055
307.0298186
298.5823518
275.0487627
403.6675571
327.858944
331.8017365
195.2702059
176.3182601
178.3544502
173.6753846
174.8845554
189.7097928
268.8135763
219.0615697
223.6417175
208.9470623
214.4576451
262.6564166
134.5051768
136.4933114
172.6925515
96.50049291
112.896373
111.5197808
115.7767413
114.3157111
97.59107538
93.08444874
107.6333587
106.2911634
110.18912
108.9023881
93.63547559
163.5597981
130.550447
132.520514
356.1836189
286.1086543
290.0511044
279.5757138
282.827713
351.7218074
437.1302696
334.5651737
338.3838258
326.982975
330.769921
432.7334984
222.6130237
265.6963659
262.4919852
290.0486054
234.342954
237.7403539
227.3252305
230.9510889
285.407548
339.7025528
273.1955042
276.5553254
266.8328798
270.087995
335.6807584
97.04956157
85.78940562
86.59915386
84.2566906
85.03584038
96.03882718
284.5897261
281.4102651
234.3963336
454.6507572
349.9242691
353.7971739
342.214092
346.0452399
450.2377843
305.614239
309.3949475
379.6582522
325.5260522
271.9722712
274.9017012
116.3320916
100.5858235
101.7234784
98.45032882
99.5308199
114.925859
277.2497142
320.4182817
314.1898995
118.0557605
46.44612816
47.01356756
51.3222997
48.57714692
45.07392423
45.81315465
87.8223046
90.65642791
104.319105
73.48176587
79.1434136
76.63898131
83.2437769
81.20850627
74.82318842
74.03258145
70.7344324
67.72552846
89.54523265
81.15895274
84.67472111
119.3859349
121.4009769
150.0938267
88.24665434
102.002532
100.3014947
105.0025773
103.5530739
89.55813788
84.31123769
95.66784451
94.51052977
98.5093299
96.99055743
85.06593094
141.779658
114.7710893
117.180091
103.9747699
105.4969351
126.1007663
81.50133529
91.33588584
90.2103524
93.43806046
92.36638913
82.13430959
78.35728393
86.49571297
84.88431744
89.10550114
87.80245036
79.16744373
119.144266
100.8780506
102.4878461
67.89939973
72.9986953
69.2831166
65.924988
69.73219238
109.2664984
97.61589941
106.2679477
77.85224141
84.05449728
95.90075693
71.91899808
77.41200543
71.0512821
446.2213735
361.0731841
366.8892857
216.4030432
185.0153988
188.0687016
180.2091186
182.6944958
211.2185984
241.7978902
198.7465747
203.7943325
190.9806688
194.8304437
234.717543
206.5160436
223.2495112
270.4668212
196.2472985
183.4964082
169.4258606
195.398919
174.7022651
188.6167622
384.5864196
301.5655383
306.002739
293.4147943
298.4823723
374.9333314
259.195713
255.7110228
216.2375745
418.7803212
319.2943334
323.1851963
310.7371403
315.1901046
412.890052
307.2387708
247.5638457
250.8683393