/*--------------------------------*- C++ -*----------------------------------*\
| =========                 |                                                 |
| \\      /  F ield         | OpenFOAM: The Open Source CFD Toolbox           |
|  \\    /   O peration     | Version:  v2012                                 |
|   \\  /    A nd           | Website:  www.openfoam.com                      |
|    \\/     M anipulation  |                                                 |
\*---------------------------------------------------------------------------*/
FoamFile
{
    version     2.0;
    format      ascii;
    class       pointVectorField;
    location    "1.43";
    object      pointDisplacement;
}
// * * * * * * * * * * * * * * * * * * * * * * * * * * * * * * * * * * * * * //

dimensions      [0 1 0 0 0 0 0];


internalField   nonuniform List<vector> 
6962
(
(0 0 0)
(0 0 0)
(0 0 0)
(0 0 0)
(0 0 0)
(0 0 0)
(0 0 0)
(0 0 0)
(0 0 0)
(0 0 0)
(-0.0005360776319 -0.0009026747919 5.606626274e-15)
(0 0 0)
(0 0 0)
(0 0 0)
(0 0 0)
(0 0 0)
(0 0 0)
(0 0 0)
(0 0 0)
(0 0 0)
(0 0 0)
(0 0 0)
(0 0 0)
(0 0 0)
(0 0 0)
(-0.0009530645912 -0.001765357975 9.964251646e-15)
(-0.0008689041701 -0.001572759301 9.076073226e-15)
(-0.0007436431105 -0.001314773895 7.771561172e-15)
(-0.003698073489 -0.007169847159 4.243827512e-14)
(-0.003973101505 -0.007884957162 4.557465516e-14)
(-0.006024164319 -0.01255632956 7.260858581e-14)
(-0.005688061724 -0.01158349919 6.858402735e-14)
(-0.01208144092 -0.0289631411 1.717792575e-13)
(-0.01230396169 -0.03018358057 1.748462486e-13)
(-0.01397725245 -0.03644336945 2.112060526e-13)
(-0.01379470892 -0.03515219601 2.085831508e-13)
(-0.01636397763 -0.05149837041 3.057970543e-13)
(-0.01641721319 -0.05284647037 3.064631882e-13)
(-0.01631640128 -0.0570188132 3.306521723e-13)
(-0.01622628624 -0.05544979276 3.292643935e-13)
(-0.01311427767 -0.06056828576 0)
(-0.01313709033 -0.06201829656 0)
(-0.01159738617 -0.0620434965 0)
(-0.01158611885 -0.06131874148 0)
(-0.01157505251 -0.06059391568 0)
(-0.006973288776 -0.06066922321 0)
(-0.006978276713 -0.06103127464 0)
(-0.006597035129 -0.06103725982 0)
(-0.006592082581 -0.06067530889 0)
(0 0 0)
(0 0 0)
(0 0 0)
(0 0 0)
(0 0 0)
(0 0 0)
(0 0 0)
(0 0 0)
(0 0 0)
(0 0 0)
(0 0 0)
(0 0 0)
(0 0 0)
(0 0 0)
(-0.0009038123796 -0.001835167168 9.492406861e-15)
(-0.001021381717 -0.002030471593 1.072752998e-14)
(-0.001091408059 -0.00212337572 1.146305273e-14)
(-0.004399868659 -0.009386633128 5.069555886e-14)
(-0.00425843192 -0.009282903011 4.907185769e-14)
(-0.006349725444 -0.01453744307 7.688294446e-14)
(-0.006519125644 -0.01460734869 7.893685705e-14)
(-0.0128526504 -0.0338970812 1.834782326e-13)
(-0.01264497946 -0.03406823922 1.804528749e-13)
(-0.0142922936 -0.04092360123 2.168543123e-13)
(-0.01449517307 -0.04063322935 2.200323257e-13)
(-0.0167244392 -0.05790596316 3.13735149e-13)
(-0.01658827554 -0.05863864004 3.108902025e-13)
(-0.01635820258 -0.06279218895 3.329003739e-13)
(-0.01645704376 -0.06188714526 3.352873534e-13)
(-0.01303541337 -0.06638541498 0)
(-0.01305984697 -0.06783563435 0)
(-0.01151584339 -0.06786164805 0)
(-0.01150362942 -0.0671367068 0)
(-0.01149140978 -0.06641142868 0)
(-0.006859466398 -0.06648946865 0)
(-0.006871686038 -0.06721474677 0)
(-0.006099717931 -0.06722775305 0)
(-0.006093605274 -0.06686494556 0)
(-0.006087498291 -0.06650247493 0)
(-0.006473482345 -0.06649597179 0)
(0 0 0)
(0 0 0)
(0 0 0)
(0 0 0)
(0 0 0)
(0 0 0)
(0 0 0)
(0 0 0)
(0 0 0)
(0 0 0)
(0 0 0)
(0 0 0)
(0 0 0)
(0 0 0)
(-0.000211122319 -0.0004646752977 2.220446049e-15)
(-0.0003830730107 -0.0008267962126 4.024558464e-15)
(-0.0005691100285 -0.00120404645 5.981326545e-15)
(-0.003263376737 -0.007572752664 3.760880496e-14)
(-0.002788355844 -0.006602211635 3.214095656e-14)
(-0.004539869795 -0.01129140518 5.499767308e-14)
(-0.005135078382 -0.01251588967 6.218636717e-14)
(-0.0110808357 -0.031776877 1.581096365e-13)
(-0.01027403552 -0.03006933363 1.46632706e-13)
(-0.01191291637 -0.0370462492 1.807443084e-13)
(-0.0127318338 -0.03879526133 1.931094173e-13)
(-0.01540434144 -0.05787730451 2.882555306e-13)
(-0.01472724597 -0.05645554694 2.755989881e-13)
(-0.01482761777 -0.06166981034 3.010647287e-13)
(-0.01540614115 -0.06281437288 3.128469706e-13)
(-0.01298551789 -0.07140959946 3.554517791e-13)
(-0.01278566709 -0.07164539979 3.495953527e-13)
(-0.01151046594 -0.07304120805 3.562983242e-13)
(-0.01158193922 -0.07217013734 3.591155151e-13)
(-0.006957212166 -0.07229101985 0)
(-0.006981651445 -0.07374157608 0)
(-0.005437681546 -0.07376758921 0)
(-0.005413242266 -0.07231703298 0)
(-0.006185244059 -0.07230402613 0)
(0 0 0)
(0 0 0)
(0 0 0)
(0 0 0)
(0 0 0)
(0 0 0)
(0 0 0)
(0 0 0)
(0 0 0)
(0 0 0)
(0 0 0)
(0 0 0)
(0 0 0)
(0 0 0)
(0 0 0)
(0 0 0)
(-5.185917361e-06 -1.185561591e-05 5.551115123e-17)
(-0.001240864008 -0.003114890614 1.432187702e-14)
(-0.0007790066521 -0.001992560075 8.992806499e-15)
(-0.001811454013 -0.004870127913 2.19685381e-14)
(-0.00248782811 -0.006562835274 3.017031069e-14)
(-0.007230110774 -0.02246705779 1.033895192e-13)
(-0.006093347734 -0.01930868073 8.720801858e-14)
(-0.007532132724 -0.02536989387 1.146305273e-13)
(-0.008746932274 -0.02888617721 1.329769628e-13)
(-0.0118392117 -0.04819518405 2.220029716e-13)
(-0.01062926817 -0.04414621057 1.995903443e-13)
(-0.01108058389 -0.04991853965 2.257083409e-13)
(-0.01221835384 -0.05394913855 2.485234241e-13)
(-0.01131879074 -0.06719454676 3.094746681e-13)
(-0.01052593231 -0.0637487109 2.882000194e-13)
(-0.009779378519 -0.06698007148 3.027578188e-13)
(-0.01044122222 -0.07010681616 3.228251e-13)
(-0.006740368354 -0.07489412172 3.445993491e-13)
(-0.006416739371 -0.07269601411 3.283623373e-13)
(-0.005062885854 -0.07346226759 3.317346398e-13)
(-0.00530367239 -0.07548003264 3.471806176e-13)
(0 0 0)
(0 0 0)
(0 0 0)
(0 0 0)
(0 0 0)
(0 0 0)
(0 0 0)
(0 0 0)
(0 0 0)
(0 0 0)
(0 0 0)
(0 0 0)
(0 0 0)
(0 0 0)
(0 0 0)
(0 0 0)
(0 0 0)
(-4.552833902e-06 -1.229014226e-05 5.551115123e-17)
(0 0 0)
(-4.688326071e-05 -0.000135459934 5.828670879e-16)
(-0.000277059013 -0.000786731984 3.372302437e-15)
(-0.002794672122 -0.00937595819 4.012068455e-14)
(-0.001863568925 -0.006367864878 2.678413047e-14)
(-0.002774489898 -0.01008850281 4.243827512e-14)
(-0.003869451262 -0.01380951927 5.911937606e-14)
(-0.006619756571 -0.0291936463 1.250388681e-13)
(-0.005281182392 -0.02375511213 9.998946116e-14)
(-0.005845240171 -0.02854758444 1.201816424e-13)
(-0.007184873868 -0.03439109925 1.472988398e-13)
(-0.007452289672 -0.04803791484 2.057798376e-13)
(-0.006299095171 -0.0414818409 1.746380818e-13)
(-0.006026921737 -0.04493855228 1.891681256e-13)
(-0.00707261543 -0.05159213032 2.209898931e-13)
(-0.004832397504 -0.05853398527 2.506050922e-13)
(-0.004172797206 -0.05181447163 2.180339242e-13)
(-0.003305153359 -0.05284310758 2.223221607e-13)
(-0.003826757075 -0.05955771314 2.54934962e-13)
(0 0 0)
(0 0 0)
(0 0 0)
(0 0 0)
(0 0 0)
(0 0 0)
(0 0 0)
(0 0 0)
(0 0 0)
(0 0 0)
(0 0 0)
(0 0 0)
(0 0 0)
(0 0 0)
(0 0 0)
(0 0 0)
(0 0 0)
(0 0 0)
(0 0 0)
(0 0 0)
(0 0 0)
(-0.0001202941522 -0.0004330478533 1.734723476e-15)
(0 0 0)
(-8.744499168e-05 -0.0003409984199 1.346145417e-15)
(-0.0004334599743 -0.001662463318 6.64746036e-15)
(-0.001846851444 -0.008796871327 3.520794767e-14)
(-0.001030438347 -0.004997448697 1.967870311e-14)
(-0.001387746755 -0.007322340761 2.883804306e-14)
(-0.002285467832 -0.01183713499 4.737876758e-14)
(-0.002986502938 -0.02096682636 8.393286066e-14)
(-0.002059016745 -0.01475636094 5.812017534e-14)
(-0.002087941611 -0.01699731478 6.694644838e-14)
(-0.002963718756 -0.02361339384 9.453549055e-14)
(-0.002169420758 -0.0291345562 1.166150509e-13)
(-0.001578842535 -0.02176379464 8.57092175e-14)
(-0.001253691035 -0.02251080843 8.865130852e-14)
(-0.001719714107 -0.02998882432 1.20015109e-13)
(0 0 0)
(0 0 0)
(0 0 0)
(0 0 0)
(0 0 0)
(0 0 0)
(0 0 0)
(0 0 0)
(0 0 0)
(0 0 0)
(0 0 0)
(0 0 0)
(0 0 0)
(0 0 0)
(0 0 0)
(0 0 0)
(0 0 0)
(0 0 0)
(0 0 0)
(0 0 0)
(0 0 0)
(0 0 0)
(0 0 0)
(0 0 0)
(0 0 0)
(0 0 0)
(0 0 0)
(0 0 0)
(-1.352358264e-05 -7.507540869e-05 2.775557562e-16)
(-0.0002421864177 -0.001836600672 6.89726054e-15)
(-2.727955979e-05 -0.0002102845424 7.771561172e-16)
(-5.956447445e-05 -0.0005231848396 1.942890293e-15)
(-0.0003065119675 -0.002646924049 9.950373858e-15)
(-0.0003138338687 -0.004645999127 1.745825706e-14)
(-0.0001017448856 -0.001536351426 5.689893001e-15)
(-8.712891514e-05 -0.0017309738 6.411537967e-15)
(-0.0002565267377 -0.004987666228 1.874889133e-14)
(0 0 0)
(0 0 0)
(0 0 0)
(0 0 0)
(0 0 0)
(0 0 0)
(0 0 0)
(0 0 0)
(0 0 0)
(0 0 0)
(0 0 0)
(0 0 0)
(0 0 0)
(0 0 0)
(0 0 0)
(0 0 0)
(0 0 0)
(0 0 0)
(0 0 0)
(0 0 0)
(0 0 0)
(0 0 0)
(0 0 0)
(0 0 0)
(0 0 0)
(0 0 0)
(0 0 0)
(0 0 0)
(0 0 0)
(0 0 0)
(0 0 0)
(0 0 0)
(0 0 0)
(0 0 0)
(0 0 0)
(0 0 0)
(0 0 0)
(0 0 0)
(0 0 0)
(0 0 0)
(0 0 0)
(0 0 0)
(0 0 0)
(0 0 0)
(0 0 0)
(0 0 0)
(0 0 0)
(0 0 0)
(0 0 0)
(0 0 0)
(0 0 0)
(0 0 0)
(0 0 0)
(0 0 0)
(0 0 0)
(0 0 0)
(0 0 0)
(0 0 0)
(0 0 0)
(0 0 0)
(0 0 0)
(0 0 0)
(0 0 0)
(0 0 0)
(0 0 0)
(0 0 0)
(0 0 0)
(0 0 0)
(0 0 0)
(0 0 0)
(0 0 0)
(0 0 0)
(0 0 0)
(0 0 0)
(0 0 0)
(0 0 0)
(0 0 0)
(0 0 0)
(0 0 0)
(0 0 0)
(0 0 0)
(0 0 0)
(0 0 0)
(0 0 0)
(0 0 0)
(0 0 0)
(0 0 0)
(0 0 0)
(0 0 0)
(0 0 0)
(0 0 0)
(0 0 0)
(0 0 0)
(0 0 0)
(0 0 0)
(0 0 0)
(0 0 0)
(0 0 0)
(0 0 0)
(0 0 0)
(0 0 0)
(0 0 0)
(0 0 0)
(0 0 0)
(0 0 0)
(0 0 0)
(0 0 0)
(0 0 0)
(0 0 0)
(0 0 0)
(0 0 0)
(0 0 0)
(0 0 0)
(0 0 0)
(0 0 0)
(0 0 0)
(0 0 0)
(0 0 0)
(0 0 0)
(0 0 0)
(0 0 0)
(0 0 0)
(0 0 0)
(0 0 0)
(0 0 0)
(0 0 0)
(0 0 0)
(0 0 0)
(0 0 0)
(0 0 0)
(0 0 0)
(0 0 0)
(0 0 0)
(0 0 0)
(0 0 0)
(0 0 0)
(0 0 0)
(0 0 0)
(0 0 0)
(0 0 0)
(0 0 0)
(0 0 0)
(0 0 0)
(0 0 0)
(0 0 0)
(0 0 0)
(0 0 0)
(0 0 0)
(0 0 0)
(0 0 0)
(0 0 0)
(0 0 0)
(0 0 0)
(0 0 0)
(0 0 0)
(0 0 0)
(0 0 0)
(0 0 0)
(0 0 0)
(0 0 0)
(0 0 0)
(0 0 0)
(0 0 0)
(0 0 0)
(0 0 0)
(0 0 0)
(0 0 0)
(0 0 0)
(0 0 0)
(0 0 0)
(0 0 0)
(0 0 0)
(0 0 0)
(0 0 0)
(0 0 0)
(0 0 0)
(0 0 0)
(0 0 0)
(0 0 0)
(0 0 0)
(0 0 0)
(0 0 0)
(0 0 0)
(0 0 0)
(0 0 0)
(0 0 0)
(0 0 0)
(0 0 0)
(0 0 0)
(0 0 0)
(0 0 0)
(0 0 0)
(0 0 0)
(0 0 0)
(0 0 0)
(0 0 0)
(0 0 0)
(0 0 0)
(0 0 0)
(0 0 0)
(0 0 0)
(0 0 0)
(0 0 0)
(0 0 0)
(0 0 0)
(0 0 0)
(0 0 0)
(0 0 0)
(0 0 0)
(0 0 0)
(0 0 0)
(0 0 0)
(0 0 0)
(0 0 0)
(0 0 0)
(0 0 0)
(0 0 0)
(0 0 0)
(0 0 0)
(0 0 0)
(0 0 0)
(0 0 0)
(0 0 0)
(0 0 0)
(0 0 0)
(0 0 0)
(0 0 0)
(0 0 0)
(0 0 0)
(0 0 0)
(0 0 0)
(0 0 0)
(0 0 0)
(0 0 0)
(0 0 0)
(0 0 0)
(0 0 0)
(0 0 0)
(0 0 0)
(0 0 0)
(0 0 0)
(0 0 0)
(0 0 0)
(0 0 0)
(0 0 0)
(0 0 0)
(0 0 0)
(0 0 0)
(0 0 0)
(0 0 0)
(0 0 0)
(0 0 0)
(0 0 0)
(0 0 0)
(0 0 0)
(0 0 0)
(0 0 0)
(0 0 0)
(0 0 0)
(0 0 0)
(0 0 0)
(0 0 0)
(0 0 0)
(0 0 0)
(0 0 0)
(0 0 0)
(0 0 0)
(0 0 0)
(0 0 0)
(0 0 0)
(0 0 0)
(0 0 0)
(0 0 0)
(0 0 0)
(0 0 0)
(0 0 0)
(0 0 0)
(0 0 0)
(0 0 0)
(0 0 0)
(0 0 0)
(0 0 0)
(0 0 0)
(0 0 0)
(0 0 0)
(0 0 0)
(0 0 0)
(0 0 0)
(0 0 0)
(0 0 0)
(0 0 0)
(0 0 0)
(0 0 0)
(0 0 0)
(0 0 0)
(0 0 0)
(0 0 0)
(0 0 0)
(0 0 0)
(0 0 0)
(0 0 0)
(0 0 0)
(0 0 0)
(0 0 0)
(0 0 0)
(0 0 0)
(0 0 0)
(0 0 0)
(0 0 0)
(0 0 0)
(0 0 0)
(0 0 0)
(0 0 0)
(0 0 0)
(0 0 0)
(0 0 0)
(0 0 0)
(0 0 0)
(0 0 0)
(0 0 0)
(0 0 0)
(0 0 0)
(0 0 0)
(0 0 0)
(0 0 0)
(0 0 0)
(0 0 0)
(0 0 0)
(0 0 0)
(0 0 0)
(0 0 0)
(0 0 0)
(0 0 0)
(0 0 0)
(0 0 0)
(0 0 0)
(0 0 0)
(0 0 0)
(0 0 0)
(0 0 0)
(0 0 0)
(0 0 0)
(0 0 0)
(0 0 0)
(0 0 0)
(0 0 0)
(0 0 0)
(0 0 0)
(0 0 0)
(0 0 0)
(0 0 0)
(0 0 0)
(0 0 0)
(0 0 0)
(0 0 0)
(0 0 0)
(0 0 0)
(0 0 0)
(0 0 0)
(0 0 0)
(0 0 0)
(0 0 0)
(0 0 0)
(0 0 0)
(0 0 0)
(0 0 0)
(0 0 0)
(0 0 0)
(0 0 0)
(0 0 0)
(0 0 0)
(0 0 0)
(0 0 0)
(0 0 0)
(0 0 0)
(0 0 0)
(0 0 0)
(0 0 0)
(0 0 0)
(0 0 0)
(0 0 0)
(0 0 0)
(0 0 0)
(0 0 0)
(0 0 0)
(0 0 0)
(0 0 0)
(0 0 0)
(0 0 0)
(0 0 0)
(0 0 0)
(0 0 0)
(0 0 0)
(0 0 0)
(0 0 0)
(0 0 0)
(0 0 0)
(0 0 0)
(0 0 0)
(0 0 0)
(0 0 0)
(0 0 0)
(0 0 0)
(0 0 0)
(0 0 0)
(0 0 0)
(0 0 0)
(0 0 0)
(0 0 0)
(0 0 0)
(0 0 0)
(0 0 0)
(0 0 0)
(0 0 0)
(0 0 0)
(0 0 0)
(0 0 0)
(0 0 0)
(0 0 0)
(0 0 0)
(0 0 0)
(0 0 0)
(0 0 0)
(0 0 0)
(0 0 0)
(0 0 0)
(0 0 0)
(0 0 0)
(0 0 0)
(0 0 0)
(0 0 0)
(0 0 0)
(0 0 0)
(0 0 0)
(0 0 0)
(0 0 0)
(0 0 0)
(0 0 0)
(0 0 0)
(0 0 0)
(0 0 0)
(0 0 0)
(0 0 0)
(0 0 0)
(0 0 0)
(0 0 0)
(0 0 0)
(0 0 0)
(0 0 0)
(0 0 0)
(0 0 0)
(0 0 0)
(0 0 0)
(0 0 0)
(0 0 0)
(0 0 0)
(0 0 0)
(0 0 0)
(0 0 0)
(0 0 0)
(0 0 0)
(0 0 0)
(0 0 0)
(0 0 0)
(0 0 0)
(0 0 0)
(0 0 0)
(0 0 0)
(0 0 0)
(0 0 0)
(0 0 0)
(0 0 0)
(0 0 0)
(0 0 0)
(0 0 0)
(0 0 0)
(0 0 0)
(0 0 0)
(0 0 0)
(0 0 0)
(0 0 0)
(0 0 0)
(0 0 0)
(0 0 0)
(0 0 0)
(0 0 0)
(0 0 0)
(0 0 0)
(0 0 0)
(0 0 0)
(0 0 0)
(0 0 0)
(0 0 0)
(0 0 0)
(0 0 0)
(0 0 0)
(0 0 0)
(0 0 0)
(0 0 0)
(0 0 0)
(0 0 0)
(0 0 0)
(0 0 0)
(0 0 0)
(0 0 0)
(0 0 0)
(0 0 0)
(0 0 0)
(0 0 0)
(0 0 0)
(0 0 0)
(0 0 0)
(0 0 0)
(0 0 0)
(0 0 0)
(0 0 0)
(0 0 0)
(0 0 0)
(0 0 0)
(0 0 0)
(0 0 0)
(0 0 0)
(0 0 0)
(0 0 0)
(0 0 0)
(0 0 0)
(0 0 0)
(0 0 0)
(0 0 0)
(0 0 0)
(0 0 0)
(0 0 0)
(0 0 0)
(0 0 0)
(0 0 0)
(0 0 0)
(0 0 0)
(0 0 0)
(0 0 0)
(0 0 0)
(0 0 0)
(0 0 0)
(0 0 0)
(0 0 0)
(0 0 0)
(0 0 0)
(0 0 0)
(0 0 0)
(0 0 0)
(0 0 0)
(0 0 0)
(0 0 0)
(0 0 0)
(0 0 0)
(0 0 0)
(0 0 0)
(0 0 0)
(0 0 0)
(0 0 0)
(0 0 0)
(0 0 0)
(0 0 0)
(0 0 0)
(0 0 0)
(0 0 0)
(0 0 0)
(0 0 0)
(0 0 0)
(0 0 0)
(0 0 0)
(0 0 0)
(0 0 0)
(0 0 0)
(0 0 0)
(0 0 0)
(0 0 0)
(0 0 0)
(0 0 0)
(0 0 0)
(0 0 0)
(0 0 0)
(0 0 0)
(0 0 0)
(0 0 0)
(0 0 0)
(0 0 0)
(0 0 0)
(0 0 0)
(0 0 0)
(0 0 0)
(0 0 0)
(0 0 0)
(0 0 0)
(0 0 0)
(0 0 0)
(0 0 0)
(0 0 0)
(0 0 0)
(0 0 0)
(0 0 0)
(0 0 0)
(0 0 0)
(0 0 0)
(0 0 0)
(0 0 0)
(0 0 0)
(0 0 0)
(0 0 0)
(0 0 0)
(0 0 0)
(0 0 0)
(0 0 0)
(0 0 0)
(0 0 0)
(0 0 0)
(0 0 0)
(0 0 0)
(0 0 0)
(0 0 0)
(0 0 0)
(0 0 0)
(0 0 0)
(0 0 0)
(0 0 0)
(0 0 0)
(0 0 0)
(0 0 0)
(0 0 0)
(0 0 0)
(-0.006587156342 -0.06031291946 0)
(-0.00696832885 -0.06030683435 0)
(-0.006467369687 -0.0661331643 0)
(-0.00685335374 -0.06612666116 0)
(-0.01156424998 -0.05986874847 0)
(-0.01155331272 -0.05914358354 0)
(-0.01309200172 -0.05911813113 0)
(-0.006963431189 -0.05994414117 0)
(-0.007727054603 -0.05993184832 0)
(-0.007737318134 -0.06065702461 0)
(-0.006933626594 -0.05776913484 0)
(-0.01147919014 -0.06568615057 0)
(-0.01158135582 -0.06498003922 0)
(-0.01312303635 -0.06495214396 0)
(-0.006847246758 -0.06576419053 0)
(-0.007619248551 -0.06575118368 0)
(-0.007631468191 -0.0664764618 0)
(-0.007747575423 -0.06138183034 0)
(-0.006983411317 -0.06139403121 0)
(-0.007015539738 -0.0635689647 0)
(-0.006634097735 -0.06357505435 0)
(-0.006628497759 -0.06321267627 0)
(-0.007009939194 -0.06320655294 0)
(-0.003959538542 -0.06361785823 0)
(-0.003944963797 -0.06343799641 0)
(-0.004142402416 -0.06343426556 0)
(-0.00415285453 -0.0636146349 0)
(-0.00390093964 -0.06072000961 0)
(-0.004106203076 -0.06071570887 0)
(-0.004112609929 -0.06089597788 0)
(-0.003910314269 -0.06090002644 0)
(-0.006173024419 -0.07157874801 0)
(-0.006944992526 -0.07156574173 0)
(-0.00389556463 -0.06053918407 0)
(-0.004102614568 -0.06053471845 0)
(-0.006938590493 -0.05813175951 0)
(-0.006557418553 -0.05813787831 0)
(-0.003698300374 -0.06072406395 0)
(-0.003689177189 -0.06054357113 0)
(-0.003772149439 -0.06653946264 0)
(-0.003766696493 -0.06617361135 0)
(-0.003957940355 -0.06617140013 0)
(-0.00415044872 -0.06616984153 0)
(-0.004157358878 -0.06653398344 0)
(-0.004164785461 -0.06379477714 0)
(-0.003974813974 -0.06379770825 0)
(-0.007021272759 -0.06393123945 0)
(-0.006639795935 -0.06393726229 0)
(-0.003808748276 -0.06379973114 0)
(-0.003792131009 -0.06362003852 0)
(-0.003387098512 -0.06654595006 0)
(-0.003384040702 -0.06618005842 0)
(-0.003576439656 -0.06617580595 0)
(-0.003711322118 -0.06090374976 0)
(-0.003774600297 -0.06344052976 0)
(-0.0019336091 -0.06229429523 0)
(-0.001736486076 -0.06229835772 0)
(-0.001726874083 -0.06211905252 0)
(-0.001922440207 -0.06211498256 0)
(-0.003991426512 -0.06216332031 0)
(-0.004169783484 -0.06216142729 0)
(-0.00417384304 -0.06234237608 0)
(-0.003998682348 -0.06234397937 0)
(-0.005473524598 -0.06214299971 0)
(-0.005478684375 -0.06250525042 0)
(-0.005101413868 -0.06251093282 0)
(-0.005096423093 -0.06214871296 0)
(-0.005495086306 -0.06359276202 0)
(-0.005117748425 -0.06359844556 0)
(-0.00511462983 -0.06341734613 0)
(-0.005111916045 -0.06323627357 0)
(-0.005489419523 -0.06323041876 0)
(-0.005452703434 -0.06069319123 0)
(-0.005457789594 -0.06105507252 0)
(-0.005079677483 -0.0610608028 0)
(-0.005074289844 -0.06069902768 0)
(-0.005090994956 -0.06178653417 0)
(-0.005468331702 -0.06178078326 0)
(-0.003981113686 -0.0619832182 0)
(-0.004162935297 -0.06198096354 0)
(-0.003930327935 -0.05926490726 0)
(-0.004115682125 -0.05926232352 0)
(-0.004120151032 -0.05944356868 0)
(-0.003936883157 -0.05944598249 0)
(-0.005432677133 -0.05924256065 0)
(-0.005437778618 -0.05960535148 0)
(-0.005059701328 -0.05961114857 0)
(-0.005054533038 -0.05924839256 0)
(-0.005069330485 -0.06033667251 0)
(-0.005447744076 -0.06033083606 0)
(-0.00541733482 -0.058155941 0)
(-0.005038586063 -0.05816188419 0)
(-0.005049233973 -0.05888587462 0)
(-0.00542754707 -0.05888007356 0)
(-0.003922488145 -0.05908398846 0)
(-0.004110305376 -0.05908119474 0)
(-0.003746504795 -0.05926736412 0)
(-0.003735353623 -0.05908670329 0)
(-0.003756364093 -0.0594481478 0)
(-0.005500951804 -0.06395489974 0)
(-0.005123982208 -0.06396044229 0)
(-0.005120730569 -0.0637794462 0)
(-0.005438385249 -0.0650853569 0)
(-0.005059531729 -0.06507708196 0)
(-0.005104400188 -0.06487418117 0)
(-0.005125745667 -0.06468710965 0)
(-0.005503140671 -0.06468681658 0)
(-0.00391906726 -0.06509474672 0)
(-0.003986656719 -0.06489021634 0)
(-0.004166462025 -0.06489028701 0)
(-0.004103398654 -0.06509925645 0)
(-0.00382522211 -0.06504831043 0)
(-0.003870503486 -0.06488391769 0)
(-0.002027949686 -0.06518493717 0)
(-0.00202197569 -0.06500455978 0)
(-0.002204056709 -0.06500550192 0)
(-0.002210146905 -0.06518577626 0)
(-0.00196316957 -0.06374601195 0)
(-0.002151011206 -0.06374466676 0)
(-0.002156496815 -0.06392545674 0)
(-0.001969323241 -0.06392645371 0)
(-0.003815147983 -0.06216497613 0)
(-0.003800903406 -0.06198531092 0)
(-0.002113542469 -0.0620997669 0)
(-0.002164926871 -0.06224821002 0)
(-0.001957436985 -0.0635655631 0)
(-0.002146645099 -0.06356372314 0)
(-0.002117515431 -0.06247797601 0)
(-0.001934339095 -0.06247742299 0)
(-0.003827790274 -0.06234514008 0)
(-0.001740561524 -0.06248024975 0)
(-0.001777272655 -0.06374658305 0)
(-0.00177033192 -0.0635666263 0)
(-0.01156472195 -0.07076276052 0)
(-0.01307398892 -0.07055695582 3.584216257e-13)
(-0.006932778561 -0.07084080048 0)
(-0.007704780355 -0.07082779363 0)
(-0.008476782148 -0.07081478678 0)
(-0.008501215752 -0.07226500615 0)
(-0.007643687831 -0.06720173992 0)
(-0.006908339282 -0.06939024425 0)
(-0.006136371175 -0.06940325053 0)
(-0.006124151535 -0.06867797241 0)
(-0.006896119642 -0.06866496613 0)
(-0.003820389377 -0.06944227069 0)
(-0.003808169737 -0.06871699257 0)
(-0.004580147949 -0.06870398612 0)
(-0.004592367589 -0.06942926423 0)
(-0.004163611958 -0.06689712553 0)
(-0.003777864775 -0.06690328772 0)
(-0.003953458809 -0.06289200492 0)
(-0.004147461972 -0.06288856783 0)
(-0.004137099378 -0.06307151182 0)
(-0.00393516977 -0.06307548682 0)
(-0.004728087005 -0.06287868425 0)
(-0.004729534878 -0.06306062054 0)
(-0.004536071236 -0.06306388006 0)
(-0.004536743365 -0.06288177326 0)
(-0.004738560036 -0.06360429506 0)
(-0.00454580325 -0.06360750897 0)
(-0.004540801029 -0.06342660976 0)
(-0.00473476884 -0.06342327436 0)
(-0.00339211653 -0.06690978688 0)
(-0.00304839769 -0.06945527737 0)
(-0.00303617805 -0.06872999925 0)
(-0.003897690598 -0.05854256777 0)
(-0.003700949828 -0.05854611838 0)
(-0.003690147975 -0.05836599081 0)
(-0.003889866627 -0.05836218785 0)
(-0.003925945244 -0.05999177926 0)
(-0.003909764362 -0.06017478758 0)
(-0.003711466161 -0.06017849921 0)
(-0.003741893033 -0.05999423998 0)
(-0.003950741832 -0.06530114279 0)
(-0.003700860548 -0.06534241891 0)
(-0.005296833008 -0.06542773872 0)
(-0.004910175217 -0.06543425321 0)
(-0.004940760809 -0.06526761453 0)
(-0.005315462811 -0.06651548235 0)
(-0.004929372022 -0.06652165033 0)
(-0.004923062919 -0.06615918311 0)
(-0.005309249093 -0.06615267656 0)
(-0.004742753205 -0.06378517421 0)
(-0.004551543744 -0.06378822726 0)
(-0.004755177898 -0.06432862297 0)
(-0.004568612684 -0.0643313282 0)
(-0.004563672161 -0.06415009099 0)
(-0.004751516909 -0.0641473305 0)
(-0.004021156923 -0.06433792353 0)
(-0.004007012729 -0.0641576164 0)
(-0.004189765232 -0.06415541346 0)
(-0.004200256708 -0.06433611909 0)
(-0.001784664226 -0.06392649851 0)
(-0.002006600316 -0.06482777782 0)
(-0.003861108193 -0.06433947439 0)
(-0.003844782225 -0.06415927141 0)
(-0.002742363113 -0.06446386044 0)
(-0.002731884947 -0.06428534485 0)
(-0.002911387123 -0.06427642368 0)
(-0.002966613822 -0.06442032044 0)
(-0.002227776726 -0.06656716738 0)
(-0.002222007674 -0.0662043541 0)
(-0.002608980876 -0.06619716036 0)
(-0.002614142502 -0.06656032084 0)
(-0.00223262541 -0.06536075373 0)
(-0.002049989236 -0.06536046118 0)
(-0.003945996078 -0.06144146593 0)
(-0.0037569302 -0.06144434808 0)
(-0.003741728732 -0.0612636881 0)
(-0.003933815717 -0.06126051917 0)
(-0.003742483621 -0.06309049328 0)
(-0.00372765402 -0.06293870487 0)
(-0.001917245049 -0.06153923191 0)
(-0.0018668597 -0.06139208612 0)
(-0.001873650036 -0.06176731618 0)
(-0.004721507828 -0.06215418721 0)
(-0.004724086865 -0.06233526203 0)
(-0.004538059505 -0.06233789081 0)
(-0.004535513587 -0.06215678173 0)
(-0.004537998954 -0.06270029687 0)
(-0.004726584245 -0.0626974902 0)
(-0.003981071199 -0.06270809637 0)
(-0.004161805858 -0.06270592742 0)
(-0.004137853992 -0.06143830086 0)
(-0.004146500637 -0.06161950933 0)
(-0.003958000698 -0.06162238195 0)
(-0.004708654381 -0.06142929043 0)
(-0.004711950491 -0.06161092601 0)
(-0.004523972131 -0.06161375614 0)
(-0.004519733356 -0.06143217014 0)
(-0.004532029545 -0.06197599173 0)
(-0.00471859476 -0.06197328649 0)
(-0.003905851969 -0.05872277352 0)
(-0.003712227197 -0.05872606945 0)
(-0.003760809819 -0.05981101708 0)
(-0.003937559927 -0.05980915113 0)
(-0.00420566828 -0.06451731468 0)
(-0.004029861293 -0.06451855819 0)
(-0.004756549317 -0.06451002141 0)
(-0.004570591033 -0.06451275011 0)
(-0.004678614527 -0.06508232036 0)
(-0.004486829918 -0.06508723641 0)
(-0.004538690488 -0.0648833417 0)
(-0.004727126842 -0.06487969514 0)
(-0.002799969915 -0.06517142457 0)
(-0.002773592651 -0.0649992422 0)
(-0.002989794519 -0.06498717548 0)
(-0.003071674632 -0.0651388451 0)
(-0.002928432415 -0.06464592105 0)
(-0.002746663512 -0.06464470409 0)
(-0.003876297137 -0.06451919108 0)
(-0.002705509441 -0.0637330668 0)
(-0.002759231839 -0.06387907808 0)
(-0.002535333708 -0.06392254475 0)
(-0.002526488493 -0.06374235051 0)
(-0.002552152303 -0.06446598687 0)
(-0.002544721443 -0.06428613947 0)
(-0.001991648209 -0.06446811824 0)
(-0.001983428399 -0.0642876439 0)
(-0.00216880445 -0.06428795768 0)
(-0.002175659979 -0.06446865718 0)
(-0.003771818379 -0.06162501334 0)
(-0.00200617002 -0.06179183841 0)
(-0.001944079697 -0.06302196157 0)
(-0.002134712728 -0.06301989542 0)
(-0.00213810036 -0.06320156315 0)
(-0.001947790723 -0.06320362385 0)
(-0.002514694307 -0.06356392448 0)
(-0.002651519104 -0.06358635241 0)
(-0.001941840183 -0.06284003861 0)
(-0.002134325844 -0.06283713254 0)
(-0.003817079787 -0.06270863537 0)
(-0.004695811717 -0.0607050337 0)
(-0.004698349689 -0.06088567116 0)
(-0.004507342917 -0.0608887545 0)
(-0.004503997596 -0.06070819803 0)
(-0.00451545976 -0.06125051733 0)
(-0.004705020267 -0.06124759315 0)
(-0.004129105151 -0.06125702672 0)
(-0.00411616151 -0.05998877663 0)
(-0.004108886756 -0.06017099467 0)
(-0.004687095511 -0.05997969656 0)
(-0.004688771246 -0.06016115726 0)
(-0.004498538704 -0.06016419386 0)
(-0.004497838753 -0.05998264932 0)
(-0.004501216437 -0.06052712661 0)
(-0.004692761632 -0.06052400051 0)
(-0.00352379123 -0.0607271389 0)
(-0.003508504741 -0.06054823257 0)
(-0.00349379743 -0.06037730253 0)
(-0.003691095805 -0.06036184769 0)
(-0.003897876815 -0.0603574203 0)
(-0.003990954023 -0.06397747631 0)
(-0.003826662451 -0.06397919974 0)
(-0.003921682592 -0.06107997598 0)
(-0.003726241568 -0.06108347099 0)
(-0.003555995935 -0.06108580018 0)
(-0.003539101904 -0.0609062807 0)
(-0.003934370162 -0.06325742728 0)
(-0.003757635104 -0.0632617865 0)
(-0.001815892941 -0.06124323161 0)
(-0.001730571366 -0.06099069918 0)
(-0.004677565712 -0.05925406985 0)
(-0.004680385665 -0.05943544389 0)
(-0.004492608859 -0.05943823693 0)
(-0.004489654158 -0.05925686517 0)
(-0.00449683562 -0.05980110989 0)
(-0.004685117162 -0.05979827465 0)
(-0.004121450442 -0.05980669314 0)
(-0.00409318609 -0.05853910554 0)
(-0.004098820415 -0.05871952235 0)
(-0.004666004852 -0.05852989262 0)
(-0.004668812887 -0.05871055923 0)
(-0.004479858743 -0.0587134732 0)
(-0.004476647034 -0.05853284709 0)
(-0.004486464217 -0.05907553106 0)
(-0.004674678385 -0.05907269696 0)
(-0.003563983633 -0.05926969795 0)
(-0.003549679975 -0.05908932612 0)
(-0.00353516973 -0.05890909254 0)
(-0.003723787572 -0.05890621794 0)
(-0.003914192485 -0.05890321213 0)
(-0.003940308906 -0.05962731261 0)
(-0.003762767724 -0.05962922558 0)
(-0.003589243645 -0.0596307676 0)
(-0.003577655112 -0.05945014784 0)
(-0.004022230173 -0.06470162465 0)
(-0.00419817815 -0.06470074942 0)
(-0.004379394532 -0.06469857235 0)
(-0.004351200771 -0.0648871745 0)
(-0.004294356616 -0.06509327605 0)
(-0.003270076621 -0.06513469367 0)
(-0.00320839977 -0.06494935789 0)
(-0.003378022368 -0.0651552494 0)
(-0.003884027152 -0.06470159437 0)
(-0.00218256309 -0.06464858087 0)
(-0.001999236299 -0.06464809778 0)
(-0.002557430115 -0.06464644339 0)
(-0.002603825586 -0.06517597602 0)
(-0.002579496904 -0.06500298412 0)
(-0.003653808479 -0.06216651503 0)
(-0.00363744844 -0.06198728982 0)
(-0.003621736782 -0.06180754824 0)
(-0.003786475749 -0.06180537922 0)
(-0.003969764403 -0.06180299876 0)
(-0.001895610257 -0.06194193171 0)
(-0.002059444275 -0.06194345085 0)
(-0.002255841418 -0.06249970471 0)
(-0.002308891397 -0.06264680561 0)
(-0.002127610207 -0.06265693612 0)
(-0.001937424113 -0.06265912952 0)
(-0.003997999435 -0.06252544612 0)
(-0.003833292196 -0.06252609827 0)
(-0.003687208426 -0.06252471812 0)
(-0.003670744105 -0.06234630338 0)
(-0.001752983526 -0.06302433878 0)
(-0.001748930103 -0.06284315402 0)
(-0.003480249469 -0.05818918396 0)
(-0.003493289301 -0.0583695434 0)
(-0.003321073628 -0.05837234383 0)
(-0.003306649833 -0.05819204141 0)
(-0.003506692311 -0.05854945866 0)
(-0.003335450719 -0.0585520742 0)
(-0.003575162953 -0.05999522947 0)
(-0.003480746002 -0.06022585482 0)
(-0.003459264142 -0.0599770317 0)
(-0.00455274456 -0.06527549977 0)
(-0.004355570054 -0.06528050663 0)
(-0.004528995343 -0.06580190107 0)
(-0.004334599453 -0.06580382843 0)
(-0.00432871059 -0.06562230393 0)
(-0.004524156448 -0.06562069584 0)
(-0.003759647629 -0.06580003678 0)
(-0.003748937954 -0.06561118028 0)
(-0.003937164063 -0.0656184549 0)
(-0.003947416986 -0.06580260159 0)
(-0.004177389561 -0.06397487435 0)
(-0.00436728637 -0.0639719108 0)
(-0.004376028967 -0.06415281439 0)
(-0.004383224239 -0.06433387883 0)
(-0.002717510494 -0.06410777101 0)
(-0.002854371322 -0.06413073746 0)
(-0.003580797491 -0.06579765865 0)
(-0.003590919876 -0.06559665743 0)
(-0.00299799946 -0.06582196722 0)
(-0.003002004939 -0.06563690637 0)
(-0.003204235804 -0.065625412 0)
(-0.003195915588 -0.06581357822 0)
(-0.003079597745 -0.06533030947 0)
(-0.002871687381 -0.06533010579 0)
(-0.003589732092 -0.06144655854 0)
(-0.003573220206 -0.06126592064 0)
(-0.003382326909 -0.05909153918 0)
(-0.003366503443 -0.05891136143 0)
(-0.003398054385 -0.05927181964 0)
(-0.003520725796 -0.05872919482 0)
(-0.003350717674 -0.0587316211 0)
(-0.003593440256 -0.05981205104 0)
(-0.003444894013 -0.05981091457 0)
(-0.003429445333 -0.05963238163 0)
(-0.003413751543 -0.0594521006 0)
(-0.004386449003 -0.06451527974 0)
(-0.002764531531 -0.06482043316 0)
(-0.002951926871 -0.06481939876 0)
(-0.003129281784 -0.06481203011 0)
(-0.003065444266 -0.06466885127 0)
(-0.002538924743 -0.06410508516 0)
(-0.002350319971 -0.06410573558 0)
(-0.002345905951 -0.06392374818 0)
(-0.002339728096 -0.06374307095 0)
(-0.003605836368 -0.06162720331 0)
(-0.002334113399 -0.06338001919 0)
(-0.002326098658 -0.06320031642 0)
(-0.00250607461 -0.06319091552 0)
(-0.002559420667 -0.06333598964 0)
(-0.002314895621 -0.06302157716 0)
(-0.002452061754 -0.06304386454 0)
(-0.002335673007 -0.0635619873 0)
(-0.002360912535 -0.06279244119 0)
(-0.003702288596 -0.0626897787 0)
(-0.005692495662 -0.01131702814 6.865341629e-14)
(-0.003675855433 -0.006957184575 4.217459715e-14)
(-0.01199315717 -0.02807719536 1.706135233e-13)
(-0.01000112255 -0.02210479004 1.342537193e-13)
(-0.009917330957 -0.02245127169 1.330879851e-13)
(-0.01370380369 -0.03410574982 2.073341498e-13)
(-0.0162840907 -0.05007334897 3.046313202e-13)
(-0.01590609778 -0.04533620043 2.757932771e-13)
(-0.01599293164 -0.04665940993 2.77042278e-13)
(-0.01615667848 -0.05395616681 3.282374372e-13)
(-0.01449888408 -0.05856791646 3.561317907e-13)
(-0.0145383853 -0.06007501151 3.565481244e-13)
(-0.01307033725 -0.05766826947 0)
(-0.01153208617 -0.0576937145 0)
(-0.009995755246 -0.05771912718 0)
(-0.01076361753 -0.05770642594 0)
(-0.006413657321 -0.01401664503 7.741030039e-14)
(-0.004300657473 -0.00894968499 4.94049246e-14)
(-0.0127750637 -0.03284938483 1.817296313e-13)
(-0.01079902148 -0.02622422466 1.44995127e-13)
(-0.01089254651 -0.02712642774 1.467576061e-13)
(-0.01033676518 -0.02394499176 1.386391002e-13)
(-0.01443841064 -0.03945503215 2.183669912e-13)
(-0.01674294589 -0.05646998163 3.127220705e-13)
(-0.01647318442 -0.05151674054 2.852579284e-13)
(-0.01648023164 -0.05289241044 2.865485627e-13)
(-0.01608587035 -0.0480086478 2.783884234e-13)
(-0.01649944995 -0.06041859027 3.345657085e-13)
(-0.01461043158 -0.06469104235 3.580330477e-13)
(-0.01453073673 -0.06614528291 3.581718255e-13)
(-0.01457921942 -0.06158802024 3.569922136e-13)
(-0.01316098738 -0.06347266962 0)
(-0.01162071038 -0.06349386934 0)
(-0.011608923 -0.06276824698 0)
(-0.01008228746 -0.06351911509 0)
(-0.01007067135 -0.06279365832 0)
(-0.01083954424 -0.06278094006 0)
(-0.01085126141 -0.06350639513 0)
(-0.01003757679 -0.06061938135 0)
(-0.01080601175 -0.06060667047 0)
(-0.01081697646 -0.06133146428 0)
(-0.01004837307 -0.061344178 0)
(-0.006993741655 -0.06211917268 0)
(-0.006612400713 -0.06212526063 0)
(-0.006607274055 -0.06176297567 0)
(-0.006988547056 -0.06175685517 0)