/*--------------------------------*- C++ -*----------------------------------*\
| =========                 |                                                 |
| \\      /  F ield         | OpenFOAM: The Open Source CFD Toolbox           |
|  \\    /   O peration     | Version:  v2012                                 |
|   \\  /    A nd           | Website:  www.openfoam.com                      |
|    \\/     M anipulation  |                                                 |
\*---------------------------------------------------------------------------*/
FoamFile
{
    version     2.0;
    format      ascii;
    class       surfaceScalarField;
    location    "0.1";
    object      phi;
}
// * * * * * * * * * * * * * * * * * * * * * * * * * * * * * * * * * * * * * //

dimensions      [0 3 -1 0 0 0 0];
oriented        oriented;


internalField   nonuniform List<scalar> 
6464
(
0.4582923829
0.002105242115
-0.002097955808
0.4583855216
0.002047434191
-0.001959993562
0.4584513877
0.001838605841
-0.001702906847
0.4584818643
0.001556042503
-0.001395729668
0.4584817196
0.001249010106
-0.001104936324
0.4584819769
0.0009379594533
-0.0008704425671
0.4584519783
0.0007684643135
-0.0006325634325
0.4584613353
0.0005212281544
-0.001724719639
0.9186405512
0.0002035872165
-0.0004694187931
-0.001076783727
0.9187020641
3.706348174e-07
0.9157728456
0.9138003706
-0.003882862267
-0.2290674882
0.2289498421
0.004000616144
-0.004192318181
-0.2292469707
0.2292566902
0.004182598667
-0.003905359262
-0.2293630064
0.2294745983
0.003793767382
-0.003345906914
-0.2294251217
0.2295934874
0.003177541145
-0.002679642264
-0.2294243901
0.2296023192
0.00250171321
-0.002048646242
-0.2293850726
0.2295415011
0.001892217816
-0.4588606505
-0.002851972608
0.4602706036
0.00144201953
-0.000154591689
0.460912499
-0.001513436493
-0.4592444708
-0.001741764111
0.9181149659
0.0005384469493
0.001728902532
-0.001064352488
0.9180246525
0.0003190677173
0.9143894254
0.9141194384
-0.2283531573
0.004885751469
0.2281333744
-0.004664241901
-0.2268391351
0.003177306533
0.2260981453
-0.002427668849
-0.2277095162
-0.0006374148058
0.2264453973
0.001910204428
-0.2303456312
-0.005946631218
0.2303791565
0.005913732338
-0.2303588155
-0.004902386503
0.2306965519
0.004564650159
-0.003345145498
-0.2302480225
0.230913153
0.002680015047
-0.4628660628
0.0003110364379
0.4616587105
0.0008963158808
-0.4599851984
-0.001069689492
0.4599461505
0.001108737379
1.034532161e-05
0.9197959629
-0.0009995125304
-0.0006918298157
0.00152038696
0.9165146108
0.0007068614423
0.915202951
0.9148262998
-0.2273674765
0.002121428751
0.2270679807
-0.001818451397
-0.2246494475
0.001240352651
0.2245243808
-0.00109718463
-0.2237568228
0.00040293328
0.2233673802
1.253931157e-05
-0.2264253574
-0.002042464841
0.2255209784
0.002967070513
-0.2342724239
-0.001596026914
0.2377106344
-0.001841621835
-0.003450785817
-0.2317522917
0.2317573164
0.003445761156
-0.4616048651
-0.005200172533
0.4627633522
0.004041685475
-0.4606382605
-0.002876500092
0.461588759
0.00192600158
0.002777420486
0.9196822388
-0.001420513871
-0.001243182496
0.001957682234
0.9173343491
0.0009034306997
0.9162572025
0.9157297305
-0.2260150635
-0.01247907657
0.2255766488
0.01292109313
-0.2255389908
-0.01204926578
0.2265743798
0.01103485177
-0.2242079607
-0.006688512587
0.2253747185
0.005558897789
-0.2329934592
0.00519142263
0.2287416607
-0.0009086274846
-0.22886331
-0.003524818705
0.228351809
0.004055792794
-0.005077467608
-0.2330964689
0.2336218964
0.004552040108
-0.4643630343
-0.006016892537
0.4658868785
0.004493048312
-0.4624782666
-0.003412955676
0.4633894967
0.002501725521
0.003510200132
0.9214527915
-0.003000239868
-0.002280513033
0.001918696612
0.9189258526
0.0008683882663
0.9173075108
0.9165981188
-0.2236836731
-0.03312580526
0.2228629083
0.03394724472
-0.2332654236
-0.02825898858
0.2350635041
0.02647250983
-0.2372482899
-0.01291528788
0.236545905
0.01365132735
-0.227819818
-0.01064252866
0.2294249589
0.009082295534
-0.228671093
-0.005807209576
0.2293996845
0.005115315575
-0.004068900446
-0.2347440764
0.2347846296
0.004034272974
-0.4672024283
-0.006152929103
0.4685163108
0.004839046597
-0.4639044106
-0.003871512736
0.4643691122
0.003406811191
0.002845287804
0.9235921984
-0.002389477092
-0.002595217602
0.001540176361
0.9202309641
0.0006274843278
0.9182202029
0.9172256031
-0.02623289662
-0.1088059241
0.1082162844
0.02682253628
-0.02129672633
-0.2480765257
0.04055529455
-0.02173523351
0.1248329937
0.1257201973
-0.02948992054
-0.2430235471
0.2470427123
0.02549274161
-0.2360967339
-0.01568606253
0.2387912492
0.01303980226
-0.232780685
-0.007641160846
0.2340173841
0.006443193434
-0.004082643869
-0.234804651
0.2352165343
0.00368575961
-0.4698126459
-0.005119548247
0.4705664158
0.004365778336
-0.4652781922
-0.003269860464
0.4661711631
0.002376889541
0.001503163436
0.925064452
-0.001365986822
-0.001609430153
0.0006564359266
0.9210776916
0.0002214495002
0.9186551893
0.9174470526
-0.02887632973
-0.1372663459
0.1399870136
0.02615566205
-0.02946926131
-0.2598551274
0.2637975157
0.02553678804
-0.246065099
-0.01668968664
0.2484186616
0.01437557436
-0.2386532763
-0.008736349556
0.2402291604
0.007205172776
-0.003325593783
-0.2371349315
0.2377846249
0.002691339022
-0.4716817615
-0.002883921917
0.4725765313
0.001989152072
-0.4668687723
-0.001376876983
0.4674383705
0.0008072788411
-0.000612786283
0.9256695942
0.0002804751583
-0.0002728310888
-0.0006343257924
0.9210992311
-0.0003687983798
0.9183896619
0.9170782542
-0.01295072194
-0.152980663
0.1536089926
0.01232239231
-0.01600564855
-0.2725867618
0.2741355075
0.01446055669
-0.2544134346
-0.01009214942
0.2558004992
0.008728561915
-0.2442154806
-0.004903254075
0.2452760034
0.003869739306
-0.001352781663
-0.2397678003
0.2403396148
0.0007947447822
-0.4737015833
0.0002309138195
0.4745850056
-0.001114336147
-0.4676896349
0.001475105284
0.467794107
-0.001579577422
-0.003141306477
0.9249406665
0.002178491339
0.001691742786
-0.002198360028
0.9201562846
-0.001136191811
0.9173274937
0.9159420624
0.004487922377
-0.1516549257
0.1507344648
-0.003567461422
0.0008915376138
-0.2745190172
0.2734820724
0.0001473486013
-0.2579281979
-0.00115364776
0.2580920693
0.001002163579
-0.2477497193
0.0001591074738
0.2482439645
-0.0006383704957
0.001827869418
-0.2416282059
0.2418868803
-0.002078481343
-0.4744801831
0.004578991997
0.4738974091
-0.003996218002
-0.4675340733
0.003775497069
0.4677817707
-0.004023194432
-0.005911305053
0.9228322345
0.004323451176
0.003696285889
-0.003877287714
0.9181222673
-0.00195755697
0.9154077629
0.9139845054
0.01406879062
-0.1424713109
0.1411539335
-0.01275141324
0.01335283814
-0.2681311491
0.2658430769
-0.0110648442
-0.257221359
0.007101230981
0.2564476515
-0.006324835497
-0.248941725
0.005558519735
0.2488426374
-0.005458376628
0.005299508346
-0.2420075965
0.2419015477
-0.005192973425
-0.4729598311
0.008682834024
0.4717122623
-0.007435265241
-0.4678879211
0.006324906218
0.4668819486
-0.005318933686
-0.008456989391
0.9195733944
0.006072748214
0.005643081326
-0.005493333938
0.9151586118
-0.00270148871
0.9126159177
0.9112830167
0.01740349372
-0.1321939052
0.1308991832
-0.0161087717
0.01954290638
-0.2588246076
0.2566226692
-0.01734789806
-0.2539023772
0.01249843528
0.2533584363
-0.01196948724
-0.2478277518
0.01038623652
0.2472530919
-0.009817636495
0.008208479521
-0.2405953924
0.2399568519
-0.007573755513
-0.4702073763
0.01205012508
-0.01030193605
-0.4658073328
0.008776530683
-0.007464532679
-0.01070846877
0.006411340884
-0.006891275992
-0.003346522668
0.1560376039
0.01548428647
-0.1550865561
-0.007947747223
-0.008487586993
-0.1381870714
-0.0320485244
0.1413592661
0.1538503247
-0.002674812312
-0.154846666
0.002017401926
0.001653751703
0.1566272423
-0.006514093174
-0.007026267191
0.1436088488
-0.01336046637
-0.1449992869
0.007443666213
0.007307238213
0.1527744632
0.002960871391
0.002602912442
0.1326538127
-0.01719389029
-0.1339279116
0.01846798912
0.01547469417
0.1422029453
0.01891866538
0.1311386411
-0.1056058012
0.104319084
0.02913821335
-0.1348458172
-0.03247946762
-0.1221632688
-0.02282127865
0.1236878211
0.04158557737
0.009013177041
-0.04126665319
-0.009332101213
0.02381591634
-0.06972602346
-0.02591662668
0.07182673381
0.01457700828
-0.1520733848
0.2786391924
0.02020179139
-0.2761378694
-0.02270306312
-0.2641536707
-0.03395866234
0.2686445697
0.04798744416
0.0007935058593
-0.04807434643
-0.0007066035871
-0.04474465149
0.003466811027
-0.002870107962
0.04414794842
-0.001887726422
-0.1524420116
0.2800178673
0.003157561365
-0.280867269
-0.002308132985
-0.01762232545
0.2802558727
0.03878149856
-0.004234644033
-0.03913185895
0.004585004423
-0.04179925628
-0.001690711099
0.001238425437
0.04225154194
-0.01204467906
-0.1437870982
0.2713480329
-0.01069964477
-0.2741062078
0.01345801177
0.002364124517
0.2785453402
0.0699095939
-0.01099506025
-0.07040357795
0.0114890443
-0.07357932209
-0.01009206633
0.07312051277
0.00534615103
0.005204724619
0.008139999089
0.03067197027
-0.007822818084
-0.03098915128
0.06342190536
-0.01135126488
-0.06386011242
0.01178947194
-0.06658260046
-0.01158815301
0.01196205209
0.06620870138
0.004015085832
-0.04509766739
-0.003662069933
0.008659308459
-0.008877859182
0.04180412809
-0.1499548604
0.02272503208
0.1520654196
-0.01219561526
-0.01263997605
-0.08134379087
-0.008284150287
0.08209152462
0.016195725
0.04359771167
0.004167417804
-0.04375004364
-0.001509242883
-0.04133222139
0.001042207993
0.0001440953294
-3.55602856e-06
0.04784690486
-0.07797426183
0.001907208928
-0.001880468579
0.07794752148
-0.04660720484
0.04642691923
0.0003243809383
0.04122254523
-0.001745933645
-0.04098585447
0.04328878963
0.003775733062
0.0007963605219
-0.0466100595
0.002605893286
-0.07809553965
-0.002484615457
-0.009903415608
-0.07406711775
0.00521530212
0.005175909155
-0.004105178863
0.00428151814
0.03860515928
-0.149086345
-0.01028404233
0.147731988
0.005934456606
0.005703942755
-0.07715482666
0.004089628353
0.07664279708
-0.007682777633
0.07336790016
-0.009451868641
-0.07381944712
0.04144365406
-0.001911819921
0.004078939229
-0.007413573677
-0.03914913819
-0.03890569806
-0.009082733608
-0.1503210985
0.005274652422
0.005042834655
-0.01150190651
-0.06703740528
0.01195671132
-0.01122854191
0.01161950056
0.06951863526
-0.02942713352
-0.007464878207
0.007056996692
-0.02982431981
0.008537185379
0.01160552254
-0.007426461498
0.03020485984
0.0126039114
-0.04282823153
1.946028603e-05
0.0187266812
-0.03516350281
-0.02066546368
0.03710228529
0.04540867487
-0.00769742572
-0.03754340022
-0.000167848933
-0.01598935544
-0.13339844
0.2596433814
-0.01850789044
-0.2626063026
0.02146881084
0.01620076654
0.2685002171
0.03903940285
-0.007463376333
-0.03138475809
-0.0001912684295
0.06452466444
-0.01321570835
-0.06510600965
0.006929381751
0.006867671804
-0.03316896475
-0.006614074985
0.0067056242
0.03307741553
-0.0697698722
0.07147326668
0.02211252186
-0.009284354282
0.01730182456
-0.08034808411
0.02480313079
-0.1473944905
-0.01351486918
-0.01384863155
-0.006661893425
-0.0333108011
0.006803729779
-0.03527265753
-0.00683204966
0.007281464464
0.03482324273
-0.138067271
-0.01637601602
0.01777367888
0.1366696082
-0.0699295985
0.06945808175
-0.01075702516
0.06659996471
-0.01107376491
-0.06702810631
0.0729357078
-0.009659873973
-0.01061900882
-0.07030564993
-0.01592820702
-0.1394670993
0.01732803532
0.0185155365
-0.05234711877
-0.0172816755
0.05111325775
0.02371276455
-0.06774542727
-0.02569336075
0.03504814
-0.1213333618
-0.01814855439
-0.01945037055
0.06134113937
0.06254300734
-0.05592735007
0.05496582622
0.01947706035
0.03054715827
-0.0003422984281
-0.0776660792
0.02163711752
0.07946339881
-0.01160292097
-0.01183151615
-0.04116842572
0.05615136322
0.01556422077
-0.03500463604
0.03656418904
0.0171671282
0.01436839205
-0.04293290636
0.02254115385
-0.0758212935
-0.01209419786
-0.01229174169
-0.04038951544
0.002525653585
-0.002519648076
0.04038350994
0.00221325519
-0.04069015747
-0.001912613169
-0.03941614751
-0.003215515644
0.003125952864
0.03950571029
-0.003448811406
-0.03971644207
0.003749105959
-0.006149699097
0.03623308027
-0.03529896914
0.005215587969
-0.009677470419
0.02210553877
0.03298060652
-0.07172378936
-0.01072103372
0.01110600741
0.07133881567
-0.03813125135
0.03627297873
-0.007819197801
0.03617102862
-0.006355106497
-0.03596562122
-0.03410850488
0.0381434723
-0.00380691884
-0.000228048578
-0.006861837815
-0.03896683926
-0.01056667739
-0.07214744221
0.005528757954
0.005461572288
0.06258410594
-0.01291599008
-0.06308137791
0.01341326206
-0.01317851928
0.06398814143
0.006865046954
0.006849995336
0.01913039192
0.02897782268
-0.009068811743
-0.04295002786
0.00605556007
-0.005847495429
0.04274196322
0.006462125663
-0.04297249297
-0.006439660552
-0.03908183782
-0.0009790764486
0.0008662741017
0.03919464016
-0.001329301103
-0.0392555039
0.001502967186
0.03993459371
-0.001053875043
-0.04021001978
0.08009300062
-0.0004190071414
-0.08036598816
0.0006919946739
-0.08102295827
0.001498581993
-0.001323397703
0.08084777398
0.07893118158
-0.002647541389
-0.07924396601
0.002960325823
-0.00100728941
0.001279809042
0.07982048099
0.03992358415
-0.0009680668838
0.04110865041
0.002349652755
-0.04124504797
0.08131010574
0.005085908698
-0.08131980998
-0.00507620445
-0.08110306709
0.007423965634
-0.007548265132
0.08122736659
0.002182701024
-0.08116187867
-0.002043780622
0.004342533492
-0.004321071363
0.08128864361
0.04123678169
0.002397522308
-0.03785089516
-0.004633388154
0.004811523377
0.03767275994
-0.001878718376
-0.03216097499
-6.881151633e-05
-0.004659799409
-0.03807042178
0.004879326031
0.006141484398
0.03633227221
-0.006302727986
0.006924611061
0.03476101197
-0.006616241317
-0.03506938171
0.06825098147
-0.01138695208
-0.06867456126
0.01181053188
-0.03576615593
0.007418109457
0.005482596896
0.03689196777
0.01935898343
-0.0002285915053
-0.01282863739
0.01318351394
0.03443639928
-0.03761892849
0.003182529204
0.03434072041
-0.006987609114
-0.03442691569
0.007073804401
-0.03206086447
-0.006959501274
0.006648374511
0.03237199124
-0.003752303341
-0.01291245111
0.01404344957
0.002621304898
-0.007670778282
-0.03305041515
0.00866032896
-0.03034481983
-0.007696657821
0.006455377259
0.0315861004
0.02429718025
-0.04808517518
-0.02262848017
0.02276426736
0.02365220775
0.01807565436
-0.0334763724
-0.01976278477
0.02590126222
-0.0576349987
-0.02744734842
0.05918108491
-0.05235137763
0.02689520589
0.02410590874
0.02564744327
-0.04521410318
0.003814130822
-0.005705816481
0.04710578884
-0.04042281396
0.039702367
0.0008635901503
-0.0001431431816
0.03864661499
0.0005802928929
-0.0388814595
-0.0003454483845
0.04221794579
0.002607486427
-0.04282708823
-0.001998343985
-0.04017799619
-0.003682560374
0.003821392961
0.0400391636
-0.04212377464
0.003503514874
0.04250591077
-0.003885650998
0.03741902804
0.006890235829
-0.005960090031
-0.03834917384
-0.03704428309
0.03717591408
-1.566896192e-05
-0.0001159620276
0.0427866513
-0.003520721502
-0.03905234559
-0.0002135842028
0.0424467421
-0.002966896381
-0.04277133666
0.003291490946
-0.04333544844
0.005868541824
-0.006793234143
0.04426014076
-0.03926466919
-0.02738734188
0.05537731886
0.0112746922
0.001820286317
-0.04205382902
-0.0001892712653
0.04225773394
0.00638311329
-0.04217872157
0.07996352232
0.01158624107
-0.07952603276
-0.01202373063
-0.07771082016
0.01400725307
-0.0146929263
0.07839649339
0.008243926208
-0.08091826159
-0.008428731703
0.01073728174
-0.0111169843
0.08034322488
0.04224105626
0.006072237747
-0.04008909503
-0.001137565752
0.0007537438519
0.04047291693
-0.036571921
0.03666510356
0.0001541656101
-0.0002473481725
0.0001206607865
-0.03689804025
-0.0002669036303
0.04451576065
-0.002715380281
-0.04652469322
0.004724312853
0.00365082978
0.03808922161
-0.004321023348
0.002563775476
0.04129930782
-0.003495336134
-0.04036774716
0.03867069338
-0.004230086053
-0.03862757811
0.004186970782
0.07520250614
0.00455094359
-0.00858891826
-0.07582433087
-0.007287224608
0.07423673832
-0.07464471478
0.007695201062
-0.07585943892
-0.006410654179
0.006811375366
0.07545871774
0.03949752649
-0.003196443172
-0.03974989472
0.07745687669
-0.004556054524
-0.07787193889
0.004971116722
-0.003160340702
0.003484446244
0.07860707603
-0.006054110425
-0.07627778663
0.00647245813
-0.004963209088
0.005340179513
0.07707990627
0.0394585355
-0.003176524654
-0.01142852531
0.01179184282
0.06788766396
0.03449988002
-0.006570917708
0.06631914151
0.00665397436
-0.01284911145
-0.06678589784
-0.03836523789
-0.009518031259
0.01927662568
0.02860664346
-0.04041373303
0.018501211
-0.01893246535
0.04084498738
-0.03085093542
0.04026754889
0.02501978581
0.01874026838
-0.03965325823
-0.01950074318
-0.02898817792
-0.00228896915
0.03145476762
-0.0001776205449
-0.006144578457
-0.02261976563
-0.0002238338338
0.03333978195
-0.007291858454
-0.03351900068
0.007471077185
-0.007480446502
0.008045652534
0.03377551437
0.01985160748
-0.01958769127
-0.0002639162081
0.01510240095
-0.01832358717
0.002454652679
-0.01426393043
0.01365830986
0.002008965803
0.006678394892
-0.03157898425
0.03284198355
-0.007941394194
0.009328613349
0.03321312877
-0.008151996093
-0.03438974602
0.03395429426
-0.006754682827
-0.03427179505
0.007072183618
-0.04140760523
0.02039139875
-0.02121616084
0.02806124484
-0.0001666891052
0.03070291111
-0.03023519
-0.0004677211138
0.04475906492
0.01238025802
-0.04369782674
-0.01344149621
-0.04135464854
0.01308705051
-0.01386056369
0.04212816173
0.0464655755
0.01144416853
-0.04450142103
-0.013408323
0.01160308454
-0.01190701005
0.04506299043
0.01328200482
-0.04068730942
-0.01394934394
-0.03815494088
0.01407635235
-0.0149191607
0.03899774924
-0.0407300668
0.04194153508
0.01728974272
-0.03729899599
0.03644876859
0.001156616461
-0.0003063890615
0.02600573887
-0.02592964958
-7.608928835e-05
0.004334603718
-0.04283564636
-0.006713060538
0.002426550839
-0.001857080748
0.0416484757
0.03835421804
0.0005111938113
-0.0002187968561
0.0006283923421
-0.03776310438
-0.000164283951
0.0004289819507
-0.03737780427
0.03876174976
-0.001812927434
0.001068480003
-0.002188435803
-0.04100381884
-0.003439977404
-0.0400300129
0.003291994118
0.03749943704
-0.03608694117
-0.0003440158631
-0.03405339352
0.03502965638
-0.0005472809099
0.03540959014
-0.03500980169
0.006490447375
0.04138773756
-0.0003847856439
-0.002157719971
-0.03177131243
-0.0001243611115
-0.003516305686
0.00437796531
0.04158508247
0.05060225165
-0.007608310577
-0.0002072897694
-0.003561910349
-0.03597361389
-0.03759004172
-0.007004806437
0.007605050371
0.03698979779
-0.005451934228
-0.03617911641
0.004041008912
0.03749613408
-0.006052339382
-0.03689572893
0.03580571294
-0.005969337914
-0.03590495188
0.006068576854
-0.03677885326
-0.005839877512
0.00626508844
0.03635364233
0.03388483225
-0.006897445604
-0.0331319651
0.03686311939
-0.005838846554
-0.03720515326
0.006180880419
-0.03793815403
-0.005337241563
0.00519342422
0.03808197137
-0.005791100352
-0.03701191934
0.006024166426
-0.005641111257
0.005633270684
0.03687095997
0.03593465636
-0.004338793253
0.007452726384
0.03247813235
-0.00762463148
-0.03230622725
0.03227122505
-0.007102529184
-0.03252200364
0.007353307778
-0.007334714654
0.007691019595
0.03298347701
-0.002199243937
-0.0455593871
0.04371503451
0.004043596528
-0.008151390511
0.008597027506
-0.03971030618
0.005966889061
-0.04271069526
-0.006591642238
0.02735595486
-0.03527731567
-0.0002300296998
-0.04166559391
0.03960910334
-0.0001427533702
-3.138701676e-05
0.04058420182
0.006037583201
-0.04320243342
-0.003419351601
0.009850756232
-0.01064633349
0.04726115276
0.004979147706
-0.0464600358
-0.0001847058082
0.008994462273
-0.008066807857
0.0396565474
-0.0420508559
0.007523296523
-0.007805033691
0.04233259306
-0.04229695868
0.04265964573
0.008631775225
0.005842306412
-0.04642254581
-0.03595612808
0.03626172082
4.205599989e-06
-0.0003097983399
0.0002254356192
-0.03638979112
-0.0004075655003
-0.001019718435
-0.0397422391
0.0006728624999
-0.003208964639
0.005717401585
0.0420073237
0.02531724502
-0.02501403626
-0.0003032087617
-0.0005715267521
-0.03532652021
-5.808112107e-05
0.03901394011
-0.005859214052
-0.03973167138
0.00657694532
-0.03764893996
-0.005131230093
0.004345886122
0.03843428393
-0.005169159742
-0.03752609914
0.004757104856
-0.006241438237
0.007380447545
0.0378749308
0.02308410658
-0.0226967987
-0.0003873078828
0.04139610787
-0.04003529196
0.001202959568
0.001971658695
0.03708876123
-0.006538996882
-0.03833467043
0.007224727345
-0.004251337403
0.003645068982
0.04200237629
-0.02093055197
-0.0002856088745
-0.03555505434
-0.006518510502
0.006269181303
0.03580438354
-0.02755564794
0.0307079015
-0.00304013719
-0.0001121163695
-0.00964678103
-0.04286275519
-0.006049900817
-0.02135744975
-0.0001482973802
-0.006911179935
-0.03584381482
0.007199940412
-0.03069725048
-0.0002152610199
0.02632380286
-0.1344519355
0.03054612952
-0.2592440891
-0.03545230185
-0.2447197882
-0.03383027972
0.2490735263
-0.02559195428
0.02854276524
-0.002731338093
-0.0002194728723
-0.01993935577
-0.005476311235
-0.0001762872742
0.02230540977
0.2568774996
-0.01963370218
-0.0003056535839
0.06622804351
-0.01121623181
-0.02125907418
-0.1286328744
0.01135732166
-0.01731072886
-0.1285517371
0.01857651402
0.01659563492
-0.02036857294
-0.01570447321
0.01947741123
-0.02028085028
-0.009210648552
0.01867684715
0.01081465168
-0.006071175489
0.006914530536
-0.01375580615
0.02367365669
-0.02874970926
-0.03254287593
0.01848068843
-0.02658262919
-0.01921253488
0.02731447564
-0.02286044036
0.02147365179
0.0179824235
-0.1273573846
0.02790547376
-0.02985127036
0.1293031812
-0.12411615
0.125519174
0.03364511599
0.02197461268
-0.06803172032
0.009861345849
-0.04033239343
-0.0101543483
0.04062539589
-0.04331875941
0.04380099806
0.0111208459
0.04556745158
0.0103994013
-0.04452268435
0.03113090366
-0.00699569586
-0.03134727167
0.007212063871
-0.007047556674
0.007440951436
0.03187783029
0.03150081294
-0.008540711851
0.006592038167
0.06584207411
-0.01272904575
0.0646050527
-0.01274079419
-0.06507996685
0.06500209511
-0.01152573255
-0.06542797071
0.01195160814
0.04600528609
0.009412921715
0.007342362633
-0.04360173811
0.007738098391
-0.04195746707
-0.00783148722
-0.02666988857
0.005581126833
0.008030029814
-0.02958563296
-0.00826871666
0.03607221068
-0.02777970508
-0.0002624757855
0.01793950749
-0.006921576689
0.007049226337
-0.05677942667
0.01448875308
-0.0005375579359
-0.0334906058
-0.003819393329
-0.0002334010877
-0.03291948478
0.03301689041
-0.007560781965
0.004879690628
-0.03114955183
-0.006649623575
-0.02625819394
-0.0002468735236
-0.0331400643
0.03313700925
-0.006956446217
0.03388357326
-0.006913267354
-0.03395791502
0.03279333331
-0.006591380374
-0.03289318865
0.006691235716
0.01477160327
-0.07692921996
-0.01555320347
-0.07408830516
0.01675908618
-0.01779749844
0.07512671742
-0.07649070925
0.07795577005
0.02017205672
-0.006666389632
0.006976357352
0.03364432654
0.03320528561
-0.007688814665
-0.007251894674
-0.03355894791
-0.06347739073
0.02191904291
-0.02284264424
0.06440099206
-0.06000312892
0.06076756978
0.02513682136
0.01679899407
-0.03372797575
0.01372892269
0.04291355312
-0.0004911125902
-0.04356788989
0.043305813
0.01399099957
-0.04264094761
0.01463727849
-0.02901492639
0.0290957354
-8.080901175e-05
0.009533517453
-0.03838252115
-0.0001659226902
0.007176442367
-0.03536604385
-0.007109367661
0.03326472414
-0.03221719789
0.006128916119
0.003002552648
0.03547775946
0.02224553749
-0.0001399987151
-0.006416113507
0.02871847388
-5.68228835e-05
0.03396124708
-0.007396754068
-0.006024672169
0.03511727449
-0.03524009597
0.00614749365
-0.005921545759
0.006119336353
0.03560792234
0.03710379066
-0.006612463013
-0.007542120085
0.04602973381
-0.0003441414269
-0.03914053429
0.03817684165
-0.006578427452
-0.03820803078
-0.004739422349
-0.007476516958
0.00597654322
0.03047779642
-0.03212876845
0.03238411931
-0.007731867822
-0.008180689783
-0.03305253324
0.03508369756
-0.001805337199
-0.0002258271267
-0.03040424364
-0.002341250921
-0.0003070386761
-0.03638030589
-0.003706443266
0.00238704466
-0.03440567088
-0.004361679664
-0.02963047786
-0.0001434524666
-0.02357228221
-0.006551383034
-0.0002805783927
-0.02336960998
-0.0002026722366
-0.00427842821
0.004419802787
0.03852931881
0.04151044615
-0.004462475735
0.03857463316
-0.005837321868
-0.03927630817
0.02564331266
-0.000307786018
-0.0326705663
0.04015974205
-0.007255537727
-0.0002336380243
-0.003825387235
-0.0003024138264
0.03039006177
-0.02921799849
-0.004977286654
0.03263601033
0.03355326965
-0.006158565064
0.01065267783
-0.001128896998
0.004519668753
-0.01060488029
0.01322618519
0.004770670816
0.005882007017
0.007459020896
-0.03318676194
-0.00732267411
0.04019137171
-0.03245051224
-0.0002818385798
0.02726343822
-0.02065662962
-0.0001514313358
-0.005033423343
-0.0001536506773
-0.006634084885
-0.03040931393
0.0158890718
-0.01656135237
0.0310815945
-0.02869321609
0.02938603075
0.01778787377
0.02315810076
-0.03033537949
-0.04555560763
0.04182645629
0.003904048312
-0.0001748969755
-0.05335574345
0.008120831295
-0.0003206954794
-0.04061354044
0.04025636274
0.0004317924495
-7.461474998e-05
0.001384442172
-0.0001715263164
0.0006198134182
0.03928195503
-0.0001994014569
-0.04460402568
0.04370948226
0.001514356843
-0.04569422229
0.001953786754
-0.04291823154
0.04226501814
0.001233506296
-0.0005213138718
0.001312564589
-0.0001208183378
-0.0001022213175
0.03772238334
-0.0004442479407
-0.04238842593
0.04321678868
-0.0009305840626
-0.04180484185
-0.0005992530428
-0.04406771082
0.04413106195
-0.003584072628
0.000974030931
-0.001824953079
-0.0003559313215
0.009021911767
0.0463764238
-2.101670816e-05
-0.04546367572
0.04718614852
0.00729943897
-0.04261471114
0.008425727619
-0.04684367513
0.002969739165
-0.004568445034
0.004910918423
-0.0002458502473
7.949873017e-05
0.03667305856
-8.745372807e-05
-0.04032879599
0.04072574495
-0.0003174502328
-0.03991919831
-0.0002554320644
-0.04126358326
-0.0004205977997
-0.0002156656641
-0.0003221726506
-0.0004406473561
-0.04035913505
0.04147560688
-0.0007564797002
-0.0003599921333
1.28375884e-05
-0.0001156098977
-0.04485943844
0.05238096141
-0.007214605828
-0.0003069171435
-0.003243103068
-0.0001407284925
-0.01826489627
-0.0002097910643
0.01966782065
-0.0003911949641
-0.00782224317
-0.0002896412596
-0.00880123267
-0.0003253887787
0.03380069804
-0.05234752493
-0.0003856384686
0.03445950509
-0.0006588070485
0.0185250658
0.03977783217
0.0004897167149
-0.03548141972
0.05232123165
0.02293802025
0.02294044844
-0.03340208236
-0.03335286599
0.03299341681
0.0003594491771
0.01907128142
-0.0001029157658
-0.0017828235
-0.0002530146842
-0.02221835015
-0.0004014154792
-0.006162097597
-0.0002444888666
-0.02973958531
-0.007572064119
-0.009167534522
-0.01389634169
-0.03342084414
-0.007733714885
-0.0002530462041
-0.0002652308752
-0.005182969791
-0.0001766295129
-0.04201242891
0.05757493885
0.01514040117
-0.01277374004
0.01406712414
-9.537691995e-05
-0.01126528267
-0.04442290855
0.01118677019
0.04176020101
-0.04349196623
0.05744761342
-0.0460251093
0.007951719906
-0.0003091317606
0.01200633751
-0.0004565079604
0.002822173862
0.03379032227
-0.0001637275363
-0.03872837101
0.03755258541
0.003997959466
-0.03968894069
0.002117186139
-0.03767382055
0.01032381597
-0.008063403652
0.007942168511
-0.0002027309641
0.0004664209012
0.03804029696
-0.0001524998274
-0.04163335199
0.04101528233
0.001084490555
0.001142859963
-0.04041570271
0.001355154361
-0.0005257774909
0.001125357116
-0.0002485849067
-0.001268196905
0.0001291336651
0.039900813
-0.03919009058
-0.002276322627
0.0401982163
-0.0382770958
-0.002725922209
-0.03553156511
-0.000304304983
-0.0002510710801
-0.0003727750697
0.023758053
-0.04924299575
-0.009524858935
0.02400407385
-0.0002460208484
0.03092409944
-0.0004295782197
-0.007602534945
-0.0002527232481
-0.02470992978
-0.006956389483
-0.0001049931743
-0.0243541878
-0.0003557419714
-0.009607233203
0.03585529704
-0.04224542587
0.03929629198
-0.00665809931
-0.0057226745
-0.03791782417
-0.003921181978
0.007074706333
-0.005696238527
0.04430558846
-0.03644055344
-0.000259984652
-0.00939835825
0.02148674882
-0.007774604309
0.02179878053
-0.0003120317091
-0.02811065082
0.03130866519
-0.0001954617226
-0.0001829541714
0.003039987285
-0.005257856611
0.03204250946
-0.0002840482963
-0.0003570350665
-0.03625750004
-0.00658883698
0.03594889141
0.009320581446
-0.007401239829
0.003729333251
0.0416265533
-0.001640852039
-0.04364587759
0.04231452563
0.005060685208
0.005252069894
-0.04485435095
-0.04155429093
0.007536607295
-0.005156423445
0.00591665815
-0.003240176325
-0.03796416272
-0.0005533292803
4.088583249e-06
-0.00298416432
-0.04576038924
0.005542120143
0.03902802222
-0.04165566606
-0.0003565204778
0.03576256229
-0.0001538916787
0.04702531802
-0.000224038093
0.005663880321
-0.0002942283589
0.00716464384
-0.0559143861
0.009735489142
-0.0002811388438
0.02774899697
-5.324253313e-05
0.02807833309
-0.0003293361232
0.01182049439
0.0001219298856
0.0363968204
-0.0002570294581
-0.03877942268
0.03917218047
-0.0002708278989
-0.03825627198
-0.0005189451004
-0.03949182429
-0.0002019383988
-8.884059725e-05
-0.0002308032279
-8.181131827e-05
-0.007369133501
0.0328842998
-0.0001979212815
-0.03683766459
0.03655068476
-0.007082153661
-0.009470739437
-0.03752149391
-0.001306304824
0.002206558171
-0.003177367326
-0.000235662237
-0.03910714069
0.04694103358
-0.007743962613
-8.993027312e-05
-0.003872396056
-0.0001510470691
-0.006349205559
-0.0001971657238
-0.03372033435
-0.007034542093
-0.00947609947
0.0005329207133
-0.03863544983
-0.001932762848
0.0349585408
-0.03422012992
-0.0002054901677
0.03649343167
-0.0003319312987
0.03327954368
-0.0003837855469
-0.0006543472353
-0.0002862390028
-0.002201035836
0.009816070649
-0.04070546437
-0.007445276701
0.0348305319
-0.04838407123
0.03550387621
0.04043541575
-0.0002969150974
-0.007741709564
-0.0002069459142
-0.006444797647
-0.004093713123
0.03501082864
-0.000209214009
-0.03505016907
0.03655132673
-0.00559487079
-0.03280712433
-0.005283181928
-0.03618493152
-0.008195155262
0.03473330575
0.00759183432
-0.007225439108
-0.0002600922286
-0.03564739708
0.04344201943
-0.007570953687
-0.0002236686604
-0.004040707341
-0.0002980245473
-0.03169376797