/*--------------------------------*- C++ -*----------------------------------*\
| =========                 |                                                 |
| \\      /  F ield         | OpenFOAM: The Open Source CFD Toolbox           |
|  \\    /   O peration     | Version:  v2012                                 |
|   \\  /    A nd           | Website:  www.openfoam.com                      |
|    \\/     M anipulation  |                                                 |
\*---------------------------------------------------------------------------*/
FoamFile
{
    version     2.0;
    format      ascii;
    class       surfaceVectorField;
    location    "1.42";
    object      Uf;
}
// * * * * * * * * * * * * * * * * * * * * * * * * * * * * * * * * * * * * * //

dimensions      [0 1 -1 0 0 0 0];


internalField   nonuniform List<vector> 
5999
(
(99.99824963 0.007429708694 -2.0970513e-21)
(99.99304193 0.006728392838 6.218436059e-21)
(99.99742355 0.0175699895 -2.066794116e-21)
(99.99050767 0.02255707071 2.109667929e-21)
(99.99580048 0.03387186353 -4.118824506e-21)
(99.98474286 0.04690708915 1.245906229e-20)
(99.99812696 0.03805622781 1.267162988e-21)
(99.97454874 0.08520107332 -8.162332782e-21)
(99.98921045 0.0840906767 -1.367912841e-21)
(99.99724969 0.06868363923 1.976455202e-21)
(99.9990545 0.04099054647 9.731179019e-22)
(99.98746647 0.1129245765 1.960882377e-21)
(99.99713353 0.06397385161 9.55150977e-22)
(99.99787827 0.05056970056 -9.919892041e-22)
(99.99647433 0.080674403 9.551119658e-22)
(99.98084955 0.1806674951 1.89807727e-21)
(99.99617746 0.1011524674 0)
(99.99599442 0.1234958779 -3.431066498e-21)
(99.97536969 0.2718212839 -3.431048641e-21)
(99.99547687 0.1498398954 -8.88922946e-22)
(99.9949211 0.1798076039 2.988371667e-21)
(99.9688368 0.3915297944 3.233920607e-21)
(99.99443738 0.2131700254 3.978180221e-22)
(99.99409716 0.249207596 -2.555508037e-21)
(99.96482155 0.5351901001 3.684198438e-22)
(99.99397288 0.2868471122 -2.544978478e-21)
(99.99414841 0.3244727821 3.906252091e-22)
(99.9668461 0.6846350506 -1.660233385e-21)
(99.99467663 0.3599372404 2.306247612e-21)
(99.99563668 0.3909904556 1.894185585e-21)
(99.97733885 0.8075443273 -8.176684554e-22)
(99.996834 0.4152907949 0)
(99.98383519 0.02067147651 1.037698098e-20)
(99.97361266 0.01117473178 2.951093288e-22)
(99.97565645 0.04931787324 1.654322425e-20)
(99.96365214 0.0380855299 -1.452892722e-20)
(99.96029706 0.09497434976 8.628319865e-21)
(99.94201255 0.08062471489 -2.247139328e-20)
(99.95305357 0.1494935113 -1.471854743e-21)
(99.90520682 0.1488858578 4.324996587e-20)
(99.9203701 0.1887722075 -9.510901473e-21)
(99.93070694 0.1914009443 -2.042401206e-21)
(99.94717467 0.1887232913 4.00664393e-21)
(99.96741994 0.1344568003 1.991689597e-21)
(99.94925892 0.2208667541 1.935508752e-21)
(99.93244599 0.2424273897 1.974655085e-21)
(99.88678075 0.3193836585 -3.999323043e-21)
(99.91609068 0.3092145165 -2.58081305e-23)
(99.92287675 0.3522340324 1.89837515e-21)
(99.89708531 0.3909652657 -2.113599703e-23)
(99.83175536 0.5099408897 0)
(99.88726928 0.4550810201 0)
(99.85722715 0.521699234 -2.356655694e-21)
(99.89595394 0.5205523489 -4.621249956e-21)
(99.88190852 0.5499093407 -6.677023535e-23)
(99.84897352 0.6350770208 -1.039299418e-20)
(99.87303218 0.6000653879 -3.572807224e-21)
(99.84480771 0.8021534169 2.847517296e-23)
(99.86681542 0.7552368757 -2.324198994e-21)
(99.80366356 0.9268449483 -1.268217983e-20)
(99.83798951 0.869582313 -3.094169847e-21)
(99.81848148 1.117603508 -5.664217901e-21)
(99.84870954 1.042539229 -5.360948862e-21)
(99.77354253 1.287351094 6.465126553e-22)
(99.81677785 1.197842851 -6.784829743e-21)
(99.81939003 1.461984643 -2.80855511e-23)
(99.85692341 1.348574889 -4.307780354e-21)
(99.77917322 1.67631046 -2.226002575e-21)
(99.82730626 1.544949368 -3.218472485e-21)
(99.86468621 1.765367627 -4.948289934e-21)
(99.90398743 1.606808403 -7.287709544e-21)
(99.84140878 2.008165761 -2.22321405e-21)
(99.88444657 1.832026882 -5.347501185e-21)
(99.95645032 0.02727021051 -2.49262727e-20)
(99.94786388 0.01130302938 -1.245830031e-20)
(99.93393824 0.0666087954 -5.39175079e-20)
(99.92659075 0.04018603312 1.150387895e-20)
(99.89277485 0.1311240139 1.088690863e-20)
(99.8814393 0.09004724324 -4.563619178e-20)
(99.85062594 0.2251283346 2.753416912e-20)
(99.80754351 0.1730181245 4.957872296e-20)
(99.79982352 0.2459788206 -4.293890491e-20)
(99.87296312 0.2389989936 -8.173426067e-21)
(99.80433725 0.2719342951 -6.058096858e-20)
(99.82197969 0.2985299369 -4.093895591e-21)
(99.80191761 0.4037156256 -7.965354446e-21)
(99.77787914 0.3905917001 -3.969017066e-21)
(99.69666734 0.4693940118 2.785861967e-20)
(99.72686282 0.5033051384 7.817865163e-21)
(99.70713847 0.6514280639 -6.88462376e-21)
(99.66823148 0.6408369018 5.089176152e-21)
(99.55119284 0.769377042 -3.923491465e-20)
(99.63437352 0.7790363565 2.730467466e-21)
(99.57473798 0.8361678088 -1.704603834e-20)
(99.62018589 0.9639757228 -6.991689917e-21)
(99.58961088 0.9632781882 0)
(99.52023353 1.061618006 7.256154843e-21)
(99.55758843 1.070105948 -6.957472642e-21)
(99.5045743 1.434178988 3.381027056e-21)
(99.45936197 1.445808469 1.323880063e-20)
(99.37187964 1.591121062 6.554607538e-21)
(99.42884631 1.58765389 1.643493407e-20)
(99.41936601 2.029719129 -1.41431283e-21)
(99.35521584 2.066473971 4.349981206e-21)
(99.26023956 2.267863652 4.339265911e-21)
(99.34146875 2.236614432 4.402622354e-21)
(99.43077375 2.681536614 2.708839322e-21)
(99.35046535 2.762249611 2.818185572e-23)
(99.27095798 3.01634073 1.264470479e-20)
(99.372352 2.933906405 2.319393105e-21)
(99.58380669 3.267113973 -1.55300677e-21)
(99.50070096 3.414168299 0)
(99.46176449 3.70743247 1.148989152e-20)
(99.56561527 3.546403652 -1.614341604e-20)
(99.92365018 0.02320374138 2.50295103e-20)
(99.92599732 0.005510282837 -4.178619106e-21)
(99.88102143 0.06132384153 2.107318751e-20)
(99.89067491 0.02366073272 2.923951551e-20)
(99.80453671 0.1308800847 -8.373687361e-21)
(99.81592957 0.06655713536 -4.12973305e-21)
(99.70711463 0.2525695777 0)
(99.69471301 0.1444691225 6.390874839e-21)
(99.64747421 0.249463412 1.940430049e-20)
(99.72336235 0.2897621471 -5.661345231e-20)
(99.63583625 0.2894782136 1.458891813e-20)
(99.6429698 0.3457171564 0)
(99.57429323 0.5123384102 2.127004095e-22)
(99.55700247 0.4622919803 -3.2116635e-20)
(99.43842041 0.5293303006 -3.209502924e-20)
(99.45504115 0.6075555551 6.506316925e-20)
(99.36754245 0.8570543982 -9.659916468e-20)
(99.33576601 0.7868079998 3.58466976e-20)
(99.1634949 0.9047003072 -6.464440135e-20)
(99.24116902 0.9985538373 -3.219737662e-20)
(99.15840995 1.015864074 -5.283546341e-20)
(99.15323803 1.300852091 7.601067493e-21)
(99.12033689 1.259851349 1.509340383e-20)
(99.0102203 1.358769573 3.821665905e-20)
(99.04672596 1.412747428 7.537437422e-21)
(98.8723634 2.002796506 -6.049404747e-20)
(98.81547685 1.959329729 -5.145515384e-20)
(98.6752518 2.112005963 -8.243264531e-20)
(98.74205858 2.170327689 -4.439145731e-20)
(98.65697706 2.915825998 -6.244814538e-22)
(98.5634066 2.884260599 -1.093549098e-19)
(98.40872354 3.106118671 2.529738917e-21)
(98.52086861 3.151680607 -1.668041221e-21)
(98.62175093 4.015944059 1.295744256e-19)
(98.48164458 4.027938699 4.370078855e-20)
(98.3387231 4.3435446 -4.881366544e-20)
(98.50967953 4.334459685 -8.188516692e-20)
(98.93958913 5.116819375 5.675890346e-20)
(98.76281659 5.226985842 5.670427396e-20)
(98.69819034 5.623082251 -3.817675986e-21)
(98.91011865 5.489887298 -1.348887323e-22)
(99.8990436 0.005594448043 0)
(99.92074005 -0.007030966131 0)
(99.833151 0.02733136142 4.232250639e-21)
(99.87023903 -0.01424251377 0)
(99.71486586 0.08230768948 1.076056794e-20)
(99.76419482 0.004346384589 -3.471533659e-21)
(99.55046686 0.2164732233 1.775938748e-20)
(99.58727244 0.05725581543 2.366048492e-20)
(99.49408693 0.17671687 -7.115556222e-21)
(99.5489499 0.2697561457 2.511791637e-20)
(99.46051153 0.2291925933 2.022271608e-21)
(99.44093638 0.3108583214 -1.026456002e-20)
(99.29457932 0.5168652365 0)
(99.29971657 0.4334220851 -2.109304003e-20)
(99.14836227 0.4717932156 -1.733100092e-20)
(99.13126004 0.5895852749 4.301782165e-21)
(98.94030655 0.9062125031 0)
(98.93356183 0.7877243494 4.301321602e-21)
(98.70813471 0.8601278451 -4.447620219e-21)
(98.74386707 1.040895551 2.14357201e-20)
(98.65035718 1.029878755 5.550314839e-21)
(98.53156064 1.442267954 2.459132422e-19)
(98.51280547 1.356762602 0)
(98.35938045 1.437701332 0)
(98.3790433 1.539635874 0)
(98.01203787 2.31693546 5.84440766e-20)
(97.96225443 2.206732102 3.762037499e-19)
(97.76907439 2.334146513 -3.94233831e-19)
(97.82063672 2.472734342 -2.281949578e-21)
(97.50861886 3.561617505 -2.51230538e-19)
(97.40424785 3.435779206 1.332369652e-19)
(97.15610266 3.661073642 -2.645500181e-19)
(97.27981584 3.817765827 -4.988227026e-21)
(97.23188244 5.269624444 2.278868268e-20)
(97.02873748 5.162352194 3.741359813e-20)
(96.76040215 5.541736692 1.361907809e-19)
(97.01403341 5.672448886 -7.362680644e-20)
(97.66458717 7.277770101 -1.836357919e-21)
(97.3310114 7.300406179 1.145769266e-19)
(97.17651527 7.878200013 -7.906339471e-20)
(97.59314789 7.827190639 -2.074753205e-19)
(99.89768911 -0.0266803261 0)
(99.94592902 -0.02631762213 2.074794429e-21)
(99.80855692 -0.03781801918 -8.472501587e-21)
(99.88082555 -0.07334123938 -2.090996384e-21)
(99.64739343 -0.01867034562 8.804898877e-21)
(99.74629824 -0.09743337486 -4.203175047e-21)
(99.40920227 0.08319031926 1.151962647e-20)
(99.51964007 -0.09035666681 3.379642748e-21)
(99.36261626 0.02383868449 -1.913705648e-23)
(99.38396667 0.1659578108 -8.533583499e-21)
(99.29838776 0.08194856212 -8.643004883e-21)
(99.2490426 0.1741691325 0)
(99.00624115 0.3921584374 -1.733057309e-20)
(99.04781136 0.2829915713 0)
(98.87448 0.2781931939 -1.160612573e-22)
(98.80598436 0.4237705595 -8.252236652e-23)
(98.47388768 0.76437321 8.961076705e-21)
(98.51703097 0.6068152924 1.343209085e-20)
(98.25039319 0.6185933601 1.813183533e-20)
(98.21850368 0.8758171267 -1.461878701e-20)
(98.13000072 0.815055502 -1.481323645e-20)
(97.84288182 1.309468531 1.753797697e-19)
(97.85710287 1.188177859 1.069891702e-19)
(97.6774342 1.225187743 2.888344676e-19)
(97.65679664 1.366582396 3.685387092e-20)
(96.98859561 2.221477066 1.458436084e-19)
(96.98083596 2.046536999 0)
(96.72592028 2.125561514 0)
(96.72685391 2.333289564 -1.543385502e-19)
(95.96650609 3.689735178 -1.142917586e-19)
(95.89491372 3.444524333 3.031234349e-19)
(95.5205089 3.60021437 7.786228529e-19)
(95.60200537 3.925891524 7.48931869e-19)
(94.97292082 6.095901785 -2.005999835e-21)
(94.7504672 5.763834465 7.180447214e-20)
(94.24619711 6.136460564 -2.448476121e-19)
(94.52514139 6.554992065 1.745859367e-21)
(95.00278432 9.792505792 2.611112816e-19)
(94.4147044 9.538883949 2.292504364e-19)
(93.93035865 10.4217591 4.983233145e-19)
(94.73109017 10.69625418 4.903073459e-19)
(99.93413693 -0.07229405718 -1.554073127e-23)
(100.0141383 -0.05147107198 7.901226088e-23)
(99.82479657 -0.1319322987 2.17512842e-21)
(99.93714421 -0.1505319775 -9.557989263e-23)
(99.62651217 -0.1673578289 -1.138135653e-20)
(99.77986582 -0.2328703534 1.72703138e-21)
(99.3136159 -0.1156193867 -1.028330748e-20)
(99.51276687 -0.2915427342 -1.729096711e-20)
(99.29322013 -0.2038736954 -1.475947939e-20)
(99.25113313 -0.02515307659 -8.072866909e-21)
(99.19630126 -0.1501995009 -3.224561107e-21)
(99.10396662 -0.05734533772 3.292831996e-23)
(98.76072386 0.1312627783 1.311147704e-20)
(98.84924794 0.01096125507 1.335769283e-20)
(98.67132625 -0.04622572518 6.590572117e-21)
(98.54145356 0.1058088212 2.276080949e-20)
(98.05470115 0.4216844772 -1.820429468e-20)
(98.16907407 0.2354681002 -1.361868193e-20)
(97.89493357 0.1747853707 -2.78263488e-20)
(97.76039705 0.4535037393 -3.916798464e-20)
(97.69576288 0.3606607452 8.387222594e-20)
(97.22447331 0.85135796 -7.616755911e-20)
(97.2858174 0.708932633 -1.500442418e-19)
(97.0951567 0.6899519573 -7.868952985e-20)
(97.01497852 0.8517398782 3.156614306e-19)
(95.97761277 1.637751643 -1.646378915e-19)
(96.04573735 1.417550069 3.382050452e-19)
(95.75735488 1.410004335 -1.395813879e-20)
(95.6633984 1.663008456 3.376320146e-19)
(94.22952685 2.989253976 -4.486049118e-19)
(94.28868824 2.637938489 -4.858286653e-21)
(93.83467813 2.656501903 -9.357604114e-20)
(93.73880326 3.070279746 -1.976000896e-19)
(91.76300838 5.52607604 2.213894504e-20)
(91.73106418 4.911487988 -1.316956129e-20)
(90.92823274 5.017551233 1.718021353e-19)
(90.92666358 5.811414201 3.942105294e-19)
(88.92920429 11.5216029 -4.4361902e-19)
(88.26517872 10.33027683 2.343857333e-19)
(86.41902589 11.56720047 4.281833917e-19)
(86.69415561 10.80047341 5.750692517e-20)
(87.99408739 12.90648083 6.689498179e-19)
(87.04235231 12.9781346 -3.081308407e-19)
(100.0209431 -0.1286226247 1.629297671e-23)
(100.1354733 -0.08080719601 -3.076431496e-21)
(99.89685776 -0.2489188739 -5.641123785e-22)
(100.0506445 -0.2405187825 1.338152589e-21)
(99.67200293 -0.3543269855 -4.425259247e-21)
(99.87936787 -0.3917230318 -2.913197267e-21)
(99.29924981 -0.3783905325 9.107492988e-21)
(99.58747012 -0.5294946741 -1.00477139e-21)
(99.31317701 -0.4884435838 9.588959876e-22)
(99.19359726 -0.2938067119 4.468007291e-21)
(99.18584437 -0.4480383538 9.251325282e-21)
(99.05002304 -0.3700548975 6.534357118e-21)
(98.61335921 -0.2485784116 -2.222146449e-21)
(98.754824 -0.3615933256 3.456243785e-21)
(98.59075319 -0.4707583267 2.281291917e-21)
(98.39813913 -0.3374553906 6.918516507e-21)
(97.78219476 -0.1137428581 -4.745713695e-21)
(97.9712978 -0.293102327 2.424770777e-21)
(97.72377703 -0.4326045786 8.361419558e-23)
(97.48499524 -0.1655608719 2.574905333e-20)
(97.45992936 -0.2932928977 1.928048535e-19)
(96.80169442 0.1094066515 4.396296779e-19)
(96.92020013 -0.03003491287 -1.747220433e-19)
(96.74005019 -0.1084116931 8.267656355e-20)
(96.59481248 0.0429370374 2.523717276e-19)
(95.24955044 0.5610665456 -3.684033883e-19)
(95.41289965 0.3431058465 -3.691146742e-19)
(95.14046746 0.2385070333 3.729028147e-19)
(94.93726905 0.4732198659 -5.560755189e-19)
(92.9288921 1.316375562 -4.102439501e-19)
(93.17128391 0.9673158448 1.516507856e-19)
(92.75126105 0.7978458299 5.100189379e-20)
(92.43338288 1.170879643 5.119636802e-20)
(89.06849793 2.543026259 2.32584768e-19)
(89.50031244 1.911829159 2.32186295e-19)
(88.81188152 1.540796857 4.652727988e-19)
(88.16801775 2.19493782 4.665946853e-19)
(81.30195207 4.50096183 -1.539687294e-18)
(81.92332125 3.684076221 -3.695319094e-19)
(81.15106653 3.025010523 -6.106684419e-19)
(80.23867268 3.862429648 -5.947105709e-19)
(100.167178 -0.1914483499 -1.7545329e-21)
(100.3160686 -0.1121052771 9.720405729e-22)
(100.0355127 -0.379768437 -1.022972706e-21)
(100.2283156 -0.3364550971 -7.218559105e-22)
(99.79767716 -0.5640167424 5.244540778e-22)
(100.0532134 -0.5611098357 -2.580414948e-22)
(99.38585864 -0.6798888029 5.911802995e-22)
(99.75465243 -0.7841804525 8.759595086e-22)
(99.43906659 -0.8024697311 5.217168193e-22)
(99.23742881 -0.6145872357 1.523700841e-21)
(99.28707183 -0.7838762766 -1.468021083e-23)
(99.11218622 -0.732408008 -1.468229882e-23)
(98.60714659 -0.7068063686 -2.277142789e-21)
(98.79738917 -0.7954583516 0)
(98.66383604 -0.950219787 -1.118793188e-21)
(98.41935718 -0.8553995972 -1.187258484e-21)
(97.72327081 -0.7706041758 -4.31228407e-23)
(97.97540188 -0.9131852481 -1.21258226e-21)
(97.78168568 -1.116344361 -1.914420542e-20)
(97.4529363 -0.9023416599 2.338289088e-19)
(97.47362245 -1.045591218 6.253506891e-21)
(96.6801637 -0.8017555274 2.895654065e-19)
(96.8473321 -0.9141696878 1.54068286e-19)
(96.70101067 -1.039157637 -6.564487962e-20)
(96.50148995 -0.9253063988 3.293769624e-19)
(95.02434436 -0.7767902599 -8.345859439e-20)
(95.25908666 -0.9435480314 3.793337905e-19)
(95.05132384 -1.114524235 7.57058294e-19)
(94.76727478 -0.9498937025 1.839985878e-19)
(92.6258362 -0.7817494368 -1.891010215e-19)
(92.99084123 -1.014010878 -1.882049359e-19)
(92.69923359 -1.278292769 -4.56358528e-19)
(92.27450796 -1.067947912 2.295616373e-20)
(89.02388811 -1.198372277 -5.467576381e-21)
(89.64591277 -1.470219488 -7.390447472e-21)
(89.2956138 -1.933780312 -2.385289992e-19)
(88.59721996 -1.748768647 -6.016595302e-19)
(84.41453946 -3.412218243 -2.619574215e-20)
(84.96392811 -3.383386655 -2.812687098e-19)
(84.9350915 -3.806362619 -5.376428077e-19)
(84.44690055 -3.928856998 5.611923966e-20)
(100.3771625 -0.2558623525 2.00375512e-21)
(100.557429 -0.1429945721 9.828811825e-22)
(100.245737 -0.5138162591 2.963136532e-23)
(100.4716553 -0.430964603 1.035810777e-21)
(100.0095632 -0.7784078013 1.025954902e-22)
(100.3028298 -0.7272598826 9.57548869e-22)
(99.58308728 -0.993302519 -1.468124797e-21)
(100.0158605 -1.034296429 -8.336395799e-22)
(99.67520147 -1.117223474 6.887485328e-22)
(99.39707705 -0.9575549175 -1.048613765e-21)
(99.50663443 -1.126127443 -5.294770705e-22)
(99.30200033 -1.109367284 -1.048547772e-21)
(98.76088374 -1.194293693 3.63415788e-24)
(98.98941379 -1.24520882 1.118726854e-21)
(98.89707274 -1.433270687 1.118736768e-21)
(98.6189569 -1.389501102 1.118716029e-21)
(97.89646343 -1.459639802 1.546286884e-22)
(98.19247472 -1.547189342 1.913906199e-20)
(98.06405998 -1.792044975 1.851820476e-20)
(97.67516014 -1.653138328 -3.364683371e-22)
(97.73740655 -1.79324907 2.279071541e-19)
(96.88170405 -1.733675313 2.041994778e-20)
(97.0826246 -1.803218173 9.722838638e-21)
(96.97785756 -1.955544967 3.660597018e-19)
(96.7515294 -1.89060577 0)
(95.30282185 -2.079136735 -3.803189651e-19)
(95.58133323 -2.178226803 7.785551861e-20)
(95.43568966 -2.377315814 -5.645086967e-19)
(95.12807885 -2.290153102 -5.678588445e-19)
(93.15524372 -2.610593618 1.303467991e-20)
(93.5481773 -2.722810139 1.016951523e-19)
(93.36390408 -2.999562824 6.256570494e-21)
(92.94043743 -2.915434609 1.044045558e-19)
(90.31488282 -3.661409952 9.709522322e-21)
(90.86889692 -3.728475316 -2.093456307e-19)
(90.67654203 -4.116340188 2.217907326e-19)
(90.12209075 -4.103963873 -8.863354881e-19)
(87.56632044 -5.54116483 9.784965013e-20)
(87.86328624 -5.486379355 -2.748126017e-19)
(87.84924932 -5.724254152 3.811562968e-19)
(87.51508843 -5.748926788 -7.388795784e-19)
(87.61074785 -5.815613084 1.245273012e-18)
(100.6500387 -0.3170542952 8.679710032e-24)
(100.8565326 -0.1712966974 2.594718341e-21)
(100.5260144 -0.6407511731 1.938801156e-21)
(100.7770618 -0.5171611726 9.817320797e-22)
(100.3057376 -0.9794772518 6.132078653e-23)
(100.6224651 -0.8766686709 -5.614505945e-23)
(99.8871531 -1.292045138 -1.977501108e-21)
(100.3661132 -1.263780055 -8.969094332e-22)
(100.0129198 -1.409232759 -4.828124703e-22)
(99.67157438 -1.29179262 -5.15981559e-22)
(99.83634 -1.44605582 -1.027769764e-21)
(99.61375204 -1.466659747 8.364371683e-23)
(99.06987188 -1.661837759 0)
(99.32257956 -1.66796493 1.034243396e-21)
(99.27644042 -1.875480132 2.055698949e-21)
(98.98284286 -1.886895306 1.115944518e-21)
(98.27960597 -2.10621858 -1.711287954e-21)
(98.59906832 -2.13005326 -2.026392644e-23)
(98.53780706 -2.39599321 3.140426822e-20)
(98.11746601 -2.338871919 -1.996987258e-19)
(98.21319577 -2.464209107 -7.355446538e-22)
(97.35997823 -2.575884109 -2.726639962e-19)
(97.57562231 -2.601660523 4.673439303e-21)
(97.51452079 -2.764830876 3.587901565e-19)
(97.27786974 -2.747348671 4.604455962e-21)
(95.94809416 -3.188802004 -6.360176609e-19)
(96.23756904 -3.226277374 5.153781122e-19)
(96.15059054 -3.430203818 -5.332404981e-19)
(95.84046222 -3.406670842 3.072820753e-21)
(94.09753889 -4.01790393 -6.977808809e-21)
(94.4811949 -4.047716673 -1.891231126e-19)
(94.36963134 -4.313059435 -3.95640975e-21)
(93.96744931 -4.304798553 1.908407238e-19)
(91.75775134 -5.254758853 -2.137462935e-20)
(92.24441366 -5.243837088 7.902902782e-19)
(92.11521996 -5.581443158 2.110146192e-19)
(91.62993627 -5.615244398 2.898082893e-19)
(89.55846334 -6.794035805 -3.428176264e-19)
(89.7878591 -6.753645363 3.871681204e-19)
(89.76574167 -6.93088646 -2.433249547e-19)
(89.51072249 -6.943703357 -1.29845873e-19)
(89.58005293 -6.99504764 -1.298330586e-19)
(100.9802859 -0.3706169264 3.56857988e-21)
(100.8693364 -0.7514619082 -9.556777455e-22)
(100.6748752 -1.152378504 -9.556465848e-22)
(100.2794033 -1.556300036 0)
(100.0448262 -1.591560599 7.274438269e-24)
(100.0274578 -1.774600605 1.954746374e-21)
(99.51271591 -2.070288223 -1.037015467e-21)
(99.77501483 -2.029933589 -1.124964219e-21)
(99.48209679 -2.308274933 1.111891754e-21)
(98.83283838 -2.65691767 -2.542703213e-21)
(99.1570477 -2.617163877 -3.069848389e-20)
(98.73168769 -2.908572052 -1.924246212e-20)
(98.85178279 -3.01165809 3.38374525e-19)
(98.0453865 -3.269195231 1.262266271e-19)
(98.26226963 -3.254130279 5.082282175e-19)
(98.24146888 -3.415892158 -1.118089018e-19)
(98.00777778 -3.440579957 2.314395737e-20)
(96.83331809 -4.064112302 -3.291331315e-19)
(97.11916749 -4.049101243 8.078282762e-20)
(97.08256008 -4.244934673 1.731395177e-21)
(96.78090992 -4.274509378 -1.544679256e-19)
(95.25254897 -5.082567746 -1.720412779e-19)
(95.62251979 -5.051355597 5.060998306e-21)
(95.56819503 -5.302353658 -1.719275484e-19)
(95.18179909 -5.35203951 -1.735142474e-19)
(93.20653504 -6.463570454 5.401610337e-19)
(93.67011196 -6.404650439 7.038453852e-19)
(93.5878119 -6.728443417 1.846623279e-19)
(93.11014142 -6.801630649 5.729350146e-19)
(91.13042954 -7.986023915 4.46454006e-20)
(91.35055025 -7.963121142 4.487802086e-20)
(91.33312284 -8.151675385 4.503929802e-20)
(91.06926514 -8.141871259 -1.71996259e-19)
(91.13627762 -8.207178151 2.985621657e-20)
(84.46554878 -2.936873724 7.786794637e-19)
(83.85256548 -3.523381499 5.67319897e-20)
(83.85390618 -2.933287748 8.158925237e-19)
(87.57865113 -5.291655759 -9.732833931e-19)
(87.27005922 -5.347757005 1.698117802e-19)
(87.22252562 -5.567752292 3.173887855e-19)
(87.3217559 -5.636019347 3.088985057e-19)
(89.57867036 -6.611881127 4.481367345e-19)
(89.34284829 -6.656849158 4.074205291e-19)
(89.29712569 -6.810699592 -3.166864913e-19)
(89.36931397 -6.862121041 -3.148066326e-19)
(91.15083732 -7.80104068 -1.766566535e-19)
(90.93215556 -7.823303753 -1.814787404e-19)
(90.8708145 -7.975874569 4.065932282e-19)
(90.93620747 -8.039831774 -6.073978745e-19)
(82.22627896 5.041555566 -6.118790871e-19)
(80.57063845 5.546403682 3.31227652e-19)
(81.76590286 5.949229474 -6.094550729e-19)
(90.53399223 -3.254978932 -6.903838701e-21)
(89.73090168 -3.62513616 7.341611717e-19)
(89.95812281 -3.153774844 4.532712375e-19)
(87.87493345 -5.238184003 -1.346672921e-18)
(87.58727821 -5.029489093 2.149964936e-21)
(87.90721945 -4.990497804 -1.135532878e-18)
(85.01835155 -2.898455017 5.209317012e-19)
(85.53489672 -2.923383201 -7.8146036e-19)
(85.45799462 -3.326573024 -2.689400455e-19)
(91.89854815 -4.90859517 -1.005714885e-18)
(91.26205832 -5.280923795 -7.066789173e-19)
(91.39928201 -4.905607228 -4.001379861e-19)
(89.80779445 -6.574830395 1.180317619e-18)
(89.59688505 -6.427552326 -3.447501723e-21)
(89.84082198 -6.392219652 5.974846924e-19)
(88.18149431 -5.198709647 -4.473931892e-21)
(88.14994271 -5.434621814 -5.681792864e-21)
(88.63962416 -6.222530693 -2.108179567e-19)
(88.65424578 -6.012519191 2.105088322e-19)
(88.38529693 -6.064337714 -8.59591149e-19)
(88.33886739 -6.250207253 -1.404514982e-19)
(88.42679092 -6.305282269 -1.404446971e-19)
(87.77711928 -7.116487969 -4.526076166e-20)
(87.63694132 -7.169682618 9.762836269e-20)
(87.63510288 -7.062789733 -5.218938603e-23)
(87.78542975 -7.015205884 -2.32235339e-19)
(87.58875963 -7.154590369 6.912661877e-19)
(86.5696933 -6.535231578 4.539522285e-19)
(86.50672716 -6.636627205 8.810753027e-19)
(86.73515342 -6.501907183 3.989522489e-19)
(86.71768777 -6.622182938 4.520022655e-19)
(86.55584438 -6.672912154 2.692759973e-19)
(93.30261434 -6.137251963 -1.68511648e-19)
(92.72995516 -6.522437608 5.739823259e-20)
(92.8363676 -6.183563264 -3.593580102e-19)
(91.37095716 -7.778639239 -1.766547428e-19)
(91.17358356 -7.619988308 4.2871952e-21)
(91.39952536 -7.594925774 -1.753567964e-19)
(90.04623119 -6.541138664 5.833958744e-19)
(90.01188477 -6.720633322 5.164685004e-21)
(90.35370266 -7.357538097 -6.131581305e-19)
(90.37983128 -7.18327095 -4.277226804e-19)
(90.1614004 -7.211257256 -9.591990362e-20)
(90.10660085 -7.355576082 -7.369642349e-20)
(90.16953851 -7.411340157 -7.543981277e-20)
(89.30612457 -7.961144968 1.146280755e-21)
(89.21604034 -7.957173645 1.457031301e-19)
(89.27329009 -7.925853755 -1.37341876e-19)
(89.35080386 -7.925833581 -2.724840092e-19)
(88.70552754 -7.49424889 -1.847487554e-19)
(88.62971866 -7.556862206 -4.856977641e-20)
(88.83856568 -7.469123912 -3.720876983e-19)
(88.80317524 -7.545755779 4.500216028e-20)
(88.66115204 -7.577231594 -2.470710415e-19)
(91.59764097 -7.752568721 0)
(91.57251699 -7.939130718 0)
(92.03757769 -8.60837913 1.348292236e-19)
(92.01881258 -8.49518035 -1.533499657e-19)
(91.91572618 -8.62630183 -1.364778646e-19)
(91.91252468 -8.527141429 -1.365388873e-19)
(90.49136784 -9.401817917 3.870837111e-19)
(90.29367866 -9.390010404 2.602911973e-19)
(90.45585555 -9.346338122 0)
(90.59820559 -9.35233476 2.562815239e-19)
(89.89442741 -8.650335532 8.053132388e-19)
(89.80470856 -8.692433097 2.720738069e-19)
(90.00162016 -8.650842073 5.314706905e-19)
(89.9383862 -8.694748143 5.373542402e-19)
(77.26543956 -5.137010791 -3.273702026e-19)
(78.05349757 -4.907020289 -6.388838589e-19)
(78.26540538 -5.578743269 -6.396092249e-19)
(77.37538876 -5.922920924 -4.267645286e-19)
(77.74376674 -5.986937389 -7.720219481e-19)
(83.04964989 -6.318537049 3.101541926e-19)
(82.85485862 -6.078524747 -5.476515157e-19)
(82.57952531 -6.319978783 -5.561021665e-19)
(82.74889527 -6.589053562 -2.793761361e-19)
(82.89223099 -6.559128591 -5.028375084e-19)
(71.83148278 5.054310095 7.016316464e-19)
(70.91596769 6.166874649 7.203876651e-19)
(70.8918564 4.004674054 1.52861262e-18)
(69.52506436 5.153480682 -8.313508596e-19)
(77.1014518 -4.393448131 3.138830511e-19)
(76.4557342 -5.494416688 5.637678173e-19)
(76.20948559 -4.557934566 -3.567737332e-19)
(86.41018661 -6.582412899 -3.71576348e-19)
(86.42574259 -6.449999545 -4.086907611e-19)
(86.58906194 -6.416126192 2.454593116e-19)
(86.36369343 -6.54740048 3.404754724e-20)
(85.35515615 -6.14485557 3.721671977e-19)
(85.3426072 -6.035388767 2.158255202e-19)
(85.50780131 -5.96135426 4.27841729e-19)
(85.52008474 -6.073543085 8.481798607e-19)
(86.24765378 -4.68405838 7.366061883e-19)
(86.61895798 -4.627386394 7.247014325e-19)
(86.61310621 -4.919619792 7.324470459e-19)
(86.28714578 -5.01089666 -1.196629433e-19)
(85.1877486 -6.229612006 -2.192839989e-19)
(85.35801088 -6.25542659 2.16908981e-19)
(85.1549245 -6.319971202 -2.655334171e-19)
(85.20980806 -6.31849973 4.215916693e-19)
(86.40447642 -6.647056569 1.547635951e-19)
(86.30414545 -6.660221669 -1.512816339e-19)
(86.32956352 -6.601561167 -3.053420193e-19)
(83.29004179 -6.094838537 1.095154248e-18)
(83.45157225 -6.298598412 4.202404275e-19)
(83.16952551 -6.533815991 9.401452959e-19)
(83.29123981 -6.502646279 4.742281571e-19)
(85.17534594 -6.117321069 -3.768322789e-19)
(85.00443926 -6.211822353 -3.314998616e-19)
(84.9819213 -6.306512426 -3.37724877e-19)
(85.04038097 -6.304128462 -3.383625081e-19)
(88.56522781 -7.526659177 -2.731461361e-19)
(88.60555258 -7.443741325 1.865916284e-19)
(88.73843607 -7.416126405 1.85808279e-19)
(88.53382574 -7.506584311 -7.413881258e-20)
(87.73002946 -7.202988891 -1.283287185e-19)
(87.92357541 -7.069112802 1.841392103e-19)
(87.91325614 -7.165963123 -4.855173184e-20)
(87.77578212 -7.216323768 4.537418601e-19)
(88.89951085 -6.171092215 -2.064159134e-19)
(88.88414384 -6.373490318 -4.066274673e-19)
(88.59603276 -6.399747787 2.284260127e-19)
(88.67986993 -6.452029128 0)
(87.6380644 -7.224776433 0)
(87.70312523 -7.247081159 4.38701783e-19)
(87.61514531 -7.270783083 0)
(88.54482503 -7.565760009 -1.489106374e-19)
(88.45328945 -7.575518256 1.657485325e-19)
(88.49515399 -7.540722715 -4.459272099e-19)
(86.4733885 -6.692861164 4.596430543e-19)
(86.3753997 -6.707235426 3.078211644e-19)
(87.54555459 -7.248790797 0)
(87.56286184 -7.201170465 4.466105436e-19)
(89.76191009 -8.647526067 5.411250426e-19)
(89.85106312 -8.605044845 1.789636595e-21)
(89.95750311 -8.605874999 2.637829775e-19)
(89.24622951 -7.993505209 -1.468498538e-19)
(89.38489151 -7.962702384 -1.328053561e-19)
(89.33858394 -7.998669996 4.151860175e-19)
(90.57089899 -7.332251162 -3.675390707e-19)
(90.54494175 -7.508407245 -1.858922762e-19)
(90.29610003 -7.502548204 -3.335806818e-19)
(90.35857688 -7.560659443 -1.23786655e-19)
(89.15537946 -7.989651018 -2.190355512e-21)
(89.18353729 -8.027323887 -5.751168123e-19)
(89.06853122 -8.017817369 3.035672223e-19)
(89.66926837 -8.690550873 -2.02584258e-21)
(89.48179886 -8.682718496 -2.827671633e-19)
(89.62793232 -8.645026684 2.744324823e-19)
(88.58987138 -7.590793491 1.480229547e-19)
(88.49973068 -7.600212719 -7.044164303e-21)
(89.04364384 -7.981976487 -2.984060714e-19)
(89.12704104 -7.954983679 2.854818812e-19)
(90.32494878 -9.445288366 2.605877681e-19)
(90.63871576 -9.407537694 1.251164811e-19)
(90.53214135 -9.456276508 3.853615902e-19)
(92.02902016 -8.709582734 1.338055175e-19)
(90.12415907 -9.432037445 1.310645822e-19)
(90.15547856 -9.483537489 -1.316135987e-19)
(89.8120393 -9.463867948 -1.315387347e-19)
(89.71199619 -8.73490127 2.668826241e-21)
(89.52236447 -8.72771632 5.557105765e-21)
(89.79780766 -9.414442563 2.638699484e-19)
(90.10360559 -9.377061777 -5.365140575e-19)
(89.44164272 -0.7253776107 6.986993175e-19)
(88.2912664 -0.9231914094 2.389320354e-19)
(88.82771085 -0.3688103413 2.386707152e-19)
(84.55939569 -2.39397481 1.066909753e-18)
(85.12067893 -2.457481148 5.281878241e-19)
(82.85008349 4.217245478 5.584932431e-19)
(83.34979043 3.490573995 6.772296644e-21)
(82.67947446 2.990771743 2.681932578e-19)
(82.10816265 -0.7225834838 -1.352932621e-21)
(82.43316624 -0.01205340542 -3.010752367e-19)
(81.16104448 -0.5110115259 -4.080180585e-21)
(81.62402438 0.3589650414 -3.32847517e-19)
(77.89690853 -4.153484917 0)
(77.01710936 -3.538950614 6.693433825e-19)
(77.81629459 -3.477688082 0)
(73.00420118 5.914544422 -4.124571035e-20)
(73.77316121 4.910661786 3.337953482e-19)
(72.90383989 4.113590542 -5.279471955e-20)
(86.253703 -4.370242517 -2.521930271e-19)
(85.89599875 -4.788247883 7.509456904e-19)
(85.8492122 -4.427514683 4.147799475e-21)
(85.15174172 -6.004521369 2.207840995e-19)
(85.3216061 -5.919902867 -4.340835797e-21)