/*--------------------------------*- C++ -*----------------------------------*\
| =========                 |                                                 |
| \\      /  F ield         | OpenFOAM: The Open Source CFD Toolbox           |
|  \\    /   O peration     | Version:  v2012                                 |
|   \\  /    A nd           | Website:  www.openfoam.com                      |
|    \\/     M anipulation  |                                                 |
\*---------------------------------------------------------------------------*/
FoamFile
{
    version     2.0;
    format      ascii;
    class       volVectorField;
    location    "1.8";
    object      U;
}
// * * * * * * * * * * * * * * * * * * * * * * * * * * * * * * * * * * * * * //

dimensions      [0 1 -1 0 0 0 0];


internalField   nonuniform List<vector> 
3259
(
(99.99783968 0.3994205664 0)
(100.0011447 0.4088005531 7.737154154e-22)
(100.003828 0.3806251978 -1.354220583e-21)
(100.0052254 0.3261198607 8.80366822e-22)
(100.0054077 0.2609559571 0)
(100.0050886 0.197955287 1.509863895e-21)
(100.0048492 0.1423362086 6.215546117e-21)
(100.0026086 0.1010780733 -1.762305597e-21)
(100.0107726 0.1165561323 -1.535924151e-20)
(100.0074706 0.07227441225 0)
(100.0055585 0.03872846593 -1.935374087e-21)
(100.0053765 0.01225690055 -1.363535589e-20)
(99.88988951 1.801811095 -1.494351585e-21)
(99.98026499 1.863773064 -7.99234242e-23)
(100.068942 1.752979017 -4.593279907e-22)
(100.1248336 1.508528414 4.517808822e-21)
(100.1417772 1.207103878 -9.038070646e-21)
(100.1289952 0.9180757362 0)
(100.1404127 0.6993157442 -2.649573242e-20)
(100.1016256 0.4812847771 5.119938956e-20)
(100.1013409 0.3341557824 1.487282254e-20)
(100.0716653 0.2064541533 3.074259189e-20)
(100.0542619 0.1109891666 -3.083361279e-20)
(100.0476806 0.03517135124 1.557153757e-20)
(99.70533879 3.531174606 -1.349340021e-20)
(100.0551809 3.666205394 -6.351272736e-20)
(100.3656372 3.416357927 2.309819901e-22)
(100.5447979 2.899964572 3.609059422e-21)
(100.5833428 2.2844772 -9.739063383e-21)
(100.5220452 1.694004626 -2.334931845e-20)
(100.4669573 1.2018273 -1.589651585e-19)
(100.3467674 0.8148471202 -3.54932143e-20)
(100.2814705 0.5089834 -1.529314205e-20)
(100.2018461 0.3124850756 3.477908397e-20)
(100.1535242 0.168009539 -3.913037994e-21)
(100.1324003 0.05295677119 0)
(99.36043207 5.645023139 -2.840500583e-20)
(100.2700273 5.808894696 5.040418395e-21)
(100.9781919 5.252764183 -4.111343844e-19)
(101.3092706 4.319722915 3.64399984e-20)
(101.3311904 3.292499088 8.960870677e-20)
(101.1741611 2.377460249 0)
(100.9762663 1.601502859 5.817700748e-20)
(100.7197166 1.059662015 -4.515888306e-20)
(100.5350654 0.6161323233 -3.922675693e-20)
(100.3854136 0.3733598156 1.988768128e-20)
(100.2920661 0.1985948233 -3.994113644e-21)
(100.2493583 0.06208494473 0)
(98.86399804 8.544430621 3.122678782e-20)
(100.930017 8.600144087 0)
(102.2492967 7.310009088 -6.377866978e-19)
(102.6566095 5.646116864 -1.0312136e-19)
(102.4980091 4.12637999 0)
(102.0823181 2.853664334 -5.94153502e-22)
(101.6458051 1.826885849 -9.713603058e-20)
(101.1947924 1.174792574 8.097607324e-21)
(100.8321703 0.6268156066 0)
(100.5945449 0.3744319111 4.083078423e-21)
(100.4456976 0.1946691828 -3.06619142e-21)
(100.3764116 0.06005353612 -1.017100337e-21)
(97.78059462 13.14605084 -8.64701903e-21)
(102.6842338 12.59787066 0)
(104.7659989 9.41879968 -2.516531447e-19)
(104.8118035 6.620715458 -1.0352151e-18)
(104.1200969 4.553180411 -5.812954614e-19)
(103.2460394 3.016078269 8.593484673e-21)
(102.41304 1.797107398 2.505249453e-20)
(101.7190194 1.115944961 -1.682300879e-20)
(101.1371491 0.5252767983 0)
(100.7972044 0.3047035545 0)
(100.5871541 0.1505200618 -1.033976495e-21)
(100.4888696 0.04531585959 -3.106182405e-21)
(93.5025335 21.79254673 1.511289513e-19)
(107.9383371 18.51050785 7.012030057e-20)
(109.2578386 10.87729821 0)
(107.8125231 6.692845474 0)
(106.1051641 4.253268169 -3.704590757e-19)
(104.5372732 2.673741704 -1.325789236e-21)
(103.1780852 1.440745108 0)
(102.2216217 0.8372184191 9.277925698e-21)
(101.3993353 0.3088862995 2.729652016e-21)
(100.9562626 0.1572424782 -3.225643182e-21)
(100.6880671 0.06500842025 -3.668971542e-21)
(100.5615221 0.01775885625 8.822001775e-21)
(121.8795183 22.06368715 0)
(115.6355722 9.364952561 -9.365949317e-19)
(111.1394366 5.070399273 -1.352263291e-19)
(108.0471626 2.969774048 3.508004714e-19)
(105.7224152 1.715386458 0)
(103.7985769 0.7381533632 -4.96680598e-21)
(102.6020642 0.347715317 2.099272454e-20)
(101.560748 -0.01727970909 -3.338756705e-21)
(101.0338842 -0.05796025745 2.728471889e-21)
(100.7199673 -0.05644230657 -5.241135573e-22)
(100.5696702 -0.0212921911 -8.302892287e-21)
(134.818751 7.871429196 1.066857329e-18)
(120.3147663 3.310031418 -1.995032098e-20)
(113.4537102 1.58705059 1.548779528e-19)
(109.3352266 0.7282166729 1.535268382e-20)
(106.4715172 0.2325630205 -3.50082578e-19)
(104.123988 -0.2301896483 -5.101537081e-21)
(102.7671492 -0.3043847028 1.185427403e-20)
(101.5770935 -0.4194159985 1.152009098e-21)
(100.9998112 -0.3205637054 0)
(100.6588056 -0.2028003503 4.194851707e-21)
(100.4931094 -0.06854220541 4.14229586e-21)
(132.9395759 -7.775136133 0)
(120.3664769 -4.097828717 1.481925843e-18)
(113.6789175 -2.662565396 0)
(109.4925988 -1.942736942 3.359477069e-21)
(106.5416108 -1.507860244 5.042159093e-19)
(104.0496456 -1.32108985 4.32474863e-20)
(102.6618257 -1.03580713 0)
(101.4214142 -0.851599467 -1.128021374e-21)
(100.8364527 -0.6022153312 -4.648536632e-21)
(100.4904371 -0.3593684403 5.187525135e-22)
(100.3199151 -0.1192565566 0)
(124.7754865 -16.66492005 0)
(116.9152895 -9.696919384 -6.670682506e-19)
(111.970478 -6.303652597 0)
(108.5126646 -4.384273266 3.119179571e-20)
(105.904752 -3.158538821 0)
(103.5653918 -2.35339058 0)
(102.2850646 -1.73929482 -2.814677516e-20)
(101.0908582 -1.2640686 -1.404691607e-20)
(100.5420214 -0.8714741968 1.059904532e-21)
(100.2127887 -0.5100812863 -3.344894296e-21)
(100.0480607 -0.1682966222 4.903309514e-22)
(115.863648 -20.03989381 5.022175623e-19)
(112.0615473 -12.62487772 5.020919667e-19)
(109.1457451 -8.625638742 8.071444032e-19)
(106.7419575 -6.138502426 8.21181859e-19)
(104.720681 -4.433608878 0)
(102.7515081 -3.181833801 2.238745724e-21)
(101.679787 -2.327861271 -3.40901585e-20)
(100.6115279 -1.619120128 8.323833251e-21)
(100.1312698 -1.100266222 0)
(99.83555534 -0.6409045267 3.854139072e-21)
(99.68537119 -0.2111202317 0)
(136.8665874 10.99265211 0)
(122.8272613 24.81341731 0)
(135.732177 -6.88340639 2.36595288e-21)
(137.5353128 8.46931097 2.769728528e-18)
(126.9702256 -17.15008531 -1.094035978e-18)
(134.8570443 -8.62786023 0)
(117.3930947 -21.05651069 -6.069895553e-19)
(125.7565811 -17.92406967 8.686042988e-19)
(116.2345595 -21.22473727 -5.587190042e-19)
(91.81616383 20.47277876 -2.733969173e-19)
(119.8605766 25.28535662 -1.237688035e-20)
(106.0583355 20.06808462 1.036952659e-19)
(144.1542527 29.80125914 -5.400869696e-19)
(124.4641618 42.80015241 -2.746274876e-20)
(134.1457908 10.08970247 0)
(121.93077 6.130624733 3.189167164e-20)
(117.114822 11.16059233 -3.562049584e-19)
(148.3136766 -1.774296116 1.020534509e-18)
(150.2189162 11.20872701 -1.13963985e-18)
(133.6780856 -6.157508823 1.076917752e-18)
(123.2308505 -2.707444823 -2.441292939e-18)
(122.8357131 3.960593255 1.620835115e-18)
(136.1887191 -18.97833038 0)
(142.6217177 -12.71554094 -9.789714041e-19)
(125.8939932 -15.90550124 0)
(119.7631131 -9.729673877 1.430686022e-18)
(122.6975478 -4.740909571 8.207209328e-19)
(124.0171287 -25.13335464 0)
(129.2405009 -23.1845271 0)
(108.7633983 -31.22507933 2.165934682e-20)
(112.7237209 -26.15720483 3.966598496e-19)
(117.5902929 -26.281775 2.59014043e-19)
(150.1971772 12.20873386 0)
(144.9194055 28.71261231 0)
(132.8716273 18.3263835 1.129752236e-18)
(143.4364096 27.01679008 0)
(149.1088783 12.1371477 -1.119656009e-18)
(143.0143324 -12.16910946 -1.998236829e-18)
(148.0699337 -2.530685133 0)
(137.1056086 -0.3843717924 1.08510115e-18)
(147.4094718 -2.232921737 -4.994805401e-19)
(142.6282086 -11.7659136 1.965444083e-18)
(149.1742237 11.16066169 5.563653172e-19)
(147.638399 -1.495223712 -1.023190823e-18)
(137.2307418 0.703832544 -3.281555835e-18)
(130.0022904 -22.81481316 8.980875939e-19)
(135.7502991 -19.3223857 0)
(130.5458358 -14.22839145 1.537690783e-18)
(135.2775309 -18.75887886 -2.028992751e-18)
(129.76702 -22.03781934 8.532303546e-19)
(142.2476312 -12.30862101 -3.751581207e-21)
(136.1214951 -18.14205746 0)
(131.6977193 -13.02908397 -7.540579503e-19)
(118.2948157 -26.22476434 0)
(123.2866227 -25.32926722 0)
(106.5534411 -31.14984334 1.801903901e-19)
(106.1916196 -31.03018389 -3.771309243e-19)
(112.0355151 -26.13102271 0)
(108.7025054 -31.2180294 -1.670719384e-19)
(147.4598947 52.79837831 1.411751325e-17)
(121.6359685 64.49804231 8.234540342e-19)
(122.7533128 -26.65442807 1.131283673e-17)
(116.9463793 -19.8497534 -1.144816633e-20)
(114.3140727 -13.52996263 -5.585018007e-19)
(118.4936236 -10.98204545 -4.330777293e-20)
(105.217373 -29.95327235 1.713695766e-18)
(114.9260706 -29.35185695 -4.980479202e-19)
(117.3735422 -29.11836111 0)
(124.1834834 39.26275848 0)
(141.9473435 29.15047155 -3.355256756e-19)
(130.812482 20.47189004 0)
(117.7396184 -29.04454245 2.328622201e-19)
(120.1838754 -28.70901488 0)
(120.9415177 -20.15011398 -7.180371548e-19)
(123.1291654 -24.57450008 0)
(118.2007268 -25.47096583 0)
(129.0141977 -22.40335083 -8.524148393e-19)
(123.8500662 -24.37143987 0)
(122.1393695 -19.70810833 7.169541148e-19)
(83.745548 29.83134069 4.182528971e-19)
(120.783575 42.68278897 0)
(104.1672498 34.01498357 0)
(86.10430151 32.43530747 -7.19183182e-19)
(148.9396146 49.70677387 0)
(137.8696071 37.74279452 1.180290319e-18)
(147.6106227 49.72496514 0)
(121.99554 60.23200234 8.021199296e-19)
(145.3782258 52.19306525 0)
(134.9408727 39.61475571 -1.342279413e-18)
(149.4520811 3.881474885 -1.046642938e-20)
(149.6011024 4.738772267 6.028653985e-19)
(139.2520551 -16.47179367 0)
(139.6892041 -16.04119889 6.974392646e-21)
(122.8886694 -28.0470939 6.212061142e-19)
(123.3614611 -26.80129172 -9.110478532e-18)
(126.2317137 -24.42908759 7.688665528e-19)
(125.491138 -26.77945207 1.313042918e-18)
(123.5046176 -27.69393601 -7.60002174e-21)
(126.3963009 -25.34165802 -4.164058167e-18)
(125.5762538 -26.66458549 -3.272640102e-18)
(126.9772264 -24.152903 4.013734933e-19)
(112.0352606 -29.10980444 -2.006504929e-19)
(114.2097961 -29.33306404 3.551461805e-19)
(106.3035488 -30.18721511 -2.134787653e-20)
(148.8340239 19.51027229 0)
(148.5168332 20.64410235 0)
(145.5108062 -7.949065014 0)
(145.8319525 -7.303992021 0)
(145.366578 -6.999375787 -2.699070967e-18)
(141.2101652 -4.938111372 -2.444733059e-18)
(142.3052719 -1.29947867 1.960633576e-20)
(139.2046028 -9.233663698 0)
(140.7632129 -6.078052097 -1.408298799e-20)
(145.0558244 -7.642775006 2.152861867e-18)
(148.8744369 4.863167646 -5.861334479e-19)
(143.1070484 5.550583167 0)
(142.7802776 10.0741489 -3.240945787e-20)
(142.573354 -0.001249056499 1.25132023e-18)
(143.0639548 4.111756865 0)
(148.7540474 4.013375737 -2.314405905e-18)
(132.4656593 -21.32306413 0)
(126.7062688 -25.08080407 4.108128392e-18)
(132.8640974 -21.05538392 0)
(123.1468873 -27.78560177 -2.660890825e-21)
(120.7224122 -28.28237433 -2.584443878e-19)
(121.1273756 -25.81395465 0)
(120.5090048 -28.64512817 2.584024145e-19)
(122.5864989 -28.15603037 -1.793955756e-18)
(102.6705748 -29.65575753 3.508702014e-18)
(111.3069293 -28.99455342 3.903170231e-19)
(114.7241238 85.79163673 -1.104795442e-17)
(114.4838563 -30.50250507 -4.379391971e-19)
(114.9476956 -30.23956038 1.512874272e-18)
(40.72035577 4.98327063 0)
(114.8375606 -30.09603833 2.558861526e-19)
(114.3585457 -29.60167051 3.149241004e-19)
(69.37108197 39.88479634 0)
(117.010365 63.40295477 0)
(98.56846528 50.06741135 5.32335164e-19)
(75.76100688 46.80230201 0)
(148.8824435 0.594570188 -1.053005224e-18)
(152.7957759 11.09812722 2.913651432e-18)
(152.3015411 7.948853016 7.976419621e-21)
(150.0848768 8.323260954 -1.181502758e-18)
(137.4881182 -18.01668285 -1.694395451e-18)
(137.6924573 -19.47687461 -2.456873589e-20)
(136.4282929 -20.39404184 1.841819535e-18)
(142.8081563 -14.14920756 0)
(141.3698289 -15.75775448 0)
(141.3992345 -14.2383246 0)
(149.8115563 15.25918711 -1.132670545e-18)
(152.641014 15.4180169 -5.818437234e-17)
(152.9531279 12.17980903 -9.039988798e-18)
(147.4131171 20.22328629 0)
(140.329275 18.09208873 -1.219802746e-18)
(137.3802291 22.87763139 1.147406957e-18)
(142.4978922 11.64782181 -1.26414226e-18)
(141.0424198 16.45996108 -4.068716821e-20)
(147.7008829 19.15392076 0)
(144.1414144 -10.44058521 3.243896025e-18)
(144.6072903 -11.71978195 -5.788865496e-19)
(143.2774331 -13.58601364 5.691961082e-18)
(147.1916665 -4.70750311 2.124106098e-18)
(135.9721573 -20.70475328 -2.781783258e-18)
(134.6046855 -21.51270587 0)
(134.4823905 -20.09541692 -7.832776764e-19)
(132.8484068 -20.34084533 2.182136671e-19)
(131.1397252 -17.95745146 -1.998497836e-20)
(133.2504537 -16.32378784 9.277987886e-19)
(139.4190108 -15.60195528 -4.473531806e-19)
(136.7170053 -12.81869378 -2.138942968e-18)
(138.6190802 -10.19972011 0)
(133.9563092 -15.70689634 -9.924260007e-19)
(136.0431292 -13.60578398 -2.070586065e-18)
(138.9987648 -16.02944899 0)
(120.4178223 -25.9419513 0)
(120.3779125 -28.34955296 0)
(118.0877271 -28.48371191 -4.295538548e-19)
(103.9266331 -30.32989695 0)
(138.4338851 61.48593311 -1.08723639e-18)
(116.8036892 82.21777636 6.625161052e-18)
(134.6004371 63.76977095 7.261415508e-20)
(123.9639307 -26.15878452 -7.604531081e-21)
(124.2341767 -26.01986823 1.630068736e-18)
(113.6697895 -30.5831002 8.037153509e-19)
(114.3435893 -30.50913473 2.121375444e-19)
(105.0297059 -29.54731239 -3.054850612e-17)
(53.51390846 -10.26979062 0)
(47.44195979 5.198285928 3.732256245e-18)
(56.87613887 -11.81357243 -4.506912934e-18)
(116.4337942 -29.19467838 -5.889791364e-19)
(116.8078056 -29.65494254 5.217783973e-19)
(119.1507211 -28.87704839 9.82752818e-19)
(113.6032915 -29.31038471 0)
(113.1610027 -28.84511529 -5.630242619e-18)
(151.2675561 42.06472765 0)
(146.3070101 39.59336915 5.500015441e-19)
(141.5291681 43.97232762 -8.822284566e-21)
(150.4188074 33.50093968 4.714766746e-18)
(147.5728819 38.07609864 0)
(139.683692 45.37073035 2.068565885e-18)
(133.321636 48.91420974 4.476184078e-19)
(137.1036323 58.07315428 0)
(151.1101276 3.29692199 -1.875574254e-19)
(150.0862 0.6541020817 -8.437198839e-17)
(149.0178088 1.390151445 -8.82508948e-18)
(149.9905482 7.39580354 0)
(152.0738826 6.948035767 -2.95867938e-18)
(151.3588723 4.188838089 -2.946014041e-20)
(139.6321591 -17.82932476 0)
(138.1661753 -19.11168373 3.811268266e-18)
(137.9323625 -17.66115307 2.600725717e-18)
(137.1664388 -19.69629704 -5.486612017e-18)
(138.8981795 -18.36038905 0)
(135.9147279 -20.79712163 -2.115403761e-18)
(136.6719535 -20.06621403 6.058301667e-18)
(139.3888889 -17.79876005 -1.614675257e-19)
(140.9789536 -14.70361723 1.025217219e-18)
(140.8730202 -16.17959848 1.558650759e-17)
(140.0906414 -17.34340718 0)
(123.2778946 -27.68213826 0)
(123.4277348 -27.49188833 1.317230849e-18)
(124.764837 -27.30167176 -6.448430733e-19)
(125.3818457 -26.0938253 6.123204001e-19)
(126.4876234 -25.76589033 -1.265319426e-18)
(126.4987751 -25.96342541 -1.004496176e-18)
(128.3701848 -25.00622912 3.425731029e-19)
(129.5036994 -24.50552971 -7.040976655e-19)
(126.8541519 -25.5902655 6.310874758e-19)
(127.9905456 -25.16587891 0)
(126.3090736 -26.15213442 0)
(107.8240675 -30.93137275 9.296168814e-19)
(112.4470201 -30.54295057 0)
(113.3824475 -30.57053777 -1.898113474e-19)
(152.4887231 20.29001587 6.498584052e-18)
(152.5906041 16.6597442 0)
(149.6091825 16.28768843 -1.135963448e-18)
(153.2930368 16.71385403 0)
(153.4027474 20.3648423 -5.93980078e-18)
(153.1206347 15.39666476 8.473873011e-17)
(152.3443254 27.34706707 0)
(151.1479488 31.93517608 0)
(153.4169181 21.60016618 -1.37638881e-18)
(152.5889899 25.91868918 0)
(147.3014289 24.01965937 1.116020139e-18)
(151.4894914 25.51556948 -1.249198656e-18)
(152.4068403 21.55479871 6.33636013e-19)
(146.1950191 -9.026945381 2.098275447e-18)
(145.0357161 -11.05535987 -4.635610895e-18)
(144.4992263 -9.835573542 -1.088526875e-18)
(146.8488073 -5.378428519 -1.054929287e-18)
(147.3359466 -6.477369997 1.023424801e-17)
(146.5188976 -8.326475537 3.507990136e-18)
(131.3416075 -23.57129573 -7.387996826e-19)
(132.4763298 -22.9880767 -8.08843592e-21)
(129.8885083 -24.32703155 7.250910074e-19)
(131.0021673 -23.74306174 -7.442824761e-19)
(127.0987742 -24.40303324 6.708062727e-18)
(134.1756728 -21.88146821 -8.687058728e-19)
(135.5151325 -21.10376049 2.117590832e-18)
(132.8433278 -22.75271757 9.210105181e-22)
(133.7787441 -22.12951917 0)
(112.5479281 -28.62100945 1.897105012e-17)
(121.4981805 -28.45063263 0)
(115.6050842 -28.40619666 0)
(115.7570829 -28.92499346 0)
(115.7823216 -28.28692621 -5.310944741e-18)
(121.7982246 -28.35500899 0)
(102.7687499 -30.08524289 0)
(119.3942987 22.56234281 2.866477161e-19)
(115.0747201 12.05355926 0)
(109.4063446 12.40766263 0)
(108.3649938 -29.62900389 -4.960362208e-18)
(108.6217351 -29.54122655 5.926156749e-18)
(112.8832941 -14.00701103 -4.913788494e-19)
(107.9931797 -29.31137211 4.258628841e-18)
(117.5116676 -25.54212034 0)
(113.0869214 -25.17334251 -4.594422817e-19)
(112.8402475 -21.36245646 0)
(55.06729939 50.34285082 1.485771819e-18)
(54.40799298 27.3802291 4.670897573e-19)
(42.74587067 14.12021495 0)
(101.612751 88.97536661 -1.254640362e-18)
(87.66258424 67.58875129 -1.572826609e-18)
(61.40626594 59.27664687 -1.395305172e-18)
(112.2351437 23.99170111 8.085246528e-19)
(107.4709095 31.55506976 1.715175829e-19)
(121.0345147 39.26060928 0)
(141.4465417 33.41707092 0)
(145.6527599 36.77276394 5.479992238e-19)
(148.6805244 32.51767616 0)
(111.0703005 -30.38252092 0)
(112.1059663 -30.56404361 0)
(108.2130253 -31.00390865 -3.769075501e-19)
(117.3667923 -28.54913042 2.7394116e-19)
(115.2021122 -28.5740972 9.882718558e-19)
(115.4887807 -26.34627017 4.678710065e-19)
(149.5018944 31.12489867 0)
(151.1019432 26.86227452 0)
(146.7924663 25.13185197 0)
(102.8598429 -30.56172337 1.148229327e-18)
(105.7289005 -30.95128726 -9.238179478e-20)
(100.6974675 -30.05597658 7.721835465e-19)
(101.8053791 -30.24716718 5.081276845e-18)
(110.7069478 -30.37343795 3.203781516e-19)
(145.4639277 55.42590991 1.207489547e-18)
(123.1762908 -26.49440426 5.459118468e-18)
(110.0288416 -30.7281956 0)
(109.8206386 -30.54131565 0)
(105.6385797 -29.85086623 2.1057869e-18)
(116.3091885 -30.09753629 -9.566628293e-19)
(115.4373627 -30.21805644 -4.325286725e-19)
(116.3038388 -29.1182363 -4.269386913e-19)
(136.0959325 24.39688012 0)
(131.3429604 28.34781054 1.495287665e-18)
(135.845408 35.00912232 0)
(118.806488 -28.9723292 -4.923995082e-19)
(116.9103496 -29.79436385 -3.283516193e-20)
(116.5065 -30.04173383 -2.417145227e-19)
(111.5645922 39.3140298 0)
(103.3514573 47.50121609 -5.368317321e-19)
(118.233082 59.53950425 0)
(149.3058036 47.1976066 1.079590179e-17)
(147.2099029 46.33967059 0)
(145.3849822 48.4272016 0)
(152.6573887 34.05482203 4.185800321e-17)
(152.3358915 36.13262286 8.954237009e-19)
(123.1223854 -27.89661814 0)
(121.2298368 -27.94659557 0)
(121.1819143 -28.12526338 -3.350393832e-18)
(120.7451358 -26.6778955 -5.834373019e-18)
(121.3063532 -26.95553074 4.035337615e-18)
(123.7563461 -27.05276253 3.634255039e-19)
(123.8898308 -26.52147106 0)
(125.0001807 -26.25321063 2.044073618e-21)
(124.4430235 -27.410445 3.061745023e-19)
(125.9100192 -25.60978105 7.196655262e-19)
(128.2679537 -25.44327776 -1.423082418e-18)
(128.4845191 -25.19776179 5.223015608e-18)
(107.2881982 -30.51947284 2.737467737e-20)
(110.6226768 -30.93736973 -3.962765309e-19)
(110.3605572 -30.80106426 0)
(129.5813146 -23.70244333 -4.82791037e-18)
(130.0567236 -23.49058825 0)
(128.7774853 -24.98009971 -3.984766139e-18)
(129.1101191 -24.76836542 2.130493067e-19)
(127.1230473 -24.86922696 4.953523807e-19)
(130.3623201 -23.25343661 -9.234931679e-18)
(130.0954929 -22.98421154 -2.831096429e-17)
(134.066158 -20.39377986 0)
(134.184999 -21.75230162 -7.886122541e-19)
(133.0085413 -22.3444402 -9.623648526e-20)
(103.3122802 -29.89977419 -2.409537665e-18)
(107.5768872 -29.8459865 1.828307854e-18)
(108.0271451 -29.72955978 4.34449171e-18)
(112.1611744 -29.96915954 -3.278663588e-18)
(112.2511563 -30.165783 4.201744356e-18)
(114.854324 -30.38112358 2.463919683e-19)
(42.08484216 -1.442525107 -1.918068764e-17)
(32.03491215 8.15044002 1.436864798e-18)
(44.96830303 -7.12795987 0)
(114.6564443 -30.00963284 -7.542526108e-19)
(110.487314 -29.46720136 -5.693395767e-18)
(111.4146491 -29.68020429 6.819999693e-18)
(110.9476799 -29.19736763 9.190942306e-18)
(110.9282251 -29.32044914 2.492008477e-18)
(114.5456124 -29.80787673 8.030691882e-19)
(106.5417323 58.33484171 1.895617609e-18)
(94.23271573 65.35757291 0)
(108.9366196 80.7731152 1.461341638e-18)
(149.7130263 -0.8194858087 0)
(149.8685388 -0.01380316072 9.06651433e-18)
(149.1915078 -2.351530328 6.715236003e-19)
(149.4713281 -1.588127257 2.937836719e-18)
(152.6370592 10.04202879 -2.942592709e-18)
(151.9379845 10.15387862 1.307250525e-18)
(152.0536536 11.18185327 -2.528596146e-18)
(151.6649166 8.141490674 0)
(151.8118593 9.141111094 6.45445229e-18)
(152.4808187 8.997452247 -7.468969637e-18)
(142.337748 -14.72799497 1.220765454e-18)
(142.7923792 -14.11190764 1.031101366e-20)
(143.2231869 -13.55438448 -5.32754893e-18)
(141.9033535 -15.14559767 0)
(142.3508787 -14.65254456 -9.830193253e-19)
(141.8364521 -15.29192699 -1.189169064e-18)
(152.8767515 14.38930913 9.517633537e-18)
(152.0616496 14.47357318 4.667297656e-18)
(151.9072156 15.55254597 1.420608645e-17)
(152.1425084 12.24357415 3.060969951e-18)
(152.1551481 13.35234826 -5.606239769e-19)
(153.0095897 13.30877198 5.158807395e-18)
(144.1764624 -12.32631217 5.26602165e-18)
(144.4463696 -11.77898298 -1.145297713e-18)
(144.8342725 -11.16638748 4.736513426e-18)
(143.6456755 -12.98394884 -5.551569695e-18)
(144.0524426 -12.38653114 2.252244598e-18)
(143.7393416 -12.95812505 -6.40924521e-19)
(148.6531948 -3.995539697 1.291950957e-18)
(148.9345263 -3.149090131 -6.594211788e-19)
(147.9203724 -5.460756354 -1.133672441e-18)
(148.3232062 -4.765908984 -4.91343897e-18)
(98.64132264 -29.81309997 -4.06870078e-18)
(100.027936 -29.75632026 3.07829496e-18)
(100.9049616 -29.98935358 9.484171959e-19)
(105.1021237 -30.6708096 4.862478155e-20)
(97.98002578 -29.60515722 -8.956379806e-18)
(140.8210291 63.14704292 1.035098256e-17)
(144.6165323 58.85303046 0)
(142.5769742 58.56066113 1.821621151e-18)
(127.5798896 76.57092715 1.110658246e-16)
(126.4769352 74.46331716 -2.849158292e-18)
(118.9141668 76.42398216 5.916691549e-19)
(138.2832217 66.79902386 3.272487226e-17)
(132.8927387 70.67214363 2.284549157e-17)
(123.5069664 -26.32149243 4.200118021e-19)
(123.8854847 -25.80222169 0)
(105.6919358 -29.7620077 0)
(109.545653 -30.34413601 2.351992465e-19)
(108.6196425 -30.05056238 -7.403729319e-19)
(50.46879239 -7.156280113 0)
(112.696218 -29.10361276 0)
(110.3093288 -28.96050904 -4.477610453e-18)
(113.1247678 -28.96380852 0)
(150.1818372 41.92069888 0)
(148.8170909 44.27008103 0)
(150.5059416 44.85243015 0)
(149.5810764 34.96981914 0)
(151.1682456 35.82893304 -6.609797722e-19)
(151.8545842 33.94738446 -3.968359174e-18)
(151.8705613 37.85452288 2.969368422e-18)
(151.2093809 39.82617231 -2.460443124e-18)
(150.833881 2.454492114 -1.569529951e-18)
(150.5043341 2.728792223 4.075881657e-18)
(150.7014828 3.584391932 2.904079448e-18)
(150.0158901 0.8450587071 4.049392867e-17)
(150.3740711 1.901769343 -1.078410598e-17)
(150.5869662 1.687825828 1.612288521e-17)
(151.8255901 6.015881544 3.00130805e-18)
(151.2919322 6.244290058 0)
(151.488471 7.172346246 2.669652339e-18)
(150.8967556 4.453314287 -2.716728924e-18)
(151.0941421 5.341601606 0)
(151.5935457 5.094553933 -1.502305669e-18)
(139.1549069 -18.3007514 1.031682913e-18)
(139.2311937 -17.87205367 2.939530934e-18)
(139.7004887 -17.42610034 -1.006118133e-18)
(137.7336872 -19.30543843 -3.431123184e-18)
(138.3258491 -18.88427818 0)
(136.1050813 -20.51343593 -2.446304148e-17)
(134.6186991 -20.83521667 6.290714233e-17)
(134.686343 -21.17703317 -1.086897951e-17)
(136.0994665 -20.38992392 3.557333469e-18)
(139.7404805 -17.32344477 -5.828179303e-18)
(139.7573582 -16.89752182 0)
(140.8085818 -16.43542242 -2.005501634e-17)
(141.057997 -16.05051527 7.771298569e-18)
(141.4771208 -15.60773679 -1.871459018e-18)
(140.1662041 -16.9715531 0)
(140.6255828 -16.51095516 2.003199115e-18)
(140.510637 -16.87616104 -2.785178423e-19)
(120.1594227 -27.60409147 2.568677412e-18)
(120.7814631 -27.73219543 0)
(123.217213 -27.76165643 0)
(117.9210671 -27.56327194 0)
(118.2294038 -27.91412718 2.974102333e-18)
(118.4630375 -27.7834351 2.350012516e-19)
(123.6726404 -27.29478164 -1.44443889e-18)
(121.0824735 -27.18837552 3.378046977e-18)
(120.700067 -27.42084076 -8.964893422e-18)
(127.8434217 -25.78005808 1.84501151e-19)
(128.0739067 -25.59744628 7.19134824e-19)
(126.3180949 -25.74140469 0)
(152.541536 19.08001937 8.069753364e-18)
(151.568778 18.90888434 -3.781213773e-18)
(151.4282586 20.09148213 1.214462957e-18)
(151.7718995 16.59313569 -3.653025043e-18)
(151.6720106 17.7370428 -1.266249951e-18)
(152.5845851 17.85275726 -1.380979488e-18)
(153.3943966 17.86140497 0)
(153.3938216 19.13509057 -1.884181471e-17)
(152.0939022 28.79926484 6.518629339e-19)
(153.2167368 28.96620183 0)
(153.2999789 27.49471452 0)
(152.5415187 32.2479327 -1.004412564e-17)
(153.0206788 30.57115999 0)
(151.7128326 30.35521453 -6.121940174e-19)
(153.2631046 22.86789264 -1.953793415e-17)
(153.4590947 26.15642868 0)
(153.6190661 24.32717678 0)
(152.9087932 24.25707137 1.672866017e-17)
(145.8351394 -9.730977537 0)
(145.9309173 -9.22685141 6.177836818e-19)
(146.2595788 -8.555071526 0)
(145.2107101 -10.52979001 7.190487022e-18)
(145.5767067 -9.882076116 1.802850426e-18)
(145.4434438 -10.38246925 0)
(147.1600068 -7.021832113 0)
(147.28111 -6.580871678 -6.383090836e-19)
(147.6913261 -5.921230965 7.707389145e-18)
(146.5723775 -7.890921104 -3.873822389e-18)
(146.9027429 -7.235720151 3.90032297e-18)
(146.8465049 -7.662430818 -2.984648268e-18)
(128.8306347 -24.10151155 -1.222016448e-17)
(129.2287721 -23.89341342 -2.62450173e-18)
(127.403367 -24.67728589 -1.403145993e-17)
(129.342611 -24.53001855 -2.129338145e-19)
(129.22415 -24.25696548 1.054568352e-17)
(134.597035 -21.62273725 9.059020604e-19)
(133.1784171 -22.02795417 8.479191276e-18)
(132.6820252 -22.29173609 -8.104569853e-18)
(134.2611602 -21.49913834 9.957462571e-18)
(133.6947436 -21.78102004 -9.379390445e-18)
(135.0442119 -21.37280166 3.816105945e-18)
(133.1444049 -22.53513676 4.732250684e-18)
(131.9631954 -22.83378454 8.208570478e-18)
(131.9944593 -23.05994162 -2.276097389e-19)
(132.2583024 -22.53801095 -3.68256929e-18)
(131.7450255 -22.74730058 1.611879883e-17)
(133.4401852 -22.36680264 0)
(115.3417578 -28.55803723 0)
(118.6725244 -28.89191239 0)
(118.8073313 -28.74844071 0)
(118.7679406 -29.16294563 -5.280942226e-19)
(118.6666538 -29.07434019 3.391858191e-20)
(114.9027956 -28.73092416 -3.441509818e-20)
(117.4287806 -28.19794759 4.783884725e-18)
(117.8935505 -28.05873809 -2.781815964e-18)
(118.7777214 -28.56729216 1.133003386e-18)
(118.1944871 -28.34450586 0)
(115.1601222 -28.06967757 -5.112171285e-18)
(103.2338102 -29.99786154 0)
(99.7208099 2.998233185 2.391726136e-19)
(99.92813078 1.751264839 -1.853405231e-22)
(99.7723592 3.077580401 -2.401147702e-19)
(99.97319344 3.193247317 5.165763836e-22)
(100.0216148 1.863261975 5.903328534e-22)
(100.0336407 3.193187365 2.272469401e-23)
(100.2290924 3.065618533 0)
(100.1092691 1.801697998 0)
(100.2733432 2.98731223 4.117050288e-21)
(100.3977075 2.67267377 -6.26348839e-21)
(100.1682118 1.587475627 0)
(100.4150077 2.549570801 1.855457338e-21)
(100.4539208 2.153212584 4.848216506e-21)
(100.1849859 1.293750745 -3.942309864e-21)
(100.4460276 2.01789671 -2.265755481e-21)
(100.4199122 1.627054969 0)
(100.1695469 0.9950840703 -1.034439764e-20)
(99.29043366 4.9187344 6.181565608e-19)
(99.63262986 3.443014789 3.020306634e-19)
(99.45601053 5.0606316 4.230551789e-20)
(100.008153 5.251264197 1.599337171e-22)
(99.97046867 3.669837368 -5.198612113e-22)
(100.1885796 5.22723683 2.113094372e-19)
(100.6584534 4.931602647 -2.405999403e-21)
(100.303463 3.509786061 0)
(100.7791674 4.773517407 -3.799609143e-19)
(101.0282777 4.184856503 0)
(100.5180866 3.044374739 -8.469002065e-22)
(101.0733835 3.964962431 -5.288842771e-20)
(101.1209815 3.279748076 2.718846083e-20)
(100.5890241 2.440282408 -1.815012063e-20)
(101.110572 3.05303316 8.752836833e-20)
(101.026621 2.413181622 -2.817503136e-19)
(100.5445238 1.833529633 -1.124480036e-20)
(98.63026633 7.445506777 3.879853659e-19)
(99.15122824 5.479940287 3.736526522e-20)
(99.00815174 7.715036594 -8.748628448e-22)
(100.300802 7.927411956 0)
(100.0477806 5.846015152 5.957928201e-20)
(100.6996566 7.816843162 -2.001118835e-20)
(101.6335468 7.097986797 3.04863544e-20)
(100.8358914 5.441191409 2.364755398e-21)
(101.844076 6.77606602 0)
(102.2042613 5.710965885 0)
(101.2607686 4.569944552 -5.285143124e-19)
(102.2490595 5.339117841 -4.427181815e-20)
(102.2181153 4.277039757 0)
(101.3483388 3.548599715 2.626684295e-21)
(102.1643958 3.945638901 0)
(101.9227683 3.029256305 0)
(101.2242779 2.588665649 0)
(97.24473289 11.19057422 0)
(98.39561515 8.226056422 0)
(98.17919976 11.73161902 -6.277358394e-21)
(101.2223105 11.85124805 -6.769893584e-20)
(100.4487554 8.754249329 1.509010509e-20)
(102.0716834 11.43448787 -8.930101617e-20)
(103.6988855 9.590132057 -1.720499549e-18)
(102.0168678 7.695971412 -5.07128208e-19)
(103.9742987 8.907082762 8.937716257e-19)
(104.2435695 7.005352987 -1.029289736e-18)
(102.6199643 6.064438179 -9.851340554e-20)
(104.1940775 6.436690572 -1.420230202e-19)
(103.8369479 4.937122834 1.370053044e-19)
(102.5740068 4.485860815 1.165967593e-19)
(103.6737145 4.500287973 4.250756207e-19)
(103.1256027 3.349996908 1.331882617e-19)
(102.1954778 3.143930867 2.805318784e-20)
(93.00162085 18.95434003 -3.823200711e-19)
(96.60214677 12.45752698 0)
(94.33341038 20.05642514 1.887088861e-20)
(104.2749575 18.58869063 0)
(101.6578937 13.17348046 -2.053907498e-20)
(105.9398624 16.95138477 -4.058619316e-19)