/*--------------------------------*- C++ -*----------------------------------*\
| =========                 |                                                 |
| \\      /  F ield         | OpenFOAM: The Open Source CFD Toolbox           |
|  \\    /   O peration     | Version:  v2012                                 |
|   \\  /    A nd           | Website:  www.openfoam.com                      |
|    \\/     M anipulation  |                                                 |
\*---------------------------------------------------------------------------*/
FoamFile
{
    version     2.0;
    format      ascii;
    class       surfaceVectorField;
    location    "2.54";
    object      Uf;
}
// * * * * * * * * * * * * * * * * * * * * * * * * * * * * * * * * * * * * * //

dimensions      [0 1 -1 0 0 0 0];


internalField   nonuniform List<vector> 
6430
(
(101.4242071 -0.4011970038 5.802384769e-20)
(101.6534896 -0.2076836146 3.458744698e-21)
(101.3355927 -0.8128220837 -5.304967531e-20)
(101.5983429 -0.6275722516 5.461097378e-20)
(101.1805994 -1.244631309 -1.019315006e-19)
(101.4911581 -1.060147055 -1.100248211e-19)
(100.8581629 -1.681330157 -1.507225255e-21)
(101.3130527 -1.536580169 -2.301029309e-22)
(101.018724 -1.73358886 3.171802283e-19)
(100.6371891 -1.744744637 -8.660227248e-22)
(100.8577782 -1.84162248 2.204566355e-19)
(100.6505267 -1.913463688 -8.690698867e-22)
(100.2000402 -2.253817991 0)
(100.4458749 -2.181481539 0)
(100.4751751 -2.382657231 0)
(100.2085808 -2.470414871 0)
(99.64723636 -2.871949002 2.568732822e-21)
(99.94641023 -2.785477027 -5.805552509e-20)
(99.97839064 -3.038638547 -3.416890428e-19)
(99.59404753 -3.103701192 -3.811440133e-19)
(99.71413662 -3.162440204 -4.824753533e-20)
(99.0092526 -3.518514774 -5.354082344e-19)
(99.20757536 -3.471149533 -2.698842874e-19)
(99.20299206 -3.615375342 -4.630701419e-19)
(98.98725977 -3.673455065 -4.905048584e-19)
(97.87746134 -4.412870033 2.543833361e-19)
(98.15825272 -4.353040595 2.535332645e-19)
(98.12665217 -4.533066059 -8.408714513e-22)
(97.83001315 -4.60875515 1.138482969e-19)
(96.33373523 -5.565424654 5.608950018e-19)
(96.69998906 -5.484489948 1.330205458e-21)
(96.65910219 -5.714450942 2.734824896e-19)
(96.27516135 -5.81705712 2.785210462e-19)
(94.40763448 -7.062480417 -1.52930357e-19)
(94.86199356 -6.950837671 2.101668956e-19)
(94.82137211 -7.270395273 2.055341868e-19)
(94.26516967 -7.342871126 7.010424027e-19)
(94.41036909 -7.408815812 -4.256983321e-19)
(92.52707219 -8.700446118 4.949515462e-19)
(92.66107187 -8.689166885 -1.097591544e-19)
(92.63763906 -8.782555292 4.715467038e-22)
(92.51645652 -8.803102291 -6.366582284e-21)
(101.8237124 -0.4332139146 0)
(102.0604503 -0.2206419321 0)
(101.7501607 -0.8779779312 0)
(102.0161309 -0.6678405253 0)
(101.6214125 -1.346493438 0)
(101.931281 -1.127098336 0)
(101.3391319 -1.830187783 0)
(101.7885718 -1.627907655 0)
(101.5129674 -1.875189184 0)
(101.1177596 -1.924478844 2.206354903e-19)
(101.3654992 -1.988593362 0)
(101.1585234 -2.093923586 0)
(100.7497369 -2.491285007 0)
(100.9868339 -2.38734062 0)
(101.0457962 -2.575134992 0)
(100.7928744 -2.702481617 0)
(100.3026989 -3.176813939 -1.254082107e-19)
(100.5835622 -3.045141264 1.641990783e-19)
(100.6546348 -3.274058778 1.093182628e-19)
(100.2967628 -3.401976525 1.093779383e-19)
(100.424021 -3.431938856 3.868414862e-19)
(99.79659546 -3.865653605 -3.791160798e-19)
(99.98338397 -3.792962385 5.453473185e-20)
(100.0078945 -3.92473594 5.510952916e-20)
(99.80536434 -4.010111229 8.212844627e-20)
(98.87809023 -4.830591117 -1.308228673e-19)
(99.1369104 -4.735677195 -8.983343334e-19)
(99.14646638 -4.894183213 3.802411829e-21)
(98.8740607 -5.007580094 -1.205082932e-19)
(97.6439336 -6.072114782 -1.257832409e-19)
(97.97904335 -5.940365742 0)
(97.9958479 -6.138665235 0)
(97.64720921 -6.298483071 -3.542891839e-19)
(96.13300997 -7.770967104 -3.689966979e-19)
(96.56192089 -7.565561108 -9.31084364e-21)
(96.62188641 -7.844041166 2.128361899e-19)
(96.09266933 -8.057940338 -7.65204518e-19)
(96.27911502 -8.084842927 1.386578648e-19)
(94.74813156 -10.04487828 4.693787139e-19)
(94.98643829 -9.983308493 -1.204424368e-19)
(95.08862566 -10.22945043 -1.204118323e-19)
(94.64898058 -10.18655312 -3.635721647e-19)
(94.65654851 -10.37636095 -8.029787762e-20)
(94.80125823 -10.40718533 -7.454078152e-20)
(102.2486866 -0.4542228999 0)
(102.4871468 -0.2280657466 0)
(102.1918745 -0.9198624204 0)
(102.4535283 -0.6909290672 0)
(102.0914097 -1.408631352 0)
(102.39043 -1.165126735 0)
(101.8521565 -1.917091499 0)
(102.2807878 -1.673700085 0)
(102.0312495 -1.948109564 0)
(101.6336155 -2.037241882 0)
(101.8984075 -2.070499252 0)
(101.701785 -2.198980681 0)
(101.3470093 -2.635709849 0)
(101.5688434 -2.503659258 0)
(101.6509665 -2.674606723 0)
(101.4214288 -2.827207208 0)
(101.0085321 -3.336888395 -5.337487278e-20)
(101.2648769 -3.17558047 0)
(101.3618149 -3.370409791 -1.807679577e-21)
(101.041248 -3.538858629 -2.499521286e-19)
(101.1677008 -3.560746029 2.499632468e-19)
(100.6441897 -4.034674431 -2.375698975e-19)
(100.808444 -3.941864774 5.757396629e-19)
(100.8533751 -4.05282413 2.10167427e-19)
(100.6794441 -4.155756085 6.01559595e-19)
(99.95098679 -4.988645762 1.009193009e-19)
(100.1794541 -4.868834281 0)
(100.2161958 -4.991341537 -4.621660533e-20)
(99.98357172 -5.134411817 1.895741844e-19)
(99.04078026 -6.189506018 -2.038300564e-19)
(99.32676296 -6.018873472 -1.053722771e-19)
(99.37591015 -6.163303608 -7.555311577e-20)
(99.09320914 -6.355166105 4.302013352e-20)
(98.07201393 -7.78597128 -3.775969058e-19)
(98.40716631 -7.524345356 -3.598636233e-19)
(98.52081791 -7.68882638 -1.656452034e-19)
(98.22469064 -7.985283094 -1.920114002e-19)
(97.82495455 -10.03612792 -2.12902507e-19)
(97.89754923 -9.614387332 -6.156196658e-20)
(97.58241817 -9.770923417 -4.589494089e-19)
(92.4426128 -9.22876123 -3.98022025e-19)
(97.52339265 -10.26089789 -2.12902507e-19)
(102.6879167 -0.4641006405 0)
(102.9231477 -0.2303738451 0)
(102.6471304 -0.9385873022 0)
(102.8992621 -0.6978826417 0)
(102.5737082 -1.433745442 0)
(102.855608 -1.175936073 0)
(102.3758036 -1.954158795 0)
(102.7758473 -1.679460005 0)
(102.553701 -1.967262043 0)
(102.1666146 -2.089978795 0)
(102.4348637 -2.096624044 0)
(102.2539616 -2.239728351 0)
(101.9534886 -2.693502116 0)
(102.15585 -2.543237338 0)
(102.252918 -2.69417032 0)
(102.049219 -2.861965774 0)
(101.7102318 -3.376704445 -1.452301818e-21)
(101.938155 -3.201490651 3.506901925e-22)
(102.0495631 -3.358680991 3.50704972e-22)
(101.7680933 -3.566508182 -5.652293124e-20)
(101.8870938 -3.558917997 3.5530061e-21)
(101.4616273 -4.056671615 -4.23249913e-20)
(101.600987 -3.952742024 2.326912434e-19)
(101.6562154 -4.041993973 1.278990592e-19)
(101.5114582 -4.153542777 1.683290559e-19)
(100.9657134 -4.933404053 -1.571025641e-19)
(101.1552257 -4.800928101 -3.04697571e-19)
(101.2007602 -4.89417321 -7.756137515e-20)
(101.0110775 -5.036275225 -3.056096098e-19)
(100.3072883 -5.983541245 3.089480297e-22)
(100.5350403 -5.806703594 -4.455369607e-20)
(100.5891549 -5.898193513 -3.968675324e-20)
(100.3707782 -6.087033997 1.590720365e-20)
(99.68238029 -7.245805465 0)
(99.91702027 -6.998491885 0)
(100.0042728 -7.064008578 -1.563791201e-20)
(99.80786702 -7.320562041 1.37077536e-19)
(97.13202708 -8.415239232 -1.24387658e-19)
(98.33547827 -8.16675401 7.133690051e-20)
(96.86446748 -7.969797157 -2.597425938e-21)
(93.34158798 -7.732133101 0)
(103.1309509 -0.4639946496 0)
(103.3590238 -0.2282908426 0)
(103.1039415 -0.93691514 0)
(103.3434989 -0.6909973669 0)
(103.0537051 -1.427137762 0)
(103.3161226 -1.163318945 0)
(102.8926923 -1.947495079 0)
(103.2613464 -1.651500408 0)
(103.0645203 -1.940418206 0)
(102.6971698 -2.091012531 0)
(102.9586767 -2.074914858 0)
(102.7958608 -2.225887066 0)
(102.5456814 -2.678358854 0)
(102.7266755 -2.518467628 0)
(102.8309653 -2.648021321 0)
(102.6527546 -2.822138808 0)
(102.3777436 -3.320000113 0)
(102.576801 -3.14119412 0)
(102.6923373 -3.263877278 0)
(102.4460462 -3.49144993 0)
(102.5544637 -3.46075506 0)
(102.208517 -3.955031275 -4.401570214e-21)
(102.3244233 -3.845502807 -4.397984697e-21)
(102.3810443 -3.913732389 1.306382219e-23)
(102.2616566 -4.02823482 6.793004408e-20)
(101.8461811 -4.730228843 7.161423927e-20)
(101.998632 -4.599354365 2.403019089e-19)
(102.040975 -4.661573127 9.49480722e-21)
(101.8883583 -4.798469105 2.143864541e-21)
(101.3322915 -5.586153865 -5.712313672e-20)
(101.5103815 -5.422359734 -5.796286917e-20)
(101.5456097 -5.470400578 -1.228851649e-19)
(101.3744359 -5.637786683 -1.516401037e-19)
(100.8153065 -6.501407138 2.52785083e-20)
(100.9860937 -6.297101557 6.666018252e-20)
(101.0414093 -6.316301978 1.162824266e-19)
(100.9093516 -6.523398352 1.243762457e-19)
(95.79607409 -6.767980192 -1.081492452e-19)
(97.66564599 -6.798591131 0)
(95.41857934 -6.422629466 -1.028453801e-19)
(93.74502874 -6.498623357 1.36787242e-19)
(103.568794 -0.4555800874 0)
(103.7869952 -0.2226394081 0)
(103.5528471 -0.9183744951 0)
(103.7782237 -0.6729443617 0)
(103.5210154 -1.394535014 0)
(103.7634273 -1.131839409 0)
(103.3906584 -1.903044504 0)
(103.7279069 -1.597051329 0)
(103.5531342 -1.879342666 0)
(103.210682 -2.048603165 0)
(103.4591574 -2.014608113 0)
(103.3139638 -2.167563571 0)
(103.1062232 -2.605272046 0)
(103.266529 -2.442912468 0)
(103.371501 -2.552163774 0)
(103.2160893 -2.725288048 0)
(102.9918017 -3.193365625 0)
(103.1641222 -3.017572311 0)
(103.2752629 -3.11137698 0)
(103.0602125 -3.341583076 0)
(103.1564034 -3.297094555 0)
(102.863551 -3.762338116 0)
(102.9624835 -3.655212313 0)
(103.0132934 -3.704993304 0)
(102.9118674 -3.814638315 0)
(102.5654459 -4.42655171 3.147481925e-20)
(102.6911611 -4.302551268 -7.267002012e-21)
(102.7215294 -4.341265073 -3.612879865e-20)
(102.5939032 -4.467639286 -9.078813687e-22)
(102.0945955 -5.107618717 1.543069862e-19)
(102.2409406 -4.963933604 -7.764912714e-20)
(102.251002 -4.984451351 7.80185117e-20)
(102.1075097 -5.128169068 1.944116421e-19)
(101.6088173 -5.781866017 1.280958532e-20)
(101.7355919 -5.615920078 1.822886432e-20)
(101.7627797 -5.611572183 -1.529631323e-19)
(101.6328991 -5.77677797 -2.945945147e-21)
(94.62320252 -5.600699002 -9.399806833e-20)
(96.49757593 -5.672185296 -6.526141089e-20)
(94.54054085 -5.397016842 -1.630924132e-19)
(94.58609472 -5.695193888 -6.152433498e-20)
(103.9943477 -0.4406253989 0)
(104.2009182 -0.2142513891 0)
(103.9866967 -0.8866420129 0)
(104.1971884 -0.6464091611 0)
(103.9683546 -1.341972514 0)
(104.1911643 -1.086148887 0)
(103.8613764 -1.82929438 0)
(104.169055 -1.523644896 0)
(104.01264 -1.793864329 0)
(103.6966957 -1.972879523 0)
(103.9289374 -1.926262483 0)
(103.7994501 -2.076531604 0)
(103.6250248 -2.490662727 0)
(103.7666845 -2.331316579 0)
(103.8674871 -2.422537656 0)
(103.7310252 -2.589406082 0)
(103.5425282 -3.020685181 0)
(103.6925931 -2.852762781 0)
(103.7940486 -2.923962246 0)
(103.6037967 -3.146325768 0)
(103.6874716 -3.09471533 0)
(103.4292115 -3.519395657 0)
(103.5156543 -3.419058951 0)
(103.5574011 -3.454364047 0)
(103.4680693 -3.555506745 0)
(103.1425811 -4.075451226 0)
(103.252909 -3.963049841 0)
(103.26894 -3.985573936 0)
(103.1555316 -4.097546029 0)
(102.6592771 -4.61669088 2.092015016e-20)
(102.7901113 -4.491916817 6.566095364e-22)
(102.7790248 -4.496563062 6.56400745e-22)
(102.649189 -4.619382942 1.015852555e-20)
(102.1212506 -5.12177968 9.7559364e-20)
(102.2379661 -4.986918746 3.141347564e-20)
(102.2104872 -4.965568095 2.383476078e-20)
(101.9723582 -5.086450126 2.441727412e-21)
(94.81420095 -4.927123976 2.997043238e-20)
(96.02276411 -4.903175764 1.914044179e-20)
(95.00884632 -4.793528593 2.372950244e-20)
(95.94780044 -5.109391732 2.437290185e-20)
(104.4023225 -0.4208917566 0)
(104.5963035 -0.2039370924 0)
(104.4002715 -0.8454315934 0)
(104.5959789 -0.6139831139 0)
(104.3907229 -1.275532572 0)
(104.5952006 -1.030674055 0)
(104.3000651 -1.735672322 0)
(104.5812003 -1.438178025 0)
(104.4392889 -1.692858687 0)
(104.1495593 -1.874276612 0)
(104.3640033 -1.819785324 0)
(104.2479253 -1.963962664 0)
(104.0977052 -2.349443425 0)
(104.2235684 -2.196942701 0)
(104.3167808 -2.272854065 0)
(104.1953031 -2.430138243 0)
(104.0299005 -2.823480429 0)
(104.1622176 -2.664706646 0)
(104.2505094 -2.720875774 0)
(104.0787474 -2.923978971 0)
(104.1513407 -2.875135168 0)
(103.9120184 -3.254495627 0)
(103.9898424 -3.16257849 0)
(104.0211748 -3.187228932 0)
(103.9397694 -3.278766961 0)
(103.6110502 -3.717717569 0)
(103.7121481 -3.618272634 0)
(103.7139376 -3.629888524 0)
(103.6084667 -3.727785877 0)
(103.09704 -4.149034672 0)
(103.2187186 -4.042279911 0)
(103.1909064 -4.03811935 0)
(103.0692852 -4.142191185 0)
(102.4199674 -4.524148138 0)
(102.5652973 -4.415882362 0)
(102.4713976 -4.386026721 0)
(102.1178331 -4.470625723 0)
(95.62177738 -4.402961766 0)
(96.25268951 -4.317857115 0)
(95.82628416 -4.280858693 0)
(96.98254662 -4.535533832 0)
(104.7891197 -0.39803411 0)
(104.970238 -0.1924334261 0)
(104.7902052 -0.7981744786 0)
(104.9718716 -0.5780131507 0)
(104.7852503 -1.200622988 0)
(104.9732823 -0.9693668812 0)
(104.7047242 -1.629740878 0)
(104.9627203 -1.346377799 0)
(104.8320445 -1.583719514 0)
(104.5666943 -1.761931956 0)
(104.7635002 -1.703442047 0)
(104.6581576 -1.839229873 0)
(104.5239692 -2.194096941 0)
(104.6370864 -2.050732685 0)
(104.7206358 -2.114256849 0)
(104.6103004 -2.260050556 0)
(104.4567071 -2.617398992 0)
(104.5759829 -2.467955413 0)
(104.6493516 -2.514086815 0)
(104.491763 -2.694355039 0)
(104.5545753 -2.651674766 0)
(104.3229074 -2.986602934 0)
(104.3952972 -2.90359207 0)
(104.4158522 -2.920679239 0)
(104.339215 -3.002524554 0)
(103.9934551 -3.37358926 0)
(104.0893158 -3.28631989 0)
(104.0778944 -3.29097794 0)
(103.9767569 -3.376196906 0)
(103.4418944 -3.721604577 0)
(103.5584434 -3.630406947 0)
(103.5166095 -3.621594612 0)
(103.3985879 -3.709933514 0)
(102.5829273 -3.999948874 0)
(102.7705085 -3.91438405 0)
(102.6080236 -3.880039538 0)
(102.1475923 -3.941097024 0)
(96.43159491 -3.936202658 0)
(96.61943918 -3.820198795 0)
(96.62729439 -3.828955325 0)
(97.77114506 -4.028501028 0)
(105.152621 -0.3734896572 0)
(105.3210938 -0.1803624535 0)
(105.1547603 -0.74778713 0)
(105.3234671 -0.5404744422 0)
(105.1508732 -1.121774629 0)
(105.3246057 -0.9055584347 0)
(105.0755097 -1.518705893 0)
(105.3137049 -1.252735517 0)
(105.1913859 -1.472096926 0)
(104.9483313 -1.643200117 0)
(105.1280102 -1.583704475 0)
(105.0311768 -1.709986337 0)
(104.906225 -2.034283649 0)
(105.0094185 -1.901163138 0)
(105.0821688 -1.954911233 0)
(104.9798744 -2.088446954 0)
(104.8292927 -2.411832906 0)
(104.9396611 -2.272416691 0)
(104.9974083 -2.311308655 0)
(104.8501906 -2.469557444 0)
(104.9045986 -2.433221301 0)
(104.6730371 -2.727561473 0)
(104.7422787 -2.653243375 0)
(104.7524218 -2.66508022 0)
(104.6783193 -2.737761863 0)
(104.3085216 -3.052934304 0)
(104.4017168 -2.976596392 0)
(104.3785812 -2.977040901 0)
(104.2795724 -3.051185007 0)
(103.718167 -3.338089123 0)
(103.8323708 -3.259948329 0)
(103.7786736 -3.249018055 0)
(103.6608467 -3.324366404 0)
(102.6540638 -3.54486312 0)
(102.8908913 -3.477349701 0)
(102.6610413 -3.44088136 0)
(102.1021243 -3.484778489 0)
(97.18554649 -3.528177891 0)
(97.03183531 -3.400454352 0)
(97.36027319 -3.434302561 0)
(98.39748473 -3.586476389 0)
(105.4919629 -0.3484252008 0)
(105.648404 -0.1682164127 0)
(105.493511 -0.6966068377 0)
(105.6505307 -0.5029087878 0)
(105.487928 -1.042480673 0)
(105.6495192 -0.8418560369 0)
(105.4137737 -1.407636062 0)
(105.6353951 -1.160634779 0)
(105.5189937 -1.362210572 0)
(105.2958727 -1.523675758 0)
(105.4594304 -1.465352599 0)
(105.369149 -1.58175453 0)
(105.2481091 -1.876782412 0)
(105.3438579 -1.75424002 0)
(105.4054354 -1.800375927 0)
(105.3086367 -1.921706379 0)
(105.1544787 -2.213005024 0)
(105.2593882 -2.084673454 0)
(105.3015244 -2.117367393 0)
(105.1617634 -2.257224376 0)
(105.2090627 -2.225206705 0)
(104.9726023 -2.484249159 0)
(105.0403284 -2.418089866 0)
(105.0407512 -2.426358359 0)
(104.9676703 -2.490645926 0)
(104.5711425 -2.760084968 0)
(104.6632633 -2.693330514 0)
(104.6300138 -2.691402611 0)
(104.5318243 -2.756007521 0)
(103.943161 -2.997443814 0)
(104.0569799 -2.930195473 0)
(103.9928698 -2.918654234 0)
(103.8725597 -2.983117711 0)
(102.6618753 -3.150279157 0)
(102.9504756 -3.096924724 0)
(102.656478 -3.060146072 0)
(102.0109516 -3.091178398 0)
(97.846008 -3.169694142 0)
(97.45045938 -3.042568671 0)
(97.99452039 -3.086826597 0)
(98.88673771 -3.200681753 0)
(105.8072725 -0.3237346633 0)
(105.95252 -0.1563719281 0)
(105.8069906 -0.6464036089 0)
(105.953629 -0.4664673225 0)
(105.7976746 -0.9653096345 0)
(105.9490992 -0.7801910911 0)
(105.7217211 -1.300072781 0)
(105.929657 -1.072524571 0)
(105.8172102 -1.257036213 0)
(105.6116164 -1.407393715 0)
(105.760316 -1.351767809 0)
(105.6749732 -1.458373664 0)
(105.5538671 -1.726083949 0)
(105.6442198 -1.614000435 0)
(105.6946984 -1.654184484 0)
(105.6014768 -1.763908612 0)
(105.4394223 -2.024882597 0)
(105.541455 -1.908609842 0)
(105.5688318 -1.935948075 0)
(105.4333709 -2.061186633 0)
(105.4745793 -2.031560245 0)
(105.2302392 -2.260174905 0)
(105.2974927 -2.201467969 0)
(105.2891058 -2.207329642 0)
(105.216086 -2.264126816 0)
(104.7928607 -2.496175164 0)
(104.8848291 -2.437738646 0)
(104.8429945 -2.434673672 0)
(104.7448807 -2.491100993 0)
(104.1286896 -2.696639844 0)
(104.2436809 -2.638560989 0)
(104.1699277 -2.627238718 0)
(104.0450155 -2.682454762 0)
(102.6269488 -2.808263172 0)
(102.9669112 -2.766106068 0)
(102.6133908 -2.730133746 0)
(101.8948387 -2.751674612 0)
(98.39955389 -2.852916816 0)
(97.85073896 -2.734287421 0)
(98.52127814 -2.779602727 0)
(99.26333759 -2.863850534 0)
(106.0993809 -0.3000731321 0)
(106.2344248 -0.1451057345 0)
(106.0963694 -0.5984598078 0)
(106.2339341 -0.4319729232 0)
(106.0818928 -0.8920763907 0)
(106.2249383 -0.7219209697 0)
(106.0019322 -1.19842886 0)
(106.198739 -0.9900749578 0)
(106.0886587 -1.158574077 0)
(105.8982808 -1.297133806 0)
(106.0334938 -1.245208703 0)
(105.9517764 -1.342372364 0)
(105.8276842 -1.584935637 0)
(105.9143043 -1.482957479 0)
(105.9540234 -1.518509018 0)
(105.8628531 -1.61743961 0)
(105.6904299 -1.850819624 0)
(105.7912622 -1.746275539 0)
(105.8048153 -1.769648981 0)
(105.6715159 -1.881507832 0)
(105.7076891 -1.854582379 0)
(105.4533519 -2.056635181 0)
(105.5208894 -2.004617999 0)
(105.5045956 -2.009000454 0)
(105.431015 -2.059162929 0)
(104.9825566 -2.260684049 0)
(105.0748778 -2.209450898 0)
(105.025819 -2.206099425 0)
(104.9273407 -2.255499337 0)
(104.2829865 -2.432126197 0)
(104.4004392 -2.381890583 0)
(104.3174411 -2.371256859 0)
(104.1863297 -2.41856401 0)
(102.5641394 -2.511973546 0)
(102.9531479 -2.478913005 0)
(102.5453686 -2.444353166 0)
(101.7675633 -2.458932921 0)
(98.84840064 -2.57284503 0)
(98.21882779 -2.467103201 0)
(98.94539122 -2.508133266 0)
(99.54970856 -2.570339827 0)
(106.369599 -0.2779010963 0)
(106.4954847 -0.134613893 0)
(106.3632312 -0.553663703 0)
(106.4929711 -0.3999933907 0)
(106.3426455 -0.8240011008 0)
(106.478893 -0.6679633313 0)
(106.2571212 -1.104240415 0)
(106.4450113 -0.9143623923 0)
(106.3360361 -1.068080714 0)
(106.1587321 -1.194687622 0)
(106.2818679 -1.147073184 0)
(106.2026835 -1.235326876 0)
(106.0735112 -1.455048259 0)
(106.1577288 -1.362620339 0)
(106.1872177 -1.394642398 0)
(106.0968754 -1.483655531 0)
(105.9125813 -1.692508159 0)
(106.0133928 -1.598846443 0)
(106.0142184 -1.619446112 0)
(105.8816273 -1.719105706 0)
(105.9136025 -1.694989273 0)
(105.6481743 -1.87388994 0)
(105.7164951 -1.82782999 0)
(105.6931587 -1.831419597 0)
(105.6186441 -1.875723503 0)
(105.1470405 -2.052262088 0)
(105.2399986 -2.007273276 0)
(105.1848466 -2.004199295 0)
(105.0856798 -2.047523383 0)
(104.4122287 -2.200493316 0)
(104.5331761 -2.157026558 0)
(104.4412047 -2.147363594 0)
(104.3027171 -2.187875781 0)
(102.4838335 -2.255737658 0)
(102.9185141 -2.230140119 0)
(102.4619537 -2.197375722 0)
(101.6382589 -2.206845443 0)
(99.2030731 -2.326065897 0)
(98.54828882 -2.235015564 0)
(99.27862708 -2.269267206 0)
(99.76504221 -2.315453791 0)
(106.6195697 -0.2575238822 0)
(106.7374024 -0.1250238916 0)
(106.6094339 -0.5125923021 0)
(106.732569 -0.3708862741 0)
(106.5821543 -0.7618467875 0)
(106.7130423 -0.6188825601 0)
(106.4899823 -1.018424176 0)
(106.6709328 -0.8459948359 0)
(106.5620165 -0.9862610709 0)
(106.3957923 -1.101137721 0)
(106.5082403 -1.058163798 0)
(106.4306796 -1.138132762 0)
(106.2949521 -1.337352751 0)
(106.3778303 -1.253783445 0)
(106.3977164 -1.283190759 0)
(106.3072712 -1.363171106 0)
(106.1102451 -1.550447623 0)
(106.2119256 -1.466691685 0)
(106.2011073 -1.485478319 0)
(106.0682191 -1.57407658 0)
(106.0966938 -1.552767332 0)
(105.8197977 -1.711533992 0)
(105.8892156 -1.670747284 0)
(105.8596661 -1.674041342 0)
(105.7840078 -1.71319398 0)
(105.2914338 -1.869214045 0)
(105.385224 -1.829647841 0)
(105.3248701 -1.827204233 0)
(105.2247273 -1.865245594 0)
(104.521196 -1.998658619 0)
(104.6464491 -1.961054683 0)
(104.5457278 -1.952522228 0)
(104.3990034 -1.987172367 0)
(102.3935342 -2.034831073 0)
(102.8698709 -2.015358896 0)
(102.3700729 -1.984637383 0)
(101.5130869 -1.990380413 0)
(99.47762908 -2.109921614 0)
(98.83735712 -2.033457531 0)
(99.53550217 -2.060375727 0)
(99.92503757 -2.095071875 0)
(106.851163 -0.2391266163 0)
(106.9620377 -0.1164132735 0)
(106.8370091 -0.4755838021 0)
(106.9546845 -0.3448580328 0)
(106.8027162 -0.7060298009 0)
(106.9295231 -0.5749936762 0)
(106.7031653 -0.9414277018 0)
(106.8789121 -0.7852667762 0)
(106.7691936 -0.9134242107 0)
(106.6122316 -1.017026592 0)
(106.7153247 -0.9788253501 0)
(106.638625 -1.05117737 0)
(106.4953149 -1.232172246 0)
(106.577708 -1.156715413 0)
(106.5886622 -1.184271161 0)
(106.4973969 -1.256079183 0)
(106.2872415 -1.424482457 0)
(106.3904431 -1.349661051 0)
(106.3690284 -1.367384569 0)
(106.2351383 -1.446017246 0)
(106.2607066 -1.427438171 0)
(105.9724492 -1.568746058 0)
(106.0431364 -1.532615563 0)
(106.0081464 -1.535985751 0)
(105.9312452 -1.570612449 0)
(105.4196526 -1.709693664 0)
(105.5144343 -1.674863261 0)
(105.4495542 -1.673275285 0)
(105.3481768 -1.706690488 0)
(104.613655 -1.823797699 0)
(104.7438461 -1.791303559 0)
(104.6345561 -1.783996783 0)
(104.4789768 -1.81355065 0)
(102.2986167 -1.845165884 0)
(102.8122706 -1.830762168 0)
(102.2746237 -1.802211915 0)
(101.3960306 -1.805223588 0)
(99.68696758 -1.921879363 0)
(99.08717847 -1.8588248 0)
(99.73078554 -1.878987385 0)
(100.0423919 -1.905464574 0)
(107.0663351 -0.2228094678 0)
(107.1713446 -0.1088225562 0)
(107.0480303 -0.4428097273 0)
(107.1613412 -0.3220052229 0)
(107.0065906 -0.6567333799 0)
(107.1304827 -0.5364337004 0)
(106.8991783 -0.8733963236 0)
(107.0712783 -0.7322546931 0)
(106.9600228 -0.8496220132 0)
(106.8106596 -0.9425471422 0)
(106.9056622 -0.9091279067 0)
(106.8291743 -0.9745331292 0)
(106.6775715 -1.139473213 0)
(106.7601766 -1.071372329 0)
(106.7628835 -1.097734409 0)
(106.6702243 -1.162182886 0)
(106.4468249 -1.31407941 0)
(106.5520176 -1.247351262 0)
(106.5209092 -1.264423161 0)
(106.385677 -1.334269443 0)
(106.4089057 -1.318166877 0)
(106.1096346 -1.444539346 0)
(106.181677 -1.41252305 0)
(106.141934 -1.416271021 0)
(106.0637482 -1.446903158 0)
(105.5347329 -1.571932345 0)
(105.6306488 -1.541271483 0)
(105.5617482 -1.540694456 0)
(105.4589082 -1.570026498 0)
(104.6925915 -1.673454479 0)
(104.8282152 -1.645452613 0)
(104.7105097 -1.639439058 0)
(104.5456393 -1.664524653 0)
(102.2028138 -1.68336991 0)
(102.7493825 -1.673177686 0)
(102.1790644 -1.646939549 0)
(101.2895903 -1.647898307 0)
(99.8450124 -1.759717841 0)
(99.3005605 -1.708431282 0)
(99.87796969 -1.722981533 0)
(100.1272611 -1.743510976 0)
(107.2671603 -0.2086101907 0)
(107.3673242 -0.1022697787 0)
(107.2446445 -0.4143236253 0)
(107.3545889 -0.3023549895 0)
(107.1960465 -0.6139745718 0)
(107.3180455 -0.5032182019 0)
(107.0804156 -0.8143138858 0)
(107.2503029 -0.6869272021 0)
(107.1368323 -0.7947591235 0)
(106.9935357 -0.8776712961 0)
(107.081623 -0.8489566288 0)
(107.0047992 -0.9080779653 0)
(106.8444229 -1.059016364 0)
(106.9278198 -0.9975208475 0)
(106.9229724 -1.023243563 0)
(106.8284648 -1.081123301 0)
(106.5917138 -1.21830084 0)
(106.6993958 -1.159321436 0)
(106.659549 -1.175649938 0)
(106.5226377 -1.239071831 0)
(106.5438677 -1.223984686 0)
(106.23423 -1.337937276 0)
(106.307642 -1.309584465 0)
(106.2637412 -1.31390214 0)
(106.184275 -1.340996769 0)
(105.6390953 -1.454298299 0)
(105.7362829 -1.427323734 0)
(105.6637517 -1.427851347 0)
(105.559243 -1.45356795 0)
(104.7604236 -1.545474356 0)
(104.9018735 -1.52143517 0)
(104.7758831 -1.516737559 0)
(104.6014171 -1.537890139 0)
(102.1089178 -1.546666665 0)
(102.6840359 -1.539947877 0)
(102.0859938 -1.516126073 0)
(101.195164 -1.51554711 0)
(99.96378288 -1.621437524 0)
(99.48108496 -1.580146432 0)
(99.98853621 -1.590365221 0)
(100.1876013 -1.606493837 0)
(107.4554539 -0.19654008 0)
(107.5519537 -0.09675207933 0)
(107.4287261 -0.3901182249 0)
(107.5364261 -0.2858843912 0)
(107.3730407 -0.5776832826 0)
(107.4942439 -0.4752901284 0)
(107.2490362 -0.7638685923 0)
(107.4180251 -0.6491093944 0)
(107.3017561 -0.7485822224 0)
(107.1631191 -0.8222169332 0)
(107.2454456 -0.7981080329 0)
(107.1677813 -0.8515108115 0)
(106.9983399 -0.9903653685 0)
(107.0829997 -0.9347807672 0)
(107.0712477 -0.9603094989 0)
(106.9745736 -1.012387599 0)
(106.72471 -1.136439329 0)
(106.8351912 -1.084842812 0)
(106.7875053 -1.100654382 0)
(106.6484165 -1.158998308 0)
(106.6680117 -1.14438894 0)
(106.34855 -1.247848964 0)
(106.4233147 -1.222751281 0)
(106.3757913 -1.227782694 0)
(106.295054 -1.251754267 0)
(105.7347044 -1.355270881 0)
(105.8332919 -1.331567227 0)
(105.7574315 -1.333261977 0)
(105.6510663 -1.355763598 0)
(104.8190891 -1.437923606 0)
(104.9666819 -1.417405537 0)
(104.832517 -1.414038053 0)
(104.6482559 -1.431701453 0)
(102.0189049 -1.432712028 0)
(102.6184056 -1.428808314 0)
(101.9971533 -1.407533902 0)
(101.1131363 -1.405650027 0)
(100.0530377 -1.505123828 0)
(99.6327131 -1.472193702 0)
(100.0716601 -1.479287764 0)
(100.2295355 -1.49202006 0)
(107.6339638 -0.1865553149 0)
(107.7272036 -0.0922853758 0)
(107.6029848 -0.3701193884 0)
(107.7088566 -0.2726000234 0)
(107.5402678 -0.5476878385 0)
(107.6610515 -0.4525850607 0)
(107.4073551 -0.7220913173 0)
(107.5766804 -0.6188883362 0)
(107.4569414 -0.7110648529 0)
(107.3216104 -0.7759602481 0)
(107.3990944 -0.7562701652 0)
(107.3202409 -0.8045783861 0)
(107.1415153 -0.933016689 0)
(107.2278458 -0.8827311317 0)
(107.2097985 -0.9084259255 0)
(107.1106927 -0.9554154356 0)
(106.848336 -1.068356754 0)
(106.9617161 -1.023146255 0)
(106.9072838 -1.039572721 0)
(106.7651527 -1.092458132 0)
(106.783373 -1.079343863 0)
(106.4545475 -1.173192326 0)
(106.5306493 -1.150953854 0)
(106.4800019 -1.156809382 0)
(106.3979783 -1.178054354 0)
(105.8231927 -1.27349546 0)
(105.9233189 -1.252695164 0)
(105.8443747 -1.255607773 0)
(105.7359617 -1.275246466 0)
(104.8702276 -1.349210529 0)
(105.0242255 -1.331831289 0)
(104.8820134 -1.32981935 0)
(104.6878468 -1.344378905 0)
(101.9338596 -1.339474423 0)
(102.5539566 -1.337908463 0)
(101.913448 -1.319207213 0)
(101.0431489 -1.316176867 0)
(100.1202647 -1.409168289 0)
(99.75942388 -1.383191328 0)
(100.1343149 -1.388195007 0)
(100.25767 -1.398149813 0)
(107.801802 -0.1787339774 0)
(107.8951061 -0.08880103898 0)
(107.7666919 -0.3543733232 0)
(107.873843 -0.2623731866 0)
(107.6971218 -0.5240395076 0)
(107.8204357 -0.4349681913 0)
(107.5564886 -0.6871696447 0)
(107.7271246 -0.5950363872 0)
(107.6041013 -0.6812081235 0)
(107.470619 -0.7385277439 0)
(107.5452285 -0.7232884121 0)
(107.4641789 -0.7665966214 0)
(107.2759331 -0.8865172316 0)
(107.3643565 -0.8409367068 0)
(107.3405546 -0.8673270687 0)
(107.2386503 -0.9097231896 0)
(106.9644068 -1.014165502 0)
(107.0806082 -0.9736541097 0)
(107.0199908 -0.9919639172 0)
(106.8750172 -1.03763557 0)
(106.8923411 -1.028017407 0)
(106.5541458 -1.112986691 0)
(106.6316852 -1.093254949 0)
(106.5782705 -1.100131339 0)
(106.4948806 -1.118933806 0)
(105.9060218 -1.207817555 0)
(106.0078399 -1.189608773 0)
(105.926001 -1.193801704 0)
(105.8153491 -1.210874594 0)
(104.9153391 -1.278034739 0)
(105.0759528 -1.263464076 0)
(104.9258395 -1.262851325 0)
(104.7217267 -1.274640687 0)
(101.8543424 -1.265319967 0)
(102.4916766 -1.265731663 0)
(101.8353704 -1.249592874 0)
(100.9845917 -1.245537388 0)
(100.1710078 -1.332181693 0)
(99.86489281 -1.31200997 0)
(100.1816173 -1.315755625 0)
(100.2754088 -1.323302661 0)
(107.9715942 -0.1727458511 0)
(108.0573928 -0.08651064281 0)
(107.9319188 -0.3424907501 0)
(108.0333017 -0.2555536621 0)
(107.8547518 -0.5063136712 0)
(107.9743397 -0.4229594394 0)
(107.7017291 -0.6633915 0)
(107.8731395 -0.5797854251 0)
(107.7474495 -0.6600868406 0)
(107.6137668 -0.7099472123 0)
(107.6846632 -0.6984605135 0)
(107.6017581 -0.7388656215 0)
(107.403417 -0.8508509774 0)
(107.494195 -0.8095371283 0)
(107.4650662 -0.8369319696 0)
(107.3602004 -0.8751597684 0)
(107.0742393 -0.9728667892 0)
(107.1934383 -0.9362039335 0)
(107.127324 -0.9567911504 0)
(106.9794522 -0.9960037768 0)
(106.9960333 -0.9894279674 0)
(106.6488865 -1.066673093 0)
(106.7278836 -1.049188702 0)
(106.6719898 -1.057186593 0)
(106.5871917 -1.073780394 0)
(105.9844698 -1.157328646 0)
(106.0881218 -1.141454159 0)
(106.0035335 -1.14698586 0)
(105.8904728 -1.161745545 0)
(104.9557875 -1.223341206 0)
(105.1231774 -1.211294623 0)
(104.9653183 -1.212136744 0)
(104.7512695 -1.221439133 0)
(101.7807234 -1.208860529 0)
(102.4322917 -1.211019031 0)
(101.7632744 -1.197372694 0)
(100.9368763 -1.19244589 0)
(100.2092902 -1.273009212 0)
(99.95238183 -1.257719663 0)
(100.2172789 -1.260892153 0)
(100.2852818 -1.26622283 0)
(108.1035749 -0.1696976791 0)
(108.2168066 -0.08480319141 0)
(108.0606727 -0.3356175784 0)
(108.1891582 -0.2509385916 0)
(107.9785677 -0.4959388159 0)
(108.1249453 -0.414786129 0)
(107.8313043 -0.6495900874 0)
(108.0152323 -0.5679976973 0)
(107.8755885 -0.6448060394 0)
(107.7506002 -0.6891433313 0)
(107.8160155 -0.6838902236 0)
(107.7327342 -0.7192291493 0)
(107.5254769 -0.8255183983 0)
(107.6185834 -0.7877875732 0)
(107.5851291 -0.8166472311 0)
(107.47667 -0.8512844192 0)
(107.1794906 -0.9437199639 0)
(107.3015945 -0.9102672826 0)