/*--------------------------------*- C++ -*----------------------------------*\
| =========                 |                                                 |
| \\      /  F ield         | OpenFOAM: The Open Source CFD Toolbox           |
|  \\    /   O peration     | Version:  v2012                                 |
|   \\  /    A nd           | Website:  www.openfoam.com                      |
|    \\/     M anipulation  |                                                 |
\*---------------------------------------------------------------------------*/
FoamFile
{
    version     2.0;
    format      ascii;
    class       surfaceScalarField;
    location    "3.14";
    object      meshPhi;
}
// * * * * * * * * * * * * * * * * * * * * * * * * * * * * * * * * * * * * * //

dimensions      [0 3 -1 0 0 0 0];
oriented        oriented;


internalField   nonuniform List<scalar> 
6464
(
0
0
0
0
0
0
0
0
0
0
0
0
0
0
0
0
0
0
0
0
0
0
0
0
0
0
0
0
0
0
0
0
5.379055727e-07
0
9.18281097e-10
-4.572836014e-07
0
0
0
0
0
0
0
0
0
0
0
0
0
0
0
0
0
0
0
0
0
0
0
0
0
0
0
0
0
0
0
0
0
0
0
0
0
-4.715134576e-07
0.0001500706162
1.136939012e-06
-0.0001483170831
-1.704299132e-06
0.0001187809357
3.200940831e-06
-0.0001023616031
-7.66461699e-07
4.581132212e-05
2.023482193e-06
-2.860889634e-05
0
8.528290776e-07
5.086886696e-08
0
0
0
0
0
0
0
0
0
0
0
0
0
0
0
0
0
0
0
0
0
0
0
0
0
0
-6.525929492e-06
0.0005457056252
9.679368902e-06
-0.0005436822193
-1.127812222e-05
0.000488608644
1.52893173e-05
-0.0004548547296
-8.542326481e-06
0.0003181130348
1.150709114e-05
-0.000265203329
-3.277926195e-06
0.0001113995865
5.133609005e-06
-6.93810162e-05
0
1.722870849e-06
1.605730154e-07
0
0
0
0
0
0
0
0
0
0
0
0
0
0
0
0
0
0
0
0
0
0
-2.197561168e-05
0.0009783288114
2.620632565e-05
-0.0009768797844
-3.062523287e-05
0.0009189820132
3.631286766e-05
-0.0008805512015
-2.260062147e-05
0.0007060297058
2.698822543e-05
-0.0006304044428
-1.807098311e-05
0.0003882219122
2.2024479e-05
-0.0003069170471
-3.243128221e-06
9.278087958e-05
4.64899557e-06
-4.618504261e-05
0
0
0
0
0
0
0
0
0
0
0
0
0
0
0
0
0
0
0
0
0
-3.506430061e-05
0.00120738088
3.588030616e-05
-0.001207026765
-5.522094577e-05
0.001190632459
5.987955878e-05
-0.001170053414
-6.749582762e-05
0.001059288413
7.06878882e-05
-0.0009827959396
-2.018714571e-05
0.0006851553763
2.243650545e-05
-0.0005778479807
-8.466940657e-06
0.0002641240058
9.62563226e-06
-0.0001762839441
1.208277081e-05
-4.103703817e-07
6.965023972e-07
-1.84295815e-07
0
0
0
0
0
0
0
0
0
0
0
0
0
0
0
0
0
0.0006162078432
-1.686038483e-05
1.689993081e-05
-0.0006162473891
0.0006338621186
-9.189496033e-05
-0.001274027673
0.0006452406838
3.780986459e-05
4.900996656e-05
0.001204199843
-6.149000725e-05
6.672514118e-05
-0.001156482649
-3.254127281e-05
0.000905302973
3.583613245e-05
-0.0007927447172
-1.201615036e-05
0.0004238008746
1.216335971e-05
-0.0003116405058
6.251813837e-05
-2.577256039e-06
3.196023954e-06
-1.98567898e-05
0
0
0
0
0
0
0
0
0
0
0
0
0
0
0
0
0
0.000640553309
-3.260653238e-05
3.164190745e-05
-0.000639588684
0.001266039239
-7.515244466e-05
7.712806098e-05
-0.001239961583
-3.714575134e-05
0.001020171477
3.808259692e-05
-0.0009098663844
-1.331970019e-05
0.0005297504976
1.406712352e-05
-0.0004048251908
0.0001099901101
-4.456853363e-06
4.953004858e-06
-4.821467021e-05
0
0
0
0
0
0
0
0
0
0
0
0
0
0
0
0
0
0.0006473897216
-2.966915945e-05
2.933742729e-05
-0.0006470579895
0.001292821226
-7.781987394e-05
7.781191086e-05
-0.001277000116
-4.166415251e-05
0.001080861439
4.237957499e-05
-0.0009744013934
-1.415279562e-05
0.0005923763045
1.43787677e-05
-0.0004620178172
0.0001375180131
-5.507409811e-06
5.679555998e-06
-6.686242358e-05
0
0
0
0
0
0
0
0
0
0
0
0
0
0
0
0
0
0.0006552563825
-2.842172826e-05
2.82007597e-05
-0.0006550354139
0.001308309227
-7.648488583e-05
7.579472349e-05
-0.001290668717
-4.153587164e-05
0.001087944496
4.112637401e-05
-0.0009795224034
-1.40870337e-05
0.0005929565137
1.40491241e-05
-0.0004619917692
0.0001368307807
-5.531837225e-06
5.476637015e-06
-6.619136718e-05
0
0
0
0
0
0
0
0
0
0
0
0
0
0
0
0
0
0.0006646085226
-2.760890033e-05
2.740745931e-05
-0.0006644070816
0.001323078052
-7.189060803e-05
7.023876429e-05
-0.001292267659
-3.75241176e-05
0.001052958041
3.800305149e-05
-0.0009423007337
-1.299075182e-05
0.0005480587957
1.28119998e-05
-0.0004187562341
0.000109553382
-4.607437584e-06
4.411214288e-06
-4.707139049e-05
0
0
0
0
0
0
0
0
0
0
0
0
0
0
0
0
0
0.0006726242157
-2.676047939e-05
2.673588794e-05
-0.0006725996243
0.001319809653
-6.513637219e-05
6.29551518e-05
-0.001269184513
-3.355895497e-05
0.0009912984487
2.969963547e-05
-0.0008682122656
-1.156716192e-05
0.000468203757
1.072793752e-05
-0.0003442463608
7.183733816e-05
-3.207020131e-06
2.813150014e-06
-2.342454544e-05
0
0
0
0
0
0
0
0
0
0
2.906269458e-05
-0.0006450783075
-2.942156923e-05
0.000323435444
0.0003220017381
-3.496621314e-05
0.0006432397676
3.227975453e-05
2.667151748e-05
-0.0006547506527
-2.698340647e-05
0.0003276466902
0.0003274158515
2.798118965e-05
0.0003244429218
0.0003240283047
2.613900242e-05
-0.0006627334541
-2.56909069e-05
0.0003311779168
0.0003311074417
2.645150697e-05
0.0003274767821
0.0003279996109
2.470710369e-05
-0.0006710597867
-2.514477222e-05
0.0006714974552
0.0006648994457
2.584807927e-05
0.0006727097196
2.462159983e-05
-1.515897881e-05
1.493977553e-05
-0.0006423155481
-3.395354596e-05
0.000641302881
-3.913059869e-05
0.0006291044226
4.388829466e-05
5.634353599e-06
-0.0001620405682
-5.727952396e-06
0.000162134167
-0.0003248887037
-1.586381472e-05
0.000325783506
1.496901241e-05
-0.000644832096
-2.991537092e-05
7.768023209e-05
-0.001285440397
-7.937197007e-05
0.001287471254
-8.230914055e-05
0.001274134638
7.901317087e-05
6.224634513e-06
-0.0001627190125
-6.106947558e-06
0.0001626013255
-5.177240616e-06
-0.0001619038304
0.0001617410571
5.340013903e-06
-0.0006545924833
-2.857989768e-05
7.575049132e-05
-0.001305964564
-7.625791431e-05
0.001306545471
0.001293596723
7.702049634e-05
5.214754874e-06
-0.0001650337258
-5.245650238e-06
0.0001650646212
-5.997885584e-06
-0.0001638824208
0.0001636253077
6.25499868e-06
-0.0006628065305
-2.753582391e-05
7.286559475e-05
-0.001319083018
-7.4023175e-05
0.001322836659
0.001309088985
7.520674184e-05
9.624532216e-06
-0.0003335894411
-9.73232323e-06
0.0003336972321
-1.017895142e-05
-0.0003322237935
9.468574266e-06
0.0001666679994
0.0001662661713
0.0001703939542
3.298136109e-06
-0.0001699139485
-3.778141857e-06
9.049061269e-06
-0.0003382378387
-8.93750315e-06
0.0003381262806
-9.428688439e-06
-0.0003362193737
0.000336218923
9.429139105e-06
-0.0001619644028
-5.045041562e-06
0.0001618322038
-0.000161663868
0.0001617992703
5.498951288e-06
-3.053087346e-05
-0.0006439606835
2.984467387e-05
0.000323071932
0.0003215749511
-1.30618349e-05
0.0001612824404
1.249202048e-05
-0.000322376494
5.492808296e-06
-0.0001620312079
-5.426003277e-06
-0.0001635250392
-5.709538332e-06
0.0001632366919
-0.0001632202717
0.0001629874354
6.457470806e-06
-1.395396633e-05
-0.0003261051823
0.0003261681507
1.389099801e-05
-6.242970227e-06
6.319112866e-06
-0.0001632964144
5.876273782e-06
-0.0001636927656
-5.708547359e-06
5.569271216e-06
-0.0001619802933
-0.0001628173082
-6.14467452e-06
-0.000325332588
-1.395552397e-05
0.0003253341456
-0.0003314751754
-1.009703375e-05
0.0001657365174
0.0001656567403
-0.0001650817651
0.000165030151
5.266368918e-06
-2.566676188e-05
-0.0006591250587
2.577431648e-05
0.0003294093559
0.0003296081482
-1.078178563e-05
0.0001646947581
1.053094987e-05
-0.0003295256874
1.049216673e-05
-0.0003314389914
-1.052835079e-05
6.042252832e-06
-0.0001640483999
0.0001647275597
-0.000329516658
-5.360576974e-06
-5.665836254e-06
-0.0006581546534
-2.624257492e-05
0.0003294619694
0.0003292684971
-0.0003361382789
-9.441424472e-06
0.0003361510149
-0.000334114999
0.0003341143573
9.625173991e-06
-2.223945499e-06
-0.0001693183418
0.0001687718003
-3.140785966e-06
0.0001713107947
0.0003381435743
-0.0001693161363
2.388811891e-05
-0.0001592226559
4.44977762e-06
0.0001308847594
-0.0001670685631
-8.74748449e-06
0.0001694299379
6.386109659e-06
4.684040541e-05
-0.0001677587312
-1.769356921e-05
0.000138611895
-0.0006708690247
-2.695124141e-05
6.915015047e-05
-0.001323395317
-7.056868718e-05
0.001341366022
0.001328016818
7.266700197e-05
4.631256359e-05
-0.0001692114849
-1.650218388e-05
0.0001394011052
7.515859394e-06
-0.0003370681869
-7.700705362e-06
0.000168641047
0.0001686119859
-3.959856038e-06
-0.0001680941518
0.0001680636791
3.990328684e-06
-1.814604433e-05
1.550522182e-05
-0.0003222478812
0.0001614255791
-0.0003227723003
-1.375568194e-05
-0.0006423400854
-2.935218281e-05
0.0003209137498
0.0003202476449
-0.0001683034202
-4.089427605e-06
0.0001684329918
-5.693653608e-06
-0.0001678695548
0.0001683206589
5.242549519e-06
-2.556759932e-05
-0.0006676297363
0.0006678333698
2.536396584e-05
-1.021264947e-05
1.010726609e-05
-0.0003340096157
9.917539135e-06
-0.0003360666058
-9.989212244e-06
1.027481599e-05
-0.0003320064428
-0.0003335920026
-1.021008789e-05
-0.0006673410865
-2.561560511e-05
0.0006673890923
-0.0003107387566
-5.625481216e-06
0.000310717991
5.64624681e-06
-0.0003238809846
-1.632110831e-05
0.0003243382782
-0.0006520015153
-4.338292839e-05
0.0003267405931
0.0003145357173
2.173398684e-05
3.237414646e-05
-1.175717686e-05
1.212504706e-05
-0.0003111066268
-0.0002044327606
0.0002283208795
-1.327494091e-05
-0.0003239556677
1.257599812e-05
0.0001622342894
0.0001624203212
-8.522674387e-06
-3.190771789e-05
-0.0001640023683
-7.091971562e-06
5.880186447e-06
-0.0001658567779
-0.0001633625984
-4.38273189e-06
-0.0003225556119
-1.23233965e-05
0.0001610684303
0.0001605356372
-5.781351449e-06
-0.0001624203102
0.0001624466796
5.754982017e-06
-0.0001625006034
-5.785181889e-06
0.0001625044338
-5.076804076e-06
-0.0001649040609
0.0001648750161
5.105848863e-06
-0.0001652657843
-5.283068863e-06
0.0001654720491
-0.0001666123176
5.6656279e-06
-4.603139774e-06
0.0001655498295
-0.0001701370539
0.0002148993882
2.078071132e-06
-9.903333103e-06
-0.0003325522848
0.0003325492859
9.90633207e-06
-7.095553593e-06
4.974951835e-06
-0.0001680164522
5.696339309e-06
-0.0001669016025
-5.407054478e-06
-6.412662182e-06
1.737568146e-05
-0.000164601516
0.0001536384967
-0.00016691635
-7.937934797e-06
-0.0003325073469
-9.936461902e-06
0.0001662518471
0.0001662886286
7.013313727e-06
-0.0003380381695
-7.094590934e-06
0.0003381194467
-0.0003372593184
7.305750683e-06
0.0001688236854
0.0001686457417
0.0002171187584
1.165404554e-06
-0.0001719715994
-5.873282699e-06
-0.0001619765212
0.0001615677091
6.282094762e-06
-0.000161523416
-5.888825834e-06
0.0001615389591
-4.841046818e-06
-0.0001637343716
0.0001637081545
4.867263923e-06
-0.0001636637872
-4.882254185e-06
0.0001637049946
5.206457573e-06
-0.0001636082295
-5.262015271e-06
1.231938897e-05
-0.0003265130466
-1.238565831e-05
0.000326579316
-1.249116368e-05
-0.0003263240758
0.0003263565808
1.245865872e-05
1.219484696e-05
-0.0003277408344
-1.22251138e-05
0.0003277711013
-0.0003270752523
0.0003271083409
1.228630046e-05
5.185998484e-06
-0.0001637139125
5.80568367e-06
-0.0001624570838
-5.849203277e-06
1.263374681e-05
-0.0003246129591
-1.266560681e-05
0.0003246448191
-1.279422156e-05
-0.000324210478
0.0003242428651
1.276183444e-05
-0.0003254284799
-1.252249272e-05
0.0003254598089
-0.0003247866104
0.0003248142868
1.260607036e-05
5.796236831e-06
-0.0001624108634
-5.334832617e-06
-0.00016554095
0.0001655823752
5.293407414e-06
-0.0001626159104
-3.789925586e-06
0.0001599931738
-0.0001654139633
-5.440998044e-06
0.0001655201287
0.0001668723821
6.041325183e-06
-0.000167217368
0.0001682063046
5.055915121e-06
-0.0001678985166
-5.363703157e-06
9.484399259e-06
-0.0003350904371
-9.64533193e-06
0.0003352513697
-6.150271278e-06
0.0001686629223
0.0001659392176
6.59879244e-06
-2.005675675e-05
0.0002371755152
-0.0003379148862
0.0003377874206
-0.0001957381753
-5.361646164e-06
0.0002010998215
6.49087548e-06
-0.0001683955541
-6.403398742e-06
0.0001683080774
-3.029554748e-06
-0.0001679727014
0.000167588836
3.413420217e-06
0.0001829100243
2.052608541e-05
2.893256479e-05
-0.0002323686745
-0.0001690173057
-4.474583131e-06
0.0001704623341
-1.09025355e-06
-0.0001688836442
0.0001672969617
2.676936045e-06
-0.0003115516707
7.158459531e-07
0.0003147323684
1.736670932e-06
-5.633214601e-06
-0.0001679302554
-1.018066278e-05
0.0001693634337
-0.0003306862652
-2.503858736e-05
0.0003235569753
3.216787724e-05
-1.463217423e-05
-0.0003156549037
1.071635092e-05
8.019056367e-06
-5.845827582e-06
-0.0001626084384
0.0001625128378
5.941428141e-06
-4.860784002e-06
4.932904736e-06
-0.0001612325433
0.0001611604226
4.956790018e-06
-0.0001620070521
-5.0636323e-06
0.0001621138944
5.728226175e-06
-0.0001622797293
-5.623360492e-06
0.0001621748637
-5.644804418e-06
-0.0001647494431
0.0001645992598
5.794987687e-06
-7.095042951e-06
0.0001639845949
7.468083059e-06
-0.000164357635
3.870021319e-06
0.0001668426062
-0.0001660984559
-4.614171695e-06
-4.821746376e-06
4.666504052e-06
-0.0001629550402
0.0001631102825
1.704988807e-05
-0.000163961724
-6.929370227e-06
0.0001538412061
6.63306399e-06
-0.0001639126173
-6.720206282e-06
0.0001639997596
-5.85317065e-06
-0.000161402446
0.0001619484315
5.30718519e-06
-7.069224865e-06
0.0002028930848
-3.223275975e-05
-0.0001635911002
-0.0001611290296
-3.257663166e-06
0.0001595259087
5.797200338e-06
-0.0001614278945
-5.892721785e-06
1.294266206e-05
-0.0003219289696
-1.309302561e-05
0.0003220793331
-1.311689836e-05
-0.0003225151915
0.0003224504141
1.318167577e-05
-0.0003236160146
-1.285518498e-05
0.000323676978
-0.0003232991443
0.0003233287447
1.291306171e-05
5.931196446e-06
-0.0001621105173
-5.141842046e-06
-0.0001634163079
0.0001632620032
5.296146745e-06
-4.148253631e-06
4.56239052e-06
-0.0001628199958
0.000162405859
-0.0001626065161
-4.399437837e-06
0.0001621842076
6.039595187e-06
-0.0001635894723
-6.344711638e-06
0.0001638945887
0.0001639505462
4.555326356e-06
-0.0001646358512
0.0001632187466
7.379862819e-06
-0.000164122254
-6.476355401e-06
5.63152238e-06
-0.0001648848171
-5.546572903e-06
0.0001647998676
1.039264364e-05
0.0001650201716
-0.000330223732
-1.060304654e-05
-0.0003299056203
1.158233343e-05
-1.176906321e-05
0.0003300923501
-1.186856917e-05
-0.0003295518416
0.0003295536017
1.186680907e-05
4.884611013e-06
-0.0001648832202
-5.267175109e-06
1.22130808e-05
-0.0003287613896
-1.216009015e-05
0.0003287083989
-0.0003281254694
0.0003281850373
1.213527913e-05
-0.0003296509967
-1.184323284e-05
0.0003296256604
-0.0003291130819
0.0003294467658
1.187939685e-05
4.743868563e-06
-0.0001647633184
-0.0003350664943
0.0003350947151
9.456178535e-06
4.785481509e-06
-0.0001675991212
7.823453448e-06
0.0001683453139
-0.0003362644597
-8.207727825e-06
-4.648888258e-05
-0.0001730398873
0.0002180457849
1.482985018e-06
-5.9690523e-06
-0.0001673230082
0.0001655451463
7.746914213e-06
-1.876298294e-05
-5.459326789e-06
-0.0001715158656
-0.0001664458675
-4.551330142e-06
0.0001650281453
3.905461344e-07
-0.0001623207191
3.472620063e-06
0.0001584575529
-0.0001659936842
1.826375245e-05
0.0001481204779
5.553687473e-06
-0.0001689125349
-5.722251739e-06
0.0001690810991
-0.0001689788101
0.0001696704907
5.79919491e-06
-1.973023151e-05
-0.0002165281727
0.0002362584042
9.065349083e-06
-3.965687404e-05
-0.0001343348518
1.406620856e-05
-5.990731556e-06
-0.0001375115475
0.0001674222358
-2.162642309e-06
3.752488062e-06
-0.0001690120815
0.0001710489686
4.005124452e-06
-0.0001693973052
-5.656787835e-06
4.543309009e-06
-0.0001680625383
-4.853221949e-06
0.0001683724513
-4.591173163e-05
0.0002158704467
1.886532182e-05
1.715589496e-06
0.0001468413245
-0.0002061827289
-2.313564413e-05
0.000229318373
4.036935473e-06
-0.0001626199841
-4.389785214e-06
0.0001629728338
-4.592235512e-06
-0.0001623711711
0.0001626719825
4.291424058e-06
3.604376239e-06
-0.0001622632974
-5.427140621e-06
0.0001640860618
-0.0001618081786
0.0001620151299
3.829984116e-06
-0.0001616771023
-5.79170042e-06
0.0001628765672
-5.799875669e-06
-0.0001613971251
0.0001618723922
5.324608601e-06
-7.81538391e-06
5.687480764e-06
-0.000165195105
-5.074874998e-06
4.800098693e-06
-0.0001627274187
0.000163002195
-0.0002006589313
-1.930158185e-05
0.0002199605132
-0.0001628158961
-5.777282976e-06
0.0001627473515
-0.0001620531038
0.0001620023285
5.779001448e-06
5.08262102e-06
-0.0001618845289
0.0001617586979
-0.0001625018295
-5.001819841e-06
0.0001624287744
0.0001630772298
-3.562337017e-06
4.4544669e-06
-0.0001639693597
0.0001624099407
-0.0001633626374
-6.142346282e-06
-0.0001643139617
-5.606647006e-06
0.0001642758043
6.908672231e-06
-4.829499221e-06
0.0001603307677
-3.104068522e-06
3.667030143e-06
0.0001625142682
2.473421016e-06
-2.251015938e-06
0.0001666202012
1.730404742e-05
0.0001535892197
-0.0001646988982
-1.011030991e-06
0.0001626058606
-0.0001643250496
0.0001647272363
6.230877314e-06
4.626364964e-05
-0.0001661721758
0.0001369584143
-0.0001653218633
-2.9393719e-06
-7.173287407e-06
-0.0001674864107
0.00016799219
6.667508118e-06
-0.0001662117157
-5.407797481e-06
0.0001644462258
6.408092223e-06
-0.0001672599383
-5.359869616e-06
4.919500931e-06
-0.0001674784339
-5.041007794e-06
0.0001675999407
-5.643607438e-06
-0.0001662178281
0.00016654045
5.320985486e-06
2.477024464e-06
-0.0001668069211
-1.663787643e-06
5.257437291e-06
-0.0001661823701
-5.320744662e-06
0.0001662456775
-5.31606666e-06
-0.0001662857988
0.0001661895553
5.41231008e-06
-0.0001662898173
-5.753729262e-06
0.0001663999392
-0.0001658909746
0.0001657825892
5.36582267e-06
4.538389122e-06
-0.0001643820837
0.0001695873692
6.37342053e-06
-0.000169691454
-6.269335696e-06
4.45863766e-06
-0.0001691161807
-4.667661197e-06
0.0001693252042
-0.0001691864081
0.0001695661812
5.173914457e-06
0.0001594616927
-4.465129071e-06
5.466282018e-06
-0.0001604628456
0.0001620558143
-0.0001622918514
-6.833187802e-06
-0.0001609860037
-6.28867913e-06
0.0001614215122
2.253708614e-05
-7.577978236e-06
0.0001470967064
-3.126693832e-06
5.334579907e-06
0.0001572538066
0.000225430171
7.570273442e-06
-0.0001595887522
-5.922753777e-06
0.0001579412326
-0.0001617284465
0.0001622916476
3.041175109e-06
-0.0001604573531
6.410562452e-06
0.0001509200968
-0.0001620054628
0.0001615617123
8.014023937e-06
-5.790336254e-06
-0.0001622023277
0.0001621001786
5.892485386e-06
-7.154180177e-06
6.735759514e-06
-0.0001615870421
-0.0001608868356
-4.035646635e-06
-4.426241306e-06
4.021654398e-06
-0.0001638158218
0.0001642204087
-0.0001633567802
-4.387034434e-06
0.000163595561
-0.0001637033824
-4.993150802e-06
0.0001635546911
-0.000163683245
0.0001642057995
5.517040744e-06
-1.277929118e-05
-0.0002068399296
0.0002196192208
-0.0001635015261
-4.277768434e-06
0.0001633530532
6.227528111e-06
-0.0001661751046
-6.860038996e-06
0.0001668076155
-4.699878727e-06
-0.0001653043673
0.0001644803004
5.523945585e-06
-0.0001655764312
-5.121631712e-06
0.0001653819962
-0.0001664556132
0.0001675746176
5.108523747e-06
-1.783012798e-05
-0.0002141141561
0.0002319442841
7.580813062e-06
-6.320510385e-06
0.0001619584439
0.0001625578731
3.866094101e-06
-0.0001666162835
-5.264136067e-06
0.0001671805408
-0.0001644032006
0.0001637888784
8.195135209e-06
-0.0002158882291
0.0002347535509
-5.555686815e-06
-0.0001671114107
0.0001667549793
5.912118165e-06
3.620361382e-07
5.658278278e-06
-0.0001630349738
0.0001570146594
-0.0001711834299
-4.686744146e-05
-0.0001663401896
1.895608325e-05
0.0001477461425
-0.0001673985281
-5.799191179e-06
0.0001676420324
-1.649728099e-05
0.0001395957676
-0.0006429629892
-3.195909128e-05
-0.001263877049
-8.492943517e-05
0.001276427627
-6.817030372e-05
0.001233652447
7.099584553e-05
1.356093982e-06
5.076262709e-06
-0.0001622569059
0.0001558245492
2.004562827e-05
-0.0001660097757
0.0001473202414
0.001343618658
6.746521524e-05
-0.0002156032899
0.0002356489182
9.886755669e-06
-0.0003361885902
-0.0006756061851
-2.02202451e-05
0.0003377256739
-0.0006755303927
-2.468147407e-05
0.0006754569423
-0.0001559551066
-1.055837098e-06
0.0001600089651
-2.998021365e-06
1.798780212e-05
0.0001642602159
-1.983236367e-05
-0.0001624156543
0.0001774086561
-0.000171785663
1.490309226e-05
-0.0001708954209
-2.311110838e-05
0.0001886448831
-0.0001641161532
-1.506856527e-05
0.0001613910844
1.779363413e-05
-9.626008982e-06
1.133125499e-05
-0.0001576603526
-4.158101015e-05
-0.00063227944
0.0006375717516
3.628869861e-05
-4.714280611e-05
4.202548641e-05
-0.0006468841956
-0.0003244728534
-1.755417558e-05
-0.00016060871
-6.142114822e-06
0.0001604029465
6.347878302e-06
-4.079388984e-06
3.821303338e-06
-0.0001615500929
4.635732239e-06
-0.0001623132253
-4.585804278e-06
3.289755415e-06
-0.0001690844106
-3.431809021e-06
0.0001692264642
-0.0001692209013
0.0001696064478
4.073091164e-06
4.478432888e-06
-0.0001711448997
0.0001681411149
7.839915073e-06
-0.0003362517282
7.855227436e-06
-0.0003369602485
-7.963165846e-06
9.195412826e-06
-0.0003367252535
-9.237082926e-06
0.0003367669236
4.682074904e-06
-0.0001617747891
-0.0001605191924
-6.223740036e-06
-0.0001617277769
-5.674296184e-06
0.0001616117368
7.818421842e-07
0.0001664929046
0.000170442885
-2.908211614e-06
-0.0001706754593
4.377344506e-05
-1.124734442e-05
0.0001379167843
0.000215866082
-0.0001689679097
0.0001689731655
3.429906628e-05
-0.0001596383507
0.000129789062
-6.576224196e-06
-0.0001637465955
0.0001526292505
-6.291683043e-06
6.262555438e-06
-0.0001691823573
0.0001651700376
-3.664912828e-06
-0.0001677968078
-1.191226834e-06
0.0001498590806
-4.045702221e-06
4.208806871e-06
-0.0001681358061
5.679929846e-06
-0.0001684902832
-5.585200795e-06
3.837628056e-06
-0.000168424974
-3.773879446e-06
0.0001683612254
-0.0003220560962
-1.326463951e-05
0.0003222038373
-1.409741013e-05
-0.000321536235
0.0003211088158
1.452482934e-05
-1.395183785e-05
1.29393111e-05
-0.000322943141
-0.0001678489524
0.0001681588751
4.233386278e-06
3.913524626e-06
-0.0001687920443
-0.0001687496445
-4.313363481e-06
-2.313278114e-05
-0.0003201134213
0.0003254848568
1.77613456e-05
-2.730939154e-05
2.481349697e-05
-0.0003281903706
-0.0001655033249
-9.518902025e-06
-0.0001614491991
-3.166070546e-06
0.0001327075517
-4.932450885e-06
5.803064693e-06
-0.0001623198129
-5.331403197e-06
-0.000163603416
-2.460681883e-05
-0.0002049437993
0.0002295506182
-0.0001596902202
-6.404387542e-06
0.0001414877889
0.0001675636068
-4.75716718e-06
-0.0001674095794
2.890761239e-06
-1.731437607e-06
0.0001664042832
0.0001629364782
5.504112533e-06
-1.814506472e-05
0.0002330444529
-0.0001672423617
-2.116117608e-07
0.0001493089088
2.981634431e-06
-0.000168145925
-0.0001668992108
4.725381248e-06
-4.758562541e-06
0.0001669323921
-0.000167208505
0.0001672535075
4.87449841e-06
6.367593562e-06
-0.000167445912
-0.0001680913465
4.620702773e-05
0.0001392600002
-7.269036955e-06
6.384457499e-06
-0.000167206767
-6.185303271e-06
-0.0001656852497
-0.0001693319626
0.0001671465325
3.350834604e-06
-4.541006157e-06
5.071649204e-06
-0.0001698626056
-0.0001702500501
-3.737093771e-06
6.702462028e-06
-0.0001619704877
0.0001590051195
4.071333279e-08
-0.0001626752159
0.0001588974088
-4.432173396e-06
-0.0001643690402
0.000162554034
-2.53761688e-06
-0.0001644485905
2.24316566e-07
0.0001585397919
1.715032235e-05
-0.0001665898759
0.0001494802669
-0.0002136394793
0.0002307898017
-0.0001651125355
0.0001651478686
5.596189278e-06
7.730686322e-06
-0.0001647540241
5.309410463e-06
-0.0001659881692
-5.937524735e-06
9.804395444e-07
0.0001461093363
-1.727291383e-05
4.669820988e-05
-0.0001686191093
0.0001391938132
-0.0001637537046
0.0001515570535
1.608751209e-06
-2.969094228e-08
-0.0001655069536
4.858798901e-06
5.037135625e-06
-0.000167130669
-1.209755756e-05
0.0001710228034
-0.000129992681
-4.59604441e-06
-0.0002277726301
0.0002154075606
-0.0002275051181
0.0001691022982
-4.747786173e-06
-0.0001688290951
4.517064678e-05
-1.583889323e-05
0.0001397705446
1.233300655e-06
1.932055842e-05
0.0001467431026
-0.0001657182989
0.0001511127063
-0.000167789149
-1.449819456e-05
-0.000163838014
0.0001660959558
1.224025272e-05
-2.168008442e-05
2.372871737e-05
-0.0001661647862
-0.0001697614262
-1.98969776e-05
5.07720908e-06
3.762773154e-06
-0.0001621393
0.0001532993177
3.255901477e-05
-0.0001623915506
0.0001349097449
-5.20947182e-06
4.902474479e-06
-0.0001625974903
0.0001629044877
-0.0001620316754
0.0001605849768
-0.0001614289553
5.131521114e-06
0.000161230339
-5.228895929e-06
5.485567193e-06
-0.0001616856266
-4.967460382e-06
-0.0001614939789
-5.576194802e-06
5.654431186e-06
-0.0001620852885
0.0001619069281
-0.0001619975557
0.0001619748169
-0.0001627242814
5.02017067e-06
0.0001623706148
-5.963921286e-06
6.568748208e-06
-0.0001633291083
-5.694453609e-06
-0.0001632245079
-7.089467463e-06
7.208150069e-06
-0.0001640804066
0.000162777278
-0.0001632979972
0.0001608680784
-0.0001633505334
-6.045175809e-06
0.0001371629494
-4.796575842e-06
4.192751523e-06
-0.000162746709
-5.830209407e-06
-0.0001625574666
-4.536856195e-06
-0.0001615596338
0.000161793021
-0.0001621371257
0.000152490182
-0.0001631899205
4.451178787e-06
0.0001633011322
-4.957470515e-06
5.109591618e-06
-0.0001633420416
-4.743362301e-06
-0.0001630341041
-5.371019376e-06
-0.0001629299503
0.0001629892007
-0.0001632506285
0.0001630409417
-5.464686155e-06
6.549466118e-06
-0.0001633070056
0.0001622222256
-0.0001625547162
0.0001619925046
-1.616292632e-05
4.604172548e-05
-0.0001641597517
0.0001342809525
-0.0001636802994
0.0001540668392
2.083525075e-05
0.000145455548
-1.823754395e-05
0.0002362833288
-0.0001702155178
0.0001407306294
-0.0001716407444
0.0002367013327
1.407479822e-05
2.913953627e-05
0.0001223308118
-0.0002076411328
0.000221715931
-0.0001655951523
-0.0002173790444
0.0002119197176
-1.301057609e-05
-3.084300454e-05
-0.0001735254637
-0.0001723127469
-1.221369482e-05
-1.417122679e-05
-0.0002018993368
0.0002160705636
-0.0001614682837
0.0001164540523
-0.0001618008554
0.0001586972513
-0.0002139681634
0.0002322319159
-0.0001670781684
0.0001461567101
-1.680434102e-06
-0.0001690626471
-0.0001715103969
6.494592983e-06
-1.638143245e-05
-0.0001690475658
0.0001395172666
0.0002351910051
-0.000165620139
0.0001509542961
-7.220442068e-06
-3.403669238e-05
-0.0001649255944
0.0001609687985
-0.0001623861759
0.0001346670838
0.0001611556907
-4.699842272e-06
-0.000161882989
7.386121741e-06
-5.920651231e-06
-3.347161582e-05
7.106304371e-06
-0.0001581442927
0.0001446336008
-0.0001619862345
0.0001350558465
-0.0001623615587
6.515477373e-06
0.00016064618
-5.495888898e-06
5.439390421e-06
-0.0001623050603
-5.69993211e-06
-0.0001625233755
-5.386052317e-06
-0.0001627138642
0.0001624184324
-0.0001623650943
0.0001496323279
-0.0001620900733
5.204727491e-06
0.0001619679668
-5.705779969e-06
5.758264914e-06
-0.0001621425583
-0.0001619358777
-5.66266754e-06
-0.0001625390941
0.0001625230477
-0.0001624274503
0.0001627259554
-0.0001628068545
0.0001619457951
5.315526379e-06
-4.868257501e-06
-0.0001635336211
5.595024088e-06
-4.245731662e-06
-0.0001645918855
-4.411895829e-06
-0.0001619407028
0.0001615230995
0.0001612009294
0.0002130328507
-4.648743298e-05
-0.0001687964336
-1.664187728e-05
0.000229674728
-1.596035095e-07
0.0001501379274
-0.0001668200045
0.0001376366189
1.55711205e-05
-0.0001664174353
0.0001498352838
-0.0002110796832
0.0002266508037
-0.0001676293576
2.81332412e-06
-6.377269434e-06
4.767471186e-06
-0.0001660195594
-0.0001653412952
-4.059397026e-06
-0.0001655081979
0.0001665434831
-0.0001658354089
4.652033087e-05
-1.727602739e-05
0.0001387478865
-0.0001700121289
0.0002148010221
-0.0001681017879
-1.870013379e-05
0.0002335011559
3.164416926e-07
5.637540173e-06
0.0001569824963
0.0001480205911
0.0001637463258
-0.0001661724888
5.562678675e-06
0.0001579720354
0.000152732877
-4.47864968e-06
-0.0001665015283
4.173256958e-06
0.0001694249233
-0.0001675191155
-0.00016110958
6.28967064e-06
0.0001602861914
-5.735601227e-06
6.074523752e-06
-0.0001614485026
-0.000161115033
-5.083413823e-06
-6.214457404e-06
-0.0001619076034
0.0001617496214
-0.0001618895551
0.0001612061043
-5.714207505e-06
0.0001593423335
0.0001599065638
0.0001573940678
-4.235457706e-06
-0.0001590813638
5.339448121e-06
-2.783798746e-06
0.0001548384184
8.835402866e-06
0.0001544452778
-7.298624392e-06
0.0001361186562
-0.0001589089915
0.0001488265683
-0.0001601032741
3.275451976e-05
-0.0001630340568
0.0001366900995
2.412619374e-05
0.0001462709214
-0.0002054775078
0.0002296037016
-0.0001647089641
-0.0001631344971
4.409874096e-06
0.0001627462774
-4.387028202e-06
4.567687638e-06
-0.0001633151565
-4.490710975e-06
-0.000163712139
-4.678578134e-06
-0.0001634215644
0.0001633771137
-0.0001634880042
0.0001633999534
-0.0001647953736
1.850542194e-06
0.0001501655403
-4.258808823e-06
4.064945592e-06
-0.0001646015104
-0.0001650570129
-4.294961805e-06
-0.0001636972752
0.0001635327326
-0.0001637627488
0.0001611055063
-1.757370598e-05
4.638003625e-05
-0.0001678390005
0.0001390326703
-0.0001639711586
0.0001530999147
-0.0001661099903
0.0001485041789
-1.794524632e-06
-0.0001668530826
-0.0001695286445
0.0001615265507
-5.148664805e-06
-0.0001626983963
4.781216646e-06
-4.279219617e-06
0.0001610245537
7.096329488e-06
0.0001596433311
3.293677825e-06
0.0001591045918
-0.0001613839065
0.0001603983647
-0.0001626664772
0.0001692577619
-7.215399065e-06
-0.0001673064989
2.512941896e-06
-4.689465929e-05
3.103606784e-06
1.771800891e-05
0.000153167199
-0.0001671279777
0.0001379513273
-0.0001661482415
-0.0001643646656
1.759154954e-05
0.0001524313944
-5.692937026e-06
7.657007912e-06
-0.0001663287365
-3.042373194e-06
-0.0001656855376
-7.236662828e-06
-0.0001693149147
5.36814756e-06
0.0001687500369
-0.0001683296918
0.000139474145
-1.733616286e-05
4.657186346e-05
-0.0001681196928
0.0001388839922
-0.0001641690781
0.0001524704554
-1.721173508e-06
-0.0001676613893
0.0002150858576
-0.0001702351676
0.0002340419408
-0.0001651221064
0.000149605265
-8.431389553e-05
-2.30877706e-08
8.561622074e-08
-2.448075688e-09
-8.291858701e-05
-1.506972654e-07
-6.158868988e-05
1.682371144e-06
-7.276340611e-07
7.119218733e-05
0
5.112121298e-08
7.907144193e-10
-5.025883419e-05
-7.004587853e-07
-1.530633735e-05
1.162871285e-06
-2.788673097e-07
2.605699329e-05
0
0
0
-7.034608084e-06
-9.825469663e-08
0
4.498105897e-09
0
8.030961386e-08
0
0
0
0
0
0
0
0
0
0
0
0
0
0
0
0
0
0
0
0
0
-0.0004334566841
4.200299709e-06
-2.286926977e-06
2.904280812e-07