/*--------------------------------*- C++ -*----------------------------------*\
| =========                 |                                                 |
| \\      /  F ield         | OpenFOAM: The Open Source CFD Toolbox           |
|  \\    /   O peration     | Version:  v2012                                 |
|   \\  /    A nd           | Website:  www.openfoam.com                      |
|    \\/     M anipulation  |                                                 |
\*---------------------------------------------------------------------------*/
FoamFile
{
    version     2.0;
    format      ascii;
    class       volVectorField;
    location    "0.25";
    object      U;
}
// * * * * * * * * * * * * * * * * * * * * * * * * * * * * * * * * * * * * * //

dimensions      [0 1 -1 0 0 0 0];


internalField   nonuniform List<vector> 
3259
(
(99.99764176 0.4952978595 0)
(100.0025181 0.4985560207 7.218461531e-22)
(100.0068634 0.457294241 -1.371930751e-21)
(100.0065901 0.3857793878 9.240374227e-22)
(100.0066371 0.3042003576 0)
(100.0060819 0.2278211786 1.58334059e-21)
(100.0056855 0.1617945859 6.514991835e-21)
(100.0030464 0.1136315854 -1.840795838e-21)
(100.0121833 0.1293724355 -1.599166159e-20)
(100.0083071 0.07922281067 0)
(100.0061539 0.04228762163 -2.010602599e-21)
(100.0058503 0.01334482534 -1.416188812e-20)
(99.88218339 2.239322533 -1.787413457e-21)
(99.99232467 2.277369797 -1.995743665e-22)
(100.0979504 2.103166427 -4.782140227e-22)
(100.1599956 1.782600606 4.778601626e-21)
(100.1755835 1.407870484 -9.55637739e-21)
(100.1555392 1.056391155 0)
(100.1648871 0.7928358982 -2.773734439e-20)
(100.1174016 0.5392452399 5.354070726e-20)
(100.1147091 0.3692781079 1.548369465e-20)
(100.079729 0.2252958194 3.194589302e-20)
(100.0597424 0.1206506779 -3.204041179e-20)
(100.0518261 0.03804101965 1.617234315e-20)
(99.70679633 4.417047654 4.515193671e-20)
(100.1569999 4.50478109 -1.36956488e-19)
(100.5169893 4.107201749 0)
(100.6957283 3.413830276 -1.51083183e-22)
(100.7114763 2.644930837 -1.036192153e-20)
(100.6260478 1.940055333 -2.467347872e-20)
(100.546778 1.354417738 -1.666406419e-19)
(100.3995409 0.9066472815 -3.712017483e-20)
(100.316509 0.5585852053 -1.589788226e-20)
(100.2239197 0.3379396261 3.615234528e-20)
(100.1681721 0.1809634287 -4.06377565e-21)
(100.1433913 0.0566548393 0)
(99.49674928 7.145458983 6.382859045e-19)
(100.6363592 7.157138319 -1.867065389e-19)
(101.4193582 6.302885441 8.20081428e-19)
(101.6937504 5.064592789 0)
(101.6236746 3.782844546 0)
(101.3898301 2.686088946 0)
(101.1378283 1.787485663 6.09555496e-20)
(100.8261068 1.166593649 -4.717662843e-20)
(100.5987752 0.664767354 -4.077112566e-20)
(100.4256238 0.3982304043 2.064895186e-20)
(100.3178695 0.2104240737 -4.143923422e-21)
(100.2683703 0.06522019493 0)
(99.34767844 10.91660463 -3.06772768e-19)
(101.9027708 10.53542682 1.54447784e-19)
(103.273268 8.655354927 -1.520117391e-18)
(103.4642839 6.517110285 1.715112115e-18)
(103.0501287 4.678576171 0)
(102.4539415 3.180174173 -5.713195554e-22)
(101.8958864 2.000843134 -1.015615167e-19)
(101.3607922 1.272800396 8.439586244e-21)
(100.92612 0.6600873225 0)
(100.6520038 0.388957895 4.230714271e-21)
(100.4808414 0.1998638719 -3.17758516e-21)
(100.4012548 0.06097946146 -1.05346366e-21)
(98.85224634 16.91323161 -3.412189538e-19)
(104.8179845 15.17168172 0)
(106.7339589 10.81651373 1.103258138e-18)
(106.224798 7.394292912 -5.387913545e-20)
(105.0144337 5.019783973 0)
(103.7934693 3.290057749 0)
(102.7476239 1.911470352 2.620863631e-20)
(101.9393982 1.173013976 -1.750378883e-20)
(101.2548397 0.5270976728 0)
(100.8652583 0.2985634632 0)
(100.6257026 0.1435350848 -1.069193937e-21)
(100.5137855 0.04236318473 -3.208237796e-21)
(95.31864357 28.62900057 7.476120752e-19)
(112.3868212 21.45583827 4.457424192e-19)
(112.4492967 11.82032884 0)
(109.8623041 7.02875519 1.134831363e-19)
(107.3270082 4.438568736 -1.973563751e-18)
(105.2453013 2.794090726 0)
(103.5825603 1.453790633 0)
(102.4713336 0.8191499928 9.611237831e-21)
(101.5263697 0.2655848395 2.819293233e-21)
(101.0230885 0.1213741302 -3.331076385e-21)
(100.7203067 0.04127508193 -3.783136873e-21)
(100.5773829 0.009510876994 9.106832479e-21)
(129.6774906 22.78949486 1.101837849e-17)
(119.7805698 8.903897026 -5.384390044e-18)
(113.5846764 4.617023428 0)
(109.4550406 2.718164579 -4.842175471e-19)
(106.517872 1.601547554 -6.420636184e-20)
(104.2279976 0.6171409661 -5.139439182e-21)
(102.8484932 0.2380626462 2.171384398e-20)
(101.6760359 -0.1144859085 -3.44017885e-21)
(101.0841892 -0.1295058455 2.810892056e-21)
(100.7332321 -0.09985927027 -5.316211246e-22)
(100.5648887 -0.03590957502 -8.555786719e-21)
(141.6095462 3.862296598 0)
(124.1966787 1.125719568 3.410981999e-18)
(115.7978486 0.2517654375 1.236290402e-18)
(110.6963017 -0.003608680396 0)
(107.2383431 -0.1414744695 -1.622592678e-18)
(104.521469 -0.4946815733 -5.249434043e-21)
(102.9758764 -0.513335073 1.221733728e-20)
(101.6557705 -0.5752481474 1.183754844e-21)
(101.0163841 -0.4294629458 0)
(100.6387087 -0.2669867232 4.317827443e-21)
(100.4548521 -0.08991787241 4.264633473e-21)
(136.7437802 -13.11915343 -4.511720178e-18)
(123.1283452 -7.279920579 0)
(115.4893268 -4.61582209 -1.171369642e-18)
(110.5607418 -3.02560167 0)
(107.170845 -2.078222925 1.599691058e-18)
(104.3620819 -1.711995864 4.428659676e-20)
(102.8039737 -1.332125904 0)
(101.438539 -1.062539386 -1.154995645e-21)
(100.8019696 -0.7455692074 -4.765321507e-21)
(100.4225646 -0.4432207041 5.323173707e-22)
(100.2352076 -0.147031966 0)
(126.4870429 -21.69011195 -6.320228164e-18)
(118.5209142 -13.05730987 -2.455316164e-18)
(113.1373053 -8.452323002 -5.359703792e-19)
(109.2598913 -5.624579144 -9.059217756e-19)
(106.3491327 -3.864417545 -9.814458772e-20)
(103.7571054 -2.840714917 0)
(102.3362147 -2.106042112 -2.879867111e-20)
(101.0279372 -1.519345955 -1.435917415e-20)
(100.4416028 -1.044051343 1.090070017e-21)
(100.0844034 -0.61082222 -3.426888732e-21)
(99.90512409 -0.2015711 5.027287088e-22)
(116.316204 -24.17759858 0)
(112.8137229 -15.68226624 -1.821979065e-18)
(109.7727511 -10.67098729 0)
(107.1661473 -7.377488397 1.480217885e-18)
(104.9650158 -5.19635675 0)
(102.8054591 -3.731678322 2.280899441e-21)
(101.624868 -2.745268651 -3.484051258e-20)
(100.4574534 -1.907220956 8.517900291e-21)
(99.95364154 -1.295601883 0)
(99.63652901 -0.7548676757 3.948344397e-21)
(99.47456323 -0.2487251051 0)
(144.5337977 6.957255603 -1.908774637e-19)
(131.3903847 25.844225 -3.742076341e-18)
(139.9325182 -12.58833609 -1.460825413e-19)
(144.7484353 4.00797961 1.413088514e-18)
(128.8212532 -22.50881996 8.887302774e-19)
(138.6914302 -14.34970139 -5.975816824e-18)
(117.8743922 -25.46816059 -5.34625775e-20)
(127.3891932 -23.18615914 0)
(116.597021 -25.50473839 0)
(92.89784019 27.42688503 -1.035973422e-18)
(128.0060702 27.06664428 -1.081723616e-19)
(110.2671212 23.74308693 0)
(157.6199145 26.54141196 0)
(137.4677491 46.93226796 2.600106163e-18)
(141.3063275 6.47967111 -5.204826534e-18)
(126.5763845 4.108118576 0)
(121.8612384 10.76619543 -5.965388459e-18)
(155.264018 -9.292319631 -3.615827564e-20)
(158.7750446 4.281864026 0)
(137.8176339 -11.46122392 -1.245093548e-19)
(126.6268162 -6.113681784 0)
(127.2429616 1.48002725 3.879595715e-19)
(138.6251485 -25.77989715 0)
(146.9339094 -20.03221263 4.224050013e-18)
(127.8168253 -21.01336987 0)
(121.7611105 -13.45842573 2.76507613e-18)
(125.7275489 -8.309902543 0)
(124.2953454 -30.70723434 -2.815634221e-18)
(130.298927 -29.35407843 -3.496955736e-18)
(103.4824134 -34.22326287 3.131438672e-18)
(112.0842211 -30.22821567 -3.921730626e-20)
(117.1989206 -31.04276057 0)
(158.9477214 5.343510474 1.00653622e-17)
(158.1680528 25.00421244 0)
(141.6554556 16.11894352 -3.628276692e-18)
(155.9487201 23.47418735 -6.314246069e-18)
(157.7976401 5.534954045 -4.994442331e-18)
(147.4552433 -19.50792846 4.322361283e-18)
(154.9032769 -10.05360608 0)
(142.5477894 -5.695774468 -4.559753874e-18)
(153.254912 -9.52052834 0)
(146.5120361 -18.94477217 4.120270745e-18)
(157.6138741 4.475038979 5.040419419e-18)
(153.6062451 -8.780781165 -4.441664612e-18)
(142.8886701 -4.506184477 0)
(131.2043628 -29.06208975 -1.002652561e-19)
(138.085371 -26.10056249 3.498494892e-18)
(133.1411515 -19.82089009 -1.03392421e-18)
(137.3733225 -25.35375238 -4.243831696e-18)
(130.922342 -28.15769885 -3.422373582e-18)
(146.0174057 -19.46626989 -5.529363405e-20)
(138.378791 -24.8022313 8.441014802e-18)
(134.5748817 -18.67760519 -5.179711303e-18)
(117.9589127 -31.07999794 0)
(123.475332 -30.81458696 -2.658655546e-18)
(98.80814092 -33.17847084 1.271721066e-18)
(97.69984983 -32.83334982 -1.281836734e-18)
(111.3781131 -30.10948775 0)
(104.0302689 -34.35276384 -2.483084987e-18)
(168.8470615 56.11606643 0)
(139.2984392 73.38722558 -4.632053117e-18)
(116.1955146 -31.00242411 0)
(117.5227035 -24.10894184 2.270257009e-18)
(115.2652443 -16.9640944 -2.195394837e-18)
(120.1894316 -14.67813616 0)
(94.12747526 -31.18721895 -3.191882643e-18)
(114.3519037 -34.08183612 -1.385766987e-18)
(117.1064847 -34.25259593 -1.684038395e-20)
(136.3427861 42.77912855 -2.001278606e-18)
(154.8339804 26.37108657 -1.599110357e-18)
(139.7692226 19.04528063 1.098077331e-17)
(117.5388884 -34.23619264 -2.327117512e-20)
(120.2738109 -34.28741881 2.018663791e-18)
(121.8488788 -24.94941137 2.780147961e-18)
(123.4202016 -29.98145705 0)
(118.0152962 -30.26753933 0)
(130.0576822 -28.44800727 3.417816503e-18)
(124.2223197 -29.86068141 0)
(123.2085988 -24.63145018 3.056850912e-18)
(85.1728901 41.06072754 -7.030003416e-19)
(133.0437092 47.68477443 0)
(111.1009031 41.15806038 2.944911841e-18)
(88.71555729 43.53957371 5.248114689e-19)
(171.7314886 52.42384813 0)
(152.2741639 37.7306699 0)
(167.9383206 50.66964347 1.044266886e-17)
(138.6343252 68.13981214 0)
(164.667824 53.50217963 -6.3565843e-18)
(149.2398829 40.69770183 7.173753619e-18)
(156.771502 -3.390210859 -5.448853964e-18)
(157.0404708 -2.500383905 5.371057746e-18)
(142.4727573 -23.55185564 5.454502738e-20)
(143.0398757 -23.14796435 0)
(121.5694316 -33.66215687 -4.922110845e-18)
(117.8607657 -31.41501693 8.948926787e-18)
(126.8045706 -30.27027142 3.028363401e-18)
(124.1176807 -32.57588558 -3.86471087e-18)
(123.9340758 -33.68494241 2.374784639e-18)
(120.8839479 -30.20238615 0)
(123.5587594 -32.36503576 0)
(127.6611139 -30.08231596 2.41008165e-18)
(111.1397721 -33.33758728 3.016577975e-18)
(113.5432743 -33.93421654 -1.72174881e-18)
(95.88098144 -31.63966509 -3.170700828e-19)
(159.4841495 13.51930409 2.566558339e-18)
(159.5003614 14.85115327 0)
(150.8736866 -15.37779759 4.908728957e-18)
(151.3530258 -14.7391309 -9.991020645e-18)
(150.2141893 -14.28520179 -9.422749866e-18)
(146.2809574 -11.35677533 -7.595852503e-20)
(148.1106366 -7.602712359 1.049339905e-17)
(143.3827062 -15.67429605 0)
(145.6012262 -12.51520985 4.500443819e-20)
(149.7719571 -14.92140185 4.705106804e-18)
(155.8933571 -2.19689793 -5.187495701e-18)
(150.2872179 -0.316007271 -5.602916368e-18)
(150.874305 4.689909015 -5.679566105e-18)
(148.6400158 -6.245706987 -1.061810521e-17)
(149.9546559 -1.873809307 -5.563246271e-18)
(155.6091577 -3.086097019 0)
(134.0909823 -27.78884454 3.068573619e-18)
(121.1887954 -29.96821132 0)
(134.5726783 -27.54634769 3.137884046e-18)
(123.609174 -33.75200143 1.333659174e-20)
(120.9824176 -33.87754826 -2.045321029e-18)
(121.0644065 -31.03230002 0)
(120.5734482 -34.26597043 0)
(121.5249594 -33.82050579 1.7669791e-20)
(90.76589635 -30.48844952 0)
(110.3547786 -33.0936132 0)
(137.9980929 99.33615636 -3.414683905e-17)
(110.9776728 -34.7392868 0)
(110.1019195 -34.1501895 1.892368568e-18)
(24.49245059 24.26322326 -3.476045872e-18)
(109.288581 -33.82437891 1.91448339e-18)
(106.8857623 -32.76671643 1.090511542e-18)
(70.54726062 57.05154312 6.687332962e-19)
(133.5253873 73.25959211 -1.995454193e-18)
(108.2090644 61.89807538 -4.60316987e-19)
(80.17286284 63.91116956 2.526203899e-19)
(156.0438047 -6.888526469 -1.839379184e-17)
(163.8462583 3.714336007 1.302270097e-17)
(162.4912299 0.4514362552 1.636790714e-18)
(158.1113905 1.24065398 -5.2807549e-18)
(140.2391148 -24.93926379 -7.231832397e-18)
(140.4299887 -26.7467154 -3.662461305e-18)
(139.7347293 -27.66161268 -4.738669656e-18)
(144.5094472 -21.38148697 5.282025077e-18)
(142.4244803 -22.87389482 -1.375788412e-17)
(145.3124986 -21.46444273 4.011655766e-18)
(159.2441061 8.666239975 0)
(164.8466452 8.225672685 0)
(164.3153179 4.834897038 -6.349743286e-18)
(158.3736935 14.70559103 0)
(150.0175012 14.12097873 5.373754556e-18)
(147.8766853 20.28039863 0)
(150.9102687 6.475265432 1.670577163e-17)
(150.4182686 12.12713133 -5.536324027e-18)
(158.3734315 13.45704352 -5.096829803e-18)
(148.9697067 -17.83025026 4.564339891e-18)
(147.491388 -19.15868142 0)
(145.2488211 -20.86730372 0)
(153.5144489 -12.18293134 0)
(139.2872626 -27.97359806 1.141657183e-17)
(137.6299356 -28.65622536 -3.419826873e-18)
(136.5332909 -26.74609852 0)
(134.5034366 -26.73603587 1.061613376e-18)
(133.2647622 -23.96030374 0)
(135.8090857 -22.48066755 2.366554112e-21)
(142.4196355 -22.5663678 0)
(140.1124225 -19.17713968 -4.51777241e-18)
(142.5899592 -16.62810275 0)
(136.6704496 -21.91102996 9.39784839e-20)
(139.259247 -19.93104499 4.312166063e-18)
(141.8950245 -22.96556872 1.132712786e-17)
(120.2801455 -31.07144917 -2.334790822e-18)
(120.5740423 -33.88615321 -6.052684592e-18)
(117.7947315 -33.60202769 -2.160469197e-18)
(92.92785993 -31.31046226 -9.231669375e-18)
(158.6269134 65.91634791 -5.797136541e-18)
(139.1784475 95.17069331 2.624397356e-17)
(154.6717618 69.22276282 1.705301428e-17)
(117.5082204 -30.57896947 -7.417634176e-18)
(117.7436601 -30.49651268 0)
(111.7374124 -35.08566517 0)
(111.3254552 -34.82779375 1.605564485e-18)
(93.6078392 -30.81254587 0)
(34.71666524 0.5091106684 -8.782934412e-18)
(32.53923377 21.57448177 0)
(38.19339852 -2.756448995 -2.800379149e-18)
(109.6637316 -32.77929709 -2.273099636e-18)
(112.0402671 -33.82017832 3.245309748e-18)
(119.1697136 -34.30530036 0)
(105.1033064 -32.14904309 6.310930755e-19)
(103.6714697 -31.45216478 0)
(174.1575707 41.68578485 0)
(162.7717674 37.72068056 -5.568755208e-18)
(158.2546212 44.4592261 0)
(166.2775208 28.70186725 0)
(163.8553231 35.39592852 1.109693087e-19)
(156.3461472 46.59328939 0)
(149.384562 52.20266916 5.012832941e-18)
(156.0399537 62.13037034 0)
(159.8958614 -4.324968065 1.312859242e-17)
(156.4613761 -7.052988401 -1.159010131e-17)
(156.1821633 -6.016915897 0)
(157.8584684 0.2685323857 2.66129327e-18)
(161.987647 -0.5814221436 -4.895514616e-18)
(160.4468927 -3.415830132 -9.720814658e-18)
(142.5767881 -25.20683135 0)
(140.9006785 -26.3812105 0)
(140.7956966 -24.62552759 -7.382708309e-18)
(135.9432258 -26.19221901 -5.727141594e-20)
(138.4751037 -25.10608304 2.485262109e-18)
(136.6033238 -27.62647928 -1.019634119e-18)
(135.3717828 -26.5303577 -4.187729017e-18)
(139.2583128 -24.64055519 0)
(144.748378 -21.88952732 0)
(141.8207093 -23.31036165 1.610261204e-17)
(143.0773591 -24.76086912 0)
(120.2668656 -32.94975021 -1.25040211e-18)
(119.9191763 -32.61307933 2.583590619e-18)
(124.4799168 -33.3146322 0)
(126.1683987 -32.09277549 2.469354695e-18)
(127.5581228 -31.93235922 2.589923871e-18)
(123.1650276 -31.34405596 1.593846918e-18)
(129.983162 -31.43054981 -2.768142108e-18)
(131.411807 -31.11925173 -2.897126252e-18)
(128.0258621 -31.80169241 0)
(129.4965561 -31.54658695 4.182565904e-20)
(123.4273053 -31.63599795 4.723891047e-18)
(99.43200046 -33.03826621 0)
(111.2099931 -35.0019509 0)
(111.6890768 -35.07720346 -2.875234031e-21)
(165.2510503 13.4020518 -7.422757289e-18)
(164.9066614 9.571492807 1.871135661e-17)
(159.3185473 9.823501584 -1.352644468e-19)
(166.2758787 9.737256584 -2.935593498e-17)
(167.5315718 13.63582626 8.649310606e-18)
(165.3957436 8.198148287 1.219331997e-17)
(167.2026453 20.90746301 9.796892439e-18)
(167.0304844 26.69386846 0)
(167.9711801 14.93809664 8.050781336e-19)
(167.2452234 19.34762088 -6.469348509e-18)
(159.3237368 18.92414479 -5.25662984e-18)
(164.5861858 19.26133395 0)
(165.4091077 14.82163669 5.636899048e-18)
(150.2570911 -16.64858034 0)
(148.2386866 -18.54801541 -1.669241589e-19)
(149.4578948 -17.23886935 0)
(152.9559378 -12.80801795 -4.555081705e-18)
(151.2489418 -14.19209515 -2.733007351e-18)
(150.8442092 -15.98742563 2.993365828e-18)
(133.5197412 -30.42500266 1.245354924e-20)
(134.6798109 -29.95425432 -3.939680486e-20)
(131.9039663 -31.00365384 -2.98779163e-18)
(133.2026723 -30.52814652 -3.758920947e-18)
(121.0791873 -29.34573792 0)
(135.2069941 -28.69526149 7.053804407e-18)
(136.5264105 -27.98908404 -2.01296375e-18)
(134.9412209 -29.69500267 3.308257694e-18)
(134.8981644 -28.96076096 -3.293443772e-18)
(102.7199558 -31.17437517 1.824885033e-17)
(121.38427 -34.17284576 -1.836503773e-20)
(106.7707497 -31.41847145 0)
(107.8840885 -32.17836552 -5.329341551e-18)
(106.933597 -31.35625874 0)
(121.5399461 -34.06455369 0)
(91.12464314 -30.8508186 1.102207748e-17)
(126.8518889 23.91413118 -3.184847417e-18)
(119.6367025 12.19957196 4.934002586e-18)
(112.9261415 13.64389329 -1.975510485e-18)
(97.75914822 -31.37324931 0)
(98.0344759 -31.3494081 0)
(113.6407585 -17.3185903 0)
(97.17641968 -31.08195969 0)
(117.2723608 -30.25138012 1.937290607e-18)
(112.6803268 -29.25931958 1.174720946e-18)
(112.9331433 -25.22960584 0)
(55.8712421 74.05626078 -5.046669001e-19)
(48.05163221 46.63823149 1.065723312e-18)
(29.69507275 34.25970811 3.755392739e-18)
(121.7408238 106.3465739 5.151132187e-19)
(99.7717629 85.74577573 -4.527631429e-18)
(65.8087033 82.90075015 -3.812639297e-19)
(118.62871 27.19511233 2.31929791e-18)
(114.5318677 37.38638535 0)
(132.5777073 43.5062739 0)
(155.4642656 31.53010111 0)
(161.3345366 34.46451533 5.596625734e-18)
(163.3930975 28.21056598 0)
(110.0347789 -34.62875074 0)
(110.9356167 -34.98413394 -2.018997333e-20)
(100.6119593 -33.34492505 -1.305254299e-18)
(116.9671247 -33.54931092 1.635529619e-18)
(114.5205852 -33.22148862 3.656153842e-18)
(114.9625328 -30.81652356 3.465950736e-20)
(163.8752384 26.22576771 5.467062495e-18)
(164.427176 20.83854196 0)
(159.1490664 20.36033224 5.277740079e-18)
(92.05950292 -31.34901521 1.37036494e-18)
(96.45782649 -32.52661234 1.345581046e-18)
(88.58490541 -30.42088362 -3.282293591e-18)
(90.23771708 -30.78264304 7.048885179e-19)
(109.6782327 -34.56440786 1.193016604e-18)
(166.4973519 59.1031943 0)
(116.562036 -30.80882817 0)
(102.3274424 -33.32871244 1.536189159e-18)
(101.5346179 -32.93636224 6.718417301e-18)
(94.49374497 -31.09735251 -5.879143286e-20)
(114.1860721 -34.84911023 -1.331177194e-20)
(114.0275239 -35.04683146 1.675695544e-18)
(115.8697214 -34.04842266 0)
(146.7784062 22.3541964 0)
(142.2482724 28.15763161 0)
(149.213187 34.95184757 2.407459712e-19)
(118.7774686 -34.35418946 1.900938488e-18)
(112.8865522 -34.15500053 0)
(113.9829687 -34.73013572 0)
(121.1694019 45.81378598 0)
(113.2912282 57.62623291 -5.376247243e-18)
(133.9735329 68.25518751 4.012897692e-18)
(170.3500304 47.73500342 -1.297469639e-17)
(165.8300299 45.8279952 6.169649322e-18)
(163.8152864 48.62493927 -5.733972264e-18)
(173.3614419 30.15766388 0)
(173.1160217 33.20090043 -1.851836031e-17)
(121.4188139 -33.41472984 1.236019178e-18)
(115.9893756 -32.39435599 2.731856445e-18)
(116.4505007 -32.71649677 0)
(112.8573346 -30.58926176 2.0519472e-17)
(113.9327521 -30.94083256 3.977866634e-18)
(119.4115702 -31.96741111 1.443839277e-18)
(124.3364268 -32.30106011 2.326783478e-18)
(125.6891436 -32.20622019 -2.444281616e-18)
(124.3690526 -33.4230286 0)
(120.3969285 -30.47705306 0)
(127.2786333 -31.56664451 0)
(127.0864768 -31.20765108 2.963989195e-18)
(97.76956957 -32.26293166 -3.226637189e-18)
(104.4720169 -33.97795472 1.10633064e-20)
(103.4326755 -33.61804926 1.110872649e-18)
(125.1666843 -29.07131597 5.93364125e-18)
(125.8283787 -28.93869674 6.381717926e-18)
(127.1841361 -30.95818209 -6.353513349e-18)
(127.3550175 -30.72530715 -3.39176807e-18)
(121.7531094 -29.83164399 0)
(126.1072928 -28.76431286 0)
(125.176098 -28.4163502 -2.925840443e-17)
(136.021969 -27.01529324 3.829216197e-20)
(137.1349927 -28.85308397 -5.210269081e-21)
(135.7673215 -29.25190783 -1.598136528e-18)
(91.55212761 -30.73866735 2.213657272e-18)
(97.01210737 -31.52692239 -5.138755848e-18)
(97.41364788 -31.41461909 8.05821224e-18)
(103.9387695 -32.67199287 -1.037014401e-18)
(104.4717823 -32.99478163 1.999576361e-18)
(110.5125955 -34.42550541 -5.607381025e-18)
(22.85960355 15.52321852 2.1571053e-17)
(14.60465333 29.65097155 -4.435028124e-18)
(24.00729651 6.135581067 1.340288992e-16)
(108.3696185 -33.55819662 -1.880379461e-18)
(100.6172006 -31.65184891 -1.34557547e-17)
(102.274554 -32.0966172 7.28586839e-18)
(100.9338978 -31.41468507 -1.462146732e-18)
(101.0260026 -31.5109167 4.631523326e-18)
(107.6739792 -33.1587128 -4.099981105e-18)
(119.6052142 69.81947058 1.505743177e-18)
(106.9100667 81.29431682 -5.660648862e-19)
(127.8641607 96.02778794 -5.164583016e-18)
(156.9212789 -8.445926493 -8.057748023e-18)
(157.7001152 -7.637440601 -1.960478206e-17)
(155.6426221 -10.04557332 -5.720452883e-18)
(156.2265388 -9.247755351 5.629602407e-18)
(163.3891653 2.613843471 -1.310540595e-17)
(162.4189244 2.778328198 5.61433277e-18)
(162.7383841 3.876747982 0)
(161.7502471 0.6604994949 6.465670166e-18)
(162.0912043 1.709181048 -9.989531381e-18)
(162.9466271 1.534948342 6.582793938e-18)
(143.7453559 -21.91082967 2.026073624e-17)
(147.6867606 -21.76825387 -1.743275597e-17)
(148.2571589 -21.22717078 4.447440864e-18)
(146.5563425 -22.79231228 -3.975000006e-18)
(147.1067905 -22.30376136 1.255888351e-17)
(142.9615207 -22.42271255 -4.919856089e-18)
(164.8688463 7.135359772 1.055140417e-17)
(163.1145285 7.385673001 -5.455749369e-18)
(162.861478 8.506529318 5.348298111e-18)
(163.021408 5.018770624 0)
(163.1777437 6.208023498 0)
(164.6916024 6.005602768 0)
(146.7914174 -19.72056646 -1.079204051e-17)
(149.8919388 -19.49875801 9.694805357e-18)
(150.4175263 -18.90546238 4.945611256e-18)
(148.8170556 -20.67649662 4.619682767e-18)
(149.3632715 -20.09122186 4.8021771e-18)
(146.0295601 -20.30068737 1.579654015e-19)
(154.5774438 -11.71557867 2.681905768e-18)
(155.1416788 -10.86083652 1.126011339e-17)
(153.469328 -13.20851295 1.43617444e-17)
(154.1060083 -12.49489915 -1.563568318e-17)
(85.86843322 -29.78379776 -3.657450374e-18)
(87.61182302 -30.09922879 0)
(88.69122222 -30.3691487 9.185166719e-19)
(95.07306968 -31.98010457 -7.065856255e-19)
(85.14711511 -29.58238594 1.068770039e-17)
(162.0705244 69.3571677 7.29820629e-18)
(166.3604791 64.81028217 -1.143962569e-17)
(163.1030404 62.60728281 0)
(149.9349983 88.34973108 -2.105268006e-18)
(148.2448471 84.87820358 -8.39906899e-18)
(139.5075807 88.13288612 5.440207765e-18)
(159.8774683 75.56621151 -5.621562452e-17)
(154.9065681 80.15971498 -2.384118952e-17)
(116.8893921 -30.65976114 6.794488977e-18)
(116.8536929 -30.20390783 2.540067965e-17)
(94.45969142 -31.04991319 2.429896343e-18)
(100.6840503 -32.566024 -3.527424858e-18)
(98.79248856 -31.9706033 0)
(32.39634063 5.34776248 0)
(103.3858729 -31.68937961 8.270490969e-18)
(100.009708 -31.13002343 3.236576713e-17)
(103.7741857 -31.54682172 5.829071147e-20)
(170.2534416 40.39535734 -5.004640046e-18)
(167.509485 43.08426838 3.357673563e-18)
(172.0507641 45.15194424 -2.199182909e-17)
(165.417255 30.74042026 -5.784262539e-18)
(168.9184311 31.63436681 0)
(170.3239424 29.26899493 0)
(172.8935681 35.40295605 -2.289878945e-19)
(171.951473 37.82902012 6.02700144e-18)
(159.2180528 -5.161573885 -3.408398343e-18)
(159.5563314 -4.867192495 -6.002387359e-18)
(159.9269776 -4.026674714 3.500430121e-20)
(158.2847962 -6.784008191 8.675541861e-18)
(159.5924862 -5.646144947 0)
(158.6297825 -5.98887994 1.169682687e-17)
(161.4710234 -1.542872471 1.30675822e-17)
(161.0045604 -1.309520677 2.93289528e-18)
(161.3846371 -0.3495204664 -8.677393338e-18)
(160.2597512 -3.14752838 2.981428258e-18)
(160.6314415 -2.241049786 4.404904626e-18)
(160.962637 -2.494207971 -6.564138574e-18)
(142.0144024 -25.62462837 -4.349522922e-18)
(143.4710196 -25.33351749 0)
(144.1031747 -24.93739835 0)
(136.7579581 -25.86980433 -6.311632839e-20)
(137.5970971 -25.53082168 1.204295953e-17)
(135.8008185 -27.15320276 0)
(131.4146368 -26.92143188 0)
(132.1646513 -27.33247054 1.113097245e-17)
(134.7202691 -26.85671826 -2.272338971e-19)
(139.5546537 -24.22829778 0)
(138.7837549 -23.73693656 -3.667467611e-17)
(142.738666 -23.68031322 -1.409225581e-17)
(145.7463209 -23.64136518 0)
(146.1248006 -23.2795661 3.939464828e-18)
(144.740602 -24.52161549 0)
(145.314128 -24.07210222 5.138311983e-19)
(143.2736406 -24.26220442 5.701604292e-19)
(112.8193812 -31.47633868 -1.619742323e-17)
(114.4305508 -31.8715635 8.501596391e-18)
(120.8976058 -33.14699902 1.218777477e-18)
(109.32899 -31.00029788 -4.337373097e-17)
(110.09655 -31.36000419 -1.575554359e-18)
(110.3103389 -31.29021596 -1.874934002e-18)
(119.8438624 -32.34105399 -2.853558671e-18)
(113.7273182 -31.104255 4.991772404e-18)
(113.3398274 -31.28343863 0)
(127.9031915 -32.03774431 1.466374228e-18)
(127.6517288 -31.77860339 0)
(121.8715307 -30.85540586 0)
(165.0342301 12.05732174 -4.50081322e-18)
(162.6714216 12.13276732 1.458253115e-18)
(162.7422022 13.41702782 2.770331364e-18)
(162.6905796 9.664705721 0)
(162.6123931 10.8780696 2.942220139e-18)
(164.8558248 10.75200343 -3.854641282e-18)
(166.655282 10.96539924 9.102035015e-19)
(167.0588203 12.34047986 -3.501094151e-18)
(167.3162879 22.70107743 0)
(170.7574065 23.59964734 0)
(170.2175962 21.84091077 -3.867237199e-18)
(171.0864904 27.27749774 0)
(171.1746978 25.42800102 -8.386691466e-19)
(167.3517004 24.63927001 7.560224554e-19)
(168.105314 16.23150023 2.170547864e-17)
(169.7769094 20.25394897 0)
(169.4585669 17.99475588 0)
(167.7783649 17.64571829 -1.675483357e-19)
(149.6088739 -17.31176299 -2.852574221e-18)
(151.9201841 -17.01188061 0)
(152.3803573 -16.35678888 0)
(150.9345281 -18.27948881 -2.008219796e-17)
(151.4349124 -17.64639758 5.077163431e-18)
(148.9623651 -17.92502345 2.841647893e-18)
(151.7058158 -14.76780675 -5.514075519e-18)
(153.7172084 -14.40501586 0)
(153.7862592 -13.67774428 -8.182712163e-18)
(152.8395494 -15.71951566 -7.362492571e-20)
(153.319675 -15.08826383 2.72421863e-18)
(151.3720046 -15.36568638 -7.90588072e-20)
(124.4348443 -29.48233026 -7.703322873e-19)
(124.8100795 -29.2453603 1.424523258e-17)
(121.9887162 -29.69709842 9.412027637e-18)
(127.1541256 -30.39565183 -1.721771803e-18)
(125.9305554 -29.8770393 0)
(135.6203731 -28.44826458 0)
(130.1812323 -27.94100097 8.599432751e-18)
(129.4689802 -28.14126542 -1.221468619e-17)
(131.7361398 -27.58080344 0)
(130.9277638 -27.76455323 0)
(136.0841143 -28.23561259 0)
(134.9291199 -29.44497813 1.621288653e-18)
(129.8636929 -28.89887362 1.405187748e-17)
(131.0120133 -29.36461724 -1.82639409e-18)
(129.0298715 -28.36358702 -3.694088078e-18)
(128.5071145 -28.59218222 -6.407376751e-18)
(134.8299849 -29.27840326 -1.57285116e-18)
(106.5234979 -31.53083899 5.016895678e-18)
(113.462046 -33.14557825 0)
(113.2453864 -32.90771119 -2.45227652e-18)
(114.8428967 -33.7532887 -2.079278855e-18)
(113.9856609 -33.4980867 2.068879328e-18)
(106.1253306 -31.71569261 -1.757326775e-20)
(109.3362695 -31.62472582 9.189456805e-18)
(109.7642909 -31.46348762 0)
(112.7059066 -32.57931986 5.009233391e-18)
(111.0409956 -32.0414637 -7.871188157e-18)
(105.9259489 -31.07379375 0)
(91.53968329 -30.78666123 -7.004004243e-18)
(99.70220058 3.752567581 -1.909357772e-20)
(99.93752571 2.186048104 2.784374276e-21)
(99.76144913 3.830159147 -1.517737292e-20)
(100.0318798 3.939429764 -9.183104025e-20)
(100.0499801 2.2889273 2.884116783e-22)
(100.1026452 3.917793731 6.610537645e-20)
(100.3386021 3.703334546 1.817014175e-19)
(100.1541593 2.174317231 0)
(100.3844521 3.589383395 -1.467621138e-19)
(100.516476 3.162470324 -1.358716501e-20)
(100.2158988 1.883605345 0)
(100.5276378 3.002517055 1.970914041e-21)
(100.5584624 2.506644502 5.162185529e-21)
(100.2274491 1.515038763 -4.166114488e-21)
(100.5468423 2.344205558 -2.406958664e-21)
(100.5067827 1.872596297 0)
(100.2036673 1.149106084 -1.092182335e-20)
(99.32151065 6.242789839 -6.825221537e-19)
(99.60831676 4.313413193 0)
(99.54328378 6.390594606 3.659213344e-19)
(100.2458835 6.511251236 1.355194261e-19)
(100.0549178 4.533448065 -1.423238867e-19)
(100.4633975 6.440224566 -1.251021875e-19)
(100.9986081 5.961648864 8.497338097e-21)
(100.4506259 4.242803755 -1.52340639e-20)
(101.1247425 5.735513488 0)
(101.3542268 4.941564316 -9.565112695e-21)
(100.6752542 3.601544841 1.431985453e-19)
(101.3836612 4.656617038 1.47099141e-19)
(101.3809967 3.793193168 -1.078895955e-20)
(100.722614 2.833489612 -1.936093884e-20)
(101.3535825 3.514546362 9.356866108e-20)
(101.2232747 2.745028384 -2.993242585e-19)
(100.6565381 2.107070667 -1.190459882e-20)
(98.84462939 9.600562438 4.221367156e-19)
(99.2168471 6.979252683 -3.685678981e-19)
(99.385131 9.832843669 -1.758076585e-19)
(101.0092578 9.822214819 0)
(100.3693886 7.252366379 1.692016568e-19)
(101.479409 9.598707725 -1.541695829e-19)
(102.4917333 8.504240911 -9.39957674e-19)
(101.2736878 6.570406496 -8.075133879e-19)
(102.6895409 8.060123223 0)
(102.9371241 6.667494347 2.022978268e-18)
(101.6671616 5.387233955 -1.137381793e-20)
(102.9311956 6.197294436 -3.240385646e-18)
(102.7440682 4.892143147 0)
(101.6627204 4.09710336 -4.539755445e-19)
(102.6421939 4.493226234 -2.24130157e-19)
(102.2832348 3.404305585 0)
(101.4556203 2.934028032 0)
(97.82415979 14.57732239 5.74120694e-20)
(98.66995729 10.65436778 -8.844980179e-21)
(99.06776534 15.07136555 1.700535986e-19)
(102.8794431 14.54690396 0)
(101.3396893 10.83082587 0)
(103.843663 13.84660326 0)
(105.4718724 11.22561837 9.651804702e-19)
(103.0632861 9.181813115 -7.609087383e-20)
(105.6713938 10.32842957 1.040435549e-18)
(105.6171492 7.945007865 1.179067999e-18)
(103.4919881 7.041100537 -3.388338421e-18)
(105.4452218 7.262648919 5.902028157e-19)
(104.741941 5.506742478 -1.185806063e-18)
(103.1859385 5.106946971 4.624165657e-19)
(104.4776069 5.005967741 0)
(103.6884789 3.693085497 -1.41298587e-19)
(102.6042851 3.519993985 -3.071413875e-20)
(94.0507717 25.26503409 5.792581558e-19)
(97.25343053 16.28851031 0)
(95.96756819 26.27948 -2.995291836e-19)
(107.8918496 22.27261745 4.82408844e-19)
(103.6701312 16.10624721 -5.938387633e-19)