/*--------------------------------*- C++ -*----------------------------------*\
| =========                 |                                                 |
| \\      /  F ield         | OpenFOAM: The Open Source CFD Toolbox           |
|  \\    /   O peration     | Version:  v2012                                 |
|   \\  /    A nd           | Website:  www.openfoam.com                      |
|    \\/     M anipulation  |                                                 |
\*---------------------------------------------------------------------------*/
FoamFile
{
    version     2.0;
    format      ascii;
    class       surfaceScalarField;
    location    "3.2";
    object      meshPhi;
}
// * * * * * * * * * * * * * * * * * * * * * * * * * * * * * * * * * * * * * //

dimensions      [0 3 -1 0 0 0 0];
oriented        oriented;


internalField   nonuniform List<scalar> 
5999
(
0
0
0
0
0
0
0
0
0
0
0
0
0
0
0
0
0
0
0
0
0
0
0
0
0
0
0
0
0
0
0
0
0
0
0
0
0
0
0
0
0
0
0
0
0
0
0
0
0
0
0
0
0
0
0
0
0
0
0
0
0
0
0
0
0
0
0
0
0
0
0
-3.092507948e-09
-7.316364291e-08
0
0
0
0
0
0
0
0
0
0
0
0
0
0
0
0
0
0
0
0
0
0
0
0
0
0
0
0
0
1.431628376e-08
1.237336634e-06
-1.324102798e-06
-7.826997746e-06
5.158169639e-06
6.910578117e-05
-1.197015985e-05
-9.769795385e-05
6.356234928e-06
0.0001809674614
-1.057233925e-05
-0.0002026231661
0
0
0
0
0
0
0
0
0
0
0
0
0
0
0
0
0
0
0
0
0
0
0
0
0
6.991209303e-07
2.712494265e-06
-3.636177208e-06
-1.934846837e-05
2.633522591e-05
0.0001683476104
-4.130177904e-05
-0.0002405033653
4.547482874e-05
0.0004803036387
-5.903120194e-05
-0.0005584957709
2.304379817e-05
0.0007554122471
-2.555730012e-05
-0.000802710238
0
0
0
0
0
0
0
0
0
0
0
0
0
0
0
0
0
0
0
0
0
0
0
-2.316646555e-07
-1.053451947e-06
3.110119929e-05
0.0001276620414
-4.648955019e-05
-0.0002180989657
9.83958742e-05
0.0005753680628
-0.0001190064314
-0.0007087567478
9.73452576e-05
0.001094152848
-0.0001074919503
-0.001206495095
2.519420465e-05
0.001464781454
-2.27722037e-05
-0.00152156192
0
0
0
0
0
0
0
0
0
0
0
0
0
0
0
0
0
0
0
0
0
7.362598786e-06
1.527639623e-05
-1.218478051e-05
-6.581063122e-05
9.949124171e-05
0.0003968239915
-0.0001174973932
-0.0005506723509
0.0001900410681
0.001082088367
-0.0001978240033
-0.001262731395
0.0001291509958
0.001691934721
-0.0001471821672
-0.001783481894
1.393709253e-05
0.001973307667
-1.438645596e-05
-0.00199886893
0
0
0
0
0
0
0
0
0
0
0
0
0
0
0
0
0
0
-2.038960425e-07
-1.155823984e-08
-4.406026422e-07
2.863174566e-05
7.798281179e-05
-3.487795666e-05
-0.0001753311925
0.0001673481343
0.0006452738682
-0.0001748929081
-0.0008532085221
0.0002218292303
0.001461373988
-0.0002292590885
-0.001641145815
0.0001455957147
0.002043418016
-0.0001258013732
-0.002126946772
4.357971364e-05
0.002200889523
-6.865869803e-05
-2.469722984e-05
-0.001059882305
-0.001091231004
0
0
0
0
0
0
0
0
0
0
0
0
0
0
0
0
8.530867343e-07
0
-1.819622278e-06
-4.087499955e-06
-6.269010502e-06
4.797180824e-05
0.0001331401671
-4.957032616e-05
-0.0002604095001
0.0002008604767
0.0008248528193
-0.0002040100274
-0.001047695488
0.0002377785523
0.00169421003
-0.0002372786009
-0.001874349905
0.0001080726712
0.00220810618
-0.0001037470755
-0.002233743012
1.025127275e-05
0.001129723324
-1.208975722e-05
-0.00112788484
0
0
0
0
0
0
0
0
0
0
0
0
0
0
0
0
2.354427432e-06
0
-2.972524993e-06
-1.136764612e-05
-1.286071545e-05
5.767007984e-05
0.0001694544173
-5.940408788e-05
-0.0003121452583
0.0002147819183
0.0009189105241
-0.0002169364493
-0.001152563023
0.0002382072689
0.001813901052
-0.0002384266879
-0.001990387044
9.868582978e-05
0.002286403512
-9.81082615e-05
-0.002296480983
5.793527067e-06
0.001146565977
-5.791609692e-06
-0.001146567894
0
0
0
0
0
0
0
0
0
0
0
0
0
0
0
0
3.580129404e-06
0
-4.416228673e-06
-1.752243856e-05
-1.958740651e-05
6.371764847e-05
0.0001954553078
-6.546298202e-05
-0.000348996159
0.0002223418161
0.0009867664364
-0.0002244513266
-0.001228739556
0.0002391580755
0.001904135959
-0.0002393935217
-0.002080962099
9.699503163e-05
0.002364641547
-9.673988467e-05
-0.002370359088
5.653593007e-06
0.001182074272
-6.033522646e-06
-0.000589976544
-0.0005917177979
0
0
0
0
0
0
0
0
0
0
0
0
0
0
0
0
5.327062656e-06
0
-6.375835846e-06
-2.657590528e-05
-2.923841871e-05
7.092101022e-05
0.0002275784888
-7.284219879e-05
-0.0003934190953
0.0002308112182
0.001065192283
-0.0002329887085
-0.00131595207
0.0002399905103
0.002005044421
-0.0002401552539
-0.00218147338
9.575934894e-05
0.002449361433
-9.550952441e-05
-0.002451707331
5.826019327e-06
0.001223161565
-5.931791217e-06
-0.0006108464097
-0.0006122093834
0
0
0
0
0
0
0
0
0
7.654368256e-06
0
-3.902295988e-05
-4.049126957e-05
7.911348761e-05
0.0002653677692
-8.156322137e-05
-0.0004442334298
0.0002398242456
0.001150232207
-0.0002424037959
-0.001409226487
0.0002405328944
0.002108830696
-0.0002406045182
-0.002283501156
9.491237711e-05
0.002530976894
-9.499329718e-05
-0.00253109323
6.155750435e-06
0.001263021556
-6.144764866e-06
-0.0006306568644
-0.0006323756773
0.00114328052
-0.001143333969
5.846976633e-06
0.001177139559
5.386158107e-06
-0.0005881410579
-0.0005887310663
0.00121805068
5.664104487e-06
-0.0006084613351
-0.0006094274297
0.001257674504
5.932904146e-06
-0.0006281602008
-0.0006292914571
0.001124430963
-0.00112392785
9.748159816e-06
0.002343933478
-0.002350602484
9.726754704e-05
-1.128465128e-05
1.123683977e-05
0.001177187371
1.138026731e-05
0.001146456731
-1.127102154e-05
0.00242880431
-0.002431882292
9.603347887e-05
-1.133211266e-05
1.128465403e-05
0.001218098138
0.001182121949
-1.133232922e-05
-5.908386293e-06
0.001198555014
5.858291304e-06
-0.0005985158959
-0.0005999890232
6.030734579e-06
-0.0003001900554
-6.005453652e-06
0.0005999974033
-0.0002998326288
-6.12244676e-06
-0.0002943922674
0.0005897567023
5.897355552e-06
-0.0002951393437
0.002510159966
-0.002510749131
9.491567017e-05
-1.147271896e-05
1.142709849e-05
0.001257720125
0.00122315146
-1.132200788e-05
-5.560294666e-06
0.00123821497
5.800567683e-06
-0.000618688843
-0.0006197664003
3.272372114e-06
-0.0003099933229
-3.341087037e-06
0.0003100620378
-5.729594983e-06
-0.0003052022789
0.0006108471841
5.780252434e-06
-0.0003056955627
0.001263067748
-1.151891079e-05
-3.745637276e-06
0.0006399861828
-0.0006400488936
3.80834811e-06
4.689319718e-06
-0.0003207331302
-4.353682306e-06
0.0003203974928
-3.980033434e-06
-0.0003146317634
0.0003147744646
3.837332264e-06
-7.47857188e-06
0.0005651611593
7.027454641e-06
-0.000281860381
-0.0002828496611
7.893276968e-06
0.0005718264217
-7.81784028e-06
-0.00028620177
-0.0002857000884
0.0005678432372
3.120537376e-06
-4.309464393e-06
-0.0005666543102
0.0005654866864
-0.0005659196461
-7.045612208e-06
-0.0002939691078
-6.400099491e-06
0.0005885121533
-0.0002942653927
-0.0005807519614
-6.165516704e-06
0.0005808079732
6.1095049e-06
5.619819975e-06
0.001163563104
-5.669400666e-06
-0.001163513524
-7.642457089e-06
7.25460815e-06
-0.0002901012857
-0.0002902628268
3.684427377e-06
-0.000293966614
-3.686921178e-06
0.0005723355773
7.626614651e-06
-0.0002858113776
-0.0002862575374
0.0005800920158
-7.546505065e-06
-0.0002901228781
-0.0002900650897
-0.0003047220101
-5.969125944e-06
0.0006092554018
-0.0003042938607
-0.0003007892888
0.0006017467826
6.263754216e-06
-0.0003011905135
0.001204004659
-5.622829419e-06
-0.0006016309171
-0.0006026592985
-3.905302857e-06
3.970145532e-06
-0.0003008541314
3.327640384e-06
-0.0003046533463
-3.396304218e-06
3.623828839e-06
-0.0002943316688
-0.00030033247
-3.762888343e-06
-0.0003143278415
-4.059607432e-06
0.0003144074155
-0.0003102481069
0.0003102602999
3.260179047e-06
0.001242287046
-5.954042037e-06
-0.0006206119886
-0.00062128131
-3.830484596e-06
3.632473597e-06
-0.0003100500959
4.923329123e-06
-0.0003141111513
-5.140019257e-06
3.320933929e-06
-0.0003051955724
-0.0003099109261
-3.912881327e-06
-0.0003204300019
0.0003205567031
4.56261846e-06
-0.0006410612703
-5.651161849e-06
5.442109435e-06
-0.0003202209494
4.642232034e-06
-0.0003143506663
-0.0003209576076
-5.426684442e-06
0.002267019609
-0.002279360831
9.987867834e-05
1.148795271e-05
0.001143172834
1.546633202e-05
0.001128168807
-1.391181463e-05
-7.155443096e-06
0.001130533785
-0.001130436925
7.058582519e-06
5.862354622e-06
-5.787940419e-06
0.0005654122722
-2.837610174e-06
0.0005694976767
1.183170666e-06
0.001159205909
-0.001159317738
5.731648996e-06
-6.170107124e-06
0.0005800966062
-6.145229323e-06
0.0005723360366
6.144770098e-06
-6.140446239e-06
0.0005718216386
0.0005651902053
5.833308672e-06
0.001128596661
-6.420160391e-06
-0.001129331943
-4.857943908e-06
0.0002840674617
5.409396113e-06
-0.0002846189139
0.0002930926726
4.965446693e-06
-9.880091746e-07
-0.0002970701101
0.0002847929655
2.723352901e-06
-0.0002851922263
-2.324092095e-06
0.001154396878
1.024786211e-05
-2.183997651e-05
-7.844837782e-06
-0.0005623749274
-0.0005725849988
0.0005615957493
-0.0005731562794
1.468106751e-05
-0.0003176618002
-2.64540453e-06
0.0003178037869
2.503417902e-06
-1.566017474e-06
0.0006355992164
1.507701288e-06
-0.0006355409002
1.512195757e-06
0.0006399376624
-0.0006399985263
-1.451331876e-06
0.0002899997056
-2.359191899e-06
7.727892113e-05
-0.0003649194348
0.0002825590169
-5.093992226e-06
-0.0002823229686
7.210872529e-06
0.0005683406233
-7.431417446e-06
-0.0002834830904
-0.000284636988
5.553989683e-06
-6.109882488e-06
0.0002831149097
-5.69285702e-06
0.0002871095711
8.58299152e-06
9.182047596e-06
-2.629962199e-05
0.0002864768957
-0.0002693593213
0.0002844617891
5.159662337e-06
0.0005700828874
7.834440953e-06
-0.000285533751
-0.0002851727048
5.718248785e-06
0.0005713860521
-0.0005717672821
-5.337018807e-06
4.547688455e-06
-4.868656365e-06
0.0002851139334
1.146520443e-05
0.0002841386728
-2.511204631e-06
-0.0002865397594
-4.612318037e-06
0.0002854592204
-0.0002846734235
0.0002847191833
4.501928613e-06
0.0005680246108
6.090625052e-06
-0.0005683969871
4.531839724e-06
-0.0002864819103
-0.0002861132653
-2.785685978e-06
3.748873355e-06
0.0002923572306
-0.0002924240748
-3.682029202e-06
-5.0527349e-06
0.000289539265
5.021145019e-06
-0.0002895076751
0.0002927819419
3.753452295e-06
-0.0002927865208
7.798823909e-06
0.0005762573151
-7.545642292e-06
-0.0002880489104
-0.0002884615863
5.621399046e-06
-5.595676775e-06
0.0002877749751
-0.0002878006974
0.0002853177872
6.427527071e-06
-0.0002825632666
-5.189286414e-06
0.0002894431235
-0.000289306572
0.0002878286052
5.536753909e-06
-0.0002877439601
0.0005767642633
7.733033116e-06
-0.0002884090871
-0.0002882893854
3.702036749e-06
0.0003024417765
-0.0003023786111
-3.76520213e-06
0.0003029318758
3.687144675e-06
-0.0003029169837
3.479073208e-06
0.0002974533815
-0.0002973929751
-3.539479638e-06
0.0002978204302
3.475032258e-06
-0.0002978163892
2.980782766e-06
0.0003128131651
-0.0003128220059
-2.971941987e-06
0.0003132761508
3.264324508e-06
-0.0003135596925
4.488546396e-06
0.0003077627168
-0.0003079117529
-4.339510219e-06
0.0003079450619
4.496484572e-06
-0.0003079530001
0.0006410688816
-0.0006410697129
2.768817814e-06
0.0003174615315
-0.0003171772309
-3.053118339e-06
2.487823454e-06
-0.0003173808059
1.982372829e-05
0.0005838308403
-1.607432632e-05
0.0002974156069
-0.0002975201861
5.070025891e-06
-3.623306472e-06
0.0003079410601
3.627308283e-06
-1.848937657e-06
0.0006161904603
1.792141509e-06
-0.0006161336641
1.793107129e-06
0.0006198270926
-0.0006198274542
-1.792745517e-06
-1.847066564e-06
0.0006108486424
1.847443876e-06
-0.0006108490197
0.0006148829532
-0.0006148835724
-1.848318457e-06
-3.492960758e-06
0.000307632371
-1.68356464e-06
0.0006306604196
1.625083912e-06
-0.0006306019389
0.0006349986238
-0.0006349985688
-1.56607249e-06
-2.78980133e-06
0.0003176059283
-5.951998198e-06
-0.0003034626575
0.0006063516636
5.99486784e-06
-1.902792265e-06
0.0006063568861
1.90292089e-06
-0.0006063570147
0.0006093729306
-0.0006093165907
-1.903406453e-06
3.801244221e-06
-0.0003041245385
-3.977550272e-06
0.0003043008445
-0.0003034738997
-4.724525781e-06
0.0003037598066
4.438618889e-06
-3.542660604e-06
0.0003040670903
3.474361189e-06
-0.0003039987908
-2.91632818e-06
0.0003131317279
3.060751035e-06
-1.795520901e-06
0.0006259577255
1.854810971e-06
-0.0006260170156
0.0006291781082
-0.0006291785775
-1.683095418e-06
0.0006206152936
1.793590265e-06
-0.0006206157767
0.000624765359
-0.0006248240708
-1.736809067e-06
-2.792804229e-06
0.0003126896412
3.323869465e-06
0.0003101995883
-0.0003101154154
-3.408042369e-06
4.054918223e-06
-0.0003093014287
-4.352937497e-06
0.000309599448
-4.991194327e-06
-0.0003094844822
0.0003096587904
4.816886091e-06
4.565550991e-06
-4.670659574e-06
0.0003136198173
-0.0003135147087
-2.646134342e-05
0.0003146031431
7.713440514e-06
-0.0002958552402
-5.060595598e-06
0.0003140616253
5.285773758e-06
-0.0003142868034
3.412108751e-06
0.0003064015142
-0.00030648781
-3.325812913e-06
3.136646553e-06
-0.0003070902134
-3.059956802e-06
0.0003070135237
-0.0003046728216
0.0003049635602
3.510505622e-06
-0.0003092303453
-5.223422815e-06
0.0003094625738
-0.0003082941881
-5.864386529e-06
0.0003085277657
5.630808998e-06
-4.273548933e-06
0.0003091139772
4.134597698e-06
-0.000308975026
3.907616547e-06
0.0003160905832
-0.0003158648305
-4.133369244e-06
3.865332095e-06
-3.965630021e-06
0.0003151383287
-0.0003150380307
0.0003136815835
4.16756219e-06
-0.0003132835947
2.715951951e-06
0.0003217221881
-3.228956247e-05
-0.0002921485776
-2.425023176e-06
0.000319811018
3.284286632e-06
-0.0003206702815
-1.677846744e-07
0.0002845701716
-4.243850469e-06
-0.0002801585365
0.0002886706649
-2.69244959e-05
-0.0002619139537
3.580062166e-06
0.0002915565215
-0.0002923198627
-2.816720999e-06
0.0002928059083
2.103013579e-06
-0.0002913288597
6.633238016e-06
0.0002813984153
-9.872585918e-06
-0.0002781590674
0.0002810891332
6.248569311e-06
-0.0002807044645
-8.293562849e-06
0.0002819907152
7.391980912e-06
-6.098927968e-06
0.0002835573855
5.794386389e-06
-0.0002832528439
4.898508534e-06
0.0002844977787
-0.0002841818453
-5.214441932e-06
-4.007615256e-06
0.0002824522627
5.348694023e-06
-0.0002837933414
0.0002837781124
-0.0002836526108
-6.224429572e-06
-9.462125638e-06
0.0002825669781
-3.186027877e-06
0.0002887001603
3.156532465e-06
-4.775804634e-06
0.0002861783248
5.32743446e-06
-0.0002867299546
6.816138716e-06
0.0002859237937
-0.0002862036874
-6.536245009e-06
0.0002855048148
4.747073828e-06
-0.0002853533801
0.0002849167219
-0.0002851331414
-4.559385117e-06
-3.90813491e-06
0.0002852922787
-0.0002816076812
-7.771567831e-06
0.0002831370096
6.242239413e-06
-4.812181004e-06
0.0002839579336
4.879643323e-06
-0.000284025396
0.0002831343727
-0.0002830187179
-4.123270056e-06
9.525058615e-06
0.0002822567244
-0.0002807104482
-1.107133479e-05
6.818751106e-06
-0.0002789013737
-4.035309974e-06
0.000293064278
6.379358738e-07
-0.0002896669039
-4.116290308e-06
0.0002929153904
4.370474108e-06
-0.0002931695742
6.79620979e-06
0.0002932216229
-0.0002939553233
-6.062509456e-06
-4.426843434e-06
0.0002900188843
4.224102054e-06
-0.0002898161429
0.0002918533174
-0.0002919163799
-4.053227761e-06
-4.328424164e-06
0.0002913669471
-0.0002910738329
-6.742492908e-06
0.0002938426374
6.634136489e-06
-0.000293734281
6.194933504e-06
0.0002937245133
-0.0002936131224
-6.306324374e-06
0.0002932568372
7.057414867e-06
-0.0002935180423
0.0002935991579
-0.0002934382666
-6.903384201e-06
-5.924610931e-06
0.0002861753621
5.838788716e-06
-0.0002860895399
-6.210082392e-06
0.0002867891493
6.052639522e-06
-0.0002866317064
5.531879174e-06
0.0002883728464
-0.0002882188505
-5.68587499e-06
0.0002857597731
6.818688328e-06
-0.0002857623227
0.0002869558674
-0.0002867457694
-6.420180328e-06
-6.070369939e-06
0.0002860686714
-0.0002859229123
-5.015029755e-06
0.0002889152098
5.029792258e-06
-0.0002889299723
-4.922948022e-06
0.0002894068201
4.77045687e-06
-0.000289254329
0.0002899193763
-0.0002898236112
-4.522608548e-06
0.0002883145562
5.325749434e-06
-0.0002881084265
0.0002883964023
-0.0002882975261
-5.021824237e-06
-5.319598406e-06
0.0002879058281
-0.0002876012595
-6.491492331e-06
0.0003009292361
6.316706037e-06
-0.0003007544498
5.736483583e-06
0.0003018519629
-0.0003016765402
-5.91190629e-06
-7.358731053e-06
0.0003014816472
7.449091787e-06
-0.000301572008
0.0003009120061
-0.0003006746415
-6.728856867e-06
-4.92943957e-06
4.757842407e-06
-0.0003033023025
4.063649292e-06
-0.0003038893073
-4.29888052e-06
0.0003023885338
5.50483534e-06
-0.0003021568856
0.0003033872707
-0.0003032156514
-5.101058952e-06
-5.391296005e-06
0.0002961467685
5.105551104e-06
-0.0002958610236
4.465830108e-06
0.0002970822545
-0.0002968499816
-4.69810294e-06
0.0002940298384
6.023619037e-06
-0.0002938585239
0.0002957806787
-0.000295550759
-5.621215661e-06
-3.493717435e-06
0.000299884667
3.570138909e-06
-0.0002999610885
0.0003019167568
-0.0003030077843
-6.267703619e-06
0.0002974531139
4.233005967e-06
-0.0002972202898
0.0002989061768
-0.0002986887058
-3.711188381e-06
-0.0003120060593
2.538673173e-06
-3.123396506e-06
0.0003125907826
-0.0003100700085
0.0003103715521
3.753374628e-06
0.0003110896032
3.124473841e-06
-0.0003108902076
-3.745002686e-06
3.760667477e-06
-0.0003100856733
3.016976575e-06
-3.364125462e-06
-0.0003116589104
-4.403085369e-06
4.369192871e-06
-0.0003094505897
-4.191583384e-06
-0.000308854848
0.0003132096589
-1.415533775e-06
-0.0003087771485
0.000313904025
-0.0003144772637
-4.487356947e-06
-8.173699554e-05
0.0003165576787
-0.0002612820266
0.0003138062977
1.942034398e-06
-0.0003085364541
6.956011804e-06
-6.865358023e-06
0.0003084458003
-0.0003092819413
0.0003083437571
4.074830771e-06
0.0003067891498
3.689353306e-06
-0.0003070663944
-2.455513622e-06
2.557712438e-06
-0.0003093841402
8.070594481e-06
-2.62877287e-05
-0.0002903193199
3.821825702e-06
-0.000304430998
-0.0003065004878
-3.045239267e-06
-4.771527626e-06
4.678479528e-06
-0.00030820114
-4.494678682e-06
-0.000309138752
0.0003075830382
5.269788674e-06
-0.0003047822324
0.0003079842153
-4.866452242e-06
-0.0003078892907
0.0003087452206
-0.0003086079696
-4.410799952e-06
-6.100283608e-06
0.0003082201124
0.0003078870817
6.651968277e-06
3.288621575e-06
-3.389326631e-06
0.0003165668163
-0.0003164661113
0.0003155098892
3.707276988e-06
-0.0003153518341
0.0003164030722
3.622829504e-06
-0.0003161182851
0.0003182398215
-0.0003184617598
-2.203084868e-06
-2.195330013e-06
0.0003174999104
-0.0003125886284
0.000316706929
3.302965259e-06
-0.0003167212727
-5.99059592e-06
-0.0002980805326
0.0005959051575
5.986401213e-06
-1.901596126e-06
0.0005959070985
1.901606163e-06
-0.0005959071085
1.902409023e-06
0.0005999902929
-0.0005999905601
-1.902141823e-06
0.0005898680926
-1.956256e-06
1.956520037e-06
-0.0005898683567
0.0005946575411
-0.000594602485
-1.95665216e-06
-0.0002971410843
-5.996162218e-06
0.0005946000321
0.0006016883011
1.902675499e-06
-0.0006016885676
0.0006046005599
-0.0006046005529
-1.902799269e-06
-0.0003019159049
-6.133389348e-06
0.0006045390726
3.97061497e-06
0.0003013606555
-0.0003013600509
-3.971219536e-06
6.453691708e-06
-6.679783719e-06
0.0003011380981
-6.720565724e-06
0.0003012346189
6.967594028e-06
-5.944811692e-06
0.0003011410028
-3.759896462e-06
0.0002995863952
4.058168253e-06
-3.474319691e-06
0.0002991386968
3.544861028e-06
-0.0002992092381
0.0002837671138
5.396105859e-06
-0.0002837538236
2.741476905e-05
0.0002872538606
-0.0002373897085
2.896152641e-05
-0.0003938809612
0.0002810729488
-5.806949084e-06
-0.000280359992
0.000281739194
-6.77612762e-06
6.062025929e-06
-6.724151687e-06
0.0002824013197
5.457178333e-06
0.0002837197573
0.0002890761131
-7.737052038e-05
-0.0002380052147
8.2688503e-06
-7.187054074e-06
0.0002879943169
8.248558765e-06
0.0002864971872
4.965730082e-06
0.0002849532373
-0.0002842129546
4.539676524e-06
0.0002846390082
4.713821508e-06
-4.424158038e-06
0.0002845984917
4.886423027e-06
-0.0002850607567
0.0002847322502
-0.0002846404403
-4.903990843e-06
-8.754488246e-06
0.0002832396448
-0.0002911947871
9.222057119e-06
0.0002865045697
-1.669111927e-06
7.810589239e-05
-0.0003676315676
-0.0002846529284
-3.498093867e-06
8.346742522e-07
-0.0002579864132
0.0002808759765
-4.615379206e-06
-0.000275425923
-4.754914784e-06
0.0002828452053
0.0003700590194
2.609907981e-05
-0.0003961580992
7.811440617e-05
-3.689930496e-06
0.0002956345437
2.590890169e-05
0.0002948977773
-0.0002426922728
4.752236414e-06
-4.917941932e-06
0.0002897049705
-0.0002896382438
4.578812225e-06
0.000289811668
4.824096666e-06
-0.0002894411954
5.597489137e-06
-5.624813608e-06
0.0002937484231
-0.0002937210987
5.628782957e-06
0.0002935598706
-0.0002935911644
8.542426661e-06
0.0002936793954
-0.0002763129204
6.018336123e-06
0.0002930590339
-0.0002905349433
0.0002872827076
-5.479992436e-06
-0.0002873983919
6.34969192e-06
-6.525895117e-06
0.0002874589108
6.129485954e-06
0.0002879951811
7.936590632e-06
0.0002856297553
-0.0002853544541
7.513783511e-06
0.0002857772612
5.965741678e-06
-0.0002848926687
0.0002896141773
-5.269288979e-06
-0.0002895341747
5.080134527e-06
-5.241135375e-06
0.0002897751781
0.0002896053161
6.017778987e-06
0.0002879403122
-0.0002876649011
5.854249226e-06
0.0002878284308
5.508143843e-06
-0.000287636291
5.590120491e-06
-5.821506997e-06
0.0003020833494
0.0003011574366
6.22549122e-06
0.0003015192327
3.842271143e-06
-0.0003013908889
0.0003039216897
-0.0003038552706
-3.609079739e-06
-4.95384746e-06
0.0003036165924
0.0003025637904
5.414863929e-06
4.216085749e-06
-4.430454873e-06
0.0002972966236
-4.961626638e-06
0.0002963050231
4.803371984e-06
-3.555230705e-06
0.0002965171727
3.549445985e-06
-0.000296511388
4.825002049e-06
-4.915762585e-06
0.0002963077906
-0.0002962170301
4.677616633e-06
0.0002966737067
-0.0002965263213
5.14870224e-06
0.0002936304092
-0.0002931503285
5.222090804e-06
0.0002944295151
-0.0002945029036
2.805055506e-05
0.0003802541264
-0.0004083046815
4.639782096e-06
0.0002969310204
-0.0002968931859
0.0002973029454
4.486505432e-06
-0.0002971496688
0.0002987662997
-0.0002988258701
-3.414749232e-06
-3.759973536e-06
0.0002989062538
0.0002976113862
4.057813492e-06
0.0003093533301
-0.0003091211664
-4.585101141e-06
4.091149886e-06
0.0003096454982
-4.383318055e-06
3.795235977e-06
0.0003098953619
0.0003135702313
-4.919424822e-06
-0.000313321466
5.950563552e-06
-6.328376207e-06
0.0003139480439
5.699507108e-06
0.0003138708738
6.700623695e-06
-6.678803916e-06
0.0003145813234
-0.0003137622077
0.0003141344552
-0.000310968192
4.210739359e-06
-7.226487666e-06
0.0003197809544
-0.0003167652061
0.0003194726485
-0.0003192193766
0.0003147677488
-4.066111586e-06
-0.0003146672672
4.721286193e-06
-5.085369249e-06
0.0003151318318
4.416282541e-06
0.0003154433323
5.391531044e-06
0.0003139895596
-0.0003142814826
0.0003145876444
-0.000314180032
2.617020349e-05
-8.228833159e-05
0.0003231508016
-0.0002670326735
0.0003209105063
-0.0003019667904
7.426794181e-07
-7.753128102e-07
0.0003217548215
-0.0004055965843
0.0003240509321
-0.0004378861468
0.0002830018015
-0.0002818495461
0.0003652665561
-0.000392191052
-1.018597972e-06
0.0002939240235
2.762456624e-06
-3.200269413e-06
0.0002904277052
2.72581395e-05
-7.708424408e-05
0.0002896167024
3.127338469e-06
0.000282773804
-0.000258643003
-4.119741896e-06
0.0002890497421
-0.0003759573138
0.0002947533278
0.0002832757813
-0.0002657335981
0.0002807653693
-0.0002803237491
5.139431134e-06
-4.072513971e-06
0.0002876332432
-0.0002910525682
0.0002890049452
0.0002838074881
4.133543349e-06
0.0002842136212
0.000285353308
-2.865132173e-05
1.002987315e-05
-0.0002620889996
0.0002867523434
-0.0002372977727
0.0002849030657
-3.08359428e-05
-0.0002506896471
-0.0003984675104
-0.000279678956
0.0002817427923
-5.676602308e-06
-0.0002786177329
-0.0002745481028
3.570846435e-06
-3.874402326e-06
0.0002933678339
-0.0002950377419
0.0002949186578
-0.0002683007262
0.0002900688779
-0.0002895732054
4.218959407e-06
0.0002904287307
0.0002917115042
5.654644307e-06
-5.686938786e-06
0.0002935135704
-0.000293481276
0.000293767562
-0.0002937377313
5.782719836e-06
0.0002929838914
-0.0002927482751
0.0002932650097
-0.0002931692287
6.70156207e-06
-6.875353989e-06
0.000286349154
-0.0002864868085
0.0002866624754
-0.0002861280122
0.0002860168199
-0.0002861214482
7.267870898e-06
0.0002862627326
0.0002864611883
5.29767457e-06
-5.414051945e-06
0.0002890315872
-0.0002896695449
0.0002897260841
-0.0002899090416
0.0002875482822
-0.0002873597367
5.636734598e-06
0.0002877657968
0.0002881285108
-0.000300893065
6.19958217e-06
0.0003010101889
-5.241286953e-06
5.152027738e-06
-0.0003008038058
-5.388790285e-06
-0.0003006069465
-5.002496009e-06
4.854060157e-06
-0.0003015281044
0.0003010857797
-0.000300936248
0.0003013734556
-0.0003007357093
7.034238969e-06
0.0003011505621
-8.42266798e-06
5.615443258e-06
-0.0002979284846
-2.625851824e-05
-0.0002837361577
-5.544384552e-06
-0.0003005190472
0.0003007808067
-0.000300709748
0.0003010861888
-0.000303387142
4.529339266e-06
0.0003036156452
-4.571477531e-06
4.539655891e-06
-0.0003033553204
-4.604154185e-06
-0.0003032696259
-4.336435061e-06
4.12776489e-06
-0.0003036806371
0.0003034689803
-0.0003032657594
0.000303699439
-0.0003026956164
5.329613777e-06
0.000302870838
-4.76209962e-06
4.781353967e-06
-0.0003027148708
-0.0003020649251
-4.74941416e-06
-0.0003030703914
0.0003030702513
-0.0003030383114
0.0003032988061
4.950773777e-06
0.0002957417028
-5.096768363e-06
-0.0002955957082
0.000295997597
-0.0002959625858
-0.000296227056
4.874512779e-06
0.0002964580943
-5.424152292e-06
5.194693308e-06
-5.543473051e-06
-4.964384044e-06
4.78810912e-06
0.0002965380999
0.0002967145097
5.132931153e-06
0.0002950132048
-0.0002949240452
0.000295321354
-0.0002952851912
-2.695996555e-07
0.0002993719185
-3.855300824e-06
-0.000295247018
0.0003021448313
-0.0002743638759
-0.0003020986058
4.565796162e-06
0.0003011029486
-2.891294369e-06
2.937519837e-06
-3.480464403e-06
-7.950055635e-05
-0.0002497657462
0.0003036910899
0.0003019891824
-0.000297488377
3.999297561e-06
0.0002977220854
-4.498839769e-06
4.313408215e-06
-3.942599501e-06
-0.0002982265707
0.0002979463871
-0.0002975755783
0.0002982344962
4.25759147e-06
-0.0002973466644
-0.0002978242801
0.000311729512
-3.446041065e-06
-0.0003114068674
2.899767904e-06
-3.197537298e-06
0.0003120272813
2.674130741e-06
0.0003128164198
3.496925033e-06
0.0003106698631
-0.0003111548367
0.0003114542244
-0.0003108475031
3.657362674e-06
-0.0003107441983
-0.0003111136302
4.451901079e-06
0.0003094488771
-0.0003095315853
-0.0003088608487
-3.035390221e-05
0.0003160917175
-0.0002871533491
0.0003972888333
-0.0004276427355
0.0003175318411
-1.980003332e-06
5.539280411e-06
-3.672416177e-06
0.0003156649768
0.0003154181552
2.686012827e-06
0.0003137944156
-0.0003160537486
0.0003150673453
-0.0003890874572
8.07143188e-05
0.0003109308508
2.909681942e-05
-0.0004181842766
7.959146466e-07
-0.0002810832354
0.0003101370277
-0.0002557104376
-0.0003049297348
3.563601004e-06
0.0003051879595
-4.085502759e-06
3.856032191e-06
-0.0003047002642
-0.0003043887359
-3.511829831e-06
-0.0003021927433
0.0003053563836
-0.0003050121812
0.0003058747453
4.586367564e-06
0.0003086633759
-0.0003085712639
0.0003089760345
-0.0003088843456
5.083469158e-06
0.0003075092049
-0.0003073228854
0.000307737165
-0.0003075201481
0.0003161344411
-3.548687106e-06
-0.0003159750807
3.501728372e-06
-3.80704518e-06
0.0003164397579
3.254435238e-06
0.0003168141095
4.111728446e-06
0.0003158144433
-0.0003158220473
0.0003161267305
-0.0003156634574
0.0003160268126
-3.244992758e-06
-0.0003149771499
1.618198676e-06
-2.501637734e-06
0.0003169102517
0.0003183427963
2.88464869e-06
0.0003170767156
-0.0003165591502
0.0003169421612
-0.0003165011777
0
0
0
0
0
0
0
0
0
0
0
0
0
0
0
0
0
0
0
-1.004188989e-07
0
-2.309251046e-05
-3.397442072e-06
3.979701016e-07
1.059274449e-05
0
0
0
-3.935626225e-05
1.161406188e-06
-9.367217065e-05
-7.083569152e-06
3.005562268e-06
7.619518365e-05
0
0
0
-0.0001087202472
2.954057861e-06
0
0
0
0
0
0
0
0
0
-3.698624059e-06
0
-9.804492745e-05
-1.77610229e-05
8.247518718e-06
5.271828399e-05
0
-1.905618725e-07
-0.000153253406
1.444960304e-05
-0.0003491580462
-4.4300989e-05
3.048373992e-05
0.0002815988095
4.315531794e-05
-9.563814585e-06
-0.0004155145915
3.267461997e-05
-0.0005861321191
-3.159314388e-05
2.53128004e-05
0.0005358737549
0.0001552980702
-1.249824558e-05
-0.0006276484204
1.941455713e-05
0
0
0
-7.944486233e-05
-1.605456135e-05
7.974291076e-06
2.87122731e-05
0
-5.36921682e-07
-0.0001519163966
1.904438264e-05
-0.000460502083
-8.474680408e-05
6.482891872e-05
0.0003465351873
0.0001052520232
-3.068305787e-05
-0.0005801079281
7.807058394e-05
-0.0009354864546
-0.0001060941413
9.110811421e-05
0.0008210380024
0.0003994388681
-5.951115725e-05
-0.001042062287
8.559997782e-05
-0.001293931511
-4.609387612e-05
4.451648306e-05
0.001222784649
0.0006979514947
-3.71357015e-05
-0.001351092006
2.662364872e-05
5.518038783e-06
-4.123734667e-05
3.662635263e-06
-0.000326936391
-7.060763443e-05
5.560332323e-05
0.0002058387129
6.31705797e-05
-2.890379671e-05
-0.0004682338685
8.248751078e-05
-0.0009746295486
-0.0001805107867
0.0001660679262
0.0008022083385
0.0004462123588
-0.0001058544591
-0.00114217479
0.0001664801321
-0.00154882398
-0.0001573746684
0.0001417305685
0.001422370648
0.0009717361698
-0.0001196638427
-0.001657807769
0.0001223742767
-0.001878546882
-4.312187008e-05
4.379134863e-05
0.001823229015
0.00139305136
-4.631854399e-05
-0.0019182076
1.656635409e-05
5.897169627e-05
-0.0001448260869
2.215243339e-05
-0.0005948676429
-0.0001260243421
0.0001162403116
0.0004212976212
0.0002611824406
-8.630978779e-05
-0.0007871473535
0.0001509981722
-0.001375317456
-0.000225379279
0.0002134894278
0.001183521712
0.0008947567
-0.0001871308068
-0.001554860374
0.0002135002438
-0.001992643694
-0.0001681846498
0.0001844638803
0.001864604221
0.00158267373
-0.0001832796956
-0.00208153623
0.0001566179631
-0.0021291505
-8.222667513e-05
5.935306097e-05
0.002150792855
0.001932952819
-4.625131113e-05
-0.002110051168
2.448038157e-05
0.0001247925918
-0.000247559424
4.484374872e-05
-0.0007967789382
-0.0001642572321
0.0001584325639
0.0005907077003
0.0004649591052
-0.0001389524118
-0.001014822873
0.0001948398521
-0.00165342583
-0.0002474364067
0.0002443642473
0.001451541008
0.00126466276
-0.0002397022865
-0.001836409392
0.000239447425
-0.002192936789
-0.0001439858676
0.0001473217093
0.00211687616
0.001932138273
-0.0001549489132
-0.002224942839
0.0001104564522
1.44269215e-05
0.001125470373