/*--------------------------------*- C++ -*----------------------------------*\
| =========                 |                                                 |
| \\      /  F ield         | OpenFOAM: The Open Source CFD Toolbox           |
|  \\    /   O peration     | Version:  v2012                                 |
|   \\  /    A nd           | Website:  www.openfoam.com                      |
|    \\/     M anipulation  |                                                 |
\*---------------------------------------------------------------------------*/
FoamFile
{
    version     2.0;
    format      ascii;
    class       volScalarField;
    location    "2.78";
    object      omega;
}
// * * * * * * * * * * * * * * * * * * * * * * * * * * * * * * * * * * * * * //

dimensions      [0 0 -1 0 0 0 0];


internalField   nonuniform List<scalar> 
3019
(
767.8814602
143.6506165
70.33716902
46.42448013
37.42394074
33.74527383
31.91609355
31.2018578
30.77138363
30.60372446
30.51435335
30.46887827
477.2011502
133.867274
68.96625664
46.27421781
37.53822781
33.85561935
31.94667641
31.18081347
30.7122555
30.52929584
30.42950757
30.3788092
342.1813601
124.1893842
66.43585957
45.69106487
37.45313947
33.88785968
31.94196458
31.15003665
30.65364921
30.45790819
30.34798023
30.29281582
292.1728217
113.9468219
63.33601403
44.80801021
37.25142612
33.84616621
31.91141875
31.10743983
30.58960229
30.3841042
30.26698397
30.20781121
236.3693819
102.3807654
59.85929835
43.84474706
37.04715885
33.76661628
31.85746224
31.05345121
30.52157298
30.3091126
30.18526135
30.12259044
192.6857295
92.16134731
56.95941076
43.13692752
36.84795401
33.66068949
31.78288576
30.98448722
30.44399091
30.22656336
30.09894915
30.0335239
168.2526929
86.184896
55.49443063
42.71451186
36.64131038
33.53702227
31.69424555
30.90425298
30.36000441
30.13984088
30.00947132
29.94238189
159.3360883
84.29460377
54.72716253
42.34232362
36.43921803
33.40445284
31.59562803
30.81440244
30.26734621
30.04511486
29.91296753
29.84488301
153.2471589
82.79183075
54.17718197
42.02399683
36.24785087
33.26877016
31.48995515
30.71666385
30.16980494
29.94716391
29.81410496
29.74548569
148.162876
81.51496251
53.78656152
41.76653998
36.07157502
33.13389483
31.37954033
30.61275222
30.06469181
29.8412838
29.70773097
29.63907905
143.814924
80.41413067
53.49182341
41.57056343
35.9142465
33.00280465
31.26650593
30.50424224
29.95755641
29.73481401
29.60129277
29.532854
140.0351206
79.46113366
53.25865516
41.42573731
35.77766561
32.87771006
31.15267044
30.39261821
29.84403515
29.62064803
29.48712317
29.41915766
136.7151992
78.63389173
53.07018465
41.31856174
35.66087941
32.75986798
31.03940086
30.2790826
29.73179773
29.50940664
29.37625263
29.30882371
133.7626944
77.90891849
52.91573829
41.2382694
35.56130718
32.64958486
30.92759555
30.1646816
29.61324966
29.38957573
29.25641728
29.1896006
131.0994603
77.26411637
52.78699089
41.17731112
35.47605502
32.54659612
30.81782551
30.05012672
29.49970465
29.27706099
29.14427717
29.07803847
128.6589492
76.67892708
52.67631957
41.13019095
35.40251132
32.45038076
30.71041733
29.93609256
29.37803245
29.15302525
29.01999594
28.95429927
126.3823586
76.13393982
52.57674108
41.09283058
35.3385615
32.36038515
30.60556551
29.82287486
29.26634744
29.04239449
28.9095915
28.84436567
124.2208577
75.61320797
52.4828625
41.0623247
35.28253918
32.27606941
30.50336334
29.71095865
29.14179449
28.91418266
28.78081668
28.71597652
122.1446267
75.10669048
52.39128545
41.03661553
35.23308039
32.19691003
30.40384119
29.60032387
29.03523882
28.80875119
28.67536924
28.61083661
120.1414239
74.60842349
52.29957142
41.01403659
35.18899537
32.12236562
30.3069802
29.4914711
28.9061009
28.67475009
28.5405201
28.47619712
118.1971484
74.11218651
52.20540719
40.99318456
35.14924646
32.05189043
30.21277717
29.38412751
28.80919797
28.5787295
28.44416532
28.3799759
116.2916883
73.612808
52.1075467
40.97318799
35.11299697
31.98501563
30.12138092
29.27924842
28.67085476
28.43526846
28.29964179
28.23549084
114.4231936
73.1115886
52.00669448
40.95368679
35.07953586
31.92123938
30.03335458
29.17682442
28.59117607
28.35451791
28.21821446
28.1540146
112.6190874
72.61880634
51.90511833
40.93444728
35.04827469
31.86022427
29.95037219
29.08006028
28.41401174
28.17106356
28.03296195
27.96853522
938.2663164
802.0474833
174.1803519
588.2591535
919.5058232
498.1362645
169.4636185
172.2651447
448.0213806
579.4989831
329.7837036
674.1671526
692.5118106
608.5060297
291.5822402
318.280286
1309.550594
811.913816
1439.862531
1100.292616
576.2424091
773.2150991
357.4900751
155.1314444
165.947014
503.6617305
554.3001327
1033.567409
267.1853552
282.9638542
592.2302088
538.1293482
6126.240862
2170.407221
1223.301694
624.3369218
4731.742478
3407.450641
1103.99724
4877.24516
5982.420646
3370.602325
4640.643413
6347.624022
2136.409979
3006.820879
1454.962989
1891.131475
5705.744209
6320.593279
1914.409881
6067.055695
5268.216555
157.8991598
82.24918071
1056.000192
3077.79862
2174.901126
4456.478484
2787.426907
1416.756739
822.3546127
6128.974824
6459.245459
6594.377165
5480.401487
6296.417454
1138.76038
1342.50835
5849.848055
5344.061348
5921.599381
5474.902079
6228.164309
6181.811166
6044.801636
3801.183627
5357.40351
4897.733305
5997.516745
6201.804619
4218.268545
4512.371131
4954.44577
6254.85646
5127.777457
3732.866276
4056.408158
5882.61169
4490.432126
4746.690383
3617.752082
4075.98244
6058.031887
70.621314
50.30489705
46.34925967
38.91271549
37.37152708
34.34500857
683.1058137
451.956572
487.022289
136.6639095
79.87182574
81.8243008
69.20702396
50.14916842
50.32038527
46.35833628
39.06475774
38.96985662
37.53862949
34.49639553
34.39312749
433.9035273
238.6473018
261.3218268
126.5480585
76.79236408
79.40244671
67.10026993
49.43133628
49.99752732
45.86854052
38.95624645
39.05136197
37.4932813
34.55016318
34.51809347
468.623698
533.88439
305.593855
141.9484021
151.9531979
116.6782536
72.75774048
75.88523119
64.18256595
48.29293144
49.18266106
45.04569836
38.67718345
38.89962972
37.30692357
34.51198163
34.5460413
360.2597934
443.0893499
249.8705696
126.7040535
138.3118343
105.2787752
68.03869976
71.60863573
60.71345179
46.94588143
47.97154871
44.0772379
38.35185672
38.59383605
37.09443419
34.42450662
34.49210778
266.8584702
333.7125765
201.800284
111.834787
122.7769735
94.41162755
63.7098983
66.86821811
57.57891737
45.78631651
46.6186711
43.26893531
38.09493456
38.28079176
36.89912034
34.30924218
34.39807192
214.361377
249.9147293
172.5653106
101.5914038
108.685413
87.20255917
61.02002133
62.83957754
55.72317698
45.16640386
45.58067872
42.81539509
37.85053607
38.0335766
36.69288387
34.17424897
34.27670687
196.5786443
207.3973012
161.0557268
97.76203529
100.0390658
84.71409252
60.00451997
60.72258581
54.89759499
44.70399373
45.04414284
42.43056654
37.61543171
37.7905549
36.48892243
34.03065701
34.13882002
187.705158
194.1902311
154.6630175
95.45585679
97.14459582
83.14391031
59.30066506
59.80458609
54.29680679
44.31686794
44.59986523
42.09813901
37.39639501
37.5590024
36.29444484
33.8849975
33.99426668
180.3249199
185.7415345
149.3563252
93.52313491
94.94210247
81.81619331
58.78723874
59.15872932
53.87325781
44.01284968
44.23293334
41.82495369
37.1980715
37.34470166
36.113999
33.74138501
33.84878445
174.002925
178.6599716
144.8440158
91.87146674
93.08702191
80.67465885
58.38155325
58.67783337
53.55883349
43.78885297
43.94990038
41.61423361
37.02501928
37.15231244
35.95165486
33.6031465
33.7062224
168.4692943
172.5535358
140.9332705
90.4437756
91.49534703
79.686731
58.04769701
58.29222793
53.31226294
43.62761292
43.74350616
41.45791606
36.87918512
36.98604317
35.80987859
33.47286572
33.56976574
163.5785614
167.1921157
137.5075547
89.20403877
90.11782377
78.83023001
57.76974623
57.97354628
53.11376263
43.51017701
43.59481821
41.34248201
36.7586431
36.84683623
35.68835006
33.35198235
33.44174843
159.216818
162.4438357
134.4710811
88.11784919
88.91968547
78.08185847
57.53621741
57.7077072
52.95164506
43.42298573
43.4859897
41.25628195
36.65936442
36.73201754
35.584748
33.24071157
33.3232859
155.2810252
158.1976876
131.7420597
87.15335515
87.86673167
77.41896282
57.33712379
57.483681
52.81720087
43.35723482
43.40485216
41.19106963
36.57716572
36.63738379
35.49617803
33.13851879
33.2143522
151.6835211
154.3542696
129.2517089
86.28152262
86.92805805
76.82078453
57.16307372
57.29172139
52.70270611
43.30666873
43.34341811
41.14092365
36.50844973
36.55886395
35.41992742
33.04456154
33.11430065
148.3454698
150.8287744
126.9390301
85.47479317
86.0749775
76.26740844
57.00502577
57.12248046
52.60093716
43.26648931
43.29584723
41.10143706
36.4503731
36.49304355
35.35374936
32.95797702
33.02226249
145.1986733
147.5448439
124.7522504
84.70956723
85.28059783
75.74179797
56.8554934
56.96716947
52.50602116
43.23317394
43.25766547
41.06943536
36.40078755
36.43726956
35.29588186
32.87798801
32.93739871
142.1964504
144.4379941
122.6558135
83.97006285
84.52291869
75.23235257
56.70961818
56.81890117
52.41410852
43.20430476
43.22565408
41.04269191
36.35802721
36.3895329
35.24489907
32.80387327
32.85894393
139.3199789
141.4697086
120.6342599
83.24780487
83.78837672
74.73253523
56.56436572
56.67343682
52.32265386
43.17804824
43.19759941
41.01947569
36.32070307
36.34825455
35.19957511
32.73493514
32.78618753
136.5530758
138.6257374
118.6747009
82.53531001
83.0694067
74.23632634
56.41687712
56.52789503
52.22928445
43.15279768
43.17173273
40.99829865
36.28761649
36.31209372
35.15882821
32.67049075
32.71843502
133.8631273
135.88812
116.754524
81.82420396
82.35823391
73.73758474
56.26498349
56.37944295
52.13234317
43.12748194
43.14653446
40.97813528
36.25782545
36.27990873
35.12177354
32.60994649
32.65501838
131.2280438
133.2274069
114.8588243
81.11106108
81.64771127
73.23446047
56.10879859
56.22641941
52.03195396
43.10179497
43.12113365
40.95852375
36.23060232
36.25082369
35.08767598
32.55272694
32.59535809
128.6527101
130.6389056
112.9905304
80.39752235
80.93899911
72.7286922
55.94946672
56.06983046
51.92892248
43.07557025
43.09538068
40.93906893
36.20520675
36.22414395
35.05577851
32.49821205
32.53888288
126.0002971
128.1554397
111.0501841
79.64347929
80.24562927
72.1913143
55.77708368
55.91323223
51.81651796
43.04633909
43.06937041
40.91767611
36.17922895
36.19927235
35.02334371
32.44254597
32.48519931
979.1908259
1159.954287
1107.447764
681.4180157
707.0150105
846.1054611
180.73981
294.9257433
268.8418109
616.2005589
1076.519923
1933.745674
1420.616394
902.1052154
392.7012702
407.5539278
543.7521465
164.9396413
237.7993728
228.1740368
260.9689675
243.468308
166.2451678
519.4260037
583.8133272
341.8397203
471.3273853
436.9380205
487.4626122
326.3070173
1705.416516
1223.476773
790.8772028
761.2912663
654.2130429
716.2387454
871.0445337
826.0238669
406.2484606
443.0340616
660.0325627
298.6709937
365.5651065
355.1085423
420.7894829
381.085626
308.8072388
1936.313474
1719.692722
1231.297954
3187.415176
3429.321836
4907.426076
847.4832407
1318.291369
1134.246068
1559.555575
2531.924853
2228.030852
805.2289173
848.2199167
1312.645446
596.6224583
704.9037583
678.100298
736.4088605
621.2319429
976.3925826
909.3109511
743.3053339
2646.993016
2880.172625
1097.301421
1101.607114
250.7525571
259.859383
414.1637821
158.454305
196.6606848
191.6739921
222.2074831
202.2944752
162.0698243
517.8521905
605.5813266
585.923512
651.4827581
628.5173974
537.2592971
895.5577329
737.5935087
770.4432885
270.4362697
326.0660946
320.119361
343.079927
335.2250829
278.102433
559.5630094
413.6935662
431.955411
559.0067229
775.423304
744.5148142
2478.018276
4052.40641
3599.354966
966.3508014
1006.006743
874.3191553
901.7990119
1291.2109
642.1046549
732.5661038
716.1356038
4277.268337
2798.573432
3185.511898
2165.144172
2453.68169
3786.027209
1155.000328
1547.646874
1416.625824
2377.070793
3525.687847
3187.086762
4379.029363
3948.704859
2686.523857
1559.439577
2383.125282
2171.755298
2871.945582
2611.636984
1737.183572
3181.425156
2866.196401
1729.843939
117.9933329
119.2322498
159.7936998
82.70285467
97.84415391
97.06281033
1317.60808
1234.485092
1010.404616
2789.380717
1736.305657
1927.471654
1438.430298
1558.356113
2462.845363
1090.465047
1141.570527
1550.083228
862.8519675
950.6932772
946.5372159
1002.909035
878.0478315
2205.89648
2380.012237
1200.354011
1622.025948
1488.66989
1961.530805
1773.938339
1281.999313
33.70759469
32.49291217
31.88985042
31.48457874
31.21191546
31.02362296
735.531335
635.3022313
656.4670392
141.3614518
114.7869097
116.08651
70.01820505
61.67297984
61.79091219
46.40518528
43.36610023
43.35719125
37.49668463
36.24259125
36.19113953
33.83799583
32.57859681
32.54304296
31.93235997
31.494052
31.49147386
31.19525885
30.98670474
31.00725671
462.5885002
367.0258553
379.3013688
131.2636945
108.4319033
110.1271268
68.28919309
60.5549131
60.9511843
46.19446929
43.22696411
43.31329765
37.53513334
36.31500842
36.31606811
33.88823199
32.6119417
32.60109041
31.94643371
31.48686893
31.49231046
31.17070548
30.94570238
30.96801504
329.8791278
236.6444126
243.0361642
121.7848587
101.6549963
103.4337509
65.74280403
58.69218055
59.21106523
45.49221857
42.7698756
42.91054564
37.40992284
36.25475503
36.28092783
33.86089106
32.60026814
32.60887916
31.93303021
31.46122805
31.47564374
31.13435544
30.89897972
30.92374455
278.1634869
208.369448
216.0378511
111.1110279
93.73086623
95.8295851
62.46689716
56.30399245
56.94453677
44.56937318
42.10696781
42.27750427
37.19555665
36.11962815
36.15535184
33.78984757
32.54985473
32.57877664
31.88793267
31.4180338
31.43935451
31.08662985
30.84418776
30.87288036
223.7309831
176.9913631
184.5905995
99.56757848
85.22562617
87.29516899
59.04212323
53.79832011
54.39252771
43.62881796
41.45258081
41.60119109
36.99903885
35.9732168
36.0125089
33.6898201
32.47757848
32.51665618
31.82226602
31.35594221
31.38842942
31.02327343
30.77913446
30.81329429
184.777467
151.6418832
157.0371103
90.19574244
78.37060067
79.80854397
56.4395632
51.9464058
52.31178606
43.02610778
41.0333575
41.12294194
36.79638922
35.80288715
35.84683416
33.56935968
32.3856096
32.43358863
31.74005661
31.27943395
31.31887439
30.9478964
30.70339401
30.74247936
164.8839082
137.6121581
139.9310742
85.62061153
75.1643931
75.56180762
55.28139698
51.11172997
51.28651432
42.61674171
40.69359205
40.77550807
36.59006551
35.62388531
35.66879514
33.43822544
32.28080658
32.33445564
31.64598982
31.19125539
31.23631117
30.86211589
30.61841804
30.66199771
157.7023453
132.389741
133.5855856
83.89424328
73.8868951
74.17600503
54.57078146
50.50971901
50.64513768
42.25745151
40.3880059
40.46096287
36.39020155
35.44629035
35.49021438
33.30283225
32.16821161
32.22523484
31.54353348
31.09403209
31.14338503
30.76767996
30.52509047
30.57275197
151.8944578
128.1438408
129.1324752
82.45392857
72.86878214
73.10564663
54.06755747
50.06646152
50.16334822
41.95371439
40.12135254
40.18402409
36.20220572
35.27562101
35.31742003
33.16741945
32.05133267
32.11013
31.4352056
30.9901293
31.04261102
30.66630416
30.42488037
30.47581687
147.0158146
124.5840842
125.4206257
81.22478839
72.01274997
72.21436897
53.70574246
49.75323411
49.82189698
41.71205735
39.89983681
39.95073517
36.03035604
35.11584489
35.15457136
33.03513393
31.93282039
31.99213718
31.32323066
30.88159953
30.93621065
30.55964535
30.31894639
30.37265012
142.8219064
121.5346553
122.2555811
80.1630073
71.27797476
71.45143207
53.42864294
49.52589819
49.57664302
41.53012538
39.72526937
39.76473849
35.87816016
34.97024903
35.00519091
32.90837308
31.81484927
31.8736495
31.20959307
30.77016438
30.82606366
30.44921524
30.20898012
30.26451643
139.1664023
118.8920891
119.5187895
79.24357788
70.64577044
70.79504083
53.20787376
49.35374765
49.39270393
41.39591737
39.59155776
39.62165905
35.74670732
34.84050513
34.87144398
32.78864934
31.69907897
31.7566117
31.09589981
30.65726459
30.71376159
30.33636153
30.09584754
30.15291379
135.9464466
116.5801256
117.1309392
78.44410872
70.09994472
70.2292278
53.02878056
49.21965413
49.25023938
41.2963287
39.48946604
39.51250384
35.6344959
34.72626825
34.75345036
32.67647728
31.5865248
31.64236108
30.98327334
30.54400025
30.60058004
30.22218361
29.98114488
30.0388135
133.0729524
114.5293807
115.0209529
77.7411426
69.62345746
69.73695363
52.88149212
49.1133379
49.13774059
41.22147861
39.41086744
39.42868014
35.53876943
34.62593197
34.64981928
32.57170309
31.47768736
31.53162462
30.87243148
30.43118804
30.48746634
30.10755665
29.86507026
29.92343908
130.4713058
112.6805798
113.1266299
77.11314946
69.20033738
69.30194457
52.75796485
49.02736475
49.0473128
41.16443404
39.34961171
39.36357456
35.45667148
34.53754065
34.55862463
32.47384505
31.37274755
31.42472904
30.76380838
30.31939985
30.37511716
29.99314602
29.74920552
29.8072661
128.0768559
110.9832671
111.3958728
76.53973608
68.81521487
68.90873504
52.65067616
48.95530477
48.97233434
41.12008663
39.30108882
39.31222942
35.38570476
34.45924894
34.4779645
32.38234135
31.27171638
31.32174997
30.65765546
30.20904523
30.26401489
29.87943926
29.63288712
29.6912883
125.832896
109.3931875
109.7827931
76.00209809
68.45387387
68.54263227
52.55294361
48.89169683
48.90704952
41.08467106
39.26191708
39.2709794
35.32387814
34.38951744
34.40622171
32.29665372
31.17452212
31.22265551
30.5541082
30.10038288
30.15449273
29.76679772
29.51807604
29.57545701
123.6942286
107.8752954
108.2494307
75.48560428
68.10564122
68.19186643
52.45989216
48.83260254
48.84710742
41.055534
39.22968001
39.23719547
35.26961523
34.32707116
34.34206359
32.21625631
31.08101425
31.12734098
30.45320639
29.99358893
30.04678148
29.65544195
29.40293981
29.46075733
121.6364812
106.410264
106.7724028
74.98166038
67.76436908
67.84925337
52.36850425
48.77547674
48.78968728
41.03075607
39.20257313
39.20895616
35.22160753
34.2708099
34.28435263
32.14061078
30.99100057
31.03564327
30.35491772
29.88872264
29.94101958
29.54554851
29.29050147
29.34660269
119.6482059
104.9879267
105.3409204
74.48448735
67.42573242
67.5104112
52.27637807
48.71823143
48.73266383
41.00872471
39.17907755
39.18468728
35.17869654
34.21972746
34.23206403
32.06916166
30.90424804
30.94739365
30.25910354
29.78577499
29.83732192
29.43710763
29.17702294
29.23429799
117.711297
103.5940047
103.9429985
73.98760915
67.08485159
67.17055981
52.18132662
48.65905366
48.67409211
40.98814276
39.15797119
39.16307403
35.13989385
34.1729398
34.18427669
32.00143322
30.8203973
30.86244901
30.16550603
29.68452766
29.73577212
29.33005918
29.06762102
29.12259053
115.8038874
102.2133194
102.5640974
73.48651924
66.73880579
66.82609106
52.08253974
48.59727052
48.61295324
40.96829084
39.13848271
39.14323225
35.10440547
34.12970441
34.14021878
31.93692418
30.7388048
30.78071487
30.07358362
29.58454025
29.63666182
29.22386397
28.95487643
29.01378047
113.921035
100.8429099
101.2038297
72.98203696
66.38869186
66.4782709
51.98082423
48.53336774
48.54964226
40.94883761
39.12010624
39.12464024
35.07151868
34.08932791
34.09920164
31.87508104
30.65805058
30.70254201
29.98205153
29.48446644
29.54064019
29.11728659
28.84695469
28.90614939
112.0667461
99.48335234
99.8842822
72.47270195
66.03322854
66.1345018
51.87559405
48.4667916
48.48545055
40.92900106
39.10196355
39.10685812
35.04017847
34.05074537
34.06068331
31.81169348
30.57215772
30.62981369
29.88389582
29.37658825
29.44968025
29.00165555
28.72065561
28.8055579
176.0837062
198.9268456
196.228531
602.8953202
688.2622228
675.3768973
1040.343428
1026.729882
869.2156998
193.0756915
190.8476966
170.020702
389.1532325
345.5108679
536.2060178
548.137324
622.5228463
932.509595
971.5469876
1154.328701
1561.316002
1657.679195
1019.704818
866.637538
913.7722773
581.2864571
513.9347861
524.8024977
1348.890884
1435.613341
61.92220736
61.92827716
70.74851935
50.17901945
55.28899161
55.35506011
43.26081729
43.18751775
46.25716444
38.81879577
40.74816751
40.84137105
36.13036614
36.06295577
37.28597065
34.28994134
35.07904891
35.1375735
596.7868258
614.2066587
707.0121345
463.2548716
531.8816895
518.5777589
566.029455
549.2342574
474.8274612
111.9689896
112.9022232
138.2689139
80.70938647
94.4494208
93.58622146
96.21405039
95.3719648
81.18845041
61.19636214
61.46716868
69.71833403
50.25287222
55.13255458
55.00744486
55.33375463
55.27628439
50.28312494
43.35983547
43.37327201
46.41248648
39.04485756
40.96726271
40.97143919
40.9101982
40.96253768
39.03729075
36.29446463
36.27352902
37.50339227
34.4698583
35.27696101
35.29805835
35.19525888
35.23879305
34.43582853
346.2513654
356.9720322
443.1255924
309.3883232
303.9931572
255.2206613
105.1529682
106.7779227
128.8973594
77.6712302
90.22081039
89.04371072
92.55078026
91.37745917
78.50214328
59.68870732
60.12848512
67.71393939
49.65193482
54.25126578
53.94030758
54.75119304
54.59861209
49.92543684
43.03489662
43.17485434
46.03850566
39.0298761
40.87909117
40.77291185
40.94170461
40.89994222
39.03695368
36.30820978
36.31129112
37.52597848
34.54334333
35.33695308
35.3396414
35.32121597
35.33042175
34.5336449
491.7099259
511.7898524
223.3304309
230.1768
318.1628994
145.4236476
178.8265157
174.306667
187.3283801
183.1439071
148.743948
97.85671808
99.79947359
119.2898397
73.8638168
85.12041867
83.66365678
87.83186374
86.50934673
74.91997861
57.56875907
58.150934
64.99606076
48.60864983
52.80761712
52.38663391
53.59271156
53.21497554
48.90608056
42.44980101
42.61452041
45.27533998
38.75837385
40.48105616
40.36364607
40.68806553
40.58991098
38.83307167
36.19025838
36.22430514
37.36073621
34.52640673
35.29622109
35.27503917
35.32816456
35.31433374
34.53954202
387.9146256
415.8665529
192.4704137
200.4524028
263.9256793
130.6425187
159.3721286
154.0885747
169.5437826
164.5525622
134.5312392
89.42738903
91.58688943
108.206381
69.2320434
78.98115758
77.37886269
82.14513497
80.57775932
70.42834871
55.01612582
55.65744647
61.58775921
47.28592551
50.9918612
50.52305403
51.9371398
51.46621866
47.63141714
41.76329567
41.93469173
44.32062471
38.42925399
40.00304131
39.88516711
40.24289507
40.11947763
38.50881838
36.04989649
36.08428299
37.14316126
34.44811214
35.19831949
35.16939714
35.25151207
35.22637634
34.47227041
286.5977525
308.9580749
163.1180866
169.7896899
212.1710905
115.2654101
138.6062397
133.9296127
148.7912881
143.602796
118.9435442
81.44448401
83.26596672
96.89296345
64.68261188
72.82771538
71.48885486
75.80016385
74.2721176
65.74307454
52.74624926
53.24632093
58.27603614
46.03177938
49.24394791
48.89084784
50.06917776
49.63984364
46.3116396
41.21519271
41.32282687
43.43506038
38.15606866
39.59262105
39.51705845
39.77483201
39.67720986
38.21693837
35.89005602
35.93229354
36.94959639
34.34029475
35.07144655
35.03554157
35.13862607
35.1059147
34.37019704
223.8453022
235.5731117
143.0482355
146.9586516
178.1237762
103.5075211
122.4599399
119.7382277
129.6187922
125.8006606
105.9178441
76.22390175
77.17878886
88.51857232
61.48001477
68.38825444
67.6991919
70.29174278
69.24158959
62.09368022
51.47066866
51.67054812
56.01237364
45.29310317
48.16564421
48.00925693
48.5874979
48.34319962
45.42515934
40.85951514
40.94550378
42.91927634
37.91115266
39.29585969
39.22403145
39.44257849
39.36876564
37.97222331
35.71369294
35.75845051
36.74462942
34.20907674
34.92171249
34.88246415
34.99844365
34.960424
34.24337875
199.1081206
202.0388856
134.8440266
136.1705533
162.8682855
98.41106302
115.0606908
114.1387744
117.5336378
116.0447887
99.10149425
74.48313267
74.81129714
85.15441783
60.22345672
66.67041837
66.40848558
67.27249173
66.95651734
60.46239147
50.7907482
50.94637784
55.08232018
44.81284863
47.57968316
47.44951809
47.85969986
47.71646351
44.92624311
40.53625823
40.61382403
42.5220581
37.67289687
39.01619348
38.94979985
39.15339603
39.08408207
37.7312941
35.5345013
35.57909569
36.53923274
34.06694545
34.76303313
34.72302539
34.84285811
34.80298786
34.10304299
189.7630836
191.9204176
130.1671706
131.2516676
156.1458754
95.99323759
111.6166819
110.8498098
113.2590523
112.4189914
96.55538481
73.35341405
73.61333903
83.51096585
59.45444725
65.73858258
65.54542832
66.16771452
65.9452414
59.62174394
50.26914565
50.38446482
54.42760845
44.4061144
47.10062725
46.99880756
47.3261412
47.20976821
44.50048394
40.24943078
40.31746444
42.17599831
37.44940237
38.76014736
38.70036635
38.88494717
38.8216994
37.50362237
35.35983168
35.40281534
36.34191699
33.92137364
34.60371688
34.56437798
34.68311029
34.64329238
33.95779742
182.0572648
183.8596001
126.2910124
127.1978101
150.5984338
93.97699875
108.7389535
108.0920948
110.1159477
109.4128604
94.44934955
72.42388842
72.64182324
82.12889538
58.90324705
65.02882586
64.87344955
65.36374111
65.19190894
59.02664094
49.8965038
49.97777745
53.9665919
44.08093327
46.73630154
46.66233466
46.90425331
46.81681458
44.1542506
40.0046397
40.06153372
41.88734076
37.24544634
38.53245938
38.48063881
38.64242572
38.58641382
37.29434119
35.19414231
35.23451597
36.15756355
33.77691625
34.44853748
34.41081396
34.52538211
34.48672727
33.81271513
175.5026379
177.0527233
123.0032302
123.7789116
145.909864
92.26185973
106.2952278
105.7399277
107.4702174
106.8715841
92.66665535
71.63156151
71.81859678
80.94472385
58.47541325
64.44625193
64.3154856
64.72490416
64.58260814
58.57399845
49.63114838
49.68985025
53.62998737
43.83817215
46.4749917
46.42250604
46.59444
46.53213978
43.8917381
39.80691502
39.85191952
41.66133219
37.06574007
38.33849257
38.29565151
38.43100534
38.38360828
37.10817458
35.04111912
35.07801822
35.99036635
33.63705358
34.30106853
34.26576685
34.37364085
34.33702911
33.67141363
169.7881331
171.1480861
120.167355
120.8389288
141.8612715
90.78183053
104.1899726
103.7095485
105.2045046
104.6880318
91.13208203
70.95000314
71.11090773
79.92053269
58.12544933
63.95370925
63.84273453
64.18993724
64.06937934
58.20686691
49.43422002
49.47853178
53.36884597
43.66316123
46.2884346
46.25034492
46.37418294
46.32960389
43.70168736
39.65387755
39.68836481
41.4926386
36.91314514
38.18027715
38.1459981
38.25503694
38.21659701
36.94874978
34.90337348
34.93630887
35.84336852
33.50459339
34.16419913
34.13186006
34.23117795
34.19730527
33.53689504
164.748002
165.9510475
117.6992226
118.2859356
138.3238479
89.49833125
102.3646168
101.9460423
103.2456946
102.7975436
89.80262696
70.36312506
70.50189744
79.03330516
57.83467635
63.53534314
63.44084732
63.73613118
63.63369732
57.90252593
49.28268665
49.31714204
53.15960751
43.53627888
46.15153947
46.12306673
46.21498874
46.18211315
43.56441966
39.53711614
39.56342631
41.36821538
36.78661822
38.05431008
38.0271525
38.11364
38.08310486
36.81599046
34.78153203
34.81054424
35.71694566
33.38129717
34.0395018
34.01026037
34.10030081
34.06950784
33.41121487
160.2642383
161.3384211
115.5260251
116.0455091
135.1983805
88.37692799
100.7676498
100.3983916
101.5408369
101.1481865
88.64391742
69.85404456
69.97498296
78.26012885
57.59102956
63.17794087
63.09663845
63.34989549
63.26228786
57.64811533
49.16352218
49.1907972
52.98928851
43.44249794
46.04838043
46.02666112
46.09647202
46.07160711
43.46344987
39.44765579
39.46788946
41.27560197
36.68243253
37.95442907
37.93282673
38.0015112
37.97729386
36.70662519
34.67448275
34.69995936
35.60913216
33.26765462
33.92699329
33.90067013
33.98177359
33.9540173
33.29517214
156.2307114
157.201534
113.5829509
114.0503199
132.399331
87.38477068
99.35102246
99.0201915
100.0396275
99.69060933
87.62229983
69.40618348
69.51328992
77.57784021
57.38420928
62.8686888
62.7975402
63.01810355
62.94214381
57.4329891
49.06822731
49.09020877
52.84866364
43.37204182
45.96922071
45.95236957
46.00628902
45.9871605
43.38787738
39.37839238
39.39413513
41.20576766
36.59632709
37.87472039
37.85736999
37.91238793
37.89303658
36.61637947
34.58036532
34.60279321
35.51707111
33.16326272
33.82571528
33.80200455
33.87503162
33.85004837
33.18853405
152.5564364
153.4451458
111.8158849
112.2439285
129.8553532
86.49241869
98.07328472
97.77117425
98.69732469
98.38178823
86.70767666
69.00396347
69.10109771
76.96539456
57.20477039
62.59556692
62.53159309
62.72840667
62.66110685
57.2475825
48.98996861
49.0082886
52.7298859
43.31817909
45.90720578
45.89373097
45.93646386
45.9214222
43.33039929
39.32399808
39.33644331
41.15232032
36.52453641
37.8103934
37.7962708
37.84089897
37.82525192
36.54132519
34.49723787
34.51708944
35.43797127
33.06732892
33.73437484
33.71294396
33.77889022
33.756349
33.09056963
149.1606468
149.986612
110.1772674
110.5773163
127.503596
85.67185035
96.89669546
96.61436017
97.47468995
97.18327936
85.87168174
68.63234197
68.72315794
76.40256854
57.0435105
62.3468206
62.28721985
62.46889634
62.40732593
57.08260179
48.9227317
48.93880194
52.62555736
43.2757825
45.85678407
45.84547509
45.88086947
45.86856132
43.285546
39.28050576
39.29053244
41.11051133
36.46402545
37.75775305
37.74609269
37.78281172
37.76998001
36.47823685
34.42339907
34.44106979
35.36945732
32.97897689
33.65169473
33.63225019
33.69202837
33.67161437
33.00040082
145.9721333
146.7518908
108.6267773
109.0080876
125.2897084
84.89808392
95.78781804
95.51816091
96.33568565
96.06017845
85.08824605
68.27859014
68.36590898
75.87136035
56.89241155
62.11208439
62.05471562
62.22828691
62.16990837
56.92959299
48.86176897
48.87662555
52.52936794
43.24101438
45.81361124
45.80359711
45.83452989
45.82390845
43.2491618
39.245056
39.2532902
41.07687738
36.41248836
37.71407128
37.70431487
37.73494075
37.72427037
36.42463947
34.35745701
34.37327079
35.30965659
32.89740833
33.57657224
33.5588625
33.61325617
33.59469806
32.91720822
142.9373443
143.6811077
107.1368047
107.5047366
123.1730987
84.15314714
94.72276621
94.46177172
95.25091265
94.9856673
84.33726871
67.93438995
68.01984833
75.35861655
56.74594223
61.88418271
61.82780526
61.99763128
61.94076798
56.78233366
48.80392636
48.81822728
52.43696748
43.21121749
45.77469076
45.76539577
45.79378227
45.7841419
43.21831977
39.21558697
39.22249002
41.04899288
36.36815968
37.67733615
37.66905724
37.69495109
37.68595901
36.37865281
34.29823379
34.31246955
35.2570733
32.82188913
33.50804178
33.49184123
33.54154439
33.52460418
32.84024304
140.0325685
140.7432255
105.6944107
106.0516051
121.1345659
83.42725197
93.68941327
93.4349618
94.20270957
93.94505455
83.60724323
67.59501362
67.67966212
74.85692214
56.60079607
61.65898579
61.60275572
61.77149628
61.71520781
56.63711699