/*--------------------------------*- C++ -*----------------------------------*\
| =========                 |                                                 |
| \\      /  F ield         | OpenFOAM: The Open Source CFD Toolbox           |
|  \\    /   O peration     | Version:  v2012                                 |
|   \\  /    A nd           | Website:  www.openfoam.com                      |
|    \\/     M anipulation  |                                                 |
\*---------------------------------------------------------------------------*/
FoamFile
{
    version     2.0;
    format      ascii;
    class       surfaceVectorField;
    location    "2.78";
    object      Uf;
}
// * * * * * * * * * * * * * * * * * * * * * * * * * * * * * * * * * * * * * //

dimensions      [0 1 -1 0 0 0 0];


internalField   nonuniform List<vector> 
5975
(
(103.8821144 -31.24861763 3.455521626e-19)
(103.1261212 -31.50328859 2.590574378e-19)
(103.1701516 -30.82183068 -2.688884379e-20)
(103.8915294 -30.70681922 2.417544107e-19)
(102.9272495 -31.30760602 5.656025232e-20)
(107.7523886 -21.53282233 8.537444055e-20)
(108.5112952 -20.99542134 5.38177488e-19)
(106.8502721 -19.92234484 -3.186878292e-19)
(107.7636981 -19.53189056 1.877985483e-19)
(107.161659 -21.15269429 -2.276209505e-19)
(108.5825019 -20.28408211 5.467748795e-19)
(108.0895042 -14.35151966 1.796148892e-19)
(107.6246006 -14.96592538 3.273903353e-19)
(106.955915 -14.18175324 0)
(107.3556713 -13.6883989 2.233885955e-19)
(106.4427151 -9.982723221 -8.955827268e-20)
(106.2643364 -10.48687058 1.431857754e-19)
(105.6826922 -10.02248293 7.327739304e-20)
(105.8462171 -9.600651751 3.705550438e-19)
(104.6217595 -7.02346731 -2.617297819e-19)
(104.57095 -7.404691421 -5.767993844e-19)
(104.106956 -7.138687527 -2.663159645e-19)
(104.1614868 -6.807997703 -5.552624919e-19)
(103.0251214 -5.344349979 0)
(103.0297334 -5.067944288 1.108323987e-21)
(102.6662012 -5.191658526 6.401143424e-20)
(102.682685 -4.947508366 -3.336259045e-20)
(101.6391558 -3.611283697 -1.544519454e-20)
(101.6434193 -4.015805222 1.166234186e-20)
(101.1329354 -3.8096966 -3.290089707e-20)
(101.1792493 -3.474408156 -3.341092366e-20)
(100.804543 -2.677279458 2.563776265e-22)
(100.7892633 -2.996916723 0)
(100.4072129 -2.839536308 -1.120256003e-20)
(100.4620874 -2.572378051 0)
(99.56302788 -1.60249312 5.989832803e-21)
(99.42452441 -1.996548865 -9.733291063e-21)
(99.88023566 -2.290003485 0)
(100.1248622 -2.215715413 0)
(99.25649157 -1.031876615 7.112142571e-21)
(99.08534874 -1.35670495 1.452602885e-20)
(99.07737277 -0.5052897221 -2.471354427e-21)
(98.87109357 -0.7951311101 1.103524827e-21)
(98.76113811 -0.2619407716 6.378466531e-21)
(96.69832662 -21.06338435 1.404736093e-21)
(95.72375009 -20.59479837 0)
(96.63553003 -19.72044418 -9.819354132e-20)
(97.28475287 -20.2922566 -5.182429186e-20)
(95.73161167 -20.11361522 -1.317330192e-19)
(102.1191446 -17.18987977 1.73522825e-19)
(102.9665706 -17.21799037 4.207763772e-19)
(102.1046664 -16.18803773 -7.622418387e-20)
(102.7542007 -16.25167839 -2.668397784e-19)
(104.0729993 -13.17347927 -7.452582854e-20)
(103.6209279 -13.42078848 -3.521120443e-21)
(103.2993565 -12.72479394 -3.316541664e-20)
(103.6630134 -12.53015083 2.612129594e-19)
(103.6157141 -9.795090919 -7.439028397e-20)
(103.3837091 -10.09375941 -4.32539344e-20)
(103.0055643 -9.630950078 1.096968645e-19)
(103.198349 -9.377589985 2.317935248e-19)
(102.6305362 -7.248884885 -2.305791238e-19)
(102.5150362 -7.514187935 -5.95314354e-21)
(102.1658223 -7.220458875 -1.319312927e-20)
(102.2683368 -6.982036356 -2.192303281e-19)
(101.5256479 -5.638688198 2.697615388e-20)
(101.5826248 -5.417345455 -2.891552792e-20)
(101.2292124 -5.450063839 -5.66571133e-20)
(101.2869225 -5.259063223 2.949923489e-20)
(100.6146692 -3.948297555 -4.591451501e-20)
(100.5345829 -4.304721087 -2.392594506e-20)
(100.0952211 -4.031499831 -4.28999352e-20)
(100.2009672 -3.748693639 -1.777238894e-20)
(99.9968433 -2.962145304 -2.87297578e-20)
(99.91789055 -3.252836972 1.043863568e-20)
(99.57844468 -3.048240828 -3.050644465e-20)
(99.67783352 -2.8058054 -1.582831789e-20)
(98.95793069 -1.742250069 -6.699230007e-22)
(98.76924756 -2.109389135 -2.784017578e-20)
(99.16087789 -2.466746436 -6.845248772e-21)
(99.41373453 -2.415502563 -4.278628605e-21)
(98.7103846 -1.122953918 9.573507049e-21)
(98.50235284 -1.441871001 1.801428513e-20)
(98.5637149 -0.5503918046 9.588620015e-21)
(98.33114847 -0.8471455828 3.740468299e-22)
(98.24208159 -0.2790092589 2.299697297e-21)
(97.9049413 -13.8757347 2.958761359e-20)
(97.4996878 -13.04178449 -5.299543308e-20)
(98.19514464 -12.86586854 1.450645374e-19)
(98.4774137 -13.34686837 2.772555032e-20)
(100.5349477 -13.31630416 6.413584654e-20)
(100.1508597 -13.03926757 1.030879615e-19)
(100.2422146 -12.49510085 2.567613673e-20)
(100.5383605 -12.6945812 2.080886531e-20)
(101.4820019 -11.25020279 -2.744298248e-20)
(101.1816677 -11.27293373 -1.587381133e-23)
(101.0237102 -10.76198871 -7.663294353e-20)
(101.2631615 -10.73385327 -4.28420931e-20)
(101.4280426 -8.965338334 1.988692738e-19)
(101.229764 -9.105813753 6.523793686e-20)
(100.9821771 -8.709593931 -7.906598072e-20)
(101.146993 -8.585064363 1.506152329e-19)
(100.8994707 -6.986913773 -4.511542427e-20)
(100.7746243 -7.151683885 1.772288403e-19)
(100.5173079 -6.8713085 4.32662504e-20)
(100.6260938 -6.72462683 1.744171935e-19)
(100.1516794 -5.592630816 -1.237571136e-20)
(100.2325238 -5.434998895 1.681846841e-22)
(99.91624188 -5.397006288 -1.238551588e-20)
(99.99566766 -5.253642029 -1.079602663e-20)
(99.58586707 -4.064063093 3.45023162e-21)
(99.45821572 -4.348518515 6.435860217e-21)
(99.09413998 -4.05240484 0)
(99.23242649 -3.822516477 2.791414719e-21)
(99.16632649 -3.098515488 -1.300472462e-20)
(99.04426181 -3.345105229 2.788941465e-21)
(98.75579041 -3.117617463 4.39465995e-21)
(98.88364548 -2.906313186 0)
(98.32419309 -1.809065968 -8.202178033e-21)
(98.10413308 -2.140923609 -1.204175369e-20)
(98.43721238 -2.531746187 -1.325751347e-21)
(98.68578446 -2.507208938 -1.203821355e-20)
(98.13251836 -1.169724946 9.282153523e-21)
(97.90159687 -1.475604327 1.851132919e-20)
(98.01760485 -0.5745325967 -6.221624995e-21)
(97.77009325 -0.8690178259 -1.052008075e-20)
(97.70032332 -0.2862349566 -6.60135816e-21)
(98.89706744 -10.5273735 -3.392110133e-20)
(98.73085658 -10.04473115 -6.129058114e-20)
(99.08567779 -9.921370887 -8.119883455e-20)
(99.12045778 -10.21601079 -1.122472355e-19)
(99.71155892 -10.44118555 1.16246099e-20)
(99.58745217 -10.20103123 1.156671697e-20)
(99.60161711 -9.875212498 -2.657475522e-21)
(99.69790451 -10.05570172 -7.481141652e-21)
(99.98155849 -9.380904326 -1.049834204e-19)
(99.83735807 -9.315820415 -9.447919814e-20)
(99.71650127 -8.958211769 6.779178412e-20)
(99.83468004 -9.001771372 1.696132279e-19)
(99.85787784 -7.910537163 1.141622321e-19)
(99.72307547 -7.957859921 1.395620367e-19)
(99.54418924 -7.644399032 2.439821422e-19)
(99.6569669 -7.596493494 2.500733605e-19)
(99.49820189 -6.457334716 3.73641719e-20)
(99.39293206 -6.548331405 4.896735795e-20)
(99.19830103 -6.305189373 1.122355233e-19)
(99.29025246 -6.220333679 7.566840625e-20)
(98.96784526 -5.310931059 0)
(99.05242484 -5.20801687 0)
(98.78486233 -5.126285745 0)
(98.86619176 -5.026137922 0)
(98.62702258 -4.003341021 -1.518754315e-20)
(98.48059178 -4.216589284 -1.517302791e-20)
(98.18628982 -3.92555926 5.560864128e-21)
(98.33531407 -3.745115867 -4.23195579e-20)
(98.36428371 -3.109015179 2.751769942e-20)
(98.21987482 -3.308900717 -3.775222333e-21)
(97.97868847 -3.076729306 2.630460624e-21)
(98.11998856 -2.897496287 1.303948134e-20)
(97.6899964 -1.812658691 1.521363747e-20)
(97.45530522 -2.107319965 2.505389344e-20)
(97.73698496 -2.501740921 3.099527813e-20)
(97.97323365 -2.509916472 -1.316872335e-20)
(97.54677482 -1.17812716 -1.981823944e-21)
(97.30629727 -1.465594742 -8.47021986e-21)
(97.45940327 -0.5797525861 -1.088551712e-20)
(97.2074138 -0.8647816205 -1.212910575e-20)
(97.15364511 -0.2850764692 1.233343782e-21)
(99.48698561 -8.449068695 -7.863594095e-20)
(99.53275132 -8.190524156 -1.507962576e-20)
(99.57104461 -8.047594119 -1.753667179e-19)
(99.51837382 -8.272702809 -8.64923668e-20)
(99.35790461 -8.442887788 -9.506538339e-20)
(99.33940272 -8.259819503 -4.980646452e-20)
(99.29095617 -8.038533568 -1.747624911e-20)
(99.27237892 -8.184200201 3.07223865e-20)
(99.07572496 -7.822570236 1.315151663e-19)
(99.02655263 -7.742727116 1.313433155e-19)
(98.90019227 -7.48596434 1.453946221e-19)
(98.94086158 -7.546273056 -4.679381572e-22)
(98.75500277 -6.868360133 -1.475007589e-19)
(98.68260883 -6.864884085 4.210104953e-20)
(98.53335974 -6.624107408 2.192095335e-20)
(98.59531697 -6.619871438 -5.285559151e-20)
(98.40541073 -5.832160606 -1.67675415e-24)
(98.33065012 -5.875229652 1.378791943e-20)
(98.17487196 -5.671839593 -9.666515082e-22)
(98.24239182 -5.629716752 -9.663725605e-22)
(97.99130231 -4.909834265 0)
(98.06508697 -4.8449446 0)
(97.84493451 -4.742836955 0)
(97.91650836 -4.675449878 0)
(97.77595648 -3.82602818 2.069868051e-20)
(97.63047698 -3.978515546 0)
(97.39243335 -3.707335014 0)
(97.53786524 -3.570228873 0)
(97.61659077 -3.022964237 -2.052858072e-20)
(97.4669201 -3.180613992 0)
(97.26247383 -2.950932727 0)
(97.40584924 -2.803632227 0)
(97.0771543 -1.767461592 -2.059915705e-21)
(96.84102025 -2.023855226 1.944090886e-20)
(97.07899909 -2.405222945 1.293385927e-20)
(97.29744096 -2.441732969 1.295522023e-20)
(96.97215683 -1.155369198 -1.942287394e-20)
(96.73248232 -1.420018954 -1.81901111e-20)
(96.90641703 -0.5692023083 2.03944601e-23)
(96.65812654 -0.8398407996 -1.229157021e-21)
(96.61704391 -0.2776253382 1.233250248e-21)
(99.7125789 -7.028040342 6.02217655e-20)
(99.84185141 -6.846240847 1.183303303e-20)
(99.73345606 -6.734254513 -4.318634006e-21)
(99.64260699 -6.890483667 1.861772567e-21)
(99.08263574 -6.993550617 -5.917163949e-20)
(99.11809637 -6.863108765 -4.726576785e-20)
(99.01196529 -6.691087208 -2.53512397e-20)
(98.9456326 -6.800765791 -4.125991062e-21)
(98.45472704 -6.58747556 5.377699192e-20)
(98.46303395 -6.51185151 -2.219091453e-20)
(98.32967002 -6.321629885 5.375569765e-20)
(98.31960456 -6.382014902 -4.354232484e-22)
(97.96744815 -5.945358708 -2.434279354e-21)
(97.94146216 -5.922038922 2.658420464e-22)
(97.80798071 -5.736663987 1.879281809e-20)
(97.82982578 -5.752091453 1.875430833e-20)
(97.57116829 -5.196065238 0)
(97.52695359 -5.211079537 0)
(97.39575318 -5.041353177 0)
(97.43663701 -5.024320513 0)
(97.20269699 -4.459667618 0)
(97.2599858 -4.42234204 0)
(97.08234969 -4.312977315 0)
(97.13858765 -4.270548085 0)
(97.03630392 -3.574269502 0)
(96.90399067 -3.679262796 0)
(96.70685061 -3.431185717 0)
(96.83793207 -3.328537158 0)
(96.93473452 -2.864994652 0)
(96.79140191 -2.986405233 0)
(96.6178872 -2.768825303 0)
(96.75413755 -2.64909953 0)
(96.49861536 -1.684829543 0)
(96.27033524 -1.905892828 0)
(96.47505374 -2.263664037 0)
(96.67239732 -2.320995438 0)
(96.4216262 -1.107261033 0)
(96.1899151 -1.348090621 0)
(96.372181 -0.547669444 0)
(96.13377848 -0.7995885196 0)
(96.10215742 -0.2651911696 0)
(99.75994944 -5.949194904 -2.037177556e-22)
(99.89541535 -5.808222096 1.882363798e-21)
(99.76606623 -5.714755636 4.391186409e-22)
(99.64142768 -5.828352958 2.387729882e-22)
(98.83058681 -5.891041647 -2.858551557e-20)
(98.92242643 -5.788256495 -8.90929264e-21)
(98.78568901 -5.656312824 -1.049830744e-20)
(98.69342943 -5.745925753 4.134377302e-22)
(98.01946294 -5.609697361 -1.400451955e-21)
(98.06993676 -5.542956162 2.825419673e-22)
(97.93462039 -5.39671227 0)
(97.88703197 -5.452649879 0)
(97.39889687 -5.156296461 0)
(97.40945615 -5.125578722 0)
(97.28186301 -4.977080007 0)
(97.27180073 -5.001008065 0)
(96.93372568 -4.5945774 0)
(96.916245 -4.593801418 0)
(96.79844477 -4.45233374 0)
(96.81600218 -4.449805484 0)
(96.56987283 -4.003487507 0)
(96.60999802 -3.983793213 0)
(96.46509706 -3.87558382 0)
(96.50600017 -3.849255139 0)
(96.40288254 -3.281881777 0)
(96.29097176 -3.352342694 0)
(96.12293138 -3.129635369 0)
(96.23451864 -3.054315491 0)
(96.32745171 -2.665317182 0)
(96.19774193 -2.757672141 0)
(96.04805366 -2.557143711 0)
(96.1717887 -2.460233751 0)
(95.96261288 -1.578050753 0)
(95.74973678 -1.768509089 0)
(95.92999173 -2.097956911 0)
(96.1059001 -2.166509641 0)
(95.90373963 -1.041998903 0)
(95.68634858 -1.259905038 0)
(95.86554762 -0.5175197842 0)
(95.64111025 -0.749059647 0)
(95.6159999 -0.2489905805 0)
(99.79573342 -5.079631659 0)
(99.93303383 -4.971908348 0)
(99.80339313 -4.888612535 0)
(99.65534727 -4.980061386 0)
(98.68042906 -5.026135244 0)
(98.80227895 -4.942967249 0)
(98.6498515 -4.837076165 0)
(98.53197976 -4.910419838 0)
(97.71587643 -4.817187651 0)
(97.79529352 -4.758895706 0)
(97.65284583 -4.641645394 0)
(97.57855302 -4.691806033 0)
(96.97671959 -4.479396361 0)
(97.0145646 -4.446957385 0)
(96.88801786 -4.326018156 0)
(96.85352032 -4.352543392 0)
(96.43928161 -4.047730908 0)
(96.44402409 -4.038710978 0)
(96.33315983 -3.920382197 0)
(96.33088203 -3.925752651 0)
(96.05820995 -3.568640675 0)
(96.08181747 -3.559270485 0)
(95.962691 -3.457562168 0)
(95.98848245 -3.441842635 0)
(95.86506123 -2.977148066 0)
(95.77658477 -3.024919401 0)
(95.62760715 -2.826542794 0)
(95.71802361 -2.772133249 0)
(95.79335169 -2.446220936 0)
(95.68087934 -2.516302455 0)
(95.5486491 -2.334542201 0)
(95.65711559 -2.255799774 0)
(95.47324667 -1.458616841 0)
(95.280276 -1.622840775 0)
(95.44298252 -1.922319675 0)
(95.59881411 -1.994405882 0)
(95.42421792 -0.9673686366 0)
(95.22487056 -1.163328057 0)
(95.39242059 -0.4816602158 0)
(95.18486118 -0.6930804938 0)
(95.16352882 -0.2308534998 0)
(99.81683457 -4.371774915 -1.866178221e-35)
(99.95476158 -4.288294336 4.962899871e-37)
(99.81859015 -4.21575954 -3.631539938e-35)
(99.65847866 -4.290162993 -1.866397003e-35)
(98.56789777 -4.323415884 0)
(98.70863118 -4.255163101 0)
(98.54326306 -4.168056364 0)
(98.40766922 -4.228941381 0)
(97.48698626 -4.160967905 0)
(97.58705022 -4.11056153 0)
(97.43824343 -4.014568619 0)
(97.34466957 -4.058679728 0)
(96.65344197 -3.900348184 0)
(96.711863 -3.869047889 0)
(96.58429685 -3.769154519 0)
(96.53096262 -3.795449927 0)
(96.0489666 -3.560983814 0)
(96.07186664 -3.54807953 0)
(95.9642586 -3.448553053 0)
(95.94542747 -3.457914504 0)
(95.64091785 -3.168674514 0)
(95.64934269 -3.16553325 0)
(95.55114428 -3.07282813 0)
(95.56271847 -3.06415227 0)
(95.40862097 -2.679482743 0)
(95.34410872 -2.712699673 0)
(95.20644521 -2.537060073 0)
(95.27618146 -2.497494701 0)
(95.32637843 -2.223359048 0)
(95.23248125 -2.277006549 0)
(95.11268367 -2.113944318 0)
(95.20462697 -2.049540232 0)
(95.03078777 -1.334899334 0)
(94.85989881 -1.47682697 0)
(95.01058468 -1.746623879 0)
(95.14802768 -1.818110539 0)
(94.98511691 -0.8886752818 0)
(94.80566383 -1.064328422 0)
(94.95598701 -0.4434496013 0)
(94.7666152 -0.6352393782 0)
(94.74692857 -0.2120253533 0)
(99.81765604 -3.789025096 -1.580812929e-35)
(99.95617266 -3.722447423 0)
(99.81563359 -3.659132713 0)
(99.64809583 -3.720294216 0)
(98.47575689 -3.742843674 0)
(98.63013125 -3.686316537 0)
(98.45509634 -3.613394431 0)
(98.30654792 -3.664319894 0)
(97.30780583 -3.611773228 0)
(97.42300134 -3.568428586 0)
(97.26887174 -3.48859086 0)
(97.16094391 -3.526977571 0)
(96.39917914 -3.404791638 0)
(96.47337815 -3.375897699 0)
(96.34397659 -3.292429498 0)
(96.27593894 -3.31712653 0)
(95.73554533 -3.132500606 0)
(95.77323846 -3.118188573 0)
(95.66683002 -3.033970666 0)
(95.63429265 -3.045029516 0)
(95.29785253 -2.807776535 0)
(95.29307089 -2.808651405 0)
(95.21150849 -2.72527297 0)
(95.21087266 -2.720941466 0)
(95.01965204 -2.399938517 0)
(94.97778732 -2.422812098 0)
(94.84702892 -2.268496681 0)
(94.89722783 -2.239042947 0)
(94.91894233 -2.007028903 0)
(94.84358205 -2.048702093 0)
(94.73242214 -1.9033868 0)
(94.80782151 -1.850138563 0)
(94.63327777 -1.21274374 0)
(94.48517279 -1.33592086 0)
(94.62799786 -1.57748555 0)
(94.74900224 -1.645801507 0)
(94.58625765 -0.8099764713 0)
(94.4273047 -0.9671827823 0)
(94.55702615 -0.4049585392 0)
(94.38616255 -0.5781375 0)
(94.36651096 -0.1933682528 0)
(99.80561312 -3.301521156 -2.420384432e-35)
(99.94429379 -3.247497376 -1.191903654e-36)
(99.80117186 -3.192088906 -2.420384432e-35)
(99.62895554 -3.242768986 -2.420106024e-35)
(98.39769055 -3.257061737 0)
(98.56224135 -3.209835497 0)
(98.37991555 -3.148047316 0)
(98.22160145 -3.190911008 0)
(97.16326796 -3.148339147 0)
(97.28986876 -3.111137326 0)
(97.13135499 -3.043933003 0)
(97.01247459 -3.077161313 0)
(96.19460239 -2.979997709 0)
(96.28108546 -2.953969883 0)
(96.14960816 -2.883559246 0)
(96.06994891 -2.906066972 0)
(95.47984224 -2.75756055 0)
(95.52961763 -2.743229841 0)
(95.42324307 -2.671555871 0)
(95.37935174 -2.682970472 0)
(95.01263169 -2.485916629 0)
(94.99653123 -2.48899477 0)
(94.92808203 -2.414787788 0)
(94.91681573 -2.413042482 0)
(94.68722613 -2.14301359 0)
(94.66590802 -2.158676168 0)
(94.5392128 -2.023641344 0)
(94.57133918 -2.001105831 0)
(94.56344251 -1.803380276 0)
(94.50580337 -1.836322949 0)
(94.40045466 -1.707460267 0)
(94.45997361 -1.662811213 0)
(94.27756671 -1.096044167 0)
(94.15194247 -1.203588119 0)
(94.28992484 -1.418984691 0)
(94.39645091 -1.482557991 0)
(94.22600752 -0.734050774 0)
(94.08724851 -0.8747298916 0)
(94.19474185 -0.367619313 0)
(94.04195601 -0.523536329 0)
(94.02116978 -0.1754655113 0)
(99.78525999 -2.889613436 2.069138689e-35)
(99.92354265 -2.845323924 0)
(99.77923061 -2.796718687 0)
(99.60418958 -2.838906218 0)
(98.3300803 -2.846816548 0)
(98.50240015 -2.807120154 0)
(98.31452226 -2.754334421 0)
(98.14866292 -2.790559838 0)
(97.04390023 -2.754769787 0)
(97.17931991 -2.722876187 0)
(97.01721174 -2.665813002 0)
(96.88978125 -2.694468996 0)
(96.02678493 -2.615195135 0)
(96.12298918 -2.592117726 0)
(95.9894681 -2.532286529 0)
(95.90049358 -2.552397751 0)
(95.26819518 -2.430655875 0)
(95.32791697 -2.417076911 0)
(95.22094753 -2.355790874 0)
(95.16759556 -2.366785495 0)
(94.77298596 -2.201266406 0)
(94.74716245 -2.205370893 0)
(94.68916563 -2.139829754 0)
(94.66864598 -2.139534674 0)
(94.40184681 -1.910438458 0)
(94.39890255 -1.921356222 0)
(94.27428474 -1.803376861 0)
(94.28995407 -1.785557652 0)
(94.25281472 -1.615756961 0)
(94.21168926 -1.642386615 0)
(94.11009824 -1.528490979 0)
(94.15475635 -1.49045513 0)
(93.95997804 -0.9872190478 0)
(93.85586958 -1.081827922 0)
(93.99118061 -1.273400607 0)
(94.0850587 -1.331382899 0)
(93.90185205 -0.6626951345 0)
(93.7823911 -0.7887366343 0)
(93.86727125 -0.3323715769 0)
(93.73166735 -0.4725654523 0)
(93.70894029 -0.158696533 0)
(99.75943625 -2.539409375 7.992597827e-36)
(99.89680244 -2.502916421 6.251572033e-37)
(99.75235647 -2.460228404 7.992597827e-36)
(99.57581592 -2.495380662 7.993534839e-36)
(98.27063047 -2.498248041 0)
(98.44896955 -2.464790191 0)
(98.2568442 -2.419466916 0)
(98.08505147 -2.45011579 0)
(96.94350449 -2.419097225 0)
(97.08589306 -2.391818773 0)
(96.92083879 -2.343092088 0)
(96.78660008 -2.367693439 0)
(95.88688792 -2.301559297 0)
(95.99091238 -2.281356599 0)
(95.85550088 -2.230261808 0)
(95.75895248 -2.247948287 0)
(95.09080592 -2.146436598 0)
(95.15879416 -2.134035404 0)
(95.05092089 -2.081459176 0)
(94.98962188 -2.091580921 0)
(94.56972369 -1.951156809 0)
(94.53551412 -1.955532176 0)
(94.48597518 -1.898023488 0)
(94.45739718 -1.898427638 0)
(94.1555788 -1.702377741 0)
(94.16893746 -1.710323526 0)
(94.04504811 -1.607311568 0)
(94.04587486 -1.592656018 0)
(93.98077062 -1.445650113 0)
(93.95477929 -1.46776124 0)
(93.85545897 -1.367308391 0)
(93.88644129 -1.334358394 0)
(93.67667347 -0.8876151386 0)
(93.59268189 -0.971584767 0)
(93.7269045 -1.141747536 0)
(93.80979837 -1.193785347 0)
(93.61080296 -0.5969793412 0)
(93.5093523 -0.7101812476 0)
(93.57211551 -0.2997924172 0)
(93.4524893 -0.4258795848 0)
(93.42729927 -0.1432870245 0)
(99.72998044 -2.240638435 6.855182273e-36)
(99.86600862 -2.210547633 0)
(99.72220224 -2.173038477 0)
(99.54513952 -2.202266548 0)
(98.21774334 -2.201042858 0)
(98.40077847 -2.172847868 0)
(98.20540401 -2.133819072 0)
(98.02889451 -2.159710559 0)
(96.8578281 -2.132128695 0)
(97.00581684 -2.108886499 0)
(96.83833769 -2.0671365 0)
(96.69859317 -2.088136117 0)
(95.76868551 -2.031873837 0)
(95.87908803 -2.014390469 0)
(95.74197366 -1.970619153 0)
(95.63919338 -1.985951816 0)
(94.94049337 -1.900003513 0)
(95.01540763 -1.888993504 0)
(94.90649249 -1.843792879 0)
(94.83847227 -1.852793827 0)
(94.3958394 -1.732593141 0)
(94.35437912 -1.736764944 0)
(94.31175267 -1.686603203 0)
(94.27615394 -1.687211069 0)
(93.94189688 -1.518014007 0)
(93.96968499 -1.524237191 0)
(93.84559751 -1.434324102 0)
(93.83312289 -1.42171991 0)
(93.7417968 -1.293360789 0)
(93.72952956 -1.312288043 0)
(93.63139292 -1.223808494 0)
(93.64993644 -1.194755541 0)
(93.42385754 -0.7978226148 0)
(93.35838908 -0.8731248527 0)
(93.49265696 -1.024216966 0)
(93.56604321 -1.070242588 0)
(93.34966747 -0.5374468683 0)
(93.26475561 -0.6395026528 0)
(93.30644127 -0.2701932218 0)
(93.20144521 -0.3837989983 0)
(93.17348005 -0.1293533879 0)
(99.69810681 -1.985509235 0)
(99.83246932 -1.960765659 0)
(99.68986516 -1.927802162 0)
(99.51301018 -1.951991173 0)
(98.17023953 -1.947381242 0)
(98.35693808 -1.923682317 0)
(98.15909365 -1.890025799 0)
(97.97881542 -1.911815643 0)
(96.78384442 -1.886745625 0)
(96.93638833 -1.867048452 0)
(96.76689928 -1.831211657 0)
(96.62265123 -1.849007884 0)
(95.66768098 -1.800292488 0)
(95.78334004 -1.785336169 0)
(95.64470374 -1.747770409 0)
(95.53674922 -1.760873545 0)
(94.81190346 -1.68706765 0)
(94.89265646 -1.677530911 0)
(94.78264682 -1.63861989 0)
(94.70891369 -1.646382282 0)
(94.24592365 -1.542638319 0)
(94.19818503 -1.54631684 0)
(94.16123379 -1.502809455 0)
(94.11951668 -1.50329834 0)
(93.75548388 -1.356042793 0)
(93.79603005 -1.361426154 0)
(93.67110472 -1.282968731 0)
(93.64675336 -1.271598757 0)
(93.53114125 -1.158501826 0)
(93.53123246 -1.17524887 0)
(93.43347538 -1.097373945 0)
(93.44079672 -1.07127685 0)
(93.19788924 -0.7179322972 0)
(93.14924912 -0.7862578338 0)
(93.28442163 -0.9204990685 0)
(93.34962674 -0.9606288814 0)
(93.11521133 -0.4842757069 0)
(93.04525886 -0.5767552216 0)
(93.06726497 -0.2436958307 0)
(92.97545707 -0.3464000074 0)
(92.94455246 -0.1169312779 0)
(99.66465097 -1.76789596 0)
(99.79710912 -1.74769737 0)
(99.65611264 -1.718764535 0)
(99.48001144 -1.738609127 0)
(98.12720015 -1.731134289 0)
(98.31674156 -1.711335042 0)
(98.11704734 -1.682325271 0)
(97.93375208 -1.700528172 0)
(96.71929179 -1.677279473 0)
(96.87557876 -1.660728434 0)
(96.70441277 -1.62996954 0)
(96.55644449 -1.644891225 0)
(95.58049028 -1.60198955 0)
(95.70052349 -1.589377298 0)
(95.56052975 -1.55712942 0)
(95.44824212 -1.568131337 0)
(94.70090454 -1.503869948 0)
(94.7866127 -1.495829311 0)
(94.67550432 -1.462325351 0)
(94.5968876 -1.468792769 0)
(94.1156822 -1.378527954 0)
(94.06249002 -1.381526104 0)
(94.03022134 -1.344035199 0)
(93.98315925 -1.344181215 0)
(93.59190944 -1.214903624 0)
(93.64373795 -1.220081771 0)
(93.5175243 -1.151645985 0)
(93.48258756 -1.140893679 0)
(93.34464707 -1.040264458 0)
(93.35581672 -1.055599711 0)
(93.2578321 -0.9870810306 0)
(93.25508368 -0.9631792187 0)
(92.99533559 -0.6477166746 0)
(92.96184344 -0.7105477767 0)
(93.09857923 -0.8299903221 0)
(93.15677547 -0.8644336647 0)
(92.90425839 -0.4374035365 0)
(92.84769093 -0.5217653634 0)
(92.85157344 -0.2202947711 0)
(92.77151645 -0.3136108781 0)
(92.73760779 -0.1060067199 0)
(99.63019837 -1.583019427 0)
(99.76058532 -1.566767385 0)
(99.62147516 -1.541448927 0)
(99.44654119 -1.557482351 0)
(98.08788577 -1.547487882 0)
(98.27960653 -1.531133135 0)
(98.07856194 -1.506197883 0)
(97.89285566 -1.521208645 0)
(96.66242801 -1.499215391 0)
(96.82181694 -1.485498867 0)
(96.64924235 -1.459158595 0)
(96.49817451 -1.471464078 0)
(95.50450297 -1.433018318 0)
(95.62820882 -1.422597891 0)
(95.48700168 -1.394960567 0)
(95.37105554 -1.403969546 0)
(94.6042498 -1.347203074 0)
(94.69419243 -1.340663424 0)
(94.58200583 -1.311849396 0)
(94.49918924 -1.316986461 0)
(94.00165791 -1.237784432 0)
(93.94370928 -1.239966492 0)
(93.91532077 -1.207935129 0)
(93.86357542 -1.20756774 0)
(93.4474805 -1.093003407 0)
(93.50929496 -1.098446266 0)
(93.38146597 -1.03878713 0)
(93.33709922 -1.028169273 0)
(93.17870961 -0.9376601597 0)
(93.19978111 -0.9521903327 0)
(93.1010924 -0.8919024047 0)
(93.08934545 -0.869561487 0)
(92.81302826 -0.5867773937 0)
(92.79305342 -0.6454309655 0)
(92.93188847 -0.7519559727 0)
(92.98412214 -0.7809563073 0)
(92.71378897 -0.3966297255 0)
(92.66906642 -0.4742275748 0)
(92.65644603 -0.1999094193 0)
(92.58672769 -0.285271154 0)
(92.5498131 -0.09653513146 0)
(99.59511551 -1.427084312 0)
(99.72332535 -1.414307073 0)
(99.58627405 -1.392244187 0)
(99.41282121 -1.404896168 0)
(98.05166026 -1.392602853 0)
(98.24501119 -1.37932885 0)
(98.04301776 -1.357994808 0)
(97.85540166 -1.370129585 0)
(96.6118567 -1.348913346 0)
(96.7738286 -1.337775992 0)
(96.60005612 -1.315312807 0)
(96.44639185 -1.325215479 0)
(95.43763952 -1.290134096 0)
(95.56444792 -1.281771397 0)
(95.42214164 -1.258161624 0)
(95.30308884 -1.265275478 0)
(94.51931531 -1.21435214 0)
(94.61289399 -1.209303801 0)
(94.49964919 -1.184582843 0)
(94.41320404 -1.188370755 0)
(93.90095543 -1.118219392 0)
(93.8388517 -1.119475823 0)
(93.81363983 -1.092422344 0)
(93.75779692 -1.09138392 0)
(93.31907979 -0.9888244618 0)
(93.38976913 -0.9948981125 0)
(93.26004515 -0.9429635212 0)
(93.20726659 -0.9320589809 0)
(93.0301701 -0.8496524987 0)
(93.06007046 -0.8638752 0)
(92.96028456 -0.8108054463 0)
(92.94052236 -0.7894858935 0)
(92.64799749 -0.5346279389 0)
(92.64000058 -0.5903177743 0)
(92.78141987 -0.6856340702 0)
(92.82862248 -0.7094542112 0)
(92.54090727 -0.3616769053 0)
(92.50658698 -0.4337706359 0)
(92.47903569 -0.1824148351 0)
(92.41832851 -0.2611781902 0)
(92.37844286 -0.08845762304 0)
(99.55962982 -1.297005244 -1.104396418e-36)
(99.68562936 -1.287329959 -3.915554815e-38)
(99.55071623 -1.268229415 -2.142248957e-36)
(99.3789692 -1.27784008 -1.104269383e-36)
(98.01795492 -1.263376117 0)
(98.21247985 -1.252899681 0)
(98.00986313 -1.234780714 0)
(97.82075573 -1.244284597 0)
(96.56642039 -1.223413935 0)
(96.73055204 -1.214657035 0)
(96.55574774 -1.19562936 0)
(96.39989732 -1.203294442 0)
(95.37819799 -1.170660533 0)
(95.50764417 -1.164250183 0)
(95.36432851 -1.14418924 0)
(95.24262188 -1.149484102 0)
(94.44394809 -1.103042037 0)
(94.54066898 -1.099474963 0)
(94.4263906 -1.078353455 0)
(94.33679051 -1.080782042 0)
(93.8111996 -1.018094824 0)
(93.74537371 -1.018401672 0)
(93.72293246 -0.9959682582 0)
(93.66335045 -0.9942028465 0)
(93.20397618 -0.9010899216 0)
(93.28262561 -0.9081546764 0)
(93.15061067 -0.8630532898 0)
(93.09040868 -0.8513434334 0)
(92.89621882 -0.7752216785 0)
(92.93397507 -0.7895843483 0)
(92.83275105 -0.7428098424 0)
(92.80588521 -0.72201856 0)
(92.49765769 -0.4907690261 0)
(92.50013984 -0.5445887558 0)
(92.64454696 -0.6302303674 0)
(92.68758675 -0.6490741299 0)
(92.38305471 -0.3322483701 0)
(92.35767284 -0.4000129235 0)
(92.31681333 -0.1676773566 0)
(92.26373911 -0.2411125843 0)
(92.22092693 -0.08170597996 0)
(99.52389166 -1.190315428 0)
(99.64771563 -1.183442519 0)
(99.51492856 -1.167055824 0)
(99.34503988 -1.173899928 0)
(97.98626238 -1.157326726 0)
(98.18157813 -1.149421457 0)
(97.97859872 -1.134193859 0)
(97.78835492 -1.141262192 0)
(96.52514081 -1.120339491 0)
(96.69107994 -1.113804433 0)
(96.51536769 -1.097841969 0)
(96.35767229 -1.103399526 0)
(95.32475801 -1.072414828 0)
(95.45645345 -1.067872048 0)
(95.31218721 -1.050953605 0)
(95.18820875 -1.054488594 0)
(94.37637355 -1.011354372 0)
(94.47580879 -1.009255253 0)
(94.36050871 -0.9912998831 0)
(94.26817541 -0.9923644485 0)
(93.73055761 -0.9357491273 0)
(93.66144493 -0.9351706081 0)
(93.64136479 -0.9169150027 0)
(93.57847874 -0.9143708942 0)
(93.09962755 -0.828689953 0)
(93.18527785 -0.8368004182 0)
(93.05083326 -0.797798669 0)
(92.98408804 -0.7848555541 0)
(92.77433681 -0.7134422393 0)
(92.81906297 -0.7283252234 0)
(92.71613706 -0.6870042777 0)
(92.68295758 -0.6663676072 0)
(92.35905876 -0.454688042 0)
(92.3708669 -0.5078794923 0)
(92.51881984 -0.5852118352 0)
(92.5583642 -0.5993890557 0)
(92.23724781 -0.3080319639 0)
(92.21990429 -0.372600519 0)
(92.16674792 -0.1555368506 0)
(92.12049318 -0.2249007821 0)
(92.07481579 -0.07623478544 0)
(99.48798119 -1.105010525 0)
(99.60973016 -1.100701015 0)
(99.47898437 -1.086828817 0)
(99.31103789 -1.09112476 0)
(97.95611419 -1.072455537 0)
(98.15190251 -1.066950771 0)
(97.94876682 -1.054353573 0)
(97.75768422 -1.059130075 0)
(96.48715018 -1.037765235 0)
(96.65460485 -1.033339125 0)
(96.47807212 -1.020138238 0)
(96.31881379 -1.023676453 0)
(95.27606591 -0.9936030929 0)
(95.40968749 -0.9908764945 0)
(95.26449914 -0.976762126 0)
(95.13856785 -0.9785648501 0)
(94.31498131 -0.9376453346 0)
(94.41676144 -0.9370296029 0)
(94.30041994 -0.9218716008 0)
(94.2057191 -0.9215301728 0)
(93.65708099 -0.8695161924 0)
(93.58521828 -0.8678478159 0)
(93.56669018 -0.853386788 0)
(93.50112097 -0.8497949102 0)
(93.00402544 -0.7702005649 0)
(93.09572102 -0.7794532654 0)
(92.95900632 -0.7458158542 0)
(92.88631083 -0.7315273293 0)
(92.66224762 -0.6633392806 0)
(92.71312708 -0.6791390513 0)
(92.6080334 -0.6425344706 0)
(92.56947773 -0.6214242964 0)
(92.23166905 -0.4260481971 0)
(92.25081556 -0.4789086027 0)
(92.40208914 -0.5493586138 0)
(92.43928791 -0.5583296043 0)
(92.10298918 -0.288837309 0)
(92.09100853 -0.3511618061 0)
(92.02844689 -0.1459462827 0)
(91.98626883 -0.2122767824 0)
(91.93771401 -0.07193499711 0)
(99.45197903 -1.039504283 -3.940144471e-36)
(99.57182738 -1.037570615 0)
(99.44297487 -1.026072915 -3.218155538e-36)
(99.27698091 -1.02798654 0)
(97.92708367 -1.007205038 0)
(98.12308882 -1.003981129 0)
(97.91995267 -0.9938109968 0)
(97.72827493 -0.9963907384 0)
(96.45166473 -0.9741855342 0)
(96.62039557 -0.9718000091 0)
(96.44309746 -0.9611150252 0)
(96.28250682 -0.96268102 0)
(95.23099809 -0.9328166045 0)
(95.36628158 -0.9318892821 0)
(95.22017509 -0.9203017419 0)
(95.09255172 -0.9203692891 0)
(94.25830197 -0.8806682553 0)
(94.36212909 -0.8815768944 0)
(94.24471559 -0.8689200641 0)
(94.14793429 -0.8671152587 0)
(93.58893136 -0.8185772508 0)
(93.51458509 -0.8155994426 0)
(93.4972819 -0.8048155955 0)