/*--------------------------------*- C++ -*----------------------------------*\
| =========                 |                                                 |
| \\      /  F ield         | OpenFOAM: The Open Source CFD Toolbox           |
|  \\    /   O peration     | Version:  v2012                                 |
|   \\  /    A nd           | Website:  www.openfoam.com                      |
|    \\/     M anipulation  |                                                 |
\*---------------------------------------------------------------------------*/
FoamFile
{
    version     2.0;
    format      ascii;
    class       volScalarField;
    location    "0.67";
    object      p;
}
// * * * * * * * * * * * * * * * * * * * * * * * * * * * * * * * * * * * * * //

dimensions      [0 2 -2 0 0 0 0];


internalField   nonuniform List<scalar> 
3019
(
-722.4354368
-1002.491064
-1103.979213
-1108.075563
-1070.621436
-1012.877961
-927.671653
-880.4302103
-818.146
-798.1666597
-784.7069075
-778.1660233
287.9695375
-403.0490024
-688.5033216
-818.318602
-864.4407013
-859.3120803
-817.0719472
-792.4171732
-748.6736924
-736.7467278
-728.189798
-724.0965716
271.8822418
-150.3121834
-434.8797452
-603.9237863
-690.260857
-718.9455709
-709.0837171
-704.1874741
-677.1138879
-672.4884032
-668.6214151
-666.8332053
206.7411178
-69.78605526
-299.023007
-458.6007785
-552.9635522
-598.4760346
-610.7776898
-620.2410658
-606.7887389
-608.1807834
-608.358092
-608.5255086
137.9319612
-52.31435188
-227.4690634
-360.4086047
-446.6159701
-499.1508747
-524.3617206
-543.0936831
-540.030568
-545.9949943
-549.3250672
-550.962127
86.55448397
-53.95346704
-183.9915688
-287.4262849
-362.8858735
-417.162073
-449.3973951
-473.6276962
-478.1057062
-487.2442134
-492.8656326
-495.5344282
55.44430464
-50.98247145
-148.4048863
-231.7178088
-298.9762096
-350.9097658
-385.5861461
-412.3270697
-421.6249264
-432.7079921
-439.8014084
-443.189418
42.88994726
-41.45850608
-120.5516515
-190.5577918
-249.48502
-297.2434494
-331.709913
-358.750194
-370.7720761
-382.8010023
-390.6828709
-394.4467221
34.42535144
-34.63168702
-100.0395881
-159.1454675
-210.3541953
-253.2307909
-286.0751142
-312.0896365
-325.3494345
-337.5681267
-345.7042545
-349.5965734
27.83242281
-29.58907216
-84.29713313
-134.4454937
-178.790722
-216.8300425
-247.1468968
-271.4719345
-284.9386899
-296.8229062
-304.8354861
-308.6755228
22.64527292
-25.63336845
-71.78660858
-114.5127885
-152.8558175
-186.3384851
-213.7663713
-236.0453251
-249.0426611
-260.2580982
-267.8973374
-271.5629591
18.50558599
-22.38265979
-61.55125114
-98.06281196
-131.1823941
-160.4896094
-184.9616483
-205.051906
-217.1603463
-227.5110519
-234.6205507
-238.0343557
15.16180197
-19.61669888
-52.97624144
-84.22645353
-112.7976463
-138.3314906
-159.930063
-177.8296666
-188.8113035
-198.1980796
-204.6890612
-207.8066177
12.433245
-17.20026227
-45.6497455
-72.39609377
-96.99278661
-119.1391451
-138.0223069
-153.808685
-163.5471341
-171.9364603
-177.7687971
-180.5696043
10.18664397
-15.04656346
-39.28684888
-62.13683526
-83.24295202
-102.3548647
-118.7124478
-132.5045329
-140.9564284
-148.3569118
-153.5233544
-156.0032079
8.320904324
-13.09678451
-33.68189091
-53.12596055
-71.14702416
-87.53802201
-101.5648454
-113.4983292
-120.665953
-127.1110672
-131.6248687
-133.7897521
6.758180917
-11.30941277
-28.68224911
-45.11862867
-60.39292192
-74.33613542
-86.21868643
-96.43066941
-102.3398645
-107.8762739
-111.7622614
-113.6238879
5.437209275
-9.653354933
-24.16995683
-37.92235066
-50.72929793
-62.45390877
-72.37127326
-80.98877905
-85.67586079
-90.3551377
-93.64369472
-95.21663884
4.309034257
-8.104255619
-20.05133901
-31.38300913
-41.95296961
-51.63757195
-59.75996837
-66.8980321
-70.3960885
-74.27144387
-76.9940485
-78.29300394
3.333922369
-6.642073339
-16.24969006
-25.37427661
-33.90087765
-41.72420092
-48.12895598
-53.91007642
-56.26521431
-59.38405289
-61.57107077
-62.61162014
2.479009925
-5.249196936
-12.69896697
-19.78603854
-26.42565539
-32.55102384
-37.28552628
-41.80218569
-43.00019007
-45.41754519
-47.09138107
-47.88030087
1.716967961
-3.909906602
-9.341504098
-14.52033241
-19.38877449
-23.90142859
-27.07866596
-30.35297179
-30.62237363
-32.32770464
-33.51291063
-34.07720126
1.025061345
-2.610160174
-6.12603418
-9.489246997
-12.66767675
-15.64124074
-17.3191243
-19.45982516
-18.25401154
-19.27407876
-19.97089211
-20.24904384
0.3860680894
-1.337621676
-3.007208494
-4.614158083
-6.149303421
-7.623012041
-7.77523682
-8.75576724
-8.480099727
-8.946771308
-9.271477873
-9.502454432
-770.3179573
-818.1192696
-1114.647028
371.6277268
-721.7536581
233.2361799
-410.6447239
-999.5318918
391.6447316
386.9646629
-1001.557346
-4.370010369
-76.91202431
-135.2276081
-468.6015096
-855.0689759
-1129.071524
-408.1275899
-1180.389795
-1186.085702
-1241.156422
-319.3206603
282.1113793
-90.49733991
-291.8484736
-888.889498
-1150.108872
-1136.124646
-109.5990363
-361.7221335
-65.22613214
438.7547318
-1370.729562
-1391.208176
407.2497731
182.8867323
-1127.146693
-946.3481745
-972.5669439
-947.7157572
-1124.314252
-720.2662481
-897.66916
-472.0136554
-510.1770267
-671.930939
-306.3555265
-458.1052709
-372.2289662
-1133.971556
-1343.28172
-1359.501974
-1136.331208
-1141.434356
-1234.154937
-921.8266601
-898.0537468
-731.4638198
-1516.317719
-1507.929621
-1394.609418
-1397.207826
-713.172215
-727.261007
-546.1371517
-553.538688
-655.8043678
-116.7375153
-256.3247736
-1512.252154
-1367.940688
-1454.817483
-960.9180605
-955.3107587
-943.4733596
-1065.712325
-757.5529446
-731.2712816
-720.7655815
-883.3069267
-820.8031525
-823.0821867
-481.8008703
-536.7926406
-529.9713435
-356.343688
-364.6673768
-409.7289566
-1293.844561
-1302.544286
-1357.40418
-1157.124753
-1224.105405
-1228.408583
-1231.068515
-1204.292933
-1190.639389
-1143.090121
-1125.670586
-1070.204852
-450.5080456
-564.2759824
-805.1467875
-515.9520712
-730.4082822
-1090.512086
-776.6103335
-866.3425052
-1112.445436
-883.845292
-911.7308703
-1082.380879
-914.0124894
-904.1062705
-1028.426144
337.6119456
72.72243398
-49.67355419
-191.3484377
-425.5993037
-635.8399124
-484.901113
-618.643312
-795.7135368
-650.5717297
-716.778144
-858.397984
-730.1769155
-750.6806676
-864.0349772
303.6715503
370.6985532
226.5656489
-8.489619391
-57.13202994
-80.91082637
-271.5836019
-376.2961426
-325.3728228
-455.4583696
-570.4535136
-489.3892571
-566.0826909
-675.1665377
-583.9831011
-618.8620807
-715.4931029
211.3025731
277.6216401
153.745056
-2.343879041
-3.519333839
-54.49016866
-198.7440903
-247.8650752
-241.561622
-351.7441765
-425.3885996
-382.1007787
-453.2379969
-534.8214909
-470.8297468
-511.3541404
-589.7764205
136.2585812
190.6915854
97.57587055
-15.80664899
-5.20589961
-53.48356348
-160.85563
-187.3171903
-193.6008459
-279.7335231
-331.4905268
-304.0619077
-364.7831902
-429.2333504
-381.7612236
-424.3028403
-487.9930637
88.83756107
121.5345664
61.19287739
-24.41956124
-18.9432719
-52.45953716
-132.3307139
-153.5133182
-156.9063204
-223.9213993
-264.5197579
-244.047659
-297.7214171
-346.1785184
-313.4128982
-354.2714297
-405.2319909
67.59002357
81.42973178
45.27764585
-21.72575084
-24.40968522
-43.58852548
-106.7211989
-125.2244115
-126.6912388
-182.6028711
-212.361564
-199.7829457
-246.6820116
-283.6744086
-260.7527884
-298.3743781
-339.1366326
54.59936054
64.15361093
36.34654647
-18.2469819
-20.67619821
-36.13432356
-88.06693131
-101.5097819
-104.6424037
-151.6244374
-174.0497602
-166.273563
-206.9202618
-235.8319671
-219.3356902
-253.1419195
-286.1975877
44.50473454
51.83676965
29.33270017
-15.88852219
-17.58225761
-30.72751799
-73.98871995
-84.19289698
-87.88198997
-127.6002559
-145.0656294
-140.1112045
-175.2266227
-198.3395943
-186.0893586
-216.0610417
-243.2038158
36.57716271
42.34583417
23.83202728
-14.09460566
-15.400209
-26.544869
-62.93557421
-70.98652748
-74.67077401
-108.4200278
-122.4143373
-119.1278167
-149.4329508
-168.2930696
-158.8943687
-185.2555838
-207.8472977
30.23868296
34.86145883
19.45750605
-12.61497528
-13.70152093
-23.14311877
-53.96673904
-60.52559142
-63.93461828
-92.72112244
-104.2105156
-101.9016112
-128.0426778
-143.719877
-136.2595378
-159.3199976
-178.3737169
25.09599028
28.85333893
15.93396326
-11.32476835
-12.27798615
-20.27116733
-46.49310111
-51.97592977
-54.98947368
-79.59944978
-89.2272478
-87.47723996
-110.0096421
-123.2532074
-117.1278518
-137.2134507
-153.4797785
20.87056592
23.96266357
13.06561821
-10.15675126
-11.02314377
-17.77692655
-40.12893504
-44.80996546
-47.3814859
-68.43416065
-76.64438476
-75.19160489
-94.58391393
-105.9330991
-100.7331445
-118.1552547
-132.198909
17.3589962
19.93246212
10.70909071
-9.07348679
-9.879036959
-15.56392873
-34.6125569
-38.67867031
-40.79954159
-58.78794563
-65.89436192
-64.57354214
-81.21839041
-91.06747616
-86.51135809
-101.5537755
-113.8032858
14.40868345
16.57387155
8.756255921
-8.053171336
-8.8131297
-13.56764338
-29.75846592
-33.34294081
-35.02124572
-50.34128214
-56.57431547
-55.27627904
-69.50117442
-78.14831352
-74.03444086
-86.9484112
-97.73866265
11.90331305
13.74446994
7.124049001
-7.082447014
-7.806212545
-11.74287213
-25.43056004
-28.63154236
-29.88235445
-42.85405738
-48.38736427
-47.03766715
-59.1148403
-66.79032627
-62.9702495
-73.97403879
-83.57097507
9.752813725
11.33548964
5.747639346
-6.152513196
-6.846427038
-10.05647534
-21.52569616
-24.41818173
-25.25779291
-36.14092497
-41.10954265
-39.65435179
-49.80884174
-56.69574336
-53.05480817
-62.33346754
-70.95539616
7.885727346
9.261937799
4.57530289
-5.256760727
-5.9255937
-8.482641538
-17.96237973
-20.6056573
-21.04847665
-30.05388744
-34.56558575
-32.9634808
-41.38029461
-47.62645343
-44.07318991
-51.77679966
-59.60636776
6.244467676
7.456259968
3.565249722
-4.389838738
-5.037527263
-7.000466331
-14.67464999
-17.11695095
-17.1741478
-24.47285695
-28.61545595
-26.8329445
-33.66608514
-39.39054223
-35.85409478
-42.11707692
-49.28792621
4.781375454
5.863672488
2.683041704
-3.546612667
-4.177009297
-5.591796824
-11.60626729
-13.88902123
-13.56637237
-19.29490534
-23.14432866
-21.14918468
-26.52452688
-31.83234854
-28.2482415
-33.19145083
-39.82655409
3.456725551
4.438649131
1.90009495
-2.722105136
-3.338927608
-4.24050876
-8.708413551
-10.86760604
-10.16566733
-14.4294349
-18.0525806
-15.81149932
-19.82456531
-24.81298455
-21.11379089
-24.81761576
-31.05493744
2.237086111
3.143138157
1.192525044
-1.911389933
-2.518313723
-2.932048496
-5.937701137
-8.005391791
-6.919101164
-9.795236402
-13.25217599
-10.72939513
-13.44856727
-18.20452382
-14.324569
-16.84906067
-22.7952461
1.095563193
1.94535103
0.5401451967
-1.111386245
-1.710388311
-1.654948568
-3.257032593
-5.260390679
-3.781043914
-5.321100529
-8.664274458
-5.823102929
-7.291068346
-11.89263017
-7.766668337
-9.148879229
-14.90570176
-0.1841877318
0.8226564418
-0.2769780564
-0.5181901527
-0.9109150995
-0.5973753707
-0.8407158847
-2.595492236
-0.9236831847
-1.177088282
-4.218671428
-1.262983029
-1.52560785
-5.772915299
-1.615591632
-1.918995473
-7.248131756
-820.0211742
-809.1618525
-758.4705982
-841.6949235
-935.0313933
-916.1043919
-1481.057914
-1477.725431
-1034.103115
234.3717724
480.6872264
-683.522766
-525.5167842
-597.8322967
106.9647894
29.34171353
164.5621201
-623.355027
-440.287347
-195.2139233
-898.1800719
-541.0918924
-707.0815139
428.4225877
452.1850721
-1154.381231
-1160.819878
-910.2289135
-1248.685373
-1274.437493
-1503.504078
-1500.421824
58.25839419
129.6029739
63.21242347
-153.8345063
-96.21734321
-16.74327306
-284.6150407
-494.3746084
-366.1346261
-586.6576968
-517.2644139
-387.7342521
-831.6275217
-658.2632189
-715.7309474
-1123.608226
-1074.808115
-1078.750114
-255.0015241
-315.9589579
-303.409143
-502.0752299
-476.841472
-335.1738851
-1236.515668
-1230.551175
-1171.403863
-1224.911093
-1323.847689
-1343.010627
-1333.218155
-1328.157706
-1232.805561
-1424.577229
-1426.584266
-271.1584243
-182.2601971
-234.8804267
-156.4301195
-200.0262398
46.58262052
-75.27095237
148.474926
138.3461913
338.4523966
-137.2485215
-10.97762129
22.89114321
-138.3836191
-66.48966521
-202.000643
-974.3022071
-955.0458179
-865.898225
-1138.422917
-1045.753181
-1061.308198
-1015.271443
-1029.843564
-1126.367014
-181.4500152
-82.62184813
-7.81872082
-273.4227105
-171.5321789
-265.9741315
115.9160198
-65.32225577
-174.7803149
448.5834515
568.0957052
543.5926519
-1447.587683
-1444.965267
-1382.330526
199.4355374
124.2398482
329.1692648
267.9210453
344.2435896
125.594156
195.7091419
255.2430006
-1069.215733
-1071.067053
-1120.071788
-955.1220363
-1008.999221
-991.5251609
-1025.681173
-1019.027738
-963.9377799
-558.3675163
-541.488718
-494.1110434
-663.3831708
-587.4644934
-611.5438978
-356.2141485
-335.19772
-281.7135482
-436.5573322
-384.5401074
-406.2754367
-1345.99296
-1296.145482
-1293.49489
-1221.773353
-1416.59894
-1479.061871
-1387.013288
-1404.958675
-1231.690657
-913.5259313
-860.8958647
-870.8042495
-836.673817
-850.4473029
-905.3345697
-744.8210856
-795.239862
-778.8245122
-1396.190374
-1448.939571
-1449.386788
-1449.655123
-1449.387274
-1400.023354
-1498.769832
-1498.245752
-63.44780616
-112.3315487
-164.5638239
-137.0714961
-90.35011645
-229.0889225
-181.0039857
-206.5771506
-1051.054296
-1017.528223
-981.4728898
-949.8958997
-922.0704709
-899.7354131
-629.1291003
-661.3841453
-750.3086324
-817.8908178
-874.8965904
-1040.518362
-984.7515236
-1003.635152
-1111.680341
-1030.752306
-1030.917262
-1101.368503
-1016.405174
-1007.969711
-1057.595777
-896.7863743
-890.5269948
-954.0644216
-872.5537945
-854.0820844
-902.8966719
-836.8448797
-823.3388052
-860.8307853
318.5959791
199.4286971
162.0616088
-314.0504374
-408.1324439
-495.7214411
-610.8860979
-658.3256789
-731.6547867
-757.5053699
-778.964142
-835.8176359
-817.084224
-822.7396009
-867.281906
-751.9587584
-767.0551037
-828.0441608
-762.2043997
-755.3192264
-804.574445
-747.7373989
-740.9945819
-781.1260512
260.724124
155.6807122
154.4782743
-119.5384731
-198.5372911
-234.5946834
-392.4310288
-443.1601618
-486.3061634
-561.6363988
-590.8937674
-632.227154
-652.540177
-665.3924248
-701.7681259
-626.2189738
-653.7982069
-708.6850925
-658.4710877
-660.8106336
-707.2231972
-661.1709751
-660.4776748
-700.3107958
188.1043897
125.6535881
136.3389834
-62.36946265
-120.8994212
-132.9963123
-276.7156082
-321.2868393
-345.7889182
-430.8199582
-459.3678516
-487.8259869
-523.8754852
-538.8950805
-567.8067798
-521.8334871
-555.3498861
-602.6772344
-566.0773337
-574.5036424
-616.5060604
-580.4396236
-584.3645071
-622.0629735
123.2730889
81.47385502
92.45883042
-52.55933295
-95.97642929
-100.0549938
-215.0317801
-250.2341558
-264.9666138
-340.331417
-365.0195625
-386.3641485
-423.7050445
-439.2739619
-462.0368498
-435.925519
-471.2862138
-511.6511713
-485.4729736
-497.5778733
-534.9123026
-507.0111101
-514.1896649
-548.8616434
76.78820793
44.43719577
52.23196707
-53.90119657
-85.43615578
-87.72703545
-174.7930602
-201.5853144
-212.7452857
-271.8185318
-292.1846604
-308.5279344
-345.2806336
-360.4410755
-378.2527866
-365.9131209
-400.1984395
-434.1561108
-416.14499
-430.2117668
-462.7044667
-441.669774
-450.7591116
-481.9572475
51.09581337
25.92273765
28.58259673
-48.54846844
-72.4087692
-76.44856985
-140.5506097
-161.7767785
-170.6737388
-220.2895875
-237.9699021
-250.056435
-285.4355163
-299.4309532
-313.2999801
-309.3573033
-341.0334561
-369.2377622
-357.5196114
-372.0975779
-400.0788515
-384.3438496
-394.3228797
-422.007547
40.60567246
20.34664871
21.53709512
-39.5292012
-58.97077731
-61.90271006
-114.859991
-132.5046334
-139.0159025
-181.9335035
-197.1543588
-206.3650376
-238.858304
-251.4313896
-262.4227276
-263.1469518
-291.8796354
-315.3214479
-307.9645762
-322.1339944
-346.1872635
-334.353755
-344.4947355
-368.9642739
32.62397026
16.01135267
17.0008863
-33.23818348
-49.28842284
-51.44820047
-95.7296223
-110.5222086
-115.4874632
-152.431049
-165.5051742
-172.7267227
-201.840604
-212.965109
-221.8352135
-225.0544591
-250.8873071
-270.5025757
-265.8549975
-279.1483372
-299.8549736
-290.8479629
-300.6737914
-322.2230678
26.42009144
12.57007067
13.35589268
-28.51702462
-41.9306592
-43.60459831
-80.91148931
-93.40299028
-97.32024521
-129.0745224
-140.3058431
-146.1108826
-171.8407757
-181.6042269
-188.8835431
-193.2502353
-216.2013228
-232.8362934
-229.8292488
-242.0552498
-259.9411155
-252.949523
-262.1795153
-281.1428022
21.52352856
9.850291925
10.47162851
-24.76519272
-36.07664966
-37.42932289
-69.04304423
-79.65079166
-82.83206247
-110.1134787
-119.7685802
-124.5392748
-147.0815334
-155.607712
-161.6790736
-166.3692254
-186.6197886
-200.8390645
-198.8484249
-209.9079705
-225.4293861
-219.8495054
-228.3328719
-245.0364325
17.60307332
7.697994173
8.189964307
-21.65209462
-31.248383
-32.37748459
-59.2706782
-68.3134465
-70.95969546
-94.38609033
-102.689606
-106.6853349
-126.3093043
-133.7276757
-138.8658355
-143.3893399
-161.1641709
-173.427947
-172.0196154
-181.8995538
-195.4422285
-190.8378624
-198.5085069
-213.2534668
14.42788031
5.99256124
6.382562759
-18.98385365
-27.15305732
-28.11980849
-51.04046333
-58.76469802
-61.01019316
-81.10025839
-88.23865769
-91.64052973
-108.6276947
-115.060576
-119.4660466
-123.5353634
-139.0707288
-149.7381795
-148.6226429
-157.358529
-169.2430931
-165.2994385
-172.1448306
-185.2020715
11.8308319
4.639882508
4.949294442
-16.63987741
-23.60159121
-24.44617598
-43.97782706
-50.57652219
-52.51408737
-69.69819962
-75.82538528
-78.76320385
-93.38008049
-98.9376734
-102.7595795
-106.2138683
-119.7357206
-129.0906076
-128.0733502
-135.727127
-146.2188994
-142.7087636
-148.7485133
-160.3561489
9.687894548
3.566448768
3.812026176
-14.54186246
-20.4669439
-21.21692558
-37.82128135
-43.44761287
-45.14370777
-59.77779245
-65.02078753
-67.59025822
-80.07738416
-84.8565351
-88.20835484
-90.9584548
-102.675517
-110.94755
-109.8937387
-116.5388108
-125.8618752
-122.61534
-127.8869745
-138.2570359
7.904463939
2.714424844
2.909336984
-12.63607714
-17.65938444
-18.33448956
-32.38035105
-37.15702227
-38.66085341
-51.03835336
-55.50189923
-57.77560541
-68.34340054
-72.42773205
-75.39788801
-77.39689544
-87.49643779
-94.87230622
-93.68791001
-99.39998822
-107.7426753
-104.6317421
-109.1810764
-118.4991091
6.407368328
2.038295396
2.192960919
-10.88412642
-15.11332303
-15.72828753
-27.51248786
-31.53853484
-32.88776907
-43.25010132
-47.0204982
-49.05511668
-57.88344372
-61.34410991
-64.00347972
-65.22380703
-73.87512701
-80.50870865
-79.12575955
-83.97660446
-91.49950176
-88.42334458
-92.29814617
-100.7285868
5.138756554
1.501731922
1.62449291
-9.256852974
-12.7783307
-13.34466157
-23.10652695
-26.46206564
-27.68650867
-36.23108837
-39.37911794
-41.22008478
-48.45870417
-51.35456181
-53.76146718
-54.17680832
-61.56050107
-67.56500149
-65.92857621
-69.97949768
-76.8224437
-73.69738041
-76.94475556
-84.63222259
4.052297495
1.075695978
1.173211839
-7.731283587
-10.61449479
-11.14132873
-19.07394698
-21.82385838
-22.94730387
-29.83560376
-32.41948696
-34.1030579
-39.87787614
-42.25815126
-44.45773725
-44.07557298
-50.33442579
-55.82975006
-53.83697676
-57.15285703
-63.44071251
-60.19341992
-62.85636263
-69.93627209
3.110084821
0.7366987936
0.8143998805
-6.288006053
-8.588378636
-9.083640652
-15.34088037
-17.53729534
-18.58021996
-23.9418442
-26.00939127
-27.56696851
-31.98373423
-33.89256623
-35.92364451
-34.74939168
-39.88901405
-45.03711288
-42.61710758
-45.2687399
-51.11115665
-47.68078235
-49.81289175
-56.38079817
2.280763288
0.4655815167
0.5279052685
-4.909932182
-6.670988262
-7.141577607
-11.84359918
-13.52748881
-14.50770468
-18.44298515
-20.03190639
-21.4916257
-24.63033819
-26.10227581
-28.00422257
-25.98322941
-30.05343891
-34.89487154
-32.11599287
-34.12436812
-39.6211684
-35.91827015
-37.52344695
-43.79002506
1.538208542
0.2466303993
0.2972263256
-3.581761374
-4.836796947
-5.288836571
-8.526187094
-9.728561121
-10.66185532
-13.24379183
-14.38213519
-15.7691783
-17.68345207
-18.74261107
-20.54917759
-17.64275702
-20.72736511
-25.33791265
-22.15768698
-23.5522656
-28.77954938
-24.79307956
-25.86163596
-31.75814096
0.8607598558
0.06680391935
0.1087648959
-2.290055765
-3.063335132
-3.502053315
-5.339051593
-6.081914368
-6.982164154
-8.258863243
-8.965858203
-10.30273783
-11.02344966
-11.68633872
-13.42851067
-9.583569254
-11.76471921
-16.19076302
-12.59475956
-13.3901763
-18.41797488
-14.09288211
-14.82391519
-20.31989299
0.2196365338
-0.09629480688
-0.04825372529
-1.032332629
-1.339464339
-1.760654708
-2.245765859
-2.542884505
-3.415040268
-3.41861901
-3.704991233
-5.005169232
-4.546020284
-4.820318414
-6.520498408
-2.034079464
-3.608522908
-7.243233776
-3.891747377
-4.170930067
-8.281263075
-4.509101111
-4.943309028
-9.159375185
-1233.837196
-1217.301357
-1092.342116
320.5851891
416.5892535
454.2822905
-710.8711929
-665.8037927
-671.2454526
-973.1641048
-861.7323504
-896.8506789
-1430.988882
-1432.961293
-191.3904416
-261.4420712
-208.8248472
-1190.991217
-1243.838949
-1239.92171
117.2181863
69.813481
-1089.015232
-1088.868376
-1141.445128
1.409599839
-56.88202912
-125.9012196
197.0230356
153.7493764
-1225.379974
-1345.747722
-1367.041795
-1299.762108
-1323.092177
-1216.074089
-1175.681936
-1251.885247
-1275.861144
-1204.554931
-1228.225625
-1159.89186
-1107.669161
-1157.792401
-1181.077341
-1111.665609
-1134.666815
-1089.17213
-491.8988601
-575.1233227
-538.4083866
-642.4800369
-609.9559803
-529.4568581
-778.3724233
-692.9180974
-722.7640728
-602.5383133
-728.4502679
-653.895441
-837.8164092
-790.3940507
-673.735646
-1070.156832
-922.6923245
-958.0307736
-813.777567
-904.2574887
-875.3310088
-942.9506144
-926.4164381
-843.2659536
-1114.095116
-1016.804839
-1025.533952
-896.708204
-962.2230716
-954.74695
-966.7692631
-966.6997022
-905.8816944
-1092.883048
-1027.910721
-1022.93378
-912.2333921
-959.534787
-963.8856615
-945.0014857
-953.1152134
-909.2148431
-1043.49495
-997.9722316
-986.5441927
239.8262979
223.8299533
332.3541744
50.09630765
92.52619397
-3.770625128
-280.1848907
-337.1637827
-244.9501781
-484.4497206
-416.3792806
-357.8869782
-572.7869241
-487.4138296
-554.0969935
-536.2385812
-593.4221667
-543.439026
-671.8581532
-635.9165057
-580.5637557
-767.0715466
-697.8503335
-730.7112766
-677.2406636
-725.9797576
-701.6612114
-761.006087
-745.6685161
-699.2063831
-848.9225248
-795.6912147
-808.2939757
-739.9044398
-780.2299952
-772.3317932
-787.3255025
-785.2351396
-746.7143801
-866.3421002
-825.4896676
-824.9639456
330.0048805
350.0586116
145.4176
152.4403369
245.6598316
-17.96764946
66.01974064
67.84501
44.57804526
58.56943781
-33.63720354
-149.1605337
-170.5481379
-96.9859276
-300.3820104
-238.4216324
-212.8158893
-309.8606226
-270.4327269
-335.007271
-373.8623755
-406.0122156
-356.2952774
-489.3175803
-450.1824081
-417.0671159
-531.3407375
-488.0623905
-527.4739916
-519.0096668
-553.2513528
-523.5906714
-599.7542222
-578.5511186
-544.5015144
-655.8635176
-615.5972086
-636.0608768
-598.4568562
-630.9416241
-617.1160634
-649.5169242
-641.5007088
-609.7986982
-710.0620056
-674.949554
-681.7307618
232.5929017
254.3997094
103.6285249
114.6972509
170.512776
0.3410721899
57.2069783
50.33524892
68.07999258
63.01687942
-1.026907343
-105.3131754
-111.9086405
-57.77090505
-212.2250117
-163.4919451
-153.1778792
-192.4828406
-176.3428854
-228.359481
-281.3979473
-299.9929332
-257.7862643
-374.0214439
-338.7821355
-318.145625
-387.9223921
-361.961142
-398.4659077
-409.0706752
-433.2757097
-405.5007334
-478.619861
-457.592994
-432.7265309
-513.1746034
-484.2919431
-505.7418199
-486.0723185
-511.6622915
-496.5342189
-536.0712038
-524.6723153
-499.4733966
-579.78259
-551.4228101
-562.1899391
152.8666475
171.1138285
61.12837732
70.94769376
109.8204029
-12.32964855
28.66662119
22.06230514
43.07335284
35.75526049
-8.751048917
-90.1034318
-92.77978357
-52.97352336
-168.7595876
-131.6579862
-126.2445967
-144.6872952
-137.6223998
-177.4572336
-224.4161104
-236.8234147
-203.855265
-295.802002
-267.508117
-253.1606237
-299.667769
-282.9114659
-312.957908
-326.1602242
-344.9958987
-321.639691
-384.8345146
-365.9346256
-346.2917362
-409.2766167
-386.9874722
-406.3832706
-397.291567
-417.6538935
-402.0368584
-444.5448429
-431.7656422
-411.433551
-475.7412573
-453.232269
-465.7822623
97.9136355
108.7736949
32.58493355
37.87043173
68.31779984
-23.40912772
6.954656667
3.885646637
16.14610639
11.06152078
-21.49819499
-80.17526524
-83.20628631
-53.2047754
-139.4366852
-111.9013745
-106.7163839
-121.4496901
-116.7294895
-146.4390854
-180.345042
-190.7549351
-165.8016031
-236.4585332
-214.2726783
-202.6839027
-239.6208321
-226.673897
-250.037743
-263.0550767
-277.0611987
-257.3801705
-312.7588988
-295.5150222
-280.9427786
-328.0813682
-311.1923334
-328.8781154
-328.0453239
-343.7342031
-328.8205062
-370.3080292
-357.5346053
-341.6472519
-392.3294391
-374.4049755
-387.2535848
71.24408184
75.62127731
22.7553993
24.15054456
47.93569341
-22.91600083
0.550914904
0.4241464258
1.761918148
1.004136016
-24.00877581
-65.09641579
-68.59279539
-45.96608736
-112.3778653
-90.77601591
-86.17237284
-101.1925926
-95.78830787
-118.5378756
-146.0248531
-153.5882666
-133.3342562
-191.7912793
-173.0879686
-164.6745078
-192.0040572
-182.169797
-201.6840089
-216.1960607
-226.7082926
-209.670521
-258.2292213
-242.8951184
-231.8305971
-267.3731099
-254.7182757
-270.5367473
-274.0511928
-286.3686582
-272.716501
-311.24514
-299.1976697
-286.5876523
-326.6663889
-312.5406279
-324.7942485
57.57113817
60.77925
18.05083814
19.17080848
38.40900531
-18.97432899
0.03714137815
-0.1561785629
0.3575209932
0.2214822903
-19.77493473
-53.76763391
-56.26754146
-37.76148581
-92.22209269
-74.4394631
-71.0949403
-81.94329412
-78.04496082
-96.69090412
-120.7821901
-126.4414692
-109.5704269
-158.6119178
-142.7990531
-136.4526585
-156.8602048
-149.5859849
-166.0709676
-180.3814422
-188.5093799
-173.8550152
-216.0002996
-202.56086
-193.9336725
-221.4585984
-211.7198596
-225.6219687
-231.1782637
-241.0309457
-228.8236411
-263.6198256
-252.6242758
-242.4499504
-274.6512862
-263.3468097
-274.6037843
46.80028646
49.24218302
14.18989299
15.07479258
30.92820427
-16.41064248
-0.7203026421
-0.9002221973
-0.346413597
-0.5346329476
-16.97271054
-45.38091594
-47.27113768
-31.94065706
-77.17709871
-62.36167902
-59.81195329
-67.98316975
-65.07903192
-80.57100333
-101.4644671
-105.857119
-91.68552946
-133.0853619
-119.6651427
-114.7114493
-130.5053309
-124.919875
-138.8967612
-152.2279951
-158.6832032
-146.0970318
-182.5256837
-170.8297506
-163.9368109
-185.7949378
-178.1047825
-190.2190161
-196.5191711
-204.5372102
-193.7633178
-224.692827
-214.8439746
-206.5132262
-232.7814543
-223.5916876
-233.7108786
38.3913881
40.31149446
11.1304994
11.8291933
25.08859574
-14.50680355
-1.385580742
-1.527379769
-1.071691354
-1.233598743
-14.94091574
-38.85121803
-40.34911311
-27.50432328
-65.47421319
-53.01379319
-50.9888211
-57.41342023
-55.15159209
-68.15338748
-86.17508902
-89.69364418
-77.70783842
-112.8450141
-101.4121839
-97.43056791
-110.0330433
-105.6068195
-117.5031991
-129.5403554
-134.7894523
-123.9755235
-155.4192036
-145.2742038
-139.6455112
-157.3970529
-151.1841182
-161.6985479
-168.0228988
-174.6580939
-165.2161446
-192.465622
-183.7393808
-176.8137958
-198.5666749
-190.9848468
-199.9714917
31.69819108
33.2373143
8.711439636
9.264211619
20.46221034
-12.9635364
-1.890493491
-1.991082621
-1.658793445
-1.779790105
-13.32517841
-33.55565327
-34.78708442
-23.93622093
-56.05000885
-45.49738631
-43.83544566
-49.06681819
-47.23900203
-58.23363969
-73.72504396
-76.61858864
-66.42879964
-96.37467333
-86.60517673
-83.32486059
-93.64536513
-90.04153931
-100.2003817
-110.8553303
-115.211768
-105.9140739
-133.0405176
-124.257051
-119.5720481
-134.2783145
-129.1545005
-138.2615009
-144.215885
-149.7915451
-141.5543413
-165.4209731
-157.7459243
-151.9065033
-170.1835727
-163.8349413
-171.7516807
26.28628833
27.53736591
6.795850103
7.233823124
16.74682749
-11.633891
-2.234956584
-2.298001858
-2.081828012
-2.163013168
-11.95131827
-29.12274039
-30.16458597
-20.94898493
-48.24499932
-39.26738601
-37.86720127
-42.2467475
-40.72573486
-50.07074864
-63.34588028
-65.77800603
-57.08561185
-82.67592924
-74.31162409
-71.55248989
-80.18905153
-77.18770249
-85.8821744
-95.17705998
-98.85692609
-90.8607987
-114.2482235
-106.6554266
-102.6904475
-115.0850458
-110.7833968
-118.6590454
-124.0388846
-128.7892903
-121.6283379
-142.4379299
-135.7250571
-130.737662
-146.2973616
-140.9089578
-147.8420347
21.8531538
22.88280849
5.277122077
5.624512192
13.72988806
-10.43971854
-2.437337272
-2.468374364
-2.352511037
-2.398837305
-10.72832812
-25.31832151
-26.22000763
-18.37108354
-41.6319931
-33.97668115
-32.77180887
-36.52109454
-35.22537865
-43.19100022
-54.52155455
-56.60364628
-49.17713505
-71.06863746
-63.90351836
-61.54165138
-68.90264784
-66.35513401
-73.80312702
-81.80694199
-84.96338576
-78.09107378
-98.22890769
-91.67827
-88.27322331
-98.87855397
-95.21064822
-102.0091015
-106.7154177
-110.8134819
-104.6092417
-122.6786836
-116.8360881
-112.5260609
-125.9324968
-121.3028447
-127.3442083
18.17903212
19.03609529
4.07220396
4.347849625
11.25665409
-9.337735474
-2.520267536
-2.524968982
-2.492306972
-2.509492729
-9.606148127
-21.98845771
-22.78287031
-16.09474639
-35.92333292
-29.39466831
-28.34011311
-31.60826204
-30.48333029
-37.27778868
-46.89499301
-48.70476035
-42.36218982
-61.0761761
-54.94486954
-52.89311772
-59.26467731
-57.06728922
-63.44339672
-70.24424367
-72.98757694
-67.09240386
-84.39107042
-78.75570319
-75.7943491
-84.98907808
-81.81865456
-87.67202772
-91.66846498
-95.24291724
-89.88849685
-105.5091508
-100.4493825
-96.68554293
-108.3626066
-104.3403764
-109.5788753
15.1005131
15.82166183
3.115869376
3.334657012
9.211516284
-8.303176549
-2.505832249
-2.489367696
-2.523924413
-2.517447948
-8.55643056
-19.02685418
-19.73729585
-14.049111
-30.91799426
-25.36197608
-24.42540007
-27.31768647
-26.32554223
-32.11214163
-40.20902698
-41.80366918
-36.40023039
-52.35469152
-47.12349352
-45.31728157
-50.90807107
-48.98601117
-54.43116974
-60.11769379
-62.53134497
-57.49225041
-72.29461282
-67.46705474
-64.86084515
-72.92915617
-70.1549831
-75.17538501
-78.4565302