/*--------------------------------*- C++ -*----------------------------------*\
| =========                 |                                                 |
| \\      /  F ield         | OpenFOAM: The Open Source CFD Toolbox           |
|  \\    /   O peration     | Version:  v2012                                 |
|   \\  /    A nd           | Website:  www.openfoam.com                      |
|    \\/     M anipulation  |                                                 |
\*---------------------------------------------------------------------------*/
FoamFile
{
    version     2.0;
    format      ascii;
    class       volScalarField;
    location    "3.2";
    object      nut;
}
// * * * * * * * * * * * * * * * * * * * * * * * * * * * * * * * * * * * * * //

dimensions      [0 2 -1 0 0 0 0];


internalField   nonuniform List<scalar> 
3259
(
1.120678318
1.113599625
1.156608088
1.156434625
1.156281602
1.156174455
1.156089877
1.156055863
1.155823131
1.155830749
1.155852727
1.155879488
1.035084955
1.018757141
1.085305493
1.157443493
1.156635616
1.156012273
1.155522423
1.155289486
1.15496023
1.15497869
1.155041576
1.155121083
0.8146899095
0.8036018387
0.8660092843
0.99978389
1.157747513
1.156304516
1.155227975
1.15467383
1.154181519
1.154143066
1.154221774
1.154349953
0.5457998017
0.5550575321
0.6169162544
0.7303894812
0.917398216
1.157546766
1.155462101
1.154340168
1.153475644
1.153363049
1.153425412
1.153585616
0.3288053636
0.3435225187
0.4111409155
0.5175311096
0.6773634429
0.9314711783
1.156530869
1.154402634
1.152993734
1.15262947
1.152629436
1.152802736
0.1633832602
0.1902881552
0.2641482752
0.3685037578
0.5120102138
0.7281194242
1.075861089
1.154954841
1.15268086
1.151971302
1.151849905
1.152005683
0.05980957351
0.09408854305
0.1727799881
0.2732992744
0.4048914694
0.5910305831
0.9132668567
1.156069593
1.152560684
1.151370951
1.151059658
1.151170307
0.05329436167
0.1303016643
0.2230424507
0.3434010811
0.5116407422
0.8023396658
1.157598476
1.152693726
1.150885376
1.15030296
1.150333373
0.0640947376
0.1265858014
0.2078896976
0.3173700682
0.4704477923
0.7388725722
1.095290909
1.153052466
1.150522994
1.149610516
1.149537386
0.08944999795
0.1429554484
0.2166796308
0.3185345894
0.4602763075
0.7101317089
1.034451057
1.15367733
1.150383731
1.149086585
1.14888076
0.1213718425
0.1719604562
0.2426409872
0.339756002
0.4745418378
0.7107472166
1.002616164
1.154517659
1.150460058
1.148775022
1.148428832
0.1580928146
0.2127446138
0.2853593987
0.3813109031
0.5122561836
0.7370172972
1.003253397
1.155593582
1.150824399
1.148749627
1.148253589
0.05706926332
0.04611480415
0.08170256463
0.05996531871
0.1146684517
0.08559760495
0.1449718262
0.1195126043
0.1488236659
0.06010979918
0.04766348331
0.08925596766
0.02913623571
0.01979684703
0.06163131278
0.1074777735
0.1106503545
0.03398907212
0.04945929753
0.0861216295
0.1225931951
0.1097137699
0.05890583497
0.04229485759
0.1172805916
0.1501154449
0.1285283878
0.1073445598
0.07963581292
0.01989762453
0.1360523233
0.1312331918
0.04819544876
0.03036307136
0.04920040821
0.03220255122
0.04691731509
0.04187707433
0.03381868898
0.07132748176
0.04947608202
0.05607652214
0.04819386545
0.04970587856
0.06988631594
0.07594564822
0.0603174103
0.1022554983
0.08135688077
0.1037101352
0.05662031215
0.07847053965
0.09789619037
0.1302790219
0.1116122676
0.01406960709
0.01263024129
0.1377484588
0.02254032019
0.01826972939
0.008507976656
0.009162803231
0.1511285823
0.1862866749
0.15837614
0.01044383019
0.06484869403
0.05639670713
0.02269143788
0.03051200102
0.04770872098
0.054663783
0.03931199037
0.1338871568
0.1245354253
0.1324106631
0.1073046635
0.1233271299
0.1307307695
0.02371166674
0.02000332602
0.03107054002
0.0225661083
0.01745253887
0.02328379596
0.02115847381
0.0101313338
0.01690297742
0.02203196746
0.04300158741
0.04367915489
0.05071796544
0.04955092054
0.0198238618
0.01009269227
0.09504500845
0.01670883949
0.03064102346
0.009382393605
0.01415532279
0.09097886756
0.08210659328
0.06927729871
0.01037307383
0.03882271353
0.03820628462
0.04005957755
0.03974190788
0.05328225523
0.06856482359
0.06396617016
0.07495606001
0.070166977
0.05360304887
0.05795800028
0.05634299823
0.05127072389
0.0623215163
0.05774660209
0.0580131647
0.07176250094
0.009203272354
0.07036682599
0.03270161658
0.04839363454
0.1238644997
0.03659270164
0.02132753578
0.006911467717
0.08659814992
0.00346845343
0.02072889455
0.01549500806
0.005950112462
0.01365375591
0.0107748986
0.009811181095
0.008760772026
0.01299432769
0.009155547672
0.03662992756
0.01571649191
0.01471826271
0.04667474353
0.05494672196
0.01628459191
0.02226956378
0.01051016286
0.01056366486
0.04421657541
0.04514920298
0.01783424718
0.0158425568
0.03770949391
0.04330846463
0.03909906244
0.04967528874
0.04479601793
0.0390600232
0.04095841564
0.01083527667
0.01056213926
0.03533589864
0.02363069151
0.02582831322
0.06425887278
0.09029471808
0.1022551617
0.09457034438
0.0633643478
0.08252374775
0.07683833654
0.09177286706
0.08476379454
0.06457164317
0.1280665764
0.05092242209
0.06871034057
0.01082916506
0.01222472147
0.006287779611
0.01200385813
0.009245705514
0.009096027344
0.03037406164
0.02325060617
0.006783125604
0.01121547744
0.007329709029
0.011688316
0.01079877236
0.01421246106
0.04618031151
0.01007537351
0.009611187987
0.01726408751
0.02171385531
0.01843947845
0.02974766204
0.02307970726
0.0180394934
0.01619865445
0.01260306769
0.01351353452
0.01057292882
0.03872323537
0.04593851478
0.01444570747
0.01361625476
0.01523410807
0.01578098248
0.0535953434
0.009742159528
0.009901633053
0.01274474411
0.00991702746
0.009965665416
0.0454753623
0.01017963088
0.01493064449
0.01358049734
0.01225517525
0.02209460985
0.05742617407
0.05210905565
0.01123358848
0.04274713656
0.03657480901
0.05017174521
0.04494627715
0.01175442222
0.01180694991
0.03994598732
0.03312130276
0.0248820931
0.02360527953
0.04378954164
0.01701214766
0.01714903535
0.0135305914
0.02476600323
0.02924182541
0.01784594014
0.02498904476
0.03441554503
0.03404619037
0.02609234151
0.01127243825
0.01094977601
0.04070257083
0.03682889702
0.01097261039
0.01140458194
0.02669859931
0.02260657727
0.0347848236
0.02894732189
0.007275802463
0.01438912702
0.01347008001
0.02110458326
0.01485964503
0.006518868596
0.03007929582
0.009502418482
0.009983993163
0.00947792218
0.02793646486
0.01035607846
0.05480733802
0.1163987361
0.1507706609
0.01005348348
0.009989887519
0.1973582191
0.006681921366
0.1367177815
0.1424359631
0.1594991914
0.004885072348
0.007669879395
0.005674863541
0.004889917519
0.005903991756
0.004615033717
0.05865986532
0.03671409848
0.02301095114
0.02600116326
0.02320871788
0.02712472365
0.04896800884
0.04236453184
0.01312246174
0.0729784307
0.08578767537
0.1339592627
0.0286472659
0.03418910197
0.0330465995
0.01077697964
0.01157070979
0.01064077041
0.0105327316
0.05084283719
0.01540105033
0.00941541151
0.01180995104
0.01103599088
0.0104076419
0.0253796259
0.03160664679
0.06444861751
0.03777310026
0.03452847267
0.02542464634
0.04841632181
0.01649125136
0.02299214588
0.0238500582
0.01506369563
0.01025270363
0.02042242639
0.01981249882
0.01812573387
0.01658906059
0.02024455961
0.01812607787
0.01081382473
0.01154757044
0.006629464544
0.009240734426
0.0109862828
0.06479485305
0.05917422794
0.02403680085
0.009177306269
0.01464824353
0.01321241344
0.01086113093
0.01520971684
0.01338285815
0.009265578895
0.009303162151
0.01276257794
0.01216585633
0.009217985802
0.009208350524
0.007798899562
0.06563332112
0.02688424486
0.03309965355
0.01041937772
0.01020357909
0.01022330127
0.01067060065
0.01110658138
0.01708817227
0.006497826075
0.004201463829
0.007845540561
0.01214866021
0.009829321199
0.01038149351
0.009786943156
0.01000585885
0.01107255716
0.01034555858
0.00685386212
0.005345850808
0.01350900914
0.01391114174
0.01306694369
0.01318267353
0.01525814727
0.02332365036
0.02364969954
0.02287447687
0.02315629855
0.01511683324
0.0103967717
0.01790937854
0.01788095952
0.01850514508
0.01805185179
0.01022045685
0.01692445269
0.02617092606
0.02905978057
0.0239475573
0.02471844129
0.01641240066
0.0108024317
0.01786994749
0.01786073145
0.01782892966
0.01786998667
0.01065723746
0.01259402762
0.01284999072
0.01213064567
0.01276334499
0.01061836071
0.007181393874
0.01056830558
0.01091763909
0.007132500856
0.01018927275
0.009712318053
0.01507979826
0.004137680631
0.009142007163
0.007127429413
0.005618759609
0.006854184882
0.009244923984
0.006861834568
0.01022946076
0.01067492002
0.01029419483
0.008493692578
0.009840409537
0.006563940955
0.009850323264
0.02142258574
0.02123019212
0.02134565237
0.02695174114
0.02656557668
0.0207719019
0.01936976969
0.02069985676
0.0128913889
0.02064014616
0.02190710774
0.01493695484
0.02069647805
0.01374145281
0.01416234921
0.02242802406
0.02269648972
0.02192695537
0.02230161962
0.0139640249
0.01540747359
0.02678276116
0.02631325916
0.009825615519
0.00986071649
0.01111999973
0.009140031382
0.009431677364
0.009638164412
0.009871805661
0.009526541596
0.01211230155
0.02213519793
0.01981607445
0.02558404938
0.02426429712
0.01401858182
0.009244811552
0.01009187741
0.0159085398
0.006515849338
0.009362770327
0.009338400845
0.01178825195
0.009260137653
0.00947096036
0.01924183189
0.01710759286
0.0100597685
0.0248094884
0.03543753771
0.03595779541
0.03225943326
0.03334325017
0.02339057676
0.01617301276
0.01736336621
0.02638829225
0.01883312693
0.01791749475
0.02002430075
0.01902521286
0.02678202536
0.0183116035
0.01899248838
0.01511577685
0.01960811486
0.01115665468
0.01789287113
0.01790886785
0.01789229089
0.01791329977
0.0111087254
0.01143911917
0.01658942106
0.01440552692
0.01780816556
0.01749030446
0.01143452153
0.009216974308
0.009452584667
0.009074606187
0.01158769493
0.01026320691
0.01403612889
0.009478284305
0.009417111868
0.009469978017
0.009470871333
0.01386595068
0.01888775501
0.0105493496
0.01207199982
0.009591031244
0.00935934818
0.01634285959
0.009715923803
0.01187527445
0.01138253203
0.01518644744
0.01296512078
0.009685695399
0.00937332687
0.009573421851
0.01077071036
0.01011112273
0.006479663424
0.01057488861
0.8784820587
1.044481434
0.8826244759
0.8575348141
1.017899277
0.8633321039
0.9077639842
1.071372361
0.9270234809
1.030403566
1.157693349
1.067069017
1.157716689
1.156815117
1.157329542
1.156401361
1.156145618
0.618757705
0.8196895162
0.6085653692
0.6085351549
0.7980899626
0.6155339986
0.6569321623
0.8455986112
0.6769527043
0.7588754171
0.9608902714
0.7940212024
0.9329050169
1.158136207
0.9924314823
1.157615122
1.156600149
0.3884678495
0.5565623941
0.3790664458
0.3821809423
0.5473916801
0.3910825137
0.4358507334
0.596982484
0.4560055698
0.5330953363
0.696538672
0.5638227313
0.6830195426
0.8632533609
0.7309548694
0.9047898295
1.121722424
0.2030948897
0.3354551561
0.198803535
0.2115103605
0.3337982424
0.2229938635
0.274198394
0.390624031
0.295031395
0.3710912922
0.4855547064
0.4004079154
0.5053578294
0.6316743436
0.547163682
0.7010978172
0.8458469402
0.07190683043
0.168172711
0.07181229975
0.09988450271
0.1775574481
0.1128515444
0.1691717114
0.2427727037
0.1909328702
0.2650505569
0.339344657
0.2926076274
0.3887115288
0.4713511706
0.4265251423
0.564522662
0.6621538647
0.02920110464
0.03801585156
0.06420052845
0.07230814709
0.09587867916
0.1121517205
0.1366544038
0.2060921032
0.2461609865
0.2320584129
0.3209616576
0.3679716898
0.3553241096
0.4787185953
0.5379614122
0.05391573615
0.07674942547
0.07971288241
0.1251492434
0.1857375727
0.1977359444
0.2090577529
0.2898504752
0.3098457667
0.3211650501
0.43395819
0.4632228837
0.0733027891
0.08992475175
0.08369931494
0.1375251217
0.1915397736
0.1852156351
0.2123057697
0.2864418696
0.2867681643
0.3162327379
0.4226750599
0.4272343129
0.1009191529
0.1160060792
0.1056162578
0.1636768972
0.2148501336
0.1959318067
0.2347595806
0.3049332906
0.2899422173
0.3323930483
0.4305873931
0.4212730856
0.1337137475
0.1502986646
0.1370238961
0.2011483058
0.2529053901
0.2227957029
0.2728437294
0.3419819458
0.3125489573
0.3689652549
0.4629889523
0.437074365
0.1657557333
0.1828939906
0.1715196893
0.2653243059
0.3545275278
0.4752009885
0.05407675794
0.0477439358
0.05218251813
0.03859630103
0.0385925797
0.04573115061
0.07837038157
0.07339704726
0.07838494689
0.05374469343
0.05933709987
0.06227099352
0.1106927227
0.1080216203
0.112488274
0.08057302263
0.08541596242
0.08951769438
0.1419264697
0.1382395653
0.1405334207
0.116408351
0.1205225092
0.1236227
0.1428327363
0.1453532958
0.1515622223
0.003043497581
0.003716555433
0.003582789592
0.03113720754
0.003088159706
0.002786192381
0.05005447506
0.04241049046
0.03939932227
0.06883308738
0.04288650437
0.06444319995
0.02834061459
0.02757362596
0.02839633179
0.01707110262
0.01724879892
0.0200153219
0.08097237922
0.07801538671
0.05519603259
0.1066641348
0.09055041579
0.09226595287
0.09272913374
0.09062788639
0.1075580701
0.03437544081
0.02153650456
0.02133908073
0.03522605391
0.03450321293
0.04859806725
0.1016518436
0.09329651573
0.07518060689
0.1174544125
0.1046846052
0.1103723765
0.09543030806
0.09964655141
0.1131095014
0.05751642419
0.04506768282
0.04667674631
0.02963638237
0.02983725496
0.04274148745
0.1324801935
0.1203756253
0.104963369
0.1424001654
0.1313638562
0.1393335058
0.1167923135
0.1237928889
0.1351607234
0.103295752
0.07692992211
0.08105913252
0.04939238793
0.05439766781
0.08324997603
0.0298927676
0.02748240041
0.01734896207
0.1347192785
0.09037117143
0.1039270597
0.1203329311
0.1245425475
0.1309046178
0.04724104204
0.03734436139
0.03598099407
0.02944178409
0.03029875005
0.03103382155
0.04216777582
0.04615064954
0.05157131549
0.03396000432
0.0354975348
0.03374512687
0.04642223205
0.04474426156
0.04389793563
0.04155084561
0.02934933846
0.02943857243
0.02126986184
0.02125129958
0.03388417836
0.0665864846
0.07061990431
0.07961276504
0.05031658515
0.06608729783
0.06101571512
0.07534849304
0.07360602007
0.05478489422
0.05232085376
0.05009530333
0.04820864226
0.06022022693
0.05689482038
0.05224867194
0.06267754586
0.06012497995
0.06468496643
0.07251949399
0.04223658298
0.04768600056
0.04810690639
0.049334315
0.06161575038
0.09782613033
0.1039074509
0.106642523
0.08413274628
0.09679912551
0.09422353728
0.1101792106
0.1049789494
0.09366907416
0.05878199388
0.07891789199
0.07712478375
0.09155468745
0.08801065322
0.06936985709
0.0936062627
0.08825819295
0.09415358978
0.1304992022
0.1114716595
0.1158189609
0.08503336791
0.08922569856
0.1156692541
0.1086783569
0.0325492278
0.007384393544
0.009418672846
0.008996080085
0.1609646213
0.157968355
0.137605248
0.1762589752
0.1653077992
0.1749365141
0.1476626237
0.156019719
0.1671631064
0.06077445043
0.03397941697
0.04094789701
0.04684569502
0.04833511582
0.05876622152
0.02433716458
0.03324082278
0.03323256235
0.03209314394
0.03068439585
0.02878232887
0.04626032694
0.03890062143
0.04050019065
0.05250850692
0.04213919031
0.04420148054
0.027791115
0.03005846588
0.04140776207
0.1320938599
0.1356489669
0.1375950962
0.1292419877
0.1301524444
0.1312837133
0.1372827509
0.1339717677
0.1330866155
0.1173620524
0.1187321781
0.1140870823
0.1271588148
0.1210179241
0.1189165115
0.1272432368
0.1245289704
0.1280835889
0.01264910893
0.02087777368
0.01782325553
0.01710619132
0.02804539159
0.0174312108
0.02667211025
0.01223347023
0.01538502881
0.02503535371
0.02008138373
0.02238286231
0.02483348188
0.01119127363
0.01558531238
0.01393829275
0.01645074384
0.01499850764
0.01554955081
0.02067950052
0.01836226513
0.01941582185
0.03139308027
0.03019835024
0.04196581973
0.04446301974
0.03227617904
0.03160303571
0.03860202424
0.03935448805
0.05159341849
0.04835957965
0.03625637871
0.03762510277
0.06924623527
0.07308265426
0.09906286225
0.0189290193
0.02960442807
0.02729428254
0.04275564715
0.04085609236
0.02864734922
0.02495469517
0.02316866615
0.01273728478
0.08726634502
0.05639894068
0.05942945818
0.07774156012
0.0579223534
0.06215783787
0.04366634095
0.04859991808
0.07333357917
0.0389596325
0.04094169817
0.04036565443
0.03742979367
0.03629247666
0.03732477365
0.02898885522
0.02903004482
0.0402718193
0.03920522
0.0283270708
0.02880787692
0.06811954634
0.0663100564
0.05123872512
0.06720333012
0.06581555937
0.06751087965
0.06212472187
0.06283805836
0.06557214978
0.07336970098
0.07216370423
0.07381854063
0.06897358048
0.07054034542
0.0717337555
0.05443406818
0.07185896134
0.07007853776
0.05398368111
0.0519946726
0.05372033165
0.0546578075
0.0529305638
0.05465139577
0.04947630326
0.05120933033
0.05297776654
0.06087705588
0.06034893371
0.06111199804
0.05620218246
0.05840854359
0.05929557321
0.05379907327
0.0572637662
0.05601556806
0.03506872763
0.04014216181
0.07958813886
0.06864274416
0.05614848403
0.05753987539
0.03962238013
0.06592636162
0.066148243
0.07386620083
0.06993566051
0.04192699362
0.119915981
0.09359208717
0.0979702453
0.0343364555
0.02290326449
0.02529786975
0.0119655404
0.01322542277
0.02328070112
0.06659637846
0.01867892032
0.01135243366
0.01223978456
0.01134287726
0.008626776733
0.005901302331
0.009809855949
0.0135202201
0.007264651969
0.008913357622
0.009092526174
0.007742852993
0.007362062905
0.0111588602
0.007949370352
0.01095630361
0.005772952113
0.006853550543
0.009850550381
0.0234725485
0.02211685086
0.035182045
0.04767895408
0.03404930669
0.03344838779
0.04201588463
0.04345086024
0.05611080441
0.01772839011
0.03020727365
0.02866553099
0.0343714881
0.03230063827
0.02016885381
0.04338233276
0.03026588724
0.03098945257
0.04225874657
0.03931994462
0.04630548753
0.03986801746
0.03734512568
0.03574738256
0.04185229853
0.03916921686
0.04081151414
0.03598924479
0.03754594547
0.04052441714
0.04805582288
0.04608124575
0.0477857045
0.0424427761
0.04428390599
0.04647444481
0.04267734237
0.04307433973
0.04153129872
0.02916558211
0.02923613703
0.0412292059
0.03427721319
0.02162384761
0.0227612362
0.02446143936
0.0372263422
0.03602141007
0.03939423791
0.03834342654
0.02513728595
0.06292555724
0.05054063314
0.05170214504
0.1017342875
0.0993093332
0.08720672191
0.099886781
0.09804915329
0.1007160166
0.09263229822
0.09533646688
0.09703683858
0.08230701691
0.08064076624
0.059893303
0.08064289708
0.07914955667
0.08101125706
0.07555503741
0.07733873111
0.07862038156
0.08942376047
0.08745359629
0.08999221245
0.08300018641
0.08521086741
0.08688879041
0.06752074971
0.08601834569
0.08409617036
0.1024664716
0.1069147262
0.1292784496
0.05530058051
0.08220400292
0.07813119764
0.09099163046
0.08652318262
0.06469380066
0.01045647661
0.01033400028
0.01265576086
0.02820432147
0.01796780877
0.02005620337
0.01389679677
0.01597629598
0.02571190649
0.007445846075
0.01129706113
0.01953497537
0.01751912685
0.02412796067
0.02170481631
0.01242535358
0.04423041262
0.03245882013
0.03491166976
0.02030812391
0.02039564286
0.02312787327
0.01730019687
0.01891731941
0.01942355392
0.02468297855
0.02660460499
0.02492595774
0.01713565172
0.01539749105
0.01643306648
0.01465968652
0.0148684908
0.01644431751
0.01402744699
0.01361516023
0.01300009548
0.04053967719
0.02912133496
0.02625691183
0.03310026574
0.03253737351
0.0450780291
0.02778831985
0.02721934676
0.01551932253
0.05269978719
0.0401058913
0.04094177622
0.0324752175
0.03439210507
0.04686186688
0.03370366281
0.03180604614
0.02063796565
0.05571495237
0.04447133334
0.04640566535
0.03994158262
0.04223168024
0.05384946584
0.04075807583
0.02785668185
0.03004920704
0.02388122573
0.02557794554
0.03843505876
0.04860513481
0.03557799165
0.03760343566
0.0320610322
0.03372489932
0.04649093765
0.0123172874
0.02188879714
0.02072431861
0.01938438007
0.01715261801
0.01096736292
0.03807627248
0.02749147326
0.02991310778
0.02268327528
0.02509025592
0.03517302896
0.04207900526
0.04274712422
0.04476085977
0.03387806863
0.03534335506
0.03529147182
0.03089657363
0.03599637341
0.0345314083
0.03831450985
0.03720768721
0.02736784903
0.04049136
0.02908064197
0.02910652707
0.02506461311
0.02718594876
0.03823387612
0.02495560413
0.01374321552
0.01530702757
0.01266825344
0.01333211549
0.02374449886
0.03315234009
0.02147362781
0.02262075695
0.01779990283
0.01996768669
0.03119089851
0.01934653414
0.02089423007
0.03199983455
0.02562951057
0.01540039493
0.01761136447
0.08183025047
0.08659085737
0.06775621917
0.1246070416
0.1052613958
0.0960739342
0.1302929751
0.1159366829
0.1361521358
0.1843887032
0.1945087107
0.209405093
0.132959865
0.1432107967
0.1399907407
0.1475995585
0.1454329981
0.1393159658
0.005608037286
0.004004609999
0.00371997148
0.006791913576
0.005706457897
0.006323899875
0.004348293396
0.004423988776
0.006523473343
0.004190273664
0.003792972856
0.003187403142
0.005113503903
0.003924308623
0.005080472973
0.003629691942
0.003674840161
0.004636482849
0.03139824011
0.03845856762
0.04326010215
0.03362177933
0.03401872215
0.02906121069
0.02593614391
0.02662136097
0.02674703534
0.02424706751
0.025879902
0.0252156099
0.02742398791
0.02635281656
0.02559507506
0.04669089655
0.03728789969
0.03950786712
0.03238293449
0.03482292661
0.04447156874
0.01506744399
0.02476355788
0.0220616856
0.07702444943
0.1000132262
0.09549854549
0.1091726612
0.1046934531
0.08141504321
0.03013180626
0.02976053648
0.02852705005
0.03277291876
0.03106818205
0.03192671572
0.03230292042
0.03137939538
0.03254406513
0.04208362375
0.02738169855
0.03782772212
0.0359981247
0.04232077878
0.04055612326
0.02939994227
0.06015626687
0.05162605195
0.05135342918
0.03648132252
0.03322219497
0.03453528078
0.02668306293
0.02928290848
0.02820585135
0.03739822185
0.03968010854
0.05050575911
0.01844446823
0.02882931755
0.02664329934
0.03336374412
0.03122294379
0.0206782235
0.02070666894
0.01889430241
0.02224565695
0.01338362157
0.01613932263
0.01775538214
0.01410060203
0.01502080788
0.01190996151
0.06266865491
0.05274942177
0.05407269347
0.04859978074
0.05039056135
0.06102740217
0.02625286173
0.03819157491
0.0360307497
0.05307216564
0.05443895117
0.06716076596
0.02853120882
0.04238811585
0.04079357838
0.04612424447
0.04442390046
0.03085925104
0.009589295713
0.008513008593
0.01001772414
0.006042335393
0.007143331197
0.007975137745
0.006272752293
0.006520362417
0.005288456331
1.081384875
1.067558044
1.103282901
1.076535735
1.109713201
1.151392155
1.157468855
1.157224428
1.156505156
1.156899808
1.156621828
1.156357512
1.156386843
1.156187427
1.156217829
1.156014325
1.155894234
1.156122002
1.155786864
1.155709153
1.15606823
0.9883173074
0.9733664659
1.017226281
0.9703268995
0.9882074397
1.032006083
1.035433191
1.088778751
1.137959472
1.157868387
1.157551484
1.157229588
1.156811078
1.156569594
1.156454302
1.156162926
1.155618128
1.155678478
1.155319588
1.155109376
1.155386926
1.1549562
1.154873887
1.155232416
0.7440010619
0.7322774102
0.8017692396
0.74081413
0.7512778713
0.8140249249
0.8028706904
0.8286730233
0.8936367198
0.9302187228
0.9763891888
1.049976277
1.143821022
1.157741909
1.157305185
1.157076738
1.155883165
1.155658368
1.155243631
1.154796202
1.154909679
1.154470809
1.154274537
1.154517863
0.4864562161
0.4840205963
0.5433366391
0.49718319
0.5084465127
0.5660601018
0.5598354148
0.5827789223
0.6401463798
0.6706355341
0.7081005163
0.7692069867
0.8498343908
0.9099504183
0.9789479044
0.9766670196
1.157083397
1.156288063
1.155817427
1.154953638
1.154817053
1.154326666
1.153902498
1.154016594
0.2815711038
0.2803153666
0.3245411603
0.2998810122
0.3132935019
0.3564367851
0.3682604213
0.3911940612
0.4342469152
0.4759908419
0.5085586239
0.5527894011
0.6293560911
0.6784628921
0.7278590807
0.7583732505
0.9882555127
1.103235565
1.157334773
1.155754389
1.155287862
1.154637019
1.153812031
1.153803147
0.1319971307
0.1323832104
0.1636484436
0.1610081071
0.1769121237
0.2060012828
0.2367891977
0.2599427228
0.2878584755
0.3401436034
0.3710303292
0.3997802853
0.4802057577
0.5242140008
0.5567088756
0.6107571338
0.8101396667
0.8897273378
0.990419173
1.157305539
1.156472094
1.155494081
1.154116135
1.153852595
0.04833122644
0.04861024469
0.05974917645
0.1576678243
0.1805644382
0.1959643032
0.2569624406
0.2858136751
0.3023534963
0.3857566219
0.4249082823
0.4450236076
0.5237785742
0.6960090129
0.7480107853
0.8502962849
1.034828358
1.095196118
1.156817936
1.154823766
1.15435993
0.05305411062
0.0609944664
0.06155180778
0.1266238777
0.1469484262
0.1514362876
0.21632934
0.2426186121
0.2500054273
0.3336961758
0.3692898773
0.3798320248
0.4769156692
0.62270023
0.6533781666
0.7659836706
0.9407707154
0.9831841185
1.137855696
1.155879081
1.155255368
0.06730074111
0.07267147994
0.07003337056
0.1292452031
0.1467258809
0.1446154083
0.208380096
0.2323663741
0.2322905548
0.3153029774
0.3479185719
0.3508093829
0.4633261824
0.5900170989
0.6016661693
0.7204760698
0.8797803686
0.9059907617
1.060404815
1.157171427
1.156448688
0.09306497956
0.09690300869
0.09346306504
0.1491570817
0.1652737995
0.1592948465
0.221956418
0.2442365055
0.2392222742
0.3217723216
0.352248785
0.3501149056
0.4672964984
0.5869474367
0.5854244125
0.7070271539
0.849931926
0.8614275252
1.010848262
1.158645809
1.157826158
0.125543352
0.1301244637
0.1259290067
0.1809304539
0.1968434777
0.1877914233
0.2517344807
0.2731185851
0.2641123767
0.348065248
0.3775848245
0.3694521384
0.4962106479
0.6093468973
0.5952597034
0.7208067141
0.8482770585
0.8463974309
0.9893096247
1.151313638
1.149816396
0.1578139265
0.1655694373
0.1605016441
0.2252923855
0.2420362125
0.2290685515
0.2992065952
0.3209274055
0.3068919042
0.3953188833
0.4241046861
0.4101687096
0.6282443632
0.8581616377
1.12468486
0.04967454373
0.06784885653
0.06574770845
0.05917829854
0.09035502514
0.08741351857
0.08245201071
0.1214437151
0.1173373531
0.1132758404
0.1352974762
0.1348663115
0.1316017156
0.04571193686
0.04501261119
0.0458541427
0.04942460546
0.06663817252
0.06675606724
0.07047866408
0.06996764851
0.05560536815
0.04961124454
0.04793965623
0.04705573667
0.06661980434
0.06599004478
0.05020828529
0.1098876123
0.1079429393
0.1002506909
0.05720886438
0.07163521891
0.07100241591
0.1354969431
0.156753641
0.1526756181
0.1505451441
0.02293197309
0.02633023064
0.02639044471
0.1264650336
0.126674758
0.125304105
0.1367689286
0.1349570753
0.1348067709
0.1108397904
0.1139104628
0.112258511
0.1235769708
0.1226690799
0.1218767611
0.0252964362
0.02162591345
0.01946138107
0.01925842714
0.01920169267
0.02258261767
0.009964860715
0.01148962938
0.01163472145
0.06797701678
0.06781998708
0.05284397586
0.05385326728
0.06832805984
0.06819601732
0.05525491944
0.0543035205
0.05663140049
0.05680261081
0.05797310932
0.05697692534
0.05940458514
0.0604696092
0.07366027619
0.03488653267
0.04706960257
0.04531344596
0.05893361396
0.05691584549
0.04639026335
0.03742544394
0.03628371942
0.03624864057
0.04020897573
0.040323913
0.03955576701
0.07705598698
0.0760038659
0.06230526983
0.06544775515
0.07914343534
0.0780321056
0.05241401197
0.06291194962
0.06063610969
0.06330381095
0.0650644342
0.05730544577
0.1345163009
0.1402556471
0.1381883639
0.1557349464
0.1489766945
0.1531619444
0.0502849523
0.04579983539
0.0539843319
0.02666313167
0.02714895528
0.02395771813
0.1321003259
0.1288829093
0.1310095405
0.03125535862
0.0321479431
0.03572836863
0.01184636957
0.01220893418
0.0111190761
0.9371169748
0.9927779217
0.8727893706
0.9303642606
0.93918536
0.9147800367
0.9230780163
0.8582503291
1.019352394
0.9795331299
0.9701970298
0.87523665
0.9341387011
0.9186081304
0.969923973
0.9418201303
0.8863642299
1.038420023
0.9921050209
1.027466355
0.95919798
1.026317714
0.984309308
1.102886788
1.045418517
0.9867467139
1.154705955
1.101233422
1.158116844
1.124445806
1.157988728
1.130184947
1.157312296
1.157665924
1.158087467
1.157025729
1.157301531
1.157031177
1.156989504
1.156746875
1.157040003
1.156261158
1.156503662
1.156686489
1.15629896
1.156378539
1.156175043
0.6867825315
0.7563770139
0.6048773811
0.6676641452
0.6747651001
0.6715966611
0.6680411797
0.6046185675
0.7950955532
0.7316517362
0.7349226547
0.6262220307
0.6883133818
0.6777854892
0.7190974812
0.7016483133
0.6397902583
0.826535987
0.764361004
0.782448126
0.7007269285
0.7639338102
0.7393007263
0.8242643922
0.7915075002
0.7276070026
0.9227325663
0.8570311425
0.8918975661
0.834750378
0.9041974694
0.8608634792
1.007101997
0.9517965069
0.8804312147
1.100441856
1.025791753
1.085544205
1.057927364
1.13279953
1.067300234
1.1572007
1.157701764
1.122667048
1.156933383
1.157267894
1.156860681
0.4424057802
0.4982072327
0.3729163991
0.4266309482
0.4313067949
0.4338525146
0.4283999056
0.3764431099
0.5430766612
0.4842520968
0.4891231109
0.4031771411
0.4541604481
0.4424084349
0.486098911
0.4687110262
0.4181553955
0.5799137776
0.522656916
0.5398638606
0.4787642605
0.5289906821
0.5061698985
0.5835887046
0.5546389335
0.5044504314
0.6664522973
0.608636295
0.6378441258
0.5987689724
0.6533603657
0.6172366349
0.7364557347
0.6915914071
0.6382234498
0.8130572519
0.7506824941
0.7967436564
0.7830145212
0.8441664528
0.7890537091
0.9754057486
0.9049457619
0.8414334431
1.047173345
0.974106233
1.046475343
0.242098667
0.286075389
0.1991095413
0.2381965441
0.2379147277
0.2485998
0.2413457923
0.2031803114
0.3278560082
0.2830000094
0.2895816615
0.2374330878
0.2736652616
0.2597706471
0.3089131804
0.2901046698
0.254805124
0.3722186931
0.3291612487
0.3474691457
0.3182702213
0.352455368
0.3298114131
0.4058099666
0.3775972818
0.343953263
0.459230399
0.4158267254
0.4437884698
0.4319557115
0.4680500412
0.4363996858
0.5432941446
0.5034649707
0.4670104163
0.5886889694
0.5438616424
0.5852482933
0.5934536135
0.6337187137
0.5861797109
0.7441708312
0.6862883008
0.6449061831
0.7841077831
0.7329078915
0.7916119523
0.1080068735
0.1345098943
0.07657318805
0.1046485664
0.1024443084
0.1207424684
0.11157667
0.08805898246
0.1685676154
0.1376592822
0.1478901264
0.1285431425
0.151697846
0.1345669424
0.1903659264
0.1700243072
0.1483101694
0.2235732703
0.1949202876
0.2148504194
0.2140742144
0.2352920174
0.2123125456
0.286737688
0.2601855809
0.2388242855
0.3128398775
0.2848212456
0.3113543981
0.3226425294
0.3451329172
0.3149454259
0.4136375139
0.3779280752
0.354600223
0.434041282
0.4044380546
0.4405184729
0.4681073598
0.4939299934
0.4520381582
0.5941944154
0.5408623913
0.5136930824
0.6064782645
0.5724659436
0.6259441145
0.03085047615
0.03921461079
0.03859259201
0.0453048068
0.0411264744
0.03374594234
0.06126095624
0.05047544783
0.05477790916
0.1584258029
0.1680846695
0.1456871422
0.2168178555
0.1919385355
0.1817153859
0.2203740449