/*--------------------------------*- C++ -*----------------------------------*\
| =========                 |                                                 |
| \\      /  F ield         | OpenFOAM: The Open Source CFD Toolbox           |
|  \\    /   O peration     | Version:  v2012                                 |
|   \\  /    A nd           | Website:  www.openfoam.com                      |
|    \\/     M anipulation  |                                                 |
\*---------------------------------------------------------------------------*/
FoamFile
{
    version     2.0;
    format      ascii;
    class       volVectorField;
    location    "0.1";
    object      U;
}
// * * * * * * * * * * * * * * * * * * * * * * * * * * * * * * * * * * * * * //

dimensions      [0 1 -1 0 0 0 0];


internalField   nonuniform List<vector> 
3259
(
(101.3688423 -0.1936875004 6.844847244e-21)
(101.3117245 -0.5855482433 1.080674179e-19)
(101.2013717 -0.9920585845 -2.177383358e-19)
(101.0204896 -1.445346064 -5.498439406e-22)
(100.6933101 -1.776533777 -1.72446206e-21)
(100.3071357 -2.294158652 0)
(99.81317698 -2.945308034 1.221684163e-19)
(99.17134174 -3.5739405 1.256930902e-19)
(98.2236553 -4.491687025 -2.667211413e-19)
(96.92852278 -5.674129865 2.448219988e-19)
(95.23805444 -7.258867687 5.800224787e-19)
(93.3138642 -8.948820575 -4.94017319e-19)
(101.7509405 -0.2080586114 0)
(101.7051122 -0.6301622698 0)
(101.6171326 -1.066268711 0)
(101.4721502 -1.550247101 0)
(101.1888149 -1.930948871 0)
(100.8757261 -2.496937016 0)
(100.4979482 -3.201601069 -1.102100179e-19)
(100.001686 -3.876542934 -2.781464712e-20)
(99.27847333 -4.84759415 -1.183840145e-19)
(98.30380823 -6.10228228 2.70497566e-21)
(97.08790958 -7.873375775 2.238963347e-19)
(95.86130257 -10.40322478 -4.597282658e-19)
(102.155106 -0.2164970166 0)
(102.1213666 -0.6566102043 0)
(102.0579266 -1.109796618 0)
(101.950602 -1.604498388 0)
(101.7110849 -2.012267249 0)
(101.4811504 -2.596195933 0)
(101.2164026 -3.297628626 5.004478477e-20)
(100.8686293 -3.990787942 0)
(100.3704068 -4.935598618 -4.98819137e-20)
(99.72024975 -6.120156471 7.271244494e-20)
(99.07276145 -7.705247613 -3.917293444e-21)
(98.81789111 -10.00336267 5.884658718e-19)
(102.5702824 -0.2192696605 0)
(102.5479872 -0.6652293563 0)
(102.5077752 -1.123258419 0)
(102.4358829 -1.613938929 0)
(102.2380947 -2.032525514 0)
(102.0817822 -2.608223799 0)
(101.9141056 -3.276140735 0)
(101.6832635 -3.957778976 8.327777509e-20)
(101.3761912 -4.814732064 -3.376016227e-19)
(100.9606337 -5.831327929 1.575515582e-19)
(100.6350271 -7.048348459 -6.637540429e-20)
(98.17085244 -8.1322558 2.170400822e-19)
(102.9860624 -0.2171010606 0)
(102.9737103 -0.6582624692 0)
(102.9531675 -1.110356348 0)
(102.9114371 -1.585193958 0)
(102.7512644 -2.000992251 0)
(102.6552953 -2.549092318 0)
(102.5627379 -3.162678842 0)
(102.4164887 -3.79933712 9.541915615e-21)
(102.2312477 -4.551598303 0)
(101.9460804 -5.372446341 -1.892025676e-19)
(101.6973882 -6.234764709 3.833164872e-19)
(96.3689464 -6.469184898 -7.049066116e-20)
(103.3934135 -0.2108920841 0)
(103.3892133 -0.638622842 0)
(103.3841795 -1.076029523 0)
(103.3662147 -1.52585637 0)
(103.2377263 -1.92758732 0)
(103.1866266 -2.435965665 0)
(103.1454487 -2.986112587 0)
(103.0492534 -3.553804831 0)
(102.9225827 -4.189939486 1.350731589e-20)
(102.6695878 -4.837541143 -4.964201041e-20)
(102.4302866 -5.461237781 -2.987854966e-19)
(95.13137633 -5.375730258 0)
(103.7852597 -0.2015546254 0)
(103.7873619 -0.6092531621 0)
(103.7936949 -1.025386127 0)
(103.7929727 -1.444274414 0)
(103.6889954 -1.823850502 0)
(103.6678201 -2.28647715 0)
(103.6563087 -2.771585301 0)
(103.5842342 -3.266085009 0)
(103.469089 -3.786579377 0)
(103.198704 -4.291948844 0)
(102.8773903 -4.747714911 0)
(95.33769104 -4.700119417 7.324399801e-20)
(104.1564329 -0.1899857276 0)
(104.1630181 -0.5730228433 0)
(104.1767819 -0.963372901 0)
(104.1872057 -1.348338484 0)
(104.1008533 -1.700796095 0)
(104.0966748 -2.115793789 0)
(104.0980636 -2.54107391 0)
(104.0308581 -2.963957581 0)
(103.9026918 -3.387628739 0)
(103.5986576 -3.780022691 0)
(103.1383573 -4.109919122 0)
(95.92526904 -4.107172313 0)
(104.5035017 -0.1770211114 0)
(104.5129032 -0.5325845655 0)
(104.5305842 -0.8944535478 0)
(104.5468232 -1.244763353 0)
(104.4722494 -1.567636852 0)
(104.4747158 -1.936313446 0)
(104.4756812 -2.307985012 0)
(104.4021499 -2.665789184 0)
(104.2477554 -3.010865583 0)
(103.9043407 -3.318323625 0)
(103.2946288 -3.559129831 0)
(96.45039037 -3.580044484 0)
(104.8245388 -0.1633762166 0)
(104.8353428 -0.4902117826 0)
(104.8540405 -0.8224486765 0)
(104.871683 -1.138761481 0)
(104.8044519 -1.431548072 0)
(104.8057289 -1.757071285 0)
(104.7971028 -2.080713168 0)
(104.7105506 -2.382293507 0)
(104.5239795 -2.664301724 0)
(104.1409927 -2.907819563 0)
(103.3875631 -3.085617168 0)
(96.90813663 -3.123786835 0)
(105.1188956 -0.1496206519 0)
(105.1299669 -0.4476993983 0)
(105.1474637 -0.7503931633 0)
(105.1631057 -1.034288562 0)
(105.0997084 -1.297785756 0)
(105.0943937 -1.584136146 0)
(105.0702079 -1.864291421 0)
(104.9669706 -2.119410285 0)
(104.7466781 -2.350769416 0)
(104.3266722 -2.545658186 0)
(103.43965 -2.677858451 0)
(97.29839648 -2.729444233 0)
(105.3869325 -0.1361870875 0)
(105.3973909 -0.4063798786 0)
(105.4120856 -0.6805252785 0)
(105.4232767 -0.9341879607 0)
(105.3610564 -1.169986973 0)
(105.3456281 -1.421220877 0)
(105.3030014 -1.662750367 0)
(105.1804885 -1.879509901 0)
(104.9275295 -2.0702275 0)
(104.4739659 -2.227695247 0)
(103.4656695 -2.326292585 0)
(97.62710528 -2.387828062 0)
(105.6297207 -0.1233922564 0)
(105.6389047 -0.3672016911 0)
(105.6496939 -0.6144113738 0)
(105.6547738 -0.8403960419 0)
(105.591768 -1.050530087 0)
(105.5640495 -1.270565284 0)
(105.5016542 -1.478705272 0)
(105.3588664 -1.663274098 0)
(105.0754511 -1.821285717 0)
(104.5916321 -1.949562059 0)
(103.4754066 -2.023083486 0)
(97.90252899 -2.091598012 0)
(105.8488105 -0.1114576478 0)
(105.8562416 -0.3308101296 0)
(105.8624079 -0.5530923468 0)
(105.8603267 -0.7541309321 0)
(105.7951466 -0.9408388983 0)
(105.7539459 -1.133434441 0)
(105.6713838 -1.312966979 0)
(105.508418 -1.470379031 0)
(105.1973059 -1.6019502 0)
(104.6860134 -1.707118067 0)
(103.4752907 -1.761777333 0)
(98.13330251 -1.834905888 0)
(106.0460744 -0.1005269354 0)
(106.0514224 -0.29761104 0)
(106.0525431 -0.4972066604 0)
(106.0427048 -0.6760746216 0)
(105.9743618 -0.8416780573 0)
(105.9191681 -1.010334575 0)
(105.8166794 -1.165482497 0)
(105.6342535 -1.29994185 0)
(105.2983586 -1.410062945 0)
(104.7618801 -1.496707441 0)
(103.4695273 -1.537091061 0)
(98.32739681 -1.612993557 0)
(106.223594 -0.09068328312 0)
(106.2266427 -0.2678273608 0)
(106.2225095 -0.4470914443 0)
(106.204642 -0.6065225366 0)
(106.1324446 -0.7533146864 0)
(106.0631952 -0.9012479579 0)
(105.9414067 -1.035697219 0)
(105.7405734 -1.150769289 0)
(105.3826855 -1.243447365 0)
(104.8229263 -1.315110054 0)
(103.4608066 -1.344615114 0)
(98.49174016 -1.421793784 0)
(106.3835299 -0.08196725035 0)
(106.3841474 -0.2415543431 0)
(106.3747018 -0.4028770108 0)
(106.3487542 -0.5455238955 0)
(106.2722129 -0.6757181654 0)
(106.1891251 -0.8058632794 0)
(106.0488688 -0.9228216303 0)
(105.8308507 -1.02157632 0)
(105.4534662 -1.100070551 0)
(104.8720464 -1.159563276 0)
(103.450779 -1.180748138 0)
(98.63228227 -1.258095718 0)
(106.5281177 -0.07438863162 0)
(106.5262268 -0.2187978805 0)
(106.5115036 -0.3645521461 0)
(106.477571 -0.4929591412 0)
(106.3962845 -0.6086744508 0)
(106.2997377 -0.7237166389 0)
(106.1418285 -0.8258465204 0)
(105.908022 -0.9111010324 0)
(105.5132506 -0.9780793611 0)
(104.9115674 -1.027690442 0)
(103.4404616 -1.042531383 0)
(98.7540362 -1.119273679 0)
(106.6594144 -0.06794283262 0)
(106.6549873 -0.1995175111 0)
(106.6350829 -0.3320184486 0)
(106.5933565 -0.4486657049 0)
(106.5070734 -0.5518618403 0)
(106.3975575 -0.6542634167 0)
(106.2227951 -0.7435957649 0)
(105.9744898 -0.8182066285 0)
(105.5641162 -0.8758378216 0)
(104.943394 -0.9174696412 0)
(103.4304966 -0.9275431589 0)
(98.86118176 -1.003113032 0)
(106.7800304 -0.06260097245 0)
(106.7730203 -0.1836209455 0)
(106.7480182 -0.3051172048 0)
(106.698708 -0.4123067427 0)
(106.6068531 -0.5049194271 0)
(106.48488 -0.5968637947 0)
(106.2943006 -0.6755245356 0)
(106.0322643 -0.7417344098 0)
(105.6078036 -0.7919092672 0)
(104.9691137 -0.8271878564 0)
(103.4213025 -0.833749599 0)
(98.9569348 -0.9076681617 0)
(106.8902929 -0.0583788837 0)
(106.8807926 -0.1710980114 0)
(106.8508662 -0.2837268953 0)
(106.7942574 -0.3840040426 0)
(106.6977374 -0.467391685 0)
(106.5637776 -0.5508956585 0)
(106.3586329 -0.6217541143 0)
(106.0831888 -0.6805310437 0)
(105.6458518 -0.7250455339 0)
(104.9900752 -0.7554163171 0)
(103.4131396 -0.7594929275 0)
(99.0434787 -0.8313594108 0)
(106.9988377 -0.05512838474 0)
(106.9865074 -0.1616469999 0)
(106.9514721 -0.2675577816 0)
(106.8870282 -0.3618562994 0)
(106.7821521 -0.4390698278 0)
(106.6360635 -0.5161554659 0)
(106.4169626 -0.5816847119 0)
(106.1291108 -0.6338964105 0)
(105.6796541 -0.67424922 0)
(105.007484 -0.7010201114 0)
(103.4061479 -0.7035323086 0)
(99.12270063 -0.7731065155 0)
(107.0820418 -0.0532742906 0)
(107.0678255 -0.1560268125 0)
(107.0288089 -0.2575038391 0)
(106.9590871 -0.3503759176 0)
(106.8599614 -0.4193089976 0)
(106.7033456 -0.4920454488 0)
(106.4708568 -0.5543126777 0)
(106.1714037 -0.6011992251 0)
(105.7104339 -0.6387045535 0)
(105.0224317 -0.6630443923 0)
(103.400492 -0.6648444318 0)
(99.19656309 -0.731995229 0)
(107.2381549 -0.05132608566 0)
(107.2199979 -0.1511854326 0)
(107.1733989 -0.2492541418 0)
(107.0904902 -0.3371093488 0)
(106.9319348 -0.4086700662 0)
(106.7641307 -0.4787286387 0)
(106.5196205 -0.5396362481 0)
(106.2113326 -0.5818849171 0)
(105.7392584 -0.6177367207 0)
(105.0359412 -0.6407408832 0)
(103.3964327 -0.6427818037 0)
(99.26631126 -0.7074773089 0)
(93.1902199 -8.852807962 1.004888312e-18)
(95.58737122 -10.19576325 0)
(94.81611565 -7.040271103 -5.518687782e-19)
(93.28789596 -8.623644139 -1.533345948e-19)
(96.60133562 -7.790919427 -3.823949335e-19)
(95.60887314 -9.89464398 0)
(93.5341093 -8.788478223 -6.645182005e-19)
(94.27660849 -9.531640567 -9.241627695e-19)
(91.51559756 -10.54077362 -4.840032991e-19)
(91.33998836 -9.760103241 4.968791246e-19)
(98.87910228 -10.09502956 -3.33478572e-19)
(91.30519626 -9.704793596 -2.51907944e-22)
(90.56077764 -9.701308519 -2.380466483e-21)
(81.79826526 -9.802003635 0)
(91.55573847 -10.60737392 3.097277325e-21)
(94.42878094 -9.623379324 4.590473808e-19)
(90.09950932 -10.51523744 -1.458693512e-18)
(46.14383274 -7.720579689 6.589972161e-19)
(90.58016722 -9.752858113 5.486697363e-21)
(90.06834808 -10.44940865 2.898135234e-19)
(86.97891976 -28.75880079 1.590000691e-19)
(91.66444587 -10.16450101 -1.616972858e-21)
(93.25017906 -9.864052723 0)
(93.67933612 -10.16871279 4.53091781e-19)
(92.7410385 -9.463633474 -8.432657579e-19)
(93.1180131 -9.762186335 8.276321965e-19)
(91.63382744 -10.09651076 2.670294177e-19)
(91.1906311 -9.396750695 -1.45949881e-21)
(92.27358796 -9.07781985 -2.949758233e-19)
(92.62178963 -9.365517134 0)
(92.15937053 -8.981441586 8.757597526e-19)
(91.13700668 -9.351054407 2.680064953e-19)
(90.72476639 -9.383125269 0)
(90.77843626 -9.425991614 -2.841316767e-19)
(93.83591052 -10.26850177 -9.02948669e-19)
(94.32720126 -10.54875969 2.264206417e-19)
(92.63856979 -11.48492227 0)
(92.44506773 -11.68381293 0)
(88.61315978 -23.98698264 -2.590203777e-19)
(87.78076211 -26.84632769 -6.832070137e-20)
(90.85949647 -10.05783911 -1.410833751e-18)
(79.65022127 -27.14517654 -6.203322669e-19)
(87.36918715 -27.0987806 -4.763038661e-20)
(81.07677427 -27.28843672 6.327159567e-19)
(90.88378139 -10.13451021 2.866774205e-19)
(87.75757879 -28.72230157 7.900054022e-20)
(90.6475744 -27.49131914 3.643167689e-20)
(98.60368885 -7.812178368 2.085623453e-19)
(98.43673964 -9.5872259 9.507826697e-20)
(95.98630767 -9.981755041 -4.651208361e-19)
(97.18289168 -10.43636953 -8.105148174e-19)
(82.02849385 -8.948929725 8.073529588e-19)
(79.46434576 -9.457831894 0)
(91.50895195 -10.40218659 0)
(92.92800084 -10.27502378 2.161596266e-19)
(93.12100927 -10.45462696 4.28010561e-19)
(50.03735419 -7.986274243 2.185288685e-19)
(74.47237833 -11.71398009 -1.158158344e-18)
(90.52908334 -9.146610732 -1.624749751e-18)
(90.74515751 -9.557981562 -2.07033492e-18)
(91.44858151 -10.55064669 -8.822689794e-18)
(94.36418525 -10.69453053 3.180148317e-18)
(94.82042995 -11.07693711 -8.20237002e-21)
(93.19230051 -10.51404102 -4.288856743e-19)
(93.43953134 -10.68431134 -4.269204386e-19)
(91.77539349 -10.86229118 0)
(90.72658367 -27.15260463 9.296118893e-20)
(90.3219844 -10.79475625 -8.825123172e-19)
(63.86110695 -20.97958301 2.025660425e-19)
(86.81478452 -19.39413207 0)
(88.54807031 -23.47696158 1.992977107e-18)
(87.21686329 -11.10304471 1.588088256e-17)
(90.74675456 -9.913369216 -2.143421219e-18)
(90.15990093 -10.40188625 0)
(92.69170736 -10.06047509 -2.298334161e-19)
(92.86422507 -10.21976112 2.252853019e-19)
(91.59400799 -10.3421623 -1.949045318e-18)
(91.5422367 -9.952454513 0)
(92.47044716 -9.848537646 2.855760244e-21)
(92.6361618 -9.99752458 0)
(90.56519941 -9.210393283 0)
(90.85968737 -9.557328525 0)
(91.84037405 -10.95694517 -5.001892251e-19)
(93.5306454 -10.7303957 8.531108147e-19)
(93.72514881 -10.80174918 2.906828056e-18)
(67.1946431 -20.53586705 -1.646343547e-18)
(65.54167704 -20.97646146 0)
(90.35873244 -10.92776046 -4.434264901e-19)
(68.59135207 -22.91848766 0)
(73.06061609 -23.08044208 -1.913580288e-19)
(88.4870943 -25.78940663 0)
(90.80566996 -9.928818575 -1.080799327e-18)
(80.11156843 -27.47342487 6.662556056e-18)
(85.55962879 -27.59249911 -3.345151498e-20)
(69.07871147 -23.25795302 -2.373094346e-19)
(84.62928121 -27.61299891 1.339663937e-20)
(90.32668756 -10.35135208 1.725798488e-18)
(92.24599796 -9.643965031 4.631913013e-19)
(92.41417933 -9.791341233 8.853541467e-22)
(91.49138249 -9.917298272 1.018951614e-18)
(91.30810377 -9.55396073 0)
(92.04479124 -9.442233965 0)
(92.19370114 -9.585713804 -9.2332821e-19)
(89.19521324 -9.581985427 3.029265998e-19)
(89.22810282 -9.543436401 0)
(90.57049892 -9.650307094 4.366053388e-19)
(90.15433778 -10.59689064 5.842038575e-19)
(90.61620113 -9.815959223 2.113442457e-18)
(89.23356766 -9.739355803 -1.248981529e-18)
(89.19886411 -9.643793947 -1.551043437e-18)
(90.06289711 -10.38500512 -1.408232164e-18)
(91.83240496 -9.254388391 2.193413988e-22)
(91.9945024 -9.389515423 0)
(91.30335984 -9.524639554 1.297160842e-19)
(90.97986241 -9.186010754 5.244728835e-19)
(91.61374617 -9.051132278 -4.781788864e-19)
(91.77704242 -9.199757868 2.193860394e-21)
(90.03594496 -9.382787748 -8.872867162e-19)
(89.96637739 -9.337478081 -1.760585144e-18)
(90.66629366 -9.333783127 1.677613299e-18)
(90.82364732 -9.467334797 8.602362206e-19)
(90.14016105 -9.454164773 0)
(90.09418257 -9.419123515 -8.961466371e-19)
(91.64926584 -11.11254491 0)
(92.81089486 -10.93987013 -1.91680578e-18)
(92.85696715 -11.11823903 3.768330035e-19)
(39.45633694 -13.90954346 9.515695284e-18)
(89.92684973 -11.33665529 1.608535764e-19)
(88.56633663 -25.43386132 -4.317374733e-20)
(74.25027796 -22.86426995 0)
(76.41975317 -22.3172683 -1.440003655e-18)
(89.52434686 -9.956383498 1.5934614e-18)
(89.52694719 -9.8878303 -3.105364721e-19)
(90.84700215 -9.993748069 1.111394783e-18)
(80.23526926 -27.31632841 2.0887861e-18)
(75.90260316 -26.25129838 -2.151283131e-18)
(76.62536467 -26.27518864 -2.072072981e-19)
(82.72243174 -27.53187346 2.696792359e-20)
(90.8803626 -10.21412863 4.375966562e-19)
(89.56619521 -10.1111568 1.011749815e-18)
(89.55184199 -10.03694512 -3.219272729e-19)
(89.65616696 -28.55368856 3.990055446e-20)
(88.54847386 -8.973612252 -3.325649235e-19)
(88.54867795 -9.036254822 0)
(88.50600567 -9.418101221 -3.60248317e-18)
(90.63877112 -9.594304284 0)
(89.37089411 -9.522520771 0)
(89.59134355 -9.504928818 1.838359315e-18)
(93.60468629 -10.82511987 5.933960507e-18)
(93.27543219 -11.12995742 -8.978576592e-19)
(81.00292422 -9.945079417 1.39547057e-18)
(91.6833506 -10.77141629 0)
(92.53347283 -10.76370937 4.743610375e-19)
(92.62368768 -10.83838095 0)
(90.22804984 -10.70199923 -2.936609873e-19)
(64.59275956 -21.40918593 -2.652766375e-19)
(63.92464576 -21.50506299 0)
(46.18808396 -3.064496661 -1.282028723e-18)
(62.95524641 -16.47764652 -8.819273785e-19)
(67.25497181 -19.99175511 0)
(89.44102046 -9.856794502 9.360565696e-19)
(89.32398554 -9.828071316 0)
(90.67486494 -9.877626997 -1.063095044e-18)
(90.07913489 -10.38168277 0)
(88.72304645 -9.304477328 -3.40601892e-19)
(88.8187877 -9.346247149 3.369743092e-19)
(88.5672434 -9.127695096 1.351309227e-18)
(88.62792065 -9.228940853 0)
(90.14569327 -9.529769901 0)
(90.13857712 -9.491632235 0)
(90.84548529 -9.505863535 3.566135277e-20)
(88.9545811 -9.416707138 3.548201722e-19)
(88.9523696 -9.417016731 -2.449562519e-18)
(88.8910122 -9.373129835 1.344579507e-18)
(88.94554836 -9.394933327 -1.701051046e-18)
(92.71258327 -10.90337579 4.73392188e-19)
(92.84243813 -10.98688742 2.335027618e-21)
(92.02683227 -11.09035971 -2.443466502e-19)
(68.12253659 -20.96957748 1.110234833e-18)
(57.41851805 -18.48522174 -1.297651206e-18)
(54.2776232 -17.3081295 -1.457652803e-19)
(58.51207399 -19.39211973 0)
(58.81583893 -19.13796326 -1.49538624e-18)
(67.07528125 -20.97840323 1.13174681e-18)
(90.54999061 -11.08773518 9.160024675e-19)
(70.11431152 -22.91312549 8.917166988e-21)
(78.00424894 -24.66988451 1.278962765e-19)
(76.94274041 -24.83303566 0)
(90.83503473 -9.950743572 -1.094531934e-18)
(89.53722893 -9.851996173 -2.054921868e-21)
(89.51972469 -9.847535531 1.558929066e-18)
(80.50597278 -27.50915805 -1.848825297e-18)
(72.54090553 -24.60131445 -4.247309094e-19)
(73.01984699 -24.8818579 0)
(75.80123751 -24.74614608 1.814709754e-19)
(73.98998442 -24.60703313 3.302976723e-19)
(68.29439293 -23.31779542 -2.625199013e-18)
(72.27422661 -24.89013999 0)
(83.70604148 -27.68904234 0)
(76.20970897 -26.03521865 0)
(77.61797928 -26.07255209 0)
(89.12037844 -10.26418118 3.388511808e-18)
(89.5678201 -10.15057255 7.690521265e-19)
(90.89204876 -10.28396728 0)
(98.9701916 -3.476084054 0)
(98.25166727 -4.126798017 4.059646742e-19)
(97.96636173 -4.37004428 -1.108297868e-18)
(96.97502782 -5.202960839 -2.864349541e-19)
(96.59679864 -5.521161796 3.081630604e-20)
(95.30307223 -6.620974241 6.025018611e-19)
(99.79239137 -3.818139408 -4.665990188e-19)
(99.23545897 -4.521226817 -4.792795464e-19)
(98.49324494 -4.242001044 2.672083569e-19)
(99.01388829 -4.783617284 4.954270601e-19)
(98.24720402 -5.685026144 -6.432495002e-20)
(97.28640312 -5.347156776 -7.095108633e-20)
(97.95648813 -6.032836616 -6.20056292e-20)
(96.96820467 -7.268287109 1.074602916e-20)
(95.70067985 -6.811727319 5.719770785e-19)
(95.68361429 -7.451738783 1.168909542e-19)
(95.21814279 -8.10781322 1.053227143e-18)
(94.49201117 -7.779216858 -2.78282092e-19)
(93.70578134 -9.197718291 2.44343083e-19)
(93.31033714 -9.626200053 -2.656515233e-19)
(92.92360238 -9.337299222 -5.383721147e-19)
(100.6548133 -3.977386607 -5.052981331e-20)
(100.2599794 -4.677464857 8.562660948e-19)
(99.48407691 -4.583969341 1.04918419e-18)
(100.1027143 -4.935905778 4.257165958e-19)
(99.57104079 -5.81415476 -1.560456589e-19)
(98.57035747 -5.752771025 0)
(99.3777285 -6.149921166 2.333043123e-19)
(98.7851128 -7.333993175 -2.431172851e-21)
(97.41190941 -7.350420027 1.448418978e-20)
(97.5999633 -7.899742377 -8.994663058e-19)
(97.35629037 -8.447450045 1.132877996e-19)
(96.55227534 -8.553973781 -4.525748799e-19)
(96.28474856 -10.47269502 4.618670941e-19)
(96.17420195 -11.21476452 0)
(95.3622922 -10.96341629 0)
(101.4863641 -3.978921079 -2.658291575e-19)
(101.2403552 -4.625554555 3.405112747e-19)
(100.5132005 -4.682014155 -4.058914488e-19)
(101.1363203 -4.861743679 1.664592925e-19)
(100.7919043 -5.638534196 -8.653080135e-20)
(99.89147337 -5.794726335 3.097939684e-21)
(100.6731207 -5.924316023 0)
(100.3577528 -6.879978239 1.578935709e-19)
(99.21377118 -7.25535685 -1.807739576e-19)
(100.2950761 -7.237607363 0)
(100.3987761 -8.373355086 0)
(99.11110596 -9.332162588 0)
(98.46725449 -8.611700935 -1.633411199e-19)
(102.2423411 -3.84913744 -3.601971117e-20)
(102.0982546 -4.426063698 -2.827599229e-19)
(101.4687787 -4.586685897 -1.42674421e-20)
(102.0327742 -4.628331783 2.858589373e-19)
(101.8049769 -5.271029378 6.860143981e-21)
(101.0665452 -5.560200137 -1.631558422e-19)
(101.7256775 -5.497565029 3.308021662e-19)
(101.5106754 -6.200537381 -2.662082102e-19)
(100.6892332 -6.725794037 0)
(101.467073 -6.437107261 5.685293197e-20)
(100.7634753 -7.113206697 8.472901766e-20)
(100.6506126 -8.053798744 1.092093256e-19)
(96.85108358 -6.838471824 8.350904829e-20)
(102.9004439 -3.620667164 0)
(102.8116205 -4.117177432 3.061238834e-20)
(102.2904471 -4.35752744 1.379174168e-19)
(102.7645775 -4.286692529 -1.143928762e-19)
(102.5815125 -4.801988833 5.177302806e-20)
(102.020906 -5.160852771 2.487318886e-19)
(102.5101985 -4.974224615 4.976119194e-20)
(102.3007904 -5.482491488 5.699163151e-21)
(101.7363575 -6.019001419 1.131050297e-20)
(102.2742238 -5.648812845 0)
(99.50927287 -5.894670653 -2.088452053e-19)
(100.5767191 -6.800318074 -2.552890863e-19)
(95.29117017 -5.594797421 2.421593698e-19)
(103.4592511 -3.340357757 0)
(103.3868847 -3.750877947 0)
(102.9673897 -4.028468386 0)
(103.3441167 -3.888081422 0)
(103.1590413 -4.294895573 5.503261509e-21)
(102.7419802 -4.67661424 -1.006361364e-19)
(103.0801589 -4.426807287 3.986315638e-20)
(102.8488639 -4.804713951 8.401528396e-21)
(102.4574663 -5.308344037 0)
(102.7897896 -4.920383994 0)
(98.04872838 -4.918659958 1.970614866e-19)
(99.08377386 -5.619350349 0)
(95.20321339 -4.852828893 -1.68219733e-19)
(103.926761 -3.039855262 0)
(103.8498812 -3.376129345 0)
(103.5122745 -3.656863185 0)
(103.8034601 -3.485761449 0)
(103.5973283 -3.802817467 0)
(103.279852 -4.168703059 0)
(103.5086286 -3.903478769 0)
(103.2257175 -4.184741718 0)
(102.9563214 -4.643628328 -6.41165604e-21)
(103.0848653 -4.261377282 0)
(97.66980476 -4.222988498 0)
(97.84736881 -4.726285206 0)
(95.78372019 -4.249297799 0)
(104.3156898 -2.739513607 0)
(104.2223133 -3.014612744 0)
(103.9506931 -3.283952261 0)
(104.1686361 -3.102424892 0)
(103.9347549 -3.351319111 0)
(103.6899903 -3.685820216 0)
(103.8352466 -3.428885023 0)
(103.4854143 -3.637821173 0)
(103.2999522 -4.040667149 0)
(103.2625831 -3.689080887 0)
(97.66293947 -3.643962111 0)
(97.6601756 -4.069679195 0)
(96.32520219 -3.705026634 0)
(104.6387147 -2.451687159 0)
(104.5228368 -2.677178892 0)
(104.3035323 -2.927728973 0)
(104.4604716 -2.747892118 0)
(104.1975692 -2.945209681 0)
(104.0065946 -3.245500389 0)
(104.0872077 -3.005766942 0)
(103.6666176 -3.16354554 0)
(103.5369518 -3.512848282 0)
(103.3688764 -3.197412789 0)
(97.72581717 -3.154377423 0)
(97.67348898 -3.51361864 0)
(96.80015713 -3.231650362 0)
(104.9072246 -2.183298541 0)
(104.7665725 -2.368719227 0)
(104.5885798 -2.597248842 0)
(104.6953296 -2.426025555 0)
(104.4048533 -2.584002337 0)
(104.2539833 -2.850782137 0)
(104.2842653 -2.631883285 0)
(103.7932462 -2.752187328 0)
(103.7026681 -3.055159269 0)
(103.4295482 -2.774187729 0)
(97.83199144 -2.739998212 0)
(97.74906162 -3.044341721 0)
(97.20689725 -2.82276094 0)
(105.130682 -1.937524458 0)
(104.9653689 -2.090589826 0)
(104.8200841 -2.296343202 0)
(104.8857137 -2.137330377 0)
(104.5702776 -2.264989782 0)
(104.4496946 -2.500423247 0)
(104.4402127 -2.30328069 0)
(103.881192 -2.395420794 0)
(103.8183581 -2.658172033 0)
(103.4610052 -2.409368294 0)
(97.96470215 -2.386772386 0)
(97.86320686 -2.646428225 0)
(97.55026536 -2.468716629 0)
(105.3172002 -1.715346479 0)
(105.1284597 -1.842287923 0)
(105.0091757 -2.025762859 0)
(105.0411521 -1.880662433 0)
(104.7036001 -1.984723913 0)
(104.6063045 -2.191433677 0)
(104.5646148 -2.015595014 0)
(103.9415487 -2.086256893 0)
(103.8985144 -2.313917619 0)
(103.4741024 -2.094727845 0)
(98.11240653 -2.084047823 0)
(98.00057998 -2.306712044 0)
(97.83819109 -2.161742714 0)
(105.4734378 -1.516657956 0)
(105.2630673 -1.622413585 0)
(105.1645375 -1.784720214 0)
(105.1689758 -1.65412408 0)
(104.811823 -1.739585481 0)
(104.7327822 -1.920285165 0)
(104.6643196 -1.764589623 0)
(103.9821683 -1.818738432 0)
(103.9533028 -2.015684881 0)
(103.4759834 -1.823479811 0)
(98.26736525 -1.8237753 0)
(98.15069995 -2.015266139 0)
(98.0793439 -1.895643365 0)
(105.6047758 -1.340688493 0)
(105.3748236 -1.429210798 0)
(105.292957 -1.571686067 0)
(105.2748053 -1.455582076 0)
(104.9000719 -1.526186765 0)
(104.8355877 -1.683386739 0)
(104.7444316 -1.546490732 0)
(104.0086426 -1.587868252 0)
(103.9899333 -1.757763056 0)
(103.4713288 -1.590084534 0)
(98.42456753 -1.599863961 0)
(98.30660288 -1.764596807 0)
(98.28191502 -1.665446814 0)
(105.7156214 -1.186301196 0)
(105.4681684 -1.260782319 0)
(105.399735 -1.384855139 0)
(105.3629837 -1.282849677 0)
(104.9722535 -1.341457817 0)
(104.919492 -1.477428278 0)
(104.8088834 -1.357970272 0)
(104.0249781 -1.389414314 0)
(104.0135488 -1.535365337 0)
(103.4631604 -1.389927867 0)
(98.58080215 -1.407457458 0)
(98.46381402 -1.54897517 0)
(98.4530999 -1.466907634 0)
(105.8096174 -1.052213082 0)
(105.5466176 -1.115259614 0)
(105.4890588 -1.222321163 0)
(105.4368924 -1.133841447 0)
(105.0314262 -1.182701026 0)
(104.9881633 -1.299426715 0)
(104.8607489 -1.196144253 0)
(104.0340355 -1.21983186 0)
(104.0278329 -1.344431524 0)
(103.4533446 -1.219204476 0)
(98.73402809 -1.242745586 0)
(98.6194502 -1.363805173 0)
(98.59908816 -1.296592596 0)
(105.8898182 -0.937147369 0)
(105.6129869 -0.9909100196 0)
(105.5642448 -1.082251866 0)
(105.4992151 -1.006665047 0)
(105.0800398 -1.047594732 0)
(105.0444842 -1.146791237 0)
(104.9024769 -1.058555167 0)
(104.0378909 -1.076194427 0)
(104.0354192 -1.181594009 0)
(103.443028 -1.074821162 0)
(98.88308595 -1.102844677 0)
(98.77171189 -1.205543402 0)
(98.72511889 -1.151774321 0)
(105.9587653 -0.8399346545 0)
(105.6695678 -0.8861627039 0)
(105.6279703 -0.9629433114 0)
(105.5521368 -0.8996277546 0)
(105.1201085 -0.9341301149 0)
(105.0907873 -1.017271667 0)
(104.9360673 -0.9430926095 0)
(104.0380945 -0.9560569013 0)
(104.0382324 -1.044042697 0)
(103.4329287 -0.9542279345 0)
(99.02739764 -0.9854020076 0)
(98.91961956 -1.071461706 0)
(98.83557034 -1.030137057 0)
(106.0185369 -0.7594232101 0)
(105.7182488 -0.7996159722 0)
(105.6824109 -0.8628718236 0)
(105.597468 -0.8112466131 0)
(105.1533135 -0.840599701 0)
(105.1289934 -0.9089402054 0)
(104.9631793 -0.8479727597 0)
(104.0358398 -0.8573802715 0)
(104.0377214 -0.9294496638 0)
(103.4235117 -0.8553105349 0)
(99.16660304 -0.888527396 0)
(99.06269049 -0.9593189825 0)
(98.93393436 -0.9296843576 0)
(106.0709889 -0.6944912136 0)
(105.760683 -0.7300158496 0)
(105.729382 -0.7806725428 0)
(105.6367897 -0.740220106 0)
(105.1810954 -0.765552809 0)
(105.1607153 -0.8201555775 0)
(104.9852134 -0.7716890759 0)
(104.0320256 -0.7784531855 0)
(104.0350028 -0.8358539225 0)
(103.4150749 -0.7762966721 0)
(99.30027845 -0.8107421958 0)
(99.20055171 -0.8673426065 0)
(99.02260829 -0.848704815 0)
(106.1180235 -0.6442551616 0)
(105.7983798 -0.6763419429 0)
(105.7704959 -0.7151377651 0)
(105.6715321 -0.6854888248 0)
(105.204735 -0.7078252741 0)
(105.187346 -0.7495379304 0)
(105.003403 -0.7130456828 0)
(104.0273632 -0.7179845204 0)
(104.0309139 -0.761650729 0)
(103.4077795 -0.715868433 0)
(99.4281514 -0.7508357788 0)
(99.33279197 -0.7941336241 0)
(99.1034728 -0.7860299734 0)
(106.1610964 -0.6081319658 0)
(105.8326521 -0.6377918789 0)
(105.8072218 -0.665315759 0)
(105.7029611 -0.6461998888 0)
(105.2253957 -0.6664497241 0)
(105.210137 -0.695982495 0)
(105.0188698 -0.6710427821 0)
(104.0224829 -0.6748902101 0)
(104.0261393 -0.7056193732 0)
(103.401768 -0.6729396695 0)
(99.55011952 -0.7078144348 0)
(99.45919513 -0.7385289822 0)
(99.17851229 -0.7407046525 0)
(106.2015104 -0.5855196273 0)
(105.864655 -0.6136913098 0)
(105.8408227 -0.6304353921 0)
(105.7321976 -0.6216455836 0)
(105.2441411 -0.6406415149 0)
(105.2302202 -0.658565201 0)
(105.0326514 -0.6448865784 0)
(104.0180256 -0.6484057073 0)
(104.0213007 -0.6667320735 0)
(103.3972825 -0.6467684607 0)
(99.66615996 -0.6811202286 0)
(99.57966335 -0.6996232309 0)
(99.2493867 -0.7120203896 0)
(106.2451467 -0.5755021572 0)
(105.8989605 -0.6030627948 0)
(105.8723989 -0.6098575087 0)
(105.7634478 -0.6107640558 0)
(105.2641047 -0.6290889699 0)
(105.2486296 -0.6365370594 0)
(105.047447 -0.6332518229 0)
(104.0148274 -0.6378039831 0)
(104.017063 -0.6443198516 0)
(103.3948602 -0.6371218888 0)
(99.78799051 -0.6703060319 0)
(99.69382703 -0.6769775543 0)
(99.32467767 -0.6984372722 0)
(92.80108298 -9.241940075 0)
(92.44556422 -8.959300656 -2.812148604e-19)
(92.83111718 -8.599818203 -5.10569917e-19)
(95.13319692 -10.86562588 0)
(94.63375793 -10.53322783 -3.780799392e-18)
(95.07178615 -9.996639636 2.99230438e-18)
(90.27066486 -20.00177624 -2.898276237e-19)
(94.2670426 -7.652012433 2.90649229e-19)
(93.63744618 -7.2662383 0)
(94.41375295 -6.803277029 6.309625061e-19)
(92.60882974 -8.119896831 -7.181348325e-19)
(93.37580025 -7.464100145 6.140323014e-19)
(94.01246381 -7.887126337 -2.91117083e-19)
(96.26318688 -8.500895212 -4.685475353e-19)
(95.47942303 -8.206312902 -4.681130395e-21)
(96.14903936 -7.625312656 -6.802565158e-19)
(94.65082181 -9.410492532 1.235134526e-19)
(95.26161945 -8.487402465 -5.138447008e-19)
(96.08666088 -8.816730156 -2.809475532e-21)
(94.24295042 -8.020115217 -5.670052808e-19)
(94.98971325 -8.383833047 0)
(94.34779739 -9.264986946 -1.437851345e-19)
(93.88403772 -10.0141975 2.575413125e-19)
(93.44630018 -9.723501762 -5.200433606e-19)
(93.84176318 -9.293409258 -4.741556932e-19)
(91.48867276 -10.48804068 9.530839626e-19)
(92.29148118 -10.49462526 4.521532666e-19)
(92.33938962 -10.55377184 0)
(91.76971341 -9.735560608 2.485510988e-21)
(91.81825144 -9.789795801 -4.807723222e-19)
(91.38340911 -9.817263429 -1.498677315e-18)
(81.79307775 -7.826580245 -2.879023664e-20)
(82.06985186 -8.876137791 -7.66391649e-19)
(97.63666729 -10.38149087 -3.575399009e-19)
(76.98510328 -11.33779114 7.256822908e-19)
(82.54697767 -11.23488055 -2.447274297e-19)
(90.77371141 -19.12008163 2.123286311e-20)
(91.96997092 -16.86690691 5.779735844e-19)
(91.28772882 -9.64831285 -4.211793071e-19)
(91.69083318 -9.624077576 4.746156209e-19)