/*--------------------------------*- C++ -*----------------------------------*\
| =========                 |                                                 |
| \\      /  F ield         | OpenFOAM: The Open Source CFD Toolbox           |
|  \\    /   O peration     | Version:  v2012                                 |
|   \\  /    A nd           | Website:  www.openfoam.com                      |
|    \\/     M anipulation  |                                                 |
\*---------------------------------------------------------------------------*/
FoamFile
{
    version     2.0;
    format      ascii;
    class       surfaceScalarField;
    location    "2.37";
    object      phi;
}
// * * * * * * * * * * * * * * * * * * * * * * * * * * * * * * * * * * * * * //

dimensions      [0 3 -1 0 0 0 0];
oriented        oriented;


internalField   nonuniform List<scalar> 
6430
(
-0.007860972327
0.9329617963
-0.01593751029
0.9323887295
-0.02419362955
0.9311220963
-0.008788581563
0.9291143386
-0.02423767932
-0.4588324272
0.4601518203
-0.01010797467
-0.4565284756
0.01158432097
0.4581938131
-0.01324965845
-0.4456056662
0.01496352566
0.4438789823
-0.006281570401
-0.006863967421
-0.1939857022
0.003748684461
0.1926156622
-0.002245623149
-0.1794842924
0.001584086316
0.1795762937
-0.001497621018
-0.1931055273
0.002711878499
0.1923674473
-0.001859022983
-0.2164816373
0.005669176315
0.2177434062
-0.003463665282
-0.003467279945
-0.05256532669
0.002809602478
0.05265688078
-0.002901156562
-0.004364025936
0.9373258223
-0.008865937256
0.9368906408
-0.01365096184
0.9359071209
-0.00934106761
0.9343547253
-0.009550280893
-0.4635234049
0.4649233313
-0.01074099403
-0.4616433405
0.01230728856
0.4633405207
-0.01400446873
-0.4438297135
0.01586527687
0.4479453432
-0.009519934731
-0.01035610575
-0.1901705725
0.01037073526
0.1904214606
-0.01048208812
-0.1780018538
0.00976653632
0.1777035017
-0.009286401304
-0.1964024366
0.007615363197
0.1959689629
-0.007073198345
-0.2220255197
0.00613285283
0.2232976004
-0.003703058996
-0.003701874462
-0.05489881255
0.006045396725
0.1102315548
-0.05486862068
-0.003249403196
-0.003260115091
-0.004543866451
0.9418696887
-0.00922014875
0.9415669231
-0.01416416726
0.9408511394
-0.009699974233
0.9397155761
-0.009825043896
-0.4664093814
0.4678824237
-0.01117301646
-0.4650468246
0.01276932203
0.4667477664
-0.01447026379
-0.4546196125
0.01630220766
0.4621110654
-0.01191175084
-0.01184485026
-0.1942012692
0.01717897922
0.1965741465
-0.01943440657
-0.1781289519
0.02400514955
0.1789394428
-0.02464371936
-0.192526816
0.02347979253
0.1911717155
-0.0219990512
-0.2215794423
0.0142069537
0.2180008715
-0.01060199242
-0.1134366681
0.01002526041
0.2269033687
-0.01013415637
-0.1133578047
-0.004599980524
0.9464696693
-0.009317306993
0.9462842496
-0.01426714971
0.9458009822
-0.009781557235
0.945029541
-0.009799557312
-0.469344388
0.4708093455
-0.01124651469
-0.4684212182
0.0128055874
0.4700588554
-0.01444322467
-0.4674307619
0.01618079454
0.4693703054
-0.009133671697
-0.008986609166
-0.2072852516
0.01840380102
0.2120409278
-0.02308859932
-0.1845056205
0.03508410845
0.1876223842
-0.03806008022
-0.1889623186
0.04298590733
0.189333439
-0.0432254018
-0.2093943318
0.04030929309
0.2076824458
-0.03852610673
-0.2209781515
0.0331805086
0.2176574543
-0.0298432045
-0.004547960423
0.9510176297
-0.009194279433
0.9509305686
-0.01403079948
0.9506375022
-0.009628279647
0.9501636012
-0.00953658008
-0.4722191763
0.4736195661
-0.0110286695
-0.4716426383
0.01250094131
0.4731685915
-0.01402689453
-0.4711361343
0.01562211924
0.4728072144
-0.008700896961
-0.008592302418
-0.2293014603
0.009684667479
0.2345966918
-0.01497062678
-0.2011051549
0.03392208455
0.2068805077
-0.03961306018
-0.1949141832
0.05335428861
0.1983092046
-0.05664516403
-0.2069365038
0.06285066133
0.2081297263
-0.0639698491
-0.2089709992
0.06099999169
0.2078535886
-0.05986013777
-0.004409914088
0.9554275438
-0.008897289276
0.9554179438
-0.01352777634
0.9552679893
-0.009278340808
0.9550176892
-0.00910352351
-0.474949364
0.4762549799
-0.01058395676
-0.474624119
0.01194066489
0.4760107299
-0.01332727577
-0.4743769034
0.01475405816
0.4758438999
-0.008179996143
-0.008041058523
-0.2368964306
0.008945734587
0.2372848306
-0.009334134597
-0.2268944704
0.0138018125
0.2340185661
-0.02091086618
-0.2124507155
0.04056309639
0.2181495224
-0.04621109965
-0.2146697521
0.05962430057
0.2173964581
-0.06230535211
-0.2117158105
0.06404686747
0.2144335922
-0.06675134446
-0.004206881189
0.959634425
-0.008470047812
0.9596811104
-0.01283007139
0.9596280129
-0.008785612558
0.9595297528
-0.008556522415
-0.4774842336
0.4786811842
-0.009982563149
-0.4773207281
0.01121167394
0.4785592803
-0.01245022613
-0.4772123967
0.01370463988
0.4784815625
-0.007559909231
-0.007413896409
-0.2383472723
0.008212903465
0.2386703479
-0.008535979017
-0.2376678181
0.009496208077
0.2379820226
-0.009810412638
-0.2360726132
0.01072736599
0.2369376723
-0.01159164094
-0.2264826281
0.0237985751
0.2298442819
-0.02715086782
-0.2222269505
0.03424193325
0.2242363672
-0.03624822286
-0.003959154658
0.9635935796
-0.00795525919
0.963677215
-0.01200699889
0.9636797526
-0.008202051568
0.9636697145
-0.007944909043
-0.4797999742
0.4808854649
-0.009287542245
-0.4797220713
0.01038838784
0.4808165522
-0.01148286876
-0.4796564221
0.01257502112
0.4807427337
-0.006894711438
-0.006766621344
-0.2395528707
0.007456769648
0.2398213618
-0.007725260718
-0.2388242218
0.008506589994
0.2390750845
-0.008757452679
-0.2377125604
0.009476908775
0.2379353411
-0.009699689536
-0.2320280495
0.010101642
0.2320103812
-0.01008397369
-0.226985096
0.01069228235
0.2272666499
-0.01097383626
-0.003685267393
0.967278847
-0.007391067252
0.9673830148
-0.01111859871
0.967407284
-0.007573841341
0.9674322387
-0.007307281588
-0.4818923226
0.4828699219
-0.008551440671
-0.4818404175
0.009530550175
0.4828020198
-0.01049215248
-0.4817464736
0.01143935991
0.4826735449
-0.006236457908
-0.006129973293
-0.2405551099
0.006720997386
0.2407788436
-0.006944731079
-0.2397509166
0.00758493178
0.2399534473
-0.007787462456
-0.2385174979
0.008357596547
0.2386870617
-0.008527160336
-0.2319666333
0.008803482153
0.2319545129
-0.00879136178
-0.2279277883
0.009333882794
0.2281016071
-0.009507701578
-0.00339983911
0.9706786862
-0.006806910318
0.9707900861
-0.01020965247
0.9708100262
-0.006934548736
0.970829093
-0.006671958015
-0.4837695001
0.4846446228
-0.007809671449
-0.4836998639
0.008676634372
0.4845423385
-0.009519108951
-0.4835286926
0.0103404538
0.4843209492
-0.005613370468
-0.005519339919
-0.2413914642
0.00602773041
0.2415786237
-0.006214889982
-0.2405026198
0.006743988388
0.2406682282
-0.006909596853
-0.2391355923
0.007368868876
0.2392675832
-0.007500859741
-0.2319295927
0.007698392701
0.2319259015
-0.007694701456
-0.2285186955
0.008174335002
0.2286291596
-0.008284799097
-0.003115299768
0.9737939859
-0.006227483407
0.9739022697
-0.009316271086
0.9738988139
-0.006310440651
0.973882187
-0.006058924373
-0.4854451364
0.486225855
-0.007091159232
-0.485328609
0.007857460499
0.4860662882
-0.008595139738
-0.4850549641
0.009307707229
0.4857354132
-0.005037643548
-0.004950512741
-0.2420924014
0.005390830546
0.2422499572
-0.005548386302
-0.2411202182
0.005989951778
0.2412574048
-0.006127138367
-0.2396197265
0.006502820529
0.2397241592
-0.006607253277
-0.2319310379
0.006754299137
0.231938429
-0.006761690221
-0.2288944857
0.007185229543
0.2289644967
-0.007255240541
-0.002840021605
0.9766340075
-0.005669188634
0.9767314367
-0.008461732706
0.9766913579
-0.005716632578
0.9766185215
-0.005481434717
-0.4869366413
0.4876317578
-0.006411749019
-0.486754738
0.007088608227
0.4874009654
-0.007734835646
-0.4863668671
0.008353828734
0.4869532971
-0.004510853461
-0.004429405253
-0.2426839834
0.004813580121
0.2428176388
-0.004947235544
-0.2416341459
0.005319515286
0.2417492318
-0.005434601102
-0.2400047397
0.005745970456
0.2400885727
-0.005829803434
-0.2319778836
0.005944875363
0.2319966831
-0.005963674873
-0.2291312707
0.006338595071
0.2291746795
-0.006382003907
-0.002580136514
0.9792141441
-0.005143881286
0.9792951815
-0.007662442797
0.9792099194
-0.005163385887
0.979067729
-0.004948264386
-0.4882623648
0.4888808584
-0.0057818795
-0.4880044135
0.006380001007
0.4885713964
-0.006946983902
-0.4874985006
0.007486109214
0.4880058355
-0.004033306657
-0.003960137509
-0.2431870185
0.004294091479
0.243301224
-0.004408296981
-0.2420669893
0.004725124563
0.2421646069
-0.004822742199
-0.2403153271
0.005083651163
0.2403835823
-0.005151906306
-0.2320690948
0.005246946488
0.2320982777
-0.005276129438
-0.2292758586
0.005609708036
0.2293013479
-0.005635197311
-0.002339137841
0.9815532819
-0.004658110237
0.9816141539
-0.006926878983
0.9814786882
-0.004656559603
0.9812595259
-0.004462116239
-0.4894405788
0.4899911716
-0.005207152361
-0.4891014286
0.005736447636
0.4896000506
-0.006235069684
-0.4884785773
0.006706238974
0.488919436
-0.003605208057
-0.00354188961
-0.2436179963
0.003830977449
0.2437162868
-0.003929267951
-0.2424354975
0.004201313351
0.2425190917
-0.004284907586
-0.2405695248
0.004505688416
0.2406258857
-0.004562049351
-0.2321995049
0.00464467607
0.2322374378
-0.00468260892
-0.2293579773
0.004981643166
0.229371186
-0.004994851884
-0.002119835146
0.983673117
-0.004217072124
0.9837113909
-0.006261638947
0.983523255
-0.004198973873
0.9832234277
-0.004026566858
-0.4904885264
0.4909795088
-0.004689956298
-0.4900667784
0.0051594797
0.4905066775
-0.00559937884
-0.489331184
0.00601284544
0.4897161955
-0.003226724013
-0.003171132934
-0.2439899654
0.00342327704
0.2440752178
-0.003508529426
-0.2427521321
0.00374420039
0.242824355
-0.00381642334
-0.240780551
0.0040050727
0.2408277768
-0.004052298483
-0.2323623023
0.004127373961
0.2324072361
-0.004172307723
-0.2293970516
0.004443041327
0.2294017143
-0.004447704049
-0.001923265214
0.9855963823
-0.003822476125
0.9856106018
-0.005668304064
0.9853690829
-0.003791331701
0.9849875923
-0.003641136984
-0.4914225365
0.4918616396
-0.004230434782
-0.4909191958
0.004648375615
0.4913088709
-0.00503805071
-0.4900767716
0.005402636815
0.4904149218
-0.002895179185
-0.00284560786
-0.2443134845
0.003067323616
0.2443880236
-0.003141862766
-0.2430265116
0.003347778509
0.2430894355
-0.003410702368
-0.2409582996
0.003573446143
0.2409984547
-0.003613601241
-0.2325505279
0.003684157331
0.2326007772
-0.003734406568
-0.2294060484
0.003982423842
0.2294047197
-0.003981095156
-0.001749828374
0.9873462106
-0.003474819648
0.9873355931
-0.005146854455
0.9870411177
-0.003433049721
0.9865786725
-0.003304884974
-0.4922576358
0.4926520322
-0.003827446156
-0.4916751512
0.004201207869
0.4920221198
-0.004548176548
-0.4907326032
0.004871492359
0.4910314906
-0.002606457043
-0.002563922682
-0.2445971269
0.002758174857
0.2446628352
-0.002823883135
-0.2432662237
0.003005296591
0.2433214891
-0.003060562005
-0.2411102041
0.003202276433
0.241144847
-0.0032369194
-0.2327575898
0.003304795106
0.232811596
-0.003358801281
-0.2293939964
0.003588874657
0.2293884924
-0.003583370639
-0.001599481629
0.9889456923
-0.003173789803
0.9889099013
-0.004696203984
0.9885635319
-0.003123302893
0.9880221125
-0.003016341026
-0.493007687
0.4933639435
-0.003479559424
-0.4923492452
0.003815880102
0.4926602855
-0.004126920404
-0.49131306
0.004415734939
0.4915787596
-0.002358805615
-0.002322628922
-0.2448480148
0.002493362839
0.2449064728
-0.002551820739
-0.2434774291
0.00271308127
0.2435263965
-0.002762048711
-0.2412419927
0.002886722298
0.2412723499
-0.002917079479
-0.2329775941
0.002983465989
0.2330340134
-0.003039885242
-0.2293673268
0.003256079549
0.2293589488
-0.003247701566
-0.001471586847
0.9904172791
-0.002917857742
0.9903561721
-0.004313551011
0.9899592252
-0.002858769696
0.9893408577
-0.002773526561
-0.4936853064
0.4940097627
-0.003183226011
-0.492954687
0.003488287016
0.4932358819
-0.003769481927
-0.491830473
0.004030102219
0.4920696456
-0.002151480959
-0.002117793835
-0.2450719353
0.002269579635
0.2451243513
-0.002321995625
-0.2436652042
0.002466592602
0.2437089879
-0.002510376304
-0.2413581749
0.00262124999
0.2413852133
-0.002648288434
-0.2332055162
0.002714008257
0.2332632178
-0.002771709944
-0.2293307043
0.002977224773
0.2293204357
-0.002966956169
-0.001365679154
0.9917829583
-0.002706148545
0.9916966415
-0.003997095577
0.9912501722
-0.002639882811
0.990558895
-0.002575250111
-0.4943026066
0.4946002976
-0.002937573835
-0.4935033469
0.003216860506
0.4937601669
-0.003473680576
-0.4922978159
0.003711453211
0.4925168677
-0.001981499984
-0.001949005053
-0.2452735359
0.002084998114
0.2453210129
-0.002132475162
-0.2438337718
0.002263531642
0.2438733572
-0.002303117029
-0.2414623296
0.002402983006
0.2414868445
-0.002427497825
-0.2334372
0.002493108891
0.2334953086
-0.002551217486
-0.2292877424
0.002748697613
0.2292763597
-0.002737314894
-0.001281809336
0.9930647676
-0.002537965963
0.9929527982
-0.003745531815
0.9924577381
-0.002458317588
0.9916889797
-0.00241729887
-0.4948688952
0.4951490887
-0.002738511082
-0.4940058556
0.002998177669
0.4942432907
-0.003235612759
-0.4927271617
0.003454530904
0.4929289278
-0.001841086634
-0.001815210383
-0.2454572188
0.001936473031
0.2455009738
-0.001980227998
-0.2439869026
0.002100745641
0.2440231866
-0.002137029628
-0.2415574285
0.002228358142
0.2415800971
-0.002251026775
-0.2336694596
0.002316885825
0.2337273326
-0.002374758869
-0.2292412618
0.002566388969
0.2292293582
-0.002554485393
-0.001217229853
0.9942819974
-0.002409723411
0.9941452917
-0.003554650557
0.9936026652
-0.002328579265
0.9927659045
-0.00230299614
-0.4954009094
0.4956618402
-0.002589510091
-0.4944717229
0.00283152436
0.4946937125
-0.003053514006
-0.4931235954
0.003258201168
0.4933121041
-0.001732473483
-0.00171423639
-0.2456273657
0.001821626592
0.2456682397
-0.001862500573
-0.2441279986
0.001974910911
0.2441617511
-0.00200866343
-0.2416460106
0.002093584301
0.2416674031
-0.002114976822
-0.233899961
0.00218135608
0.2339571031
-0.002238498207
-0.2291934989
0.002425896252
0.2291815975
-0.002413994811
-0.001180004538
0.995462002
-0.002330253984
0.9952955412
-0.003435062117
0.9947074733
-0.002244006303
0.9937955608
-0.002220712152
-0.495899359
0.4961375685
-0.002482215866
-0.4949093126
0.002713582421
0.4951207809
-0.002925050753
-0.4934956697
0.003119739572
0.4936746135
-0.001654296411
-0.001644386884
-0.2457871855
0.001739034378
0.2458259463
-0.001777795248
-0.2442600376
0.001884247015
0.2442919467
-0.001916156088
-0.2417302871
0.001996605843
0.2417509266
-0.002017245387
-0.2341269612
0.002084481316
0.2341829923
-0.002140512446
-0.2291464702
0.002324887297
0.2291350398
-0.002313456901
-0.001139732956
-0.002262542886
-0.003339495968
-0.002193886445
-0.002139378253
-0.4963749908
0.4966089183
-0.002427813978
-0.4953265975
0.00264643244
0.4955303931
-0.002850228004
-0.4938516708
0.003037953149
0.4940219542
-0.001609401252
-0.001598835334
-0.2459395824
0.001688197949
0.2459769649
-0.001725580385
-0.2443857028
0.001828053083
0.2444164111
-0.00185876135
-0.241812393
0.001936693983
0.2418328622
-0.001957163244
-0.2343491677
0.002025778973
0.2344038594
-0.002080470652
-0.2291018851
0.002263075258
0.229091144
-0.002252334166
0.002767694667
-0.002870660139
-0.05246236122
0.003016392965
-0.003128414074
-0.05478679144
0.005413026795
-0.2152406861
-0.003296650099
-0.003357327903
0.1055385765
-0.002754275191
-0.105124078
0.005107471397
0.0220533775
-0.2204979205
-0.01987015718
-0.003710819522
0.1099152341
-0.003014101401
-0.1094837896
0.005599049814
-0.002818252079
0.005236790006
0.105929641
0.05340414663
0.002924582007
-0.003038882921
-0.05328984572
0.02637317862
-0.0002977030361
-0.0269158536
0.0008403780152
-0.02775695587
-0.0008201897437
0.001204159892
0.02737298572
0.005429886552
-0.005806841131
-0.1130597135
-0.001354262972
-0.02798290281
0.001580209914
0.02719582698
-0.0008581387653
-0.02769195119
-0.002596469677
0.04745190858
0.003756107628
-0.02574630305
-0.02286524349
-0.0002187064197
0.0006483770224
0.02594350802
0.002939289725
0.05351055668
-0.003045699778
-0.02251053828
0.02235207164
-6.023977858e-05
0.02464361704
-0.004678039708
-0.0121443373
-0.01041770971
0.0267185825
-0.0003429452626
-0.02288879529
8.05539757e-05
0.005135436973
0.02463685613
-0.02424651549
-0.001204688239
0.001625509199
0.02382569453
-0.05207173342
0.003328890729
0.05220054587
-0.003457703175
0.052554317
0.003366717549
-0.05245975025
-0.001756443409
-0.001704840886
-0.05186053475
0.003166935954
0.05191240561
-0.003218806818
0.003283322365
-0.003352565392
-0.05200249039
-0.0007668653999
-0.02470437546
0.001224725373
-0.02494638312
-0.001121855488
0.001383997902
0.02468424071
-0.05146370165
0.002997564789
0.05154257053
-0.003076433666
0.003145458608
-0.003237519784
-0.05176847357
0.002944999699
-0.003009379501
-0.05139932185
-0.0009375534026
-0.02525812477
0.001249295054
0.02463611407
-0.0005134420554
-0.02506022541
0.0242100277
-0.0006957691185
0.003363895184
0.05262356786
-0.00173409978
-0.00169904626
0.05306656142
0.01374910341
-0.05286389329
-0.005232653749
-0.008719117783
-0.01232651299
0.02556592803
-0.02474669907
0.01150728404
0.01221913543
-0.01571057327
-0.008835075152
0.02381786046
-0.02374353553
0.004838894638
-0.02377504816
-0.005552780369
0.005463857974
0.02386397055
0.02377845028
-0.0002461885233
-0.02429912715
0.02740514217
-0.02180373554
-0.0004659696569
-0.005668076397
-0.02373766639
0.005630694629
-0.006493726835
0.01282001784
0.02107885117
0.02306051522
-0.0004867531783
0.02452856074
0.0247734958
-0.02483502021
0.009976101155
-0.007085308599
-0.224458633
0.226492777
0.009356286866
-0.00546805654
-0.1124663755
-0.1124847453
0.005605595824
0.110355035
0.1116764568
0.005901589518
-0.006397110572
-0.1111809357
-0.006169925837
0.09492380739
-0.09562537367
0.006871492115
-0.002520532811
0.003814688326
0.04615775307
-0.004766520189
-0.02641062413
0.00367796173
0.02749918259
-0.02639102787
0.001974365481
0.02671337555
-0.002296713164
0.02670418074
0.001674317
-0.001536564514
-0.02684193323
0.02659886864
-0.004475784406
0.08082849435
-0.009815063075
-0.0771833571
0.02628911997
0.0008781681247
-0.0004951667078
-0.02667212138
-0.0247151855
0.004237632206
0.02661134584
-0.006133792547
-0.03219723801
0.02381620999
0.03394695606
0.02391855385
0.05439114272
-0.01894874459
-0.006294390556
0.003459432255
0.05460222818
-0.003555779643
-0.05450588079
0.001626264098
0.02652077123
-0.001442854581
0.02598025999
0.001725718725
-0.001584774286
-0.02612120443
-0.0004293712694
0.02455696241
-0.02502098307
0.0008933919363
0.024669535
0.02163525168
-0.02189866284
-0.0001659601016
0.02029066617
-0.003843373549
-0.01558189304
-0.0008653995816
-0.008504362228
0.0495664257
-0.04910550262
0.008043439149
0.00243537685
0.02382948441
-0.01997810257
0.02545498919
0.0004901878111
-0.0001068131448
-0.02583836386
-0.03086699202
0.02603892965
6.154218216e-05
-0.02554831086
0.00176379354
0.02557586755
-0.001791350229
0.001945603141
-0.002357100179
-0.02597953083
-0.006002943864
-0.02460973543
0.004202055164
-0.0005181018937
-0.02602223557
0.0009563100145
0.02558402745
-0.02585915649
0.001624276093
0.02575162434
-0.001516743947
0.001701099008
-0.001646389157
-0.02560302071
0.0008460697494
0.02588951797
-0.0004464677523
0.003613107707
-0.004599840363
-0.02372845284
-0.001194541774
0.001609056938
0.02414244724
0.002048125935
0.0259336223
-0.002001488238
0.02685345539
0.009267573817
-0.009766145705
-0.0263548835
-0.001977609021
0.02515371399
-0.02008135243
-0.003094752537
-0.004414077438
0.008434408056
0.01627033555
0.02078148503
-0.0003407751296
-0.01692557997
0.02211163006
-0.004452665374
-0.0007333847161
0.01924479109
-0.004526412607
-0.01856175203
0.02382390908
-0.005024165083
-0.02389772112
0.005097977129
0.02508297294
-0.0001460856423
0.01397686927
-0.000883815313
-0.02309176276
-0.006099169924
0.005829340398
0.02336159229
-0.004125187641
-0.01208051109
-0.0007198812328
-0.006319777552
-0.02294300708
0.006171021868
-0.01476964593
-0.02210028996
-0.02616506039
0.001669091429
0.02607521113
-0.001579242164
0.001564704029
-0.001501721957
-0.02592213856
-0.02646680207
0.0009347543118
-0.02567337926
0.003022319223
0.02688869225
-0.02573089545
0.001747462319
0.02588375862
-0.001900325483
0.001589226964
-0.00164935461
-0.02610493275
-0.02392709483
0.02309453095
-2.557488604e-05
0.002332524921
-0.0262600669
4.471487954e-07
-0.02774326175
0.002383835482
0.02213855531
0.0001151280491
9.838827972e-05
-0.0001098264128
0.02626315065
0.000565258267
-0.0227954632
0.0225585228
0.0001271139809
-4.38775087e-05
-0.02376221072
0.0008318089122
4.160651986e-05
-0.02546130599
0.001545170874
0.02546347649
-0.001547341368
0.001692001173
-0.001847857221
-0.0255750394
-0.02480242259
0.002742151037
-0.02623248855
0.001167210639
0.02591134766
-0.0255735673
0.001490067146
0.02553801764
-0.001454517481
0.001521896234
-0.001503389661
-0.02547981256
-0.02469118705
0.02429261233
-0.0001148673404
0.0004454865852
-7.766045398e-05
-0.02505901318
0.0008631332695
-0.0254778721
-0.001169197757
0.02382438064
0.001554844818
-0.02380174155
0.0231207104
-0.0004881666065
-0.0002048983364
0.006833745604
-0.007385523067
-0.02419492161
0.0256717321
-0.02514507487
0.006307088383
0.0266694359
0.01050958023
0.000204764341
0.004264300456
-0.004469064796
-0.01871153191
-0.00438456442
0.004985157834
0.02381784138
0.01954922627
-0.004718512613
0.02082523487
-0.002204383125
-0.02059846076
-0.02175171488
0.02147717501
2.835134266e-05
0.0002085820467
-0.0219170808
-4.321612453e-05
-0.02470424784
0.0006137027352
-0.01825254048
-0.0004854787574
0.01385082132
-0.001030803484
-0.004981651457
0.01945060535
-0.0006181325665
0.02230847923
-0.006211279511
-0.001473742858
0.02222617429
0.002308083784
-0.02091736472
0.01943284231
1.077954849e-05
7.305711876e-05
0.02492568892
-0.02495038196
0.02253873102
0.0001995917501
-2.515924424e-05
0.02241782767
0.0001621770968
-4.127374622e-05
0.01501332432
-0.0150213524
8.028081275e-06
-0.004796970165
0.003665054256
-0.03106159522
4.558159981e-06
-0.02218206345
0.01996099335
0.02760553091
-0.02071306887
0.02716046044
0.001559959884
-0.001449378202
-0.02727104211
-0.0001138057115
0.02319673196
-0.02396828624
0.0008853599919
0.0006192971094
-0.0001502432808
-0.0254900369
0.02571013996
-0.02617649928
0.001085656428
0.0252931636
0.001310368301
8.964918813e-05
-0.01113974544
-0.003485637679
-0.0009565099179
-0.009796609389
-0.001343136049
0.01198235779
-0.001565001577
-0.01053116192
0.0170693049
-0.004306402434
-0.01691246343
0.004149560965
0.003054895668
0.00367032395
0.01842849438
-0.02236477569
0.02221973452
3.822802608e-05
5.809895621e-05
0.0001356481605
0.0004828857458
0.002390062269
-0.0001133433372
0.02197866242
-0.02212200708
6.568420269e-05
0.02181627485
4.75202305e-05
0.02227191564
9.739631673e-05
4.85157114e-05
6.684188162e-05
8.306668702e-05
-0.02229863579
-0.004483268021
0.002304038075
-0.001481963463
0.002399965874
0.01953255517
-0.02104110336
2.658472545e-05
2.793475256e-05
0.0215693358
4.204071066e-05
4.006583833e-05
0.02503337046
0.001868850072
-0.0034351667
0.003323462291
-0.003487641064
0.000829022086
-0.01701673178
-0.003893642738
0.01660105733
-0.01354502392
-0.002227011321
0.01371106913
0.009978072042
-0.001543663985
-0.00222107971
-0.001345872165
-0.002967475936
-0.001417687941
-0.004989842377
0.01730486305
-0.02037065236
-0.005298425215
0.0206792352
-0.0197237186
-0.005099599137
-0.0001737293941
0.0005524544917
-0.02207327551
-1.753468168e-05
3.733632028e-07
-0.0005448068299
-0.0182027497
0.02382309163
-0.004903671768
-0.000716670158
-0.01294960034
-0.004544391976
-0.0007087573817
-0.01850056131
-0.00534834493
0.01093963466
-0.005617104341
-0.001140876434
-0.01191683029
-0.001032770047
0.005402221218
-0.006036749071
0.0254354058
-0.0005825792311
0.01968959737
-0.01502797777
0.0002583318483
0.004417348434
-1.248389663e-05
0.004543232773
0.007239151409
-0.007215392236
-0.1938849467
-0.003824303314
0.1775778771
-0.1809245391
0.007348362464
-0.003081823169
-0.1800517325
-0.001977021874
0.1875077065
-0.1874842973
0.002090535962
-0.002209405069
-0.1927613558
0.2145027718
-0.2129858629
0.003910330999
0.02120854289
-0.02047570641
-0.1907648572
-0.01832618887
0.1780286485
-0.1784880696
0.01896647161
-0.0007724526618
0.180119169
-0.01783264242
-0.1783151956
-0.01776379716
0.189430281
-0.1890378393
0.01750579127
0.00208417628
0.1882723351
-0.01834789514
-0.1957115784
0.2212755952
-0.2197794801
0.0205633418
0.004087155893
0.2160971856
0.2190311952
0.0058010623
-0.003542547666
-0.003546303627
0.108731775
-0.004254974838
-0.1083754335
0.003898633324
-0.1073157634
-0.004118018577
0.003768269881
0.1076655121
0.05297175918
0.002871476128
-0.002987107898
-0.05285612741
0.05237690306
-0.05228382294
0.003190242246
-0.05204228058
0.003085764112
0.05212345242
0.01575665375
-0.01742808287
-0.1924044723
-0.02044461297
0.1791501726
-0.1783349523
0.01980278793
0.01014955735
0.1778279498
-0.02069397098
-0.1777036861
-0.01891200801
0.1865839444
-0.1874713386
0.01994255726
0.008179261178
0.1890026616
-0.01742267904
-0.1938952044
0.2145326442
-0.2174984466
0.01297961949
0.006051272428
0.2213648845
-0.007301755588
0.2245268584
0.006072533899
0.2240274519
-0.00432236952
-0.1113746442
-0.1112609742
-0.004371219488
-0.1105322105
-0.004401332873
0.004040746757
0.1108927967
0.1107018702
0.006028443891
-0.003251790328
-0.003246968931
0.05529936932
-0.003571634642
-0.05511806902
0.003390334344
-0.05472458768
-0.003485480885
0.003368619516
0.05484144905
0.01895652864
-0.02304470067
-0.203112565
-0.03306975016
0.1876265365
-0.184611136
0.03019662803
0.02289601594
0.1804272439
-0.03536841309
-0.18205594
-0.0383119258
0.1856221198
-0.1851860937
0.03802041262
0.02440373214
0.1858053263
-0.03791209858
-0.1892292577
-0.03310864785
0.2039251919
-0.205952742
0.03521831349
0.0173478098
0.2114426492
-0.03068919668
-0.2117499268
-0.02405755362
0.2232013445
-0.2251364612
0.02601312838
0.008749627475
0.2277684099
-0.02097961197
-0.2240446682
0.01220280544
-0.01836245854
-0.2231174517
-0.03586164516
0.2062766208
-0.2006584727
0.03033028745
0.03153652068
0.1913046977
-0.0409302412
-0.1959361092
-0.05252728094
0.1943869657
-0.191063765
0.04932071878
0.04204524944
0.1867034845
-0.05504700706
-0.1922802625
-0.05891701915
0.2027644745
-0.2019122953
0.05815411695
0.04179353301
0.2025289075
-0.05933950466
-0.2064369242
-0.05602646686
0.2144201121
-0.2169836434
0.05862661029
0.03507664194
0.2213329026
-0.05372946246
-0.2112450784
0.009121509316
-0.0095272534
-0.2364906865
-0.0206343584
0.2331320594
-0.2259919361
0.01351137593
0.02783158054
0.2124371096
-0.02760136701
-0.2198950138
-0.04632826138
0.2143789923
-0.2085403482
0.04055121117
0.04939755181
0.1984484588
-0.05154807748
-0.2071655246
-0.06364774653
0.2131603507
-0.2096845687
0.06023248699
0.06131678648
0.2043830761
-0.06612423104
-0.2121388615
-0.06612001257
0.2083716894
-0.2085418493
0.0663173309
0.06357236399
0.2118837364
-0.0683687918
-0.2094508475
0.008401419778
-0.008739117541
-0.2380095745
-0.009751008767
0.2378833051
-0.2375473862
0.009415089833
0.01012138054
0.2368167197
-0.01008393452
-0.2373348923
-0.01437943878
0.2368977237
-0.2334723376
0.01095817082
0.03440934053
0.2205786482
-0.02022224315
-0.2302218637
-0.03525932385
0.2297109101
-0.2253805952
0.03094715334
0.05582106913
0.2170138071
-0.03843044825
-0.2232934344
-0.04477644952
0.2158354468
-0.2133130748
0.04226389219
0.06317272475
0.2092687112
-0.04711827709
-0.2198798771
0.007644028413
-0.007924386946
-0.2392725122
-0.008746508268
0.23905698
-0.2387869935
0.008476521765
0.009178353867
0.2382011593
-0.009011605371
-0.2385591247
-0.009775905778
0.2379984172
-0.237749019
0.00952650758
0.01042566365
0.2371994261
-0.01001562758
-0.2374728386
-0.0104637558
0.2357021961
-0.235631933
0.0103934927
0.01947705187
0.2340404861
-0.0104429973
-0.232048808
-0.01106097505
0.2219684629
-0.221534163
0.01062667517
0.03174721376
0.2183361062
-0.01138799196
-0.2266580791
0.006900675095
-0.007133887203
-0.2403218978
-0.00780612484
0.2400051988
-0.2397863
0.007587226018
0.008250573884
0.2393129961
-0.008019473702
-0.2395375677
-0.008622648402
0.2388515083
-0.2386576312
0.008428771283
0.009243117688
0.2382322083
-0.008803700465
-0.2383364458
-0.00910590472
0.2358956872
-0.2358572687
0.00906748614
0.01004219857
0.2357616395
-0.009092373468
-0.2319801645
-0.00965110697
0.22342316
-0.2230943537
0.009322300588
0.01029104103
0.2223697042
-0.009846206297
-0.227732689
0.006197814529
-0.006392748347
-0.2411965303
-0.006947388405
0.2407791409
-0.2405996625
0.006767910007
0.007376811743
0.2402133189
-0.007121364097
-0.2403286441
-0.00760550221
0.2395227954
-0.2393690476
0.00745175438
0.008174933211
0.2390341716
-0.00774581051
-0.238995284
-0.007959945015
0.2360066176
-0.2359839354
0.007937262826
0.008770077982
0.2359290914
-0.007953795717
-0.231935742
-0.008448672366
0.2245491478
-0.2242937003
0.008193224918
0.009025199585
0.2237318432
-0.008572348362
-0.2283950195
0.005546559149
-0.005710294863
-0.2419286657
-0.006172011463
0.2414178422
-0.241269068
0.00602323725
0.006572953316
0.240950176
-0.006315671463
-0.2409765582
-0.006710285041
0.2400605967
-0.2399366462
0.006586334503
0.007223419242
0.2396682451
-0.006820891062
-0.2395091205
-0.006978549162
0.2360770561
-0.2360616733
0.006963166382
0.00767817772
0.2360268326
-0.006983064457
-0.2319265226
-0.007420051011
0.2254223944
-0.2252246106
0.007222267233
0.007934662287
0.2247888205
-0.007498630572
-0.2288159062
0.004952044971
-0.005090586042
-0.2425454423
-0.005478720651
0.2419509662
-0.2418262682
0.005354022656
0.005847771448
0.2415600226
-0.005598817749
-0.2415140488
-0.005924733967
0.240497738
-0.2403965129
0.005823508841
0.006385144352
0.2401782729
-0.006013166019
-0.2399163076
-0.006134875956
0.2361317696
-0.2361186455
0.006121751881
0.006739852635
0.2360915026
-0.006150880572
-0.231961879
-0.006537188477
0.2260968942
-0.2259443671
0.006384661334
0.006999863554
0.2256077604
-0.006586268792
-0.2290821904
0.004417971428
-0.004536106448
-0.2430688835
-0.004865648015
0.2424009284
-0.2422952417
0.004759961401
0.005199957121
0.2420705244
-0.004967243567
-0.2419653938
-0.00523961391
0.2408573817
-0.2407737276
0.005155959831
0.005649537277
0.2405941712