/*--------------------------------*- C++ -*----------------------------------*\
| =========                 |                                                 |
| \\      /  F ield         | OpenFOAM: The Open Source CFD Toolbox           |
|  \\    /   O peration     | Version:  v2012                                 |
|   \\  /    A nd           | Website:  www.openfoam.com                      |
|    \\/     M anipulation  |                                                 |
\*---------------------------------------------------------------------------*/
FoamFile
{
    version     2.0;
    format      ascii;
    class       surfaceScalarField;
    location    "2.9";
    object      phi;
}
// * * * * * * * * * * * * * * * * * * * * * * * * * * * * * * * * * * * * * //

dimensions      [0 3 -1 0 0 0 0];
oriented        oriented;


internalField   nonuniform List<scalar> 
5975
(
-0.05830125478
0.006320676522
0.05780328369
-0.01227965586
0.006456950422
0.01516758222
-0.1244868074
0.2452916383
-0.02626411514
0.01472903157
-0.1244373296
-0.2739056122
0.02507692053
0.2755171083
-0.02663581534
-0.2920293152
0.02410106062
0.2909464755
-0.02292060101
-0.280740447
0.01879086833
0.2791738735
-0.01713792837
0.01155218885
-0.2450970239
0.2430923688
-0.009527738271
-0.4650956711
0.01455018726
0.4630767352
-0.0125312513
-0.4618948191
0.01096302596
0.4604314047
-0.009499611468
-0.01303917885
0.9106578882
0.008712871563
0.008255233923
-0.008421074071
0.9044755908
-0.004149412113
0.9026288134
0.9016552753
-0.112142588
0.008300013518
0.1120036871
-0.01621434448
0.00805323187
0.02537996126
-0.2385150719
0.2381309575
-0.02499358721
-0.2754656908
0.02482747689
0.2758685748
-0.02516334277
-0.287379307
0.0241763525
0.291960282
-0.02866087686
-0.2738630236
0.02511993363
0.2683853129
-0.01957247302
0.0111398743
-0.2343931613
0.2326381484
-0.009381916592
-0.461304709
0.01543447841
0.459713439
-0.01384320835
-0.4589523166
0.01228180248
0.4572308111
-0.01056029684
-0.01254406088
0.9058871032
0.008595290199
0.008719555743
-0.009145635305
0.9010771652
-0.004483036809
0.8979662149
0.8971722385
-0.2263351095
0.01684432048
0.226903944
-0.01741315498
-0.2454079541
0.02586110079
0.2492228206
-0.02965031264
-0.2799464376
0.03564016091
0.2803696167
-0.03598370075
-0.2885464168
0.03303575064
0.2865939402
-0.03098731859
-0.2591971678
0.02276087449
0.2593296088
-0.02284266511
0.01155205611
-0.2310800821
0.2287608066
-0.009232780583
-0.4582962967
0.01719219633
0.4552051589
-0.01410105857
-0.4554829126
0.01264523856
0.4534798888
-0.01064221467
-0.01296927368
0.9011910064
0.008913653027
0.008751717513
-0.009225469013
0.8973333606
-0.004700229347
0.8934409753
0.8924720092
-0.2359895374
0.03954979652
0.2385260727
-0.04207520317
-0.258894953
0.04991714322
0.2608783439
-0.05185556517
-0.2798158583
0.0528652283
0.2784952639
-0.05146698586
-0.2775811047
0.04246796451
0.2733566054
-0.03816784755
-0.2466086171
0.02308171483
0.2413158194
-0.01776189816
0.01107730053
-0.2268569751
0.2262618748
-0.01048220028
-0.4544880756
0.01760989931
0.4518173176
-0.01493914136
-0.4506481312
0.01155994658
0.4490772899
-0.009989105266
-0.01220294395
0.895013415
0.009461371431
0.008919163873
-0.006847581079
0.8919779977
-0.004765681333
0.8913590756
0.8877063278
-0.2422466464
0.0731796655
0.2423288045
-0.07324650521
-0.2614735598
0.07156685814
0.2599244033
-0.06997261098
-0.2698972414
0.06093882364
0.2654619984
-0.05644385204
-0.2569242755
0.03922949056
0.2503375138
-0.03260085951
-0.2257287911
0.01273496397
0.224875193
-0.01188111701
0.01033855612
-0.2246478068
0.224150248
-0.009840997258
-0.4481462095
0.01675733323
0.4464226218
-0.01503374558
-0.4475136781
0.01338861679
0.4459219245
-0.01179686311
-0.01142470445
0.8879364462
0.01014823484
0.008353438443
-0.006475419552
0.8870287128
-0.004411187788
0.8892948438
0.8832951401
-0.2398730419
0.07612275064
0.2383615754
-0.07459895184
-0.250792345
0.06604150711
0.2466135465
-0.06183355556
-0.2483640831
0.04533017331
0.2417997343
-0.03873818087
-0.2285654771
0.01698754098
0.2239709188
-0.01238994589
-0.2234682131
0.01112798887
0.2230554094
-0.01071518525
0.009481870827
-0.2228146235
0.2224052772
-0.009072524473
-0.444810491
0.0156254905
0.4433087304
-0.01412372992
-0.4444401889
0.01266098526
0.4430010762
-0.01122187263
-0.01428469436
0.8827803551
0.009613848337
0.009826937177
-0.009385514085
0.8821295325
-0.001838441476
0.8817477712
0.8814566986
-0.2327429325
0.03893426236
0.2307629477
-0.03695011668
-0.2324709778
0.02657715618
0.227726361
-0.02182734353
-0.2243330104
0.01215198426
0.2241034264
-0.01192240034
-0.2229488334
0.0111304322
0.2226569972
-0.01083859598
-0.2219586862
0.009906283121
0.2216347997
-0.009582396725
0.008591802496
-0.2213089815
0.2209714792
-0.00825430025
-0.4419124085
0.01435497161
0.4406181459
-0.01306070901
-0.4416741491
0.01177717747
0.4403920045
-0.01049503282
-0.01346416817
0.8780393793
0.008970443502
0.009234700359
-0.008885789538
0.8775511539
-0.004411887381
0.8772738691
0.8770448112
-0.2283462044
0.01125344024
0.2283294622
-0.01123669801
-0.2256861513
0.0110462606
0.2255812737
-0.01094138295
-0.2235059763
0.01051893548
0.2233324709
-0.01034543016
-0.2218893098
0.009741744895
0.2216642221
-0.00951665721
-0.220768197
0.008786270458
0.2205101572
-0.008528230596
0.007724104681
-0.2200683257
0.219787471
-0.007443250025
-0.439418718
0.01305549456
0.4383077241
-0.01194450065
-0.4392163844
0.01082543033
0.4380827425
-0.009691788473
-0.01252697645
0.8737286636
0.008276111584
0.008561580562
-0.008301717236
0.8733258947
-0.004131767071
0.8731039189
0.8729130441
-0.2282745139
0.009752571137
0.228254383
-0.009732440228
-0.2253014095
0.009571714589
0.225217648
-0.009487953018
-0.2228730863
0.009155812462
0.2227372825
-0.009020008736
-0.2210644862
0.008545768771
0.220886391
-0.008367673586
-0.2198141838
0.007783469139
0.219605232
-0.007574517333
0.006913771135
-0.2190389837
0.2188032893
-0.006678076704
-0.4372777725
0.01179832843
0.4363226484
-0.01084320441
-0.4370468384
0.009868859621
0.4360476144
-0.008869635574
-0.01154244793
0.8698382107
0.007572844229
0.007860056661
-0.007677082048
0.8694605288
-0.003828912998
0.8692557499
0.8690841311
-0.2281895929
0.008512717121
0.2281667631
-0.008489887241
-0.2249888682
0.008347979257
0.2249190293
-0.008278140291
-0.2223719117
0.008007300322
0.2222622442
-0.007897632777
-0.2204063614
0.007515044212
0.2202622355
-0.007370918282
-0.2190372876
0.006894797595
0.2188655118
-0.006723021832
0.006174169933
-0.2181781564
0.217980108
-0.005976121591
-0.4354350972
0.01061866368
0.4346100314
-0.009793597833
-0.4351363861
0.008944163252
0.4342563376
-0.008064114772
-0.01055860469
0.8663425348
0.006889171181
0.007165109316
-0.007044586168
0.8659465103
-0.003519945223
0.8657311089
0.8655641859
-0.2280955908
0.007476400384
0.2280711933
-0.007452002885
-0.2247252393
0.007323781492
0.2246652694
-0.007263811664
-0.2219631245
0.007036537993
0.2218721899
-0.006945603457
-0.2198697009
0.006629652768
0.219750665
-0.006510616838
-0.2183951031
0.006115739568
0.218251782
-0.005972418512
0.005510878917
-0.2174532799
0.2172851587
-0.005342757678
-0.4338419906
0.009535947899
0.4331267129
-0.008820670199
-0.4334541907
0.008077984518
0.4326781205
-0.007301914329
-0.009611464367
0.863208564
0.006243406912
0.006502028238
-0.006429545683
0.8627645916
-0.003217827481
0.8625193907
0.8623463584
-0.2279967017
0.006601530753
0.2279715827
-0.00657641176
-0.2244970689
0.006459028603
0.2244445066
-0.006406466286
-0.221621447
0.006211530248
0.2215444164
-0.006134499593
-0.2194235658
0.005868383774
0.2193234898
-0.005768307716
-0.2178566384
0.005435641523
0.2177354158
-0.00531441897
0.004921737211
-0.2168364854
0.2166923696
-0.004777621408
-0.4324592997
0.008556509672
0.431836116
-0.007933325998
-0.4319706921
0.00728154407
0.4312848197
-0.006595671633
-0.008722152937
0.8604007492
0.005646388736
0.005883579023
-0.005847493105
0.8598899318
-0.002930634548
0.8596025322
0.8594157239
-0.2278958573
0.005855681217
0.2278705757
-0.005830399584
-0.2242959755
0.005722044887
0.2242492264
-0.005675295876
-0.2213301993
0.005505296308
0.2212638353
-0.005438932261
-0.2190464511
0.00521115368
0.2189610506
-0.005125753216
-0.2173992598
0.004841715905
0.217295505
-0.004737961044
0.00440038137
-0.2163065528
0.2161819336
-0.00427576221
-0.4312530069
0.007680946318
0.430706972
-0.007134911378
-0.4306591684
0.006560411302
0.4300511544
-0.005952397325
-0.00790404464
0.8578831672
0.005104234758
0.005317391902
-0.005308674
0.8572945611
-0.002663808081
0.8569576663
0.8567519158
-0.227794933
0.005217711597
0.2277698451
-0.00519262367
-0.2241163197
0.00509198913
0.2240742683
-0.005049937761
-0.2210779248
0.004899701887
0.2210199493
-0.004841726343
-0.2187230368
0.004644089649
0.2186492118
-0.004570264689
-0.2170061769
0.004324854488
0.216916416
-0.004235093626
0.003942101566
-0.2158471129
0.2157384774
-0.003833466108
-0.4301944658
0.006905674381
0.4297131462
-0.006424354843
-0.4294957847
0.005915505727
0.4289547361
-0.005374457085
-0.0071622699
0.855621701
0.004617069467
0.004806666552
-0.004817678063
0.8549499693
-0.002419945866
0.8545599341
0.85433197
-0.2276951221
0.004673765269
0.2276704354
-0.004649078594
-0.223954104
0.004555094492
0.2239159075
-0.00451689802
-0.2208564969
0.004382584522
0.2208052214
-0.004331308924
-0.2184421909
0.004157699413
0.2183776054
-0.004093113975
-0.2166647769
0.003878685906
0.2165863118
-0.003800220785
0.003543507134
-0.2154454449
0.2153499582
-0.003448020481
-0.4292600206
0.006225183369
0.4288330573
-0.005798220143
-0.428459751
0.005345077806
0.4279760927
-0.004861419453
-0.006500316155
0.8535839028
0.004186281039
0.00435183333
-0.004377790547
0.8528274437
-0.002200954177
0.8523830977
0.8521310158
-0.2275971134
0.004210663716
0.227572936
-0.004186486303
-0.2238062958
0.004098258745
0.2237713015
-0.004063264474
-0.2206598701
0.003941956102
0.2206140183
-0.003896104365
-0.2181955114
0.003741885113
0.2181383823
-0.003684756039
-0.2163652726
0.003495410296
0.2162959945
-0.003426132245
0.003199113445
-0.215091346
0.2150067231
-0.003114490538
-0.4284297734
0.005632989835
0.4280484759
-0.005251692374
-0.4275326703
0.004845728684
0.427098001
-0.004411059352
-0.005916938698
0.8517398321
0.003809475021
0.003951534391
-0.003988920475
0.8508994255
-0.002006998333
0.8504011755
0.8501240174
-0.2275012504
0.0038163011
0.2274776354
-0.003792686044
-0.2236705177
0.003709475437
0.2236382141
-0.003677171827
-0.2204834272
0.003566620329
0.220442021
-0.003525214075
-0.2179765274
0.003386822664
0.2179254781
-0.003335773351
-0.2160999571
0.003166915097
0.2160382062
-0.003105164159
0.002902587289
-0.2147765495
0.2147009387
-0.002826976527
-0.4276870444
0.005122536799
0.4273440615
-0.004779553853
-0.4266984636
0.004413394913
0.4263053706
-0.004020301938
-0.005409715298
0.8500619401
0.003484142687
0.00360346458
-0.003649999293
0.8491397094
-0.001837709505
0.8485888858
0.8482863079
-0.2274076606
0.003483683642
0.2273846173
-0.003460640359
-0.2235448275
0.003381766207
0.2235147805
-0.003351719131
-0.2203235163
0.003250065878
0.2202857565
-0.003212306038
-0.2177801067
0.003086842677
0.2177340161
-0.003040752016
-0.2158626077
0.002888622332
0.2158070162
-0.002833030855
0.002650497516
-0.2144941115
0.2144259122
-0.002582298203
-0.4270177027
0.004688268408
0.4267066469
-0.004377212641
-0.425942944
0.004044334467
0.4255848095
-0.003686200026
-0.004975592319
0.8485245855
0.003207533361
0.003305413536
-0.0033593969
0.847523514
-0.001692390033
0.8469218789
0.8465939179
-0.2273163305
0.003205597258
0.2272938436
-0.003183110412
-0.2234275786
0.003107961567
0.2233994198
-0.003079802723
-0.2201771484
0.002985502658
0.2201423775
-0.002950731758
-0.2176020683
0.002835820211
0.2175600193
-0.002793771195
-0.2156481405
0.002655304896
0.215597603
-0.002604767362
0.002438866075
-0.2142382775
0.2141766069
-0.002377195402
-0.4264091252
0.004323593308
0.4261239965
-0.004038464596
-0.4252534106
0.003733086505
0.4249242936
-0.003403969493
-0.004610106938
0.8471049982
0.002976627528
0.003053066693
-0.003114447873
0.8460278549
-0.001569837321
0.8453772683
0.8450240806
-0.2272271475
0.002978424731
0.2272051656
-0.00295644278
-0.2233173507
0.002884404744
0.223290739
-0.002857793116
-0.2200418272
0.002769456603
0.220009463
-0.002737092437
-0.2174389383
0.002630640341
0.2174001233
-0.002591825343
-0.2154523555
0.002464302752
0.2154058789
-0.002417826171
0.002265421439
-0.2140048361
0.2139487055
-0.002209290804
-0.4258497958
0.00402429924
0.425585666
-0.003760169454
-0.4246184686
0.003477169754
0.4243131884
-0.003171889604
-0.004310216069
0.845779423
0.002789628377
0.002846162819
-0.002913424251
0.8446310631
-0.001469144637
0.8439329887
0.8435549359
-0.2271398954
0.002797866439
0.2271183516
-0.002776322616
-0.2232128469
0.002706808653
0.2231874715
-0.002681433242
-0.2199153542
0.002597817402
0.2198848816
-0.002567344806
-0.2172876603
0.002467506677
0.217251365
-0.002431211361
-0.2152714111
0.002312188791
0.2152280723
-0.002268850009
0.002126619215
-0.2137892624
0.2137366196
-0.00207397638
-0.4253308608
0.003784355806
0.4250841317
-0.003537626705
-0.42402781
0.003272327438
0.4237403757
-0.002984893164
-0.004073221213
0.8445366877
0.002641048984
0.002674907514
-0.002754837176
0.843312679
-0.001390026672
0.8425681782
0.8421649093
-0.2270543101
0.00265937588
0.2270331363
-0.00263820212
-0.2231128797
0.002570673099
0.2230884616
-0.002546254935
-0.2197957746
0.00246625881
0.2197667417
-0.002437225966
-0.2171455351
0.002342396288
0.2171111429
-0.002308004119
-0.2151018755
0.002195407858
0.2150609185
-0.002154450859
0.002020059015
-0.2135868381
0.2135370947
-0.001970315634
-0.4248442286
0.00360258778
0.4246104432
-0.00336880244
-0.4234714202
0.003117614822
0.4232003208
-0.002846515435
-0.00389494615
0.8433424083
0.002534567458
0.002554658064
-0.002634693684
0.8420524266
-0.001329305145
0.8412627896
0.8408356041
-0.2269700722
0.002560626144
0.226949184
-0.002539737936
-0.2230163205
0.002473646723
0.2229925891
-0.002449915266
-0.2196813011
0.002372501495
0.2196532898
-0.002344490206
-0.217010149
0.0022532014
0.2169771009
-0.002220153318
-0.2149407921
0.002112106543
0.2149015269
-0.002072841358
0.001944013842
-0.2133945229
0.2133467941
-0.001896285021
-0.4243815115
0.00347538039
0.4241568305
-0.003250699376
-0.4229432621
0.003008970545
0.4226821432
-0.002747851584
-0.003783859234
0.8421917907
0.00245255763
0.002481919184
-0.002560697763
0.8408292651
-0.001295481203
0.8399975731
0.8395401229
-0.226886804
0.002501142404
0.2268660862
-0.002480424608
-0.2229220738
0.00241515068
0.2228987411
-0.002391817999
-0.2195702842
0.002315936944
0.2195428856
-0.002288538395
-0.2168793151
0.002199380537
0.216847077
-0.002167142437
-0.2147854688
0.002061850542
0.2147472415
-0.002023623206
0.001898317631
-0.2132089981
0.2131627642
-0.00185208379
-0.4239354198
0.003401851775
0.4237162362
-0.00318266819
-0.4224348057
0.002948230975
0.4221873393
-0.002700764621
-0.003695557057
0.002369667072
0.002441155812
-0.002497443515
-0.0012558478
-0.006547044052
0.02900978018
-0.02915772679
0.006694990663
0.006569587861
-0.0126304474
-0.0587874393
0.1239255163
-0.01569225523
-0.1250364689
0.01680320786
-0.008835617233
0.05532059163
-0.05530359144
0.008818617037
0.006543170947
0.02878728575
-0.01761006765
0.0008356523019
-0.05208823864
-0.05211555124
0.2327925155
-0.02117218052
0.01301542488
0.01262762244
-0.118809416
-0.1184539663
0.01619388074
0.1228992178
-0.00940056003
0.1121677841
-0.1117987143
0.009031490215
0.008372582252
0.0552480229
0.1222696408
-0.02032483144
-0.1235179243
0.01068905233
0.01088406255
-0.05410038541
-0.009276114465
0.00962889038
0.0537476095
-0.009578133221
-0.0545572217
0.0100349695
0.05524770111
-0.009283684599
-0.05554214972
0.1190317412
-0.01685570951
-0.1194148644
0.0172388327
-0.0195687665
0.1210679733
0.0102854561
0.01048497797
-0.03042877059
-0.007127383757
0.007457760107
0.03009839424
0.05571433115
-0.01153476302
-0.05615666602
0.005962382821
0.006014715072
-0.007183636746
-0.03068944074
0.007444306895
0.03039113836
-0.006979485659
-0.03059528944
0.06140368288
-0.01220492175
-0.06181296578
0.01261420467
-0.01120611951
0.011547085
0.05537336566
-0.01992006963
0.00988921386
-0.1126134999
-0.1130913139
-0.02280268443
0.2362389824
-0.2328901866
0.01945889961
0.2345538768
0.01343925593
0.01017934401
0.05976093942
-0.01139499659
-0.06016077188
0.01179482905
-0.01205945992
0.01248379486
0.06097934794
0.03017132148
-0.006907566873
0.1159734315
-0.01114583756
-0.1160169949
0.01118940098
-0.01598998746
0.01589812748
0.1191236012
0.05482844134
-0.008856854688
-0.01257863665
0.1109274157
-0.1106240624
0.01227528333
0.01705971554
-0.01655947031
-0.0005002452291
0.03035496849
-0.007207424573
-0.0305161118
0.007368567879
0.04889859364
-0.008356792062
-0.04906981126
0.05205688625
-0.007775221768
-0.05281749523
0.008535830748
0.006675219075
-0.02538128056
0.02650993968
-0.007803878199
0.006184301365
0.02756521762
-0.006810425274
-0.0269390937
0.02952639116
-0.006869082119
-0.02957953222
0.006922223182
0.0252423368
-0.02368158092
0.004623545482
-0.01713319008
0.02420969219
-0.0004012830391
0.02711093243
-0.007355034962
-0.02706085253
0.007304955069
-0.005513907655
0.003763251277
0.02699299319
0.02768342261
-0.005972843684
-0.02126249445
0.02697886504
-0.006726728865
-0.02697804996
0.006725913796
-0.007200916198
0.007064823019
0.02724702561
0.02722722419
-0.006088697051
-0.02724526766
0.006106740528
-0.006529168384
0.006523927495
0.02698410593
0.0209096624
-0.006184681406
-0.01667778579
-0.0004554042849
-0.00707734967
0.006997780189
0.03043453797
0.02241165432
-0.005047100484
-0.0003048382912
-0.008344465724
-0.03371460062
-0.01475873446
-0.1254203282
-0.0235613212
0.2657750064
-0.2660350659
0.02385045544
-0.006639984537
0.006811159377
0.02935521632
0.02849530953
-0.006443999566
0.02833636506
-0.007128436231
-0.02856296379
-0.006003477404
0.004272502101
0.02908701923
-0.006832943445
0.03030867244
0.03080250236
-0.007085089142
-0.03092483778
0.03090291622
-0.006707086955
-0.03099610734
0.006800278082
-0.01588855353
0.02241856604
-0.006134824712
-0.0003951877887
-0.01528227049
-0.0006062830362
-0.01447589543
0.0150988238
-0.02934068096
0.02223127126
-0.007366485723
-0.006517219502
-0.0004048954214
-0.005836243271
0.02665754875
-0.02673555764
0.005914252159
-0.005966932639
0.006187265298
0.02700689153
0.0275380015
-0.0002261137563
-0.03438472637
0.02561481465
-0.007789558585
-0.006591714003
-0.0002550108718
0.01529152697
-0.03154425914
-0.007428848747
0.01580902758
-0.0005175006033
0.02076956552
-0.0003369924572
-0.006956785212
-0.0003777817334
0.00770859676
-0.02743213227
-0.007337317024
0.02372393977
-0.03129761351
0.02489407013
0.02486811456
-0.0003352977613
-0.006022766663
-0.0004067322819
-0.006461905743
-0.02340486629
0.02389656406
-0.006464541446
0.005706051574
-0.006879646597
-0.005179099816
0.02240466807
-0.02410691445
0.02477664356
-0.005848828914
-0.006395031802
-0.004068748371
0.02684992165
-0.0003695189621
-0.02708668518
0.02887783498
-0.00585989817
-0.00651897101
-0.02922949531
-0.007796805325
0.02868183491
0.00650728014
-0.006858940471
-0.0003573988295
-0.0228723751
-0.2745470906
-0.02044837177
0.2906010278
-0.2912645439
0.02120248304
-0.02269181596
-0.2896912679
-0.02106678909
0.2865662808
-0.2875498028
0.02214756454
-0.01971683228
-0.2820014139
0.2556292041
-0.01311977463
-0.2582739474
0.01580847375
0.05668961445
-0.01120828674
-0.05701609072
0.0583712587
-0.01023900718
-0.05876304658
0.01063079506
-0.01113839159
0.0115072589
0.05939207211
-0.01992909701
-0.2397577811
-0.02249901174
0.2668683822
-0.2687809885
0.02446057731
0.02360614089
0.2672805022
-0.0243455454
-0.2735558171
-0.02943388013
0.2907117571
-0.2900061032
0.02882484006
0.02499503548
0.2897976659
-0.02507030908
-0.2916466132
-0.01995441677
0.2805061539
-0.2823029039
0.02183937171
0.02057153786
0.2848809125
-0.0179965429
-0.2757441087
0.2444835716
-0.01256851318
-0.2479219054
0.01603283697
0.01364140883
0.253579814
0.1121664017
-0.01269109353
-0.1120539448
0.1146763642
-0.01257294909
-0.1148384174
0.01273500237
-0.01507334148
0.01551067346
0.1155360995
-0.02635050273
-0.2418414925
-0.03173825793
0.2728230265
-0.2717473337
0.0307280468
0.02404021873
0.2677070983
-0.03207620405
-0.2795299213
-0.02978705883
0.2897786064
-0.2909255486
0.03103355066
0.02499913025
0.2899868856
-0.03271818465
-0.2855205535
-0.02898127484
0.2717066408
-0.2740331481
0.03138113067
0.02689323742
0.2788178556
-0.01995550663
-0.2681668296
0.2317901981
-0.009849226194
-0.2346111532
0.01267571264
0.01398761586
0.2416566718
-0.02952238004
0.2312921443
-0.228546832
0.2242874498
-0.111054117
-0.03274414618
-0.2327594722
-0.04299527288
0.2525177062
-0.2492219745
0.03973116206
0.0212177291
0.2408948894
-0.04563878433
-0.2562095664
-0.04872494978
0.2760777586
-0.2758555655
0.04857471748
0.03450818947
0.274022908
-0.04798485899
-0.2804765175
-0.04091370657
0.2810057214
-0.2840040275
0.04399812489
0.03460459815
0.2883070905
-0.03724324074
-0.2811695766
-0.02389699914
0.2564956003
-0.2611608039
0.02861273397
0.02577182014
0.2687647902
-0.01907562482
-0.2513952371
0.2271027196
-0.01122544512
-0.227742282
0.01186500756
0.01404550499
0.2292986883
-0.06676476134
0.2376215667
-0.2368396365
0.2336294514
-0.06737869941
-0.2416176355
-0.06797110784
0.257165437
-0.2572938333
0.06813873132
0.04751798036
0.2549522418
-0.06724102228
-0.2621568504
-0.06072712654
0.2694699058
-0.2723580547
0.06367877811
0.05338526439
0.2756292659
-0.0569956218
-0.2735629422
-0.04170847479
0.2624367591
-0.2680673643
0.04739783951
0.04619097491
0.2773633633
-0.03558252051
-0.2629988554
-0.01600879885
0.2328025515
-0.2393610729
0.02258322546
0.02834329656
0.2512767849
-0.01216956481
-0.2295649464
0.2248220209
-0.01054005314
-0.225351319
0.01106935123
0.0116889662
0.2264910539
-0.07923708444
0.2363208489
-0.2371312582
0.2378764095
-0.07801465335
-0.2410818248
-0.07075453363
0.2490088491
-0.252031807
0.07380781863
0.07257109959
0.2561995187
-0.06702787337
-0.2544847125
-0.05183812317
0.250554133
-0.2562168371
0.05753920434
0.06468926758
0.2657780428
-0.04558005076
-0.2545856363
-0.02434553948
0.2350598447
-0.2424085075
0.03171431674
0.04549482932
0.2562212516
-0.01687047808
-0.2360292951
-0.01144883313
0.2236642388
-0.2241030105
0.01188760478
0.01883150129
0.226712814
-0.01100923469
-0.2239078115
0.2229552596
-0.009704948903
-0.2233858945
0.01013558379
0.01084226629
0.2243183107
-0.05153246533
0.2317961674
-0.2330160401
0.2353265496
-0.04954936887
-0.2347195212
-0.03911550433
0.2333884368
-0.2375737444
0.04331209745
0.06956930372
0.2455072539
-0.0342713709
-0.2373037954
-0.01674035209
0.2255930031
-0.2317986343
0.02295113722
0.051416029
0.2444985876
-0.01278534749
-0.2282855083
-0.01151076219
0.2232556861
-0.2235556053
0.01181068131
0.02444215805
0.2276150997
-0.01119797845
-0.2232616171
-0.01020361618
0.222169307
-0.2225080904
0.01054239956
0.01153860485
0.2232536228
-0.009859933502
-0.2223023688
0.2214413859
-0.008814868875
-0.2217906311
0.009164113984
0.009890752884
0.2225463775
-0.01167681029
0.2290843726
-0.2290744575
0.2305934705
-0.01166070521
-0.2283623095
-0.01146039991
0.2263108051
-0.2264013363
0.01155093109
0.03073028056
0.2292413276
-0.0113484518
-0.2257980995
-0.01089696085
0.2240007046
-0.2241694469
0.01106570314
0.01320102709
0.224544517
-0.0107115256
-0.2236914115
-0.01006749197
0.2222444808
-0.2224724742
0.0102954854
0.01140967066
0.2229764477
-0.009827963202
-0.2221288385
-0.009053355696
0.2210027249
-0.2212689643
0.009319595023
0.01022471664
0.2218508735
-0.008780715733
-0.221040837
0.220207863
-0.00793520923
-0.2204932232
0.008220569365
0.008924125833
0.2211090626
-0.01009768721
0.2290954524
-0.229097206
0.2290915896
-0.01007841521
-0.2282937859
-0.009911719977
0.2259964197
-0.2260689263
0.009984226595
0.01113152603
0.2262255397
-0.009823562157
-0.2253895674
-0.009472250782
0.2234249737
-0.22355591
0.009603187111
0.01067676709
0.223842873
-0.009328354701
-0.2230169823
-0.008826071008
0.221461819
-0.2216402497
0.00900450162
0.009955687668
0.222030538
-0.008637704876
-0.2212528523
-0.008021245354
0.2200752474
-0.2202884649
0.008234462773
0.009037756676
0.2207512387
-0.007801359507
-0.2200340696
0.2191935336
-0.007108924353
-0.219429029
0.007344419701
0.00799650481
0.2199354629
-0.008803303624
0.2290656317
-0.2290760091
0.2290911499
-0.008781035743
-0.2282118608
-0.008635019132
0.2257360379
-0.2257972439
0.008696225134
0.009640966456
0.2259271678
-0.008562153212
-0.2250617342
-0.008277936747
0.2229682164
-0.2230735255
0.00838324579
0.009279447699
0.2233013384
-0.008162537805
-0.2224873107
-0.007759711885
0.2208395387
-0.2209828266
0.00790299978
0.008714324154
0.2212932636
-0.007608031069
-0.2205580422
-0.007107682671
0.2193243791
-0.2194981943
0.007281497841
0.007985785127
0.2198729314
-0.006927509519
-0.2192174607
0.2183511731
-0.006353682575
-0.2185474147
0.006549924101
0.007139316709
0.218967988
-0.007720918344
0.2290101926
-0.2290258063
0.2290536828
-0.007696813848
-0.2281196953
-0.007565461016
0.2255118054
-0.2255650945
0.007618750103
0.008406949678
0.2256770675
-0.007503283954
-0.2247874163
-0.007266304962
0.2225941845
-0.2226813669
0.007353487316
0.008107480515
0.2228680362
-0.007171194809
-0.2220582346
-0.006840334022
0.2203329641
-0.2204506154
0.006957985309
0.007651140056
0.2207034429
-0.006715656681
-0.2199943783
-0.006302404063
0.2187063102
-0.2188502879
0.006446381809
0.007060336788
0.2191588399
-0.006152610913
-0.2185448962
0.2176450639
-0.005671558388
-0.2178102546
0.005836749052
0.006362488092
0.218162855
-0.006805851076
0.2289394528
-0.2289581772
0.2289936458
-0.006780854991
-0.2280216978
-0.006660982276
0.2253140662
-0.2253613757
0.006708291718
0.007375419386
0.2254601675
-0.00660675284
-0.2245512983
-0.006404578685
0.2222800162
-0.2223538514
0.006478413891
0.007119996272
0.2225107262
-0.006324439169
-0.2217015865
-0.006047159485
0.2199119828
-0.2200104467
0.006145623409
0.006741972468
0.2202206444
-0.005942823014
-0.2195279023
-0.005596117654
0.2181896149
-0.2183106303
0.005717133059
0.006253391449
0.2185686583
-0.005469888
-0.217982868
0.2170466461
-0.00506196295
-0.2171871742
0.00520249105
0.005669875308
0.2174860675
-0.006029771997
0.228859654
-0.2288802109
0.2289201689
-0.006004497583
-0.2279211318
-0.005894051307
0.22513693
-0.2251795176
0.005936638927
0.006505070075
0.2252680248
-0.005845980403
-0.2243440464
-0.00567034562
0.222010816
-0.2220745083
0.005734037958
0.006282594153
0.2222089522
-0.005601576174
-0.2213989688
-0.005365147078
0.2195559313
-0.2196397245
0.00544894031
0.005962841081
0.2198175255
-0.005276429214
-0.2191351689
-0.00498136536
0.2177516292
-0.2178547262
0.005084462354
0.005551794902
0.2180734615
-0.004873638399
-0.2175069868
0.2165341981
-0.004523871944
-0.216654994
0.004644667757
0.005057436552
0.2169109467
-0.005368850795
0.2287746417
-0.2287962314
0.228838773
-0.005343685457
-0.2278200983
-0.005241209953
0.2249764202
-0.2250151611
0.005279950852
0.00576360772
0.2250953671
-0.005198064055
-0.2241594656
-0.005043262182
0.2217764256
-0.2218321941
0.005099030678
0.005566840709
0.2219492716
-0.00498335609
-0.2211378309
-0.004778788321
0.2192502363
-0.2193225721
0.004851124201
0.005291836821
0.2194752481
-0.004702299943
-0.2187995252
-0.004447983294
0.217375717
-0.2174646158
0.004536882049
0.004940976292
0.2176523688
-0.004354989388
-0.2170991708
0.2160910797
-0.004052012674
-0.2161959193
0.004156852327
0.004517324869
0.2164172546
-0.004802932353
0.2286869051
-0.2287089977
0.2287528907
-0.004778125526
-0.227719929
-0.004682543833
0.2248296839
-0.224865211
0.004718070914
0.005129864056
0.2249385453
-0.004643440959
-0.2239932069
-0.004505415013
0.2215696657
-0.2216190887
0.004554838064
0.004953740555
0.2217223869
-0.004452583982
-0.220909328
-0.004273405019
0.2189843844
-0.2190475884
0.004336608942
0.004713932746
0.2191803932
-0.004206678057
-0.2185089178
-0.003985059566
0.2170494929
-0.2171269625
0.004062529234
0.004410643457
0.217289928
-0.003903969873
-0.2167458666
0.2157044713
-0.003639116229
-0.215796255
0.003730899923
0.004043789628
0.2159893916
-0.004319819528
0.2285980495
-0.2286203074
0.2286647507
-0.00429550698
-0.227621426
-0.004205909863
0.2246945087
-0.2247273253
0.004238726447
0.004589892856
0.2247948855
-0.004170165609
-0.22384204
-0.00404583155
0.2213851975
-0.22142947
0.004090104069
0.004430608934
0.2215216413
-0.003998722634
-0.220706979
-0.003840016087
0.2187504815
-0.218806325
0.003895859533
0.004218900759
0.2189231831
-0.003781162056
-0.2182543654
-0.003586009253
0.2167634201
-0.2168316187
0.00365420789
0.003953638756
0.21697454
-0.003514603218
-0.2164366786
0.2153641877
-0.003280968486
-0.2154452429
0.003362023692
0.003632730071
0.2156152484
-0.003907910263
0.2285090892
-0.228531297
0.2285757868
-0.003884158019
-0.2275250027
-0.003799779275
0.2245691206
-0.2245996316
0.00383029025
0.004130464923
0.2246623025
-0.003766854201
-0.2237034427
-0.003653827879
0.2212189387
-0.2212589803
0.003693869481
0.003985094312
0.2213420593
-0.003611401348
-0.2205258538
-0.003469381262
0.2185424694
-0.2185923191
0.003519231013
0.003796116065
0.2186962506
-0.003416938401
-0.2180289703
-0.00324338181
0.2165100369
-0.2165706594
0.003304004287
0.003561572851
0.2166972576
-0.003179904925
-0.216163434
0.215062042
-0.002971960848
-0.2151342453
0.003044164168
0.003278097855
0.2152852033
-0.003560599869
0.2284206565
-0.228442688
0.2284869103
-0.003537419826
-0.2274308406
-0.003457540611
0.2244520384
-0.2244805996
0.003486101806
0.003739475311
0.2245391207
-0.003426973563
-0.2235753946
-0.003323276341
0.2210676505
-0.221104218
0.003359843882
0.003605738279
0.2211798208
-0.003284680664
-0.220362112
-0.003156256832
0.218355554
-0.2184005255
0.003201228244
0.003435369629
0.2184939224
-0.003109030797
-0.2178273328
-0.002953067992
0.2162833532
-0.2163377979
0.003007512698
0.003225888488
0.2164510636
-0.002896064761
-0.2159196109
0.214791253
-0.002709140061
-0.2148562096
0.002774096616
0.002973122526
0.2149915067
-0.003270794852
0.2283331297
-0.228354914
0.2283986777
-0.003248168452
-0.2273389569
-0.003172132207
0.2243419785
-0.2243689002
0.00319905391
0.00340989538