/*--------------------------------*- C++ -*----------------------------------*\
| =========                 |                                                 |
| \\      /  F ield         | OpenFOAM: The Open Source CFD Toolbox           |
|  \\    /   O peration     | Version:  v2012                                 |
|   \\  /    A nd           | Website:  www.openfoam.com                      |
|    \\/     M anipulation  |                                                 |
\*---------------------------------------------------------------------------*/
FoamFile
{
    version     2.0;
    format      ascii;
    class       pointVectorField;
    location    "2.9";
    object      pointDisplacement;
}
// * * * * * * * * * * * * * * * * * * * * * * * * * * * * * * * * * * * * * //

dimensions      [0 1 0 0 0 0 0];


internalField   nonuniform List<vector> 
6426
(
(0 0 0)
(0 0 0)
(0 0 0)
(0 0 0)
(0 0 0)
(0 0 0)
(0 0 0)
(0 0 0)
(0 0 0)
(0 0 0)
(-0.001146598632 -0.09554780145 0)
(-0.001163919845 -0.09587134304 0)
(-0.001179065898 -0.09619501084 0)
(-0.0005095363461 -0.09620763275 0)
(-0.0004760507681 -0.09556093781 0)
(0.009752272879 -0.09581862781 0)
(0.009691856622 -0.0971131832 0)
(0.009630907678 -0.09840735972 0)
(0.01237928746 -0.09848361117 0)
(0.01249773118 -0.09589352129 0)
(0.01112551182 -0.09585621088 0)
(0.01989019173 -0.09180266498 3.433364704e-13)
(0.01952639331 -0.09293388095 3.384514891e-13)
(0.02086852786 -0.0874048575 3.181899189e-13)
(0.0214363581 -0.08716266853 3.258365799e-13)
(0.02170356566 -0.06478140637 2.421673972e-13)
(0.02091661987 -0.06419317887 2.337158245e-13)
(0.0194262062 -0.05468897721 1.992017662e-13)
(0.02024883887 -0.05545850329 2.074174166e-13)
(0.012351741 -0.02707554116 1.015160178e-13)
(0.01160793066 -0.02614005542 9.545142454e-14)
(0.008497151049 -0.01793948814 6.557254739e-14)
(0.009152390424 -0.01881017134 7.061018437e-14)
(0.001302913222 -0.002258870305 8.493206138e-15)
(0.001059167638 -0.001886478183 6.911138328e-15)
(8.398673781e-05 -0.0001423369996 5.273559367e-16)
(0.0001604605422 -0.0002646844205 9.853229344e-16)
(0 0 0)
(0 0 0)
(0 0 0)
(0 0 0)
(0 0 0)
(0 0 0)
(0 0 0)
(0 0 0)
(0 0 0)
(0 0 0)
(0 0 0)
(0 0 0)
(0 0 0)
(0 0 0)
(-0.001863374026 -0.1058113948 0)
(-0.001883020981 -0.1064613497 0)
(-0.001902686774 -0.1071119086 0)
(-0.0005184095274 -0.1071537553 0)
(-0.0004790950429 -0.1058532415 0)
(0.009210807695 -0.1061461669 0)
(0.009132196987 -0.1087465904 0)
(0.01186112233 -0.1084127855 3.580469254e-13)
(0.01197107541 -0.1061455831 3.591432707e-13)
(0.01846532948 -0.09600238842 3.241712454e-13)
(0.01799565053 -0.09622201702 3.172601071e-13)
(0.0189453689 -0.08880524797 2.92738056e-13)
(0.01950724735 -0.08900355402 3.004679838e-13)
(0.01820234209 -0.06043091479 2.040867475e-13)
(0.01746467919 -0.05945714872 1.960653861e-13)
(0.01559227056 -0.0486019625 1.603439603e-13)
(0.01665866681 -0.05068477914 1.712519015e-13)
(0.008762241378 -0.02129075636 7.210898545e-14)
(0.007637196701 -0.01900457385 6.283862319e-14)
(0.005192394067 -0.01211596524 4.009292898e-14)
(0.005916356516 -0.01347640875 4.567179968e-14)
(0.0002180841018 -0.000419434282 1.415534356e-15)
(9.850816368e-05 -0.0001941519696 6.383782392e-16)
(0 0 0)
(0 0 0)
(0 0 0)
(0 0 0)
(0 0 0)
(0 0 0)
(0 0 0)
(0 0 0)
(0 0 0)
(0 0 0)
(0 0 0)
(0 0 0)
(0 0 0)
(0 0 0)
(0 0 0)
(0 0 0)
(-0.002177851396 -0.1162142969 0)
(-0.002256480365 -0.1188153244 0)
(0.0005120675895 -0.1188990175 0)
(0.0005906965585 -0.11629799 0)
(0.008832622941 -0.1155077157 3.562150575e-13)
(0.008646954229 -0.1162449906 3.506778201e-13)
(0.01105273158 -0.1127501207 3.399225346e-13)
(0.01135048994 -0.1129370722 3.48068796e-13)
(0.01646525284 -0.09468061875 2.914196662e-13)
(0.01575458058 -0.09259058007 2.788325126e-13)
(0.0161563639 -0.08302988666 2.500222251e-13)
(0.01699010443 -0.08546486864 2.630257123e-13)
(0.01445285644 -0.05267052255 1.622174617e-13)
(0.01343000605 -0.04998351305 1.506295089e-13)
(0.01141387448 -0.03888814341 1.172395514e-13)
(0.01241901188 -0.04143023205 1.2766177e-13)
(0.004889500217 -0.01302374454 4.021782907e-14)
(0.004201521124 -0.01143413814 3.454181385e-14)
(0.002150848731 -0.005490909836 1.659783422e-14)
(0.002921230201 -0.007299879751 2.255140519e-14)
(0 0 0)
(0 0 0)
(0 0 0)
(0 0 0)
(0 0 0)
(0 0 0)
(0 0 0)
(0 0 0)
(0 0 0)
(0 0 0)
(0 0 0)
(0 0 0)
(0 0 0)
(0 0 0)
(0 0 0)
(0 0 0)
(0 0 0)
(0 0 0)
(-0.002313622608 -0.1215673361 3.450850716e-13)
(-0.002186429124 -0.1182701231 3.289452044e-13)
(0.0003713166667 -0.1163717126 3.23477356e-13)
(0.0003640447426 -0.1201054927 3.407135685e-13)
(0.007673805424 -0.1099208207 3.112787805e-13)
(0.00719986017 -0.1045386361 2.901290319e-13)
(0.008947968767 -0.09829898628 2.726985304e-13)
(0.009617563074 -0.104154743 2.948197242e-13)
(0.01280835659 -0.07963851386 2.252642517e-13)
(0.01157805381 -0.07313334481 2.027822354e-13)
(0.01143028725 -0.0631602828 1.751376821e-13)
(0.01279557676 -0.06956678814 1.967870311e-13)
(0.009567104051 -0.03771901133 1.067756994e-13)
(0.008112285782 -0.03255142915 9.033052084e-14)
(0.006344080052 -0.02333239593 6.478151349e-14)
(0.007701450192 -0.02781702675 7.878420138e-14)
(0.001936321907 -0.005601357248 1.589006704e-14)
(0.001247300301 -0.003679121654 1.022792961e-14)
(0.0002795944616 -0.0007747156887 2.15105711e-15)
(0.0006462825299 -0.001755453595 4.982125823e-15)
(0 0 0)
(0 0 0)
(0 0 0)
(0 0 0)
(0 0 0)
(0 0 0)
(0 0 0)
(0 0 0)
(0 0 0)
(0 0 0)
(0 0 0)
(0 0 0)
(0 0 0)
(0 0 0)
(0 0 0)
(0 0 0)
(0 0 0)
(0 0 0)
(-0.001461417434 -0.0958250944 2.513128594e-13)
(-0.001169604415 -0.08498977186 2.187278136e-13)
(0.0005271586665 -0.08241764044 2.120248421e-13)
(0.0004928017971 -0.09327386068 2.445127434e-13)
(0.005361805934 -0.07932180732 2.077227279e-13)
(0.004638449311 -0.06865715303 1.764838276e-13)
(0.005491439638 -0.06229035074 1.600802824e-13)
(0.006442789594 -0.07272115526 1.903893709e-13)
(0.007421344113 -0.0487801173 1.276895256e-13)
(0.005991518337 -0.03983682246 1.023764407e-13)
(0.005473244235 -0.03196608327 8.215650382e-14)
(0.006959081207 -0.04012628776 1.050548537e-13)
(0.003821554068 -0.0161129914 4.220235272e-14)
(0.002584277196 -0.01107092194 2.847722058e-14)
(0.001524700451 -0.006003985393 1.544597783e-14)
(0.002534306815 -0.009813910345 2.571554081e-14)
(2.132262234e-05 -6.658277353e-05 1.665334537e-16)
(0 0 0)
(0 0 0)
(0 0 0)
(0 0 0)
(0 0 0)
(0 0 0)
(0 0 0)
(0 0 0)
(0 0 0)
(0 0 0)
(0 0 0)
(0 0 0)
(0 0 0)
(0 0 0)
(0 0 0)
(0 0 0)
(0 0 0)
(0 0 0)
(0 0 0)
(0 0 0)
(0 0 0)
(-0.0004246224981 -0.04806812071 1.171424069e-13)
(-0.0002611067755 -0.03598336293 8.61671845e-14)
(0.0003898494139 -0.03410259133 8.165690346e-14)
(0.0004690410055 -0.04591758802 1.118827253e-13)
(0.002375931094 -0.03499983495 8.52512505e-14)
(0.001680304656 -0.02473403972 5.921652058e-14)
(0.001803536248 -0.02076049568 4.969635814e-14)
(0.002638923899 -0.03024821293 7.367717547e-14)
(0.002185395093 -0.01502389189 3.659572645e-14)
(0.001242818994 -0.008646684993 2.070565941e-14)
(0.0008519207289 -0.005238764081 1.254552018e-14)
(0.001705985558 -0.0103498895 2.521594045e-14)
(0.0001962751059 -0.0008825230976 2.137179322e-15)
(5.511222567e-07 -2.520421513e-06 0)
(0 0 0)
(2.294993664e-06 -9.510889112e-06 2.775557562e-17)
(0 0 0)
(0 0 0)
(0 0 0)
(0 0 0)
(0 0 0)
(0 0 0)
(0 0 0)
(0 0 0)
(0 0 0)
(0 0 0)
(0 0 0)
(0 0 0)
(0 0 0)
(0 0 0)
(0 0 0)
(0 0 0)
(0 0 0)
(0 0 0)
(0 0 0)
(0 0 0)
(0 0 0)
(0 0 0)
(-2.805226804e-05 -0.007755636479 1.765254609e-14)
(-7.623516645e-06 -0.002587203424 5.800915304e-15)
(3.043943425e-05 -0.002118362077 4.74620343e-15)
(9.693221546e-05 -0.006909281525 1.572353359e-14)
(0.0002138931571 -0.003187233941 7.258083023e-15)
(2.65219314e-05 -0.0003997002145 8.881784197e-16)
(4.88866648e-06 -5.843787342e-05 1.387778781e-16)
(0.0001624778838 -0.001915840192 4.357625372e-15)
(0 0 0)
(0 0 0)
(0 0 0)
(0 0 0)
(0 0 0)
(0 0 0)
(0 0 0)
(0 0 0)
(0 0 0)
(0 0 0)
(0 0 0)
(0 0 0)
(0 0 0)
(0 0 0)
(0 0 0)
(0 0 0)
(0 0 0)
(0 0 0)
(0 0 0)
(0 0 0)
(0 0 0)
(0 0 0)
(0 0 0)
(0 0 0)
(0 0 0)
(0 0 0)
(0 0 0)
(0 0 0)
(0 0 0)
(0 0 0)
(0 0 0)
(0 0 0)
(0 0 0)
(0 0 0)
(0 0 0)
(0 0 0)
(0 0 0)
(0 0 0)
(0 0 0)
(0 0 0)
(0 0 0)
(0 0 0)
(0 0 0)
(0 0 0)
(0 0 0)
(0 0 0)
(0 0 0)
(0 0 0)
(0 0 0)
(0 0 0)
(0 0 0)
(0 0 0)
(0 0 0)
(0 0 0)
(0 0 0)
(0 0 0)
(0 0 0)
(0 0 0)
(0 0 0)
(0 0 0)
(0 0 0)
(0 0 0)
(0 0 0)
(0 0 0)
(0 0 0)
(0 0 0)
(0 0 0)
(0 0 0)
(0 0 0)
(0 0 0)
(0 0 0)
(0 0 0)
(0 0 0)
(0 0 0)
(0 0 0)
(0 0 0)
(0 0 0)
(0 0 0)
(0 0 0)
(0 0 0)
(0 0 0)
(0 0 0)
(0 0 0)
(0 0 0)
(0 0 0)
(0 0 0)
(0 0 0)
(0 0 0)
(0 0 0)
(0 0 0)
(0 0 0)
(0 0 0)
(0 0 0)
(0 0 0)
(0 0 0)
(0 0 0)
(0 0 0)
(0 0 0)
(0 0 0)
(0 0 0)
(0 0 0)
(0 0 0)
(0 0 0)
(0 0 0)
(0 0 0)
(0 0 0)
(0 0 0)
(0 0 0)
(0 0 0)
(0 0 0)
(0 0 0)
(0 0 0)
(0 0 0)
(0 0 0)
(0 0 0)
(0 0 0)
(0 0 0)
(0 0 0)
(0 0 0)
(0 0 0)
(0 0 0)
(0 0 0)
(0 0 0)
(0 0 0)
(0 0 0)
(0 0 0)
(0 0 0)
(0 0 0)
(0 0 0)
(0 0 0)
(0 0 0)
(0 0 0)
(0 0 0)
(0 0 0)
(0 0 0)
(0 0 0)
(0 0 0)
(0 0 0)
(0 0 0)
(0 0 0)
(0 0 0)
(0 0 0)
(0 0 0)
(0 0 0)
(0 0 0)
(0 0 0)
(0 0 0)
(0 0 0)
(0 0 0)
(0 0 0)
(0 0 0)
(0 0 0)
(0 0 0)
(0 0 0)
(0 0 0)
(0 0 0)
(0 0 0)
(0 0 0)
(0 0 0)
(0 0 0)
(0 0 0)
(0 0 0)
(0 0 0)
(0 0 0)
(0 0 0)
(0 0 0)
(0 0 0)
(0 0 0)
(0 0 0)
(0 0 0)
(0 0 0)
(0 0 0)
(0 0 0)
(0 0 0)
(0 0 0)
(0 0 0)
(0 0 0)
(0 0 0)
(0 0 0)
(0 0 0)
(0 0 0)
(0 0 0)
(0 0 0)
(0 0 0)
(0 0 0)
(0 0 0)
(0 0 0)
(0 0 0)
(0 0 0)
(0 0 0)
(0 0 0)
(0 0 0)
(0 0 0)
(0 0 0)
(0 0 0)
(0 0 0)
(0 0 0)
(0 0 0)
(0 0 0)
(0 0 0)
(0 0 0)
(0 0 0)
(0 0 0)
(0 0 0)
(0 0 0)
(0 0 0)
(0 0 0)
(0 0 0)
(0 0 0)
(0 0 0)
(0 0 0)
(0 0 0)
(0 0 0)
(0 0 0)
(0 0 0)
(0 0 0)
(0 0 0)
(0 0 0)
(0 0 0)
(0 0 0)
(0 0 0)
(0 0 0)
(0 0 0)
(0 0 0)
(0 0 0)
(0 0 0)
(0 0 0)
(0 0 0)
(0 0 0)
(0 0 0)
(0 0 0)
(0 0 0)
(0 0 0)
(0 0 0)
(0 0 0)
(0 0 0)
(0 0 0)
(0 0 0)
(0 0 0)
(0 0 0)
(0 0 0)
(0 0 0)
(0 0 0)
(0 0 0)
(0 0 0)
(0 0 0)
(0 0 0)
(0 0 0)
(0 0 0)
(0 0 0)
(0 0 0)
(0 0 0)
(0 0 0)
(0 0 0)
(0 0 0)
(0 0 0)
(0 0 0)
(0 0 0)
(0 0 0)
(0 0 0)
(0 0 0)
(0 0 0)
(0 0 0)
(0 0 0)
(0 0 0)
(0 0 0)
(0 0 0)
(0 0 0)
(0 0 0)
(0 0 0)
(0 0 0)
(0 0 0)
(0 0 0)
(0 0 0)
(0 0 0)
(0 0 0)
(0 0 0)
(0 0 0)
(0 0 0)
(0 0 0)
(0 0 0)
(0 0 0)
(0 0 0)
(0 0 0)
(0 0 0)
(0 0 0)
(0 0 0)
(0 0 0)
(0 0 0)
(0 0 0)
(0 0 0)
(0 0 0)
(0 0 0)
(0 0 0)
(0 0 0)
(0 0 0)
(0 0 0)
(0 0 0)
(0 0 0)
(0 0 0)
(0 0 0)
(0 0 0)
(0 0 0)
(0 0 0)
(0 0 0)
(0 0 0)
(0 0 0)
(0 0 0)
(0 0 0)
(0 0 0)
(0 0 0)
(0 0 0)
(0 0 0)
(0 0 0)
(0 0 0)
(0 0 0)
(0 0 0)
(0 0 0)
(0 0 0)
(0 0 0)
(0 0 0)
(0 0 0)
(0 0 0)
(0 0 0)
(0 0 0)
(0 0 0)
(0 0 0)
(0 0 0)
(0 0 0)
(0 0 0)
(0 0 0)
(0 0 0)
(0 0 0)
(0 0 0)
(0 0 0)
(0 0 0)
(0 0 0)
(0 0 0)
(0 0 0)
(0 0 0)
(0 0 0)
(0 0 0)
(0 0 0)
(0 0 0)
(0 0 0)
(0 0 0)
(0 0 0)
(0 0 0)
(0 0 0)
(0 0 0)
(0 0 0)
(0 0 0)
(0 0 0)
(0 0 0)
(0 0 0)
(0 0 0)
(0 0 0)
(0 0 0)
(0 0 0)
(0 0 0)
(0 0 0)
(0 0 0)
(0 0 0)
(0 0 0)
(0 0 0)
(0 0 0)
(0 0 0)
(0 0 0)
(0 0 0)
(0 0 0)
(0 0 0)
(0 0 0)
(0 0 0)
(0 0 0)
(0 0 0)
(0 0 0)
(0 0 0)
(0 0 0)
(0 0 0)
(0 0 0)
(0 0 0)
(0 0 0)
(0 0 0)
(0 0 0)
(0 0 0)
(0 0 0)
(0 0 0)
(0 0 0)
(0 0 0)
(0 0 0)
(0 0 0)
(0 0 0)
(0 0 0)
(0 0 0)
(0 0 0)
(0 0 0)
(0 0 0)
(0 0 0)
(0 0 0)
(0 0 0)
(0 0 0)
(0 0 0)
(0 0 0)
(0 0 0)
(0 0 0)
(0 0 0)
(0 0 0)
(0 0 0)
(0 0 0)
(0 0 0)
(0 0 0)
(0 0 0)
(0 0 0)
(0 0 0)
(0 0 0)
(0 0 0)
(0 0 0)
(0 0 0)
(0 0 0)
(0 0 0)
(0 0 0)
(0 0 0)
(0 0 0)
(0 0 0)
(0 0 0)
(0 0 0)
(0 0 0)
(0 0 0)
(0 0 0)
(0 0 0)
(0 0 0)
(0 0 0)
(0 0 0)
(0 0 0)
(0 0 0)
(0 0 0)
(0 0 0)
(0 0 0)
(0 0 0)
(0 0 0)
(0 0 0)
(0 0 0)
(0 0 0)
(0 0 0)
(0 0 0)
(0 0 0)
(0 0 0)
(0 0 0)
(0 0 0)
(0 0 0)
(0 0 0)
(0 0 0)
(0 0 0)
(0 0 0)
(0 0 0)
(0 0 0)
(0 0 0)
(0 0 0)
(0 0 0)
(0 0 0)
(0 0 0)
(0 0 0)
(0 0 0)
(0 0 0)
(0 0 0)
(0 0 0)
(0 0 0)
(0 0 0)
(0 0 0)
(0 0 0)
(0 0 0)
(0 0 0)
(0 0 0)
(0 0 0)
(0 0 0)
(0 0 0)
(0 0 0)
(0 0 0)
(0 0 0)
(0 0 0)
(0 0 0)
(0 0 0)
(0 0 0)
(0 0 0)
(0 0 0)
(0 0 0)
(0 0 0)
(0 0 0)
(0 0 0)
(0 0 0)
(0 0 0)
(0 0 0)
(0 0 0)
(0 0 0)
(0 0 0)
(0 0 0)
(0 0 0)
(0 0 0)
(0 0 0)
(0 0 0)
(0 0 0)
(0 0 0)
(0 0 0)
(0 0 0)
(0 0 0)
(0 0 0)
(0 0 0)
(0 0 0)
(0 0 0)
(0 0 0)
(0 0 0)
(0 0 0)
(0 0 0)
(0 0 0)
(0 0 0)
(0 0 0)
(0 0 0)
(0 0 0)
(0 0 0)
(0 0 0)
(0 0 0)
(0 0 0)
(0 0 0)
(0 0 0)
(0 0 0)
(0 0 0)
(0 0 0)
(0 0 0)
(0 0 0)
(0 0 0)
(0 0 0)
(0 0 0)
(0 0 0)
(0 0 0)
(0 0 0)
(0 0 0)
(0 0 0)
(0 0 0)
(0 0 0)
(0 0 0)
(0 0 0)
(0 0 0)
(0 0 0)
(0 0 0)
(0 0 0)
(0 0 0)
(0 0 0)
(0 0 0)
(0 0 0)
(0 0 0)
(0 0 0)
(0 0 0)
(0 0 0)
(0 0 0)
(0 0 0)
(0 0 0)
(0 0 0)
(0 0 0)
(0 0 0)
(0 0 0)
(0 0 0)
(0 0 0)
(0 0 0)
(0 0 0)
(0 0 0)
(0 0 0)
(0 0 0)
(0 0 0)
(0 0 0)
(0 0 0)
(0 0 0)
(0 0 0)
(0 0 0)
(0 0 0)
(0 0 0)
(0 0 0)
(0 0 0)
(0 0 0)
(0 0 0)
(0 0 0)
(0 0 0)
(0 0 0)
(0 0 0)
(0 0 0)
(0 0 0)
(0 0 0)
(0 0 0)
(0 0 0)
(0 0 0)
(0 0 0)
(0 0 0)
(0 0 0)
(0 0 0)
(0 0 0)
(0 0 0)
(0 0 0)
(0 0 0)
(0 0 0)
(0 0 0)
(0 0 0)
(0 0 0)
(0 0 0)
(0 0 0)
(0 0 0)
(0 0 0)
(0 0 0)
(0 0 0)
(0 0 0)
(0 0 0)
(0 0 0)
(0 0 0)
(0 0 0)
(0 0 0)
(0 0 0)
(0 0 0)
(0 0 0)
(0 0 0)
(0 0 0)
(0 0 0)
(0 0 0)
(0 0 0)
(0 0 0)
(0 0 0)
(0 0 0)
(0 0 0)
(0 0 0)
(0 0 0)
(0 0 0)
(0 0 0)
(0 0 0)
(0 0 0)
(0 0 0)
(0 0 0)
(0 0 0)
(0 0 0)
(0 0 0)
(0 0 0)
(0 0 0)
(0 0 0)
(0 0 0)
(0 0 0)
(0 0 0)
(0 0 0)
(0 0 0)
(0 0 0)
(0 0 0)
(0 0 0)
(0 0 0)
(0 0 0)
(0 0 0)
(0 0 0)
(0 0 0)
(0 0 0)
(0 0 0)
(0 0 0)
(0 0 0)
(0 0 0)
(0 0 0)
(0 0 0)
(0 0 0)
(0 0 0)
(0 0 0)
(0 0 0)
(0 0 0)
(0 0 0)
(0 0 0)
(0 0 0)
(0 0 0)
(0 0 0)
(0 0 0)
(0 0 0)
(0 0 0)
(0 0 0)
(0 0 0)
(0 0 0)
(0 0 0)
(-0.001131095477 -0.09522366075 0)
(-0.001467926903 -0.09521686411 0)
(-0.00148275354 -0.09554108571 0)
(-0.00044400142 -0.09491335302 0)
(-0.001115341037 -0.09489952766 0)
(0.009809648668 -0.0945226504 0)
(0.008440669251 -0.09448616345 0)
(0.008382753471 -0.09578200362 0)
(-0.001843710871 -0.1051608358 0)
(-0.002535865308 -0.105139912 0)
(-0.0025555196 -0.1057904713 0)
(-0.001498630545 -0.09586497326 0)
(-0.0004397805584 -0.1045527278 0)
(-0.001082648624 -0.1045538503 0)
(-0.001731558316 -0.1045650683 0)
(0.00936208901 -0.1035738171 0)
(0.00799260247 -0.1035361057 0)
(0.006614928279 -0.1034972398 0)
(0.006544667586 -0.1047874468 0)
(0.006483318013 -0.106084876 0)
(0.008322161478 -0.09707637231 0)
(0.004505415856 -0.09048500848 0)
(-0.002138536911 -0.1149137831 0)
(-0.003522813908 -0.1148719365 0)
(-0.003562128393 -0.1161724503 0)
(-0.002575161671 -0.1064404263 0)
(-0.001273233208 -0.09067090313 0)
(-0.0009353956476 -0.09067863709 0)
(0.004270141667 -0.09567122254 0)
(0.004331756465 -0.09437621971 0)
(0.002968306052 -0.09434183462 0)
(0.002936808775 -0.09498955702 0)
(0.002904719109 -0.09563647554 0)
(0.00379620425 -0.09111695947 0)
(0.004477253205 -0.09113422226 0)
(-0.0005951897982 -0.09068722863 0)
(-0.001451963625 -0.1007063826 0)
(-0.002113489134 -0.1006974488 0)
(-0.002157427256 -0.1013390515 0)
(-0.001496818017 -0.1013476552 0)
(-0.001406503261 -0.1000646446 0)
(-0.00206982445 -0.1000549915 0)
(-0.0007834963142 -0.1007177632 0)
(-0.0007381562257 -0.1000763238 0)
(0.004003039062 -0.100840513 0)
(0.004072552 -0.09955004159 0)
(0.002696634885 -0.09951165204 0)
(0.002619585818 -0.1007994168 0)
(0.002872152245 -0.09628337962 0)
(0.002839299792 -0.09692973094 0)
(0.004206570033 -0.09696495702 0)
(-0.00103242946 -0.09295365245 0)
(-0.001377425716 -0.09294364645 0)
(-0.001386745122 -0.09327009017 0)
(-0.001044794236 -0.09327897629 0)
(-0.003648803371 -0.09808263817 0)
(-0.003627262756 -0.09776127977 0)
(-0.003977918519 -0.09774928888 0)
(-0.001286580466 -0.09813288711 0)
(-0.001248868744 -0.09748795235 0)
(-0.001915056505 -0.09747718481 0)
(-0.001933554867 -0.09780008622 0)
(-0.00195173473 -0.09812227173 0)
(-0.00102037699 -0.09262837963 0)
(-0.001367874426 -0.09261751203 0)
(-0.0006914576506 -0.09296214622 0)
(-0.0006780794082 -0.09263739715 0)
(0.001672396988 -0.09301419782 0)
(0.001702358436 -0.09236528026 0)
(0.001026289504 -0.09234967951 0)
(0.0009961395369 -0.09299883322 0)
(0.001082631101 -0.0910513129 0)
(0.001759581242 -0.0910673635 0)
(-0.004240795861 -0.1032528086 0)
(-0.004225754378 -0.10292944 0)
(-0.001989912762 -0.09876713194 0)
(-0.001324723449 -0.09877768792 0)
(-0.00366047609 -0.09840876892 0)
(-0.003756695771 -0.100679093 0)
(-0.003739930504 -0.100356502 0)
(0.0006693072672 -0.1136975665 0)
(-0.0007149636897 -0.1136557201 0)
(-0.002099240687 -0.1136138734 0)
(0.008963140578 -0.1137637974 3.588379593e-13)
(0.006206409216 -0.1138649529 0)
(0.006126747354 -0.1164372871 3.593236819e-13)
(0.006402963378 -0.1073629882 0)
(0.006363667154 -0.1086628979 0)
(0.001547520168 -0.09560409323 0)
(0.001579801866 -0.09495742236 0)
(0.0009039134465 -0.09494225029 0)
(0.0008717730678 -0.09558904635 0)
(0.0009661558915 -0.09364708506 0)
(0.001642270197 -0.09366238487 0)
(-0.0007051904548 -0.09328682411 0)
(0.003673729909 -0.1059787813 0)
(0.003767017056 -0.1047016647 0)
(0.002388102609 -0.1046660261 0)
(0.002289452911 -0.1059369346 0)
(0.002538169907 -0.1020852357 0)
(0.003933309368 -0.1021305546 0)
(-0.0008299211605 -0.101358686 0)
(-0.002020611724 -0.1110128459 0)
(-0.001981297256 -0.1097123321 0)
(-0.003365574231 -0.1096704855 0)
(-0.003404888715 -0.1109709993 0)
(-0.002224686655 -0.09167219651 0)
(-0.001985287418 -0.09163384676 0)
(-0.002075811547 -0.09121744339 0)
(-0.0009782396378 -0.09165328607 0)
(-0.0009657375902 -0.09132730132 0)
(-0.001312705471 -0.09131729617 0)
(-0.001322647677 -0.09164384199 0)
(-0.003774268635 -0.1010015992 0)
(-0.003595504003 -0.1032581077 0)
(-0.003546098961 -0.1026154007 0)
(-0.004193937503 -0.1026127453 0)
(-0.001644852151 -0.103266229 0)
(-0.001595383774 -0.1026265469 0)
(-0.002250923883 -0.1026208776 0)
(-0.002293817761 -0.1032631769 0)
(-0.004284534948 -0.1035670872 0)
(-0.002401354173 -0.0929183159 0)
(-0.002413511115 -0.09324346464 0)
(-0.002075292921 -0.09325084735 0)
(-0.002072807317 -0.09292250417 0)
(-0.002446341786 -0.0942182954 0)
(-0.002105161636 -0.09422703731 0)
(-0.002090675821 -0.09390341 0)
(-0.002426910983 -0.09389632908 0)
(-0.001085362419 -0.09425212211 0)
(-0.001071531349 -0.09392829363 0)
(-0.00140929766 -0.09392068275 0)
(-0.001423300869 -0.09424444556 0)
(-0.002744449196 -0.09389561752 0)
(-0.002780276944 -0.09421219091 0)
(-0.002649189881 -0.0929526621 0)
(-0.002740168954 -0.09322022815 0)
(-0.00250568227 -0.09551566447 0)
(-0.002498543982 -0.09518873159 0)
(-0.002845163299 -0.09517861606 0)
(-0.002849887926 -0.09550610558 0)
(-0.00282698598 -0.09452571466 0)
(-0.002474113363 -0.09453777257 0)
(-0.003954789558 -0.09671678837 0)
(-0.003554981586 -0.09680003589 0)
(-0.003539077864 -0.09647554454 0)
(-0.003860892222 -0.09645408688 0)
(-0.002549548737 -0.09681815672 0)
(-0.002535844871 -0.09649323612 0)
(-0.002872613435 -0.09648625999 0)
(-0.002885337619 -0.09681157297 0)
(-0.002858123616 -0.09583234022 0)
(-0.002514673581 -0.09584169489 0)
(-0.002618574077 -0.09811069851 0)
(-0.002600488474 -0.09778863107 0)
(-0.002937977541 -0.09778108902 0)
(-0.002955959894 -0.09810334097 0)
(-0.002900277956 -0.09713639573 0)
(-0.002565097897 -0.09714271924 0)
(-0.003882072027 -0.09712690975 0)
(-0.00356788881 -0.09712540379 0)
(-0.002498340656 -0.09250020568 0)
(-0.001336790109 -0.09196887025 0)
(-0.0009920312152 -0.09197874816 0)
(-0.002315597992 -0.09194992187 0)
(-0.002017562042 -0.09195264365 0)
(-0.002077549187 -0.0925915241 0)
(-0.00415849284 -0.1019680443 0)
(0.01118198884 -0.09455996446 0)
(0.02019082546 -0.09028999269 3.470279619e-13)
(0.01798390895 -0.09273847007 3.566869022e-13)
(0.01777440359 -0.09473149423 3.545219673e-13)
(-0.001438119542 -0.09456818372 0)
(-0.001101091294 -0.09457540954 0)
(-0.002123957682 -0.09454944604 0)
(-0.002161792545 -0.09552527426 0)
(-0.002150899748 -0.09519954316 0)
(0.00587032905 -0.09052040514 0)
(0.009978292356 -0.09062995742 0)
(0.008609739424 -0.09059336245 0)
(-0.001603814835 -0.09066550462 0)
(-0.001644981744 -0.09098185614 0)
(-0.001297041458 -0.09099237436 0)
(-0.0009513783056 -0.09100227961 0)
(-0.000635752413 -0.09166243025 0)
(-0.0006223268327 -0.09133671525 0)
(0.0003803227765 -0.09168510499 0)
(0.0003945122682 -0.09136031999 0)
(5.680995857e-05 -0.09135283196 0)
(4.23872768e-05 -0.09167773083 0)
(8.358021139e-05 -0.09070387838 0)
(0.0004220815506 -0.09071193471 0)
(-0.003188877419 -0.09549839726 0)
(-0.003173605696 -0.09517461233 0)
(-0.003421872806 -0.09520942917 0)
(-0.003514868417 -0.09547530184 0)
(-0.003264612529 -0.09475849667 0)
(-0.003765911122 -0.0961883347 0)
(-0.003520260523 -0.0961524714 0)
(-0.003606826622 -0.09573745734 0)
(-0.003200485509 -0.09615319012 0)
(-0.003199924178 -0.0958238214 0)
(-0.004176419704 -0.1022906607 0)
(-0.003925647042 -0.09743956088 0)
(-0.003695807093 -0.09938431007 0)
(-0.003684190842 -0.09905944728 0)
(-0.00269039124 -0.09940279315 0)
(-0.00267255681 -0.09908023443 0)
(-0.003005355373 -0.09907513166 0)
(-0.003022593624 -0.09939776886 0)
(-0.002972684419 -0.09842738428 0)
(-0.002637482587 -0.09843358752 0)
(-0.001899928679 -0.09066272002 0)
(-0.001990309371 -0.09094971179 0)
(-0.001663434773 -0.09163589794 0)
(-0.001660750875 -0.09130683523 0)
(-0.002422968667 -0.09356911821 0)
(-0.002829450104 -0.09348282734 0)
(-0.002982991415 -0.09393453733 0)
(-0.003076519547 -0.09420982564 0)
(-0.002491267887 -0.09486144012 0)
(-0.002846258744 -0.09484865312 0)
(-0.003172934581 -0.09449361199 0)
(-0.003221478675 -0.09680503903 0)
(-0.003208097343 -0.09647998776 0)
(-0.003594083824 -0.09744492861 0)
(-0.003256420708 -0.09745211316 0)
(-0.003235802321 -0.09713006182 0)
(-0.00240977819 -0.09223438038 0)
(-0.002061452871 -0.0922674618 0)
(-0.001706546594 -0.0922803067 0)
(-0.001681074319 -0.09195942991 0)
(-0.001726033363 -0.09293262437 0)
(-0.00172134432 -0.09260489193 0)
(0.0113491078 -0.09066770907 0)
(0.01546656955 -0.09078105517 0)
(0.01272010446 -0.0907054662 0)
(0.02182550894 -0.08606440538 3.306244167e-13)
(0.02228265281 -0.06461916072 2.482319905e-13)
(0.02292690993 -0.07297957823 2.802758026e-13)
(0.02239526506 -0.07341027715 2.74363865e-13)
(0.02110270866 -0.05618661015 2.159245005e-13)
(0.01336302293 -0.0284977766 1.098010571e-13)
(0.01641430431 -0.0375002695 1.44342871e-13)
(0.01541128358 -0.03619504627 1.355859869e-13)
(0.01011974194 -0.02023582807 7.804867863e-14)
(0.001780055627 -0.003002164683 1.16157084e-14)
(0.00405608283 -0.007214762002 2.788047571e-14)
(0.003355039861 -0.006133847404 2.306488334e-14)
(-0.0006167144459 -0.09814545873 0)
(-0.0005794170451 -0.0975002696 0)
(0.001408081443 -0.09818889302 0)
(0.001444790529 -0.09754356519 0)
(0.0007678933507 -0.09752836262 0)
(0.0007319120716 -0.09817401475 0)
(0.0008384650519 -0.09623586758 0)
(0.001514276771 -0.09625097687 0)
(0.01212109666 -0.1036545012 0)
(0.01881867816 -0.09503596965 3.288896933e-13)
(0.0170537251 -0.09991281638 3.459593723e-13)
(0.01678705637 -0.1012824681 3.421568584e-13)
(0.01755628293 -0.09664279159 3.521766212e-13)
(0.02001250666 -0.08880633626 3.072403443e-13)
(0.01925430383 -0.06233008941 2.156885781e-13)
(0.02027599015 -0.07217616185 2.496752805e-13)
(0.01938522147 -0.07080387027 2.390310172e-13)
(0.02167289907 -0.07307814662 2.659955589e-13)
(0.01753089238 -0.05201023945 1.800642968e-13)
(0.009488568133 -0.02248909631 7.804867863e-14)
(0.01245784956 -0.03164338435 1.097177904e-13)
(0.01164864058 -0.03033498412 1.026401186e-13)
(0.01460651584 -0.03524393145 1.285638263e-13)
(0.006529451814 -0.01450773367 5.039024753e-14)
(0.0005054354706 -0.0009481170559 3.302913498e-15)
(0.001953915821 -0.003863649178 1.34336986e-14)
(0.001384949655 -0.00280730553 9.520162436e-15)
(0.002953563248 -0.005546978256 2.031708135e-14)
(-0.0006363347206 -0.1110546925 0)
(-0.0005970202361 -0.1097541788 0)
(0.003516490231 -0.1111802323 0)
(0.003555804715 -0.1098797185 0)
(0.002171527718 -0.1098378719 0)
(0.002132213234 -0.1111383856 0)
(0.002250138427 -0.1072374484 0)
(0.003634415424 -0.107279295 0)
(0.0115738748 -0.1121075555 3.53370111e-13)
(0.01704121535 -0.09574479794 3.0137004e-13)
(0.01574644822 -0.1030302106 3.244071678e-13)
(0.01528917483 -0.1024639223 3.154698724e-13)
(0.01641716721 -0.1020118031 3.364808432e-13)
(0.01767281366 -0.08690423567 2.735034421e-13)
(0.01530820349 -0.05457342209 1.71876402e-13)
(0.01678372094 -0.06590603185 2.074729277e-13)
(0.01595522239 -0.0640547654 1.97189487e-13)
(0.01868254369 -0.07000293001 2.307459779e-13)
(0.01354141409 -0.04421414367 1.39305234e-13)
(0.006068768067 -0.01582183871 4.996003611e-14)
(0.008673929398 -0.0242359687 7.646661082e-14)
(0.007423321228 -0.02118884711 6.537825836e-14)
(0.01048009435 -0.02795125328 9.234280007e-14)
(0.003634832712 -0.008881977194 2.806088695e-14)
(0 0 0)
(0.0003853897331 -0.0008389610439 2.650657471e-15)
(0.00017990146 -0.000400663328 1.235123115e-15)
(0.001044438462 -0.002169249459 7.188694084e-15)
(-0.002363396706 -0.1225929711 3.552991235e-13)
(-0.00512751345 -0.1229857277 3.566591467e-13)
(-0.005019235878 -0.1223257233 3.474581733e-13)
(-0.00494639935 -0.1161306038 0)
(-0.005025028319 -0.1187316313 0)
(0.0003858810511 -0.1216905823 3.524402992e-13)
(0.008072258665 -0.1136240767 3.284594818e-13)
(0.005671971495 -0.1174306675 3.396727344e-13)
(0.005427719631 -0.1144352079 3.242406343e-13)
(0.006019400097 -0.1182253234 3.568811913e-13)
(0.01019152694 -0.1084905179 3.13471471e-13)
(0.01392202847 -0.08508259141 2.456368442e-13)
(0.01320008304 -0.09412936207 2.717825964e-13)
(0.01225541145 -0.08890182655 2.514932707e-13)
(0.0147164903 -0.1008613215 3.038125307e-13)
(0.01404957466 -0.0750628679 2.167016566e-13)
(0.01096069188 -0.04242750549 1.225824997e-13)
(0.01251621959 -0.05335861394 1.540989558e-13)
(0.01111364207 -0.0482405401 1.365019209e-13)
(0.01495810695 -0.06133017783 1.847411113e-13)
(0.009024067956 -0.03198997191 9.246770016e-14)
(0.002686957588 -0.007619940422 2.206568261e-14)
(0.004682102087 -0.01421857958 4.114764085e-14)
(0.00368580845 -0.01141314727 3.236300117e-14)
(0.006587809234 -0.01920892303 5.798139746e-14)
(0.001108175565 -0.002949753253 8.54871729e-15)
(0 0 0)
(0 0 0)
(0 0 0)
(1.724428717e-05 -3.925917872e-05 1.110223025e-16)
(-0.001742576678 -0.1051954899 2.812333699e-13)
(-0.003983247669 -0.1065975287 2.851330283e-13)
(-0.003470852903 -0.09731063364 2.553235401e-13)
(-0.004782130702 -0.1193136687 3.320538289e-13)
(0.0004468069501 -0.1027591371 2.745997874e-13)
(0.006037403731 -0.08905128613 2.37670994e-13)
(0.004405550105 -0.09469060696 2.528116605e-13)
(0.00396981591 -0.08499313586 2.226413498e-13)
(0.005135344617 -0.1095992685 3.04312131e-13)
(0.007348466235 -0.08239100736 2.198380367e-13)
(0.008854654176 -0.05749526165 1.533634331e-13)
(0.008790483229 -0.06643849638 1.772193503e-13)
(0.007494545623 -0.05726044447 1.498801083e-13)
(0.01119482763 -0.08246215913 2.286504319e-13)
(0.008476390172 -0.04822669306 1.28647093e-13)
(0.005190868167 -0.021536892 5.749567489e-14)
(0.006560975012 -0.02991636523 7.985279105e-14)
(0.005070543328 -0.0234761668 6.147859999e-14)
(0.009627839927 -0.04251358609 1.179334408e-13)
(0.00370986809 -0.01412584116 3.771982726e-14)
(0.0002423580096 -0.0007426600579 1.998401444e-15)
(0.001057430421 -0.003463165607 9.256484468e-15)
(0.0004660800323 -0.001554555363 4.080069615e-15)
(0.002717372904 -0.008575945168 2.382816167e-14)
(0 0 0)
(0 0 0)
(0 0 0)
(0 0 0)
(0 0 0)
(-0.0006358218999 -0.06061941812 1.503935865e-13)
(-0.001847953925 -0.06202573686 1.539185446e-13)
(-0.001371210318 -0.04935529974 1.203065425e-13)
(-0.002923778104 -0.08650072926 2.227107387e-13)
(0.0005199792965 -0.05825669043 1.444955267e-13)
(0.00312092467 -0.04605598354 1.141725603e-13)
(0.00244562021 -0.05088588472 1.26162969e-13)
(0.001908620384 -0.03928480769 9.570122472e-14)
(0.003491765782 -0.07419641621 1.907640712e-13)
(0.003556869309 -0.040631265 1.007249839e-13)
(0.003324149821 -0.02259558854 5.601075159e-14)
(0.003650621186 -0.02869112208 7.112366252e-14)
(0.002527712298 -0.02005257244 4.88359353e-14)
(0.006179205886 -0.04767912144 1.225131108e-13)
(0.002794577571 -0.01673689683 4.149458555e-14)
(0.0007209149928 -0.003188679963 7.91033905e-15)
(0.001398496932 -0.006772634837 1.679212325e-14)
(0.0006183725336 -0.003041147937 7.410738689e-15)
(0.00367738149 -0.01728306756 4.443667656e-14)
(0.0002115955862 -0.0008618295534 2.137179322e-15)
(0 0 0)
(0 0 0)
(0 0 0)
(0.0001000003205 -0.0003396688637 8.743006319e-16)
(0 0 0)
(0 0 0)
(0 0 0)
(0 0 0)
(0 0 0)
(-7.037214741e-05 -0.01533068259 3.548550342e-14)
(-0.0003619792738 -0.01607338969 3.720634911e-14)
(-0.0001757382979 -0.008279669687 1.884603584e-14)
(-0.0009596951099 -0.03711538827 8.89011087e-14)
(0.0001890725604 -0.01411462212 3.26683125e-14)
(0.00056829468 -0.008406993828 1.945665851e-14)
(0.0005222091734 -0.01054938071 2.441102875e-14)
(0.0002236230293 -0.004526418538 1.029731855e-14)
(0.001391424652 -0.02837405788 6.793177132e-14)
(0.0005314734982 -0.006201308472 1.434963259e-14)
(0.0001187121919 -0.0008486998457 1.970645869e-15)
(0.0002735643708 -0.002244839829 5.19029264e-15)
(2.068014571e-05 -0.0001721784162 3.885780586e-16)
(0.001561897778 -0.01251560444 2.996214388e-14)
(1.373429391e-05 -8.703111802e-05 1.942890293e-16)
(0 0 0)
(0 0 0)
(0 0 0)
(0.0001407327504 -0.0007032629508 1.679212325e-15)
(0 0 0)
(0 0 0)
(0 0 0)
(0 0 0)
(0 0 0)
(0 0 0)
(0 0 0)
(0 0 0)
(0 0 0)
(0 0 0)
(0 0 0)
(0 0 0)
(0 0 0)
(-5.844126253e-05 -0.00288704577 6.467049118e-15)
(0 0 0)
(0 0 0)
(0 0 0)
(0 0 0)
(4.574777591e-05 -0.0009330414278 2.081668171e-15)
(0 0 0)
(0 0 0)
(0 0 0)
(0 0 0)
(0 0 0)
(0 0 0)
(0 0 0)
(0 0 0)
(0 0 0)
(0 0 0)
(0 0 0)
(0 0 0)
(0 0 0)
(0 0 0)
(0 0 0)
(0 0 0)
(0 0 0)
(0 0 0)
(0 0 0)
(0 0 0)
(0 0 0)
(0 0 0)
(0 0 0)
(0 0 0)
(0 0 0)
(0 0 0)
(0 0 0)
(0 0 0)
(0 0 0)
(0 0 0)
(0 0 0)
(0 0 0)
(0 0 0)
(0 0 0)
(0 0 0)
(0 0 0)
(0 0 0)
(0 0 0)
(0 0 0)
(0 0 0)
(0 0 0)
(0 0 0)
(0 0 0)
(0 0 0)
(0 0 0)
(0 0 0)
(0 0 0)
(0 0 0)
(0 0 0)
(0 0 0)
(0 0 0)
(0 0 0)
(0 0 0)
(0 0 0)
(0 0 0)
(0 0 0)
(0 0 0)
(0 0 0)
(0 0 0)
(0 0 0)
(0 0 0)
(0 0 0)
(0 0 0)
(0 0 0)
(0 0 0)
(0 0 0)
(0 0 0)
(0 0 0)
(0 0 0)
(0 0 0)
(0 0 0)
(0 0 0)
(0 0 0)
(0 0 0)
(0 0 0)
(0 0 0)
(0 0 0)
(0 0 0)
(0 0 0)
(0 0 0)
(0 0 0)
(0 0 0)
(0 0 0)
(0 0 0)
(0 0 0)
(0 0 0)
(0 0 0)
(0 0 0)
(0 0 0)
(0 0 0)
(0 0 0)
(0 0 0)
(0 0 0)
(0 0 0)
(0 0 0)
(0 0 0)
(0 0 0)
(0 0 0)
(0 0 0)
(0 0 0)
(0 0 0)
(0 0 0)
(0 0 0)
(0 0 0)
(0 0 0)
(0 0 0)
(0 0 0)
(0 0 0)
(0 0 0)
(0 0 0)
(0 0 0)
(0 0 0)
(0 0 0)
(0 0 0)
(0 0 0)
(0 0 0)
(0 0 0)
(0 0 0)
(0 0 0)
(0 0 0)
(0 0 0)
(0 0 0)
(0 0 0)
(0 0 0)
(0 0 0)
(0 0 0)
(0 0 0)
(0 0 0)
(0 0 0)
(0 0 0)
(0 0 0)