/*--------------------------------*- C++ -*----------------------------------*\
| =========                 |                                                 |
| \\      /  F ield         | OpenFOAM: The Open Source CFD Toolbox           |
|  \\    /   O peration     | Version:  v2012                                 |
|   \\  /    A nd           | Website:  www.openfoam.com                      |
|    \\/     M anipulation  |                                                 |
\*---------------------------------------------------------------------------*/
FoamFile
{
    version     2.0;
    format      ascii;
    class       volScalarField;
    location    "2.1";
    object      p;
}
// * * * * * * * * * * * * * * * * * * * * * * * * * * * * * * * * * * * * * //

dimensions      [0 2 -2 0 0 0 0];


internalField   nonuniform List<scalar> 
3259
(
678.233597
681.7432144
689.0173931
699.3586698
723.4869304
744.0183518
769.6594331
812.5584005
864.1640833
922.4932643
982.7745664
1078.270509
639.2918551
641.6857903
646.8193908
653.7959057
673.7995693
687.2512734
702.2768537
732.4255155
761.7467474
787.6990763
803.1997142
845.644863
597.8317344
599.0318532
601.7067035
605.0561048
621.064391
626.7375888
631.5613925
647.0067744
654.0045231
648.6244513
614.8160052
516.9744822
554.8600701
554.9440872
555.2347254
555.1521262
567.2441058
566.1369179
562.1499538
564.2028205
553.1283583
525.4639191
465.6536241
351.09151
511.3724586
510.5105653
508.7685274
505.7720982
514.15265
507.4839303
496.5463942
488.6732907
463.6134639
423.1612192
357.1390315
258.2128885
468.2690482
466.6499175
463.2814478
457.9891368
463.1151824
452.274573
436.3258837
422.3001111
389.3348002
342.983438
279.2125079
196.5987073
426.2725176
424.0804076
419.4802701
412.5025673
415.0383786
401.3583822
382.297833
364.6527104
329.2910098
282.198097
223.0577973
152.753351
385.9307025
383.3452006
377.8962565
369.8020749
370.4057455
355.0502134
334.3049345
315.1286525
279.8477719
235.3519429
182.2555641
121.8837372
347.6328578
344.8183433
338.8717312
330.1517106
329.4272811
313.3182484
292.0183203
272.6758519
238.8940052
197.9951581
151.0325546
99.32030992
311.6262268
308.7197443
302.5735161
293.6371311
292.0479944
275.9034476
254.9296332
236.2129868
204.7041153
167.7465268
126.4032986
81.94192758
278.0304141
275.1388623
269.0266698
260.1980751
258.1040017
242.4446116
222.4085202
204.7587824
175.8976869
142.8846752
106.5895038
68.26754093
246.8605105
244.0641253
238.158091
229.6751996
227.3604047
212.5356913
193.8753855
177.4853678
151.3983576
122.148736
90.36414978
57.29490824
218.054856
215.4118011
209.833518
201.8603152
199.5405402
185.7721666
168.6625248
153.715794
130.3752087
104.6199886
76.86580777
48.33353007
191.4983441
189.0486627
183.880288
176.5232164
174.3575632
161.7736154
146.2976514
132.8666582
112.17174
89.62112645
65.47450795
40.89274474
167.0366839
164.8059361
160.0993646
153.4219637
151.5285927
140.1884495
126.3616834
114.4560645
96.26808819
76.64357993
55.73280556
34.62526278
144.4885856
142.4913086
138.2756669
132.3105286
130.7751373
120.6938811
108.4907409
98.08018942
82.24579461
65.29557744
47.30704535
29.26741968
123.6574472
121.9003965
118.1885639
112.9464859
111.8338748
102.9983292
92.38255932
83.39771987
69.7673377
55.26906747
39.93280278
24.62031964
104.3397003
102.8242421
99.61804857
95.09535221
94.45450309
86.83361129
77.78081814
70.12479727
58.55635447
46.31521403
33.3988529
20.5318964
86.32274985
85.04791788
82.34311822
78.52424801
78.40949504
71.95457831
64.40744546
58.02814689
48.38453327
38.22990798
27.53463013
16.88287716
69.42013243
68.38117655
66.17033523
63.0378238
63.46832262
58.13734647
51.9831987
46.9103716
39.05636584
30.84072489
22.19972417
13.57734015
53.34592832
52.54729748
50.83008145
48.35573272
49.47146094
45.17692976
40.31159504
36.56006538
30.39362871
23.99650707
17.27469866
10.53378651
38.19950823
37.61629633
36.38023978
34.60796359
35.97510234
32.88033243
29.2798198
26.79823864
22.23824859
17.56202434
12.64835744
7.680789726
22.70361398
22.42251043
21.68805154
20.61987752
23.0928789
21.08477892
18.69889869
17.47067783
14.44908173
11.40867683
8.218033601
4.953073195
11.35140004
11.07970415
10.69326942
10.0861165
10.50755937
9.481973543
8.335838865
8.440286521
6.903685093
5.402027617
3.877862092
2.289249943
1090.517776
874.5811834
1023.836384
1084.53608
849.1152237
871.8488207
1061.793618
991.4744488
1051.380513
1144.959536
584.682552
1150.754294
1155.833013
1037.849277
1044.783661
976.9308104
1050.716936
936.1368633
1150.070008
1056.288111
-294.0157369
1098.080083
1063.377511
1023.087353
1111.594056
1075.886743
1103.679531
1185.229526
1155.76022
1122.839421
1166.534031
1191.73839
1195.845729
1188.856575
1008.215938
961.9504147
941.0076247
960.8568538
487.1641142
191.3041453
1109.594714
-282.2031344
148.0901676
-196.768834
1104.686316
-230.6688991
115.0543988
659.2543482
614.3482167
837.253218
726.3657633
746.5796515
977.8635752
1071.503264
1056.550234
1034.880924
880.8512065
652.6865645
1220.704697
1162.762725
815.197358
947.7466001
909.6028686
1027.132165
1000.43497
1016.668687
157.92767
1025.187297
449.4374973
706.7917671
523.7558524
598.8020734
1128.152324
1077.456285
1082.546051
1063.499098
1075.043634
1118.336867
1106.310049
1089.085533
1215.781442
1170.113515
1002.781522
990.3382595
962.0091832
637.7829264
547.3740618
1013.490163
272.9962082
426.7761067
323.1001169
1120.500773
-435.176069
-3.080207928
218.1357006
-47.73921113
1074.229704
1129.765826
1112.689675
1125.08883
1161.871811
1150.977184
1135.698478
1160.561618
1167.211203
1160.672103
1043.926219
1144.34875
1150.838505
1155.259847
1059.693553
1173.049408
1156.739166
1167.234452
1210.122896
1195.09699
1179.106963
1199.670302
1208.180062
1203.103899
1182.363255
1185.722753
1192.105406
951.5495738
960.1960432
946.6190458
697.2861837
960.7091015
364.7273495
493.9087103
614.3037376
1115.461296
1116.966424
1113.032387
-346.3719736
-189.3467073
-167.1035686
-182.6852886
1097.74059
1104.296212
1111.353327
-82.4860525
1234.254357
1232.366755
1165.16146
1161.954098
1168.531097
1160.630615
951.5992554
991.3686008
1113.367766
1027.768409
1020.432124
1009.492343
1036.023016
393.6847038
378.790817
1086.943803
967.2732113
740.166209
1129.569431
1142.1166
1137.092048
1068.335342
1213.031932
1202.618363
1229.411787
1223.029842
1174.667769
1179.46027
1175.908836
1182.05498
1177.498149
1194.311251
1187.952767
996.3682124
982.0135075
987.2522086
596.0395952
612.3033769
672.8387844
552.5623824
560.1538395
542.9711703
1000.377581
368.7280358
316.9118552
250.2068221
1115.970584
1117.510254
1120.441824
-413.333249
88.02200303
29.39144695
200.7493459
188.834063
201.3299228
10.96051397
-122.7061268
-103.3916863
-1.41509436
1085.613563
1098.05938
1091.199157
831.7764829
873.5096496
888.9121135
937.8588125
954.7222718
1006.174534
752.3079921
778.0531114
850.308402
786.9996586
813.0535102
907.6549617
821.0793105
843.0841922
967.6207911
939.982326
948.8372898
1017.233425
1043.302497
1067.205073
1103.033781
668.1535906
677.8941283
754.3688674
680.4492583
683.1806532
782.0174828
681.9516921
668.4887685
800.7451043
754.4303544
752.5094379
821.6718903
805.7750847
801.3797852
875.4510998
584.3964833
579.9097053
652.9980349
577.3066522
562.3374058
651.5551501
554.24522
516.739639
627.2792986
498.7218647
424.8271168
552.3984207
383.1084683
506.7032549
491.1788462
556.8873635
484.6441621
458.4090916
534.6916945
446.7386393
400.421977
484.5625508
380.957312
308.5566338
390.1471479
277.5970943
438.0517922
415.4256468
470.9105545
406.4401577
374.0492717
435.3256276
361.0670556
314.4800617
376.3690136
296.3860403
232.5725146
286.7386663
210.067245
378.259841
353.0454781
398.7079315
343.2116723
308.9012487
356.0772893
295.7988982
251.6433473
296.851954
235.3892718
179.6335364
217.5399289
162.3116833
326.7912087
301.0878945
339.1549835
291.3379093
258.3255526
295.1523047
246.063752
205.9116907
238.8694569
191.4113631
143.3381789
169.132574
128.6644535
282.6736595
257.7106543
289.5064369
248.4368029
217.7363898
247.3485175
206.5878293
170.8811191
196.3134958
158.1367736
117.3406824
136.1176944
104.4078263
244.8096512
221.2958769
248.0120038
212.6983578
184.7231056
208.851903
174.7453166
143.2199753
163.3674013
132.0505954
97.24076801
111.8343283
85.89114448
212.1884776
190.4935634
213.1160103
182.6581611
157.5110916
177.4342672
148.6706701
120.9292249
137.2055606
111.1660331
81.34443284
92.92517954
71.40011146
183.9379942
164.2207775
183.5375398
157.1680642
134.7883876
151.452757
127.000863
102.6523991
116.0265966
94.13592559
68.50061968
77.88321882
59.82629461
159.3529451
141.6306136
158.2571559
135.3435843
115.576646
129.6887458
108.741894
87.43590826
98.59215579
80.02180018
57.93021363
65.66919179
50.41512245
137.8234141
122.0455733
136.475944
116.4885144
99.13865744
111.2315202
93.16367586
74.58942655
84.0246725
68.15239261
49.099083
55.57599362
42.63142558
118.8449264
104.924985
117.553175
100.0527809
84.9188613
95.39440079
79.72153694
63.60192622
71.68497816
58.03317299
41.61988892
47.11520341
36.09780466
101.9957534
89.83029378
100.9766132
85.59490454
72.48918102
81.65805768
67.99804063
54.0946821
61.09890514
49.30574637
35.2057078
39.92586916
30.53352515
86.91967397
76.40315913
86.3293597
72.75829547
61.51320919
69.62016346
57.66632642
45.77357919
51.91306687
41.69019764
29.64376065
33.74233256
25.72444492
73.31884221
64.35038084
73.27138181
61.25340187
51.72126715
58.96358825
48.46487806
38.40570844
43.85017849
34.96349394
24.76582604
28.36609175
21.5086317
60.94921693
53.42941238
61.52263473
50.84108183
42.89188953
49.43148952
40.17962499
31.80363367
36.6899545
28.94606293
20.43431911
23.63654946
17.75944931
49.60594476
43.43491418
50.85144944
41.31931178
34.83918255
40.81260954
32.63132708
25.81209088
30.25398779
23.49057408
16.53479805
19.42304463
14.37613642
39.08302095
34.17872571
41.05881472
32.50587219
27.40027584
32.92787106
25.66401579
20.29805488
24.39372154
18.47388032
12.96805997
15.61556288
11.2741416
29.18927695
25.49104863
31.95961461
24.23750515
20.43053794
25.61922637
19.13930019
15.14230112
18.97993693
13.78270059
9.644676745
12.11767726
8.379812641
19.76735615
17.22314426
23.39017
16.36906165
13.79617367
18.74558562
12.92769237
10.23320923
13.8963008
9.31254167
6.484421106
8.842366424
5.626629065
10.67730081
9.247206496
15.20613664
8.774307939
7.368517394
12.17486068
6.899401226
5.451730438
9.030720882
4.959188812
3.411533695
5.710909092
2.953791836
2.247045932
1.826401124
7.28428915
1.688295871
1.229449102
5.77610946
1.055796364
0.5035706491
4.261552162
0.3986599913
0.7199111462
2.639118883
0.5060018132
1114.380049
1147.354754
1122.55348
896.9393984
939.6017055
917.0086621
618.0705548
1038.699563
1099.130429
1063.246419
1147.972077
1110.421296
1049.194711
848.7480176
924.4709247
894.7035032
959.784143
932.0022851
853.2552107
1027.287153
957.1012803
987.1596041
1014.291067
1054.631155
1030.03995
1057.416055
1053.011707
1045.730459
1139.596153
1133.656109
1138.84175
454.1884124
654.8848863
686.7898791
604.6409887
422.574149
598.236201
573.4429
1155.297867
1150.042782
1145.204064
1200.727053
1215.237301
1134.030311
1158.034809
964.2971999
977.5166604
933.3621889
1038.204663
1029.872228
1036.878478
934.8133914
954.5500914
999.8724211
917.0349051
907.4493213
1045.118394
1092.55612
1085.97608
1091.165535
1050.389023
1059.660544
1072.527181
1030.039374
1052.939925
1036.92133
1100.002865
1108.811635
1120.370247
1084.877278
1096.909362
1088.072244
1108.386726
1103.785929
1098.42707
1181.37549
1175.383972
1178.953121
1144.845172
1153.171507
1164.199437
1131.459819
1142.28132
1133.882259
1187.250546
1196.211049
1175.181904
1185.87097
1177.044816
1198.275952
1193.569342
1187.48835
992.8247055
996.9787193
1022.408409
964.2315629
987.9471485
977.1994688
442.046717
487.8408923
525.4993154
223.0295223
275.0307655
237.0620126
99.41722
138.1997847
180.3400562
-191.9004552
-31.41688953
647.3621709
699.1086058
705.9784524
690.40531
691.1951657
633.022014
824.4112091
737.2834453
726.4352272
718.4045457
758.7128338
765.7043358
826.0251866
752.7383313
693.0745314
888.4943705
814.4460416
730.5770553
1066.353257
1060.184363
1065.239093
1049.26981
1054.649908
1061.253042
1040.114867
1047.574046
1042.168244
685.7382473
657.7209766
683.7910174
590.6453684
620.1937716
687.4072189
1226.660794
1230.295535
1225.242276
930.3843149
953.2527616
716.0990906
943.3471859
961.7243043
956.1593914
918.8050706
945.526513
929.5322654
1018.846376
1023.940869
1032.323967
1004.40532
1014.69123
1009.966313
280.2756446
732.8984554
849.6136534
796.9320029
656.6170709
882.6945467
665.5184681
770.8289724
710.6741104
1076.632365
1081.143317
1087.552828
1067.844806
1074.568752
1069.674408
1083.933588
1079.2075
1072.358897
1114.820385
1109.078483
1112.915955
1100.817888
1104.928959
1110.787927
1093.559866
1099.26821
1094.537827
1209.936021
1216.196733
1222.313567
980.1236974
980.89169
992.9156487
956.5371043
967.0163351
969.6739188
397.4067531
356.3128792
377.8661181
281.6943174
320.6430071
362.1860146
13.27931961
66.97686806
43.16176727
1124.480875
1128.874299
1134.645086
1116.850411
1122.938017
1118.232708
1132.254591
1127.505791
1121.107711
1158.858383
1154.250546
1158.243647
1146.159442
1150.107748
1155.132179
1140.153276
1145.245791
1140.550614
1167.796345
1171.57484
1177.35803
1160.420748
1165.901837
1161.818528
1172.843645
1169.560957
1164.073582
1204.922035
1199.420742
1204.485889
1190.208572
1194.601607
1199.986471
1183.193045
1188.975843
1184.303261
406.9627763
450.8354893
410.8179182
520.4043091
487.3862192
448.7001265
565.5790505
532.85832
571.4849448
-142.085484
957.6925388
957.6756131
943.7348257
1020.597384
1004.237525
978.5465511
1361.237052
1101.951666
1061.667102
1037.589799
1031.995668
1138.479476
944.0712677
1055.057232
1032.404738
763.5386028
792.1660318
727.2093129
748.6082964
758.0600772
770.815661
785.3109938
801.8016999
819.6076587
700.1039489
706.7147669
733.0080402
715.7530957
725.4135156
756.1246942
735.6636243
744.576507
801.5846057
792.9961564
803.7238548
824.4187265
838.9891624
851.4540307
878.3969525
889.4816715
902.1275486
937.4009398
1067.460421
1074.884224
1086.54942
648.0261435
652.1678431
680.1598394
657.2507899
662.3826627
694.738087
667.1397417
664.7573583
725.6043963
711.0286072
716.9352882
739.5908194
734.6158128
739.9998762
768.912173
752.292804
754.5054528
792.636437
594.1676703
595.2305431
623.9537699
596.2614328
596.7835796
629.4489211
596.4792136
585.1426292
644.837176
625.9634542
627.0723773
649.1992531
627.6270214
626.3010283
654.2003806
616.0590034
609.0494775
643.7303537
573.0720179
554.6617293
599.0025516
463.4684239
444.3964586
498.8671411
540.3601483
538.7736396
567.0823473
536.4427248
533.0936055
564.6063562
528.7728896
510.9017598
566.1020934
544.5250829
541.5612562
562.1637895
529.5232969
523.7441394
548.299398
498.0343286
485.8386621
514.2454252
435.0541205
412.891807
443.6221958
323.4921852
292.1940583
319.0719317
488.1767298
484.3398734
511.4626642
479.3586425
473.0095728
502.4894504
465.6869067
444.200337
493.6638338
471.2261064
465.2443127
483.2945744
443.5732187
434.7084718
455.3668854
401.0840873
387.04682
409.3509201
335.2130809
314.6307353
336.0272199
240.6906493
211.526435
228.2634616
438.5483584
433.0745938
458.4918992
426.229991
417.8483498
444.7707229
408.5294303
385.3615347
428.89003
407.0726026
399.6956323
415.1545264
373.1647282
362.7231181
379.162375
326.1132028
311.9526941
328.7637593
263.3825139
245.0680412
260.3440408
184.19565
159.9546206
170.8864358
392.1629829
385.6162088
409.0682599
377.6038264
368.0224826
392.2631364
357.5783254
334.2489856
372.0114355
351.5361427
343.6109402
356.7952288
316.0277756
305.4715959
318.6866565
269.4330789
255.9701959
268.4652487
211.7268443
195.5297099
206.3339334
144.0592179
125.5752535
133.0566903
349.3538477
342.2067496
363.609486
333.6064138
323.5028159
345.1077583
312.47114
290.0476095
322.731027
303.8835173
295.9216463
307.125277
268.8866969
258.7911084
269.6050193
225.2290552
213.0179393
222.8143827
173.7010859
159.4288896
167.4993824
115.6550561
100.4758646
106.0550218
310.1734636
302.8141684
322.2134164
294.0741828
283.9801829
303.1468403
272.8649045
251.8408604
280.1380852
263.0252608
255.3510715
264.8938174
229.7712153
220.3943072
229.322796
189.8425459
178.9562442
186.7794942
144.3365805
131.8796908
138.1398374
94.55706648
81.87458162
86.04833319
274.5253605
267.2488531
284.7547656
258.687918
248.9477777
265.9335633
238.1355622
218.7341635
243.3043877
227.9022342
220.7026911
228.8684677
197.044688
188.4952305
195.9428756
161.0821023
151.46318
157.8203688
121.0540995
110.2328529
115.1907965
78.22204436
67.58663951
70.83892493
242.2079282
235.2216221
250.9859549
227.0572132
217.8917718
232.9538211
207.6916597
189.9306971
211.3459241
197.5634326
190.938696
197.9703893
169.4051923
161.7105773
167.9895923
137.3549104
128.8883678
134.1416772
102.235517
92.85914553
96.86986947
65.3021768
56.27934758
58.8769011
212.9596038
206.4001687
220.5923732
198.7709855
190.2842834
203.6853881
180.8849755
164.7817814
183.4994023
171.2281366
165.215135
171.3057107
145.8449976
138.9885486
144.335517
117.495845
110.0623088
114.467363
86.76148946
78.64945981
81.9513931
54.8881359
47.1426043
49.25606629
186.4952466
180.4446613
193.2339081
173.4371867
165.6889648
177.6344619
157.1519233
142.6887459
159.1484181
148.2402571
142.8419065
148.1535942
125.5824403
119.5230082
124.1212057
100.6554459
94.15054215
97.89189716
73.8403155
66.83372773
69.59687235
46.34637631
39.63793898
41.38376721
162.5272859
157.0305696
168.5770089
150.6886472
143.7075951
154.3940969
136.0503989
123.1617036
137.7235993
128.0434782
123.2437003
127.9093918
107.9981266
102.6822935
106.6753327
86.20426913
80.53697555
83.75242002
62.89856112
56.85961717
59.20365808
39.22724056
33.38747822
34.84884902
140.7725807
135.8492402
146.3066901
130.1878847
123.9764765
133.5808615
117.1888864
105.787299
118.75595
110.1776746
105.9505398
110.0795708
92.60059199
87.97139674
91.47248952
73.66708555
68.75693136
71.55106098
53.5143361
48.33144264
50.34578548
33.20925451
28.11526389
29.35395461
120.9592367
116.6120921
126.12297
111.6284411
106.1744138
114.8519069
100.2318425
90.21119181
101.8488027
94.25601778
90.57128527
94.25472002
78.99323358
74.99635211
78.09565488
62.67572132
58.45317462
60.90712117
45.37407951
40.94460306
42.69797464
28.04562463
23.61415451
24.67639803
102.8302069
99.05140044
107.7483612
94.73139834
90.01520078
97.90611198
84.91217416
76.13847103
86.65960393
79.95096029
76.77924112
80.09347963
66.8553554
63.44165103
66.21214509
52.9386382
49.34333677
51.52213808
38.2277514
34.46853556
36.01266056
23.5509655
19.72562885
20.64773151
86.14479238
82.91727322
90.9241432
79.23898345
75.22436115
82.46357092
70.95630404
63.32866872
72.90406716
66.99367149
64.30495402
67.31237952
55.92380039
53.0492742
55.55088288
44.21945815
41.19948724
43.15583738
31.87597768
28.72241838
30.099121
19.58238817
16.32283136
17.13401078
70.67362673
67.97626752
75.40996861
64.9181469
61.5638822
68.26634928
58.09988738
51.57961757
60.35372507
55.16083647
52.92514951
55.67781347
45.98060639
43.60585392
45.88828145
36.32356942
33.83447307
35.6118633
26.15623847
23.55917934
24.80241406
16.02764767
13.3034462
14.02729513
56.21636414
54.01625142
60.97999027
51.55497066
48.82924554
55.08897818
46.05440546
40.65980225
48.82313785
44.25563778
42.441812
44.98936933
36.83490141
34.92565296
37.03356739
29.08411411
27.08875117
28.72500245
20.93461377
18.85280966
19.99310237
12.79484623
10.58132386
11.23823331
42.47933808
40.79944343
47.42542741
38.94736428
36.85723095
42.76079604
34.72888213
30.38165496
38.07668732
34.06768489
32.65564468
35.04586012
28.31299483
26.84190166
28.81524516
22.35455966
20.82278508
22.3513311
16.09418542
14.49239607
15.55528363
9.805293491
8.081532928
8.689393526
29.37738117
28.24248042
34.52423676
26.93469461
25.45411648
31.09211897
23.94903542
20.59193115
27.93274827
24.4286044
23.40055145
25.67235867
20.26181399
19.20643681
21.08085779
16.00239035
14.90970395
16.36157438
11.52616342
10.38261645
11.39198075
6.989559948
5.737792176
6.312438717
16.95290533
16.12626352
22.20461035
15.36232746
14.49508599
19.90271411
13.59434309
11.14296405
18.23844794
15.18632535
14.52972988
16.71837283
12.54428382
11.88449801
13.69230465
9.89916855
9.224574023
10.6315162
7.128928627
6.429819313
7.408840065
4.28351943
3.491727014
4.046873009
5.951224489
5.428293086
10.00726989
5.018580688
4.668746489
8.918807809
4.292839757
2.401046974
8.848120617
6.221331045
5.932689229
8.052501848
5.058308241
4.770531752
6.525795975
3.913737508
3.627692275
5.025696396
2.780364709
2.530162304
3.50703419
1.642111965
1.303823559
1.845461893
1097.955054
1109.131264
1100.824694
877.9401871
897.6483907
890.4816317
1106.429822
1093.442097
1071.708694
901.4370362
892.2619285
864.2548791
1049.158195
1025.725267
1038.075669
998.3472565
1012.002586
1004.13133
1154.622244
1161.924709
963.6562508
970.0478928
984.4118634
65.24275927
831.7566692
797.6111316
800.8631865
897.5698861
865.3599764
891.4936501
824.9378051
835.9297587
882.3277565
202.5922403
573.9450865
548.2407944
573.9852307
844.8667781
864.5269378
850.2007086
895.8836176
879.7749744
858.7931562
904.8390201
930.4089669
912.8043455
967.1250031
948.5635345
921.1965489
971.7284196
1004.965357
985.9600534
1043.318163
1024.073519
988.8751818
760.604866
782.168917
772.6413008
802.4342699
792.1165288
769.2054346
836.970533
814.9953475
826.7877692
795.9029702
823.6918274
813.0048182
844.9435039
834.3788856
804.6307318
892.9306258
864.0803088
876.7576212
828.6390251
865.461146
855.321534
885.6644159
875.5182243
835.9115507
952.4206778
914.8043118
927.6709385
1050.668381
1062.929964
1054.709675
1079.446297
1071.043927
1058.78665
1094.670546
1083.016792
1091.404639
671.5205211
694.056911
689.4692718
703.1513162
698.687683
674.8434891
746.9313774
722.9224488
728.870635
682.4550077
710.9080389
707.272673
715.8436133
713.8064205
683.4682733
775.7143679
744.8401605
748.9911272
679.4820406
716.211385
716.8464097
711.4856059
714.7242538
675.0050079
796.9720103
755.8691501
755.9960848
866.9614748
847.3263879
852.8142847
583.3522211
605.0045528
605.0364289
603.5229998
604.5272154
581.8567107
651.2545016
627.8110267
628.0837803
573.6576872
599.6317129
601.9157346
591.2210417
596.2095437
568.7429854
653.2748847
624.2541671
621.0731529
544.1769428
575.7945949
584.4846101
551.2108559
564.8235999
531.7889617
636.6620313
599.8376431
588.0950963
477.3708181
514.2890501
534.4203915
463.0606458
491.6072332
453.3042442
579.9048365
533.3536543
504.0620821
350.3675592
390.7814625
420.4525932
342.3187942
307.5922562
424.3804204
382.921689
502.0627225
521.5037692
525.3594706
512.3151898
517.2066006
496.931632
559.8072573
538.2036672
534.2733079
477.142264
499.9965751
506.6484038
482.7947728
492.1247683
468.4723076
542.2219949
516.7281752
508.2465529
433.27469
458.8310629
471.7686967
426.4450569
443.7709248
417.8668572
500.6898305
471.3921557
454.5030556
359.3843269
384.918982
406.8657904
332.7270425
360.0489683
335.0202994
418.6420963
387.7301115
359.6684091
247.0356705
268.2491056
299.2231609
235.1136813
216.680732
279.5318837
255.8985321
431.2190233
447.8979838
454.3746511
433.0235672
440.7863251
423.6779487
477.4208106
458.6991315
451.5210544
396.6267757
415.1368893
424.5173762
393.2154279
404.7478332
385.8681136
446.0006696
424.7759481
413.6175661
346.839029
366.2431916
380.4152289
333.5363223
350.6272255
331.3140258
393.77721
371.4110321
354.1245374
276.9494422
294.9974275
315.0111232
248.9970769
272.6801127
255.348714
312.2828318
291.5840625
266.9784258
183.0267633
196.5189403
224.7121323
172.6974055
160.7900112
200.3545332
185.8020359
370.5304494
384.8220103
392.41014
367.5798306
376.5648345
362.1378553
407.3095822
391.6160367
382.787653
332.5971086
347.2466302
357.8210902
323.5547219
335.8272556
321.1680086
368.10877
351.4411449
339.2602379
281.8688841
296.3414689
310.4024011
265.5147612
281.3691294
267.1377543
313.3852634
296.7616689
280.5581656
218.1439819
231.0285304
248.802954
191.1624401
211.4160001
199.1572582
239.432182
224.8164848
203.7710016
141.1762979
150.0951892
172.7810434
130.7062452
122.2179987
149.9063551
139.9120569
318.7960098
330.9486756
338.9354717
313.2047164
322.3837345
310.2337104
348.3114363
335.0689342
325.8845109
280.966888
292.9105814
303.3874048
269.9216025
281.7577352
269.963461
307.3133835
294.1935143
282.1807346
233.2068323
244.2410116
257.4078514
216.153435
230.4737341
219.8108371
254.0031948
241.8405076
227.1001884
176.1897207
185.5427374
201.220502
151.2359241
168.6623974
159.9950702
187.9771896
177.864177
159.6797563
112.0483808
118.5103512
136.0968711
100.7673681
95.16479999
114.4031999
107.2457284
274.8250725
285.1595444
293.0871656
267.8432206
276.7512639
266.5041517
298.5935146
287.4406733
278.4335107
238.6796148
248.4927721
258.4255799
227.0912138
238.0448754
228.4420756
258.7711592
248.1434964
236.9499311
195.0403728
203.7738067
215.653886
178.8482954
191.5042331
183.1416518
209.7930774
200.3729898
187.3094891
144.7994156
151.8847471
165.6803007
123.2134969
137.5823816
131.0494703
151.9705647
144.53764
129.4588238
90.51171802
95.30522301
109.8467445
80.35834968
76.09917808
89.93538244
84.9723612
237.3558399
246.1763787
253.7595304
229.8252432
238.2014078
229.5151209
256.6770255
247.2488262
238.7232902
203.7278494
211.8709563
221.0471417
192.3722295
202.3062747
194.3957077
219.3038519
210.6002299
200.4060005
164.5049388
171.5413653
182.102156
149.5667962
160.7105792
154.0126459
175.2447996
167.7777865
156.2724864
120.4349224
125.9889953
138.0195888
101.8149002
113.7618675
108.6709139
124.918972
119.1670682
106.6699221
74.29158654
77.9633229
90.08922327
64.99219155
61.75778775
72.14312266
68.44802652
205.2676423
212.8391865
219.9161291
197.7316951
205.4457525
198.0317832
221.1715841
213.1539591
205.2669602
174.5360257
181.3656513
189.7018232
163.8484941
172.7390826
166.1444758
186.8452316
179.6330592
170.4830317
139.6434866
145.411075
154.7302538
126.0809092
135.8777245
130.4117007
147.6570749
141.6194488
131.4997346
101.0912
105.5394272
115.9815451
84.99471603
95.04514042
90.98525865
103.8686558
99.33331521
88.84907238
61.61931438
64.51830662
74.71339656
53.20846608
50.69264898
58.72687236
55.88209028
177.6170898
184.1559163
190.6422911
170.413808
177.4134138
171.0400956
190.8974005
184.0291585
176.8489339
149.8965213
155.6836537
163.1659253
140.1062191
147.9877041
142.427551
159.8318459
153.7848637
145.6565714
119.0648816
123.8672067
132.0648102
106.9026013
115.4912241
110.958955
125.2030572
120.2348957
111.356325
85.41278019
89.04450188
98.08866724
71.4730055
80.01377657
76.71292693
87.13662631
83.48428372
74.59720499
51.47790582
53.81595662
62.49182827
43.97703147
41.98237361
48.32271402
46.08763375
153.6483723
159.3312209
165.2016264
146.97257
153.2545686
147.7360644
164.8964009
158.971481
152.5112966
128.8917805
133.8441915
140.4968933
120.0942725
127.0359695
122.2961588
137.0903702
131.9637458
124.7946563
101.7847529
105.838271
113.0304859
90.99439444
98.50039443
94.6895178
106.6243429
102.4752405
94.70982044
72.48125756
75.49580946
83.31713035
60.39210788
67.71685274
64.98765831
73.56988172
70.5744622
62.96901184
43.2127362
45.13032123
52.59752159
36.61232623
35.00357655
40.09500693
38.30729011
132.7271367
137.7013999
142.9586656
126.6921144
132.2781693
127.462734
142.4062852
137.2565664
131.4992728
110.8079696
115.0882253
120.9564933
103.0213686
109.1052806
105.0207081
117.7340534
113.3401022
107.049404
87.08832319
90.5521321
96.83952468
77.60944272
84.14706209
80.9013415
91.03290466
87.52153244
80.75181755
61.64319647
64.18469645
70.93848523
51.1669625
57.49535192
55.20574145
62.37926335
59.88446162
53.32377203
36.37485045
37.96991632
44.44776588
30.63828048
29.31979726
33.47526503
32.02189203
114.335092
118.7200559
123.3834519
108.9996802
113.9239045
109.6899604
122.8035548
118.292973
113.2068032
95.08731965
98.82184277
103.9607125
88.29111724
93.59613489
90.04054311
101.0794532
97.27357909
91.78082044
74.44215112
77.43556652
82.90648669
66.19695385
71.86890252
69.07166109
77.77772555
74.76897401
68.8893742
52.4354637
54.60522794
60.41994613
43.37997105
48.88496253
46.94034658
53.01176504
50.90710804
45.21028812
30.64345822
31.98688746
37.63044386
25.71508805
24.61801562
28.06252725
26.86218117
98.0436401
101.9394303
106.0365417
93.43483138
97.73710654
93.98359546
105.5847192
101.6023913
97.14840269
81.28834463
84.57846026
89.04467998
75.44842733
80.04509388
76.91869542
86.60066931
83.27067792
78.50302199
63.43975394
66.05475723
70.78688614
56.34988909
61.24389077
58.80641046
66.37177974
63.76413136
58.6830987
44.51142101
46.38796871
51.37345799
36.72195935
41.5279423
39.8502505
45.06908771
43.26640145
38.2942807
25.77915575
26.9245648
31.84641301
21.59637369
20.66986371
23.5678086
22.56151479
83.49508311
86.9853765
90.54670713
79.62058429
83.34168781
79.98516789
90.33604882
86.79054972
82.92779163
69.05880066
71.98549946
75.83220444
64.13655485
68.08635996
65.30996383
73.88622117
70.94371486
66.83751184
53.76440063
56.07353871
60.13395473
47.75629114
51.94804597
49.80043273
56.4470893
54.1623748
49.80162578
37.60489909
39.24793543
43.50289603
30.96405961
35.14796127
33.68094167
38.22965967
36.66323069
32.32941511
21.60189111
22.59001932
26.86543517
18.09888704
17.30453917
19.77948416
18.92321922
70.39231502
73.54581009
76.60032018
67.24873334
70.4272524
67.39919751
76.7164938
73.53190368
70.22115642
58.11447878
60.74360176
64.01858187
54.07104504
57.42757174
54.93698978
62.61052608
59.98427234
56.48403824
45.16322769
47.22473111
50.67164862
40.16915747
43.72417958
41.81054335
47.7160678
45.69169188
41.98301434
31.51413321
32.96987264
36.57227509
25.92913041
29.54216657
28.24188479
32.25932616
30.88059741
27.1285881
17.97043059
18.83376416
22.51437969
15.08366358
14.39203849
16.53835265
15.79859798
58.49091983
61.36472977
63.94234718
56.06518031
58.73797659
55.98142621
64.44382332
61.55774742
58.76175027
48.22108543
50.60711451
53.35318197
45.0195752
47.8293294
45.57149028
52.50921945
50.14082996
47.19839948
37.43019648
39.29189922
42.17526283
33.39132177
36.36473955
34.63921137
39.94791597
38.1333845
35.01921522
26.07606295