/*--------------------------------*- C++ -*----------------------------------*\
| =========                 |                                                 |
| \\      /  F ield         | OpenFOAM: The Open Source CFD Toolbox           |
|  \\    /   O peration     | Version:  v2012                                 |
|   \\  /    A nd           | Website:  www.openfoam.com                      |
|    \\/     M anipulation  |                                                 |
\*---------------------------------------------------------------------------*/
FoamFile
{
    version     2.0;
    format      ascii;
    class       volScalarField;
    location    "2.89";
    object      k;
}
// * * * * * * * * * * * * * * * * * * * * * * * * * * * * * * * * * * * * * //

dimensions      [0 2 -2 0 0 0 0];


internalField   nonuniform List<scalar> 
3019
(
36.90870874
36.90878197
36.90892787
36.90918058
36.95451113
36.95554173
36.95737458
36.96117277
36.96832709
36.97964614
36.99378881
37.00542405
36.72748887
36.72773234
36.72812417
36.72912509
36.77531528
36.78057264
36.79114177
36.82812275
36.86153975
36.91507394
36.98698043
37.03033623
36.54758108
36.54825297
36.54949837
36.55202557
36.60030765
36.61342545
36.63877189
36.69893799
36.7793935
36.90015679
37.01855905
37.09756271
36.36901856
36.36991501
36.37216282
36.37774068
36.43093357
36.45799899
36.51365051
36.6166886
36.77362319
36.95342404
37.12652686
37.25390066
36.19235137
36.19399117
36.19846595
36.20970707
36.27109378
36.32015229
36.42486677
36.59827669
36.82844098
37.08568993
37.35208566
37.58074278
36.01697266
36.01955674
36.02711436
36.04625115
36.12378786
36.20682487
36.38627225
36.62730536
36.93944102
37.31321314
37.76720744
38.2724992
35.84428935
35.84882112
35.86195667
35.89473203
35.9898076
36.12069221
36.39112814
36.69875748
37.11841501
37.66385068
38.48348107
39.87515857
35.67548707
35.68235263
35.70233271
35.75214971
35.87007608
36.06246092
36.41925804
36.80724254
37.35417022
38.1256273
39.50737726
42.66798807
35.51418421
35.52486761
35.5549558
35.62690924
35.76973883
36.03122301
36.468852
36.94360462
37.62130348
38.61107336
40.49226012
45.30852315
35.36240373
35.37709744
35.4177704
35.51363696
35.68969075
36.0222981
36.53491102
37.09602517
37.8907945
39.0501755
41.23047397
46.54380921
35.22390228
35.2442962
35.29889882
35.42415129
35.62914485
36.02866238
36.61251925
37.25303795
38.14411753
39.43137716
41.82273022
47.08585853
35.09845794
35.1239116
35.19089538
35.34398256
35.58464507
36.04729018
36.69603716
37.40668974
38.37978844
39.77359195
42.3633031
46.8513167
45.09601029
46.42415963
47.07336773
46.9040972
42.21654627
41.06509047
45.30244301
44.23628012
41.68595776
46.12632628
45.42602875
46.84845678
49.33750248
50.40390607
42.2447404
46.4271904
46.19417065
47.0542906
45.28138175
47.50302889
46.4368787
46.62326247
40.04960399
42.70492851
50.13691545
52.3857993
45.01294891
49.63318701
50.53084608
51.24113774
45.98577419
52.09620112
50.64659645
52.58093372
52.25103382
47.71584411
49.1546088
46.92885945
48.75808574
46.69936198
50.5526737
48.88551622
42.85202014
45.14378973
47.02609547
44.06367046
41.28637305
46.56171745
44.21850852
39.85527353
46.59380536
37.67722803
41.12990975
37.914189
40.27113522
44.03400488
41.94314298
43.92108858
48.37251408
44.51159777
45.85435234
51.30883802
50.88031742
50.68738129
48.76575866
44.26583336
59.62737077
47.96393549
57.37244681
41.98377929
44.40860383
41.49769907
46.14145236
45.75737223
64.95654427
60.20871861
51.2907266
60.67202254
61.80757077
55.34333049
60.25847541
51.5960611
47.16046833
54.46986768
47.05532525
60.81570653
55.40394974
47.88664951
58.27226786
64.76759706
51.41709755
46.81562531
51.32530566
52.69167354
50.79801853
54.67916543
47.27488382
50.29504737
52.62725321
47.82106963
47.68819398
49.83052503
49.72535753
42.95894578
42.76898122
45.457497
45.29851257
45.62440434
40.02697036
39.87022233
44.01806239
47.31746059
46.27040473
47.83356498
47.55571117
48.17328859
47.92210617
46.43260818
46.61755583
46.26274114
41.65141018
48.36336183
48.4565667
48.25033063
42.5199105
43.09773344
47.13097075
44.00843679
47.05509943
46.73031055
47.45923595
47.15927337
44.16233594
43.60051492
37.44747748
37.83096209
33.93214757
34.23430634
41.82189713
46.10071522
41.58724504
42.3606553
37.98125184
38.41135593
44.68124629
40.66274626
33.6252392
33.86120034
33.09663847
39.01269347
57.20267793
57.06799267
51.75593863
52.96158243
63.1939157
62.48290266
62.00120731
55.08332433
55.7882289
53.86134057
54.81011543
62.36056976
58.33727697
56.27417517
56.12207703
55.96300981
56.24768591
58.68464493
58.92392063
52.35784041
53.53718879
62.83388429
63.36577423
45.15895126
51.56679344
50.52729081
52.54758324
51.84840237
45.85722078
49.0920551
48.38264609
50.1664509
49.33659795
52.34307451
55.22703154
54.58930834
55.9780907
55.42916491
52.89681467
48.48233588
53.47274986
52.78376219
54.36932148
53.6994338
48.91912872
41.91831109
41.35691352
42.89300618
42.11532131
40.46086179
39.91208069
41.17851764
40.62601277
47.25800876
46.59867051
48.15443963
47.48412096
45.2913914
43.40734747
46.36000707
45.70203825
36.94108718
37.29577599
43.44510751
34.60951579
34.35938588
34.98023412
34.71156189
34.19170095
42.05253269
34.43921118
36.49846069
39.36388977
41.2961563
45.94532793
38.91663956
36.13222558
39.80084619
38.95077797
35.42507827
35.09803245
35.93417894
35.54842816
44.83485106
38.56442995
39.08191703
33.32745582
33.55794077
40.50697029
39.2912556
33.09434672
33.27825006
49.83490213
48.78178713
48.70555415
48.78195462
48.79124449
49.98581279
48.66556283
48.51634121
48.56874441
48.35826485
44.84675202
45.57683027
45.93467258
47.03610568
49.26697717
58.73679326
64.57019703
65.48228488
61.00221746
61.14174039
59.64366157
59.47725197
56.04307741
57.30247064
56.83618941
59.27877034
59.01395381
59.72194817
50.52720808
51.96438559
58.30588322
60.10068588
67.12215669
62.65419066
67.00234117
67.41299449
63.95661681
43.18127196
45.81611591
45.20674192
50.15900723
49.87632245
46.53276801
42.7075474
42.41930607
44.68707869
44.27155963
51.30511118
53.95773463
53.55905976
56.40316122
55.98859617
54.05898329
47.62868708
50.88791432
50.55413398
53.15867497
52.76784486
49.82402255
44.05580384
44.64356587
48.22880274
47.26720369
43.28362929
43.86414857
48.12478597
48.71172913
50.15145107
40.78249397
40.60618227
42.17218345
41.94598318
37.98737066
40.35299323
40.20841766
49.38140743
47.30820284
47.9218091
37.5539496
40.18620707
40.0405626
34.01956056
36.54566134
36.412411
36.95163084
36.70362156
34.1088669
33.26076217
33.19233901
33.7114969
36.08007443
35.96238078
36.30015128
36.18682489
33.78192242
33.41199311
33.32326178
34.62047773
33.60167733
33.07646003
58.27447459
54.87067911
54.90338475
58.62699771
66.88814035
68.46724815
59.74110415
65.52445764
70.19253409
63.94017596
61.68083381
58.25055211
57.79249507
56.71682531
59.33025548
58.79011066
58.47829832
68.44088408
68.17401557
61.73197619
69.14271479
71.44307427
63.84359646
68.1185629
68.38692877
48.52811826
48.33790401
45.13408849
46.03930503
49.428841
49.23101622
43.29022888
42.98596611
43.9230427
43.59497197
54.76232004
54.35619754
51.80215498
53.47182861
55.5800102
55.1705832
51.62868372
51.27312518
48.08961332
49.34601023
52.37713481
52.00507979
41.72496235
38.31920423
38.49969639
37.99377254
38.15882878
41.54163881
42.56936791
39.10046105
39.36879058
38.67987655
38.88108561
42.32814142
40.26511198
37.04810177
37.21654679
36.76552563
36.93172405
40.12036069
40.99304844
37.67347604
37.83878119
37.3511815
37.52437282
40.81786784
41.2308357
41.02945351
47.03955284
44.62257143
44.84369192
44.16976508
44.37137274
46.81019934
41.69516441
41.47580931
39.40946715
39.34431921
44.9777953
42.61904148
42.6976144
39.76494454
40.30143405
44.15534322
46.16194342
43.73408982
43.90058353
43.29317261
43.41087961
45.89029626
39.92962151
39.82585579
37.00839769
39.5361212
39.39137228
39.87116866
39.73645183
37.21077429
34.54544199
34.41879891
34.89307382
34.77929806
34.08985828
33.61577158
34.79464127
38.08059627
37.38972559
39.06688937
38.74629656
36.44119952
36.92705201
35.06766681
36.01426147
36.44674657
39.54493718
36.4859563
36.67434001
36.141682
36.40901096
39.46217612
35.31839673
35.19711932
35.79466068
35.66303018
33.41244449
35.63496983
35.49910119
35.85657786
35.73236226
33.47133816
33.16442007
35.17956682
34.89416529
35.41805659
35.25031619
33.20198818
36.72770848
36.77438224
36.85098736
36.79347807
36.86902881
36.89900966
36.89703777
36.98043951
36.96603396
37.00431532
37.06213491
37.02201165
37.07442899
36.63183748
36.72989757
36.75568506
36.76948903
36.89200646
36.86989746
36.93344785
37.05435439
36.99198519
37.0906041
37.18113013
37.08315626
37.20363678
36.59749501
36.75388386
36.73139045
36.80911071
36.98393296
36.90796432
37.04382009
37.22367377
37.08620843
37.28111388
37.4363994
37.22834728
37.48048904
36.61604298
36.82800151
36.76707722
36.90488445
37.15474818
37.01931103
37.24536073
37.53798759
37.28652168
37.64061226
37.95846197
37.53148244
38.0593768
36.67740188
36.96257667
36.85624669
37.0671694
37.42580337
37.21324111
37.56459419
38.06451706
37.64540347
38.26811356
39.04099314
38.14639891
39.34566504
36.77578917
37.1472951
37.00470898
37.28774792
37.79176322
37.51073531
37.99983133
38.83910568
38.23856966
39.23560468
41.5710563
39.43985795
40.68751976
41.23668437
40.1552363
36.90665213
37.37400402
37.20353948
37.55320479
38.21256048
37.89867991
38.49317007
39.68060612
39.05874606
39.7756857
40.40874748
40.0820604
43.11122406
43.83079695
43.26877049
37.05738787
37.61192519
37.43333265
37.82481746
38.61053792
38.31439133
38.94658978
40.36857409
39.86842095
40.6976336
41.52305207
41.28141004
45.51010445
46.76688203
46.53513757
37.21489174
37.84374216
37.67054334
38.08378831
38.96558676
38.70303381
39.34119093
40.91937308
40.51561386
41.38945813
42.31524347
42.13529746
46.65498777
48.2129231
48.12475722
37.37374406
38.06318187
37.89827358
38.3250113
39.28398364
39.04695301
39.69221873
41.40673186
41.04316287
41.96748489
42.97345413
42.80502991
47.0836373
47.79332447
47.95425288
38.11296957
39.35760689
41.52192557
42.52175447
43.84434677
43.40158554
46.79109733
46.61973048
46.87427618
46.29460496
46.00365484
44.84845665
48.08164313
47.88955042
46.29548
48.00176667
48.12465968
47.04368221
46.95505823
47.18580809
46.95154716
44.01509394
41.74295698
40.98699184
40.35614403
41.52929921
41.94692716
41.74289771
40.88725223
44.89799042
42.56778142
42.89434836
42.05236827
42.44959531
44.75271606
42.65118188
42.48304546
41.53795582
45.86605863
43.3752589
43.64126615
42.9958196
43.28271744
45.76513688
48.23993685
48.23140763
46.75686941
49.51174531
49.45235034
49.33895936
49.96720167
49.8980849
50.26632164
43.29900318
43.11215061
42.09537557
46.3715238
44.06761703
44.31155037
43.72917194
43.98324436
46.34055522
47.53885186
47.73342387
47.07422896
45.69581342
47.05773082
46.87600743
48.0803878
47.9126587
47.25276314
44.38675227
44.57793576
46.44120278
46.25714826
46.53126131
46.72739391
40.76848858
43.81098361
43.75317277
45.09822752
44.88275943
42.26056969
50.57295941
53.17399103
52.15351707
55.08490823
54.99119921
52.14046242
45.61349115
46.33866791
45.59962893
51.4379171
50.71404533
49.12590197
50.88598794
48.66486495
48.76587549
48.46709128
48.62000541
50.98846643
46.15479948
47.7915607
47.24708524
51.93305741
52.17982689
52.7216428
49.68133418
50.27400233
50.94161103
52.69471746
54.74884506
55.03316381
52.89881762
53.42029199
52.390767
47.93868077
48.39171512
48.23567852
49.21979696
49.09481193
48.96495541
46.99472309
48.15888768
48.23043465
48.62273205
48.03228824
48.19912973
45.76198078
45.92897225
46.84768511
50.25594534
48.90725139
49.48714468
48.37000137
48.54165653
49.01874458
43.31702216
45.51354354
45.30597671
46.69139031
46.50470613
44.72930683
46.99183174
47.25902575
47.4705912
43.90926103
42.39811795
42.56110943
39.15602994
39.3193322
41.44902459
46.41181284
45.42579738
45.59835855
42.72698644
42.89122848
44.37298323
43.66984328
46.16227127
37.49760656
34.79349656
34.91033643
40.97450133
38.85818306
39.00620674
35.11108886
35.517627
38.24187181
41.01624965
40.72473626
40.03216117
43.2869955
41.401927
41.90518045
40.60577687
41.21727771
42.98919124
44.86195292
44.36786587
43.53399751
46.91299981
45.05809444
45.9487699
43.80066916
44.72875173
46.31294317
47.1612124
46.94083937
45.67673875
51.3550953
48.09386724
48.39136415
47.63387707
47.99224476
51.29842646
50.0116196
47.03254601
47.50594933
46.19738491
46.8572631
49.74431933
44.57603252
45.67783729
45.29560741
49.03230041
50.61174064
48.92929853
62.27564851
59.79789719
55.75120901
42.26575875
43.35821059
42.76543084
43.23156479
42.13453095
45.98106992
43.75617693
43.1109496
44.23622408
43.95446729
40.98191894
46.01314068
45.24806267
45.43314824
44.89844683
45.09173454
45.88833368
54.16343095
53.44491532
50.95324224
58.26107344
58.95494318
62.5367819
51.87690255
54.87764351
54.36248964
48.33255426
47.37863524
46.38654657
51.18589117
48.68915947
50.03698059
46.32589376
47.24329391
50.08057083
60.05396518
56.94311173
57.55513674
53.19094301
53.93017709
56.42343224
48.53338053
50.0427734
49.19087362
51.33857763
51.98564607
51.74275598
51.03256207
50.47511219
51.10913033
54.21928361
54.62904014
52.71624924
52.51652101
53.58806987
54.06889282
47.06972946
47.230257
47.96042479
47.54653602
46.74682182
46.90916585
49.57498634
49.70981856
49.94173983
49.61018578
49.30028647
49.43871218
41.38542769
41.56596883
43.1274894
42.55102442
40.85096649
41.14586259
44.10597268
44.33753795
45.6165607
45.14245017
43.72182816
43.90325693
44.71913989
37.96943933
38.13031928
40.19086311
39.69547481
37.65536912
37.83859908
44.65178466
45.34377716
47.41038054
47.2361498
45.83458255
47.74306265
47.6374559
47.76445852
47.3755905
47.50770101
47.65026041
48.09263713
48.12788738
48.24339855
47.88876693
48.01041174
48.00833401
47.06116283
47.75207722
47.58070224
46.50197163
45.92050964
46.07939984
45.59261276
45.7615691
46.38443925
42.11100816
44.67077782
44.43808695
48.68768794
48.54142574
48.15171769
48.3924023
48.56611686
48.6674013
48.35386088
48.46191701
48.32347583
42.7243863
44.6050258
44.41742223
44.96950281
44.78399289
42.9000138
46.98539917
46.09194483
46.25726733
45.9249417
45.7201885
43.48959381
46.94906205
46.53490573
46.68203922
46.23330624
46.38541687
46.84073075
47.36111851
47.10511658
47.24128099
46.82598066
46.96672999
47.26108815
44.59105327
46.31552915
46.12301018
42.07237732
42.23222931
43.75438064
40.5091884
40.35296068
37.70591083
41.62366828
39.50533018
39.74517215
45.05362271
45.25262175
46.26604821
41.969266
43.85176319
43.58963795
44.24157427
44.04032929
42.12260132
38.11739814
40.83755931
40.67578527
41.16953059
41.00455949
38.26817756
44.52738613
43.05648113
43.22069276
38.56472668
38.71413878
40.81993946
38.64811417
36.2480486
36.94707598
54.64817714
52.19479618
50.14136991
49.95224307
53.04033974
54.63411781
58.36868399
55.79774662
59.7393461
59.72255577
61.5635613
55.34452718
57.43201636
57.2171914
57.67195231
57.58681619
55.5768164
54.19419366
56.16629694
55.66945666
56.94593246
56.59424909
54.50652501
62.56618075
59.41592816
59.67471363
56.26290714
57.34668967
57.45511522
56.85852458
57.13089164
56.22045378
56.10329894
57.66191445
57.69433238
57.52424902
57.60121778
56.18934018
55.85494066
56.41160661
59.53608456
52.77560093
54.22206708
53.70896033
55.17061007
54.68247882
53.12865856
51.29350087
50.21249753
50.54370545
48.63751801
49.39278351
50.92775604
52.32075955
51.5674083
51.83687609
50.98622443
51.2348569
52.07559061
48.85190513
46.56727236
46.8355585
46.04712523
46.30605472
48.61556636
49.86032045
47.7004433
48.08627774
47.10724652
47.39111212
49.58976339
55.01925341
55.1315634
55.42740292
54.53490408
54.83446302
54.80607974
55.80828146
56.29616591
56.57879257
55.72075931
56.01057243
55.62369539
53.24545782
52.73695218
53.03070751
52.14560627
52.43331404
53.01338947
54.14743166
53.93005296
54.23213019
53.330099
53.62768279
53.92366826
47.9309243
45.56429077
45.80002948
45.08867488
45.3203101
47.70587997
43.28969227
41.74615848
41.90564088
40.07161283
40.47412965
42.30583313
39.82963131
42.49427837
42.15364939
43.29998244
42.90764697
40.52522387
45.76214072
44.58929909
44.8368378
43.38545913
43.55126447
44.98829585
38.71714946
41.50946545
41.33826939
41.89682022
41.69166298
38.88595262
40.34676247
38.268358
38.42197005
37.23020415
37.51558535
39.52096906
49.65416188
49.55721139
49.67722109
48.76421632
49.21301107
49.26362535
49.09213863
49.15582975
48.73760409
48.79288572
49.37985598
49.40564654
49.30911998
49.34754472
48.7942053
50.13021265
49.82419612
49.74305923
48.6209184
48.94141852
49.02026673
48.76436148
48.8557994
48.57093271
48.7696136
48.96431606
48.82840959
47.7088269
47.8695564
48.49425702
45.06059483
46.810742
46.62021476
47.22699557
47.01060821
45.29570086
46.35555464
47.71617673
47.46568188
48.16601563
47.95405898
46.74843465
49.14072209
48.707383
48.86522938
51.04121705
52.00086515
51.31980234
53.19894998
52.59523898
51.49068899
57.42399105
54.62142079
55.2895959
44.24988086
46.06748798
45.88494863
46.43413651
46.25017213
44.44453535
48.09144557
47.3896494
47.54933197
46.42034337
46.58464926
47.41146209
43.47985319
45.33647537
45.15155935
45.70271039
45.51927835
43.67023084
48.31913791
49.2149092
49.05000952
49.54154258
49.37935036
48.51737216
50.04404373
49.84261712
49.97408509
49.0153458
49.15939949
49.50102622
47.51133653
48.53885192
48.36261479
48.88174832
48.71396108
47.72826072
36.86749804
36.86986937
36.9562722
36.87352034
36.87932022
36.95875071
36.88547909
36.89484599
36.96427747
36.90739103
36.92332616
36.97346542
36.94258203
36.96558107
36.98634167
36.98899875
37.00838051
37.00165064
37.01835849
37.0244728
37.007548
36.68919548
36.69135602
36.77745322
36.69589388
36.70290877
36.78503949
36.71225391
36.71781013
36.82220381
36.79233408
36.80124819
36.83454324
36.83483838
36.85015115
36.87234741
36.90256789
36.9245469
36.93079731
36.98891711
37.00393943
36.99648297
37.04139218
37.04904681
37.03562383
36.51778086
36.52351717
36.60571149
36.53420023
36.55006403
36.62421814
36.57264313
36.60826594
36.68588517
36.67336121
36.69283332
36.71534336
36.77035694
36.80401319
36.8071929
36.90697238
36.94199642
36.93209093
37.03729186
37.06446006
37.04303836
37.12622073
37.14039038
37.11006921
36.35341794
36.36545131
36.44191763
36.38642082
36.41815309
36.48100689
36.46360054
36.55007219
36.58714633
36.60678828
36.6463405
36.65044308
36.78171294
36.82976172
36.81764485
36.97823377
37.02805118
36.99891764
37.16957072
37.21188041
37.16405598
37.31683346
37.34153174
37.27627769
36.1994961
36.2222718
36.29094492
36.26007564
36.31673275
36.36295621
36.40103685
36.55151437
36.54451886
36.60125524
36.65921134
36.65174129
36.84876276
36.91802512
36.8907448
37.1330486
37.20735894
37.15274796
37.43454428
37.50887053
37.41559058
37.71655003
37.76400411
37.631178
36.05685042
36.09700559
36.15699749
36.16018788
36.25301087
36.27993476
36.38655479
36.5917397
36.55739665
36.64144085
36.7198531
36.70048298
36.9780554
37.07263028
37.02662706
37.38904909
37.50787385
37.417959
37.91268347
38.06576545
37.89279207
38.56589394
38.70035888
38.41146126
35.9275655
35.99173408
36.04156772
36.08781312
36.22438225
36.23574258
36.40186373
36.66495073
36.60652218
36.72232276
36.82545713
36.79551225
37.17135159
37.30256783
37.2396741
37.77081234
37.9619564
37.83480358
38.71476438
39.06226306
38.76143296
35.81668491
35.90980071
35.9476806
36.04374739
36.22752626
36.22424744
36.44213237
36.76846094
36.68894737
36.83759563
36.9688552
36.93172117
37.41675664
37.59136641
37.51794149
38.24611804
38.53122836
38.38679392
35.72615312
35.85090627
35.87685142
36.02369485
36.24897999
36.23570745
36.50091336
36.89257366
36.79833425
36.98109068
37.14127612
37.09687537
37.68963268
37.90514206
37.82719713
38.72654312
39.08979878
38.9572608
35.65576345
35.81359639
35.82801171
36.02420018
36.28398985
36.2638174
36.5744418
37.0264204
36.92509281
37.13558298
37.32161472
37.27609105
37.95614789
38.20492344
38.13207748
39.15033468
39.56661434
39.45493842
35.60516224
35.79394406
35.7988962
36.03881904
36.33022912
36.30255758
36.65868718
37.16452144
37.05942411
37.29493515
37.50315681
37.45606776
38.20771183
38.48231208
38.41284785
39.52144719
39.977365
39.87845839
35.785134
36.34901848
37.19392212
37.4556574
37.67995477
37.63024858
38.43949718
38.73502177
38.6710655
39.85601598
40.34987567
40.25750891
42.60809019
42.13107976
41.75640775
40.60182783
40.86727193
45.17264798
44.24582384
44.3690165
43.35920504
43.53363169
44.42410532
46.04798156
45.10977569
45.20237572
44.48492141
44.59904024
45.54486597
46.41334805
45.70646391
45.75988006
45.28865133
45.37212485
46.25198056
45.41957442
46.15360245
46.03237277
45.80732454
45.85221422
46.44261321
40.27615608
41.85321916
41.69821813
43.86694834
43.73281042
42.55782623
50.65476246
50.09250545
50.03115031
50.31319678
50.30653822
51.16369682
50.60730655
50.7318861
50.74775353
50.45118989
50.3573759
50.48286254
43.00130553
44.12902678
43.99533534
45.91685307
45.79447147
45.00545045
41.54255417
41.38951782
39.68507382
46.59008455
43.80747698
42.97178906
43.17444828
41.46514364
41.73173449
42.31089784
47.93622216
46.97583734
47.35054729
44.2166325
44.68950132
45.05247381
51.34877883
50.26674906
50.30497408
49.55510546
49.7150372
51.05354458
50.47931684
49.20262189
49.38830189
47.68965425
48.00616529
49.1238354
44.81778656
44.26806371
43.9337709
42.78283656
42.63775592
41.3364223
53.38756686
51.71168921
52.47381978
46.78906562
47.44912286
47.93426434
51.58176899
51.68197497
51.52468327
51.22422102
51.34544997
51.46556285
47.9027839
46.75683818
46.44869974
46.83972648
46.72807945
46.11949696
46.61477177
47.01813481
46.94017379
41.80722492
43.06091065
42.91576432
44.94148583
44.80561975
43.84292313
44.3089487
45.19446919
45.06612324
36.7412708
36.76997873
36.75858101
36.79688511
36.78170997
36.75599963
36.8425907
36.81067008
36.82260259
36.81683544
36.83140389
36.8120394
36.87393436
36.8502724
36.84039065
36.8856688
36.86546077
36.88434083
36.92673394
36.92457688
36.89643048
36.97263264
36.94797759
36.95289612
36.94922743
36.946066
36.96810357
37.02628902
37.0135059
36.99414975
37.04546689
37.03039359
37.04510166
37.01307262
37.01977691
37.03237508
37.08539336
37.06534437
37.05584987
37.07144831
37.09263477
37.04076278
37.05442181
36.65986209
36.67411028
36.65052742
36.73254683
36.70115382
36.69224491
36.73364098
36.715153
36.74151103
36.80955958
36.80551203
36.76786225
36.88034891
36.8422935
36.85029759
36.83688644
36.83832049
36.87320427
36.9750434
36.9562064
36.91807421
37.02842392
36.99276967
37.01526801
36.96203989
36.9751659
37.00779588
37.12417361
37.0912491
37.06110617
37.14162488
37.11788782
37.15421763
37.06417656
37.08821208
37.10943673
37.22216001
37.17727413
37.1608713
37.18942548
37.23594883
37.11872666
37.15049404
36.64822039
36.64690404
36.60072449
36.74281022
36.69409509
36.70016649
36.68922566
36.69051338
36.73525593
36.86612451
36.84592676
36.79356639
36.95365114
36.89933288
36.92454896
36.86242504
36.87872746
36.92844853
37.10418136
37.06318498
37.00834879
37.17014742
37.11722327
37.16431835
37.04319313
37.07688786
37.12449209
37.33614252
37.26880812
37.22083406
37.35342416
37.31310523
37.38805409
37.1979535
37.25067895
37.28596239
37.51410428
37.42056801
37.38810389
37.44646241
37.54179132
37.29369273
37.36055628
36.68365976
36.66987933
36.60711802
36.80353077
36.73522035
36.75429776
36.70789079
36.7196205
36.78278537
36.98502459
36.9482404
36.87445751
37.10573628
37.02505068
37.06808081
36.95420345
36.98908084
37.06055364
37.34009088
37.27219927
37.18865165
37.44341695
37.35684218
37.43791508
37.2197621
37.28302085
37.3590798
37.74572162
37.61833443
37.53098234
37.7845919
37.70323699
37.85255832
37.47563511
37.58143132
37.65107498
38.13276243
37.94211445
37.85974922
38.00087418
38.21273377
37.670287
37.80866496
36.76778639
36.74274206
36.65831621
36.92319543
36.83090274
36.86291936
36.77674012
36.80224484
36.88820565
37.17826167
37.12390427
37.02070943
37.34910368
37.23298074
37.29721573
37.11775596
37.17211075
37.27741438
37.71606326
37.60750117
37.47316211
37.90821489
37.75251542
37.88214538
37.52854802
37.6337569
37.76765535
38.49550176
38.26467374
38.07944546
38.66947677
38.45970303
38.75564475
38.01945563
38.22906118
38.39906198
39.61753101
39.14918937
38.89885359
39.3217143
40.06152978
38.50352184
38.85334011
36.89259908
36.85841133
36.7483321
37.09775824
36.97461645
37.01612452
36.89739258
36.93424728
37.04914867
37.43995042
37.37118469
37.22926133
37.69558753
37.52544786
37.60653636
37.37014085
37.44448384
37.59990559
38.23755162
38.09891207
37.88479346
38.62914105
38.3448412
38.51421995
38.02580666
38.17825022
38.42426669
39.74137286
39.38557689
38.9715085
40.46909578
39.86816894
40.36722135
39.06970696
39.47632545
39.96524391
40.88931261
40.73119213
41.04150625
37.05291282
37.01035959
36.87147549
37.31517683
37.15773108
37.20812993
37.06337041
37.10809248
37.25667143
37.74938303
37.67076534
37.48508616
38.10739326
37.87633294
37.96715627
37.69787592
37.78409785
38.00022693
38.82013066
38.6778881
38.37096539
39.48228039
39.04262032
39.20942155
38.69364987
38.86852101
39.27331683
37.23099997
37.18570854
37.01866063
37.55232663
37.36285372
37.41507512
37.25946733
37.31120046
37.49299362
38.05813921
37.98197212
37.75728687
38.51417858
38.23187424
38.31758914
38.05596033
38.14475111
38.41551312
39.33869746
39.21667161
38.83825306
40.21184347
39.66676895
39.8045792
39.36932427
39.52213832
40.04586292
37.41245057
37.36639834
37.17439407
37.78587676
37.56935509
37.62119181
37.46678728
37.51856765
37.72891441
38.34624012
38.27540705
38.01962225
38.87977074
38.55945773
38.63745189
38.40028678
38.48129827
38.79306663
39.77825891
39.67382178
39.24665381
40.78933948
40.17945865
40.29541382
39.93511525
40.05999863
40.6561919
48.18980266
47.56253752
47.60027464
47.47252274
47.51789325
48.16037514
37.59115158
37.54354102
37.33036917
38.00643183
37.76792822
37.81985892
37.67021466
37.72262667
37.95619334
38.61071052
38.54376925
38.26323831
39.20530397
38.85488825
38.92735413
38.71101299
38.78668194
39.12938608
40.16707483
40.072153
39.60615763
41.28541793
40.62286277
40.72868397
40.40693709
40.51654278
41.16701213
47.85021068
47.58664825
47.54961123
47.6461528
47.61497682
47.90381118
37.86478924
37.91621954
38.16845521
38.99396787
39.06270095
39.4321778
40.83056711
40.93469302
41.64124274
46.70675493
46.83032706
46.76674983
46.94633151
46.886008
46.79151098
48.04592677
47.6931813
47.66843494
47.72525952
47.70867954
48.08723202
47.03387092
47.05667136
46.99893017
47.16238221
47.10646178
47.11078157
42.798368
42.51275617
43.10613374
41.50589023
41.94641362
42.22958824
41.36160776
41.59898194
41.20535713
40.70597518
40.79818256
40.44334504
41.63694141
41.23852734
41.04898926
41.39693787
41.78755174
43.98485234
44.11976027
45.03809533
43.57871768
43.46424764
42.78987078
44.59212046
43.69292239
43.84481391
44.91531597
45.01541663
45.96107864
43.46424494
44.1862246
44.09059066
44.37111961
44.27936823
43.55442674
43.09351569
43.79221961
43.68609757
43.9938249
43.89366634
43.18991827
45.65753832
44.70723454
44.81407132
48.24350396
47.6941844
47.71246284
47.63751067
47.6666127
48.24172315
45.58807626
45.65076027
46.39539079
44.14577686
44.87662695
44.79898382
45.02561262
44.95229865
44.23049174
43.81280997
44.54851314
44.46094196
44.71764041
44.63442614
43.90016504
46.3003062
45.448594
45.52196333
47.60588632
47.43869723
47.39380558
47.51665532
47.475462
47.67076199
46.3880568
46.26815615
45.55728413
44.46640956
45.16298187
45.09556431
45.2866836
45.22695297
44.51502745
46.4421507
45.89434276
45.93149214
46.34926832
46.58332739
46.52211534
46.70724044
46.63876057
46.4394893
42.17608455
41.99066505
40.52547799
43.03580363
43.24973632
43.79574398
42.41016164
43.60300044
43.46534269
52.86072162
51.93324061
52.14659896
51.55416547
51.73827142
52.53255883
55.09720523
53.96462655
54.02234555
53.73058897
53.86418201
55.07094271
50.20451807
50.15033718
50.77357613
48.70789544
49.45293789
49.4569064
49.42684749
49.44277882
48.74028336
48.54254129
49.42076366
49.37135375
49.4572834
49.44701203
48.57396375
51.07433776
50.28672004
50.25106432
52.36125493
52.32542839
52.17902256
52.59837689
52.45499438
52.54328689
49.87720505
50.49302832
50.33559108
50.8085458
50.65075332
50.07481824
50.84025757
50.85543784
50.97946057
54.85673372
54.00817932
53.9543998
54.04291838
54.03276793
54.95342806
53.07468772
52.86082505
52.72387467
53.10810377
52.98025574
53.24809934
48.1883014
47.73775083
47.73299977
47.7300602
47.73595167
48.21242558
50.10368755
50.23049753
50.35364061
49.10071827
49.86211406
49.70276617
50.17823925
50.02080843
49.29433236
44.39612157
44.25929144
43.15507704
44.86786956
45.67854665
45.55529876
47.33106429
47.26172733
47.20844306
47.35394054
47.30461721
47.4011803
43.56866661
42.69101676
42.85415662
46.45693412
42.52304493
42.75648792
43.56042382
42.66297799
42.01003616
42.27551338
46.13825998
46.5766332
47.45089567
45.37319164
45.83034447
45.42943523
46.54058552
46.19069885
45.66415099
45.00788009
44.52495352
44.35171233
45.66619801
45.17875311
45.66801603
50.11000502
50.20648764
51.36451589
48.19568716
49.12487009
49.01542978
49.30503269
49.21920602
48.29354536
47.7622317
48.65241369
48.51104642
48.90302434
48.77799133
47.87628595
51.20021319
49.86075253
49.99627694
48.78665768
49.00671782
50.25660998
47.20746958
48.03288112
47.83369909
48.36794736
48.20211697
47.35646513
46.44140706
47.13779889
46.84462195
47.62896681
47.38726154
46.65006518
49.4481051
48.28868179
48.55235179
42.51418577
43.03153096
42.84007754
42.73188628
43.0081352
45.07981961
44.71058305
45.23809657
43.55714226
43.93034376
44.31646982
43.48262682
43.71767771
43.26906706
41.17157583
42.49398588
42.32686887
53.93735242
52.72030813
52.9115927
52.33754067
52.53994884
53.70680987
54.72129332
53.41966968
53.58547652
53.08111275
53.26104533
54.55740802
50.02285263
50.95798831
52.37089186
50.66134224
49.8935958
49.46296115
48.81942787
48.24752095
49.14346984
51.56920955
51.74031917
51.59119101
52.04029836
51.88558121
51.78571627
51.10197293
51.2248971
51.13388035
50.6794658
51.12353399
50.96615693
51.4369291
51.28050159
50.88959793
54.36350626
53.73476109
53.63831767
53.89315086