/*--------------------------------*- C++ -*----------------------------------*\
| =========                 |                                                 |
| \\      /  F ield         | OpenFOAM: The Open Source CFD Toolbox           |
|  \\    /   O peration     | Version:  v2012                                 |
|   \\  /    A nd           | Website:  www.openfoam.com                      |
|    \\/     M anipulation  |                                                 |
\*---------------------------------------------------------------------------*/
FoamFile
{
    version     2.0;
    format      ascii;
    class       volScalarField;
    location    "2.1";
    object      nut;
}
// * * * * * * * * * * * * * * * * * * * * * * * * * * * * * * * * * * * * * //

dimensions      [0 2 -1 0 0 0 0];


internalField   nonuniform List<scalar> 
3019
(
1.155898558
1.155869053
1.155837479
1.155808272
1.156029339
1.156022389
1.156030116
1.156054089
1.156104257
1.15619691
1.15633969
1.156487406
1.155169588
1.155084936
1.15499569
1.15492405
1.155119749
1.155117889
1.155175842
1.15538758
1.155630058
1.156068658
1.156745864
1.15761957
1.15441243
1.154263994
1.154113962
1.15400489
1.154216386
1.154257078
1.15441261
1.154799505
1.15541536
1.156494549
1.133998132
0.9244943009
1.15363138
1.153431603
1.153237204
1.153122406
1.153335515
1.153469952
1.153816341
1.154548433
1.155860958
1.071586604
0.7932558411
0.6497373551
1.152834926
1.152572984
1.152339857
1.152230822
1.15251252
1.152802917
1.153536966
1.154780583
1.135208649
0.7653570721
0.5276404724
0.3912820639
1.152032348
1.151728276
1.151478387
1.151412406
1.151770384
1.152303903
1.153579348
1.155734818
0.9006864556
0.5638027478
0.3476577432
0.2176713129
1.151222804
1.150879447
1.150626441
1.150619201
1.151138323
1.152008629
1.154056315
1.157296059
0.7488018805
0.4468625062
0.2447727873
0.1097574043
1.150449042
1.150081426
1.149847883
1.149944686
1.150667444
1.151960283
1.154982416
1.081771023
0.6791087874
0.4110721793
0.2280120378
0.09261597736
1.149719912
1.14933172
1.149135161
1.149408868
1.150315079
1.152180656
1.156249661
1.022107593
0.6682584257
0.4406814412
0.3001807529
0.2192174803
1.149080941
1.148688486
1.148551369
1.14902132
1.15009471
1.152662665
1.15772701
1.001397663
0.6896195177
0.4993892212
0.4067834639
0.4272153262
1.148523466
1.148133117
1.148078943
1.14877952
1.150090713
1.153375422
1.159308377
0.9985644176
0.7224420652
0.5570021155
0.4932643869
0.5477052371
1.148103497
1.147724614
1.147757519
1.148686295
1.150278025
1.154258983
1.160938464
1.011614364
0.7582375686
0.5993086707
0.526809891
0.4786212518
0.1935423067
0.4075901239
0.556086639
0.486225597
0.08975777731
0.3803885707
0.3925541016
0.2254318914
0.4760806032
0.5433762998
0.4121060431
0.4823803242
0.2136380182
0.2448855302
0.5227369393
0.5718519709
0.5584869214
0.5221682356
0.1338316342
0.1770148923
0.5660609065
0.4655928101
0.07651736626
0.1025106611
0.07333542738
0.1826178695
0.03468388346
0.06625918735
0.2492706121
0.2817336107
0.3325392771
0.2171356334
0.1977995919
0.2151047745
0.2209284554
0.1801630564
0.2091157175
0.5045489566
0.161126396
0.1337261953
0.1956707285
0.1634194329
0.1040045197
0.132035196
0.5136051059
0.105052598
0.07849018874
0.13217272
0.1065011474
0.07470227898
0.4634657886
0.05189905499
0.07738672062
0.05347167492
0.2759057261
0.2021122826
0.1080844813
0.117913738
0.0731122544
0.04092834375
0.3050524612
0.2860817276
0.2014169481
0.1795661985
0.08147343469
0.132824878
0.04195723895
0.01373950009
0.02398071594
0.04191158642
0.03375014884
0.09114038808
0.2636598825
0.2496489043
0.05170286663
0.04230355913
0.1095540011
0.06809804438
0.06268352012
0.04008610086
0.06753415854
0.1240617372
0.04226710104
0.02504195193
0.01572472653
0.05639525879
0.02793062581
0.04684161894
0.02665777662
0.06512956311
0.2125970413
0.03061611077
0.2117456948
0.2406750105
0.03455769316
0.03899701309
0.03105907849
0.03402546148
0.2357384598
0.1476343456
0.1458648109
0.1807363428
0.1787247231
0.09512411955
0.09322388382
0.1187016244
0.1169675307
0.2449358238
0.07008145079
0.0692090049
0.01713971369
0.01364958097
0.1491246421
0.3368218148
0.3230059658
0.3553030265
0.3414370543
0.1526278774
0.2819436194
0.2681003821
0.09248353386
0.1924557015
0.3737357091
0.3598782961
0.05920797274
0.06123708287
0.1388936329
0.1180856266
0.3001954978
0.2864651493
0.3184323765
0.3047707627
0.1199960716
0.1008746674
0.03590460881
0.03663607504
0.02076607002
0.02157639937
0.08303235572
0.1266175453
0.0549271202
0.05879235408
0.03694636807
0.03763575789
0.1108561071
0.07420836733
0.02013092394
0.02062074336
0.0197001183
0.06274786257
0.03862164659
0.04042031055
0.01610876332
0.01753407115
0.04606711925
0.04509106314
0.0707608636
0.08680097715
0.1084811493
0.0649657438
0.08123390897
0.0718488744
0.06163746497
0.1490461458
0.1357425933
0.1193165298
0.1530381279
0.06154895119
0.0411136758
0.04764359141
0.05947359883
0.03537516333
0.03981019103
0.02873745378
0.09761157735
0.08481047206
0.1047427234
0.100325347
0.02989502192
0.07569398171
0.07326993022
0.08117338377
0.07657161751
0.03618372131
0.1238154094
0.1185429076
0.1324851162
0.1257073189
0.03681713847
0.03224328222
0.1106054553
0.1062843825
0.11687264
0.1121221327
0.03260955746
0.04253850071
0.04174249256
0.04477055775
0.0428121225
0.04029372326
0.03922252391
0.0414813431
0.04056841988
0.06961207434
0.06750805571
0.07251965538
0.07035009388
0.06173542036
0.04754110954
0.06662615908
0.06441205123
0.03493227045
0.03554506528
0.09944965112
0.0206902556
0.020490851
0.02133364282
0.02087537412
0.01985466696
0.08545724683
0.02217467905
0.0328520401
0.03981522219
0.05300827598
0.1246954596
0.03641734082
0.02342481396
0.03908323627
0.03610919981
0.02209509746
0.0215680202
0.02300137578
0.02231544468
0.1123373704
0.03787249262
0.03877801186
0.01952646377
0.0200215536
0.07323689994
0.06495493619
0.01864332753
0.0194590671
0.2271793241
0.4102561829
0.3966404464
0.4284821483
0.4147159994
0.2316006069
0.3920777791
0.3783140399
0.1964408728
0.1550368992
0.06717770457
0.07115925374
0.07436441643
0.08563546821
0.1703557602
0.04063308366
0.04940898789
0.03770856973
0.04326485686
0.06909325066
0.09926442664
0.09756603959
0.04173283871
0.06895043533
0.06498038941
0.09641807673
0.09421400998
0.06587248925
0.03595460248
0.04315201848
0.03740745343
0.02853439992
0.02930472125
0.02405270332
0.04852334626
0.04697077938
0.05389039754
0.02298572288
0.03337759376
0.03170864149
0.05242940363
0.05202958288
0.03035345631
0.02796432829
0.02754021254
0.03065854162
0.02993611152
0.03513345865
0.05910691972
0.05842483291
0.06318229019
0.06232382796
0.0381894291
0.03140740055
0.05376482349
0.05320741073
0.05772579259
0.05703928246
0.03353501845
0.06442346823
0.06643291973
0.1531343758
0.1405522425
0.06184554773
0.06378768604
0.09299834767
0.09644378916
0.1870797975
0.02591978399
0.025779224
0.02729667063
0.02707617893
0.01971773398
0.02550297793
0.02540254197
0.17246169
0.0879945787
0.09171515371
0.03606536566
0.05519611173
0.05472023752
0.02101458908
0.03467338107
0.03443248194
0.03595667272
0.03502005074
0.02122262141
0.01998170567
0.01976851527
0.02031217577
0.03397068393
0.03375591042
0.03428654965
0.03411061959
0.02044204299
0.02086251948
0.02027792636
0.0304489903
0.02180952159
0.0156613971
0.04038697249
0.03084842269
0.01074489653
0.01200849759
0.01897985817
0.02142126343
0.01273898088
0.01565839854
0.0151095169
0.0474528305
0.04391547731
0.08603823096
0.07652157145
0.04378956293
0.06557319754
0.09317892255
0.08914164072
0.03659659587
0.03347356074
0.03203583402
0.02363107952
0.0304960164
0.04612955748
0.04671152846
0.04024498044
0.04772130881
0.04793003443
0.03022490039
0.02986072208
0.05096090857
0.05095267113
0.02867556636
0.02826913406
0.02947098259
0.02903471436
0.06036876555
0.05970968109
0.03556142134
0.03748411663
0.06165989776
0.0610185166
0.05507938588
0.05447936324
0.03187532853
0.03302372471
0.05634107135
0.05570609091
0.04225998217
0.02463277556
0.02490232568
0.02421760737
0.02441978071
0.0420075146
0.04363302731
0.02583193937
0.02630333866
0.0251635352
0.02547231675
0.04314157973
0.03990306531
0.02300955356
0.02324998895
0.02264590314
0.02287622497
0.03966960368
0.04119381125
0.023830607
0.02401806294
0.02341077226
0.02364570115
0.04091691152
0.02636135137
0.02618002882
0.06891940946
0.04561035758
0.04594382846
0.04488052059
0.04516905154
0.06814678554
0.02681171743
0.02660678944
0.02428003597
0.02553357208
0.05958934535
0.04104536279
0.04073040747
0.0271873306
0.02858170266
0.05298805183
0.06612426753
0.04415096073
0.04435463328
0.04340551546
0.04335158254
0.06481076192
0.02507050406
0.02512071695
0.0348606592
0.0525923466
0.05228208424
0.05401312641
0.05364954723
0.03544657532
0.02064973681
0.02041487387
0.02121526762
0.02094383624
0.0209864575
0.01654001285
0.02327732473
0.04289024616
0.03824510475
0.0501012869
0.04832200342
0.03290689529
0.02545242826
0.01770291012
0.02276911287
0.02417619937
0.0383976921
0.02230091467
0.02258586284
0.02164220447
0.02235752934
0.03846751077
0.02193476131
0.0217104455
0.02274375716
0.0225026934
0.01974349336
0.03319504479
0.03284740678
0.03360664839
0.03333419113
0.01982489945
0.0191844537
0.03216585094
0.03038652337
0.03272217547
0.03216248604
0.01917475208
1.154920591
1.155267122
1.15555631
1.155420386
1.1560448
1.155941421
1.156300854
1.157279954
1.15656196
1.157660371
1.042394445
1.157375487
1.006011631
1.154570164
1.155321312
1.155224055
1.155663905
1.15708307
1.156176078
1.156548337
0.932273825
1.157698174
0.8733343528
0.7437632831
0.964689867
0.7105789579
1.154669151
1.156216787
1.155448347
1.156943513
0.9157475273
1.155082863
0.8320499243
0.6355144667
0.8492718831
0.585695444
0.473672536
0.6751107221
0.4469425204
1.155416276
1.062521822
1.15661342
0.9545596199
0.6786149557
0.8460584238
0.6048672524
0.4308985933
0.5759323606
0.3856563433
0.2804234874
0.4180673462
0.2548302369
1.156885824
0.8783616232
1.009096935
0.776879119
0.5336086899
0.6340503066
0.4683695077
0.3076631783
0.3924372854
0.2632561688
0.1575721176
0.2431837588
0.1313192065
1.101558617
0.7785040387
0.8472740874
0.6896574231
0.4724637578
0.5102762636
0.412960499
0.2639482545
0.2890059539
0.2237358801
0.106157651
0.1387868771
0.09739285106
0.0589712801
0.09289216148
1.033652649
0.743136394
0.7652131495
0.6664418123
0.4792887785
0.4684233596
0.4282325026
0.3075998516
0.2670592114
0.2378319876
0.2063277409
0.1940319692
0.09756399893
0.08419299567
0.07607473363
1.004829825
0.7493523896
0.7417941058
0.6826872962
0.5241791557
0.489349084
0.4838071881
0.3961896604
0.3273844621
0.3262562756
0.3063227472
0.2754500259
0.2467889755
0.2471426995
0.2139472505
0.9966185405
0.7722661921
0.7538533616
0.7138078851
0.5772318668
0.5377387184
0.5438211401
0.4811855216
0.4194122478
0.4321349067
0.4296689961
0.4004821499
0.4446663671
0.4570216059
0.4436658632
1.005686345
0.8030267228
0.779407051
0.7491722945
0.6218612114
0.5894353227
0.5901620596
0.5290704018
0.4973347553
0.5067923918
0.5121560837
0.4984465545
0.5392516307
0.3992342738
0.4129315874
0.8114677307
0.6313900193
0.5346387589
0.5197854374
0.5322200434
0.5196827175
0.4661919561
0.3245880639
0.3388324925
0.1841394671
0.1584068124
0.1704142547
0.4341558476
0.425708465
0.383755301
0.417429889
0.4309496541
0.5487142867
0.3434980376
0.3575373083
0.4961073907
0.04008101136
0.05309940002
0.09292392988
0.07874160631
0.04984201737
0.3701334614
0.3382711621
0.3533134448
0.327054609
0.3188887298
0.3744274132
0.2470108127
0.300476717
0.3018580384
0.4796948844
0.4564314813
0.4554963147
0.4875652851
0.4508753441
0.4981844645
0.389375896
0.4418788047
0.468325313
0.4529369485
0.4660286147
0.4622420516
0.2182776953
0.2803570716
0.2756720127
0.3078281613
0.3032939097
0.2404523646
0.5240790548
0.5204891383
0.516317782
0.5826053772
0.5228340875
0.5368055458
0.4993922744
0.5315114085
0.5820934232
0.3807633916
0.3946589528
0.5307955788
0.1395105451
0.2100446126
0.2061677232
0.2357981117
0.2308411861
0.1717895907
0.5224900555
0.5266492425
0.5371031198
0.3058190008
0.319950429
0.4627687756
0.08401549121
0.1470780768
0.149120762
0.1699854206
0.1658920732
0.09815261311
0.08447706678
0.08190051231
0.07116526564
0.172370916
0.1711373113
0.1580777023
0.0364135092
0.02997228163
0.02840485058
0.06041964896
0.05276652558
0.05930242263
0.262244262
0.4410633969
0.4330934238
0.372608159
0.4334281389
0.2668266651
0.3547987358
0.4121333024
0.3522002207
0.2109809514
0.1287598879
0.1343307094
0.1025233065
0.1064517605
0.2043511133
0.2516224977
0.1610907764
0.1691401201
0.1361668063
0.1417611782
0.2260914346
0.1845461978
0.2443447638
0.2396936922
0.2710364959
0.2664497478
0.2047824461
0.5269805228
0.4353883204
0.4486540916
0.1590089773
0.1286083387
0.1307231025
0.1070084888
0.1084728978
0.1355146335
0.1891841314
0.09765097386
0.1012705643
0.1331561677
0.1357415143
0.1657558386
0.1091799114
0.1778853343
0.1738009232
0.2022490181
0.1983122251
0.1268386861
0.5046055265
0.3622093848
0.3761410051
0.103657643
0.07852380024
0.07948003134
0.05464720857
0.05539920541
0.07972770194
0.1304165181
0.1041439903
0.105679204
0.08052588025
0.0815198338
0.1079327832
0.1485143136
0.3011529832
0.0509368576
0.03206979415
0.03240455104
0.07629899438
0.05344911932
0.05404013288
0.03326771858
0.03538467046
0.05602470887
0.24716131
0.2231561596
0.2544452546
0.1464742936
0.1904469577
0.229145163
0.1515109806
0.1796195567
0.1324886834
0.1026347572
0.09146852504
0.105787344
0.05263930051
0.0758329217
0.09116775269
0.05874375707
0.06881419504
0.04789238489
0.3179748611
0.2823802251
0.2754641681
0.3009999
0.2852910106
0.3496678722
0.2058760367
0.2621498917
0.2990203138
0.1278539775
0.1430964308
0.186026031
0.1001785254
0.128999996
0.1137816696
0.1501804456
0.1363671239
0.1177810528
0.01393663595
0.01144214857
0.0112810039
0.02187490944
0.01950386427
0.02133180732
0.03069036467
0.0197982373
0.03754544633
0.02347992271
0.0345212085
0.01675814749
0.02113530347
0.0362521638
0.1547379298
0.1496300564
0.08623418099
0.2588408104
0.2031057187
0.2081078516
0.1941733034
0.1994549496
0.2543816177
0.1065917561
0.08927633146
0.09645944626
0.06109908571
0.06822695512
0.07240145841
0.1399943777
0.1501299409
0.1163915142
0.03695487706
0.03312542645
0.03875045158
0.01945279737
0.02651650664
0.03259638518
0.0230842728
0.02460189908
0.01802804491
0.05018163577
0.05153728972
0.05576161982
0.03087778263
0.03370231187
0.03082360433
0.05269555713
0.04620270547
0.04083520756
0.1165994025
0.1263550149
0.2090868092
0.2064196225
0.1078501864
0.1135441248
0.151949839
0.1586984825
0.2457826115
0.230680132
0.1436992919
0.1498150765
0.1186661766
0.1202010617
0.1494566604
0.1440707787
0.1156568144
0.1171582953
0.1503708474
0.152262713
0.1828740871
0.1766051379
0.1466253583
0.1484881867
0.07232795125
0.07335284665
0.09662726267
0.09093373629
0.06801974273
0.07033946044
0.09025243649
0.09271423955
0.1205089508
0.1153600362
0.08694895344
0.08838087022
0.1897705015
0.0499631932
0.05069079434
0.07122799127
0.06790229831
0.0485292501
0.04957398284
0.01458646564
0.01433968249
0.2178409835
0.2139155774
0.1415800304
0.3321977386
0.2730150639
0.2775083229
0.2642253711
0.2685929756
0.3275954876
0.3506424193
0.2910842452
0.2957967201
0.2820820561
0.2866996161
0.3460583698
0.1695334281
0.2272255623
0.2220810978
0.2772998242
0.2207210423
0.2251857344
0.2119808742
0.2166240559
0.2728222091
0.09676286897
0.1622697228
0.1579270287
0.2530757332
0.2485420838
0.1882623363
0.3691100712
0.3093890449
0.3140394733
0.3002062572
0.3048770276
0.3645208409
0.05999074909
0.08310773264
0.08195101892
0.08517527717
0.08406238102
0.06053794136
0.1371366261
0.1098332493
0.1112968739
0.1862950553
0.1820229904
0.1113548676
0.2956204101
0.2381632292
0.242586742
0.2294031211
0.23381698
0.2910717259
0.3138685876
0.2555638248
0.2598831176
0.2469315202
0.2512453042
0.3093141816
0.1251421486
0.1943594513
0.190375114
0.07656962471
0.07746079321
0.1022233027
0.05639294405
0.05584733162
0.03642787601
0.0811674848
0.05639817006
0.05803445993
0.1006728607
0.1026447007
0.1287323091
0.05729990794
0.07865227824
0.07655516734
0.08107098466
0.079718092
0.05763417761
0.03716139396
0.05758468257
0.05701358877
0.05877947481
0.05819188144
0.03742957682
0.1093977676
0.08256174133
0.08358512174
0.05231356581
0.05290433863
0.07528113803
0.05957028294
0.03962584786
0.04454778401
0.0138244165
0.01215076065
0.01465042115
0.00911610015
0.009932253508
0.01934940241
0.01737810427
0.01580405633
0.09449314611
0.1009124449
0.06978969152
0.09277024522
0.09578751608
0.08715778976
0.1166417796
0.1052698348
0.09997124916
0.07123661083
0.0673368954
0.06212717495
0.07965830521
0.07310671246
0.0764960794
0.07395696314
0.07625806261
0.08490887492
0.1446311838
0.1100152698
0.1159956776
0.09885017778
0.1035432508
0.1398891671
0.1330222502
0.1256147283
0.1285609961
0.1197870536
0.1234292538
0.1504156514
0.04321229248
0.04707395746
0.04530361441
0.05082215398
0.04855717213
0.04538859505
0.05759096725
0.05416300066
0.05619874192
0.09459688552
0.06877544154
0.07131637423
0.05487067421
0.06111522891
0.08989295867
0.1034966916
0.0766369233
0.07733989781
0.07447449546
0.07501197187
0.1017292689
0.07485975457
0.04854304619
0.04893617349
0.04774627561
0.04816912753
0.07406094703
0.07897537652
0.05034132933
0.05170634448
0.04930399324
0.04973128396
0.07759907249
0.1220001241
0.08905748398
0.09020506143
0.08683234559
0.08794874781
0.1202514233
0.1299068949
0.09408894593
0.09595974591
0.0913982067
0.09265877833
0.127707482
0.1091544947
0.08049227584
0.08147648698
0.07851569562
0.07941916441
0.1076476454
0.1152461578
0.08462267244
0.08571720907
0.08250444433
0.08353930412
0.113656622
0.07179473888
0.04705627368
0.04739097777
0.04633876621
0.0466810281
0.07106217524
0.09812689393
0.07464155644
0.07547070273
0.06075989598
0.06457215736
0.08827551381
0.04229018277
0.06645610303
0.06358456364
0.07412929426
0.07046500632
0.04718411636
0.1221134221
0.09559194713
0.09835363894
0.08464678605
0.08574040359
0.1138262977
0.03808487356
0.06004270696
0.05939782704
0.0618674306
0.06081969104
0.0383612097
0.07214398005
0.05116280342
0.05179413838
0.0461738163
0.04818218653
0.06685018472
0.2895927463
0.2849885345
0.2227653698
0.4057550921
0.3465376553
0.3511626128
0.3372359518
0.341893782
0.4011993913
0.4238096794
0.3649992364
0.3695863402
0.3557844569
0.3604067117
0.4192703604
0.2360339241
0.2987496851
0.2941779116
0.3874930835
0.3279100739
0.3325727739
0.3186259855
0.3232799045
0.3829171026
0.2006229199
0.2619663188
0.25744612
0.1249988779
0.1267154412
0.1569592149
0.06806137846
0.0967252282
0.09533616066
0.1004998925
0.09837597468
0.06925030342
0.07883822147
0.1065219521
0.1032899123
0.1121549906
0.1095772585
0.08296496725
0.1680757535
0.1382940081
0.1406481816
0.03744317102
0.03555074641
0.03352123469
0.04088313119
0.03862162254
0.04052321478
0.03392570082
0.03655012816
0.03958775959
0.06507449539
0.09171852691
0.0905825969
0.09407392265
0.09287466983
0.06573565391
0.1512867566
0.1217622512
0.123349482
0.1127129282
0.1141948502
0.1423478904
0.06251480609
0.08730369129
0.08619890404
0.08947882748
0.0883707144
0.06314316343
0.0940796018
0.1224011541
0.1208563622
0.1256135575
0.1240188577
0.09530040579
0.1849187513
0.1541761156
0.1561119153
0.1427780415
0.1447244562
0.1746015818
0.0891927075
0.1160239064
0.114332567
0.119240073
0.1177275497
0.09070661419
1.155566432
1.155576545
1.156024457
1.155597427
1.155628502
1.156042439
1.155674127
1.155740876
1.156074735
1.155834586
1.155961255
1.15614442
1.156125795
1.156330121
1.156262466
1.1565697
1.156842422
1.156419709
1.157153198
1.157406308
1.156557379
1.154657354
1.154660693
1.155110931
1.154679128
1.154717064
1.155139745
1.154772594
1.154845181
1.155348929
1.155214978
1.155279542
1.155435468
1.155529454
1.155652572
1.155721886
1.156092676
1.156295978
1.156221571
1.156950724
1.157223085
1.156954271
1.158030427
1.100899065
1.157758514
1.15376973
1.153794344
1.154222641
1.1538516
1.153948466
1.154320107
1.154073714
1.154397654
1.154703725
1.154698873
1.15484212
1.154917646
1.155449662
1.15571842
1.155637905
1.156769789
1.157246175
1.156850845
1.046625924
0.9857627281
1.069861389
0.8466840198
0.8219556539
0.8919551596
1.152925044
1.152989183
1.153379878
1.153115002
1.153317561
1.153613087
1.153636627
1.154310693
1.154342509
1.154558878
1.154856961
1.154798487
1.156135278
1.156753827
1.156340679
0.9858013865
0.9052063803
0.9886698548
0.7184948377
0.6726821212
0.7452985986
0.5827234489
0.557828427
0.6147196279
1.152153294
1.152283736
1.15262164
1.152525505
1.152904316
1.153083424
1.153507548
1.154751033
1.154359547
1.154943448
1.155533709
1.155282485
1.073905918
0.9678975519
1.035855761
0.7061035133
0.6367625494
0.6940561828
0.4750525058
0.433808756
0.4855632951
0.3415766981
0.3198244646
0.3702598995
1.151474163
1.151702389
1.151976016
1.15211943
1.152768408
1.152804261
1.153756867
1.155854827
1.154966726
1.156070795
1.157037636
1.156627084
0.8534553548
0.7575052435
0.8016487181
0.5271375383
0.4646568305
0.4997175961
0.315098813
0.2760068969
0.3087437286
0.1849388679
0.1636207625
0.1973253124
1.150906354
1.15127788
1.151475907
1.151935392
1.152952159
1.152827199
1.15446121
1.157405257
1.156201693
1.150595497
1.039330876
1.070285997
0.7244790036
0.6393289598
0.6606111939
0.4304598369
0.3735229072
0.388917267
0.2317994703
0.1921300544
0.2060692422
1.15045091
1.151049765
1.151158059
1.152011427
1.153472502
1.153190681
1.155562766
1.138059793
1.157825522
1.064882596
0.9534958077
0.9697188011
0.6721579132
0.5972713427
0.6016405411
0.4136987922
0.3631452548
0.358736719
1.150150605
1.151034951
1.151043906
1.152352706
1.154291421
1.153882991
1.156919972
1.102010109
1.126655624
1.016230671
0.9147696478
0.9172032351
0.6716957392
0.6075925914
0.6024113296
0.4541906485
0.414054666
0.3979494934
1.150057728
1.151236562
1.151141676
1.152940208
1.155348691
1.154849468
1.158466365
1.084434429
1.098371388
0.9981536049
0.9091402006
0.9086319923
0.6972344276
0.6422191893
0.6326141698
0.5148071485
0.4841795182
0.4667549349
1.150176332
1.151649852
1.15144752
1.153741108
1.156564508
1.156036781
1.16004627
1.084110912
1.088907186
0.9991737246
0.9208306259
0.9167345541
0.7311491561
0.6818254393
0.6720486081
0.5690769059
0.5430434063
0.5304372703
1.151924223
1.157378893
1.096751067
1.016340022
0.9452382327
0.9377604908
0.7678655787
0.7205052229
0.7107266305
0.607878669
0.5798122599
0.5722683652
0.07183941772
0.07167452834
0.08882602136
0.06634469279
0.05485697269
0.3719658954
0.361274018
0.3803092202
0.2318488283
0.2527156379
0.2502196907
0.5258694269
0.5089337483
0.5225933051
0.4007397052
0.4186114622
0.4308731184
0.5767188344
0.5634334795
0.5594083831
0.5372467025
0.5470493293
0.5702471322
0.1356615885
0.1628872825
0.1609951327
0.5572651567
0.5513081105
0.5592141176
0.07880918072
0.1032171349
0.1013948794
0.1284120732
0.1266714441
0.1010398815
0.2536190212
0.3168695945
0.3123442348
0.3448929827
0.3400592632
0.2763086885
0.1661561635
0.1682823083
0.2000243618
0.1934680282
0.1620490176
0.1640872279
0.1055755127
0.1319503784
0.1301573222
0.1591715358
0.1572502212
0.1302776101
0.09963717442
0.09802246155
0.07331994848
0.4180713395
0.1809483549
0.19305465
0.2114272046
0.1277633803
0.1316609781
0.112173412
0.06539548628
0.07312882316
0.08014430781
0.0479482184
0.04933491253
0.04270782726
0.291169309
0.3546490201
0.3493991238
0.1998575199
0.2189862785
0.2282951517
0.1610309463
0.1636829278
0.1806350854
0.08841268006
0.09752177827
0.09080841381
0.0275129466
0.02760968035
0.03386357506
0.1148443836
0.113061069
0.08961213536
0.02278093581
0.02551837512
0.02812961471
0.01716062051
0.01813420475
0.0159089497
0.1879713852
0.1932917329
0.2127827814
0.2103142033
0.1805054933
0.1838454872
0.01137288389
0.01142359502
0.01368849356
0.1721810441
0.1712106891
0.1462711245
0.1570981024
0.172619792
0.172792207
0.09395315489
0.1182114503
0.1164132546
0.1441601651
0.1420783393
0.1159569836
0.121755819
0.1480091066
0.1460678333
1.155017823
1.155139367
1.155059226
1.155339615
1.155226627
1.155129796
1.155488898
1.155346681
1.155437487
1.155604743
1.155611427
1.155459047
1.155967934
1.155769382
1.155806428
1.155820579
1.155774684
1.155936216
1.156598513
1.156416894
1.156168685
1.156954578
1.156661759
1.156906674
1.156378162
1.15648692
1.156731486
1.149820667
1.157607095
1.157243437
1.116065578
1.15790601
1.101828379
1.157152073
1.157483139
1.157786873
0.9633887017
1.034234646
1.089760175
1.01683988
0.9442942374
1.147628786
1.090661942
1.154779095
1.154794634
1.154620889
1.155245851
1.155002749
1.155029141
1.155057579
1.155013751
1.15521535
1.156060689
1.155854046
1.155529124
1.15666284
1.156230698
1.156522629
1.155888851
1.156025554
1.156373901
1.076951588
1.157685045
1.157187881
1.019982974
1.091167518
1.000990886
1.157272506
1.157707223
1.108829208
0.8220127569
0.9024669123
0.9582744561
0.8113527641
0.8552182268
0.7794165922
1.017459409
0.9348746805
0.8856894241
0.677901959
0.7496918426
0.7748910612
0.731569868
0.6523545728
0.8809331641
0.8114826547
1.155096094
1.15495783
1.154600378
1.155893337
1.155384682
1.155608914
1.155097721
1.155212784
1.155633478
1.106754025
1.157170237
1.156508741
0.9922954884
1.085982806
1.00909241
1.156943261
1.157366359
1.073977187
0.757979485
0.8282614691
0.9054836336
0.7008064267
0.7602954644
0.6927293833
0.9145617992
0.8342029792
0.7720384359
0.5425439571
0.6049215473
0.6492759013
0.5354339392
0.5671433958
0.5054616961
0.7059086823
0.634334465
0.603674504
0.4299956428
0.4960253028
0.5115821049
0.4740573531
0.4205834376
0.582166632
0.5236265658
1.156209974
1.155842863
1.155154295
1.119406288
1.156659866
1.157083632
1.155885572
1.15624023
1.157034798
0.8523916366
0.9078030418
1.013235674
0.7265051924
0.8124393173
0.7609391685
0.9373776507
0.8696593411
0.7826990926
0.5387245563
0.5853184008
0.6514879257
0.4738709791
0.5265386578
0.481398813
0.6311676937
0.5758407633
0.5221924923
0.3452879312
0.3874257981
0.4278251036
0.3215759191
0.352010347
0.3104931367
0.4492021522
0.3981278776
0.3675654949
0.2342940868
0.2753291846
0.2960921555
0.2593047796
0.21862925
0.3598488686
0.30507339
1.105535193
1.13992889
1.156480902
0.9167999307
1.02808526
0.9906040508
1.119530522
1.072773452
0.960374303
0.6872280804
0.7196726647
0.812952567
0.5611344522
0.6362433591
0.6066204036
0.7136909939
0.6719223111
0.59458241
0.4090473144
0.4346059179
0.49483794
0.3311732826
0.3799396424
0.3557188055
0.4430803323
0.4085048761
0.3594977648
0.2253225174
0.2483031769
0.2870619215
0.1824974481
0.2132942524
0.1900902633
0.2737878345
0.241607796
0.2109024083
0.1089323633
0.1347348602
0.1548152626
0.1201878142
0.09290976542
0.1822152629
0.1480661384
0.988775768
1.011899275
1.123998159
0.7963274092
0.899177945
0.878222333
0.9560352976
0.9252565656
0.819125052
0.6097043263
0.6219775656
0.7046069288
0.4804912746
0.5478081111
0.5377440611
0.5817492232
0.5632308211
0.4933815943
0.3586993583
0.3636021757
0.4194137294
0.2667724017
0.3127380682
0.3090364796
0.3363338027
0.3219907644
0.2753649924
0.1830971132
0.1837397533
0.2243741592
0.1125850214
0.1483608184
0.1458017542
0.171275521
0.1581813169
0.122346011
0.06716568958
0.07883782389
0.07258839411
0.9264442275
0.9397949529
1.048963588
0.7476173115
0.8379301573
0.8292803662
0.8618641481
0.848722314
0.755405727
0.5977612728
0.5952471361
0.6672971129
0.4717163947
0.530141652
0.5357697469
0.5316781679
0.5295962126
0.4686662183
0.3837239158
0.3716783798
0.4191358425
0.2902539757
0.3287721235
0.3435172712
0.3108170029
0.3174645705
0.276249747
0.9096687737
0.9122370484
1.010852482
0.7458537257
0.8238894288
0.8245072651
0.8241957707
0.8237341001
0.7432869613
0.6233623568
0.6147098389
0.6765709887
0.5110646028
0.5595206967
0.5705584202
0.5432913447
0.550284489
0.4994151171
0.4489847682
0.431268988
0.4685661601
0.3725793154
0.3992947093
0.4198704765
0.3601328151
0.3790358251
0.3493117433
0.913382813
0.9108431575
0.9977883597
0.7655393228
0.8335673988
0.8383963189
0.8263259621
0.8294717331
0.7593284977
0.6620917012
0.6521067036
0.7053672044
0.5644472493
0.6052143579
0.6166321424
0.5820709427
0.5936403028
0.5512220678
0.5162973657
0.5008123079
0.5297057176
0.4624826293
0.4783074051
0.495244356
0.4401674828
0.4598084836
0.4417179793
0.4544153624
0.4443213859
0.4594508771
0.4302810103
0.4442041977
0.4430578532
0.9313105417
0.9255697676
1.003166267
0.7946942425
0.8562889547
0.8635208795
0.8438153745
0.8497996847
0.7868675789
0.7012585403
0.6915372988
0.7400233859
0.6116874831
0.6488117035
0.6588764469
0.6277684821
0.6384550361
0.6008843
0.5638161748
0.5541588444
0.5801272478
0.5211697992
0.5342442804
0.5431941465
0.5103176971
0.523325729
0.5107110317
0.4038336226
0.4590334002
0.4544330179
0.4678757877
0.4633499571
0.4083641902
0.8711201146
0.8792730609
0.8206566756
0.6685047412
0.6781680572
0.640659959
0.5503790204
0.5566965219
0.5392024544
0.3294466523
0.3851080369
0.3798461374
0.3945882252
0.3898347445
0.3340945124
0.4219582885
0.4765506018
0.4721239031
0.485094321
0.4806964842
0.4264381821
0.348225726
0.4040042571
0.3990917055
0.4133577397
0.4085901994
0.352874734
0.04344971942
0.05782288214
0.05777700307
0.06607682642
0.06114390914
0.04717036183
0.09071016386
0.07366830043
0.07828166375
0.06886373851
0.05991161727
0.0703349549
0.04198604385
0.05063734631
0.05903430071
0.04462938714
0.03615509166
0.3191662866
0.3398627959
0.3503065359
0.3718151347
0.3566041321
0.3544155342
0.2759062081
0.2750754664
0.2967080165
0.4748476607
0.4914139872
0.5069924108
0.472091453
0.4758215602
0.464706496
0.5043182492
0.4960971125
0.4775479946
0.4094079558
0.4093450841
0.3947922326
0.4430314136
0.4305253712
0.4206349845
0.4495573526
0.4379332815
0.4553472751
0.4571867732
0.4822075771
0.5040338625
0.4609239039
0.4786331501
0.4616284891
0.5646854612
0.5636035752
0.5805221646
0.5372031463
0.5427540474
0.5476564576
0.5404750632
0.5482759702
0.5248639122
0.5185168754
0.5260649549
0.5219097549
0.5387313126
0.5394388072
0.5146975202
0.5781337933
0.5567219962
0.5607305773
0.3854176306
0.4410158778
0.4363195641
0.4500684369
0.4454265641
0.3900270254
0.1665026234
0.1646844356
0.1375529773
0.5377494254
0.5360814501
0.544879649
0.5211435723
0.5262369077
0.5245484913
0.5507112444
0.5433997522
0.537298162
0.3104515075
0.3674071763
0.3633053577
0.3757067255
0.3704521766