/*--------------------------------*- C++ -*----------------------------------*\
| =========                 |                                                 |
| \\      /  F ield         | OpenFOAM: The Open Source CFD Toolbox           |
|  \\    /   O peration     | Version:  v2012                                 |
|   \\  /    A nd           | Website:  www.openfoam.com                      |
|    \\/     M anipulation  |                                                 |
\*---------------------------------------------------------------------------*/
FoamFile
{
    version     2.0;
    format      ascii;
    class       pointVectorField;
    location    "1.73";
    object      pointDisplacement;
}
// * * * * * * * * * * * * * * * * * * * * * * * * * * * * * * * * * * * * * //

dimensions      [0 1 0 0 0 0 0];


internalField   nonuniform List<vector> 
6506
(
(0 0 0)
(0 0 0)
(0 0 0)
(0 0 0)
(0 0 0)
(0 0 0)
(0 0 0)
(0 0 0)
(0 0 0)
(0 0 0)
(0 0 0)
(0 0 0)
(0 0 0)
(0 0 0)
(0 0 0)
(0 0 0)
(0 0 0)
(0 0 0)
(0 0 0)
(0 0 0)
(0 0 0)
(0 0 0)
(0 0 0)
(0 0 0)
(0 0 0)
(0 0 0)
(0 0 0)
(0 0 0)
(0 0 0)
(0 0 0)
(0 0 0)
(0 0 0)
(0 0 0)
(0 0 0)
(0 0 0)
(0 0 0)
(0 0 0)
(0 0 0)
(0 0 0)
(0 0 0)
(0 0 0)
(0 0 0)
(0 0 0)
(0 0 0)
(0 0 0)
(0 0 0)
(0 0 0)
(0 0 0)
(0 0 0)
(0 0 0)
(0 0 0)
(0 0 0)
(0 0 0)
(0 0 0)
(0 0 0)
(0 0 0)
(0 0 0)
(0 0 0)
(0 0 0)
(0 0 0)
(0 0 0)
(0 0 0)
(0 0 0)
(0 0 0)
(0 0 0)
(0 0 0)
(0 0 0)
(0 0 0)
(0 0 0)
(0 0 0)
(0 0 0)
(0 0 0)
(0 0 0)
(0 0 0)
(0 0 0)
(0 0 0)
(0 0 0)
(0 0 0)
(-3.041985706e-07 1.15323311e-05 2.775557562e-17)
(0 0 0)
(0 0 0)
(0 0 0)
(0 0 0)
(0 0 0)
(0 0 0)
(0 0 0)
(0 0 0)
(0 0 0)
(0 0 0)
(0 0 0)
(0 0 0)
(0 0 0)
(0 0 0)
(0 0 0)
(0 0 0)
(0 0 0)
(0 0 0)
(0 0 0)
(0 0 0)
(0 0 0)
(0 0 0)
(0 0 0)
(0 0 0)
(0 0 0)
(0 0 0)
(0 0 0)
(0 0 0)
(-1.895163336e-05 0.0001806869941 4.996003611e-16)
(-0.0001090756417 0.001133365328 3.080868893e-15)
(-1.426168809e-06 1.493547675e-05 4.163336342e-17)
(-0.0002071542423 0.002969691793 8.007483565e-15)
(-0.0005146376827 0.007326803814 1.992850329e-14)
(-0.0006109733235 0.009924078386 2.699229729e-14)
(-0.0002847707712 0.004655739815 1.257327575e-14)
(-0.0003472242537 0.009810458046 2.646494135e-14)
(-0.0006095239457 0.01714533242 4.662936703e-14)
(-0.0005094559374 0.0189452491 5.151434834e-14)
(-0.000299322898 0.01116454963 3.011479954e-14)
(0 0 0)
(0 0 0)
(0 0 0)
(0 0 0)
(0 0 0)
(0 0 0)
(0 0 0)
(0 0 0)
(0 0 0)
(0 0 0)
(0 0 0)
(0 0 0)
(0 0 0)
(0 0 0)
(0 0 0)
(0 0 0)
(0 0 0)
(0 0 0)
(0 0 0)
(0 0 0)
(0 0 0)
(0 0 0)
(-5.292927563e-05 0.0003674221545 1.026956298e-15)
(-0.0002891550777 0.002140192108 6.022959909e-15)
(-6.849048063e-05 0.0005110602605 1.415534356e-15)
(-0.0009775755718 0.009107839734 2.536859611e-14)
(-0.001563779725 0.01446056773 4.06341627e-14)
(-0.001995610181 0.0201317006 5.65658631e-14)
(-0.001344298192 0.01366010841 3.806677196e-14)
(-0.002092623716 0.02922000521 8.142098107e-14)
(-0.00276953436 0.03842528791 1.079553114e-13)
(-0.002787786346 0.04420365894 1.241784453e-13)
(-0.002151645092 0.03432276771 9.563183578e-14)
(-0.001688791868 0.04696844799 1.30867539e-13)
(-0.002100730866 0.05819161127 1.634942182e-13)
(-0.001665083327 0.06135900054 1.723898801e-13)
(-0.001350312389 0.04988607152 1.389999227e-13)
(0 0 0)
(0 0 0)
(0 0 0)
(0 0 0)
(0 0 0)
(0 0 0)
(0 0 0)
(0 0 0)
(0 0 0)
(0 0 0)
(0 0 0)
(0 0 0)
(0 0 0)
(0 0 0)
(0 0 0)
(0 0 0)
(0 0 0)
(0 0 0)
(0 0 0)
(-2.277181821e-05 0.0001283521682 3.747002708e-16)
(0 0 0)
(-0.0009694335281 0.006563169171 1.891542478e-14)
(-0.001440950173 0.009658312058 2.807476474e-14)
(-0.002255351245 0.01614009157 4.692080058e-14)
(-0.001655868418 0.01196081898 3.447242491e-14)
(-0.003787591618 0.034236643 9.864331574e-14)
(-0.004597304691 0.04122972399 1.198208199e-13)
(-0.005143151405 0.05035163744 1.462996391e-13)
(-0.00432600685 0.0426813541 1.229710778e-13)
(-0.004932707454 0.06705297747 1.931510507e-13)
(-0.005624826294 0.07589111411 2.204902927e-13)
(-0.005380594494 0.08303527088 2.412375855e-13)
(-0.004765245699 0.07408535944 2.134126209e-13)
(-0.003298399827 0.08993671917 2.590982984e-13)
(-0.003643284852 0.09864672929 2.866318294e-13)
(-0.002818024419 0.1018335352 2.959160694e-13)
(-0.00256436302 0.09328970972 2.687849943e-13)
(0 0 0)
(0 0 0)
(0 0 0)
(0 0 0)
(0 0 0)
(0 0 0)
(0 0 0)
(0 0 0)
(0 0 0)
(0 0 0)
(0 0 0)
(0 0 0)
(0 0 0)
(0 0 0)
(0 0 0)
(0 0 0)
(0 0 0)
(-0.0001052505445 0.0005489794609 1.637578961e-15)
(-0.0002393588304 0.001237249601 3.73312492e-15)
(-0.0008502430186 0.004624232606 1.393329896e-14)
(-0.0005715970458 0.003136790554 9.381384558e-15)
(-0.003361600229 0.02188813892 6.535050279e-14)
(-0.003977086391 0.02566648852 7.731315588e-14)
(-0.005128904924 0.03530156443 1.063177324e-13)
(-0.004446302357 0.03087686177 9.217626662e-14)
(-0.007032885999 0.06108749686 1.822708651e-13)
(-0.007767127747 0.0667991009 2.011030231e-13)
(-0.008193442869 0.0768671256 2.313982339e-13)
(-0.007489531476 0.07102391865 2.118721865e-13)
(-0.00743042195 0.0973916185 2.904204655e-13)
(-0.007887817157 0.1021062016 3.072125887e-13)
(-0.007294285718 0.1080850894 3.251843239e-13)
(-0.006896157383 0.1033999359 3.083366895e-13)
(-0.004384986578 0.1154989126 3.44474449e-13)
(-0.004527124641 0.1176469069 3.539946114e-13)
(-0.003424207251 0.1187586256 3.573669138e-13)
(-0.003340603392 0.1173568427 3.500255641e-13)
(0 0 0)
(0 0 0)
(0 0 0)
(0 0 0)
(0 0 0)
(0 0 0)
(0 0 0)
(0 0 0)
(0 0 0)
(0 0 0)
(0 0 0)
(0 0 0)
(0 0 0)
(0 0 0)
(-1.001768481e-05 4.498027197e-05 1.387778781e-16)
(-2.733548612e-07 1.239163427e-06 1.387778781e-17)
(0 0 0)
(-0.0007514842825 0.003778714459 1.169897512e-14)
(-0.000948504945 0.004725055866 1.476596623e-14)
(-0.001968041836 0.01031590424 3.223810108e-14)
(-0.00167905457 0.008883703841 2.750577544e-14)
(-0.005456924575 0.0342570468 1.060262989e-13)
(-0.005939393076 0.03693497545 1.1536605e-13)
(-0.007217166375 0.04785758402 1.494637747e-13)
(-0.00683875612 0.04578698433 1.416922135e-13)
(-0.009469638034 0.07915510129 2.448596881e-13)
(-0.009857261703 0.08158160378 2.546990396e-13)
(-0.01012387565 0.09131900405 2.850913949e-13)
(-0.009774526483 0.0890597757 2.75474088e-13)
(-0.008842609928 0.1102963607 3.411576577e-13)
(-0.009019426136 0.1112432439 3.472916399e-13)
(-0.008122717619 0.1141250913 3.56312202e-13)
(-0.008018645415 0.1140629766 3.527872439e-13)
(-0.004702457401 0.1161848677 0)
(-0.004761632921 0.1150793756 0)
(-0.00418696299 0.1150821275 0)
(-0.003581103202 0.1151094822 0)
(-0.003546723298 0.1156566607 0)
(-0.003534834965 0.1161908403 0)
(0 0 0)
(0 0 0)
(0 0 0)
(0 0 0)
(0 0 0)
(0 0 0)
(0 0 0)
(0 0 0)
(0 0 0)
(0 0 0)
(0 0 0)
(0 0 0)
(0 0 0)
(0 0 0)
(-9.026488352e-05 0.0003898719982 1.276756478e-15)
(-5.143932482e-05 0.0002243663569 7.355227538e-16)
(-4.208185071e-05 0.0001853339906 5.967448757e-16)
(-0.001362841091 0.006595433465 2.120525977e-14)
(-0.001413374911 0.006773437036 2.199629368e-14)
(-0.002617179623 0.01319600158 4.284073096e-14)
(-0.002548173315 0.01297479119 4.171663015e-14)
(-0.006858941441 0.04141239246 1.330879851e-13)
(-0.006967177589 0.04164854866 1.351280199e-13)
(-0.008297407951 0.05287288146 1.715155795e-13)
(-0.008182685912 0.05266597279 1.692118667e-13)
(-0.01063487195 0.08532413873 2.740585536e-13)
(-0.01073911673 0.08527849618 2.765704332e-13)
(-0.01088524702 0.09414343775 3.053113318e-13)
(-0.01079320732 0.09432903521 3.029798634e-13)
(-0.009279430778 0.1106500453 3.554240235e-13)
(-0.009316147336 0.1098512413 3.562983242e-13)
(-0.008258755896 0.1107554753 0)
(-0.00824377471 0.111835433 3.592681708e-13)
(-0.00484063565 0.1118071797 0)
(-0.00485063335 0.1112590639 0)
(-0.004283777812 0.1112553034 0)
(-0.004273840572 0.1118025564 0)
(0 0 0)
(0 0 0)
(0 0 0)
(0 0 0)
(0 0 0)
(0 0 0)
(0 0 0)
(0 0 0)
(0 0 0)
(0 0 0)
(0 0 0)
(0 0 0)
(0 0 0)
(0 0 0)
(-0.0001481744417 0.0006149156601 2.109423747e-15)
(-0.0001338313849 0.0005610500328 1.887379142e-15)
(-0.0001174082962 0.0004971676352 1.665334537e-15)
(-0.001679238834 0.007811850496 2.611799665e-14)
(-0.001736353736 0.007997001975 2.700617507e-14)
(-0.00302804215 0.01467162642 4.954370247e-14)
(-0.002956680375 0.01447061384 4.839184609e-14)
(-0.007398135869 0.04291041774 1.433991814e-13)
(-0.007486048 0.04297831975 1.45064516e-13)
(-0.008802253236 0.05384972371 1.817296313e-13)
(-0.008716877767 0.05388063305 1.800226634e-13)
(-0.01103771306 0.08493059882 2.836897384e-13)
(-0.01109901372 0.08449659101 2.850913949e-13)
(-0.01117712973 0.0926216617 3.125000259e-13)
(-0.01112696047 0.0932068838 3.113342917e-13)
(-0.009389853132 0.1070639123 3.57686103e-13)
(-0.009407392789 0.1060610212 3.579081476e-13)
(-0.008309353967 0.1064538685 0)
(-0.008297409013 0.1075266021 0)
(-0.004899792006 0.1074852293 0)
(-0.004906092332 0.1069484936 0)
(-0.004340692039 0.1069416877 0)
(-0.004334317125 0.1074784225 0)
(0 0 0)
(0 0 0)
(0 0 0)
(0 0 0)
(0 0 0)
(0 0 0)
(0 0 0)
(0 0 0)
(0 0 0)
(0 0 0)
(0 0 0)
(0 0 0)
(0 0 0)
(0 0 0)
(-0.000218575493 0.0008701886418 3.108624469e-15)
(-0.0001970609588 0.000792837061 2.803313137e-15)
(-0.000177905282 0.0007232811832 2.525757381e-15)
(-0.001878492609 0.008390551631 2.922662112e-14)
(-0.001936067596 0.008558027287 3.011479954e-14)
(-0.003275011107 0.01522774332 5.358213873e-14)
(-0.003204279886 0.01505554227 5.243028234e-14)
(-0.007701517732 0.04285358231 1.491445856e-13)
(-0.00778668082 0.04286871754 1.507682867e-13)
(-0.009094035795 0.05333186678 1.875166689e-13)
(-0.009011680309 0.05341904875 1.858790899e-13)
(-0.01125109008 0.08291219947 2.884359418e-13)
(-0.0113094081 0.08242536052 2.897404539e-13)
(-0.01134998139 0.08999499766 3.163441731e-13)
(-0.01130258717 0.09062720825 3.152755834e-13)
(-0.009454026152 0.1029958662 3.583799923e-13)
(-0.009469477558 0.1019736749 3.58532648e-13)
(-0.008355380651 0.1021719388 0)
(-0.008344042773 0.1032418452 0)
(-0.00494863729 0.1032005993 0)
(-0.004954588438 0.1026659481 0)
(-0.004389957335 0.102659276 0)
(-0.004386931727 0.1029266259 0)
(-0.004383908901 0.103193752 0)
(0 0 0)
(0 0 0)
(0 0 0)
(0 0 0)
(0 0 0)
(0 0 0)
(0 0 0)
(0 0 0)
(0 0 0)
(0 0 0)
(0 0 0)
(0 0 0)
(0 0 0)
(0 0 0)
(-0.0003130128336 0.001193440453 4.440892099e-15)
(-0.0002874310824 0.00110800708 4.066191828e-15)
(-0.0002626879864 0.00102368776 3.719247132e-15)
(-0.002116070006 0.009059212083 3.291811268e-14)
(-0.002179481374 0.009229492996 3.390343561e-14)
(-0.003570822779 0.01590371504 5.841160888e-14)
(-0.003494258609 0.01573394987 5.716260798e-14)
(-0.008047142751 0.04287900315 1.556810236e-13)
(-0.0081369144 0.04287727559 1.573741137e-13)
(-0.009431358184 0.05292134915 1.942057626e-13)
(-0.009345117267 0.05302924848 1.924987947e-13)
(-0.01148540048 0.08091861142 2.936678678e-13)
(-0.01154511394 0.08040594423 2.949862576e-13)
(-0.01154007987 0.08739566984 3.206324095e-13)
(-0.01149216833 0.08805352431 3.195499421e-13)
(-0.009513201493 0.09887618085 3.589212261e-13)
(-0.009526862444 0.09783431803 3.590183706e-13)
(-0.0083996194 0.09788981279 0)
(-0.008388746181 0.09896034661 0)
(-0.004995427291 0.09891927592 0)
(-0.005001061409 0.09838412336 0)
(-0.004437400253 0.09837743854 0)
(-0.004434521037 0.09864501404 0)
(-0.004431617578 0.09891253951 0)
(0 0 0)
(0 0 0)
(0 0 0)
(0 0 0)
(0 0 0)
(0 0 0)
(0 0 0)
(0 0 0)
(0 0 0)
(0 0 0)
(0 0 0)
(0 0 0)
(0 0 0)
(0 0 0)
(-0.0003956020417 0.001441647727 5.606626274e-15)
(-0.0004091182458 0.001508143176 5.787037516e-15)
(-0.0003734682294 0.001392473165 5.301314943e-15)
(-0.002386748177 0.009774555411 3.71092046e-14)
(-0.002467788106 0.009991625136 3.838596108e-14)
(-0.003914881619 0.01666785595 6.400435737e-14)
(-0.003818802377 0.0164463487 6.245004514e-14)
(-0.008423214985 0.04289412415 1.627725732e-13)
(-0.008532226267 0.04294476722 1.648264858e-13)
(-0.009809120543 0.05255464269 2.016720124e-13)
(-0.009705327811 0.05261415028 1.996180998e-13)
(-0.01173190315 0.07886466551 2.99149594e-13)
(-0.01180108558 0.07837648694 3.006761506e-13)
(-0.01174293992 0.0847685773 3.252120795e-13)
(-0.01168863357 0.08541229158 3.239769564e-13)
(-0.009565079262 0.09468136071 3.592404152e-13)
(-0.009576957877 0.09362015585 3.592681708e-13)
(-0.008442276048 0.0936089353 0)
(-0.008431629683 0.09467922328 0)
(-0.005038877684 0.0946385575 0)
(-0.005044038797 0.09410344879 0)
(-0.004481445181 0.09409690157 0)
(-0.004478813663 0.09436455475 0)
(-0.004476159756 0.09463200873 0)
(-0.004327807389 0.108016001 0)
(-0.004893357167 0.1080227839 0)
(-0.004380886075 0.1034608782 0)
(-0.00437785954 0.1037283026 0)
(-0.004942685833 0.1037352755 0)
(-0.004428715046 0.09917999039 0)
(-0.004425810968 0.09944756559 0)
(-0.004989744066 0.09945437813 0)
(-0.004473506466 0.09489941298 0)
(-0.004470827697 0.09516686664 0)
(-0.005033668701 0.09517351641 0)
(-0.004262379037 0.1123504086 0)
(-0.00482932064 0.1123552468 0)
(-0.0006312972747 0.1161760258 0)
(-0.0006395434416 0.1156445859 0)
(-0.008332629071 0.1043118501 0)
(-0.009438955524 0.1040219734 3.582412145e-13)
(-0.005507886608 0.1037421287 0)
(-0.005513763787 0.1032074267 0)
(-0.005465490649 0.1074920389 0)
(-0.005471740632 0.1069553523 0)
(-0.008377747723 0.1000309535 0)
(-0.009499181896 0.09991441008 3.588102038e-13)
(-0.005554224448 0.09946117261 0)
(-0.005559833395 0.0989260446 0)
(-0.005519615794 0.1026727493 0)
(-0.004972336116 0.1010605009 0)
(-0.004408053707 0.1010537835 0)
(-0.004405023771 0.1013214814 0)
(-0.004402019934 0.1015890803 0)
(-0.00496645121 0.1015958244 0)
(-0.002716056466 0.1010336667 0)
(-0.002714901849 0.1011675326 0)
(-0.002714185121 0.101301379 0)
(-0.00299605812 0.1013047095 0)
(-0.002998864294 0.1010370088 0)
(-0.002691585949 0.1031734322 0)
(-0.002973701982 0.1031768155 0)
(-0.002976947334 0.1029097916 0)
(-0.002695028964 0.1029065103 0)
(-0.002693244064 0.1030400699 0)
(-0.008421010035 0.09574936239 0)
(-0.009552062256 0.09573135855 3.591571485e-13)
(-0.005597479032 0.09518020309 0)
(-0.005602613737 0.09464521839 0)
(-0.005565368063 0.09839089081 0)
(-0.005017668814 0.0967783885 0)
(-0.004454407312 0.09677155944 0)
(-0.004451627237 0.09703916105 0)
(-0.004448821373 0.09730683693 0)
(-0.005012208424 0.09731356808 0)
(-0.002768127203 0.09675161317 0)
(-0.002765824868 0.0968853902 0)
(-0.002907628295 0.0968871284 0)
(-0.002909515736 0.09675332135 0)
(-0.002745330951 0.09889271749 0)
(-0.003025434979 0.09889592654 0)
(-0.003028611925 0.09862840447 0)
(-0.002748731969 0.09862517334 0)
(-0.002747242328 0.09875898534 0)
(-0.005607725434 0.0941100842 0)
(-0.005059147035 0.09249829208 0)
(-0.004777825364 0.09249501816 0)
(-0.004775317231 0.09276274748 0)
(-0.005056664073 0.09276599685 0)
(-0.002800499549 0.09247150301 0)
(-0.0028017939 0.09260559828 0)
(-0.002949669388 0.0926077601 0)
(-0.002949668827 0.09247380525 0)
(-0.002784588604 0.09461202154 0)
(-0.002930295143 0.09461403206 0)
(-0.002932627018 0.0944804792 0)
(-0.002787874579 0.09447853027 0)
(-0.002611188113 0.1096118365 0)
(-0.002614788795 0.1093422334 0)
(-0.00233188153 0.1093390889 0)
(-0.002330078038 0.1094739439 0)
(-0.002328442658 0.1096084777 0)
(-0.002638739662 0.1074578633 0)
(-0.002354748366 0.1074543075 0)
(-0.002353195345 0.1075884171 0)
(-0.002352383562 0.1077229089 0)
(-0.002635674044 0.1077264311 0)
(-0.002570951921 0.1117984367 0)
(-0.002577681972 0.1115225381 0)
(-0.002292908032 0.1115249305 0)
(-0.002286179925 0.1118002727 0)
(-0.002324598638 0.1098790525 0)
(-0.002607356635 0.1098822025 0)
(-0.00268980414 0.1033067433 0)
(-0.002688192968 0.10344033 0)
(-0.00297045663 0.1034438394 0)
(-0.002666492351 0.1053137123 0)
(-0.002948210275 0.1053171155 0)
(-0.0029514615 0.1050496192 0)
(-0.002669817854 0.1050462418 0)
(-0.004924560271 0.1053411158 0)
(-0.004930644078 0.1048057948 0)
(-0.00436561734 0.1047989438 0)
(-0.004359459255 0.105334239 0)
(-0.002388948681 0.1050429735 0)
(-0.002387327255 0.1051765849 0)
(-0.00238531456 0.1053102661 0)
(-0.002549804898 0.1031716943 0)
(-0.002547946015 0.1033050044 0)
(-0.002642049576 0.1071896466 0)
(-0.002358101488 0.1071862157 0)
(-0.002355981911 0.1073202934 0)
(-0.002383514138 0.1054440742 0)
(-0.00238150022 0.1055780538 0)
(-0.002663039135 0.1055814547 0)
(-0.00274349509 0.09902637598 0)
(-0.002741535534 0.09915998321 0)
(-0.003022110712 0.09916329758 0)
(-0.003001897012 0.1007690871 0)
(-0.002718742345 0.1007656412 0)
(-0.002716924223 0.1008996729 0)
(-0.004978198633 0.1005249782 0)
(-0.004414017219 0.1005181377 0)
(-0.004411036081 0.1007859109 0)
(-0.002573118117 0.1008978103 0)
(-0.002572498675 0.1010318321 0)
(-0.002606089299 0.09889113547 0)
(-0.002603846002 0.09902476404 0)
(-0.002551666576 0.1030383594 0)
(-0.002572412527 0.101165761 0)
(-0.002781588547 0.09474551636 0)
(-0.00292808789 0.09474756161 0)
(-0.002911352834 0.0966195634 0)
(-0.002770426743 0.09661786098 0)
(-0.005023049671 0.09624360579 0)
(-0.004459910317 0.09623695232 0)
(-0.004457185223 0.09650413188 0)
(-0.002628573282 0.09661614703 0)
(-0.002625429345 0.09674981412 0)
(-0.002635157652 0.09460976578 0)
(-0.002630781141 0.09474316889 0)
(-0.002608209521 0.09875740592 0)
(-0.002622286967 0.09688355584 0)
(-0.002951184258 0.09233991897 0)
(-0.00280236741 0.09233767085 0)
(-0.005061629069 0.09223066191 0)
(-0.004780307398 0.09222738799 0)
(-0.002650855147 0.09233521515 0)
(-0.002647876861 0.0924689589 0)
(-0.002639991323 0.09447639322 0)
(-0.002650475564 0.09260314499 0)
(-0.008285123536 0.108600724 0)
(-0.009369481355 0.1080368252 3.573669138e-13)
(-0.005459131016 0.1080295448 0)
(-0.005407478075 0.1118119949 0)
(-0.005417217512 0.1112646512 0)
(-0.004873498379 0.1096360278 0)
(-0.004307592737 0.1096298671 0)
(-0.004300219078 0.1101709311 0)
(-0.00486617395 0.1101771322 0)
(-0.002889994458 0.1098854182 0)
(-0.002893827958 0.1096150895 0)
(-0.002854326637 0.111800184 0)
(-0.002861248039 0.111523495 0)
(-0.004353246808 0.1058699066 0)
(-0.004918447893 0.1058767349 0)
(-0.002944931097 0.1055848601 0)
(-0.002921626431 0.1074612561 0)
(-0.002924936346 0.1071930394 0)
(-0.002918361914 0.1077298215 0)
(-0.002897403932 0.1093454736 0)
(-0.004880159639 0.1090982621 0)
(-0.004314407562 0.1090917502 0)
(-0.001499245148 0.1085209046 0)
(-0.001510336315 0.1083864411 0)
(-0.001385099694 0.1083850332 0)
(-0.00137277164 0.1085197797 0)
(-0.001428678812 0.1118107608 0)
(-0.001434939667 0.1116681997 0)
(-0.00129180501 0.1116701324 0)
(-0.001284547566 0.1118146492 0)
(-0.001456165058 0.1106886397 0)
(-0.001314003175 0.1106887322 0)
(-0.00131100746 0.1108262778 0)
(-0.001455233441 0.1108259697 0)
(-0.002462311309 0.1140324102 0)
(-0.002512091474 0.1134613873 0)
(-0.002222329852 0.1134657394 0)
(-0.001923543269 0.1134777699 0)
(-0.001898203944 0.1137608139 0)
(-0.001873535613 0.1140394899 0)
(-0.002276962429 0.1120794366 0)
(-0.002564669438 0.1120719373 0)
(-0.002811874535 0.09354261184 0)
(-0.002949591176 0.09354405056 0)
(-0.002951801521 0.09341027239 0)
(-0.002814954448 0.09340889421 0)
(-0.003925681555 0.09355501773 0)
(-0.003928335153 0.09328758862 0)
(-0.003648603444 0.09328443393 0)
(-0.003645850705 0.09355183695 0)
(-0.003936244986 0.09248540012 0)
(-0.003656612728 0.09248224667 0)
(-0.003653955729 0.09274994926 0)
(-0.003933638022 0.09275307847 0)
(-0.00146980631 0.1095990728 0)
(-0.00145142058 0.1094608386 0)
(-0.001275181793 0.1094257393 0)
(-0.001341049609 0.1095991852 0)
(-0.001359711634 0.1086535971 0)
(-0.001487350265 0.108654811 0)
(-0.002625760023 0.1085338166 0)
(-0.002343415886 0.1085305797 0)
(-0.002341424089 0.1086653801 0)
(-0.002339499394 0.1087997835 0)
(-0.002622113295 0.1088031232 0)
(-0.001629492131 0.1086565286 0)
(-0.001638786386 0.1085223909 0)
(-0.001610724712 0.1096005936 0)
(-0.001601580783 0.1094636406 0)
(-0.001455962222 0.1074391541 0)
(-0.001447715409 0.107565646 0)
(-0.001598170661 0.1075767172 0)
(-0.001594187414 0.1074422901 0)
(-0.001647323236 0.1083877713 0)
(-0.002629310083 0.108264285 0)
(-0.002347166069 0.1082607522 0)
(-0.00234537379 0.1083955054 0)
(-0.002594381436 0.1106985989 0)
(-0.002311446275 0.1106960981 0)
(-0.002305865222 0.1109719827 0)
(-0.002588785359 0.1109742918 0)
(-0.001598869996 0.1108270693 0)
(-0.001600012437 0.1106895827 0)
(-0.001574172693 0.1118038754 0)
(-0.001578223118 0.1116656994 0)
(-0.001478213214 0.1097359048 0)
(-0.00161581543 0.1097369467 0)
(-0.001599611161 0.1105524574 0)
(-0.001453873431 0.1105515555 0)
(-0.002599071706 0.11042516 0)
(-0.002316106512 0.1104224749 0)
(-0.001310841957 0.1105507892 0)
(-0.001347738194 0.1097358218 0)
(-0.00267846261 0.1042429434 0)
(-0.002536318876 0.1042411761 0)
(-0.002535267741 0.104374919 0)
(-0.002676974204 0.104376656 0)
(-0.001576458506 0.1053014279 0)
(-0.001701356997 0.1053028316 0)
(-0.001707601606 0.1051693771 0)
(-0.001583185448 0.1051679794 0)
(-0.002679802458 0.1041091793 0)
(-0.002537521981 0.1041074103 0)
(-0.002652601499 0.1063849546 0)
(-0.002369902743 0.1063814397 0)
(-0.002367783799 0.1065156666 0)
(-0.002365948904 0.1066498473 0)
(-0.002649066895 0.106653243 0)
(-0.001520742027 0.106370509 0)
(-0.00151355361 0.1065044739 0)
(-0.001642386285 0.1065060509 0)
(-0.001649216373 0.1063721063 0)
(-0.001598509201 0.1073084884 0)
(-0.001464751875 0.1073066016 0)
(-0.001569793102 0.1054349269 0)
(-0.001695108664 0.1054363855 0)
(-0.001655873364 0.106238284 0)
(-0.001527843747 0.106236717 0)
(-0.002656106913 0.1061170139 0)
(-0.002373785758 0.1061135286 0)
(-0.002371765927 0.1062473837 0)
(-0.00272993244 0.09996302098 0)
(-0.002587604414 0.09996127626 0)
(-0.002585248 0.1000950029 0)
(-0.002727782075 0.100096775 0)
(-0.002731730685 0.09982918795 0)
(-0.002589927258 0.09982744976 0)
(-0.002705453307 0.1021040795 0)
(-0.002565031306 0.1021024331 0)
(-0.002563122416 0.1022361653 0)
(-0.002703715659 0.1022378387 0)
(-0.002707216127 0.1019702958 0)
(-0.002566923411 0.101968651 0)
(-0.002784547642 0.09568251597 0)
(-0.002647106974 0.09568108068 0)
(-0.002646399264 0.09581500186 0)
(-0.002783554013 0.0958164336 0)
(-0.002784204288 0.09554853199 0)
(-0.002645071722 0.0955469762 0)
(-0.002751447347 0.09782197533 0)
(-0.002603874254 0.09781989187 0)
(-0.002604317367 0.09795385223 0)
(-0.002750749891 0.09795587178 0)
(-0.002752780664 0.09768813653 0)
(-0.002604973864 0.09768605016 0)
(-0.003938876195 0.09221777179 0)
(-0.003659343386 0.09221461958 0)
(-0.002675265833 0.09354126149 0)
(-0.002670364119 0.09367490673 0)
(-0.002808555324 0.09367637622 0)
(-0.002679816367 0.09340766161 0)
(-0.001351400818 0.1129498363 0)
(-0.001378678299 0.1126631062 0)
(-0.001079938376 0.1126743839 0)
(-0.001042972167 0.1129631792 0)
(-0.00127586761 0.1119595788 0)
(-0.001420472198 0.1119556194 0)
(-0.002895285774 0.0978238383 0)
(-0.002896750863 0.09769000113 0)
(-0.003880344087 0.09783551376 0)
(-0.003883299126 0.09756783973 0)
(-0.003602251252 0.09756454435 0)
(-0.003599246797 0.0978321929 0)
(-0.003892039004 0.09676489069 0)
(-0.003611214892 0.09676159809 0)
(-0.003608235608 0.09702922208 0)
(-0.003889134308 0.09703251561 0)
(-0.003868503395 0.09890586148 0)
(-0.003871481442 0.09863833694 0)
(-0.003590234978 0.09863501422 0)
(-0.003587207206 0.09890253815 0)
(-0.003596267204 0.09809984175 0)
(-0.003877414219 0.09810316323 0)
(-0.002893994723 0.09795767763 0)
(-0.003914609745 0.09462552421 0)
(-0.003917387965 0.09435807179 0)
(-0.003637134763 0.09435486088 0)
(-0.00363423254 0.0946222869 0)
(-0.003642969944 0.09381953676 0)
(-0.003922949969 0.0938227194 0)
(-0.002947231039 0.0936778766 0)
(-0.003011927574 0.09996632814 0)
(-0.003015331065 0.09969858509 0)
(-0.002733821058 0.0996952591 0)
(-0.003856437087 0.0999763556 0)
(-0.003859492503 0.09970860822 0)
(-0.003578022586 0.09970525786 0)
(-0.003574917444 0.09997300462 0)
(-0.003584156117 0.09916993745 0)
(-0.003865501723 0.09917328627 0)
(-0.002196136689 0.09888685906 0)
(-0.002190265635 0.09902026845 0)
(-0.00232723143 0.09902169784 0)
(-0.002331489528 0.09888821866 0)
(-0.002172658385 0.09942062104 0)
(-0.002314228105 0.09942235633 0)
(-0.002318565441 0.09928870407 0)
(-0.002178513581 0.09928708711 0)
(-0.002737687919 0.09942744721 0)
(-0.002739599913 0.09929366533 0)
(-0.002599242555 0.09929201971 0)
(-0.00259693307 0.09942577178 0)
(-0.002923431583 0.09568406867 0)
(-0.002924126862 0.09555014734 0)
(-0.003903446523 0.09569538304 0)
(-0.003906151701 0.09542780537 0)
(-0.003625725698 0.09542449285 0)
(-0.003622920761 0.09569209414 0)
(-0.003631356106 0.09488963865 0)
(-0.003911832762 0.09489287719 0)
(-0.003894916364 0.09649746436 0)
(-0.00361416684 0.09649417269 0)
(-0.003620016065 0.09595971907 0)
(-0.003900616724 0.09596298402 0)
(-0.002922165086 0.09581793318 0)
(-0.002777333507 0.09621754942 0)
(-0.002638086883 0.09621596734 0)
(-0.002634892885 0.09634926082 0)
(-0.002775024305 0.09635087876 0)
(-0.00222315866 0.09621147986 0)
(-0.002215229276 0.09634444094 0)
(-0.002354630047 0.09634602493 0)
(-0.00236098936 0.09621294487 0)
(-0.002192798048 0.09674418649 0)
(-0.002336273792 0.09674602007 0)
(-0.002342347469 0.09661251374 0)
(-0.002200236056 0.09661074684 0)
(-0.002204977123 0.09460342262 0)
(-0.002195859016 0.09473659272 0)
(-0.002326224469 0.09473828817 0)
(-0.002334447836 0.09460508209 0)
(-0.002169122622 0.09512820318 0)
(-0.002317918606 0.09513912939 0)
(-0.002314228454 0.09500512867 0)
(-0.002177726863 0.09500216334 0)
(-0.002778251778 0.0951466929 0)
(-0.002777918382 0.09501290797 0)
(-0.002626032564 0.09501049735 0)
(-0.00262792391 0.09514437625 0)
(-0.002750557634 0.098357535 0)
(-0.002610393894 0.09835591666 0)
(-0.002610835448 0.0984898024 0)
(-0.002750022402 0.09849138373 0)
(-0.002204034233 0.09835185897 0)
(-0.002208364292 0.09848599199 0)
(-0.002338976461 0.09848704399 0)
(-0.002334874829 0.09835293868 0)
(-0.002335413837 0.09875458613 0)
(-0.002201720576 0.09875334663 0)
(-0.00218535973 0.09687765099 0)
(-0.002330209442 0.09687957626 0)
(-0.002163009352 0.0972780938 0)
(-0.002312048404 0.09728027009 0)
(-0.002318080433 0.0971467135 0)
(-0.002170462587 0.09714462948 0)
(-0.002758944592 0.09728677134 0)
(-0.00276122486 0.09715296918 0)
(-0.002616017129 0.09715103945 0)
(-0.002612914531 0.09728478166 0)
(-0.002798218842 0.09407754033 0)
(-0.00265518565 0.09407571224 0)
(-0.002650090318 0.09420933021 0)
(-0.002794746102 0.09421125307 0)
(-0.002243115645 0.09407073811 0)
(-0.002233583275 0.09420402738 0)
(-0.002360714416 0.09420545882 0)
(-0.002369523597 0.09407213569 0)
(-0.002343110032 0.09447198093 0)
(-0.002214500192 0.09447048136 0)
(-0.002319015852 0.09300747802 0)
(-0.00242929908 0.09300618849 0)
(-0.002414454951 0.0928713031 0)
(-0.002328476529 0.09288495497 0)
(-0.002816770613 0.09300841989 0)
(-0.002812296043 0.09287430995 0)
(-0.002672601585 0.09287274717 0)
(-0.002681918142 0.09300721571 0)
(-0.001529865946 0.1079844713 0)
(-0.001417195597 0.107985557 0)
(-0.001406495862 0.1081177377 0)
(-0.001527752592 0.1081186485 0)
(-0.001514573298 0.1078486602 0)
(-0.001426936226 0.1078621174 0)
(-0.001448231569 0.1112461309 0)
(-0.001306199067 0.1112458172 0)
(-0.00130161041 0.1113874832 0)
(-0.001443998233 0.1113874184 0)
(-0.001014889796 0.1113902469 0)
(-0.001023920816 0.1112504811 0)
(-0.0009937860408 0.1118276236 0)
(-0.001003752588 0.1116792134 0)
(-0.00103237209 0.1111109444 0)
(-0.000929397496 0.1111271999 0)
(-0.001451647149 0.1111044155 0)
(-0.001308939307 0.1111048195 0)
(-0.001450951353 0.1090551786 0)
(-0.001318892134 0.1090533129 0)
(-0.001304083586 0.1091857657 0)
(-0.001441202102 0.1091891117 0)
(-0.001462912759 0.1089215217 0)
(-0.001332945415 0.1089198063 0)
(-0.001601921627 0.1090578265 0)
(-0.001610533414 0.1089237798 0)
(-0.002049742457 0.1090653588 0)
(-0.002052412381 0.1089306165 0)
(-0.001907248462 0.108928563 0)
(-0.001903486134 0.1090631674 0)
(-0.002061114635 0.1085272936 0)
(-0.001920026319 0.1085256389 0)
(-0.001915774201 0.1086602371 0)
(-0.002058203544 0.1086620329 0)
(-0.002044167864 0.1096053237 0)
(-0.002044958773 0.1094705109 0)
(-0.001899712635 0.1094686702 0)
(-0.001900460568 0.1096041139 0)
(-0.001900706828 0.1091981072 0)
(-0.002047507021 0.1092003551 0)
(-0.001595808855 0.1091922773 0)
(-0.001655951869 0.1079849696 0)
(-0.001640388529 0.1078491304 0)
(-0.002067449662 0.1079889669 0)
(-0.00206606918 0.1078541991 0)
(-0.001922190664 0.1078523606 0)
(-0.001926818198 0.1079873676 0)
(-0.002062025344 0.1074502453 0)
(-0.001908819946 0.1074477685 0)
(-0.001910695783 0.1075820948 0)
(-0.002062271438 0.1075844519 0)
(-0.002063845761 0.1083922289 0)
(-0.001923917905 0.1083906383 0)
(-0.001928270136 0.1081217881 0)
(-0.0020674431 0.1081232946 0)
(-0.00165838277 0.108119452 0)
(-0.001453908266 0.1101413537 0)
(-0.001602869423 0.1101437951 0)
(-0.001608991429 0.1100080017 0)
(-0.001464256438 0.1100062494 0)
(-0.002037041284 0.1101479151 0)
(-0.002039288608 0.1100117627 0)
(-0.001897056186 0.1100101286 0)
(-0.001894303628 0.110146317 0)
(-0.001900601936 0.1097393436 0)
(-0.002042950752 0.1097406162 0)
(-0.001304239015 0.1101382645 0)
(-0.001294799423 0.1102730916 0)
(-0.00144804071 0.1102768818 0)
(-0.001320761206 0.1100043833 0)
(-0.001604130491 0.1047677678 0)
(-0.001723941475 0.1047687601 0)
(-0.001722350616 0.104634313 0)
(-0.00161091092 0.1046348173 0)
(-0.002115013792 0.1047721801 0)
(-0.002112487177 0.104637796 0)
(-0.001976446575 0.1046363532 0)
(-0.001981185023 0.1047708395 0)
(-0.002093570084 0.1042350994 0)
(-0.001938034145 0.1042326683 0)
(-0.001949895678 0.1043670442 0)
(-0.002099551938 0.1043691784 0)
(-0.002107674404 0.1053070877 0)
(-0.00211043515 0.1051734407 0)
(-0.001975194501 0.1051720576 0)
(-0.00197142278 0.1053056174 0)
(-0.001981084589 0.1049049174 0)
(-0.002114739629 0.104906231 0)
(-0.001596999554 0.1049015096 0)
(-0.001719641446 0.1049026117 0)
(-0.002096960048 0.1036998444 0)
(-0.002100678617 0.1035661596 0)
(-0.00194676558 0.1035637984 0)
(-0.001941754471 0.1036974422 0)
(-0.002112556316 0.1031658352 0)
(-0.001962587408 0.1031636474 0)
(-0.001957194318 0.103296814 0)
(-0.002108510464 0.1032990435 0)
(-0.002090854231 0.1041011357 0)
(-0.001933096515 0.1040986023 0)
(-0.001937166025 0.1038310914 0)
(-0.002093638969 0.103833559 0)
(-0.001489972579 0.1069054982 0)
(-0.001620524501 0.106907196 0)
(-0.001627813321 0.1067735556 0)
(-0.001497701156 0.1067718881 0)
(-0.002071672804 0.1069138993 0)
(-0.002074809578 0.1067800083 0)
(-0.001926160558 0.1067778618 0)