/*--------------------------------*- C++ -*----------------------------------*\
| =========                 |                                                 |
| \\      /  F ield         | OpenFOAM: The Open Source CFD Toolbox           |
|  \\    /   O peration     | Version:  v2012                                 |
|   \\  /    A nd           | Website:  www.openfoam.com                      |
|    \\/     M anipulation  |                                                 |
\*---------------------------------------------------------------------------*/
FoamFile
{
    version     2.0;
    format      ascii;
    class       volScalarField;
    location    "0.14";
    object      nut;
}
// * * * * * * * * * * * * * * * * * * * * * * * * * * * * * * * * * * * * * //

dimensions      [0 2 -1 0 0 0 0];


internalField   nonuniform List<scalar> 
3019
(
0.05899505387
0.2018132156
0.2694097498
0.3488219398
0.4477413267
0.5850567556
0.7936422421
1.032048318
1.156629197
1.151389919
1.149095727
1.148547008
0.1179483112
0.2969360884
0.374890753
0.4510932267
0.5434741884
0.6713593107
0.8603641863
1.074367616
1.157844914
1.152152685
1.149558512
1.148913435
0.1663480515
0.435259181
0.5656837305
0.6085002693
0.6793318717
0.7937533551
0.9631780527
1.150894691
1.159000626
1.152957076
1.150153394
1.149432865
0.1883874939
0.465171232
0.748302026
0.8350577743
0.8645782445
0.9522200364
1.103609852
1.169643343
1.160051753
1.15377766
1.15082948
1.150060535
0.2287076753
0.5065100298
0.7837746307
0.9861877418
1.097710704
1.149673201
1.171130926
1.170843581
1.160948489
1.154554388
1.151514443
1.15071511
0.2786932073
0.5533752167
0.8161886784
0.9995871556
1.103201429
1.152874168
1.172630882
1.171658394
1.161655746
1.155240581
1.152182993
1.1513665
0.3168390661
0.5860297835
0.8335386143
1.006898791
1.107174248
1.155042791
1.173564212
1.172130653
1.162114528
1.155727542
1.152682633
1.151859797
0.3306654494
0.5955759217
0.8425573984
1.012564955
1.110086604
1.15646192
1.174049635
1.17230986
1.162390524
1.156083231
1.153067661
1.152239112
0.3395556742
0.6026969684
0.8488666657
1.016943421
1.112226079
1.15734688
1.174193233
1.172255955
1.162449244
1.156236744
1.153260723
1.152430307
0.346869272
0.6084408084
0.8528043637
1.020116843
1.11375404
1.157843155
1.174083092
1.172029907
1.162447392
1.156371907
1.153436485
1.152597263
0.3528547503
0.6130368526
0.8550627851
1.0220944
1.114735243
1.158034236
1.173784972
1.171686769
1.162341206
1.156400504
1.153502129
1.152652353
0.3577077637
0.6166233093
0.8562015108
1.022991323
1.115195933
1.157964018
1.173348769
1.171271686
1.162249964
1.156463288
1.15359223
1.152722381
0.3615845993
0.6193148144
0.8565298693
1.023009342
1.115175686
1.157663434
1.172809441
1.170809122
1.162025269
1.156352071
1.153497388
1.152606736
0.3646540797
0.6212171579
0.8562192576
1.022347056
1.114736116
1.157161981
1.172187531
1.170301672
1.161781329
1.156217301
1.153366163
1.152447493
0.3670377981
0.6224235917
0.8553789223
1.021162047
1.113947522
1.156490793
1.171500977
1.169747968
1.161360365
1.155858721
1.153003868
1.152059238
0.3688178148
0.6230257144
0.8541002081
1.019576388
1.112877611
1.155682549
1.17076746
1.169153869
1.160978729
1.15555746
1.152693974
1.151718284
0.3700926748
0.623126983
0.8524742579
1.017688035
1.111586109
1.154765689
1.169995407
1.168530264
1.160481406
1.155125236
1.152256722
1.151254157
0.3709769964
0.6228389179
0.8505914759
1.015578257
1.110121513
1.153758283
1.169188247
1.167896157
1.160153278
1.154899007
1.15202615
1.150992519
0.37159006
0.6222757312
0.84854258
1.013316221
1.108521448
1.152674312
1.168362893
1.167280882
1.159762733
1.154603442
1.151732529
1.150673689
0.3720484034
0.6215556258
0.8464089254
1.010956432
1.106816541
1.151535248
1.167554034
1.166721193
1.159597653
1.154544197
1.151671702
1.150582207
0.372449313
0.6207711572
0.8442470096
1.008537702
1.105036808
1.150371049
1.166791834
1.166228886
1.159340431
1.154381875
1.15151184
1.150400783
0.3728515524
0.6199796975
0.8420875119
1.006085699
1.103207369
1.14920184
1.166075447
1.16579397
1.159221585
1.15434695
1.151473797
1.150331659
0.3732811538
0.6191961572
0.8399252061
1.0035927
1.10131924
1.148007794
1.165374384
1.165369231
1.159034216
1.154228328
1.151357938
1.150201283
0.3737313414
0.6183766902
0.8377008431
1.00099697
1.099311589
1.146725573
1.16468838
1.164967988
1.158695308
1.154001322
1.151138846
1.149951367
0.04402106636
0.05522959477
0.177987237
0.08773029459
0.0452570276
0.1119578637
0.2408770128
0.1809832795
0.1208036477
0.08979821955
0.1405496627
0.07093300312
0.06793081984
0.08443123305
0.1566461046
0.1443269535
0.03036231887
0.05357784573
0.02759779888
0.03640452698
0.09463232084
0.05740581656
0.160477859
0.3611457674
0.2702190643
0.1115406573
0.09926862005
0.03908134105
0.19347838
0.1627622126
0.08786135396
0.09754610465
0.007785113002
0.0185937965
0.03171266169
0.08014893263
0.01148495401
0.01298598342
0.03623698344
0.01172505215
0.0115912698
0.01321183179
0.01158513539
0.01215385595
0.0190168547
0.0143064687
0.02754377818
0.02134715345
0.01210661379
0.008132537043
0.02092682277
0.01131189738
0.01159026982
0.1846611075
0.2347513829
0.0381450833
0.01396541569
0.01865039471
0.01119408783
0.01491778157
0.0280965385
0.05525796417
0.01184474308
0.008475035566
0.008567088446
0.01206974686
0.0119977463
0.03552218321
0.02990497663
0.01146888451
0.01124903518
0.01154037392
0.01159336451
0.008050252951
0.01153781042
0.01183813983
0.01231378772
0.01197923991
0.01173345435
0.01197340618
0.01187076097
0.01192194367
0.01208568874
0.01207452852
0.01197031535
0.01224951316
0.01281359699
0.01242757458
0.01168752499
0.01130447026
0.01141083971
0.01237792597
0.01171887763
0.0116153511
0.2515121461
0.3082631123
0.3294123562
0.4015555412
0.4291716833
0.5237871442
0.07053809077
0.1189068633
0.1161282765
0.2648238239
0.3247710549
0.2517974606
0.3429667475
0.4008718189
0.3275495347
0.4213768378
0.4900440969
0.4203094563
0.5152769031
0.6012416418
0.5420412534
0.1310880615
0.2475083141
0.2075629238
0.4285029257
0.4971363834
0.3582298061
0.5083264061
0.5471730813
0.4317465145
0.5629096997
0.6195460247
0.5179293802
0.6420225776
0.7166578972
0.6273736795
0.1086022845
0.09458242273
0.1815054598
0.3863425338
0.3671415265
0.4568100523
0.6710244541
0.5589672658
0.7399744541
0.7684647727
0.5951723539
0.7716712679
0.7986752248
0.6579866397
0.8133308627
0.8767289048
0.7542885714
0.1425385406
0.1150123949
0.2169514098
0.4219881375
0.3939624042
0.4951181038
0.7085730168
0.6798277305
0.7747719043
0.9392094746
0.8388001868
0.9816913185
1.04102261
0.8527296286
1.042612748
1.079932699
0.9249179011
0.1961467308
0.1545396583
0.2664951413
0.4684391925
0.432986621
0.5420803921
0.74769302
0.7186380782
0.8090103325
0.9587822942
0.9447499935
0.9971144475
1.081916166
1.076896726
1.101994075
1.143338294
1.140497351
0.2465114439
0.210264281
0.3095898602
0.508982426
0.480126601
0.5802615815
0.7748004138
0.7562293439
0.8308453475
0.9690405096
0.9622553414
1.005247296
1.086937796
1.083319824
1.106294948
1.146104857
1.144127507
0.2663680208
0.2546364909
0.328158492
0.5245439901
0.5156757619
0.593527069
0.7852780723
0.7778663112
0.8405574963
0.9759928949
0.970940773
1.011277612
1.090670082
1.087975591
1.109439935
1.147998134
1.146649408
0.2748731712
0.2686622741
0.3374931232
0.5330922882
0.5268520629
0.6010596355
0.7923256221
0.7873303227
0.8475349653
0.981394388
0.9774822791
1.015961909
1.093469562
1.091447873
1.111752992
1.149257966
1.148365049
0.2818611158
0.276746152
0.3451736896
0.5400692592
0.5349709583
0.6071189837
0.796822442
0.7936517703
0.8520053489
0.9853186272
0.9825162093
1.019437231
1.095533898
1.094050626
1.113424718
1.15005236
1.149495498
0.2876658224
0.2834139224
0.3514720982
0.5457430559
0.5416033235
0.6119874641
0.7996663561
0.7976605715
0.8546202054
0.9877791575
0.9860678404
1.021708152
1.096935657
1.095946075
1.114539813
1.150483993
1.150192225
0.2924728202
0.288954956
0.3565922986
0.5502807135
0.5469788052
0.6158150261
0.8014211595
0.8001941286
0.856001814
0.9889612135
0.9881846947
1.022857996
1.097697196
1.097185567
1.115127898
1.150603228
1.15054237
0.2964261157
0.2935361873
0.360696989
0.5538198697
0.5512548135
0.6187199987
0.8023553725
0.80172563
0.8565130256
0.9891472095
0.9890909632
1.023075818
1.097863708
1.097792504
1.115222779
1.150440987
1.1505885
0.2996290339
0.2972931425
0.3639550149
0.5564829236
0.5545635953
0.620810353
0.8026149081
0.8024798781
0.8563503664
0.9885866888
0.9890696413
1.022567162
1.097513743
1.097821662
1.11488154
1.150028557
1.15036057
0.302190311
0.3003252371
0.3665010605
0.5583801609
0.5570255014
0.6221824653
0.8022984025
0.8025871625
0.8556337454
0.9874597728
0.9883530014
1.021500228
1.096737259
1.097356603
1.114173632
1.14940138
1.149890951
0.3042091871
0.302741273
0.3684246079
0.5596071162
0.5587467595
0.6229264878
0.8014907353
0.8021397015
0.8544561081
0.9858971919
0.9871061773
1.020004785
1.095619521
1.096487148
1.113168095
1.148597178
1.149215906
0.3057756996
0.30463962
0.3698151174
0.5602695632
0.5598208634
0.6231426199
0.8002826268
0.8012230849
0.8529084371
0.9840025382
0.9854515498
1.018183913
1.094234852
1.095296141
1.111926954
1.147651552
1.14837319
0.3069744301
0.3061058495
0.3707859749
0.5604897094
0.5603617147
0.6229412079
0.7987681703
0.7999294779
0.8510813282
0.9818632105
0.9834880034
1.016122531
1.092644887
1.093854886
1.110501713
1.146591323
1.14739682
0.3078993933
0.307226188
0.3714563051
0.5603919013
0.5604895643
0.6224359499
0.7970440666
0.7983533682
0.8490656309
0.979556234
0.9812998749
1.013892775
1.090898772
1.092221718
1.108932465
1.145434882
1.146310928
0.3086612345
0.308098625
0.3719438323
0.5601106168
0.5603350264
0.6217445769
0.7952039711
0.796591998
0.8469467797
0.9771463285
0.9789617439
1.011553276
1.089034954
1.090442917
1.10725104
1.144201736
1.145133177
0.3093598408
0.3088343036
0.3723542325
0.5597349882
0.5600225413
0.6209700592
0.793319
0.7947351912
0.8447880714
0.9746796387
0.9765339957
1.009146239
1.087085693
1.088554765
1.105487114
1.142919339
1.143884855
0.310059592
0.3095243312
0.3727581058
0.5593242061
0.5596335222
0.6201768964
0.791431068
0.7928465805
0.8426267039
0.9721864793
0.9740584561
1.006701415
1.085079868
1.086589032
1.103669034
1.141614255
1.142594912
0.3107970963
0.3102210311
0.3731940884
0.5589062067
0.5592169898
0.6193982349
0.7895499201
0.7909608062
0.8404692042
0.9696702735
0.9715608537
1.004222513
1.083021146
1.084571374
1.101799432
1.140282074
1.141285324
0.311576149
0.3109507742
0.3736625585
0.5584684886
0.5587906471
0.6185995565
0.7876317951
0.7890755136
0.8382677927
0.9670805425
0.9690331882
1.001659973
1.080862913
1.082493874
1.099831983
1.138874507
1.139939912
0.3124174096
0.3117115088
0.3741430471
0.557882569
0.5583295646
0.6176114502
0.7854226439
0.7871347089
0.8357529994
0.9641456375
0.9664134126
0.9987535455
1.078398397
1.080295817
1.097580028
1.137261464
1.138495667
0.04174756956
0.03436594069
0.03610342564
0.07252003858
0.06856235281
0.05116184496
0.1621142602
0.1429529108
0.1518335589
0.08186839218
0.03147182505
0.02080364933
0.02810545095
0.0463704367
0.1477348463
0.1377129521
0.09933499968
0.2096521748
0.1777833364
0.2128637758
0.1557824595
0.1705751248
0.202776209
0.1018526157
0.08803520998
0.1374592976
0.1207383572
0.1234870092
0.1162315057
0.1361061974
0.0234135256
0.03265898044
0.05516486996
0.05824939037
0.07436628574
0.06446007813
0.0484444904
0.05189910405
0.1245244768
0.1221376059
0.07439937383
0.1519989285
0.1364131823
0.1405658441
0.1287147803
0.1318417345
0.1480462091
0.020693954
0.02316983087
0.0322742598
0.01405144802
0.01346869418
0.0121882998
0.05033605197
0.03031264812
0.03530164245
0.0255266543
0.0161910443
0.01813942672
0.05638396483
0.05223004407
0.03031193419
0.09050839095
0.0706362749
0.07473143262
0.06632175086
0.0859476781
0.04197837524
0.04567577543
0.06091286271
0.01609194909
0.0151242574
0.03722635935
0.03681974687
0.2338124152
0.227011626
0.1373254488
0.3546977301
0.294761607
0.3010223356
0.2343743688
0.2873971999
0.3128302911
0.1078647546
0.08747770534
0.0914613323
0.07906935842
0.0831484875
0.1031953591
0.04729280593
0.06436306323
0.06028615835
0.1806244308
0.1604954684
0.1709236049
0.145650239
0.1523919037
0.1702538373
0.09552127726
0.1318805967
0.1262592756
0.09327416852
0.0588783776
0.06192728541
0.01650052543
0.01159845282
0.0123195427
0.04298882572
0.04099119749
0.04656076317
0.0450501694
0.02962945207
0.07669961643
0.06167647927
0.0639284241
0.01164637785
0.0149154766
0.01348856484
0.01865975951
0.01667310413
0.01223477332
0.03451494017
0.02570402257
0.02805465807
0.01731424798
0.01301918166
0.01383889099
0.01199994502
0.01226097564
0.01559691158
0.02575126472
0.0173830605
0.01888027864
0.01492979525
0.0160778017
0.02311883728
0.01344622854
0.01455923327
0.02304365048
0.2041110145
0.1913728726
0.1723585492
0.219713978
0.2037004687
0.2174333377
0.03016753116
0.03223344129
0.04013095372
0.0150352748
0.02298709032
0.02079174561
0.02767350691
0.02556935301
0.01670577626
0.03687658381
0.03512961681
0.02571754318
0.05124308235
0.0439402165
0.04397521662
0.04100117456
0.04986725097
0.01872012128
0.01750510433
0.03359600242
0.02493358793
0.02717168426
0.02074796683
0.02284763159
0.03137920954
0.5572530683
0.6604425862
0.7689195554
0.8806887523
1.005196952
1.148262973
0.06291617226
0.08049030952
0.07663766966
0.2182420784
0.237515878
0.2190724029
0.2901983487
0.3090015538
0.2881680699
0.3704166902
0.3932086101
0.371431223
0.4685441093
0.4975137646
0.4772451692
0.6357218274
0.73373573
0.6915731043
0.8230982079
0.9260069398
0.9019104298
1.031589316
1.163036114
1.136145954
0.1224060609
0.1597048282
0.1543669564
0.3374858034
0.3560336167
0.3155395776
0.4134512117
0.43078093
0.3934670848
0.4844408313
0.5050856588
0.4720065284
0.5724536244
0.5989842769
0.5699772215
0.7440358004
0.8318498627
0.7805874898
0.9074810497
1.000070781
0.9602588975
1.085300092
1.164452544
1.16375973
0.1710902452
0.2441305862
0.239543507
0.4420560743
0.5133133642
0.5060575174
0.6315561154
0.6340370645
0.5743143293
0.6582682489
0.6706841771
0.623474418
0.7206992889
0.7414036452
0.7021543739
0.8905175093
0.9581192078
0.8908153582
1.027477087
1.10476569
1.049072265
1.168785397
1.165750773
1.165154823
0.1965851516
0.2679962138
0.260606905
0.4743459148
0.547024058
0.537623125
0.7569216686
0.8196358504
0.8117858283
0.9066320416
0.9020260222
0.8375473051
0.9194408367
0.9326591123
0.879157847
1.073812774
1.124962013
1.034565738
1.17010387
1.171684431
1.170789589
1.170298964
1.166861465
1.166353579
0.2411259537
0.3076689452
0.2965164265
0.5183248384
0.5906198829
0.5790966499
0.7926112137
0.8509939176
0.8433975361
0.9903145108
1.024950789
1.021738071
1.099260163
1.116282896
1.11493781
1.152186544
1.166958715
1.165825961
1.171960056
1.173046645
1.172430805
1.171314383
1.167712296
1.167345184
0.2901708886
0.3537748682
0.3426827114
0.563715172
0.6337125294
0.6239974007
0.82230614
0.8754845192
0.870557837
1.001609642
1.03362174
1.031877429
1.104315914
1.120650891
1.119693142
1.154582936
1.168619095
1.167881272
1.173161071
1.173907148
1.173530285
1.171949274
1.168283057
1.168051037
0.3225290165
0.3856246814
0.3802600093
0.5890015626
0.65636354
0.6536346531
0.8360465898
0.8865945606
0.8843099215
1.008450445
1.039527311
1.038194262
1.10798852
1.123777026
1.123089411
1.156165619
1.169635879
1.169196502
1.173856222
1.174352231
1.174172958
1.172265224
1.168595535
1.168492262
0.3330537093
0.3962178763
0.3937913514
0.597507801
0.6647106504
0.6628903822
0.8443864409
0.8943549608
0.8926216261
1.013774066
1.044077279
1.043047118
1.110686071
1.126024309
1.125530307
1.157166989
1.170178445
1.169957242
1.174158396
1.174472445
1.174444778
1.172317846
1.168681493
1.168687427
0.3415208908
0.4048246273
0.4028264354
0.6042507747
0.6707544435
0.6693995147
0.8500491148
0.8998869316
0.8987121253
1.01785081
1.047558476
1.046781043
1.112661971
1.12762477
1.12727641
1.157749557
1.170377242
1.170314471
1.174165428
1.174353831
1.174436332
1.172168965
1.168584844
1.168677117
0.3484824537
0.4119053684
0.4102650881
0.6096919591
0.6753640747
0.6743217833
0.8535003481
0.9033286083
0.9026410644
1.020721707
1.050054712
1.049522641
1.114049814
1.128712209
1.128484221
1.158011324
1.170318644
1.17037614
1.173954221
1.174062796
1.174224912
1.17187649
1.168367128
1.168512261
0.3541673316
0.4176768245
0.4163471732
0.6140239065
0.6788929183
0.678101462
0.8554374923
0.9051569544
0.9048216271
1.022413269
1.051579095
1.05128643
1.114898437
1.129346413
1.129228651
1.158003124
1.170058914
1.17021109
1.173581598
1.173650106
1.173867603
1.171491607
1.168076185
1.168252898
0.3587615648
0.4223315647
0.4212579742
0.6173762533
0.6815057244
0.6809319637
0.8563518509
0.905859556
0.9057692125
1.023070336
1.052208083
1.052127455
1.115234145
1.129556957
1.129542312
1.15775739
1.169638839
1.169866868
1.17309053
1.173154921
1.173410147
1.171050111
1.167744226
1.16793716
0.3624221293
0.4260721919
0.4252175003
0.6198608703
0.6833141135
0.6829318332
0.8565076832
0.9057556116
0.9058452167
1.022901084
1.05208544
1.052177899
1.115102674
1.129380145
1.12945809
1.157303427
1.16908738
1.169378083
1.172507793
1.172597829
1.172882756
1.170564592
1.16736486
1.167582229
0.3653105146
0.4289955201
0.42833594
0.6215808997
0.684415032
0.6842014
0.8560556553
0.9050347893
0.9052654929
1.022094923
1.05136413
1.051592936
1.114569203
1.128866034
1.129023145
1.156671746
1.168427838
1.168769593
1.171851179
1.171987931
1.172298396
1.170032674
1.166930626
1.167173345
0.367536277
0.4311981226
0.4307101098
0.6226272758
0.6848930304
0.6848272239
0.8550971759
0.9038191745
0.9041638872
1.020799378
1.050175741
1.05051036
1.113704162
1.128070385
1.128292663
1.155894914
1.167685029
1.168065287
1.171139397
1.171335366
1.171665837
1.169457101
1.166434992
1.166707776
0.3691793669
0.4327629848
0.4324252251
0.6230938809
0.6848382528
0.6848964457
0.8537230788
0.9022076104
0.9026425111
1.019129597
1.048627887
1.049043444
1.112573637
1.127047217
1.127321593
1.155003188
1.166879333
1.167289157
1.170386425
1.170649293
1.170995757
1.168845793
1.165900413
1.166187202
0.3703457552
0.4338112851
0.43359095
0.6230871981
0.684351759
0.6845081512
0.8520243901
0.9002913661
0.900794207
1.017178738
1.046808334
1.047284526
1.111234758
1.125843711
1.126159323
1.154017247
1.16601922
1.166455615
1.169596369
1.169935459
1.170294602
1.16821428
1.165350705
1.16564257
0.3711513071
0.4344582301
0.4343280754
0.6227198536
0.6835394364
0.6837669775
0.8500915665
0.8981572928
0.8987065826
1.015024827
1.044789365
1.045309366
1.109733091
1.124496397
1.124845115
1.152950898
1.165110912
1.165569636
1.168777623
1.169208892
1.169570773
1.167585393
1.164824646
1.165096959
0.3717155395
0.4348230594
0.4347507562
0.6221061307
0.6825125735
0.6827833809
0.8480146819
0.8958888345
0.8964644165
1.012733966
1.042630433
1.043180607
1.108104111
1.123033412
1.123408631
1.151822941
1.164176217
1.164643255
1.167957976
1.168502552
1.168847496
1.166997346
1.16435668
1.164596438
0.3721532204
0.435033985
0.4349885724
0.621363126
0.6813742476
0.6816646162
0.8458697335
0.8935542591
0.8941412656
1.010356269
1.040376369
1.040946817
1.106377599
1.121480947
1.121875875
1.150662141
1.163251584
1.16370686
1.167175173
1.167852703
1.1681622
1.166476107
1.163958327
1.164156014
0.3725537703
0.4351927475
0.4351519249
0.6205718736
0.6801973765
0.6804923403
0.8437065667
0.8911982737
0.8917876057
1.007927538
1.038061327
1.038644238
1.104583789
1.1198685
1.120275716
1.149494057
1.162360409
1.162793557
1.166447328
1.167269882
1.167538787
1.166028817
1.163639112
1.163793695
0.3729710007
0.4353544596
0.435304557
0.6197866703
0.6790173388
0.679310834
0.8415490477
0.8888424475
0.8894313989
1.005468066
1.035705947
1.036298694
1.102742561
1.11821484
1.118632467
1.148310158
1.161486324
1.161907554
1.165750303
1.166724659
1.16697019
1.165614317
1.163324108
1.163467306
0.3734255787
0.4355379541
0.4354700696
0.6190064172
0.677835011
0.6781283297
0.8393800951
0.8864674496
0.887065613
1.002957385
1.033290087
1.033902754
1.100832594
1.116497165
1.116935447
1.147059619
1.160560586
1.161018636
1.165006562
1.166142089
1.166420218
1.165172577
1.16302494
1.163157166
0.3738940161
0.435709082
0.435636687
0.6181506612
0.6765651107
0.6769048288
0.8371034422
0.8839760715
0.8846291841
1.000307213
1.030730353
1.031395147
1.098784401
1.114649731
1.115123391
1.145629711
1.15941474
1.160118389
1.164104123
1.165438969
1.165888187
1.164625047
1.162570799
1.162838124
0.1704462559
0.1628904063
0.1674836186
0.084705244
0.06562066221
0.07035654326
0.03867786323
0.03906320572
0.04891422836
0.1773185567
0.1787659108
0.1876363721
0.1310123501
0.1365875573
0.1020062571
0.09915970009
0.08147608252
0.04478266124
0.04244893318
0.03457198376
0.02611952821
0.0246883132
0.03943672616
0.04984613845
0.04611456733
0.09040965271
0.1079044593
0.1051202778
0.02979852092
0.02854557251
0.2695572327
0.2532159416
0.2357994874
0.2910066277
0.2714343603
0.2881216729
0.3517639691
0.3345594277
0.3121947198
0.3841799116
0.3583160502
0.375714471
0.458987242
0.4418899428
0.4119244522
0.508431679
0.4738345328
0.490737081
0.08811048282
0.08450634237
0.06686358446
0.1194760892
0.1037044261
0.1072246538
0.09572951342
0.09957222986
0.1195582179
0.2835858092
0.2585989756
0.2392089098
0.2962484984
0.2746778332
0.302475423
0.23324476
0.2518619103
0.2721258968
0.3615518313
0.3337343323
0.3146726657
0.3728316818
0.3528676242
0.3805499082
0.3073027294
0.3284979351
0.348826684
0.4422139083
0.4162059661
0.3939255113
0.4651577839
0.439865684
0.4659552232
0.3950436785
0.4165019018
0.4421061604
0.5435268729
0.5204103835
0.4911887415
0.5799719618
0.5498779858
0.5738853746
0.5084703417
0.5281271441
0.5586182652
0.1692159192
0.1642432778
0.1282476958
0.1853191929
0.1949931227
0.2281485428
0.4663344807
0.4058791509
0.3891976754
0.4440091292
0.4264689354
0.4832926308
0.3366035606
0.377721986
0.3976605852
0.5207379542
0.4727386609
0.4575272862
0.5047131435
0.4884379576
0.5337978488
0.4123795641
0.4479703279
0.4654697095
0.5803566054
0.5408572205
0.5223806119
0.5820013082
0.5605629749
0.5989343166
0.4947261645
0.5264665524
0.5486060069
0.6648912353
0.6303387444
0.6051289309
0.684929743
0.6569209978
0.6897755555
0.5988529821
0.6270717108
0.6540007322
0.1033543433
0.09915060369
0.2542885702
0.2488894214
0.1758327826
0.3794636583
0.3165878429
0.3224208916
0.3062955147
0.3112970429
0.3731449908
0.5289328353
0.5208744647
0.4491590848
0.6626355352
0.5924587941
0.6007317964
0.5509180626
0.5846304641
0.6319969633
0.780514054
0.7019025641
0.7083326839
0.7058710826
0.7015211931
0.7707628996
0.5841358245
0.6400893459
0.6479646216
0.7777114896
0.7220319162
0.7126895587
0.748301594
0.7338745797
0.786669246
0.6398654579
0.6849783471
0.7014965538
0.8297914642
0.7839197159
0.7653874486
0.833995962
0.8058205944
0.8513680209
0.7257005104
0.7643384013
0.7913514519
0.1319082039
0.1227463986
0.2860511734
0.2765033606
0.2061640801
0.4117734279
0.3450239532
0.354481601
0.32902182
0.3365282455
0.4024188013
0.5678735905
0.5571270734
0.4843475493
0.6986663828
0.6288981957
0.6393374566
0.6095452437
0.6189406763
0.6890511427
0.8355492305
0.8275869942
0.7657757445
0.9334125251
0.8835926513
0.8904703798
0.8506739229
0.8766202616
0.9199359887
1.01816152
0.9753729676
0.9769020846
0.971994463
0.9701384661
1.046459398
0.8435468954
0.90393709
0.910330499
1.050120494
0.9890186527
0.9781661566
1.026105272
1.004297073
1.063197748
0.8989553509
0.9507684753
0.972510112
0.1817261018
0.1677068726
0.3310518345
0.3192904986
0.2538389374
0.4565057438
0.3873992796
0.399054903
0.364832006
0.3758648596
0.4445554278
0.613399241
0.602133267
0.5302922719
0.7384337738
0.6717771723
0.6821915382
0.650101134
0.6610042666
0.728656223
0.864757804
0.8581632818
0.8011018086
0.9546469096
0.909403056
0.9147056512
0.8971478416
0.9035006128
0.9499284185
1.029991167
1.027720197
0.9939827442
1.080398872
1.056286203
1.058045162
1.051802115
1.054230302
1.07875091
1.118651698
1.117518015
1.100683732
1.14247283
1.131308657
1.132295348
1.127536733
1.130231993
1.141528258
0.2359017791
0.2237310636
0.3729575471
0.3640107152
0.3004931263
0.5008801043
0.4315223451
0.4400118745
0.410596654
0.4214751716
0.4909679996
0.6488639846
0.6420350852
0.5728982974
0.7700155765
0.7079588242
0.7140170593
0.6918583757
0.700638951
0.7637244762
0.8818816282
0.8792203554
0.8274049409
0.9670218606
0.925650191
0.9279513848
0.9192838208
0.9229891797
0.964860519
1.036770834
1.035249688
1.003487204
1.085821464
1.062580471
1.063887671
1.05966899
1.061177156
1.084617924
1.122342772
1.121531956
1.105344306
1.145505613
1.134785429
1.135481017
1.133198691
1.134026625
1.144848849
0.2639402431
0.2609837259
0.3912431382
0.3885657756
0.3255224527
0.5221086158
0.4543430771
0.4568872313
0.4470361479
0.4516205108
0.5194943858
0.6609090306
0.6587426167
0.5913457139
0.7830196338
0.7229641155
0.7251983364
0.7177605454
0.7204966821
0.7805496058
0.8907497943
0.8887408113
0.8383862512
0.9744098151
0.9340652438
0.935868247
0.9301125408
0.9321479838
0.9727271994
1.041948277
1.040776766
1.009907563
1.089835668
1.067305123
1.068298147
1.065106224
1.06624294
1.088938951
1.124993411
1.124410323
1.108741884
1.147592135
1.137233669
1.137721249
1.136117778
1.136700447
1.147144049
0.2729067804
0.2708388478
0.4007295211
0.3985286514
0.3353274516
0.5311177797
0.4638766935
0.4660029736
0.4593224518
0.4616509845
0.5290397412
0.6679488664
0.6663908961
0.5993321146
0.7908408134
0.7306730943
0.7321581596
0.7272145677
0.729032073
0.7891798428
0.8974001087
0.8959481048
0.8460436495
0.980181758
0.9406031868
0.9419565407
0.9375585592
0.939136703
0.9788773277
1.045942385
1.045041698
1.014905491
1.092844064
1.070903649
1.071659641
1.069226212
1.070093335
1.09217084
1.126894899
1.126478366
1.111240347
1.148992238
1.138941207
1.139276714
1.138166303
1.138571789
1.148695264
0.280234804
0.2785313918
0.4085402503
0.4067279405
0.3433918945
0.5384551259
0.4718185215
0.4735799168
0.468033075
0.4699705077
0.5367566128
0.67320925
0.6720220646
0.6057231116
0.7958844243
0.735853487
0.7368807445
0.7335056277
0.7347323874
0.7948320174
0.9018440298
0.900928733
0.8510908205
0.9844779707
0.9453264841
0.946223369
0.9431948478
0.9443176775
0.9835435531
1.048929265
1.048274586
1.018681757
1.095081356
1.073615393
1.074166828
1.072362681
1.073014136
1.094586995
1.128227516
1.12794143
1.113060888
1.149890908
1.140100011
1.140319272
1.139580431
1.139854085
1.14970547
0.2863138754
0.2848973642
0.4149434276
0.4134640291
0.3500154809
0.544437215
0.4783665823
0.4798048021
0.4752567383
0.4768513225
0.5430578535
0.6772510977
0.676339588
0.6108730588
0.7990731944
0.7394827984
0.7402126709
0.7378229176
0.7386878576
0.798406891
0.9044103157
0.9039154974
0.854102052
0.987294302
0.9482797818
0.9487736181
0.9470110485
0.9476943108
0.9867247739
1.050935741
1.050525589
1.021251256
1.096646298
1.075520469
1.0758727
1.074667997
1.075118956
1.096316318
1.12908396
1.128912023
1.114311404
1.150407101
1.140826506
1.140948108
1.140512912
1.140681508
1.150309649
0.2913559722
0.2901844491
0.4201272904
0.4189376552
0.3554113808
0.5492450592
0.4836791488
0.4848331168
0.4811679085
0.4824585211
0.5481448767
0.6803064182
0.6796274386
0.6149490936
0.8010670028
0.7420448375
0.7425467878
0.7408806657
0.7414901666
0.8006588819
0.9056251827
0.9054229474
0.8557485337
0.9887704387
0.9497656107
0.9499545849
0.9491814539
0.9495097713
0.9885129284
1.05199739
1.051815465
1.022666443
1.097565206
1.076636935
1.076798343
1.076175524
1.076429712
1.09739476
1.129502724
1.129437681
1.115028952
1.150601303
1.141176853
1.141209465
1.141046779
1.141122638
1.15058071
0.2955107129
0.2945487139
0.4243101341
0.4233486418
0.3597567776
0.5530220815
0.4879000419
0.488800585
0.4859193157
0.4869404756
0.5521675001
0.6825040598
0.6820293038
0.6180742995
0.8021898981
0.7437529962
0.7440622241
0.7429973708
0.7433985779
0.8019804716
0.9058942942
0.905900195
0.8564544909
0.9891794032
0.9501673809
0.9501359196
0.9500812139
0.95015042
0.9891617557
1.0522308
1.052241767
1.023097191
1.09787406
1.07702069
1.077014145
1.076914863
1.076988187
1.097850644
1.129514078
1.129547366
1.115242616
1.150506645
1.141182215
1.141133494
1.141220931
1.141211434
1.150555548
0.2988925055
0.2981147693
0.4276298821
0.4268757956
0.363211522
0.5558930172
0.4911701119
0.4918566371
0.4896442574
0.49043329
0.5552536598
0.6839475928
0.6836523154
0.6203586316
0.8026075714
0.7447309791
0.7448732505
0.7443271447
0.7445493601
0.802562866
0.9054637623
0.905627875
0.8564470457
0.9887860557
0.9497802203
0.9495848012
0.9500587145
0.9499389832
0.9889477815
1.051790803
1.05195576
1.022752667
1.097644851
1.076776204
1.076631014
1.076969843
1.076889727
1.097747869
1.129161788
1.129281157
1.11500413
1.15015356
1.140876253
1.140755971
1.141065851
1.140979666
1.150264027
0.3016046291
0.3009836313
0.4301810464
0.4296101338
0.3659256274
0.5579723699
0.4936296237
0.4941309021
0.4924942109
0.4930846269
0.5575211691
0.6847266083
0.684589731
0.6219020003
0.8024271036
0.7450732442
0.745069289
0.744976739
0.7450427966
0.8025236498
0.9044824452
0.9047733448
0.8558598058
0.9877870103
0.9487967436
0.9484741171
0.9493542356
0.9490906986
0.9880852997
1.050821096
1.051106327
1.021811835
1.096966638
1.076020265
1.075764489
1.076455374
1.076251077
1.097173458
1.128499932
1.128691402
1.114381239
1.14957653
1.140300582
1.140119916
1.140619475
1.140467252
1.149739589
0.303749698
0.3032611582
0.4320532476
0.4316450011
0.3679979949
0.5593584693
0.4953909483
0.4957394888
0.4945893664
0.4950077035
0.5590723687
0.684926072
0.6849255175
0.622794198
0.8017339759
0.7448619269
0.7447331934
0.7450316747
0.7449619006
0.801950662
0.9030570872
0.903449847
0.8547889099
0.9863227953
0.947347673
0.9469254811
0.9481238093
0.9477476077
0.9867262293
1.049440897
1.049818844
1.020412966
1.095926754
1.074859651
1.074517526
1.075484705
1.075182475
1.096216288
1.127584097
1.127833994
1.11344394
1.148813006
1.139500344
1.13927054
1.139925851
1.13971893
1.149019156
0.3054215992
0.3050438655
0.4333439873
0.433068612
0.3695112029
0.5601500244
0.4965861857
0.4968066412
0.4960540694
0.4963358023
0.5600009972
0.6846424823
0.684753109
0.6231321313
0.8006171866
0.7441873794
0.7439579741
0.7445767047
0.7443941133
0.8009310524
0.9012821236