/*--------------------------------*- C++ -*----------------------------------*\
| =========                 |                                                 |
| \\      /  F ield         | OpenFOAM: The Open Source CFD Toolbox           |
|  \\    /   O peration     | Version:  v2012                                 |
|   \\  /    A nd           | Website:  www.openfoam.com                      |
|    \\/     M anipulation  |                                                 |
\*---------------------------------------------------------------------------*/
FoamFile
{
    version     2.0;
    format      ascii;
    class       volScalarField;
    location    "0.14";
    object      omega;
}
// * * * * * * * * * * * * * * * * * * * * * * * * * * * * * * * * * * * * * //

dimensions      [0 0 -1 0 0 0 0];


internalField   nonuniform List<scalar> 
3019
(
761.7132241
143.0052198
70.24769131
46.47309254
37.49739997
33.78161546
31.92575545
31.20485096
30.77155276
30.60375955
30.51405068
30.46824178
471.0693462
132.7119421
68.63524201
46.18894117
37.51285567
33.83921577
31.93008489
31.17292253
30.70756441
30.52685726
30.42780198
30.37716154
336.6566376
122.6680787
65.85034393
45.42166283
37.31218824
33.80786521
31.90157503
31.12893734
30.64287467
30.45240172
30.34472923
30.29012373
287.209265
112.1449957
62.46894912
44.331534
36.98616521
33.69981209
31.84008577
31.07031353
30.57164975
30.37435672
30.26096101
30.20294617
230.5267154
99.96591102
58.61873068
43.15583645
36.65495461
33.55400485
31.75301372
30.99875163
30.49446347
30.29312513
30.17464539
30.11380105
184.5390404
88.75397002
55.28013041
42.22150999
36.33600099
33.38282919
31.64535419
30.91123467
30.40622252
30.2028247
30.08229202
30.01944394
158.1353028
81.75411117
53.37866361
41.58280162
36.01527793
33.19561502
31.52356252
30.81166026
30.31097817
30.10802116
29.9865497
29.92282821
147.6652172
79.02604544
52.19190934
41.00885008
35.70426241
33.00125477
31.3920363
30.70207901
30.20729779
30.00570895
29.8842818
29.8203436
140.3022355
76.81505297
51.23303594
40.49665453
35.40820349
32.80550751
31.25381334
30.58454571
30.09886091
29.90025453
29.77964712
29.71591188
134.1643219
74.91899111
50.4648538
40.04737355
35.12991826
32.61209214
31.11127076
30.46089978
29.98215354
29.7858153
29.66634079
29.60329617
128.968134
73.2741445
49.83225212
39.66106525
34.87176056
32.42360616
30.96655515
30.33263415
29.86222468
29.66919262
29.5512957
29.48919079
124.5093041
71.83712997
49.29332628
39.33141666
34.63511411
32.24188289
30.82132618
30.20103553
29.73513044
29.54400098
29.42766992
29.36679057
120.6313181
70.57381962
48.82427593
39.0482802
34.41959764
32.06798277
30.6768297
30.06735831
29.6097249
29.42238375
29.30803639
29.24843376
117.2161661
69.45579375
48.41092033
38.80193263
34.2233388
31.90218923
30.53402759
29.93304001
29.47937754
29.29404574
29.18144163
29.12320229
114.1765861
68.46014639
48.04365442
38.5847133
34.04386199
31.74423388
30.39349288
29.79913764
29.35578208
29.17508048
29.06459424
29.0076357
111.4473778
67.56707277
47.71452177
38.39064003
33.87862254
31.59346004
30.25543467
29.66637826
29.22481421
29.04534201
28.93636136
28.88066422
108.9722005
66.75784688
47.41615661
38.21492181
33.72531811
31.44915813
30.12007723
29.534906
29.10404041
28.92882547
28.8216095
28.76703133
106.7008929
66.01506609
47.14165826
38.05355815
33.58198428
31.31077724
29.98760681
29.40484661
28.96840155
28.79220935
28.68592277
28.632418
104.5888506
65.32223913
46.88451838
37.90315991
33.44702156
31.17782611
29.85777123
29.27548461
28.85002735
28.67732729
28.57226868
28.5196609
102.5936579
64.6642435
46.63911793
37.76104181
33.3190957
31.04956517
29.72981057
29.14656158
28.70520311
28.52993389
28.42545142
28.37374586
100.6828823
64.02966125
46.40144251
37.62519118
33.19691504
30.92499401
29.60311389
29.01746187
28.5946748
28.42262573
28.31892699
28.26787345
98.83945829
63.41186199
46.16915395
37.49420564
33.07941844
30.8034789
29.4781153
28.8897621
28.4373187
28.26309387
28.15995917
28.10968061
97.05881576
62.80909255
45.94204092
37.36798169
32.96659091
30.68537219
29.35682739
28.7646881
28.34731218
28.17403263
28.07111982
28.02117936
95.35650583
62.2303324
45.72465479
37.24904227
32.86026135
30.57229851
29.24333078
28.64746679
28.14929726
27.97381892
27.87107456
27.82174341
933.3540957
796.0863563
173.4221743
580.2054573
914.2308471
491.8804508
168.0158168
171.4313435
440.5876922
571.4508067
327.4038636
666.4821796
685.0027084
601.3845687
288.679354
315.7286383
1308.669793
805.4374432
1440.197389
1097.485711
572.3404718
766.4008942
351.9603244
153.1545631
164.3381945
500.0338162
550.4083165
1030.191307
263.9287692
279.9716069
585.1475107
530.4001588
6117.18929
2178.898162
1219.356602
616.4457309
4731.973763
3411.996743
1100.962362
4876.781396
5979.74465
3374.410395
4640.420194
6351.945026
2141.548602
3010.931363
1454.815116
1894.84768
5705.815778
6315.448689
1919.844533
6059.849786
5266.523449
157.2575181
82.08617695
1052.216035
3082.444901
2180.559755
4462.145644
2798.331807
1417.257607
818.0373963
6130.28509
6460.716539
6597.921814
5479.863157
6298.294583
1135.13434
1341.018313
5846.737642
5344.155909
5918.122097
5472.374974
6225.870888
6179.662374
6043.045499
3803.187939
5355.567791
4896.484616
5996.281445
6201.355266
4219.46147
4512.193218
4954.278312
6257.881367
5127.842293
3734.813265
4057.470444
5878.363022
4494.405371
4749.944546
3624.40174
4081.155614
6054.038844
70.54684731
50.3715281
46.45436021
39.0021424
37.45735272
34.40301067
676.2528763
448.4652374
483.4400627
135.6195563
79.46864684
81.62144432
68.94387282
50.07626632
50.36523217
46.31262081
39.06351816
39.05286729
37.53398041
34.4967564
34.43563601
427.8723285
235.3913201
257.9891574
125.1023854
76.11284475
78.92896197
66.58091482
49.16378149
49.88080376
45.64884727
38.82599298
39.02420781
37.38197366
34.47971841
34.4991438
463.9631037
527.9035368
300.4038096
139.6585104
149.8704671
114.9605457
71.80069095
75.12743719
63.39329121
47.80050772
48.8597637
44.62394526
38.40680365
38.73471519
37.07328751
34.36041921
34.45421201
355.1496572
438.7291304
244.5006511
123.8870508
135.9392532
103.0623004
66.69403566
70.56816242
59.57496064
46.2149949
47.41710292
43.44404971
37.93678341
38.2865137
36.73322819
34.19358883
34.32083485
257.4368155
327.644888
194.2210576
107.9481788
119.7342146
91.26907924
61.8574712
65.4044508
56.01107441
44.79317303
45.82345589
42.41005629
37.53688688
37.82931593
36.41656053
34.00257777
34.14789028
201.733832
239.4979718
162.9037536
96.48816037
104.4883682
83.01394702
58.63135
60.85228155
53.71420579
43.91343144
44.52111685
41.73616152
37.15719651
37.44089427
36.09485612
33.79393101
33.95141028
181.9713013
194.20195
149.7424549
91.65373996
94.65744354
79.64029527
57.09479772
58.20201558
52.46656565
43.209377
43.72912363
41.14650442
36.79406066
37.06452835
35.78074883
33.57883371
33.74038627
171.606043
179.1724147
142.014321
88.50458866
90.81377398
77.33489027
55.89721198
56.76749484
51.45282241
42.59051917
43.04671108
40.61888747
36.45274642
36.7065436
35.48064246
33.36384504
33.52488558
163.0455944
169.3205352
135.6011846
85.83332685
87.7966647
75.36744906
54.94295595
55.63937777
50.64207742
42.05698952
42.44902175
40.15368699
36.13570442
36.37109739
35.19768246
33.15281151
33.31059118
155.7988138
161.1247077
130.1909095
83.53806689
85.22722261
73.6643499
54.15000273
54.73205643
49.98034103
41.60694772
41.93689767
39.7519722
35.84522271
36.06048356
34.93430564
32.94855077
33.10101259
149.5700538
154.1555502
125.5641399
81.54859265
83.01427969
72.17885217
53.46806392
53.97033337
49.42078876
41.22904778
41.50626689
39.40904738
35.58266081
35.77693494
34.69224393
32.75315082
32.89879981
144.1458433
148.1456807
121.5533323
79.81048156
81.09228025
70.87499588
52.87131082
53.31153814
48.93585933
40.90790902
41.14398127
39.11526402
35.347088
35.521303
34.47157851
32.56782934
32.70584313
139.3642399
142.895759
118.0317999
78.28000676
79.40982692
69.7229964
52.34411183
52.73342585
48.50959894
40.63033821
40.83482582
38.86051743
35.13564983
35.29207847
34.27072547
32.39281689
32.52311061
135.1035897
138.2541526
114.9050487
76.92249383
77.92553558
68.69867782
51.87528481
52.22176079
48.13158957
40.38680438
40.5665368
38.63663338
34.94484819
35.0861328
34.08729664
32.22764489
32.35062279
131.2773789
134.1094018
112.1037838
75.70961312
76.60669309
67.78177912
51.45546902
51.7660436
47.79364252
40.17028287
40.33034718
38.43726667
34.77126768
34.89994455
33.91872984
32.07141232
32.18778003
127.8120316
130.3800716
109.5700528
74.61562291
75.42587584
66.95326311
51.07570225
51.35706389
47.48824307
39.97518744
40.11966124
38.25735677
34.61188069
34.73017555
33.76263695
31.92308589
32.0336155
124.6408207
126.9942904
107.2519967
73.61671415
74.35783091
66.1954332
50.72750136
50.98597817
47.20840373
39.79685126
39.92917352
38.09274519
34.4641359
34.5739253
33.61697338
31.78179047
31.88712362
121.7051997
123.8875508
105.1041176
72.69084745
73.37922164
65.49162196
50.40275431
50.64439225
46.94750118
39.63119543
39.75436976
37.93988696
34.32591729
34.42874433
33.48004947
31.64681977
31.74747253
118.9484587
121.002474
103.0829384
71.81727627
72.4682915
64.82617587
50.09407687
50.32430567
46.69961282
39.47484072
39.59132355
37.79591109
34.1955328
34.2926295
33.35048536
31.51741714
31.61397269
116.3230726
118.2836919
101.1521509
70.97929073
71.60496377
64.18650807
49.7958481
50.01868019
46.46028578
39.32527181
39.43686921
37.65865171
34.07152345
34.16397188
33.22698649
31.39257488
31.48581179
113.8003963
115.6892191
99.28947148
70.16645646
70.77411987
63.56475068
49.50464344
49.72245428
46.22677396
39.18075637
39.28869725
37.52653256
33.95262491
34.04134402
33.10837909
31.27139951
31.36194955
111.3624811
113.1982239
97.48133621
69.37305738
69.96705487
62.95686477
49.21914862
49.43272715
45.9981049
39.04070099
39.14528517
37.39899658
33.83839541
33.92359892
32.99428982
31.15382741
31.24163061
108.9959031
110.8046142
95.71735966
68.5958957
69.18128163
62.36133473
48.94051377
49.14913077
45.7757036
38.9065234
39.00653637
37.27736542
33.72992736
33.81067068
32.88577942
31.04094584
31.12510287
106.5629382
108.5244155
93.89757024
67.7947622
68.42732245
61.74879176
48.65754578
48.87712991
45.55129856
38.77410242
38.87530993
37.1579484
33.62354991
33.70448619
32.77898183
30.92816252
31.01405849
974.6032425
1157.240481
1104.000798
675.3749339
701.1260805
840.7427186
180.2724198
293.4403657
267.0096598
608.2646153
1071.197306
1938.295446
1420.285571
896.4844861
388.4488362
403.3319999
536.8009492
163.8057611
235.6579645
225.813767
259.0653562
241.3885811
165.1609661
511.5703085
575.8456123
339.6495178
468.7097067
434.2663682
484.8170126
324.2922703
1708.62313
1222.390587
783.6901678
753.8876606
646.4681055
708.8830434
864.5254563
819.2845173
402.7198733
439.5318704
653.0685887
295.8742876
362.5303518
351.8616263
418.0312482
378.1934956
306.1239622
1942.42291
1723.200696
1229.647675
3190.980291
3432.101764
4907.651995
841.3750355
1316.690683
1130.61514
1561.222926
2540.661835
2235.077427
800.2481484
843.7350906
1312.053211
592.7060926
700.1347585
673.1447785
731.8623898
617.3502636
971.0619355
903.4729583
736.1744248
2651.567788
2884.21871
1092.996926
1097.482769
246.7573438
255.955411
408.1405319
156.6041528
194.207262
189.0999989
219.7400981
199.9598643
160.320314
514.1232159
600.5091064
580.8585233
646.4452523
623.4184566
533.4463701
890.6825543
731.9191687
765.0727834
267.2718439
322.3705131
316.3053373
339.6971527
331.6821151
275.0115242
552.5360276
409.6791641
427.8983729
550.7833133
768.1349865
737.3450291
2486.958453
4060.022412
3606.923687
960.5007966
1000.807047
867.5366787
895.3036533
1287.937142
634.234187
724.8803166
708.2720638
4278.801106
2806.241832
3192.373313
2171.41301
2461.698493
3789.280331
1152.357231
1549.035776
1416.648666
2382.409592
3527.656622
3190.046662
4378.563592
3949.387036
2691.505395
1560.576982
2387.225407
2175.839527
2875.733493
2615.326213
1740.409907
3190.660389
2875.211494
1733.137894
117.6498495
119.0134075
159.3919625
82.61613435
97.6806125
96.80839909
1316.511699
1232.525259
1006.358982
2795.121012
1739.601706
1933.402956
1438.335405
1559.753117
2469.213051
1088.086745
1139.790428
1551.76944
858.8394879
947.3664877
942.8656059
999.9667085
874.2458061
2209.932348
2384.062917
1197.242192
1623.11103
1488.603212
1964.753048
1776.283881
1279.667553
33.75682125
32.52471248
31.91013182
31.49777434
31.22038535
31.02865687
729.0706247
629.1229066
650.3429854
140.5782014
114.2363582
115.6468923
69.8569019
61.58495138
61.7591176
46.43750445
43.40432825
43.41951329
37.5357595
36.28500276
36.25107311
33.83600797
32.58048193
32.55797505
31.93218311
31.49313307
31.49681643
31.1944725
30.98515664
31.0090381
456.4551293
362.6957205
375.0158577
129.9924871
107.5053154
109.2948629
67.91017801
60.26900173
60.71123835
46.06279376
43.12827779
43.25282398
37.48033639
36.27010013
36.29010921
33.82458796
32.57289131
32.57965648
31.92134918
31.4692884
31.48368894
31.15734037
30.93530414
30.96219031
324.3063363
232.4410628
238.9380014
120.1977818
100.4367907
102.2848024
65.08291824
58.15444637
58.73681948
45.1728327
42.49899135
42.68520152
37.23831679
36.10591535
36.1584526
33.73154091
32.52122914
32.55281716
31.87747066
31.42174884
31.44706237
31.10547617
30.87794487
30.90805403
273.3000576
204.1486372
211.8565379
109.2003457
92.15921206
94.36809524
61.51560058
55.49084119
56.20676231
44.03957176
41.64655907
41.86899356
36.89877748
35.86229221
35.92569304
33.59262619
32.42646527
32.47806652
31.79980576
31.35499744
31.38824772
31.04091275
30.81097382
30.84577415
217.3305944
171.8510214
179.7825455
96.92774431
83.01734904
85.27292657
57.69484605
52.64389069
53.32832678
42.8834584
40.80501756
41.00192665
36.57631397
35.60807817
35.67336414
33.42815201
32.30959264
32.37058791
31.70130503
31.2684274
31.31326571
30.9594769
30.73225693
30.77323376
176.0967282
144.8881034
150.7040465
86.52194464
75.3300064
76.98179175
54.64868573
50.42099453
50.87896993
42.05493264
40.19381678
40.33048486
36.25536588
35.33667752
35.40551033
33.24371095
32.17370784
32.24362974
31.5859319
31.16683991
31.21887265
30.86508801
30.64161414
30.68813371
154.3424724
129.2743779
131.9594668
80.96401406
71.30595429
71.89744978
53.05982891
49.23074005
49.49215613
41.43341059
39.67396448
39.79977621
35.93631893
35.06066469
35.12946059
33.05033015
32.02538233
32.10071386
31.45880855
31.05335763
31.11107723
30.75970152
30.54097808
30.59233256
145.6892435
122.7746861
124.2692882
78.43849127
69.3270348
69.78048673
51.93160451
48.28843086
48.50859464
40.87499157
39.19876516
39.31336719
35.62869892
34.78983197
34.85673953
32.85443846
31.86998021
31.94830817
31.32361768
30.93087307
30.99284665
30.64546298
30.43181575
30.48731572
138.6656708
117.4493275
118.6919562
76.31445543
67.71149977
68.08984763
51.02518462
47.50887457
47.68900032
40.37831109
38.76865571
38.87189326
35.33684671
34.5290792
34.59316054
32.66012481
31.71108139
31.79079041
31.1829398
30.80186942
30.86688031
30.52430953
30.31581078
30.37458748
132.7857971
112.9761557
114.0258521
74.48605004
66.33379548
66.65974059
50.2959526
46.87581859
47.02210804
39.94500079
38.3854191
38.47672797
35.0633966
34.28131352
34.34190659
32.4701894
31.55130343
31.63116382
31.03906968
30.66846788
30.7354913
30.39792207
30.19392492
30.25560348
127.7911349
109.169446
110.0667143
72.89680083
65.13597093
65.42058151
49.68987318
46.35498643
46.47662091
39.57369023
38.04991609
38.12942984
34.81055259
34.04882539
34.10541973
32.28663058
31.39267297
31.47174074
30.89392091
30.5322997
30.60056482
30.26763906
30.06753462
30.13133308
123.4904843
105.8920121
106.6680203
71.50616282
64.08528943
64.33553888
49.17014203
45.91435609
46.0183056
39.25666153
37.7586769
37.82767445
34.57929612
33.83297475
33.88535619
32.11071122
31.23663918
31.31426214
30.7489183
30.39464777
30.46352903
30.13468996
29.93753554
30.00307904
119.7380456
103.0377667
103.716487
70.28163422
63.15809724
63.37945499
48.71611222
45.53305001
45.62362031
38.98356079
37.50507112
37.56534017
34.36880891
33.6337151
33.68202829
31.94288803
31.08415052
31.1599106
30.60516888
30.2566924
30.32559887
30.00042449
29.80607882
29.87211076
116.4238444
100.524839
101.1247515
69.1961667
62.33490418
62.53186261
48.31507764
45.19813064
45.27802759
38.74513678
37.28211241
37.33532297
34.17698671
33.4498262
33.49444772
31.78301851
30.93570886
31.00941088
30.46345877
30.11945927
30.18790885
29.86614143
29.67403085
29.7403278
113.4674693
98.29119984
98.826262
68.227981
61.59982234
61.77613629
47.95806836
44.90090191
44.97207687
38.53421342
37.08384167
37.13137936
34.00130315
33.27955941
33.320953
31.63051889
30.79135192
30.86303096
30.32413854
29.98357231
30.05130337
29.73270596
29.54323442
29.60870773
110.8068721
96.28687698
96.76896532
67.35758465
60.93826602
61.09754182
47.63730066
44.63430729
44.69843485
38.3451422
36.90535516
36.94835184
33.83925134
33.12102567
33.1596568
31.48465231
30.65094602
30.7206615
30.18739064
29.84942368
29.91625269
29.60054011
29.41272429
29.47821627
108.3870164
94.46759907
94.90727095
66.56654863
60.33621875
60.48188453
47.34553426
44.3920966
44.45068351
38.17336295
36.74265458
36.78204156
33.68860874
32.97249344
33.00877343
31.3448328
30.51449195
30.58223101
30.05345724
29.71727928
29.78309918
29.46976561
29.28390271
29.34834574
106.1595352
92.79496606
93.20135967
65.83776764
59.78052813
59.91581413
47.07596254
44.16853294
44.22297769
38.0150314
36.59239918
36.62895902
33.54750186
32.83250645
32.86677199
31.21058087
30.38190281
30.44775829
29.92232942
29.58705856
29.65199907
29.34007178
29.15404455
29.21938085
104.0802784
91.23392731
91.61568165
65.15498374
59.25864564
59.38660067
46.82223703
43.95838027
44.00991812
37.86692962
36.45184631
36.48620154
33.414422
32.69988557
32.73241009
31.08123876
30.25264397
30.31697916
29.7934205
29.45810348
29.52259922
29.21084755
29.02560307
29.08992171
102.1079989
89.75220086
90.1169103
64.50370996
58.75957305
58.88268595
46.57907651
43.7573653
43.80694321
37.72654614
36.31885148
36.3514882
33.28805418
32.5735067
32.60458028
30.95583104
30.12577549
30.18916262
29.6657811
29.32961395
29.39419359
29.08143213
28.89417393
28.96071039
100.2132961
88.32672278
88.67949229
63.87371511
58.27569697
58.39554092
46.34290292
43.56256914
43.61079697
37.59201271
36.19173537
36.22303847
33.16712035
32.45218772
32.4820999
30.8335663
30.0005258
30.06355732
29.53880847
29.20118091
29.26635167
28.95181832
28.76571748
28.83042137
98.37920935
86.94408523
87.28935519
63.25917235
57.80279537
57.92024782
46.11178567
43.37237872
43.41952496
37.46214681
36.0693859
36.0995422
33.05073009
32.33513301
32.36400032
30.71450025
29.87666392
29.94023871
29.41249417
29.07303053
29.13978117
28.82220774
28.63282364
28.70219682
96.5948416
85.59603774
85.94251897
62.65775152
57.33969704
57.45573468
45.88598902
43.18716394
43.23299558
37.33730225
35.95212979
35.98089291
32.93923517
32.22274565
32.25033873
30.59972515
29.75358576
29.82103343
29.28649546
28.94478139
29.01651943
28.6923751
28.50593761
28.57537865
94.84517456
84.27023981
84.65282999
62.06493904
56.883708
57.00967132
45.66630539
43.0081644
43.05504915
37.21889045
35.84128044
35.86935448
32.83363656
32.11594729
32.14288135
30.48443108
29.62498037
29.71094232
29.1536732
28.80869432
28.90064213
28.553588
28.35978342
28.45782227
175.4304551
198.1113752
195.3282225
594.7658687
680.058238
667.0765503
1036.35964
1022.318973
863.4598372
192.0647071
189.7655471
169.0971099
387.4765625
343.6679622
530.3573676
542.1884267
615.4520616
928.326493
967.7847483
1152.220687
1561.180461
1658.883269
1015.97535
861.7858088
909.3345231
574.1840779
508.2045325
518.9878999
1346.71869
1434.467794
61.92302547
61.96139595
70.74763013
50.29944057
55.38113975
55.39624819
43.37106497
43.30213072
46.36528812
38.93862228
40.87715728
40.93458502
36.20967822
36.15445969
37.39130597
34.35748987
35.1586908
35.20527956
590.6325088
608.0180224
700.3358231
459.7721217
527.1065669
513.8753382
561.0666246
544.309139
471.3395715
111.2169384
112.2627207
137.3650571
80.37338484
93.96684278
93.01494301
95.88973484
94.95550133
80.90544062
61.01630995
61.3342329
69.5108421
50.21918258
55.0624064
54.89451324
55.3454738
55.25079615
50.29605384
43.33471881
43.38716269
46.4076763
39.06949046
40.98679227
40.9612289
40.99615366
41.00096006
39.07745036
36.29636789
36.29540894
37.53420584
34.48317637
35.29451291
35.30000136
35.2469061
35.27503282
34.46647269
341.7469121
352.54327
437.0985751
305.4706985
300.0166448
251.8592126
104.0522256
105.7588705
127.5157351
77.06046808
89.42550432
88.16621937
91.91615673
90.6612151
77.97042137
59.27937246
59.78229082
67.26568773
49.43870776
53.98574405
53.61429265
54.5880394
54.38236751
49.75484255
42.85389942
43.03381564
45.86565963
38.93193136
40.76105119
40.62014074
40.90115753
40.82009006
38.96975463
36.21155582
36.2372891
37.44274343
34.48741176
35.27234843
35.25766906
35.29838682
35.28855499
34.49539987
486.5425908
506.2478109
219.1339447
225.9559729
312.7100142
143.1985121
175.9604654
171.3835349
184.6245445
180.3435161
146.5831872
96.48794455
98.50985151
117.6409893
72.98244032
84.04784821
82.51191971
86.88439068
85.50907139
74.0969999
56.89696629
57.54219087
64.27073676
48.17390939
52.29892984
51.8097549
53.20709305
52.76766293
48.52826587
42.08668965
42.29865424
44.90495372
38.52309037
40.20846888
40.05068248
40.49573672
40.35779529
38.63339186
35.98775092
36.04881429
37.15815871
34.39463938
35.14420154
35.09960113
35.2220075
35.18537429
34.42782047
383.3724283
411.610965
187.9355684
196.1154146
258.8987981
128.0123481
156.1298001
150.6474261
166.5506242
161.4574869
132.0486067
87.57507284
89.88498817
106.1586584
67.99807062
77.52277758
75.79157797
80.90403032
79.23495799
69.29599175
54.03939216
54.76454533
60.54609384
46.61770583
50.22062418
49.67918958
51.30161539
50.76492154
47.02436024
41.21199569
41.43106788
43.74235379
38.04719619
39.56235523
39.40638098
39.8880683
39.72371706
38.16654366
35.73718745
35.79973901
36.81377032
34.23737932
34.95291528
34.90022787
35.05279826
35.00399145
34.28100054
278.269815
301.7847291
157.2018967
164.2744836
205.1803732
111.6800493
134.2938958
129.2625605
145.1014583
139.6197402
115.6428608
78.83015543
80.85895185
94.00897661
62.96330438
70.78985079
69.28771099
74.07176685
72.39300291
64.15401969
51.40666613
51.99973477
56.81950886
45.10508001
48.1708216
47.73932174
49.15045047
48.64453992
45.45109863
40.47063281
40.62672562
42.63299434
37.63310876
38.9889606
38.87208935
39.25452922
39.11522196
37.72955866
35.47387182
35.54149417
36.49678249
34.05232356
34.73542761
34.67771815
34.84682956
34.79188678
34.10105716
211.8236196
224.2906501
135.4693946
139.7855797
168.9364589
98.69612327
116.685137
113.6093386
124.5832409
120.3930412
101.4108474
72.76212316
73.92587952
84.58330326
59.22387532
65.68575526
64.83056913
67.92396678
66.70685543
59.97190057
49.76429552
50.05382491
54.11175372
44.1033108
46.78158423
46.55013801
47.35763965
47.03572754
44.29993081
39.92839222
40.0597497
41.89353588
37.25088436
38.53097677
38.42043884
38.75695194
38.64319774
37.34551587
35.19848582
35.267611
36.17493651
33.846967
34.49964481
34.43933864
34.61901335
34.55958947
33.89962542
184.9370742
188.3410179
125.8393206
127.4910441
151.9308645
92.53329168
107.9942829
106.7952399
111.0675474
109.2679525
93.46435855
70.25904801
70.76617002
80.28436088
57.44240695
63.31806129
62.90145685
64.23995189
63.76261458
57.81123706
48.73902222
48.97971784
52.75585903
43.37725195
45.90384984
45.7032816
46.32709658
46.11175469
43.55048978
39.43076423
39.55095649
41.28801645
36.88291501
38.09999363
37.99705211
38.311711
38.20489452
36.9731017
34.92421877
34.99222418
35.85812678
33.63278071
34.25789422
34.19755727
34.37887325
34.31834397
33.68668506
174.0024081
176.5207532
119.9908321
121.3501845
143.8079874
89.24185885
103.5055993
102.5014376
105.6494991
104.5540125
90.01086107
68.4840171
68.89570951
77.87551351
56.17012616
61.7965756
61.46842075
62.51064711
62.14321366
56.45977949
47.87877473
48.07851449
51.68545854
42.73729688
45.14546767
44.9741539
45.51003672
45.32411095
42.88939135
38.97800616
39.08696815
40.74501618
36.5358749
37.70036573
37.60554644
37.89612592
37.79723525
36.62049328
34.65799799
34.72357216
35.55415598
33.41735188
34.0183397
33.95933017
34.13750248
34.07772667
33.47103781
165.047792
167.1371189
115.1194476
116.2596143
137.100347
86.46262122
99.72907873
98.87748144
101.5389286
100.6155309
87.11661942
66.9974678
67.34774169
75.83233248
55.16364447
60.57553001
60.30315104
61.15672029
60.85961634
55.39537687
47.17598001
47.33803853
50.82855343
42.18229817
44.50420698
44.36178875
44.81022366
44.65361885
42.3129743
38.57104668
38.66836147
40.26400274
36.21255515
37.33382176
37.24758261
37.51283372
37.42224982
36.29103666
34.40341848
34.46582328
35.26667288
33.20503904
33.78534059
33.72844475
33.90082189
33.84279575
33.25763221
157.505563
159.2795365
110.9988499
111.9679188
131.4624928
84.08075337
96.51449516
95.78523073
98.05899834
97.27191483
84.64350524
65.71476514
66.01898718
74.06811843
54.33639952
59.54686802
59.31247818
60.0414956
59.78967431
54.53020826
46.60363487
46.7365152
50.13470889
41.71210299
43.97382294
43.85634139
44.22615015
44.09696623
41.8220283
38.21180789
38.29711788
39.84657915
35.91523794
37.00246195
36.9253111
37.1635975
37.08189393
35.98700479
34.1630432
34.2216831
34.99819193
32.99885903
33.56174651
33.50757691
33.67220737
33.61662339
33.04968094
151.0444897
152.5719592
107.4718279
108.3050142
126.6572818
82.02043255
93.7526425
93.12242462
95.0827747
94.40573295
82.50880088
64.5938198
64.86048446
72.53189961
53.62978575
58.65538397
58.45034014
59.08607171
58.8672015
53.79712366
46.12618365
46.23828645
49.55285656
41.31759643
43.53425106
43.43575846
43.74418087
43.63695683
41.40993561
37.89913659
37.97317451
39.48974492
35.64568537
36.70750455
36.63929404
36.85046057
36.77788298
35.71044651
33.93878636
33.99327375
34.75071724
32.80108803
33.34976264
33.29874987
33.45418935
33.40157745
32.84964053
145.4360336
146.7684456
104.4175979
105.1423235
122.5058216
80.22396791
91.35786507
90.80822009
92.51393962
91.92612463
80.65104805
63.6075684
63.84273217
71.18563979
53.01344831
57.87305256
57.69224289
58.25180793
58.05949268
53.16013033
45.71723253
45.81406902
49.05107954
40.98365047
43.16276943
43.07836676
43.34120606
43.25030865
41.06228214
37.62762287
37.69202706
39.1846729
35.40358188
36.44709901
36.38689837
36.57320921
36.50917775
35.46164122
33.73132698
33.78163522
34.52479949
32.6131893
33.15071048
33.10299579
33.24857866
33.19923196
32.6591896
140.5069474
141.6833878
101.7429004
102.3802799
118.8720764
78.64520755
89.26232437
88.77850566
90.27633112
89.76133201
79.02165306
62.73454524
62.94321471
69.99818994
52.47005008
57.18155571
57.02109358
57.51688734
57.34675039
52.59977405
45.36038949
45.44535226
48.61128929
40.69622012
42.8422508
42.76862789
42.99694181
42.91830463
40.76433918
37.39015571
37.44670744
38.92102442
35.18643609
36.21689542
36.16345888
36.32852334
36.27189001
35.23856133
33.53994831
33.58636381
34.31920447
32.43562499
32.96472395
32.9201766
33.0561096
33.0100247
32.47904764
136.1250963
137.1747588
99.3763834
99.94231354
115.6538289
77.2472576
87.41200883
86.98260107
88.30932529
87.85405441
77.58148399
61.95726713
62.14344089
68.94392359
51.98753062
56.56668165
56.42351614
56.86527092
56.71387703
52.1029854
45.04526566
45.12057491
48.22202192
40.44490476
42.56131327
42.49627436
42.69736057
42.62830641
40.50478521
37.18021902
37.23043411
38.69007559
34.9908024
36.01193533
35.96408299
36.11154434
36.06106716
35.03788181
33.36310759
33.40605397
34.13165668
32.26806113
32.79102637
32.74937406
32.87640078
32.83335926
32.30904523
132.1974149
133.14089
97.26329729
97.77045174
112.7768467
76.0006886
85.76468954
85.38023887
86.56529797
86.15952833
76.29959825
61.26075916
61.42809911
68.00198059
51.55631219
56.0166911
55.88798892
56.28425876
56.1487245
51.65979902
44.76418298
44.83163169
47.87478166
40.22219804
42.3120438
42.25389317
42.4331256
42.37175818
40.27552838
36.992394
37.0375312
38.48509589
34.81321757
35.82768519
35.78437555
35.91747125
35.87203195
34.8560961
33.19894077
33.23889593
33.95960806
32.10969002
32.62837957
32.58927081
32.70840329
32.66808142
32.1484705
128.6484935
129.5039449
95.35664495
95.81631428
110.1813809
74.87930099
84.28400279
83.93592325
85.00562757
84.64041044
75.14927604
60.63064387
60.78269719
67.15309062
51.16735021
55.52034479
55.40334611
55.76247576
55.64000228
51.26110175
44.51052017
44.57169362
47.56192037
40.02221227
42.08811482
42.03542994
42.19724825
42.14202863
40.07034987
36.82225213
36.86333593
38.30074052
34.65053957
35.66024505
35.62060895
35.74206858
35.70071642
34.68995969
33.04560647
33.0830145
33.80060266
31.95947771
32.47537779
32.43847303
32.55074981
32.51279609
31.99631356
125.4095795
126.1934288
93.61517702
94.03709251
107.8138846
73.85873845
82.93713943
82.61785847
83.59572538
83.26295025
74.10567563
60.05338246
60.19344616
66.37917901
50.81203225
55.0668808
54.9589941
55.28888397
55.17679376
50.89815645
44.27832675
44.33466744
47.27632656
39.84009088
41.88413078
41.83565934
41.98392978
41.93353094
39.8841804
36.66615671
36.7040375
38.13265997
34.50010029
35.50637574
35.46969043
35.58178631
35.54372847
34.53668734
32.90151032
32.93674292
33.65250469
31.8164953
32.33075369
32.29577382
32.40208317
32.36618456
31.8516004
122.4207997
123.1471093
92.00265794
92.39564418
105.6277018
72.91662754
81.69488971
81.39739837
82.30469153
81.99715511
73.1459731
59.51611486
59.64735986
65.66338991
50.48215774
54.64607646
54.54480998
54.85301053
54.74875847
50.56266858
44.06207723
44.11492161
47.01128517
39.67161354
41.69525566
41.64987066
41.78807691
41.74130273
39.71265542
36.52105614
36.55644119
37.97716124
34.3596733
35.36337341
35.32904537
35.43365775
35.39823288
34.39394012
32.76534297
32.79870108
33.51353407
31.68000526
32.19347409
32.16019149
32.26124829
32.22715333
31.71354944
119.6253545
120.3078368
90.48486116
90.85730022
103.5790406
72.03179178
80.5297765
80.24755486
81.10432757
80.81520973
72.24870735
59.00682086
59.13209714
64.98970931
50.1700786
54.24829325
54.15144401
54.44484961
54.34606068