/*--------------------------------*- C++ -*----------------------------------*\
| =========                 |                                                 |
| \\      /  F ield         | OpenFOAM: The Open Source CFD Toolbox           |
|  \\    /   O peration     | Version:  v2012                                 |
|   \\  /    A nd           | Website:  www.openfoam.com                      |
|    \\/     M anipulation  |                                                 |
\*---------------------------------------------------------------------------*/
FoamFile
{
    version     2.0;
    format      ascii;
    class       surfaceScalarField;
    location    "1.32";
    object      meshPhi;
}
// * * * * * * * * * * * * * * * * * * * * * * * * * * * * * * * * * * * * * //

dimensions      [0 3 -1 0 0 0 0];
oriented        oriented;


internalField   nonuniform List<scalar> 
6430
(
0
0
0
0
0
0
0
0
0
0
0
0
0
0
0
0
-5.162148228e-06
0
6.234511214e-06
-3.774608813e-05
-4.260348757e-05
-3.106515726e-05
0.000196910859
3.302413958e-05
-0.0003158469376
-8.826723995e-05
0.0007759191661
8.985701317e-05
-0.0009399008587
-0.0001279296247
0.001371835925
0.0001281305288
-0.001478291889
-0.0001144706718
0.001610540236
0.0001140098182
-0.000806293361
-0.0008037860209
-1.829778168e-05
0.0004030552509
1.818560031e-05
-0.0004029430695
0
0
0
0
0
0
0
0
0
0
0
0
0
0
0
0
-7.608962285e-06
0
6.3220242e-06
-4.85489713e-05
-4.399197357e-05
-3.60020763e-05
0.0002184155132
3.500128483e-05
-0.0003411811152
-9.378890276e-05
0.0007969867236
9.224573617e-05
-0.0009567143841
-0.0001312934484
0.001367347505
0.000129852018
-0.00146237755
-0.000113891413
0.001571860068
0.000113891413
-0.0007873227941
-0.0007845372736
-1.852674612e-05
0.0007873227941
3.636766016e-05
-1.784091402e-05
-0.0003937812439
-0.0003935415502
0
0
0
0
0
0
0
0
0
0
0
0
0
0
0
0
-4.004349709e-06
0
1.49482718e-06
-2.137447316e-05
-1.325517558e-05
-2.788711518e-05
0.0001492861546
2.442456218e-05
-0.0002509436455
-8.097957848e-05
0.0006533043564
7.525803753e-05
-0.0008014364707
-0.0001187748953
0.001207779748
0.000112806214
-0.001314252989
-0.0001119874885
0.001506219544
0.0001093768961
-0.00152732062
-3.636766014e-05
0.001533484231
6.999339933e-05
-0.001533484231
-3.36257392e-05
0
0
0
0
0
0
0
0
0
0
0
0
0
0
0
0
-3.68503269e-08
0
0
-1.136826637e-07
0
-1.263860755e-05
4.864219875e-05
8.847379167e-06
-0.0001089457532
-5.391439208e-05
0.0003991247575
4.597358287e-05
-0.0005186699493
-8.882090964e-05
0.0008830039008
7.926417396e-05
-0.0009928191269
-9.352635129e-05
0.00124874849
8.569494858e-05
-0.001306086199
-6.591262879e-05
0.001402299699
6.157033411e-05
-0.001414047147
0
0
0
0
0
0
0
0
0
0
0
0
0
0
0
0
0
0
0
0
0
-9.89672824e-07
1.06849876e-07
1.662696998e-07
-8.000737405e-06
-2.264413347e-05
0.0001363693268
1.584143567e-05
-0.0002071456732
-4.895408178e-05
0.0004595145039
3.917293458e-05
-0.0005461945032
-5.76998724e-05
0.0007758367493
4.795570545e-05
-0.0008359606156
-4.252345921e-05
0.0009529662551
3.538258138e-05
-0.0009697138737
0
0
0
0
0
0
0
0
0
0
0
0
0
0
0
0
0
0
0
0
0
0
0
0
0
-1.937636371e-06
3.430741935e-06
3.093176217e-07
-1.583311417e-05
-1.440083627e-05
0.0001088656675
8.436243492e-06
-0.0001512213048
-2.187362334e-05
0.0002818262784
1.502140771e-05
-0.0003202404189
-1.6259127e-05
0.0004005352761
1.1365952e-05
-0.0004127856488
0
0
0
0
0
0
0
0
0
0
0
0
0
0
0
0
0
0
0
0
0
0
0
0
0
0
0
0
0
-4.800549652e-08
0
0
-5.432273461e-07
-1.942332746e-06
1.479640429e-05
3.076565564e-07
-2.288927601e-05
-2.076883757e-06
4.454712251e-05
6.759999249e-07
-4.838849452e-05
0
0
0
0
0
0
0
0
0
0
0
0
0
0
0
0
0
0
0
0
0
0
0
0
0
0
0
0
0
0
0
0
0
0
0
0
0
0
0
0
0
0
0
0
0
0
0
0
0
0
0
0
0
0
0
0
0
0
0
0
0
0
0
0
0
0
0
0
0
0
0
0
0
0
0
0
0
0
0
0
0
0
0
0
0
0
0
0
0
0
0
0
0
0
0
0
0
0
0
0
0
0
0
0
0
0
0
0
0
0
0
0
0
0
0
0
0
0
0
0
0
0
0
0
0
0
0
0
0
0
0
0
0
0
0
0
0
0
0
0
0
0
0
0
0
0
0
0
0
0
0
0
0
0
0
0
0
0
0
0
0
0
0
0
0
0
0
0
0
0
0
0
0
0
0
0
0
0
0
0
0
0
0
0
0
0
0
0
0
0
0
0
0
0
0
0
0
0
0
0
0
0
0
0
0
0
0
0
0
0
0
0
0
0
0
0
0
0
0
0
0
0
0
0
0
0
0
0
0
0
0
0
0
0
0
0
0
0
0
0
0
0
0
0
0
0
0
0
0
0
0
0
0
0
0
0
0
0
0
0
0
0
0
0
0
0
0
0
0
0
0
0
0
0
0
0
0
0
0
0
0
0
0
0
0
0
0
0
0
0
0
0
0
0
0
0
0
0
0
0
0
0
0
0
0
0
0
0
0
0
0
0
0
0
0
0
0
0
0
0
0
0
0
0
0
0
0
0
0
0
0
0
0
0
0
0
0
0
0
0
0
0
0
0
0
0
0
0
0
0
0
0
0
0
0
0
0
0
0
0
0
0
0
0
0
0
0
0
0
0
0
0
0
0
0
0
0
0
0
0
0
0
0
0
0
0
0
0
0
0
0
0
0
0
0
0
0
0
0
0
0
0
0
0
0
0
0
0
0
0
0
0
0
0
0
0
0
0
0
0
0
0
0
0
0
0
0
0
0
0
0
0
0
0
0
0
0
0
0
0
0
0
0
0
0
0
0
0
0
0
0
0
0
0
0
0
0
0
0
0
0
0
0
0
0
0
0
0
0
0
0
0
0
0
0
0
0
0
0
0
0
0
0
0
0
0
0
0
0
0
0
0
0
0
0
0
0
0
0
0
0
0
0
0
0
0
0
0
0
0
0
0
0
0
0
0
0
0
0
0
0
0
0
0
0
0
0
0
0
0
0
0
0
0
0
0
0
0
0
0
0
0
0
0
0
0
0
0
0
0
0
0
0
0
0
0
0
0
0
0
0
0
0
0
0
0
0
0
0
0
0
0
0
0
0
0
0
0
0
0
0
0
0
0
0
0
0
0
0
0
0
0
0
0
0
0
0
0
0
0
0
0
0
0
0
0
0
0
0
0
0
0
0
0
0
0
0
0
0
0
0
0
0
0
0
0
0
0
0
0
0
0
0
0
0
0
0
0
0
0
0
0
0
0
0
0
0
0
0
0
0
0
0
0
0
0
0
0
0
0
0
0
0
0
0
0
0
0
0
0
0
0
0
0
0
0
0
0
0
0
0
0
0
0
0
0
0
0
0
0
0
0
0
0.0004040361245
-0.0004040362973
-1.829760885e-05
0.000394752873
-0.000394752873
-1.852674613e-05
0.001620411807
-0.0001142568681
-0.0008115183331
-0.0008091072776
3.868868651e-05
-0.0004049827252
-3.878606685e-05
0.00080911623
0.001569611597
-0.0001166238606
-0.0007771348339
-0.000789744315
3.911275511e-05
-0.000394991442
-3.91127551e-05
0.000789744315
-0.0004032308759
0.0008062840332
3.869078012e-05
1.830202866e-05
0.0003992043555
-0.0003991668968
-1.833948742e-05
6.962683296e-06
-0.0001978421342
-7.585958523e-06
0.0001984654095
-8.367495435e-06
-0.0002003558742
0.0002006845788
8.038790864e-06
0.0007703743969
-0.0007703743969
-3.636766017e-05
-0.0002014748539
-8.581789704e-06
0.0002016891481
7.856960764e-06
-0.0002010455826
-8.286231996e-06
-0.0003980822484
1.259936018e-05
0.0003961935781
-5.095533274e-06
-5.615156564e-06
-0.0001976671798
0.0001980385033
6.591359723e-06
0.0003984449625
1.822951703e-05
-0.0003983724509
-5.217813899e-06
5.032463775e-06
-0.0001974818296
1.301043656e-05
-0.0003981598158
-5.413454121e-06
-7.519415113e-06
7.435187657e-06
-0.0001999341011
-5.645781337e-06
-0.0001974141668
0.0001984918796
5.963487223e-06
-5.266590924e-06
-0.0001999039499
0.0002002784422
4.892098611e-06
-1.512076073e-05
0.0004008503386
1.508986794e-05
-0.0004008194458
1.509267485e-05
0.0003991267002
-1.528490293e-05
-0.0001995324655
-0.0001994020067
-1.52893556e-05
0.0004028585342
1.516361386e-05
-0.0004027327924
0.000401415572
-0.0004013680068
-1.516832594e-05
-0.0001993840791
-5.723425412e-06
0.0001998409136
-6.141364304e-06
-0.000202793912
0.000203018297
5.916979336e-06
-1.528235626e-05
0.0004062926914
1.524102968e-05
-0.0004062513648
0.0004039932775
-0.0004039921814
-1.529045173e-05
0.0004065568066
-0.0004065868834
-1.525227949e-05
-0.0002027476226
-6.416484958e-06
0.0002030227433
5.816138828e-06
-0.0002024092049
-6.154556591e-06
5.439304443e-06
-0.0002024170777
0.0003982915458
1.493007434e-05
-0.0001991454159
-0.0001989835294
-2.844027568e-07
0.0004380103259
-9.171317654e-06
-0.0002054354985
-0.0002231191071
-0.0002250444372
-1.71714256e-06
-3.114804295e-06
0.0002298763841
-4.923536097e-05
4.91464084e-06
-0.0001807237171
6.755734845e-07
-5.560149682e-07
0.0001971905217
-3.069301106e-06
-0.0001984257599
0.0001988103942
2.684666805e-06
4.823060215e-06
-0.0001988419322
-5.365207132e-06
5.297150335e-05
-1.843969246e-05
0.0001639600687
-0.0001985869561
-3.622422196e-06
0.0001991400772
-0.0002026462635
0.0002547061413
9.116255358e-07
4.190186409e-06
-0.0001992710761
4.570374323e-06
2.041203997e-06
-2.587301273e-06
0.001533440749
-0.001542411501
-0.0001134363068
8.096907805e-05
0.001542810813
-0.0007724364166
-4.185632293e-05
-3.911275512e-05
0.0007873227941
3.911275513e-05
3.636766016e-05
0.000780059356
-0.000780059356
-3.636766016e-05
-0.000780059356
2.813778595e-05
-2.813778595e-05
0.000780059356
-0.0003952617386
0.0003945093942
1.33517046e-05
-0.0002028526243
-7.216516092e-06
0.000202135514
7.933626375e-06
-7.297842998e-06
0.000200814672
7.526813209e-06
-0.0002010436422
7.462407059e-06
0.0001993018516
-0.0001991445825
-7.619676185e-06
1.303264324e-05
-0.0003952839453
2.539480504e-05
-0.000780059356
-2.539480505e-05
7.233771812e-06
0.0002027441835
-0.0002024168034
-7.561151933e-06
-5.812240199e-06
0.000204734584
7.422900952e-06
-0.0002063452448
-0.0002744553705
0.0002234711976
4.926703031e-05
0.0003777158665
1.58097086e-05
-0.0002110164094
-0.0001827935684
0.0003947486508
1.542109168e-05
-0.0003943785388
-1.579120364e-05
0.0001989868743
7.255637104e-06
-0.0001987801043
6.784228162e-06
0.0001989993946
-0.0001989139957
-6.869627048e-06
-0.0001977386316
5.188435958e-06
-5.682743704e-06
0.0001982329393
1.458394797e-06
4.443960801e-06
-4.585653821e-06
-0.0001975969386
5.049008455e-05
-0.0001957928492
-1.194463795e-05
0.0001572474026
-0.0003947629076
1.136043164e-05
-1.174641091e-05
0.0003951488869
0.0001911004971
1.296123483e-06
-0.0003236907315
6.362694155e-06
0.0002008916728
-0.0002005320384
-6.722328541e-06
-5.532870334e-05
1.976831424e-05
-0.0001672922352
-6.648419284e-06
0.0002004443652
6.68703714e-06
-0.0002004829831
0.0002001455584
-0.0002005111588
-6.932242546e-06
-0.0002036418302
-5.601424572e-06
0.0002020267387
-0.0002007092132
-6.891889522e-06
0.0002010866343
6.514468427e-06
-7.020865851e-06
0.0002016563092
6.947609126e-06
-0.0002015830525
0.0002003953689
-0.0002002616466
-6.782141578e-06
0.0002023927674
6.902023876e-06
-0.0002020610195
0.0002043864848
-0.000205158721
-5.040003989e-06
-0.0001980428006
0.0001987127926
4.518443914e-06
0.0001990121312
6.796736318e-06
-0.0001990246393
9.230734279e-06
0.0002228093417
-0.000224218714
-7.82136192e-06
-0.000188088893
3.90350906e-05
-1.585792748e-05
0.0001649117299
-0.0001982697067
0.0002479032461
8.565451597e-07
3.333208343e-06
-0.0001969320481
-1.219070672e-05
5.030012165e-05
-0.0001981120043
0.0001600025894
4.458558039e-06
-0.0001972950172
-2.956390023e-06
9.879665077e-07
-0.0001979943057
-1.239995858e-06
0.0001982463351
6.045234944e-06
-0.000200391754
-2.615547446e-05
0.0002796624126
-3.877593919e-06
-0.0002003930755
0.0002004004128
3.870256561e-06
-0.000196283475
2.320759574e-05
0.0001608851725
-0.0002008445903
-4.821413593e-06
0.00020178841
-0.0002555973742
-3.373159373e-06
-7.393532571e-06
0.0002011661209
7.287021327e-06
-0.0002010596096
0.0002018698099
-0.0002018084716
-7.082204148e-06
-7.309486555e-06
0.0002013092698
-6.684295385e-06
0.000203709424
7.709455415e-06
-7.10959006e-06
0.0002027063842
7.22143272e-06
-0.0002028182269
0.0002017470819
-0.0002017950679
-7.345546591e-06
-8.008271942e-06
6.150598967e-06
-0.0001991879097
0.0002027453421
-2.030916586e-05
-0.0001904444481
-8.343389876e-06
0.0002028024999
4.68448217e-06
0.0001974121406
-0.000197064159
-0.000199793518
7.131201652e-06
0.000200097504
-5.517836486e-06
5.27278442e-06
-0.0001995484659
-0.0001993013386
-7.756621017e-06
0.0001988399068
-0.0001967290671
-6.908211013e-06
0.0002031918497
6.903123112e-06
-0.0002031867618
0.0002028083217
-0.0002029582244
-6.959687356e-06
-5.974119958e-06
0.0002036763094
-7.290395753e-06
0.0002026705555
7.01260765e-06
-7.114816513e-06
0.0002030019045
7.061391801e-06
-0.0002029484798
0.0002033406243
-0.0002032913223
-6.95751299e-06
-5.867760597e-06
5.502656178e-06
-0.0002020441004
0.0002023562993
-0.0002020363935
-6.187666367e-06
0.0002027308475
-6.52910478e-06
-0.0002026517922
5.109339768e-06
0.0002029817569
-5.076204662e-06
4.486788072e-06
-0.0002020623756
-0.0002019906261
0.0002082218892
-0.0002072265165
-4.110177053e-06
6.84325805e-06
-5.780233269e-06
0.0002071588644
1.004110621e-05
0.0002266785359
-0.0002019725912
-2.094368219e-05
0.0002229162734
-2.341919965e-06
-0.0001999699557
0.0001972449661
1.049872668e-06
4.025661164e-06
-0.0001978368098
7.219710864e-06
-0.0001890174324
-6.291171474e-06
-4.82661024e-06
4.314904931e-06
-0.0001983302268
0.0001992840239
-5.048398301e-06
-0.0001990622359
-5.727281374e-06
0.0001996460982
3.581764964e-07
0.0001727788252
-2.278230958e-05
0.0002774884508
-0.000197802031
1.286624286e-05
0.0001621534786
4.011942644e-06
-0.0002009023481
-0.0002001182489
3.523436777e-06
0.0002007849985
-3.839138244e-06
8.544656896e-07
-0.0001971335763
-0.0001987953094
4.056922121e-06
-4.885059203e-06
5.677687126e-06
0.0002028009626
-0.0002027251091
5.464153696e-06
0.0002021456114
-0.0002019320779
0.0002590663878
1.857962847e-05
-0.0002776460163
-0.0002050079311
0.0002040874421
-5.646633027e-05
-0.0001688507667
-3.745187213e-06
0.0002138391651
9.317229626e-06
-0.0002139256604
5.871584545e-06
0.0001976554294
-0.0001979868475
-5.54016642e-06
-0.000205931966
3.429148739e-07
4.802680027e-06
0.0002007863711
0.0001981663234
-0.0001976722982
-6.176768886e-06
6.338750499e-06
-6.800309222e-06
0.0001986278821
5.888545274e-06
0.0001986831446
-0.0001975734699
2.3614944e-05
-0.0001948604771
0.0001593008952
-0.0002518670047
0.0002754819487
2.464753132e-07
-0.0002195248884
1.334644715e-05
1.177237834e-05
-0.0002019948588
-1.523254448e-05
0.000205455025
-0.0001726432138
0.0002092631683
2.415136143e-06
-5.148713859e-06
5.113793943e-06
-0.0002004971185
0.0002001859552
-0.0002000618846
0.0002005948283
0.0002006982142
-0.000188686521
4.983464549e-06
-5.055817779e-06
-0.0002019640403
4.869382534e-06
-0.0002019300184
5.242649643e-06
0.0002017850237
-0.0002015635197
0.0002018105598
-0.0002016237279
-3.820207425e-06
-0.0002050837008
0.0002034354307
-0.0002027688501
0.0002035047665
9.85083322e-07
-4.226436368e-06
-0.000199527497
-0.000185518989
4.659081437e-06
-0.000201780325
-0.0002016297306
5.624075595e-06
0.0001989772623
-0.0002012522606
0.0002010961029
-0.0002008439937
0.0001832409598
-3.409344112e-06
-0.0001956895432
4.42977525e-05
-1.037500414e-05
0.0001493182115
7.236891152e-06
-2.338351394e-05
0.00027128676
-0.0001898052854
0.0001560467673
-0.0001923580843
-0.0001998527053
-0.0002005961513
-9.707317666e-07
-3.260096622e-06
-0.0001999826094
2.646554737e-06
-2.695894052e-06
-0.0001986762069
-0.0001999122143
0.0002002301679
-5.081714682e-06
-0.0001998788979
-0.0002003596747
0.000167693515
-1.218805808e-05
5.083691818e-05
-0.0001980361389
0.0001593872788
2.323078165e-05
-0.0001970908419
0.0001616720022
3.154715064e-07
-0.0001992948405
0.0002515971964
-0.0002004448067
0.0002748047921
-0.0002534646254
0.0002766954071
0.0001990495391
-0.00019985901
5.148347994e-05
0.000160432302
-1.92735505e-07
1.896932614e-05
-0.0002745667003
0.0002020729895
-0.0001822491976
0.0002022232669
0.0001907340193
-0.0003094220768
-3.097213322e-05
-0.0007716680744
7.294272181e-05
-7.356781906e-05
0.0006030310513
-0.0009374002027
-8.767421939e-05
-0.001375899377
0.000121820995
-0.0001211729439
0.001245967284
-0.001482060938
-0.0001273483825
0.0001239869144
-0.0001237514251
0.001606756056
0.0002196849133
-0.0003429942373
-3.533691212e-05
-0.0008002990439
7.970411636e-05
-7.908845872e-05
0.000639551073
0.0006075766222
7.585447904e-05
-0.0009603837375
-9.327700276e-05
-0.001371064593
0.0001260053661
-0.0001259905917
0.001251942165
0.001244210391
0.0001225755696
-0.001465488499
-0.0001314734806
0.0001242268455
-0.0001254800411
0.001565499862
0.001598855158
0.0001242382383
0.0001096342672
0.001605602777
-0.0008013489507
-0.0007998782756
5.027651012e-05
-0.0007997022491
-5.027104835e-05
0.0007996967873
-5.025164438e-05
-0.0008062665392
0.0008062593881
5.025879549e-05
1.829953442e-05
0.0004015310348
-0.0004014958819
-1.833468733e-05
1.591604443e-05
-1.595703746e-05
0.000401456565
-1.601309266e-05
0.0004028639632
1.600766361e-05
0.0001721783745
-0.0002811360003
-3.087206646e-05
-0.0007020809916
6.775952771e-05
-7.22200695e-05
0.0005517279934
0.0006366946641
7.825922732e-05
-0.0008543283253
-8.577828097e-05
-0.001263001374
0.0001126516107
-0.0001177411995
0.001140295292
0.001247974729
0.0001244360747
-0.001366143417
-0.0001236088121
0.0001184566393
-0.0001211168232
0.001502385601
0.001565347321
0.0001238035334
-0.001562540233
0.0001138839346
0.001562512225
0.000102915016
-0.0007800593559
-5.282810935e-05
-5.008690668e-05
-0.0007824808769
-5.008690667e-05
-0.0007873227941
0.0007873227941
5.008690668e-05
3.636766016e-05
0.0007845372736
-0.0003925710458
-0.0003919662278
1.646918998e-05
-0.0003919662278
-1.646918997e-05
0.0003919662278
-1.64705974e-05
-0.0003937798365
0.0003937812439
1.646918998e-05
7.245698265e-05
-0.0001446849718
-1.663013077e-05
-0.0004683480089
4.29671273e-05
-4.990690581e-05
0.0003468939806
0.0005082984279
6.246487715e-05
-0.0005969907527
-6.156609771e-05
-0.0009779254485
8.224382026e-05
-9.111600698e-05
0.0008563131654
0.001083938085
0.0001064564318
-0.001089072951
-9.771149707e-05
-0.001336648783
9.579950785e-05
-0.0001033176951
0.00126971785
0.001464399912
0.0001146664871
-0.001388072335
-0.0001001636057
-0.001465821666
7.493544651e-05
-7.858249195e-05
0.001450397536
0.001533484231
8.096907803e-05
-0.001473917711
-6.876025202e-05
3.135546945e-06
-2.356536548e-05
-2.778444522e-06
-0.0001953636236
1.554902604e-05
-2.188962612e-05
0.0001223132861
0.0002880518152
3.58371974e-05
-0.0002798894031
-3.010224851e-05
-0.0005665041849
4.342723661e-05
-5.315497867e-05
0.0004690298458
0.0007649089688
7.280879544e-05
-0.0006615165618
-5.907565978e-05
-0.0009062119917
5.778625512e-05
-6.792433353e-05
0.0008334011657
0.001177190151
8.72297881e-05
-0.0009684907649
-6.746569714e-05
-0.001087110993
4.830342048e-05
-5.61203586e-05
0.001059084252
0.001381422179
6.979096536e-05
-0.001103756435
-4.952112012e-05
0
0
0
-1.754573008e-05
4.249719148e-07
-2.150671771e-06
3.37641677e-06
7.769461958e-05
9.971525562e-06
-4.443719428e-05
-5.231522922e-06
-0.0001788720088
1.11217021e-05
-1.771658618e-05
0.0001275431162
0.0003720243596
3.411079682e-05
-0.0002333825722
-2.165651095e-05
-0.0003929417014
2.115037478e-05
-2.918069628e-05
0.0003425163536
0.0007064784983
4.775286546e-05
-0.0004382594652
-2.978017681e-05
-0.0005311880984
1.883581307e-05
-2.53412349e-05
0.0005083242343
0.0009249784103
4.034164881e-05
-0.0005451335334
-2.199743814e-05
0
0
0
0
0
0
0
0
0
0
0
-3.249341553e-06
0
-3.315575213e-07
2.155075911e-07
7.068253957e-05
5.895196785e-06
-9.77770057e-06
-1.111550375e-06
-4.997570618e-05
1.418261997e-06
-4.259299801e-06
3.455210472e-05
0.0002397009479
1.422759626e-05
-6.555876588e-05
-4.97513413e-06
-0.0001020562453
2.37061976e-06
-4.987301124e-06
9.252313703e-05
0.0003805876666
1.322874829e-05
-0.0001080887341
-4.293051941e-06
0
0
0
0
0
0
0
0
0
0
0
0
0
0
0
0
0
0
0
0
0
0
0
7.960363441e-06
1.0831358e-07
0
0
0
0
0
0
3.861310381e-05
7.262082002e-07
0
0
0
0
0
0
0
0
0
0
0
0
0
0
0
0
0
0
0
0
0
0
0
0
0
0
0
0
0
0
0
0
0
0
0
0
0
0
0
0
0
0
0
0
0
0
0
0
0
0
0
0
0
0
0
0
0
0
0
0
0
0
0
0
0
0
0
0
0
0
0
0
0
0
0
0
0
0
0
0
0
0
0
0
0
0
0
0
0
0
0
0
0
0
0
0
0
0
0
0
0
0
0
0
0
0
0
0
0
0
0
0
0
0
0
0
0
0
0
0
0
0
0
0
0
0
0
0
0
0
0
0
0
0
0
0
0
0
0
0
0
0
0
0
0
0
0
0
0
0
0
0
0
0
0
0
0
0
0
0
0
0
0
0
0
0
0
0
0
0
0
0
0
0
0
0
0
0
0
0
0
0
0
0
0
0
0
0
0
0
0
0
0
0
0
0
0
0
0
0
0
0
0
0
0
0
0
0
0
0
0
0
0
0
0
0
0
0
0
0
0
0
0
0
0
0
0
0
0
0
0
0
0
0
0
0
0
0
0
0
0
0
0
0
0
0
0
0
0
0
0
0
0
0
0
0
0
0
0
0
0
0
0
0
0
0
0
0
0
0
0
0
0
0
0
0
0
0
0
0
0
0
0
0
0
0
0
0
0
0
0
0
0
0
0
0
0
0
0
0
0
0
0
0
0
0
0
0
0
0
0
0
0
0
0
0
0
0
0
0
0
0
0
0
0
0
0
0
0
0
0
0
0
0
0
0
0
0
0
0
0
0
0
0
0
0
0
0
0
0
0
0
0
0
0
0
0
0
0
0
0
0
0
0
0
0
0
0
0
0
0
0
0
0
0
0
0
0
0
0
0
0
0
0
0
0
0
0
0
0
0
0
0
0
0
0
0
0
0
0
0
0
0
0
0
0
0
0
0
0
0
0
0
0
0
0
0
0
0
0
0
0
0
0
0
0
0
0
0
0
0
0
0
0
0
0
0
0
0
0
0
0
0
0
0
0
0
0
0
0
0
0
0
0
0
0
0
0
0
0
0
0
0
0
0
0
0
0
0
0
0
0
0
0
0
0
0
0
0
0
0
0
0
0
0
0
0
0
0
0
0
0
0
0
0
0
0
0
0
0
0
0
0
0
0
0
0
0
0
0
0
0
0
0
0
0
0
0
0
0
0
0
0
0
0
0
0
0
0
0
0
0
0
0
0
0
0
0
0
0
0
0
0
0
0
0
0
0
0
0
0
0
0
0
0
0
0
0
0
0
0
0
0
0
0
0
0
0
0
0
0
0
0
0
0
0
0
0
0
0
0
0
0
0
0
0
0
0
0
0
0
0
0
-1.605333429e-05
0.0004040335191
-1.602042474e-05
0.0004062589217
1.605419436e-05
-1.826245914e-05
0.0004062266025
1.830044418e-05
-0.0004062645876
-1.647335235e-05
0.0003947514057
-1.558269762e-05
0.0003768182347
1.648032941e-05
-1.70928404e-05
0.0003765183622
1.852674612e-05
-0.0003779522679
1.06678357e-05
-1.067526414e-05
-0.0008091536059
-5.021235342e-05
0.0008091143149
-0.0008161643167
0.0008161612179
5.023782347e-05
0.001629797668
-0.0008161595651
-0.0008136528085
-0.0004075161868
0.0008161676139
3.884125524e-05
4.736631276e-05
-0.0008161688437
4.741762884e-05
-0.0008091568094
-4.741442529e-05
-0.000789744315
-5.008690667e-05
0.000789744315
-0.0008022503676
0.0008022853386
5.024153906e-05
0.001627029983
-0.0008035713673
-0.0008304482091
-3.863265313e-05
-0.0003987733313
0.0008024463798
3.340456716e-05
-4.743959385e-05
4.759146564e-05
-0.0008024022394
4.734333886e-05
-0.000789744315
-4.734333886e-05
4.742381788e-05
-0.0008062727282
-0.0007997072226
-4.743462032e-05
-0.0004002991309
-3.88855505e-05
0.0007997563838
1.591487616e-05
-1.595632281e-05
0.0003991681469
0.0004008495255
1.591685749e-05
0.0004008489253
1.830023759e-05
-0.0004008496285
0.0001991683362
-7.914387853e-06
8.063233985e-06
-8.251562548e-06
0.0001993566647
7.647682201e-06
0.0001988809612
7.902761885e-06
-8.123578399e-06
0.0002009053953
-0.0002004429694
0.0002006825279
7.663203379e-06
7.69332548e-06
-0.0007703743969
2.813778595e-05
-2.813778597e-05
0.0007703743969
-0.000777637835
0.000777637835
2.813778595e-05
0.000777637835
3.636766015e-05
-0.000777637835
2.539480504e-05
-0.000777637835
2.539480506e-05
-0.0007703743969
-2.539480504e-05
0.0003941519501
1.029851942e-05
0.0003919663206
-1.029689894e-05
0.0002026406984
-8.419988152e-06
8.222726221e-06
-8.055842187e-06
0.0002024738144
0.000201788296
0.0002033349802
-0.0002032881375
-7.161659147e-06
-7.524475618e-06
0.0002029782634
0.0004066087262
-0.0004066056545
-1.82655309e-05
-1.606360519e-05
0.0004065999871
-0.0002048881587
0.0002018710655
3.360008075e-06
0.0001979034937
6.207957469e-06
-0.0001982398666
0.0003951035084
1.367760713e-05
-6.569957936e-06
-6.017579482e-06
7.226127374e-06
0.0001984600582
-0.0001978267315
0.0001982525496
0.000435995736
-0.0004364479252
-1.664065127e-05
-1.571963931e-05
0.0004381472676
0.000398332528
1.587389394e-05
-0.0003962823219
1.34687174e-05
-7.368503958e-06
-7.977707315e-06
-0.0002002818122
0.0002036928803
8.361310242e-06
4.57777902e-06
-0.0002092194624
5.673475637e-06
-5.830720901e-06
0.0002004356875
-0.0002009023234
0.0002007481504
5.827648563e-06
4.774773759e-06
-0.0004000212634
1.494786653e-05
0.0004001632648
-1.421938719e-05
7.243073684e-06
-0.0002001396102
7.240218717e-06
-1.415612502e-05
-0.0002004383428
7.347766876e-06
-7.405735362e-06
0.0001993598201
0.0002006623636
7.395382087e-06
0.000400450666
-0.0002005881997
-0.0002001995027
-0.0004033165287
1.518401169e-05
0.0004032961309
-1.422994273e-05
1.437526953e-05
-0.0002015920457
-1.482048257e-05
-0.0002009761317
-1.448261569e-05
-0.0002006461472
0.0004027492162
-0.0002012002531
0.0004027649019
0.0002000621662
-6.139493493e-06
6.097242027e-06
-6.375723107e-06
0.0002003406473
0.0002001074347
6.345233397e-06
-6.420701432e-06
0.000203093765
-0.0002030922507
0.0002031325812
6.304902885e-06
5.806485545e-06
-0.000405697139
1.523686971e-05
0.0004057012989
-1.445721156e-05
1.451891523e-05
-0.000202950521
-1.442666407e-05
-0.0002030900626
-1.470645611e-05
-0.000202359126
0.0004050175198
-0.0002024986764
0.0004049639378
-0.0004073406337
1.5339904e-05
0.0004074242667
1.46901409e-05
-0.0002038740112
-1.436991186e-05
-0.0002033030113
0.0004064696179
-0.0002031474844
0.0004065572424
0.0002030480382
-6.733675624e-06
6.624002835e-06
-6.757941735e-06
0.0002031819771
0.0002032260447
1.46580066e-05
0.0003985851142
-0.0001992437985
-0.0001990692479
6.968839576e-06
-7.029339518e-06
0.0001990598945
0.0001991293766
7.205264579e-06
8.254386687e-06
-7.585903606e-06
0.0002221408586
0.0001989871197
6.993851068e-06
0.0004047944383
-0.0001989912378
-0.0002003165116
0.000193786176
-8.981506474e-07
2.208338093e-06
-2.518283476e-06
0.0001940961214
0.0001896932649
9.705594935e-06
3.650196591e-06
-3.516009305e-06
-0.0001992502765
2.917863691e-06
1.883701963e-06
-0.0001984493117
0.0001998063636
-4.220108869e-06
-0.0001992086769
3.670772664e-06
-4.309215749e-06
4.695673956e-06
3.350127505e-06
-0.000102915016
-0.001542810813
0.0001028196656
0.001552854149
-0.001552854149
0.00155112514
-3.911275513e-05
0.000777637835
3.911275513e-05
9.194122361e-05
-4.734333886e-05
-0.000777637835
-0.0007752163141
-4.459788475e-05
9.194122361e-05
4.734333886e-05
-0.0007873227941
-0.000780059356
-4.734333886e-05
-3.911275512e-05
0.000780059356
-3.362573918e-05
-0.000780059356
3.362573919e-05
0.0007824808769
-0.0007824808769
-1.715654922e-05
0.0007824808769
0.0007824808769
-1.372603533e-05
-0.0007824809937
-1.441163383e-05
3.088217136e-05
-1.578335788e-05
-1.509881349e-05
3.088217136e-05
1.578470544e-05
-0.0003941434502
-0.0003919662278
-1.578335787e-05
-0.0003919668118
-1.372545133e-05
0.0003919662278
8.100353134e-06
0.0002015164438
-7.481282931e-06
-0.0002007174527
0.0002005662433
-0.0002004445629
7.671085025e-06
0.0002003002911
-7.881765903e-06
8.00344631e-06
-7.408964265e-06
-7.930964669e-06
7.667343425e-06
0.0001994291464
0.0001994805552
1.304017929e-05
-0.0003919671143
-1.303987677e-05
1.098277294e-05
-1.098307545e-05
0.0003919666231
0.0003945258019
1.098657983e-05
-2.265130905e-05
2.265130906e-05
0.0007824810866
-1.166865292e-05
-1.235453291e-05
-7.052755585e-06
6.781563573e-06
0.0002030821977
0.0002033700113
1.805540404e-05
0.0002154568998
-0.0001527118496
0.0001709376755
-1.704217858e-07
-7.522269901e-05
-2.822212031e-05
-0.0003952221492
1.54384125e-05
0.0003955934453
1.404926625e-05
-0.0001971106677
-7.686289236e-06
-6.819029134e-06
0.0002134262705
8.667281283e-06
-1.437489216e-05
1.509986173e-05
0.0003953386036
-0.0001977607359
0.0003949858124
-0.0001986153902
7.079779284e-06
0.000198791248
-7.347297234e-06
6.984456669e-06
-6.662602761e-06
6.431751606e-06
0.000198949736
0.0001991598883
-5.139588718e-07
0.0003961485524
-1.252091155e-05
-0.0003953740517
1.318747217e-05
-9.352044593e-06
0.0002000956248
-8.064312241e-06
1.205403718e-05
7.146433241e-06
-0.0001725699362
-0.0001996610803
-1.168582307e-05
-4.370724026e-07
-5.884247908e-05
-0.0003178972599
0.0001988957359
0.0001657601639
-2.650183554e-05
0.0001165646286
-0.0001430311186
5.296832561e-05
-0.0001630340931
0.0001155885753
-0.0002005458681
6.794562458e-06
-6.225410623e-06
6.427692989e-06
-6.272706211e-06
-6.856915655e-06
-0.0002010632074
0.0002002772903
-0.000200706513
0.0002013966161
6.517751647e-06
6.695150545e-06
0.0002014086854
-7.017201665e-06
-0.0002006051428
0.0002009245703
-0.0002011349483
6.882304374e-06
-6.842633301e-06
6.632255245e-06
-7.017000407e-06
-6.426918152e-06
0.0002005459844
-0.0002021284613
0.0002025013804
-6.505567821e-06
-0.0002007130996
7.10535138e-06
0.0002004044846
-6.384374592e-06
6.767377835e-06
-7.843828249e-06
1.030365012e-05
0.000206082414
0.0002053664035
-3.168641902e-06
-0.0001981420916
4.015716342e-06
0.0001987875989
-0.0001993096861
0.0001989179634
-0.0001982742573
2.526140976e-06
2.630384437e-06
3.116835411e-06
-0.0001992285193
-0.0001995783716
-0.0002008861821
7.197071766e-06
-7.572365546e-06
7.368711297e-06
-7.726579888e-06
-7.1927427e-06
-0.0002016327293
0.000201477178
-0.0002013012094
0.0002009786672
7.340661124e-06
7.569731169e-06
0.0002031434091
-7.003716219e-06
-0.0002033769094
0.0002028907984
-0.0002026198842
7.342640448e-06
-7.350655311e-06
7.621569521e-06
-7.025473136e-06
-7.733351787e-06
0.0002023620321
-0.0002030912044
6.904264911e-06
-6.633635986e-06
6.675012803e-06
-6.726632724e-06
-6.792699716e-06
-0.0002031909978
0.0002030059434
-0.0002031236303
0.0002033371321
6.518404656e-06
6.968848522e-06
0.0002028401066
-7.138399641e-06
-0.0002027803124
0.0002029912192
-0.0002030590504
6.972957856e-06
-6.965330976e-06
6.897499747e-06
-7.073704141e-06
-6.791910383e-06
0.0002032875664
2.352178667e-06
0.0001975231718
-0.0001969830416
0.0001968169368
-0.0001928855219
4.553098776e-06
-3.702078382e-06
7.633493232e-06
-4.301998724e-06
4.977831176e-06
0.0001974276159
-0.000177993556
6.718561636e-06
0.000180592224
-1.183488951e-05
4.779008961e-06
-3.196396346e-06
-0.0001986524283
3.861977133e-06
0.0001959322725
-0.0001943496599
0.0001941745446
-0.0002645945636
-3.455370053e-07
1.78840578e-06
-1.842636535e-05
-0.0002114587884
1.036026533e-05
0.0003106383976
-0.0002125001344
0.0002049683336
-6.289533812e-05
-0.0001573055399
1.862386237e-05
-2.615566323e-05
1.262009891e-05
5.346596638e-05
-0.0001157208155
-0.0001762010175
0
0
0
0
0
0
-2.951523422e-05
-3.427110294e-05
1.905134795e-05
-1.88479619e-05
9.771174861e-05
0
0
0
0
0
0
0
0
-4.703060744e-05
-4.87632541e-05
2.308202231e-05
-2.242657223e-05
0.0001202027171
0.0001028733127
2.060521686e-05
-0.0003298261407
3.428893735e-05
0.0002079576222
-4.682796939e-05
4.832413595e-05
-0.0004712973098
-4.451312714e-05
-0.00045467093
-0.0009514296959
0.0007887179977
9.185089512e-05
-0.0001027239113
0.0001047806677
-0.001107765335
-0.0001013556063
-0.001098187766
-0.001480830979
0.001376195741
0.0001302509733
-0.0001312652389
0.0001323668576
-0.001554139596
-0.0001305772658
-0.001554288023
-0.0004033063421
1.826106648e-05
-1.752122552e-05
1.752013037e-05
-0.0004033052469
-1.756008534e-05
-0.0004029042097
0
0
0
0
0
0
0
0
-3.753481164e-05
-2.974756491e-05
1.664184723e-05
-1.898165736e-05
8.717652849e-05
0.0001194812026
2.22751501e-05
-0.0003271577022
3.327168861e-05
0.0002075795249
-4.902773294e-05
4.699777724e-05
-0.0004655319803
-5.019868252e-05
-0.0004825949841
-0.0009327901687
0.0007748364768
8.955861998e-05
-0.0001050204958
0.0001022203125
-0.001084167998
-0.000106625849
-0.001109170039
-0.001439785284
0.001342852688
0.00012729765
-0.0001317213539
0.0001295209786
-0.001509897082
-0.0001329438376
-0.00152923389
0
0
0
0
0
0
0
0
-6.382489882e-06
-1.80443013e-06
5.551164382e-06
-8.261244088e-06
2.405403074e-05
7.16495834e-05
1.397944644e-05
-0.0002171789513
2.062001155e-05
0.000124160878
-3.645346621e-05
3.181022562e-05
-0.0003302471835
-4.061655789e-05
-0.0003723075232
-0.0007398901908
0.0005970264241
6.873879892e-05
-8.719704758e-05
8.02820867e-05
-0.0008816500247
-9.323197862e-05
-0.0009468327189
-0.001250425796
0.001141252389
0.000105754848
-0.0001164303467
0.0001097946493
-0.001341652859
-0.0001219270379
-0.001400355183
-0.001498145748
0.001465036252
0.0001054615519
-0.0001015785187
9.890029212e-05