/*--------------------------------*- C++ -*----------------------------------*\
| =========                 |                                                 |
| \\      /  F ield         | OpenFOAM: The Open Source CFD Toolbox           |
|  \\    /   O peration     | Version:  v2012                                 |
|   \\  /    A nd           | Website:  www.openfoam.com                      |
|    \\/     M anipulation  |                                                 |
\*---------------------------------------------------------------------------*/
FoamFile
{
    version     2.0;
    format      ascii;
    class       volScalarField;
    location    "2.38";
    object      k;
}
// * * * * * * * * * * * * * * * * * * * * * * * * * * * * * * * * * * * * * //

dimensions      [0 2 -2 0 0 0 0];


internalField   nonuniform List<scalar> 
3019
(
36.90870607
36.90877782
36.90892739
36.9092056
36.9545354
36.95560189
36.95749488
36.9613872
36.96867279
36.98013799
36.99437887
37.00569101
36.72749944
36.72775588
36.7281776
36.72921454
36.77543704
36.78081973
36.79158482
36.82879663
36.86257916
36.91644665
36.98834979
37.03097101
36.54760514
36.54828761
36.54956489
36.55217376
36.60052463
36.6138148
36.63939443
36.6997829
36.78045128
36.90115234
37.01889329
37.09741694
36.3690794
36.37001078
36.37233283
36.37798573
36.43123148
36.45843495
36.51413097
36.61711252
36.77354672
36.95193217
37.12393557
37.25125846
36.19241024
36.19407522
36.19860177
36.20992811
36.2713213
36.32031059
36.42453131
36.5971628
36.82550565
37.08019949
37.34498723
37.57370174
36.01700723
36.01963701
36.02726632
36.04640311
36.1236472
36.20607497
36.38410274
36.62323893
36.93231241
37.30256085
37.75382264
38.25816623
35.84420976
35.84874362
35.8618198
35.89427915
35.9889505
36.11804043
36.3855757
36.69046956
37.10612068
37.64673151
38.46118558
39.847595
35.67521996
35.68206722
35.70187289
35.7509375
35.86780242
36.05668564
36.40893739
36.7931876
37.33530241
38.10066549
39.47281756
42.61134629
35.51355544
35.52409747
35.55365235
35.62407821
35.76507711
36.02074214
36.45247633
36.92182268
37.59379445
38.57614061
40.44288171
45.22074942
35.36125659
35.37568497
35.41546128
35.50881951
35.68157095
36.00509846
36.5107886
37.06465969
37.85291601
39.0042065
41.16614296
46.42668136
35.22187216
35.24174606
35.29474952
35.41603661
35.61636023
36.00645592
36.57893791
37.21012117
38.09425343
39.37332848
41.74224566
46.95600298
35.09514718
35.11982224
35.18453466
35.33208504
35.56591395
36.01640175
36.65137568
37.35049903
38.31657676
39.70275103
42.26655216
46.71684176
45.01221646
46.31029433
46.94389651
46.77022779
42.16284008
41.0045281
45.20210057
44.15998161
41.60950174
46.00253104
45.32236694
46.72267834
49.17644092
50.23633382
42.15227189
46.29565961
46.06868134
46.92235226
45.15410984
47.35484757
46.30478499
46.48739119
39.97417194
42.60425231
49.97382147
52.19940629
44.91352203
49.47486639
50.36312437
51.07520105
45.8831529
51.91258587
50.47184144
52.39446734
52.06742594
47.56606429
48.99459423
46.80084408
48.59956829
46.5597196
50.37851993
48.72590144
42.74988266
45.01787386
46.89379059
43.94995263
41.19994835
46.42333965
44.10322585
39.78138077
46.45727342
37.6208953
41.04481079
37.85619408
40.22555264
43.9611926
41.89603499
43.85304387
48.22778141
44.41368849
45.75496282
51.14187974
50.71150573
50.520828
48.6179004
44.19375153
59.30872571
47.71145761
57.0425174
41.9324499
44.33357147
41.40851183
46.00429883
45.62395052
64.54718077
59.88101011
51.11619164
60.35387052
61.46730621
55.08251767
59.94617502
51.41835083
47.02414932
54.23594772
46.90214509
60.49315484
55.15665988
47.74385056
57.92856263
64.35781809
51.23729485
46.66648071
51.14594177
52.50840915
50.597612
54.42649903
47.11992519
50.10130077
52.44476244
47.67089669
47.53915969
49.66265809
49.55832661
42.85646492
42.66847916
45.33033122
45.17279826
45.49272445
39.95141767
39.79593144
43.89243714
47.12653636
46.13310259
47.68886956
47.41088045
48.02940105
47.7775229
46.2936112
46.47660722
46.12456257
41.56079052
48.20858502
48.31490557
48.10684524
42.4243947
42.99659529
46.9871787
43.89442603
46.91152479
46.58859213
47.31442136
47.01525072
44.04669638
43.49150967
37.39558126
37.77612101
33.92275448
34.2220253
41.73065573
45.96693574
41.50061248
42.26641752
37.92520104
38.35191941
44.5614269
40.58174813
33.61669259
33.85261923
33.09234327
38.94570095
56.91145264
56.7786078
51.47292446
52.67265311
62.82800747
62.12825883
61.66052513
54.86829841
55.56339384
53.66184567
54.59858242
62.01381552
58.0503946
56.04817223
55.89254876
55.73552236
56.0204994
58.39322054
58.62584679
52.17393213
53.34115298
62.42494814
62.95565287
45.02940509
51.37276047
50.34391097
52.34355916
51.65135752
45.71986067
48.92534263
48.22450578
49.98707006
49.16694967
52.12220795
55.00048413
54.36716891
55.74822502
55.20146321
52.66851648
48.31219488
53.25996098
52.5772755
54.14885285
53.4845848
48.74334297
41.82888943
41.27269248
42.79453016
42.02405195
40.38456144
39.84060316
41.09591459
40.54829303
47.11358854
46.46174967
47.99908039
47.33695853
45.16904822
43.30380077
46.22589536
45.57497438
36.8927909
37.24513033
43.33767015
34.58591234
34.33834625
34.95217432
34.68694399
34.17386821
41.95910434
34.42084037
36.45331301
39.29708172
41.21175607
45.81305804
38.85379749
36.0938666
39.73028201
38.88777705
35.39297353
35.06897921
35.8975214
35.51533279
44.71354685
38.50384207
39.01732647
33.32038983
33.55014413
40.42723235
39.22240999
33.08897983
33.27141839
49.67102223
48.64274633
48.56700828
48.64368378
48.65239191
49.82102994
48.52662642
48.37505843
48.41253742
48.20326037
44.72850173
45.45112129
45.80516654
46.8947934
49.10405088
58.42785744
64.17539701
65.0653788
60.66489114
60.8157574
59.36067626
59.1986756
55.77425359
57.0354795
56.57325136
59.00311373
58.73968478
59.41781929
50.36087945
51.78497397
58.01621344
59.73095574
66.5937645
62.18055966
66.56097293
66.95594811
63.54960399
43.07224781
45.68061598
45.07808487
49.97635723
49.69674645
46.38707108
42.60648402
42.32154721
44.56405533
44.15306426
51.09817106
53.72851361
53.33451124
56.14483483
55.73501731
53.81461831
47.46928678
50.69627175
50.36627222
52.93899089
52.55289709
49.63642452
43.94546975
44.52728808
48.07485666
47.12215042
43.18076869
43.75563599
47.97123484
48.55146593
49.97933913
40.70244977
40.52802238
42.07723941
41.85378116
37.93654653
40.27730109
40.13428533
49.21749728
47.16382106
47.77058566
37.50112522
40.111274
39.96679953
34.01016051
36.49475546
36.3630458
36.89680195
36.65079691
34.09839404
33.25835466
33.19039799
33.70319738
36.03515576
35.91862108
36.25250199
36.1405277
33.77294431
33.40905691
33.32063204
34.59307075
33.58442828
33.07487379
57.96856849
54.60598156
54.45997865
58.13755119
66.31877632
67.90917608
59.24578948
64.96842744
69.56351325
63.5601888
61.33564344
57.97828236
57.52147811
56.44054993
59.03121747
58.51633323
58.20566497
67.92962497
67.64267008
61.33434958
68.56566391
70.88606209
63.42906247
67.63094572
67.88336453
48.36496082
48.17649558
45.00514798
45.89964135
49.25507848
49.05955232
43.18262305
42.88174975
43.80840837
43.48398863
54.52327847
54.12205776
51.58844688
53.23560915
55.33120181
54.92665463
51.4279836
51.07659084
47.92437243
49.16473303
52.16707589
51.79959013
41.63728444
38.2631888
38.44206713
37.94058653
38.10431449
41.4557054
42.47388322
39.03718681
39.30312007
38.62047373
38.81982612
42.23493045
40.19050094
37.0027662
37.1699335
36.72264491
36.88755782
40.04701959
40.91205818
37.62289619
37.78698956
37.30325801
37.47518222
40.73849896
41.14620547
40.9469809
46.89756224
44.50580718
44.72453621
44.05791141
44.25745407
46.67096928
41.60563562
41.38871114
39.34373092
39.2779112
44.85852688
42.52318791
42.60118709
39.69562575
40.22753055
44.04442602
46.0298111
43.62685769
43.79173841
43.1906401
43.30714086
45.76149257
39.85827718
39.75544616
36.96004726
39.46719516
39.32282047
39.79910632
39.66530949
37.16078197
34.52241991
34.39717983
34.86611427
34.75380891
34.07600125
33.6273022
34.76520007
38.02404294
37.33272605
39.00235802
38.68211579
36.39335889
36.88241145
35.04287754
35.9763017
36.40563976
39.47663599
36.44542715
36.63218037
36.1050413
36.36886834
39.39457401
35.2873405
35.16700107
35.75932531
35.62883615
33.40534853
35.59477121
35.46006712
35.81411523
35.69096375
33.46353411
33.15809662
35.14505534
34.86133547
35.38044287
35.21388533
33.19576432
36.72854732
36.77546113
36.85192339
36.7946148
36.87021804
36.90030679
36.89827205
36.98133278
36.96738695
37.00509042
37.06247659
37.02280129
37.07463647
36.63243621
36.73019779
36.75670909
36.76980051
36.89160656
36.87096826
36.93273776
37.05281259
36.99245695
37.08890234
37.17925553
37.0831146
37.20177481
36.59668195
36.75221046
36.73144886
36.80697242
36.98013216
36.90684873
37.0394492
37.21802199
37.08377949
37.27528776
37.43057736
37.22566167
37.47478134
36.61285137
36.82277743
36.76466781
36.89890196
37.14628684
37.01443407
37.23610887
37.52681132
37.27965065
37.62908646
37.94651379
37.5243289
38.04728031
36.67031288
36.95266277
36.8499672
37.05627904
37.41153129
37.20343921
37.54922562
38.04585001
37.63255196
38.2483871
39.01901859
38.13214085
39.32280308
36.76332134
37.13127988
36.99339293
37.27058375
37.77046927
37.49491702
37.97691704
38.81050447
38.21768644
39.20442493
41.52741686
39.41380706
40.65173079
41.19640071
40.12638989
36.88699883
37.35007493
37.18583542
37.52801431
38.1823802
37.875468
38.46090235
39.63955367
39.02721014
39.73756185
40.36675459
40.04408392
43.05108001
43.75623732
43.19771143
37.02861259
37.57826595
37.40714683
37.78970355
38.56999255
38.28177064
38.90351467
40.31394702
39.82402988
40.64449172
41.46388672
41.22632734
45.41810328
46.65834894
46.43105365
37.17500174
37.798459
37.63413717
38.03700752
38.91332269
38.65965733
39.28620639
40.8507486
40.45754578
41.32110434
42.23828968
42.06256628
46.53482702
48.07719499
47.9907111
37.3209304
38.00489936
37.84987042
38.26527415
39.21920976
38.9916586
39.62469946
41.32358927
40.97088705
41.88310653
42.87875693
42.7148523
46.95340843
47.65352424
47.81630565
38.05087454
39.28951836
41.43492408
42.42068549
43.72617469
43.29259092
46.65590219
46.47990436
46.73323628
46.19391524
45.90714524
44.76840364
47.94813611
47.75924554
46.1850851
47.86450474
47.99071464
46.91340324
46.81373419
47.0440075
46.81840504
43.93401635
41.69836936
40.94607453
40.31726259
41.48275625
41.87859678
41.6789255
40.83026852
44.80773461
42.49821078
42.8174309
41.9924883
42.3824111
44.66583433
42.56559217
42.40175537
41.46546767
45.74985421
43.2865551
43.54518125
42.91655481
43.19648457
45.65191671
48.10515137
48.09507659
46.63386887
49.34972048
49.29652692
49.18345487
49.81149156
49.74227708
50.09983976
43.19466029
43.0124915
42.00692219
46.2409215
43.95864618
44.1952715
43.6304919
43.87689322
46.21044779
47.39745841
47.59308399
46.9433543
45.56437454
46.91279336
46.73241019
47.92890539
47.76210823
47.10682313
44.26815343
44.45377566
46.30638012
46.12011252
46.39199257
46.59217715
40.68616593
43.69828499
43.64116037
44.97130167
44.75813314
42.16419045
50.40553382
52.9805838
51.9709512
54.87419855
54.77870412
51.95683682
45.51327209
46.2079903
45.49828053
51.26283071
50.54598027
48.97200951
50.71739553
48.5262044
48.62748361
48.33070949
48.48211644
50.81998958
46.04797829
47.66310768
47.12788864
51.74980244
51.98246429
52.5197695
49.50954812
50.09543691
50.76463541
52.50980674
54.53668769
54.82299093
52.69548641
53.2131264
52.2075575
47.78701882
48.23880824
48.08348356
49.06459724
48.9398826
48.80609943
46.86485158
48.0248952
48.0958016
48.46536693
47.88014507
48.04534204
45.63243948
45.79772543
46.70654489
50.08384298
48.74467074
49.31760367
48.21451532
48.38448158
48.85792241
43.21016293
45.38235859
45.17692536
46.5492625
46.36415598
44.60773195
46.85939748
47.11721706
47.32903833
43.7970566
42.30209294
42.46354841
39.08776918
39.24990976
41.36116661
46.27495548
45.29966627
45.47042023
42.6278314
42.79052206
44.25616338
43.55849664
46.02631018
37.44306991
34.75959331
34.87458143
40.89077212
38.79224326
38.93908668
35.07274831
35.47281744
38.18127365
40.96571144
40.67834979
39.99034392
43.22506356
41.35187251
41.84779964
40.56563048
41.16981887
42.93099293
44.77919439
44.28922028
43.47001535
46.77959992
44.96605211
45.84932136
43.72246047
44.63939417
46.18392083
47.04411615
46.82867446
45.58127438
51.18561505
47.96517
48.25662511
47.51340117
47.86582137
51.12826024
49.85269918
46.92102492
47.38717058
46.09543859
46.74785248
49.58813136
44.49981415
45.58651641
45.20830672
48.81771427
50.21214962
48.64644128
61.79964078
59.34857487
55.43626852
42.23283669
43.28520212
42.72267559
43.12913176
42.07711283
45.84734144
43.6379185
43.05031148
44.11831762
43.83969365
40.89771613
45.87714093
45.1192677
45.30236701
44.77352878
44.96471054
45.75364307
53.95826801
53.24846951
50.7819814
57.99083112
58.67318541
62.18416845
51.69639554
54.66393459
54.15446385
48.18525568
47.2382827
46.25720888
50.98477934
48.53668691
49.87616439
46.23387278
47.10249736
49.88652694
59.74146495
56.6940856
57.29570211
52.99146798
53.72341779
56.1615893
48.38486619
49.88039803
49.03645713
51.14867234
51.78988587
51.55916025
50.8550353
50.29431054
50.9214775
54.00812871
54.41690888
52.53236874
52.3342688
53.37982285
53.85822163
46.92709426
47.08602874
47.80892727
47.3988337
46.60737884
46.76809378
49.40732433
49.54073934
49.77284217
49.44421291
49.13545434
49.27243704
41.29892168
41.47810181
43.02336891
42.45258931
40.76923172
41.06205538
43.99338168
44.22253433
45.48784406
45.01818644
43.61311889
43.79272942
44.5966451
37.9107237
38.07031635
40.11385635
39.62282753
37.59936762
37.78103602
44.5085538
45.15511934
47.26295515
47.08989479
45.70175334
47.59824197
47.49000307
47.61661316
47.22918491
47.36071835
47.50539112
47.94835685
47.97928327
48.09465002
47.74059357
47.86199359
47.8638472
46.91708705
47.60246436
47.43216743
46.36185208
45.78497348
45.94233398
45.46030508
45.62749344
46.24522478
42.01599166
44.5482655
44.31821656
48.53382356
48.38800353
47.99849578
48.25005178
48.41731732
48.5185906
48.2050474
48.31307064
48.18048449
42.62677289
44.48806518
44.30239406
44.84890301
44.66527786
42.80081236
46.84296844
45.95906148
46.12269554
45.78970924
45.58693569
43.38094208
46.80599557
46.39389314
46.53988103
46.09486691
46.24562846
46.69828733
47.21646544
46.96011841
47.09552502
46.682784
46.82257956
47.11669349
44.47088404
46.17665064
45.98591184
41.97945648
42.13781666
43.64378669
40.43135828
40.27647588
37.65199989
41.53423752
39.43455485
39.67270907
44.93124446
45.12821104
46.13058328
41.87868107
43.74236898
43.48291675
44.12824748
43.92916323
42.03088734
38.06025274
40.75683772
40.59645594
41.08589893
40.92236385
38.20985137
44.40902884
42.95418813
43.11683731
38.50115297
38.64938042
40.73756532
38.5851869
36.20529875
36.89709863
54.23901396
51.78072444
49.85746854
49.59059131
52.61454571
54.33240633
57.93728043
55.38482895
59.45189696
59.43628301
61.2316071
55.12542297
57.1804954
56.9706837
57.42154274
57.33531411
55.35443044
53.99067765
55.93467084
55.44531417
56.70291024
56.35652874
54.2991068
62.21424927
59.12902757
59.38545145
56.03679663
57.09707537
57.20839919
56.60806499
56.87833251
55.99283933
55.87607016
57.41352909
57.44457323
57.27852335
57.35447222
55.96276004
55.62430325
56.17175774
59.23032311
52.58809905
54.01609074
53.50862526
54.95310866
54.47120913
52.93714563
51.10215626
50.03159046
50.35932694
48.4737005
49.22049129
50.74004968
52.11881708
51.37093688
51.63760852
50.79642395
51.04262848
51.87636593
48.68800859
46.4276551
46.69275408
45.91373611
46.1695482
48.45456243
49.68445865
47.54738585
47.92873626
46.96122221
47.2416988
49.4171132
54.79394768
54.89713777
55.1901376
54.30632072
54.6029575
54.58222468
55.57884093
56.05074865
56.33076114
55.48072004
55.76780751
55.39498895
53.03458356
52.52733993
52.81793494
51.94256658
52.22719163
52.804745
53.92874204
53.70754922
54.00655454
53.1139818
53.40839677
53.706887
47.77830416
45.4367525
45.66965755
44.96668767
45.19567905
47.55607833
43.18384472
41.65635337
41.81442064
39.99683963
40.39634812
42.20991531
39.75877453
42.39830332
42.06097027
43.19607477
42.80760942
40.44819146
45.63188572
44.47166548
44.71666478
43.28002373
43.44422337
44.86551055
38.65539432
41.42281381
41.25313184
41.80658825
41.60335954
38.82292206
40.26843933
38.20719269
38.35956852
37.17816373
37.4608182
39.44971359
49.49831026
49.40136217
49.51421846
48.62553777
49.06720694
49.11893821
48.94504162
49.00931824
48.59903587
48.6544749
49.23537434
49.26125367
49.16447846
49.20294222
48.65548313
49.96509931
49.66834362
49.58716777
48.48088681
48.79344908
48.87277033
48.61576481
48.70745788
48.43016775
48.61203071
48.80966462
48.67412738
47.55983744
47.71899121
48.33801362
44.9401876
46.67139742
46.48280082
47.08328857
46.86917081
45.17289916
46.2215395
47.56728669
47.31942651
48.01233399
47.80264733
46.61021148
48.97887017
48.5485419
48.70480061
50.8708919
51.81669895
51.14181069
53.00427807
52.40646828
51.31611674
57.14681259
54.40685417
55.06668317
44.13760471
45.93581463
45.75511448
46.29865731
46.11662522
44.33030894
47.93878042
47.24381149
47.40188296
46.28414888
46.44680402
47.2650104
43.37508508
45.21222198
45.0291473
45.57474634
45.39320561
43.56363536
48.16341297
49.04976587
48.88663023
49.37287316
49.2123959
48.35930985
49.87331779
49.67205125
49.80230898
48.85340945
48.99600148
49.33600108
47.36482216
48.38117232
48.20678569
48.720275
48.55433488
47.57915889
36.86765958
36.87009871
36.95635772
36.87383657
36.87974691
36.95891409
36.88603037
36.89554226
36.96455369
36.90824695
36.92434575
36.97388348
36.94374275
36.96683845
36.98690398
36.99015133
37.00918536
37.00225931
37.01890755
37.02487236
37.00774425
36.68939289
36.6915998
36.77762374
36.69622387
36.70334216
36.78538147
36.7128067
36.71859463
36.82278827
36.793077
36.80208961
36.83529755
36.83595411
36.85137166
36.8734725
36.90401782
36.92602056
36.93223897
36.99020663
37.00518499
36.99787029
37.04198894
37.04953949
37.03617075
36.51806921
36.5238686
36.60599726
36.53464318
36.55058563
36.62472244
36.57324854
36.60889426
36.68667813
36.67417572
36.69368694
36.71625398
36.77127843
36.80479059
36.80829822
36.90748087
36.94231239
36.93288718
37.03706054
37.06413429
37.04328188
37.12560968
37.1397344
37.10984813
36.35374811
36.36580038
36.44226976
36.38679978
36.41848681
36.4814892
36.4637497
36.54976609
36.58760509
36.60692265
36.64616236
36.650813
36.78097384
36.82867457
36.81720167
36.97586552
37.025267
36.99706433
37.16599121
37.20823219
37.16138779
37.31329165
37.33809836
37.27367939
36.19966661
36.2223181
36.29114625
36.259934
36.31626463
36.36297978
36.39980993
36.54875146
36.54347615
36.59963283
36.65706051
36.6502532
36.8448662
36.91347302
36.88718496
37.12637365
37.20004377
37.1467046
37.4260883
37.50030293
37.40840236
37.708047
37.75549901
37.62430693
36.05652882
36.09621522
36.15665232
36.15879443
36.25068551
36.27854515
36.38218368
36.58552908
36.55388957
36.6364415
36.71409526
36.69577619
36.96973252
37.06329665
37.01857226
37.37686993
37.4948151
37.4064422
37.89739729
38.0500034
37.87907655
38.54919821
38.68282655
38.39733801
35.92615147
35.98927484
36.04000552
36.08404882
36.21927088
36.23141288
36.39417832
36.65369963
36.59918589
36.71274311
36.81480958
36.78622843
37.15751869
37.28753704
37.22625643
37.75194775
37.94153243
37.81634109
38.68971032
39.03559695
38.73794797
35.8133851
35.90461966
35.94392464
36.03618913
36.21710402
36.21522895
36.42896587
36.75043127
36.67618894
36.82180531
36.95174918
36.91640003
37.39582919
37.5690522
37.49775272
38.21883868
38.50155092
38.35978009
35.71993957
35.84180374
35.86969857
36.01151171
36.2326043
36.22240762
36.48078047
36.86577365
36.77830102
36.9571022
37.11563661
37.07346303
37.65971688
37.87373221
37.79824926
38.68899632
39.04944904
38.91984417
35.645528
35.79903995
35.81625781
36.00504566
36.26011061
36.24405433
36.54558507
36.98893561
36.89579751
37.10149524
37.2856158
37.24288198
37.91538799
38.16258918
38.09262922
39.10140874
39.51434091
39.4057218
35.58966142
35.77294384
35.78126145
36.01122337
36.29742922
36.27515973
36.61935555
37.11450878
37.01899821
37.24875813
37.45483526
37.4110489
38.1545438
38.42764879
38.36146381
39.46024682
39.91257113
39.81683618
35.75990199
36.31263104
37.14066096
37.39563917
37.61796746
37.57159879
38.37280067
38.66706699
38.60658202
39.78206899
40.27210348
40.18288299
42.54169304
42.07771821
41.70535863
40.57107911
40.85421915
45.07578872
44.15835131
44.27823053
43.28990899
43.46120759
44.34422469
45.92615156
44.99880287
45.08866488
44.39130555
44.5025894
45.43795696
46.28245766
45.57814365
45.63017368
45.1723755
45.25340075
46.12495945
45.29088979
46.01705865
45.89694936
45.67639022
45.71993591
46.30908375
40.19852206
41.76077063
41.60732536
43.75372263
43.62094546
42.45853168
50.48662786
49.9376997
49.87580446
50.15753693
50.15144115
50.99640565
50.4296054
50.5530839
50.5721088
50.27818567
50.1820546
50.30626793
42.89766426
44.01306961
43.88075271
45.78253479
45.66138447
44.8809528
41.45300946
41.30175712
39.61305105
46.4529341
43.73821415
42.90874764
43.10826914
41.42064548
41.68438828
42.26016843
47.79522717
46.852682
47.22404671
44.12660605
44.59372123
44.95088235
51.18103615
50.10978808
50.14866198
49.40390175
49.56187253
50.88350434
50.31548171
49.056392
49.2392933
47.55991224
47.87325769
48.97335457
44.72463774
44.1945468
43.85480799
42.68067247
42.5370622
41.24876005
53.16608983
51.52324429
52.28055241
46.6716042
47.31546411
47.77756994
51.39737087
51.49792538
51.3439018
51.04547797
51.16204967
51.28152136
47.61205072
46.54430212
46.24016136
46.69726571
46.58647235
45.98370166
46.47393501
46.87441894
46.79699859
41.71511708
42.95594626
42.8122537
44.8170517
44.68256456
43.73056025
44.19179284
45.06746029
44.94040997
36.74219382
36.77087668
36.75937907
36.79796504
36.78268536
36.7569912
36.84344267
36.81159634
36.82363414
36.81804179
36.83265209
36.81319042
36.87532078
36.85157175
36.8416415
36.88689501
36.86675503
36.88572152
36.92790857
36.92591221
36.89775361
36.97381159
36.94926013
36.95390606
36.95070833
36.94746701
36.96942093
37.02698503
37.01453489
36.99523843
37.04607632
37.03121226
37.04561505
37.01404569
37.02078363
37.03313071
37.08550664
37.06569562
37.05630648
37.07169234
37.09265045
37.04120662
37.05480676
36.6604329
36.67486106
36.65126909
36.73327982
36.70189514
36.69278332
36.73460427
36.71603568
36.74241961
36.80976389
36.80608458
36.7683979
36.88055178
36.8428003
36.85018206
36.83787955
36.83916384
36.87397919
36.97402388
36.95591396
36.91803401
37.02767006
36.99222632
37.01395985
36.96266497
36.97526987
37.00771535
37.12238561
37.0902461
37.06019496
37.14047728
37.11679761
37.1523661
37.06426865
37.08776484
37.1088932
37.22032384
37.17607346
37.15969275
37.18820825
37.23411665
37.11842882
37.14978427
36.64736672
36.64636358
36.60057191
36.74179535
36.69350398
36.69886907
36.68930495
36.69036607
36.73490983
36.86346435
36.84410205
36.79218356
36.95082092
36.89701898
36.92132847
36.86167332
36.87724082
36.92652343
37.09928569
37.05938841
37.00501235
37.16566804
37.11304082
37.15898532
37.04101881
37.07374459
37.12107434
37.33024945
37.26408504
37.21617763
37.3487653
37.30840452
37.38214432
37.19525911
37.24701
37.28233382
37.50851555
37.41613029
37.38354352
37.44221901
37.53634879
37.29117272
37.35722473
36.67989214
36.66695856
36.60470403
36.79931939
36.73165566
36.74981646
36.70592108
36.71688982
36.77951891
36.97821727
36.94259865
36.86956549
37.09855239
37.01862578
37.06044985
36.94997754
36.98385067
37.05458844
37.33008283
37.26365157
37.18077742
37.43380782
37.34771672
37.42727003
37.21325571
37.27517504
37.35084597
37.73395285
37.60818867
37.52102084
37.77429054
37.6930774
37.84057456
37.46848333
37.57278957
37.64253438
38.12039896
37.93209376
37.84952951
37.99117273
38.20023116
37.66366147
37.80022943
36.75977587
36.73592081
36.65232595
36.9145191
36.82313735
36.85392493
36.77124563
36.79563463
36.88079458
37.16621679
37.11328834
37.01111643
37.3364099
37.22133557
37.28402146
37.10881518
37.16182225
37.26617794
37.69951783
37.59272811
37.45939203
37.89166145
37.73688389
37.86454568
37.51628376
37.61988509
37.75302612
38.47487391
38.24659353
38.06200905
38.65018057
38.44104546
38.73428628
38.00555653
38.21289868
38.38274802
39.5924666
39.12973779
38.87909805
39.30210899
40.0329946
38.48967809
38.83528961
36.87892442
36.84630724
36.73736424
37.08343475
36.9613792
37.00125964
36.88706729
36.92251004
37.03636087
37.42149617
37.35454801
37.21386085
37.67624236
37.50747312
37.58669227
37.35552924
37.42818595
37.58236712
38.21270837
38.07642355
37.86396673
38.60336541
38.32077052
38.48751142
38.00618189
38.15640906
38.40098115
39.70737183
39.35543252
38.94350945
40.43484595
39.83578211
40.33071924
39.04510743
39.44822688
39.93542433
40.85308659
40.6979428
41.00130077
37.03169064
36.99135248
36.85386017
37.29352297
37.13738221
37.18548617
37.04682966
37.08970765
37.23702072
37.72277676
37.64636311
37.46211526
38.07976774
37.85035964
37.93886229
37.67622317
37.76029176
37.97481419
38.78548334
38.64560699
38.34141344
39.4444949
39.0075271
39.17182344
38.66443425
38.83637459
39.23870763
37.20045118
37.15769839
36.99234923
37.52131626
37.33329381
37.38290241
37.2346248
37.28408408
37.46447302
38.02146461
37.94799787
37.72484916
38.47641462
38.19615772
38.27913156
38.02535446
38.1116579
38.3803961
39.29247813
39.17340773
38.79801077
40.16061707
39.6198662
39.75454271
39.32877874
39.47840225
39.99807634
37.37052092
37.32751576
37.1374858
37.74368056
37.52872302
37.57748432
37.43190176
37.48085216
37.68965011
38.29790456
38.23015316
37.9759326
38.83055733
38.51241087
38.58734053
38.35904055
38.43716584
38.74678739
39.71978276
39.61844859
39.1947336
40.72426528
40.11983479
40.23251814
39.88190684
40.00360467
40.5946637
48.05470466
47.43292114
47.46974569
47.34484496
47.38930179
48.02586728
37.53615852
37.49198002
37.28104108
37.95146689
37.71451637
37.76309506
37.62338938
37.67250075
37.90449503
38.5495595
38.48600439
38.20689771
39.14374422
38.79544757
38.86460989
38.65787588
38.73031962
39.0709208
40.09583467
40.00410286
39.54180886
41.20584972
40.54986077
40.65238543
40.3406772
40.44698058
41.09116407
47.71098642
47.45278235
47.41522778
47.513391
47.48167543
47.76519097
37.80420261
37.85260595
38.10343766
38.92791546
38.99335639
39.36094094
40.75070522
40.85158668
41.55074945
46.56651333
46.69142777
46.62761156
46.80728264
46.7470728
46.65082529
47.90946191
47.56142218
47.53622831
47.59403066
47.57734561
47.95175765
46.89230947
46.91761832
46.85993625
47.02354754
46.96760889
46.96908671
42.73406241
42.45713869
43.03587275
41.46435474
41.89346702
42.17830923
41.31888771
41.54975907
41.16384012
40.66955243
40.74798056
40.41892458
41.57871439
41.19501802
41.0066075
41.34811963
41.75875672
43.90330002
44.03528135
44.94456195
43.49560823
43.38415152
42.71534722
44.50874053
43.61737474
43.76629539
44.81009916
44.90729051
45.84191282
43.37314989
44.08738352
43.99438871
44.26690312
44.17777074
43.46080945
43.01191964
43.70409723
43.60050794
43.9003566
43.80274053
43.10588968
45.54747343
44.60784221
44.71176612
48.10858033
47.56161516
47.57949221
47.50590025
47.53456494
48.10634456
45.46284024
45.52385368
46.26467181
44.03431332
44.75735922
44.68194774
44.90203782
44.83072232
44.11649118
43.71159766
44.43902936
44.35401559
44.60308384
44.52231073
43.79632731
46.17184155
45.32759766
45.39868116
47.46478851
47.30282126
47.25747271
47.38178346
47.34019062
47.5300274
46.24938017
46.1305686
45.42719788
44.34571496
45.03553784
44.96991791
45.15596417
45.09762718
44.39258976
46.30806703
45.76070871
45.79698627
46.21150906
46.4454263
46.38439109
46.56881717
46.50064233
46.30093464
42.08012759
41.89673094
40.44559207
42.92989654
43.14148718
43.68329597
42.31232939
43.49248944
43.35627177
52.67076509
51.75238501
51.96323921
51.37774351
51.55989235
52.34606599
54.88633377
53.76407967
53.82285714
53.52963542
53.66212371
54.85879331
50.05050697
49.99674571
50.60522612
48.56818173
49.30783549
49.31170891
49.28243917
49.29817275
48.60148985
48.40512875
49.27419416
49.22362095
49.31200928
49.30128026
48.43651288
50.90640622
50.13228787
50.09684232
52.1624159
52.13100436
51.98573326
52.40224276
52.25982339
52.34280428
49.70313288
50.31399355
50.15815462
50.62641916
50.47013434
49.89846201
50.66399722
50.67558714
50.7985809
54.64479048
53.80985256
53.75607048
53.84426356
53.83429375
54.74192573
52.87005628
52.66345086
52.52709276
52.90999275
52.78243528
53.04212013
48.05422029
47.60629295
47.60174887
47.59697588
47.60408731
48.07830287
49.9308859
50.05650945
50.18158322
48.93586155
49.6899254
49.53231502
50.00251778
49.84684117
49.12712411
44.27736358
44.14195366
43.04985843
44.74483845
45.54658665
45.42460558
47.18928821
47.12355359
47.06994517
47.21684105
47.16696064
47.25949846
43.45854179
42.58925132
42.75021681
46.31963272
42.46630859
42.69659791
43.49480641
42.60852584
41.95958897
42.22193479
46.02163231
46.4567482
47.31363909
45.27883921
45.72402112
45.32603695
46.4284046
46.08156857
45.56720252
44.90733924
44.42663235
44.26466615
45.54165248
45.0691714
45.55466099
49.95232863
50.0484345
51.19617277
48.06485811
48.9803482
48.87272121
49.15841235
49.0734597
48.16061805
47.63994484
48.51574098
48.37643039
48.76230142
48.63918173
47.75185805
51.02866189
49.70558681
49.83979088
48.64529628
48.86307114
50.09530566
47.09361797
47.90532899
47.70826236
48.23534532
48.07239368
47.2402015
46.33685414
47.01981708
46.72969278
47.50599991
47.26688702
46.54319118
49.29468381
48.15264922
48.4136084
42.46771003
42.95293935
42.75271269
42.65686832
42.92995416
44.95131438
44.63503855
45.15457736
43.48434495
43.85680971
44.1970502
43.4263101
43.64837433
43.20930457
41.08545682
42.39469423
42.22932531
53.73503835
52.53057338
52.71974921
52.1519959
52.3522722
53.50739173
54.50957949
53.22203665
53.38581197
52.88730143
53.06520811
54.34710586
49.84475521
50.77335137
52.16136604
50.49007846
49.72961875
49.30729522
48.63139228
48.10764854
48.97051201
51.37711619
51.55036518
51.40242189
51.84777258
51.69412786
51.59168593
50.92016849
51.04222953
50.95565586
50.49643951
50.93857129
50.78254306
51.24936218
51.09421463
50.70428214
54.15208195
53.53609809
53.4391265
53.694961