/*--------------------------------*- C++ -*----------------------------------*\
| =========                 |                                                 |
| \\      /  F ield         | OpenFOAM: The Open Source CFD Toolbox           |
|  \\    /   O peration     | Version:  v2012                                 |
|   \\  /    A nd           | Website:  www.openfoam.com                      |
|    \\/     M anipulation  |                                                 |
\*---------------------------------------------------------------------------*/
FoamFile
{
    version     2.0;
    format      ascii;
    class       volScalarField;
    location    "3";
    object      k;
}
// * * * * * * * * * * * * * * * * * * * * * * * * * * * * * * * * * * * * * //

dimensions      [0 2 -2 0 0 0 0];


internalField   nonuniform List<scalar> 
3019
(
46.09077398
52.88186224
46.39662109
42.47390906
40.02923194
38.3920701
37.10891235
36.32320155
35.5641145
35.21670011
35.04753321
34.97973101
55.69652868
52.84535519
46.63670375
42.71850866
40.20708817
38.50542096
37.16149612
36.33201504
35.52185416
35.14577437
34.95723285
34.8810972
55.58960233
52.26466178
46.55364821
42.77418779
40.28223148
38.56364762
37.18653134
36.32743993
35.47767941
35.07960287
34.87504072
34.79214825
53.59552216
51.19975823
46.20839174
42.67885916
40.25928277
38.56636201
37.18090231
36.30078465
35.42384542
35.01094279
34.79545178
34.70720093
51.90315122
49.96967983
45.60582381
42.43543668
40.17879983
38.52938382
37.14393688
36.25050684
35.35991752
34.93868347
34.7144623
34.62202906
50.48053278
48.74562243
44.93853977
42.10630724
40.0165935
38.43223335
37.06182164
36.17177987
35.27918865
34.85487364
34.62754751
34.53222379
49.17566206
47.67562187
44.34867887
41.76787664
39.80330658
38.28651876
36.94846105
36.07074594
35.18465819
34.76154641
34.53324828
34.43662169
47.90942335
46.80671597
43.8272096
41.42539338
39.56637778
38.11161495
36.81238914
35.95133592
35.0766208
34.65729446
34.42962507
34.33244117
46.7449302
46.01610921
43.3432931
41.09121268
39.3206456
37.92039819
36.66001025
35.8175342
34.95812828
34.54488123
34.31902385
34.22185908
45.67704229
45.28929447
42.89166958
40.77056922
39.07418462
37.72110113
36.49652835
35.6729845
34.82959471
34.42289759
34.19926169
34.1024589
44.68865541
44.6164147
42.46681681
40.46468225
38.83142902
37.51875423
36.32609048
35.52076131
34.69524695
34.29623982
34.07524213
33.97903109
43.77107565
43.98946077
42.06481546
40.17252176
38.5945683
37.31649239
36.15181203
35.36342421
34.55383707
34.16155017
33.94293904
33.84737745
42.917081
43.40201784
41.68281376
39.89249431
38.36441905
37.11625042
35.97591667
35.20289964
34.41092316
34.02635257
33.81031191
33.71545113
42.11843031
42.84872302
41.3183962
39.62314855
38.14101163
36.91909901
35.79990918
35.0407122
34.26211869
33.88322262
33.66917908
33.57493525
41.36699495
42.32517417
40.96953188
39.3633438
37.92407631
36.72558719
35.62480979
34.87787474
34.11606698
33.74450334
33.53270175
33.43906323
40.65736304
41.82766402
40.6344462
39.11210486
37.71320218
36.53591711
35.45125545
34.71527358
33.96286506
33.59542902
33.38512139
33.29195209
39.98638556
41.35339886
40.31167129
38.86862226
37.50797777
36.35013154
35.27966169
34.55330588
33.81792416
33.45758596
33.24917493
33.15645362
39.35169701
40.89997786
39.99996804
38.63218247
37.3079891
36.16815922
35.11028304
34.3926008
33.66091383
33.30294332
33.09559913
33.0031874
38.75033458
40.46531893
39.69836398
38.40219236
37.11286072
35.98989367
34.94329071
34.23313227
33.52146535
33.17060183
32.96480763
32.87268779
38.18005242
40.04849099
39.40617076
38.17819535
36.9222728
35.81520011
34.77880257
34.07560367
33.35838376
33.00826087
32.80329382
32.71135074
37.63962917
39.64860518
39.12287246
37.95980464
36.73591983
35.64388953
34.61696701
33.91959634
33.23090989
32.887568
32.68370847
32.59193023
37.12864334
39.26538528
38.84810612
37.74672674
36.55357357
35.47589422
34.45822859
33.76657312
33.05474834
32.7120416
32.50903897
32.41734044
36.64708524
38.89858869
38.5815587
37.53869286
36.37502452
35.31105498
34.30396748
33.61658481
32.95106153
32.61181106
32.40933792
32.31768395
36.19823896
38.55024242
38.3242406
37.33602901
36.20040315
35.14940907
34.15859679
33.47558077
32.72415496
32.38652546
32.18496823
32.09332093
41.762873
45.09689222
54.32347232
51.92954473
42.12549371
55.29209682
54.78828335
54.34638966
53.78390295
52.30365728
57.24201468
48.53691188
47.80011074
51.63473661
57.53933461
57.33049063
39.3953531
44.23861359
39.30846926
40.11892573
54.21080902
45.1747501
56.09506468
54.14912969
54.70391076
55.5666384
54.60972617
40.6976035
57.66806738
57.59665385
52.19064308
52.69982241
62.42038468
39.58461921
41.05726273
50.54475122
48.84957274
41.69381356
39.97229878
50.93372364
62.64037616
41.77735867
48.08912729
69.28946265
39.62129705
40.83251613
39.48172256
39.51367197
61.1943029
64.87022095
39.45881235
62.46467156
54.79294962
53.50470054
47.67001533
40.37350216
40.86460466
39.56468234
45.56219613
40.24744797
39.42429063
46.25518025
66.06096205
68.70461283
70.44895321
58.98097988
67.36787861
40.07548321
39.55757544
59.44667564
53.5896492
60.46969509
56.32319479
65.63192774
65.70548254
63.6834922
43.23927006
57.44823572
51.1900558
64.25007215
65.52293092
45.60913154
48.80337497
52.86052867
67.92130617
55.72899043
43.91090093
45.75056688
61.08137521
46.11058219
48.63635318
42.03953287
44.00402506
62.14652817
46.28703378
43.18117781
42.38613717
40.48049285
39.96831102
38.70364181
48.80996267
56.43436644
55.85176462
52.91459514
47.92081993
47.77136146
46.5814096
43.48395124
43.27197187
42.67026037
40.7035129
40.54879835
40.17234617
38.85086622
38.74525845
55.99831027
57.28262797
57.63220797
52.47054079
47.86184054
47.95163624
46.59513259
43.57843621
43.52107772
42.77734974
40.8116625
40.74482971
40.27296086
38.93408046
38.87627779
50.55210973
50.46712564
54.07241251
52.88644096
53.8645651
51.49001449
47.47570917
47.80306051
46.32839418
43.48694317
43.5696254
42.71197805
40.79691026
40.81710536
40.27054884
38.94529419
38.94141085
49.78459492
50.41021953
52.29522131
51.47116557
52.53857745
50.28260213
46.78306577
47.32137909
45.7688984
43.22036556
43.44293947
42.50984741
40.71046854
40.78131557
40.20633974
38.91387955
38.94086913
48.99857299
49.5761363
50.8204165
50.06411966
51.11375779
49.04284789
45.99534274
46.58840035
45.10294985
42.83095558
43.12842425
42.18952331
40.53867934
40.67476772
40.06340936
38.8211415
38.89721563
48.15702661
48.80451246
49.49795783
48.79590155
49.7285881
47.92198322
45.27182993
45.80270424
44.48519406
42.44279936
42.73122146
41.85358634
40.30953704
40.48528256
39.85964581
38.67270099
38.78803526
46.99569182
47.89738176
48.21784823
47.75597401
48.51345765
47.01569782
44.67265984
45.11643983
43.95393673
42.0618772
42.34689668
41.51055968
40.05439282
40.24729482
39.62686388
38.49158434
38.62976541
45.79909417
46.68802208
47.0263463
46.83342474
47.51711476
46.20734462
44.12189865
44.53083192
43.4609963
41.6936719
41.96832845
41.17360836
39.79079344
39.98882292
39.38238213
38.29233927
38.44306311
44.6897974
45.51386135
45.93572446
45.99046118
46.61574317
45.46558602
43.61024677
43.9906232
43.0018751
41.343224
41.60431447
40.84933915
39.52785992
39.7247542
39.13557733
38.08423489
38.24087714
43.66114664
44.42543233
44.92890962
45.21459753
45.79065355
44.78004433
43.13100705
43.48759898
42.57075745
41.01092434
41.25849866
40.53980568
39.27033573
39.46284988
38.89162022
37.87321306
38.03160072
42.70468569
43.41555308
43.99417382
44.49537698
45.02982926
44.14226084
42.67958502
43.01568851
42.16333625
40.69484195
40.93047104
40.24435985
39.0203401
39.20708721
38.65316626
37.66282966
37.82047314
41.80973139
42.47570797
43.12508835
43.82486372
44.3234552
43.54548405
42.25248091
42.57065026
41.77657673
40.39279678
40.61808841
39.96144756
38.77842633
38.95910284
38.42131661
37.45517314
37.61061931
40.96865333
41.59461061
42.31328358
43.19652034
43.66405681
42.98409521
41.84664685
42.14913418
41.40796526
40.10299844
40.3192555
39.68954744
38.54433215
38.71918547
38.19624085
37.25132107
37.40384085
40.17829246
40.76633939
41.5508042
42.60462659
43.04537241
42.45349382
41.45950203
41.74819806
41.05539081
39.82408182
40.03229364
39.42745568
38.31755874
38.48697182
37.97772412
37.05176281
37.20103156
39.43540616
39.98836986
40.83104861
42.04454374
42.4617343
41.94977332
41.08883071
41.36536404
40.71701726
39.55490204
39.75591075
39.17416273
38.09753909
38.2619393
37.76537895
36.85662289
37.00257349
38.73521764
39.25653377
40.15064906
41.51321611
41.90913073
41.46992202
40.73277369
40.99849915
40.39128299
39.2944788
39.48900015
38.92880648
37.88372663
38.04351603
37.55877696
36.66584339
36.80852779
38.07393182
38.56642344
39.50713356
41.00758555
41.38451929
41.0115234
40.38982876
40.64585859
40.07691271
39.04199393
39.23064016
38.69066573
37.67563698
37.83118361
37.35751578
36.47929354
36.61882419
37.44856534
37.91435881
38.89768367
40.52629397
40.88504642
40.57227297
40.05877816
40.30598964
39.7728574
38.79674181
38.98002451
38.45910989
37.47281826
37.62445206
37.16120323
36.29679006
36.43330231
36.85713565
37.29765832
38.31977143
40.06680935
40.40948539
40.15107733
39.73876039
39.97776605
39.47836725
38.55819024
38.73649186
38.23365465
37.27490213
37.42289119
36.96951094
36.11814975
36.25178123
36.29829292
36.71453336
37.77184526
39.62715771
39.95509729
39.74701586
39.42915139
39.66040101
39.19288184
38.32590331
38.49954388
38.01389169
37.08154874
37.22614602
36.78212278
35.94314403
36.07406978
35.77137901
36.1639753
37.25314366
39.20614056
39.52022753
39.35956874
39.12953422
39.35332572
38.91601491
38.09955765
38.26877003
37.79951316
36.89249577
37.03388983
36.59879592
35.77164126
35.89994679
35.27496597
35.64577851
36.76229942
38.80259388
39.1037706
38.98837983
38.83947161
39.05615122
38.64738068
37.87884616
38.04386236
37.59022959
36.7075032
36.84587399
36.41931087
35.60349705
35.72929874
34.80548343
35.16007785
36.2956393
38.41415524
38.70539434
38.63055525
38.55782184
38.76855132
38.38607532
37.66326681
37.82453987
37.38561076
36.52627496
36.66187092
36.24340325
35.43852009
35.56196704
34.3338359
34.70987263
35.82362973
38.01524174
38.32824648
38.26220526
38.26594831
38.49186781
38.11495162
37.43938635
37.61123287
37.17317381
36.33841862
36.48203616
36.06116644
35.26782451
35.39803389
41.21243147
39.62569866
39.83772686
49.87588078
49.04502999
44.05233336
54.23246227
56.92770963
57.02606035
50.92003922
41.66377043
39.43680405
39.35585829
42.34762616
57.26423984
57.12951788
53.88251306
54.35514311
57.10393149
57.0735631
57.05056323
57.10477388
54.3633654
52.98665636
51.77216963
57.16176419
56.14520628
56.64083657
55.94687955
57.13755843
39.42303363
39.82242081
44.35683634
45.13003668
49.29709638
46.96175289
42.69652982
43.50399988
57.11529137
56.61387565
49.63423119
57.47487136
57.32289625
57.45152921
56.77326192
57.19353071
57.40379316
39.41070582
39.30898331
39.45814071
41.86077248
42.77158359
52.62345409
43.3152113
39.39863847
39.58580221
39.29982659
39.81588501
39.52508436
46.21186365
45.13019177
39.4807559
53.7737305
50.21879337
50.97532674
49.39043117
53.28110031
41.12910914
41.87785858
46.07947819
40.61441911
41.14104163
40.54119858
40.26935086
56.80854531
57.20962214
55.93638313
54.39344723
56.11392565
55.78689307
56.98236642
56.36029317
54.5698253
55.28791665
52.90658918
53.41401269
51.68224315
52.31117215
54.95911194
43.0303946
48.14075238
47.18854748
57.66591985
57.67600583
57.72268927
57.54419708
57.62069236
57.63712423
53.41988155
56.99335335
56.77526405
52.3723771
45.85998711
46.22700536
39.85340441
43.57419092
41.81632049
41.64792177
41.18103484
42.92701574
42.44766672
40.83674895
49.84913016
46.01441885
46.59301831
45.50331025
40.19090009
40.88841185
39.50534291
39.76255035
43.07686326
39.69562723
39.25996584
39.26983174
39.84714327
42.65432722
41.5019604
47.40210463
44.40242103
40.21875111
39.4905277
39.9903208
39.8085643
40.76230898
40.26219041
39.47228599
40.83251873
40.21389544
39.34015962
50.9855046
50.90005155
53.25879649
47.56751188
49.13889192
49.23878432
39.31522447
39.41473966
40.7843553
40.25286796
39.30084505
39.3790713
39.28048595
39.27526385
39.84104134
40.40610343
40.19585416
39.40982872
45.08460884
42.52280321
42.41605685
41.71357638
44.66648105
40.10838225
40.3192827
39.84229162
39.71912399
39.75717939
39.71000619
39.70574354
39.67579396
38.35652306
37.56913144
37.07457846
36.66391393
36.31819892
36.01406645
47.03886192
51.36495675
50.65428873
52.90756391
51.09154643
51.04071631
46.46843193
45.29453946
45.20756427
42.55205237
41.83257063
41.76269241
40.08316082
39.60779016
39.5587142
38.48319447
37.66302011
37.62111773
37.13771714
36.70051986
36.68305337
36.33032361
36.00487599
36.01147441
55.90788199
57.36077665
57.36261213
52.74362967
51.03962368
51.10261715
46.63498484
45.48610107
45.4597179
42.74789015
42.01617671
41.9923918
40.23517898
39.74705901
39.71962485
38.55464026
37.71821431
37.6953409
37.17688302
36.72033298
36.71210653
36.33159512
35.98606893
35.9987712
55.075344
55.8842945
56.35881122
52.02761514
50.52388463
50.70399588
46.50244223
45.4049763
45.44294264
42.7611292
42.0483971
42.05603659
40.28202013
39.79666573
39.79402025
38.56908583
37.73443472
37.73295306
37.18653485
36.7191699
36.72166596
36.31913778
35.95506945
35.97392896
53.1404147
53.92686472
54.41105519
50.90002819
49.59862336
49.85134403
46.07303258
45.09054091
45.1973061
42.63508256
41.9529647
41.98392598
40.24424116
39.77170396
39.78275081
38.54426386
37.71883269
37.72976357
37.16958171
36.69735564
36.71183803
36.28460542
35.90803893
35.93463849
51.52883303
52.11809999
52.5483844
49.6572649
48.5259303
48.79818662
45.43885922
44.56631224
44.70653619
42.3559314
41.73398866
41.79829272
40.1452898
39.69138119
39.71968506
38.46268594
37.65772332
37.69558526
37.10745387
36.63436003
36.66935648
36.21766005
35.84078657
35.87818052
50.14863069
50.54494518
50.91669681
48.45828878
47.47707018
47.72837408
44.77946248
44.0062622
44.14209547
42.02313894
41.45413561
41.52688405
39.96669584
39.53453221
39.57899551
38.32668507
37.54951816
37.60838461
37.00848571
36.5409463
36.59048611
36.12658111
35.75297959
35.79996145
48.85697707
49.18247287
49.5051353
47.44881563
46.60275002
46.79927865
44.21467621
43.51409505
43.63345055
41.68198075
41.14954589
41.2269426
39.74554899
39.33410779
39.38688425
38.15744327
37.40991691
37.48287778
36.88283667
36.42339658
36.48436521
36.01520493
35.64772002
35.70320207
47.60828148
47.9755657
48.26607873
46.60245593
45.86327502
46.0420231
43.70285651
43.05436047
43.16651355
41.34077413
40.83856569
40.9161495
39.50536798
39.11226451
39.16894072
37.96928486
37.24987976
37.33190935
36.73790271
36.28773858
36.3571654
35.88759862
35.52758645
35.59023856
46.46951323
46.8811094
47.1451515
45.82882433
45.1842445
45.34892915
43.22758803
42.62417933
42.72905421
41.00966991
40.53256349
40.60824627
39.25886952
38.88145207
38.93954894
37.77138342
37.0770257
37.16468565
36.57937883
36.13911755
36.21453893
35.74758844
35.39562136
35.46387239
45.42305369
45.88271755
46.12376628
45.11635704
44.55593239
44.70869874
42.78312191
42.2208035
42.31937916
40.69272832
40.2367591
40.30961577
39.01302974
38.64885369
38.7069089
37.56941737
36.89660094
36.98749894
36.41196597
35.98156637
36.06107697
35.59853602
35.25451441
35.32706726
44.45287829
44.97114691
45.19175198
44.45564419
43.97079217
44.1133817
42.36429601
41.83993992
41.93324828
40.39041608
39.95285014
40.02270851
38.77161007
38.41860682
38.47580252
37.36689587
36.71233995
36.80476354
36.2392759
35.81819791
35.9003204
35.44323655
35.10700048
35.18246424
43.55196573
44.13089697
44.33500576
43.83912046
43.42273782
43.5565607
41.96753798
41.4782221
41.56699725
40.10143712
39.68050113
39.74755697
38.53638991
38.19293505
38.24885381
37.16601248
36.52686357
36.61962798
36.06395866
35.65140996
35.73501989
35.28391405
34.9548094
35.03242821
42.71253254
43.3498682
43.54009416
43.2606801
42.90673117
43.03297589
41.59014529
41.13322399
41.21801972
39.82420478
39.41865072
39.48319223
38.30794189
37.97283168
38.02731503
36.9680147
36.34190355
36.43424115
35.8878532
35.48295321
35.5672391
35.12226984
34.80000133
34.87868492
41.92646846
42.61918897
42.79754584
42.71520914
42.41848337
42.53814183
41.22979368
40.80297066
40.88424266
39.55734163
39.16618259
39.22847153
38.08618428
37.75853925
37.8115682
36.77356233
36.15855391
36.24997664
35.71219959
35.31408967
35.39846374
34.95954512
34.64318715
34.72278739
41.18581521
41.93051138
42.0990185
42.19847712
41.95450071
42.0683921
40.88453032
40.48583241
40.56396921
39.2997643
38.92216706
38.98242506
37.8708052
37.54996659
37.60158755
36.58292693
35.97747054
36.06770209
35.53780717
35.14568759
35.2297553
34.79667438
34.48616035
34.56562965
40.48612718
41.2795711
41.43894315
41.70701796
41.51185032
41.62064537
40.55264964
40.18037491
40.25571048
39.05053538
38.68578233
38.74420044
37.66138171
37.34683972
37.39712636
36.39616994
35.7990196
35.88790183
35.36519081
34.97835722
35.06184041
34.63427365
34.32838819
34.40826501
39.8244363
40.66280617
40.8140473
41.23817938
41.08821185
41.19244965
40.23274788
39.88540691
39.95822452
38.80887519
38.45634092
38.51308534
37.45750332
37.14885114
37.19788544
36.21325467
35.62339603
35.71085059
35.19467466
34.81249453
34.8952091
34.47285852
34.17207962
34.25092767
39.19833422
40.0762995
40.22023239
40.78958286
40.68168208
40.78180837
39.92364279
39.59991005
39.67044812
38.57409306
38.23322619
38.2884449
37.25875843
36.95566399
37.00353154
36.03407496
35.45066109
35.53667683
35.0264477
34.6483905
34.73022125
34.31267782
34.01519129
34.09454546
38.6049184
39.51787733
39.65494034
40.35947845
40.29080758
40.38711796
39.62445513
39.32311658
39.39153445
38.34564624
38.0159471
38.06974408
37.06479934
36.76698501
36.81374867
35.85850781
35.28082361
35.36541416
34.86062223
34.48620413
34.56710006
34.15407467
33.86141144
33.93877116
38.04212875
38.98623898
39.11666432
39.94696199
39.91464447
40.00734302
39.33452842
39.05443896
39.12087255
38.12308441
37.8040853
37.85656213
36.87529737
36.58251982
36.62825612
35.68635967
35.11388847
35.19711127
34.69718399
34.32602313
34.40607994
33.99698511
33.70603066
33.78481972
37.50891086
38.4809165
38.6049033
39.55116555
39.5525657
39.64179068
39.05339383
38.79344397
38.85798935
37.90604717
37.5972985
37.64853312
36.68996498
36.40200355
36.44677205
35.51754243
34.94969106
35.03191216
34.53593853
34.16763885
34.24731212
33.84154728
33.55596282
33.63162329
37.00439331
38.0008818
38.11902073
39.17206372
39.20389182
39.28986177
38.7806974
38.53980055
38.60254296
37.6942527
37.39531889
37.4453775
36.50858658
36.22524858
36.26909524
35.35190873
34.78746266
34.8700224
34.37616719
34.01043234
34.09135515
33.68681162
33.40083032
33.48154237
36.52641164
37.544118
37.65875082
38.80818673
38.86791511
38.95127236
38.51597145
38.29310571
38.35423015
37.48740532
37.19787303
37.2468391
36.3309471
36.05206101
36.09503772
35.18922094
34.62455384
34.71261193
34.21533676
33.85191337
33.93945194
33.53081646
33.25236524
33.33320067
36.06788095
37.10325855
37.22741417
38.45260674
38.53876991
38.62834216
38.25578401
38.05048945
38.1138109
37.28372699
37.00340737
37.05316733
36.15592878
35.88141761
35.92471485
35.02094383
34.44955776
34.56496196
34.04249742
33.68129703
33.79598573
33.36205736
33.07893684
33.19470935
54.28510187
55.22712391
55.2571434
51.45671556
47.84487756
48.33164025
40.32127027
40.20438291
43.16476647
55.26287612
55.28041227
54.35139966
56.95406058
57.05838268
54.37004527
54.08770812
51.05717449
42.42035605
41.80793712
39.86631899
40.11504993
40.0459958
40.54848881
43.97613523
42.83567135
52.65039851
55.04644609
54.7768785
40.35969367
40.21032099
45.10395064
44.9872507
46.17748321
43.07255104
43.96420909
44.08125106
41.68009986
41.58736302
42.28573292
40.4042118
40.96439904
41.04864031
39.5045451
39.44280444
39.89929167
38.65454128
39.02929945
39.08421261
52.59535954
52.01883911
47.97040487
56.26687986
54.72465335
55.09652847
53.92003027
54.33353255
56.02651554
51.13533542
51.10851102
52.90229738
47.89840356
49.43532748
49.461929
49.32484135
49.38688966
47.83188508
45.42178148
45.36347601
46.54466576
43.42115488
44.32835562
44.39850639
44.1758312
44.26866087
43.35872061
41.94305903
41.89743051
42.61854753
40.66147044
41.24768308
41.29097466
41.1241354
41.1876641
40.60700557
39.68853865
39.65060246
40.13155241
38.81885642
39.21488696
39.24947581
39.13232349
39.17635976
38.78520188
57.24555808
57.32799874
56.0104211
57.72701782
57.70610026
57.59078117
50.85031066
50.95061007
52.62920179
47.90994736
49.36490407
49.28850653
49.46051153
49.42230173
47.94026734
45.46929486
45.48368144
46.62227703
43.57893498
44.47466893
44.47059522
44.42379344
44.47171647
43.56440581
42.05698232
42.04779087
42.7737455
40.80019329
41.39248418
41.40483322
41.33568639
41.36256884
40.77068927
39.78528754
39.76580546
40.25858352
38.91678445
39.3222109
39.34074144
39.27785461
39.30339468
38.8999931
50.63981323
50.6591398
54.9026266
55.39605936
54.56697975
53.22615957
54.61317065
54.19865734
55.41605889
55.02123752
53.55391354
50.09235907
50.31808413
51.76746634
47.61167696
48.91540792
48.73736287
49.20205223
49.07199918
47.72520358
45.28852567
45.35768163
46.42958288
43.52231523
44.39038123
44.34499996
44.45368818
44.42691448
43.54977469
42.01124178
42.03231598
42.74009447
40.80891041
41.39147418
41.3752374
41.40599957
41.40251825
40.81557422
39.79074601
39.79510901
40.27860184
38.94681155
39.35340769
39.35087514
39.34897572
39.35403532
38.94696869
50.0027123
50.22384306
52.99385239
53.45373054
52.70696349
51.82908215
52.95052344
52.53939096
53.78176701
53.36514151
52.18550358
49.06943466
49.33712986
50.59352502
46.97196606
48.11483575
47.88852634
48.54219713
48.33364599
47.15236932
44.84234576
44.97125769
45.92555225
43.30502008
44.1004629
43.99541256
44.2784439
44.19569928
43.38000498
41.85747034
41.90965507
42.57708696
40.74002005
41.29942216
41.25946968
41.35416997
41.32911463
40.76125557
39.74226662
39.75811117
40.22761561
38.92398712
39.32502531
39.31216035
39.34542691
39.33694094
38.9345492
49.18674503
49.37861556
51.30271994
51.70279743
51.1685
50.40815139
51.3410778
50.95810706
52.13327567
51.73340032
50.75877635
47.98840613
48.25519426
49.34759984
46.19204207
47.19106597
46.96092118
47.65740781
47.42407034
46.39056676
44.28189923
44.42403117
45.2704513
42.93168484
43.64657534
43.52659612
43.8831699
43.76614933
43.03149107
41.59740481
41.66648926
42.27332464
40.5884947
41.10684453
41.04892374
41.21300474
41.1617008
40.63400589
39.62033821
39.65802144
40.10655055
38.85049227
39.24004193
39.20686062
39.2932663
39.26907395
38.87629124
48.38708627
48.60548636
49.839917
50.18579166
49.82055677
49.09217435
49.87650454
49.54348351
50.58528893
50.22470746
49.40429599
47.01023859
47.23752693
48.18290041
45.43870505
46.31241114
46.11646508
46.73623067
46.5191282
45.61666908
43.75438169
43.877233
44.62712378
42.53871334
43.18326641
43.07503017
43.4080433
43.2931568
42.63442543
41.30373952
41.37959641
41.93879271
40.37021655
40.85776193
40.79002945
40.98772057
40.92381592
40.42895207
39.43809213
39.48743238
39.91423452
38.7135243
39.08773333
39.04293092
39.17008631
39.13023262
38.75219018
47.30932127
47.62358439
48.56390744
48.86931989
48.53394695
48.00067315
48.63307099
48.35232805
49.22398697
48.92205515
48.25166436
46.22471126
46.4115388
47.22962227
44.81745658
45.59766431
45.43390817
45.93668391
45.76512477
44.96534767
43.28054539
43.39642559
44.08308796
42.15625016
42.75523324
42.65083183
42.9674859
42.86083243
42.25131549
40.99394689
41.07180594
41.59614265
40.11946817
40.58042762
40.50936178
40.72101193
40.65105574
40.18384883
39.22491884
39.28004965
39.68665714
38.53901843
38.89798966
38.84696131
38.99620274
38.9477824
38.5851579
46.08983587
46.38604565
47.41537298
47.69208854
47.31402621
47.05606578
47.55398599
47.30122036
48.07917205
47.81318746
47.28389239
45.51688844
45.6882842
46.40273304
44.25559782
44.96297821
44.81219433
45.27366622
45.11675045
44.39186407
42.83566556
42.94408482
43.58081716
41.78415594
42.34577909
42.24697942
42.54774269
42.4460432
41.87572994
40.68451869
40.76131967
41.25681764
39.85689037
40.29537257
40.22423857
40.43805993
40.36668536
39.92294199
38.99744424
39.05506074
39.44399438
38.34330144
38.68864143
38.6345609
38.79498444
38.74213593
38.39356825
44.95924329
45.2339415
46.37078992
46.62307632
46.19985923
46.19445062
46.57833949
46.34823876
47.05456098
46.81367624
46.40280772
44.86426244
45.02273678
45.64537994
43.73490016
44.37644009
44.23633517
44.66426419
44.51904265
43.86165563
42.41941995
42.52099518
43.11381937
41.42908805
41.9593528
41.86631094
42.14965622
42.05378449
41.51611345
40.38321629
40.45754158
40.92904209
39.59321559
40.01282538
39.94324493
40.1533863
40.08288836
39.65886621
38.76506307
38.82327095
39.19715985
38.13673564
38.47023941
38.41503973
38.58009095
38.52526152
38.18894831
43.91117601
44.16587155
45.41703308
45.64725532
45.17367357
45.40288966
45.68669908
45.47493531
46.12321746
45.90275094
45.59485644
44.25837253
44.40585655
44.94665231
43.24805322
43.83010613
43.69910135
44.09863865
43.96325908
43.36689617
42.02779435
42.12362738
42.67617344
41.09238646
41.5950654
41.50709761
41.77461823
41.68422204
41.17489978
40.0933067
40.16465471
40.61581343
39.33405896
39.73781131
39.67051311
39.87419605
39.80571114
39.39823964
38.53326031
38.59095953
38.95216385
37.9260372
38.2492998
38.19415352
38.3597951
38.30451406
37.97882271
42.93732965
43.17437818
44.54296375
44.75493844
44.22137941
44.6703325
44.86405079
44.66813509
45.26733093
45.06375468
44.84845846
43.69245583
43.83049974
44.29761695
42.79002978
43.3182551
43.19513322
43.57017626
43.44325728
42.9020562
41.65684878
41.74781242
42.26314435
40.77246424
41.24987277
41.16621556
41.42027599
41.33455329
40.85100224
39.81528684
39.88370873
40.31697906
39.08208161
39.47230477
39.40745937
39.60383047
39.53776519
39.14433709
38.30511063
38.36170051
38.71218094
37.71524801
38.02970305
37.97529208
38.13916525
38.08432803
37.76778446
42.02827015
42.25021341
43.73358532
43.93047253
43.33667142
43.98830115
44.10168056
43.91954667
44.47585208
44.2870756
44.15446599
43.16101474
43.29091188
43.69115807
42.35714959
42.83635396
42.72008297
43.07381809
42.95424687
42.46319152
41.30376455
41.39048761
41.87147212
40.46709688
40.92099967
40.84106861
41.08354097
41.00181429
40.54218562
39.5483362
39.61409934
40.03108725
38.83815349
39.21649558
39.15398888
39.3432175
39.27956785
38.8983772
38.08215993
38.13736974
38.47863972
37.50677584
37.81365712
37.76033456
37.92114839
37.8672559
37.55857363
41.17410679
41.38273128
42.97869519
43.16277788
42.51131356
43.34997999
43.3915404
43.2212678
43.74055432
43.56458144
43.50579178
42.65936432
42.78221735
43.12140166
41.94626733
42.38047827
42.27015726
42.60538301
42.49220008
42.04708012
40.96635673
41.0493476
41.49854445
40.17438518
40.60633187
40.52967438
40.76199867
40.68376273
40.24646151
39.29130141
39.35469388
39.75656498
38.60215274
38.96975448
38.90938427
39.09203936
39.03063317
38.66043216
37.86495576
37.91871518
38.25188664
37.30191196
37.60222608
37.55013239
37.70732758
37.65461589
37.35273189
40.37123257
40.56718785
42.26994365
42.44332517
41.73727095
42.74951093
42.72688269
42.56755858
43.05375706
42.88888755
42.89641857
42.18365629
42.30033742
42.58348775
41.55466329
41.94727767
41.8421861
42.1612203
42.0536091
41.65088468
40.64285637
40.7225155
41.1421355
39.89285616
40.30422416
40.23049759
40.45379059
40.37864864
39.96225453
39.04317184
39.10441963
39.49211621
38.37359656
38.73128601
38.67287353
38.84952864
38.79016736
38.43006461
37.65355241
37.70586924
38.03175768
37.10125194
37.39579685
37.34497609
37.49837371
37.44692286
37.1509907
39.61697729
39.80125026
41.60053694
41.76436893
41.00717015
42.18174163
42.10415937
41.95416187
42.4107516
42.2563225
42.32078757
41.73067205
41.84194007
42.07335918
41.18006014
41.53398973
41.43349497
41.73829962
41.63558029
41.27222904
40.33172668
40.40842412
40.80036756
39.62133905
40.01333796
39.94222628
40.15745453
40.08507509
39.68833717
38.80306895
38.86238471
39.23670873
38.15194047
38.50035982
38.44372382
38.61492318
38.55742299
38.20673771
37.44774348
37.49868728
37.81790872
36.90500584
37.19441091
37.14483132
37.29447975
37.24428767
36.95363963
38.90649183
39.0802139
40.96720517
41.12233179
40.31723844
41.6435231
41.5163152
41.37420078
41.80622436
41.66030322
41.77547734
41.29778327
41.40423963
41.58778344
40.82050228
41.13827712
41.04186779
41.33405584
41.23566439
40.90907028
40.03164797
40.1056922
40.47160251
39.35880826
39.73249307
39.66373186
39.87171976
39.80181768
39.42364469
38.57023405
38.62779601
38.98944001
37.93662317
38.2762938
38.22127889
38.38750272
38.3316989
37.98988376
37.24722401
37.29687417
37.60990909
36.71314452
36.99790797
36.94951753
37.09555751
37.04658258
36.76069087
38.23581137
38.39992909
40.36592637
40.5134361
39.66469389
41.13174727
40.95845283
40.8232392
41.23388866
41.09532787
41.257365
40.88291631
40.98504058
41.12423191
40.47440712
40.75826841
40.66553341
40.946413
40.85188844
40.55974489
39.74153139
39.81317961
40.15450084
39.10441124
39.46070969
39.39407599
39.59552401
39.52785524
39.16729002
38.34402842
38.39999061
38.74955979
37.72714803
38.05850722
38.00497675
38.16664929
38.11239564
37.77899467
37.05167863
37.10011719
37.40735154
36.5255535
36.80607346
36.75881039
36.90142235
36.85360605
36.57204992
37.60168491
37.75688987
39.79368174
39.93413111
39.04700949
40.6444581
40.4265465
40.29731011
40.68951563
40.55727263
40.76401668
40.48435803
40.58254111
40.6803565
40.14047526
40.39244388
40.30306717
40.57366542
40.48263482
40.22287182
39.46046664
39.52992169
39.84794666
38.85740595
39.19714625
39.1324614
39.32794662
39.26230251
38.91849519
38.12388522
38.17837667
38.51640731
37.52304795
37.84647101
37.79430849
37.9518005
37.89896423
37.57358862
36.86077949
36.90808316
37.20983368
36.34205122
36.61864807
36.57245168
36.71182593
36.66510053
36.38754194
37.00196914
37.14871746
39.24873098
39.38249216
38.46141755
40.17976777
39.91838709
39.79497014
40.1695489
40.04324271
40.29398291
40.10092992
40.195415
40.25473627
39.81776807
40.03970085
39.95346146
40.21449293
40.12670819