/*--------------------------------*- C++ -*----------------------------------*\
| =========                 |                                                 |
| \\      /  F ield         | OpenFOAM: The Open Source CFD Toolbox           |
|  \\    /   O peration     | Version:  v2012                                 |
|   \\  /    A nd           | Website:  www.openfoam.com                      |
|    \\/     M anipulation  |                                                 |
\*---------------------------------------------------------------------------*/
FoamFile
{
    version     2.0;
    format      ascii;
    class       surfaceScalarField;
    location    "3";
    object      meshPhi;
}
// * * * * * * * * * * * * * * * * * * * * * * * * * * * * * * * * * * * * * //

dimensions      [0 3 -1 0 0 0 0];
oriented        oriented;


internalField   nonuniform List<scalar> 
5975
(
2.106357326e-05
-0.0003381481068
-2.046651558e-05
0.0006762163432
-0.000338665294
-0.001354201903
0.0001079022675
-0.0002231199088
0.002714917796
-0.001359600359
0.0001141021065
0.0002584116418
-0.00256779541
-0.0002433533444
0.002415167867
0.0001501351043
-0.001777725328
-0.0001437271482
0.001517915313
6.441040511e-05
-0.0007363125689
-6.133133774e-05
0.0005098821129
-5.812959987e-05
6.255938919e-06
-4.975244004e-06
5.738436343e-06
0
0
0
0
0
0
0
0
0
0
0
0
0
0
0
0
0
5.864011579e-05
-0.000702991283
-5.864004642e-05
0.001408103891
-0.0007051126772
-0.002821419266
0.000229808951
-0.0002278210575
0.002813238738
0.0002175486197
-0.002480453866
-0.000210364251
0.00229148289
0.0001251564807
-0.001544728592
-0.0001128885974
0.00127429573
4.733107272e-05
-0.0005176943526
-4.440416862e-05
0.0003315050635
-8.06815699e-06
1.024278521e-06
-4.687467615e-07
0
0
0
0
0
0
0
0
0
0
0
0
0
0
0
0
0
0
0.0001239298105
-0.002915979952
-0.0001239298104
0.002915979952
0.0002129272603
-0.002861538747
-0.0002035131349
0.002779374157
0.0001758979817
-0.00228702876
-0.0001638271207
0.002053196423
8.736965989e-05
-0.001247896457
-8.131130063e-05
0.0009772564235
2.901229302e-05
-0.0002998644866
-2.330363144e-05
0.000156766941
0
0
0
0
0
0
0
0
0
0
0
0
0
0
0
0
0
0
0
0
0
0.0001142541406
-0.002829217209
-0.0001040903404
0.002782320015
0.0001608758242
-0.0024991088
-0.0001427934111
0.002350625365
0.0001207004524
-0.001756542189
-0.0001053562784
0.001522851301
5.889919023e-05
-0.0008060152826
-5.046081218e-05
0.0005879945647
1.055543265e-05
-0.0001081042163
-6.510070766e-06
2.967098267e-05
0
0
0
0
0
0
0
0
0
0
0
0
0
0
0
0
0
0
0
0
0
6.17765996e-05
-0.00203753512
-4.728490169e-05
0.001971066446
8.570112059e-05
-0.001639053932
-6.815590375e-05
0.001489832644
6.146752154e-05
-0.0009706530167
-4.843347801e-05
0.0007891616547
2.452468373e-05
-0.0002991547764
-1.654377824e-05
0.0001748182219
1.021169779e-07
-7.510923867e-07
0
0
0
0
0
0
0
0
0
0
0
0
0
0
0
0
0
0
0
0
0
0
0
1.456338636e-05
-0.0009062366449
-8.32581475e-06
0.0008594773786
2.704881446e-05
-0.0006354858202
-1.772127341e-05
0.0005415377912
1.667190673e-05
-0.0002510545647
-9.174212485e-06
0.0001656333377
9.243306335e-07
-9.53478975e-06
-2.645703438e-09
1.027736206e-07
0
0
0
0
0
0
0
0
0
0
0
0
0
0
0
0
0
0
0
0
0
0
0
0
0
6.310530906e-07
-0.0001072824748
-1.386147916e-07
9.353146225e-05
1.767516221e-06
-3.713783778e-05
-1.49265164e-07
2.046565266e-05
0
0
0
0
0
0
0
0
0
0
0
0
0
0
0
0
0
0
0
0
0
0
0
0
0
0
0
0
0
0
0
0
0
0
0
0
0
0
0
0
0
0
0
0
0
0
0
0
0
0
0
0
0
0
0
0
0
0
0
0
0
0
0
0
0
0
0
0
0
0
0
0
0
0
0
0
0
0
0
0
0
0
0
0
0
0
0
0
0
0
0
0
0
0
0
0
0
0
0
0
0
0
0
0
0
0
0
0
0
0
0
0
0
0
0
0
0
0
0
0
0
0
0
0
0
0
0
0
0
0
0
0
0
0
0
0
0
0
0
0
0
0
0
0
0
0
0
0
0
0
0
0
0
0
0
0
0
0
0
0
0
0
0
0
0
0
0
0
0
0
0
0
0
0
0
0
0
0
0
0
0
0
0
0
0
0
0
0
0
0
0
0
0
0
0
0
0
0
0
0
0
0
0
0
0
0
0
0
0
0
0
0
0
0
0
0
0
0
0
0
0
0
0
0
0
0
0
0
0
0
0
0
0
0
0
0
0
0
0
0
0
0
0
0
0
0
0
0
0
0
0
0
0
0
0
0
0
0
0
0
0
0
0
0
0
0
0
0
0
0
0
0
0
0
0
0
0
0
0
0
0
0
0
0
0
0
0
0
0
0
0
0
0
0
0
0
0
0
0
0
0
0
0
0
0
0
0
0
0
0
0
0
0
0
0
0
0
0
0
0
0
0
0
0
0
0
0
0
0
0
0
0
0
0
0
0
0
0
0
0
0
0
0
0
0
0
0
0
0
0
0
0
0
0
0
0
0
0
0
0
0
0
0
0
0
0
0
0
0
0
0
0
0
0
0
0
0
0
0
0
0
0
0
0
0
0
0
0
0
0
0
0
0
0
0
0
0
0
0
0
0
0
0
0
0
0
0
0
0
0
0
0
0
0
0
0
0
0
0
0
0
0
0
0
0
0
0
0
0
0
0
0
0
0
0
0
0
0
0
0
0
0
0
0
0
0
0
0
0
0
0
0
0
0
0
0
0
0
0
0
0
0
0
0
0
0
0
0
0
0
0
0
0
0
0
0
0
0
0
0
0
0
0
0
0
0
0
0
0
0
0
0
0
0
0
0
0
0
0
0
0
0
0
0
0
0
0
0
0
0
0
0
0
0
0
0
0
0
0
0
0
0
0
0
0
0
0
0
0
0
0
0
0
0
0
0
0
0
0
0
0
0
0
0
0
0
0
0
0
0
0
0
0
0
0
0
0
0
0
0
0
0
0
0
0
0
0
0
0
0
0
0
0
0
0
0
0
0
0
0
0
0
0
0
0
0
0
0
0
0
0
0
0
0
0
0
0
0
0
0
0
0
0
0
0
0
0
0
0
0
0
0
0
0
0
0
0
0
0
0
0
0
0
0
0
0
0
0
0
0
0
0
0
0
0
0
0
0
0
0
0
0
0
0
0
0
0
0
0
0
0
0
0
0
0
0
0
0
0
0
0
0
0
0
0
0
0
0
0
0
0
0
0
0
0
0
0
0
0
0
0
0
0
0
0
0
0
0
0
0
0
0
0
0
0
0
0
0
0
0
0
0
0
0
0
0
0
0
0
0
0
0
0
0
0
0
0
0
0
0
0
0
0
0
0
0
0.0003384274464
-1.010873454e-05
1.020958442e-05
-0.0003385282963
-0.0003380519167
0.0006757079949
2.183494141e-05
-0.0001001967991
0.001350004987
0.000100138518
-0.001349946706
0.0007021766232
-2.68265153e-05
2.682684045e-05
-0.0007021769484
-0.000338535056
-9.721785374e-06
0.001402234298
-0.0006410353683
-6.317320221e-06
5.935129334e-06
-0.0001780149434
0.002764482896
-0.001398205092
-0.001384281795
9.552502518e-05
0.0001004939089
-0.001354120806
-0.0001002778953
0.001449185587
-5.198999946e-05
5.198999944e-05
-0.001449185587
-0.0007029914636
-2.682633468e-05
-7.208659728e-05
0.001349296706
7.179814145e-05
-0.0006748059168
-0.0006742023332
1.450397137e-05
0.0006819933979
-0.0006824336685
-1.406370071e-05
0.0006810488586
1.53632068e-05
-0.000681908094
-1.869916188e-05
0.0006806533378
1.909468268e-05
-7.860840777e-05
0.001367545507
7.571802326e-05
-0.001364655123
0.001353737253
-7.248808139e-05
-0.0006771016655
-0.0006762341033
1.366987722e-05
0.0003371299351
-0.000338322205
-1.247760735e-05
-1.660147876e-05
0.0006787322415
1.683210846e-05
-0.0003392866096
-0.0003396762616
0.0003367128357
1.45872519e-05
-0.0003376302104
-1.24702859e-05
0.000336150959
1.303216265e-05
-2.834993348e-05
0.0006711702428
2.862652652e-05
-0.0006714468358
0.0006800338817
-0.0006801606186
-1.647474183e-05
0.002891832569
-0.001442646982
5.864003645e-05
6.528977401e-05
0.00287370157
-0.0001993987098
0.0002029241646
-0.002891420765
-0.0002037285435
-0.001413315375
-0.001382390291
-2.785443646e-05
0.0006746222869
2.802929624e-05
-0.0006747971467
0.0006718714716
-0.0006719773108
-2.824409428e-05
-1.177975029e-05
0.0003364393995
-7.859011837e-05
0.001375598062
7.205013722e-05
-0.001369058081
0.001372871376
-0.00136824933
-8.323045368e-05
-1.823082653e-05
0.0006815250625
0.001425709943
-5.198999921e-05
5.198999856e-05
-0.001425709943
3.801698688e-05
0.0004298419383
-0.0004678589251
-1.310453303e-05
0.0003359729756
1.371049027e-05
-0.0003365789328
-5.786713434e-06
0.0006880952057
3.055733963e-06
-7.764186745e-06
0.0006845430592
1.070728513e-05
-0.0006874861576
-0.0003369682868
6.308494964e-06
-9.675678268e-06
0.0003403354701
-0.0003347222013
-1.109550618e-05
0.0003364676106
9.350096797e-06
-1.11654803e-05
0.000336660227
1.110328615e-05
-0.0003365980328
-7.917797554e-06
2.259254296e-06
-0.000329063658
-3.434635391e-05
-2.567136066e-05
-0.0002769505723
-1.152620816e-05
0.0003414217342
1.21143223e-05
-0.0003420098484
0.0003324469363
-0.0003261960068
-1.416872701e-05
-8.764457312e-05
0.0003403312514
2.279056421e-05
-8.363256546e-06
0.0003407571452
8.786860822e-06
-0.0003411807495
0.0003408390912
-0.0003410555531
-1.13097463e-05
-9.13355052e-06
0.0003391918474
9.341110863e-06
-0.0003393994077
0.0003407386586
-0.0003410250183
-8.076896813e-06
1.319599593e-06
0.0003416222236
0.0004333645877
-0.0004677109416
0.0003357888956
-0.0003353434977
-1.354993093e-05
-4.670033286e-06
0.0003288068262
-0.000286119806
0.0003427378715
9.693521119e-05
0.001350228107
0.0001076791467
0.002580446158
-0.0002695144994
0.0002751032781
-0.002661882546
0.0003364419911
-0.0003369293268
-1.067814456e-05
-1.418315866e-05
0.0003355345888
-1.198853784e-05
0.0003401459807
1.326429139e-05
0.0003304937005
-0.0003251051247
-1.383623161e-05
0.000332791118
-1.360158883e-05
-1.31845342e-05
0.0003356797726
1.347773714e-05
-1.250249737e-05
0.000334688097
1.262491731e-05
-0.000334810517
-3.576914358e-05
-2.482640736e-05
0.0003381109869
-0.0002775154359
0.0004342822636
-0.0004700514072
0.0004344261907
3.728337088e-05
9.112309605e-05
-1.424098085e-06
0.0003447271927
0.0003402012005
-0.0002739045118
0.0003411597811
-6.595959284e-06
6.695850926e-06
-0.0003412596727
0.0003404156752
-0.0003416549599
-7.894265799e-06
-3.565586072e-05
-0.0002945855202
9.511450169e-05
-4.50578029e-06
0.0003392332169
0.0003345496056
-0.0002750909647
-0.0004290971402
9.146646224e-05
0.0003398899323
3.954336017e-05
-0.0004686405004
-3.526736171e-06
-0.0002859935617
0.0003378739176
-0.000272078816
-0.0003442395678
1.49297158e-05
0.0003414241743
-5.268523097e-06
9.531121891e-05
-9.167384599e-06
-3.459387617e-05
-0.0002951288668
0.0003364659967
-0.000275748654
0.0003372269855
5.337778461e-06
-5.918654759e-06
0.0003409121277
-0.0003384756701
0.0003423893504
0.0003358272782
-5.882055782e-06
5.543205901e-06
-8.189022262e-06
0.0003384730946
0.0003412467747
0.0003249728806
-3.62852445e-05
-0.0002933576694
9.47730733e-06
-1.584043771e-05
0.000331336011
0.0003337783532
1.638635382e-05
0.0003393209774
-1.296945977e-05
-0.0003350700734
0.0003356159895
-0.0002744201067
0.002449660368
0.0002655555813
0.001823950385
-0.0001808462923
0.0001857148312
-0.002063920325
0.001566219183
0.0001638405664
0.0007795960786
-8.18923669e-05
8.794089526e-05
-0.001033062176
0.0005488242738
6.964363272e-05
-1.789407437e-05
7.48987835e-05
2.18273384e-05
-0.0001890421953
-2.025263503e-05
0.0006789451905
2.003968604e-05
-2.749171078e-05
0.0006789374689
2.789758578e-05
-0.0006793433439
0.0006762804416
-0.0006762581273
-2.78767508e-05
0.002766006636
0.0002272738297
0.002516244225
-0.0002339892351
0.0002500289218
-0.002664852507
-0.002666759089
-0.0002618906527
0.002335126207
0.0002278188894
0.001598685778
-0.0001395170076
0.0001513761317
-0.001866786779
-0.002020854237
-0.0001732449034
0.001342814788
0.0001261583159
0.0005756510924
-6.250508286e-05
6.597068129e-05
-0.0008129346457
-0.0009866822685
-7.81522553e-05
0.0003691913705
5.038934231e-05
-6.792767564e-06
1.82356644e-05
1.010240992e-05
-8.831630851e-05
-0.000163195362
-1.56973844e-05
-5.864003667e-05
0.001425709943
5.864003734e-05
-7.859011837e-05
0.001425709943
7.859011837e-05
-0.001425709943
0.001408103891
-0.001408103891
-7.859011839e-05
0.002814123835
0.000220001356
0.002363293592
-0.0001960709381
0.0002069161596
-0.00255638809
-0.002625724679
-0.000228620821
0.002134956949
0.0001861785699
0.0013253547
-0.0001069825882
0.0001133017292
-0.001606140113
-0.001814808284
-0.0001335578007
0.001054172393
9.931518163e-05
0.0003555977531
-4.067961612e-05
4.803653169e-05
-0.000558773794
-0.0007475567026
-5.604420354e-05
0.0002001893349
3.508096516e-05
-8.484701694e-07
0
1.777232235e-06
-1.552110627e-05
-6.504274285e-05
-4.961079035e-06
0.0029135291
-9.117769744e-05
9.617238602e-05
-9.732977856e-05
4.533977914e-05
0.002879882307
0.000120973076
0.00264080587
-0.0001579132333
0.0001724009987
-0.002747750869
-0.002903588456
-0.0001931687439
0.002503471558
0.0001773159786
0.001920504946
-0.0001361145171
0.0001528032814
-0.002140209132
-0.002489656721
-0.0001832001567
0.001682425379
0.000135825384
0.0009311827331
-7.29460958e-05
8.236705537e-05
-0.001179654267
-0.00152419643
-9.958086355e-05
0.0006961138497
6.694202703e-05
0.000155693367
-2.120530885e-05
2.672416458e-05
-0.0003003785761
-0.0004936728726
-3.660754246e-05
5.573046507e-05
1.491007008e-05
0
0
0
0
-5.477184322e-06
-8.265163348e-08
0.002291473162
-4.633348559e-05
5.934653342e-05
-8.281410167e-05
0.002225311001
7.679423456e-05
0.00188750388
-8.543010175e-05
0.0001041060335
-0.002022599682
-0.002619838184
-0.0001412089428
0.001732118315
0.0001044545153
0.001176816737
-6.992149661e-05
8.55513885e-05
-0.001372602099
-0.001975904404
-0.0001190392422
0.0009772736398
7.544963499e-05
0.000417989066
-3.380383796e-05
4.346244694e-05
-0.0005912998768
-0.001039895637
-6.321248401e-05
0.000266768801
3.305238588e-05
9.198537114e-06
-2.21032446e-06
5.612672657e-06
-5.654168252e-05
-0.0002315848732
-1.560454848e-05
0
1.130587865e-06
0
0
0
0
0
0
0.001184822855
-7.171302896e-06
1.385052123e-05
-3.387849532e-05
0.001130858181
2.319708898e-05
0.0008702949567
-2.651312594e-05
3.800016067e-05
-0.0009713126207
-0.001770460436
-6.778654506e-05
0.0007590196803
3.858558327e-05
0.0004016905798
-2.065811553e-05
3.068093728e-05
-0.0005204653458
-0.001151344784
-5.544256363e-05
0.0002895516542
2.586516589e-05
4.400117785e-05
-3.634723317e-06
9.031153256e-06
-0.000105528881
-0.0004471968859
-2.460771497e-05
9.484595566e-06
4.1264404e-06
0
0
0
0
-2.120744028e-05
-4.741028049e-07
0
0
0
0
0
0
0
0
0.0002415962929
5.91220598e-07
-5.612878338e-07
-2.780423888e-06
0.0002195788821
1.833904833e-06
0.0001206760531
-2.092454449e-06
5.394198658e-06
-0.0001570062724
-0.0007217611471
-1.73694037e-05
8.449965498e-05
5.206601086e-06
8.888718783e-06
-9.87260441e-08
1.807618321e-06
-2.524573172e-05
-0.0003451937076
-1.237564595e-05
9.129563587e-07
6.202100186e-07
0
0
0
0
-4.008688282e-05
-6.61989646e-07
0
0
0
0
0
0
0
0
0
0
0
0
0
0
0
0
0
0
0
2.722607083e-07
0
0
0
0
0
0
-5.650203405e-05
-3.430887654e-07
0
0
0
0
0
0
-1.788995394e-06
0
0
0
0
0
0
0
0
0
0
0
0
0
0
0
0
0
0
0
0
0
0
0
0
0
0
0
0
0
0
0
0
0
0
0
0
0
0
0
0
0
0
0
0
0
0
0
0
0
0
0
0
0
0
0
0
0
0
0
0
0
0
0
0
0
0
0
0
0
0
0
0
0
0
0
0
0
0
0
0
0
0
0
0
0
0
0
0
0
0
0
0
0
0
0
0
0
0
0
0
0
0
0
0
0
0
0
0
0
0
0
0
0
0
0
0
0
0
0
0
0
0
0
0
0
0
0
0
0
0
0
0
0
0
0
0
0
0
0
0
0
0
0
0
0
0
0
0
0
0
0
0
0
0
0
0
0
0
0
0
0
0
0
0
0
0
0
0
0
0
0
0
0
0
0
0
0
0
0
0
0
0
0
0
0
0
0
0
0
0
0
0
0
0
0
0
0
0
0
0
0
0
0
0
0
0
0
0
0
0
0
0
0
0
0
0
0
0
0
0
0
0
0
0
0
0
0
0
0
0
0
0
0
0
0
0
0
0
0
0
0
0
0
0
0
0
0
0
0
0
0
0
0
0
0
0
0
0
0
0
0
0
0
0
0
0
0
0
0
0
0
0
0
0
0
0
0
0
0
0
0
0
0
0
0
0
0
0
0
0
0
0
0
0
0
0
0
0
0
0
0
0
0
0
0
0
0
0
0
0
0
0
0
0
0
0
0
0
0
0
0
0
0
0
0
0
0
0
0
0
0
0
0
0
0
0
0
0
0
0
0
0
0
0
0
0
0
0
0
0
0
0
0
0
0
0
0
0
0
0
0
0
0
0
0
0
0
0
0
0
0
0
0
0
0
0
0
0
0
0
0
0
0
0
0
0
0
0
0
0
0
0
0
0
0
0
0
0
0
0
0
0
0
0
0
0
0
0
0
0
0
0
0
0
0
0
0
0
0
0
0
0
0
0
0
0
0
0
0
0
0
0
0
0
0
0
0
0
0
0
0
0
0
0
0
0
0
0
0
0
0
0
0
0
0
0
0
0
0
0
0
0
0
0
0
0
0
0
0
0
0
0
0
0
0
0
0
0
0
0
0
0
0
0
0
0
0
0
0
0
0
0
0
0
0
0
0
0
0
0
0
0
0
0
0
0
0
0
0
0
0
0
0
0
0
0
0
0
0
0
0
0
0
0
0
0
0
0
0
0
0
0
0
0
0
0
0
0
0
0
0
0
0
0
0
0
0
0
0
0
0
0
0
0
0
0
0
0
0
0
0
0
0
0
0
0
0
0
0
0
0
0
0
0
0
0
0
0
0
0
0
0
0
0
0
0
0
0
0
0
0
0
0
0
0
0
0
0
0
0
0
0
0
0
0
0
0
0
0
0
0
0
0
0
0
0
0
0
0
0
0
0
0
0
0
0
0
0
0
0
0
0
0
0
0
0
0
0
0
0
0
0
0
0
0
0
0
0
0
0
0
0
0
0
0
0
0
0
0
0
0
0
0
0
0
0
0
0
0
0
0
0
0
0
0
0
0
0
0
0
0
0
0
0
0
0
0
0
0
0
0
0
0
0
0
0
0
0
0
0
0
0
0
0
0
0
0
0
0
0
0
0
0
0
0
0
0
0
0
0
0
0
0
0
0
0
0
0
0
0
0
0
0
0
0
0
0
0
0
0
0
0
0
0
0
0
0
0
0
0
0
0
0
0
0
0
0
0
0
0
0
0
0
0
0
0
0
-0.000338415598
1.057326579e-05
-1.092427781e-05
1.154769422e-05
-0.0003390390144
-0.0003389562937
-1.04962804e-05
2.364175906e-05
0.0006752138571
-2.314762124e-05
-0.0006737192325
0.0006736525268
2.370846474e-05
2.224383455e-05
-0.0003376861346
0.001334693453
-0.001334596744
-0.0001006356938
-0.0006677906688
-7.933470231e-05
0.001334437335
-8.089654794e-05
0.00134967822
8.051503382e-05
0.0006866884826
-0.0006918241753
-2.628494021e-06
0.000717599429
-1.113723176e-05
0.0003399877851
-8.221006002e-06
0.000340210923
8.767228182e-06
-1.767862744e-05
0.000677425609
9.286933572e-06
9.772738914e-06
-0.0003397137046
-0.0003390929495
6.528977403e-05
0.001402234298
-6.528977401e-05
0.001361733681
6.182355517e-05
-0.0006777105666
-0.0006805568954
1.333075791e-05
-9.537085309e-06
0.00068289481
0.0001000402762
0.001372869086
-0.001372903188
-0.0001000061743
8.345808766e-05
-8.150286877e-05
0.001370916157
-8.523860949e-05
0.001378254865
8.258180589e-05
-8.13498807e-05
0.001354190586
0.001367401422
8.360217269e-05
0.001368736934
0.0001000838426
-0.0013687805
0.001431579535
-0.001431579535
-5.19899994e-05
-5.198999683e-05
0.001413315383
2.516363167e-05
2.682635781e-05
-0.0007073907053
-0.00070592467
3.723106032e-05
0.001344902523
-0.0006727315404
-0.0006719790882
3.437518665e-05
3.017970212e-05
-3.015906418e-05
0.0006718508337
-3.029798409e-05
0.0006747072297
3.021304134e-05
0.0006706973062
3.065263874e-05
0.000670515232
3.692566129e-05
-0.000670209833
0.0003335757389
-1.33941981e-05
-1.300904064e-05
0.0003336507667
-1.036798238e-05
1.128480869e-05
-0.0006833504948
0.0006833593393
-0.0006853016597
-8.425661967e-06
-1.238063637e-05
0.000681676275
-0.0006817480785
1.587789813e-05
0.0006812333872
-1.256259641e-05
1.273569994e-05
-0.0003408979617
-0.0003410232203
-0.0006831858817
0.0006814874329
-2.791288843e-05
2.785864981e-05
-0.0006814331943
0.0006796557944
-0.0006794161077
-2.773139749e-05
-1.961493206e-05
0.0006793961787
-0.00136118933
7.325917186e-05
0.001363648182
-6.457855646e-05
6.326900882e-05
-0.0006802239884
-6.642806199e-05
-0.0006813181844
-3.020687264e-05
0.0006761893301
0.001357790315
-0.0006788000712
3.009976256e-05
3.311647119e-05
0.001358561406
-1.305081783e-05
1.43376145e-05
-0.0003396090016
0.0003380760488
-0.0003387323428
-1.239452384e-05
-1.175651034e-05
0.0003373549518
1.205760719e-05
-1.263848008e-05
0.0003390554839
-0.0003328341735
0.0003367027584
0.0006789694356
-0.0003399258197
-0.0003398901349
-7.657881181e-06
0.0003401755338
-8.007721943e-06
0.0003391107337
8.088835688e-06
-0.0003359698426
1.465038032e-05
0.0003359067142
-1.602838152e-05
1.567452846e-05
2.392306997e-05
0.0006717787993
-2.397778891e-05
-0.0003358545811
-0.0003358694993
0.0006702808466
1.193485342e-05
-0.0003355623716
-0.0003352327558
-1.297146675e-05
0.0003355758281
-0.0006700994935
2.870481789e-05
0.0006700212021
-2.659331041e-05
2.677466345e-05
-2.626134692e-05
0.0006685317223
-0.0003340511366
0.0006680675214
-1.420270559e-05
-0.0003416267572
8.076797442e-06
0.0006809165509
-0.0003412237755
0.0006803197072
1.131314253e-05
-1.03776538e-05
0.0003431886291
0.0003425541348
-8.964961624e-06
-0.0003423893123
-0.000342338271
5.032473102e-06
5.474190051e-06
-0.0003416794464
-5.81447459e-06
0.0001505301998
0.002891832569
-0.0001505301998
0.002869028663
7.194008139e-05
-0.001437449128
-0.001431579535
-5.864003647e-05
0.001431579535
-0.002869028663
0.0002037285435
0.00286605071
-0.0001771299322
0.0001771299322
-0.0001770474927
-8.52386095e-05
0.001408103891
0.002845550292
-0.00141984035
8.523860949e-05
9.189132273e-05
0.002845550292
-0.0006737795049
2.779428969e-05
0.0006740145114
-2.610662263e-05
2.597964459e-05
-2.568991224e-05
-2.638910727e-05
-0.0006718495504
0.0006731211353
-0.000673530598
0.0006726713307
0.0006730226915
-0.000336604333
1.112797621e-05
1.135772679e-05
2.320055826e-05
-0.0003363443344
-0.0003362824467
-0.001389878583
8.437321965e-05
0.001377555501
-0.000105116299
7.697139661e-05
-7.194008139e-05
-6.99585334e-05
-0.001364718858
0.001374021948
-0.001367009085
0.001375164714
0.0006816632189
1.621059822e-05
5.706977946e-05
-0.0006808487934
-0.0006814065156
-0.0006811296048
-0.0006813688231
2.693646083e-05
-0.00141984035
0.001419840352
-4.533977913e-05
2.350113694e-05
-4.533977914e-05
-0.0003344843749
0.0003345932763
-1.377100083e-05
-1.111671678e-05
7.260306949e-06
-5.836228235e-06
-0.0003434668155
-0.0003432589229
-0.0003434352449
-0.0003416199046
4.267277317e-06
0.0006908927227
-7.064794391e-06
-0.0006879113885
0.0006863424375
2.295880403e-06
-0.0006843013529
0.0006826280016
-6.384577307e-06
-2.978012171e-06
0.0003387610504
-1.056281112e-05
1.224299128e-05
-1.221428369e-05
1.150109728e-05
0.0003368131684
-1.184665507e-05
-0.000338677218
0.0003379640316
-0.0003372575572
-1.168804947e-05
-1.147291386e-05
-0.0003420913129
9.846502874e-06
0.0003410316709
-7.652172458e-06
7.950209993e-06
-7.920794263e-06
-1.00217372e-05
0.0003426556655
0.0003411924221
-0.0003384203036
8.266610769e-06
0.0003394948037
-1.043103822e-05
8.713493108e-06
-1.077496204e-05
-7.699037905e-06
0.0003394875498
0.0003396772637
-1.268186125e-05
0.0003343286782
0.0003354291276
0.0002500634751
0.002694833154
-0.0002498444639
-0.001350371506
-0.001345028723
0.002673800284
-0.001339010293
-0.001334437453
-0.0001082824534
0.001334628988
-0.002655118398
0.002585646082
-0.0002708744014
-0.0002653744065
-1.168334937e-05
-0.0003367188913
0.0003377910134
-0.0003379266685
0.0003378503674
-1.480654059e-05
1.303095758e-05
-1.310725865e-05
1.226434801e-05
-1.107466106e-05
-0.0003398819251
1.281852837e-05
0.0003353388842
-1.247763995e-05
-0.0003346768153
0.0003344863031
-0.0003342395907
1.281337142e-05
-1.24632207e-05
1.270993305e-05
0.0003334423645
9.730250546e-06
0.0003423281967
-8.414959789e-06
0.0003424210018
-0.0003420419581
7.514033516e-06
-8.315103729e-06
8.694147483e-06
-7.246579776e-06
-9.87578709e-06
0.0003420069895
1.213809946e-05
8.897568428e-06
0
0
0
-3.348031704e-08
0
0
0
0
0
0.0006775203344
-2.056124098e-05
2.318055121e-05
-2.304965094e-05
0.0006773894341
0.0006762492732
0.002734231906
-0.0002240557968
-0.001364559084
0.0002494671234
-0.0002483358194
0.002725044064
0.002711951877
0.002400460354
-0.00256131851
-0.0002363938241
0.000225834456
-0.0002138325222
0.002203098408
0.0002342410194
0.002237016116
0.001442351338
-0.001712448837
-0.0001301680743
0.0001193753568
-0.0001170780834
0.001191325519
0.0001244244327
0.001250771645
0.0004705115252
-0.0006890429311
-5.735091333e-05
4.551461662e-05
-4.180394868e-05
0.0002852980806
4.838964249e-05
0.0003160783455
0
2.307706854e-06
0
0
0
0
0
0
0
0
0
0
0
0
0
0
0.001413315375
-5.864003905e-05
6.528977401e-05
-6.528977401e-05
0.001413315375
0.001408103891
0.002826085658
-0.0002250029123
0.0002377583655
-0.0002329249025
0.002753326853
0.0002451744051
0.002756105935
0.002245661586
-0.002458757886
-0.000194350633
0.0002024633689
-0.0001768571473
0.001999806009
0.0001984655936
0.002075140192
0.001209860762
-0.001479856376
-0.0001121440872
9.182560404e-05
-8.41097683e-05
0.0009394383744
0.0001006472709
0.001002445991
0.0002853812518
-0.0004662409591
-3.829278043e-05
2.900125634e-05
-2.397357121e-05
0.0001404471744
3.249092376e-05
0.0001745749883
0
0
0
0
0
0
0
0
0
0
0
0
0
0
0
0
0.002935000638
-0.002938499309
-0.0001238014627
0.0001504605933
-0.0001485140911
0.002922570838
0.002915393188
0.002717069974
-0.002820504783
-0.0001916250603
0.000204880293
-0.0001910107962
0.002575711282
0.0002165294325
0.002655042235
0.00194935902
-0.002187024198
-0.0001503392724
0.0001420255846
-0.0001301659327
0.001692215423
0.0001527024418
0.001795914106
0.0008934091994
-0.001154693784
-7.445794603e-05
6.51663615e-05
-5.931837097e-05
0.0006500728585
7.026238283e-05
0.0007225386177
0.0001179949622
-0.0002541621925
-1.924270108e-05
1.141799154e-05
-8.41720644e-06
3.192644923e-05
1.607013436e-05
5.485175735e-05
0
0
0
0
0
0
0
0
0
0
0
0
0
0
0
0
0.002636891971
-0.002693488219
-9.126884704e-05
0.0001214252093
-0.0001065915916
0.002557185137
0.0001338110359
0.00271353462
0.002167647208
-0.002322820145
-0.0001237385288
0.000139026813
-0.0001199171812
0.001988941135
0.0001576398432
0.002175341228
0.001348832597
-0.001574568575
-9.016820047e-05
9.093814911e-05
-7.769475729e-05
0.001119001925
0.0001042920013
0.00128148972
0.0004775879623
-0.00067580132
-4.17830518e-05
3.828515274e-05
-3.058873607e-05
0.0003050895897
4.575466593e-05
0.0003939263102
1.072988235e-05
-6.554618496e-05
-3.205892385e-06
1.301049159e-06
-2.501523944e-07
0
3.012572238e-06
8.180707225e-07
0
0
0
0
0
0
0
0
0
0
0
0
0
0
0
0
0.001697632334
-0.001761909132
-3.421082645e-05
5.749217477e-05
-4.289602611e-05
0.001611661854
7.357300962e-05
0.001881684294
0.001241857674
-0.001381361962
-5.233552387e-05
6.584921436e-05
-5.063156967e-05
0.001090424774
8.275088836e-05
0.001325954007
0.0006078484406
-0.0007685256501
-3.651131288e-05
4.079127542e-05
-3.005141191e-05
0.000454615207
5.243029343e-05
0.0006126373776
9.818355196e-05
-0.000193871845
-9.555285726e-06
9.120373902e-06
-4.020496222e-06
3.318518084e-05
1.560678982e-05
8.028712236e-05
0
0
0
0
0
0
0
0
0
0
0
0
0
0
0
0
0
0
0
0
0
0
0
0
0.000610925724
-0.0006497292598
-4.227423458e-06
1.268249768e-05
-7.264000253e-06
0.0005593995764
2.032167705e-05
0.0007972889135
0.0003516507053
-0.0004269716203
-1.048736023e-05
1.68853977e-05
-9.669143282e-06
0.0002747064534
2.60960743e-05
0.0004434571274
7.363387801e-05
-0.0001314747927
-3.68758361e-06
5.782034217e-06
-1.588347495e-06
3.087234752e-05
1.221855971e-05
9.370026861e-05
0
-2.696726941e-08
0
0
0
0
1.101486074e-08
0
0
0
0
0
0
0
0
0
0
0
0
0
0
0
0
0
0
0
0
0
0
0
0
0
2.243120868e-05
-2.825084449e-05
-2.33365726e-09
3.916925396e-07
-4.507083732e-09
1.585853384e-05
1.53211223e-06
7.602217635e-05
6.016206766e-07
-4.113604964e-06
0
2.342595455e-08
0
0
1.170363058e-06
8.908608691e-06
0
0
0
0
0
0
0
0
0
0
0
0
0
0
0
0
0
0
0
0
0
0
0
0
0
0
0
0
0
0
0
0
0
0
0
0
0
0
0
0
0
0
0
0
0
0
0
0
0
0
0
0
0
0
0
0
0
0
0
0
0
0
0
0
0
0
0
0
0
0
0
0
0
0
0
0
0
0
0
0
0
0
0
0
0
0
0
0
0
0
0
0
0
0
0
0
0
0
0
0
0
0
0
0
0
0
0
0
0
0
0
0
0
0
0
0
0
0
0
0
0
0
0
0
0
0
0
0
0
0
0
0
0
0
0
0
0
0
0
0
0
0
0
0
0
0
0
0
0
0
0
0
0
0
0
0
0
0
0
0
0
0
0
0
0
0
0
0
0
0
0
0
0
0
0
0
0
0
0
0
0
0
0
0
0
0
0
0
0
0
0
0
0
0
0
0
0
0
0
0
0
0
0
0
0
0
0
0
0
0
0
0
0
0
0
0
0
0
0
0
0
0
0
0
0
0
0
0
0
0
0
0
0
0
0
0
0
0
0
0
0
0
0
0
0
0
0
0
0
0
0
0
0
0
0
0
0
0
0
0
0
0
0
0
0
0
0
0
0
0
0
0
0
0
0
0
0
0
0
0
0
0
0
0
0
0
0
0
0
0
0
0
0
0
0
0
0
0
0
0
0
0
0
0
0
0
0
0
0
0
0
0
0
0
0
0
0
0
0
0
0
0
0
0
0
0
0
0
0
0
0
0
0
0
0
0
0
0
0
0
0
0
0
0
0
0
0
0
0
0
0
0
0
0
0
0
0
0
0
0
0
0
0
0
0
0
0
0
0
0
0
0
0
0
0
0
0
0
0
0
0
0
0
0
0
0
0
0
0
0
0
0
0
0
0
0
0
0
0
0
0
0
0
0
0
0
0
0
0
0
0
0
0
0
0
0
0
0
0
0
0
0
0
0
0
0
0
0
0
0
0
0
0
0
0
0
0
0
0
0
0
0
0
0
0
0
0
0
0
0
0
0
0
0
0
0
0
0
0
0
0
0
0
0
0
0
0
0
0
0
0
0
0
0
0
0
0
0
0
0
0
0
0
0
0
0
0
0
0
0
0
0
0
0
0
0
0
0
0
0
0
0
0
0
0
0
0
0
0
0
0
0
0
0
0
0
0
0
0
0
0
0
0
0
0
0
0
0
0
0
0
0
0
0
0
0
0
0
0
0
0
0
0
0
0
0
0
0
0
0
0
0
0
0
0
0
0
0
0
0
0
0
0
0
0
0
0
0
0
0
0
0
0
0
0
0
0
0
0
0
0
0
0
0
0
0
0
0
0
0
0
0
0
0
0
0
0
0
0
0
0
0
0
0
0
0
0
0
0
0
0
0
0
0
0
0
0
0
0
0
0
0
0
0
0
0
0
0
0
0
0
0
0
0
0
0
0
0
0
0
0
0
0
0
0
0
0
0
0
0
0
0
0
0
0
0
0
0
0
0
0
0
0
0
0
0
0
0
0
0
0
0
0
0
0
0
0
0
0
0
0
0
0
0
0
0
0
0
0
0
0
0
0
0
0
0
0
0
0
0
0
0
0
0
0
0
0
0
0
0
0
0
0
0
0
0
0
0
0
0
0
0
0
0
0
0
0
0
0
0
0
0
0
0
0
0
0
0
0
0
0
0
0
0
0
0
0
0
0
0
0
0
0
0
0
0
0
0
0
0
0
0
0
0
0
0
0
0
0
0
0
0
0
0
0
0
0
0
0
0
0
0
0
0
0
0
0
0
0
0
0
0
0
0
0
0
0
0
0
0
0
0
0
0
0
0
0
0
0
0
0
0
0
0
0
0
0
0
0
0
0
0
0
0
0
0
0
0
0
0
0
0
0
0
0
0
0
0
0
0
0
0
0
0
0
0
0
0
0
0
0
0
0
0
0
0
0
0
0
0
0
0
0
0
0
0
0
0
0
0
0
0
0
0
0
0
0
0
0
0
0
0
0
0
0
0
0
0
0
0
0
0
0
0
0
0
0
0
0
0
0
0
0
0
0
0
0
0
0
0
0
0
0
0
0
0
0
0
0
0
0
0
0
0
0
0
0
0
0
0
0
0
0
0
0
0
0
0
0
0
0
0
0
0
0
0
0
0
0
0
0
0
0
0
0
0
0
0
0
0
0
0
0
0
0
0
0
0
0
0
0
0
0
0
0
0
0
0
0
0
0
0
0
0
0
0
0
0
0
-0.001346132739
0.0001005321267
0.00134573913
-9.29529021e-05
9.308720778e-05
-0.001346267044
-9.331889922e-05
-0.001349580708
-0.0006026838044
-1.152472343e-05
-2.516592405e-05
0.0001225424714
-0.0007000603518
-0.0007021781935
-2.516467894e-05
-9.766807756e-06
-0.0003392645287
0.0003386143405
-0.0003390942147
-9.349395453e-05
-0.001353945751
0.001359484343
-0.001359074928
-9.390336994e-05
-0.0001003939108
0.0006677893563
-0.0006676347899
-3.495945906e-05
-3.691137929e-05
2.285622117e-05
-2.31622842e-05
0.0006809594008
-0.0006806866446
0.0006806292774
2.291358834e-05
1.964142529e-05
1.216990085e-05
-1.187352295e-05
-0.0003357606904
1.206109194e-05
1.317818642e-05
5.433474445e-06
-5.134521559e-06
6.232024975e-06
0.0003367031777
1.171657016e-05
0.0006809376546
-1.749220618e-05
2.300604485e-05
-2.319799507e-05
3.795215119e-06
-3.510247524e-06
0.0002419847663
0.002274908951
-0.002465392645
0.002297733726
-0.002091766268
0.001854874434
-0.0002154593174
-0.0002093921454
0.0001320848136
0.001298856824
-0.001613838683
0.001349482495
-0.001083946607
0.0008276166516
-0.0001087058585
-0.000102019972
5.319793696e-05
0.000349288447
-0.0005915097198
0.0003846503943
-0.0002157386793
9.784791699e-05
-3.71752523e-05
-3.269283552e-05
2.286147124e-05
0.0006791701636
-2.308644432e-05
-0.0006784478807
0.000678259701
-0.0006783450104
2.744252498e-05
-2.565725945e-05
2.557195003e-05
-2.583043975e-05
-2.569876632e-05
0.0006772626178
0.000676828392
0.0002463314378
0.002733684586
-0.002754370726
0.002734616332
-0.001378283606
-0.002663958365
0.0002604968917
0.002535221093
-0.0002583014248
0.0002608455844
-0.0002729429687
-0.00026230796
0.002669087318
0.0002046763822
0.002116089841
-0.002368654508
0.002157984566
-0.001930716082
0.0001584505535
0.001668443623
-0.0001874559325
0.0001886053369
-0.0001711132257
-0.0002009860754
0.001970641371
0.000104406814
0.001072675403
-0.001396210522
0.001128164802
-0.000866517116
7.358789129e-05
0.0006258743744
-8.39562368e-05
9.271221101e-05
-7.936022063e-05
-9.804210775e-05
0.0009322568891
3.789234332e-05
0.0002089411531
-0.0004141997875
0.0002487186317
-0.0001163112584
1.303647361e-05
3.224640579e-05
-2.279649266e-05
2.674287542e-05
-1.824042768e-05
-3.00575671e-05
0.000141469537
4.570852654e-05
6.528977401e-05
0.001425709943
-6.528977402e-05
-0.00141984035
0.00141984035
-7.19400814e-05
0.001413315375
-7.194008139e-05
-7.859011837e-05
0.001413315375
0.0002258701469
0.002707978874
-0.002828538296
0.002740124992
-0.002602161998
0.0002154638509
0.002418828981
-0.0002209994752
0.0002292204067
-0.0002104136903
-0.0002383771788
0.002630020962
0.0001618474438
0.001879440051
-0.00219663714
0.001947998796
-0.001678017428
0.0001268933306
0.001398413792
-0.0001368204858
0.0001510941928
-0.0001290888961
-0.0001578252057
0.001747696016
7.918995429e-05
0.0007945757722
-0.001129009515
0.0008712327415
-0.0006309446111
5.243835252e-05
0.0004183561936
-6.299733043e-05
6.786045875e-05
-5.498338925e-05
-7.205484246e-05
0.0006894863423
1.995673347e-05
8.278154123e-05
-0.0002418727765
0.0001091044759
-2.745404093e-05
2.820281851e-06
1.194421941e-07
-8.542651572e-06
1.114916461e-05
-5.913529904e-06
-1.517125539e-05
4.488714411e-05
2.64494677e-06
9.735400962e-05
0.002947394393
0.0001429837587
0.002826221324
-0.002930706322
0.002896416282
-0.002837541565
0.0001842133171
0.002748629753
-0.0001606259277
0.0001693461802
-0.0001487017662
-0.0001747749039
0.002887500384
0.0001751364543
0.002335881047
-0.002626466127
0.002470338965