/*--------------------------------*- C++ -*----------------------------------*\
| =========                 |                                                 |
| \\      /  F ield         | OpenFOAM: The Open Source CFD Toolbox           |
|  \\    /   O peration     | Version:  v2012                                 |
|   \\  /    A nd           | Website:  www.openfoam.com                      |
|    \\/     M anipulation  |                                                 |
\*---------------------------------------------------------------------------*/
FoamFile
{
    version     2.0;
    format      ascii;
    class       volScalarField;
    location    "3";
    object      nut;
}
// * * * * * * * * * * * * * * * * * * * * * * * * * * * * * * * * * * * * * //

dimensions      [0 2 -1 0 0 0 0];


internalField   nonuniform List<scalar> 
3019
(
0.06605894335
0.2089733843
0.2799112334
0.3607469736
0.4592955249
0.5969401383
0.8137216722
1.065603164
1.155909557
1.150900321
1.148714975
1.148193787
0.1274811582
0.310670491
0.3916806242
0.4685367358
0.5594680021
0.6885392772
0.8851663016
1.110895651
1.156948641
1.151518045
1.149052408
1.148441616
0.1776645245
0.4512634506
0.5994093228
0.6383394553
0.7056535598
0.8191864906
0.9952656527
1.166966022
1.157936076
1.152190852
1.149539314
1.148861063
0.1972454027
0.4713117361
0.7446446053
0.8909423248
0.9066827444
0.9893581113
1.149156508
1.168127396
1.158826649
1.152880714
1.15010033
1.149383064
0.2207389568
0.4938563897
0.7644461978
0.9691359346
1.088083955
1.144770098
1.168461039
1.168975138
1.15954613
1.15350245
1.150646703
1.149911821
0.2502407032
0.519742286
0.7843358712
0.9785760099
1.092089819
1.1469274
1.169376239
1.16946407
1.160071793
1.154028138
1.151172884
1.15043549
0.2765835281
0.5408081095
0.7977994352
0.9845422515
1.094781339
1.148171925
1.169785457
1.169639928
1.160377372
1.154393257
1.151573226
1.150843896
0.2911220365
0.5510201379
0.8060763006
0.9890854112
1.096577974
1.148780886
1.16980598
1.169559016
1.160554828
1.154693968
1.151927603
1.15120504
0.3026031404
0.5595480065
0.8116999013
0.9924812646
1.097741158
1.148952869
1.169536945
1.169284196
1.160559297
1.154837687
1.152132815
1.151418436
0.3127982577
0.5669577987
0.8152782908
0.9947512389
1.098409041
1.148819938
1.16906294
1.168872842
1.16050921
1.154957955
1.15231242
1.151598314
0.3218952988
0.5734439014
0.817652926
0.9959233169
1.098626368
1.1484558
1.16844788
1.168371186
1.160332466
1.154935112
1.152342348
1.151626525
0.33012151
0.5791770327
0.8193529283
0.9961958142
1.098414075
1.147898327
1.16773552
1.167812721
1.160161281
1.154934914
1.152386002
1.151659386
0.3376519227
0.5842823667
0.820622024
0.9958405586
1.097825123
1.14717517
1.166955977
1.16722042
1.159882242
1.154795346
1.152281228
1.151542685
0.3446071264
0.5888575815
0.8215814142
0.9950856743
1.096940724
1.146316494
1.166131691
1.166609415
1.159653925
1.154723053
1.152235449
1.151477424
0.3510735084
0.5929913758
0.8223100754
0.994086336
1.095842528
1.14535383
1.165280219
1.165990217
1.159314772
1.154503238
1.152035849
1.151259495
0.3571239703
0.5967580678
0.8228660791
0.9929419372
1.094597723
1.1443154
1.164414685
1.16536982
1.159066507
1.154392742
1.151938363
1.151137109
0.3628148262
0.6002219937
0.8233002501
0.9917207115
1.09325825
1.14322431
1.163544491
1.164752838
1.158691091
1.154120489
1.151677426
1.150854691
0.3682024913
0.6034553631
0.8236687841
0.9904754363
1.091863848
1.142098627
1.162676185
1.164142918
1.158443014
1.153990377
1.151550516
1.150699572
0.3733665884
0.6065492537
0.8240367331
0.9892505851
1.090445453
1.140952958
1.161814467
1.1635412
1.158052383
1.15369522
1.151262099
1.150389313
0.3784213573
0.6096135803
0.8244645256
0.9880798747
1.08902636
1.139798859
1.160962472
1.162951043
1.157803531
1.153541751
1.15110547
1.150202592
0.3834719299
0.6127250263
0.8249853244
0.9869800168
1.087621678
1.138644558
1.160121862
1.162368697
1.157436701
1.153269239
1.150836733
1.149914093
0.3885590846
0.6159069684
0.8255979713
0.9859525679
1.086240359
1.137497311
1.159295172
1.161802115
1.157138404
1.153050956
1.150613603
1.14965948
0.393658624
0.6191342256
0.8262825141
0.9849922502
1.084887164
1.136360521
1.158493655
1.161248873
1.156892056
1.152874679
1.150437131
1.149467145
0.3987023962
0.6223381667
0.8270022903
0.9840868595
1.0835595
1.135230663
1.157774106
1.160770446
1.156477314
1.152564878
1.150124972
1.149118981
0.04912121574
0.06189373136
0.1837098728
0.09644163452
0.0505279617
0.1213031999
0.2505829981
0.1869390338
0.130453588
0.09860505342
0.1451936869
0.07887640352
0.07564515206
0.09309253471
0.1615716831
0.1489542568
0.0336313961
0.0599878785
0.03063341855
0.04043746753
0.104080368
0.06421357626
0.1716199363
0.3764012363
0.2825814103
0.1213976206
0.1088743486
0.04361976695
0.2013316732
0.1680015996
0.09661507532
0.1068542038
0.007199271422
0.0207979937
0.03589862601
0.08666192139
0.01091513658
0.01337565161
0.04022707409
0.01098276989
0.01082051865
0.01355804395
0.01092678684
0.01135578156
0.02165597435
0.01504241786
0.03119427224
0.02442995375
0.01114045655
0.007443754211
0.023378926
0.0106201626
0.01089291477
0.1908306402
0.2436001504
0.04237401972
0.01473381829
0.02106034229
0.0109503846
0.01622089406
0.03112937294
0.06214350233
0.01103579204
0.007767416042
0.007885935573
0.01119848617
0.01110562779
0.03957409786
0.03353645415
0.01060644574
0.01053758725
0.01064124169
0.01071802659
0.00741241239
0.01080698484
0.0109275342
0.0122359971
0.0111666853
0.01095103771
0.01110649845
0.01095018784
0.01151489497
0.01139087208
0.0111718281
0.01117085892
0.01138185219
0.01264567849
0.01199663525
0.01079313279
0.0109453031
0.0108745069
0.0126552043
0.01161350786
0.01064564698
0.2611589704
0.3197731243
0.3407286299
0.412355601
0.4396752423
0.5341456619
0.0785123431
0.1226553906
0.1224839743
0.2759060382
0.3386862167
0.2616122382
0.3574468664
0.416455985
0.3395105424
0.4364796982
0.5051024019
0.432064236
0.5302845925
0.6161021303
0.553692738
0.1410151501
0.2608595217
0.2168356131
0.4455884218
0.5254556603
0.3744074008
0.5363152917
0.5737032547
0.449402179
0.5888462296
0.6429658922
0.5341983111
0.6648032192
0.7393263138
0.6440189338
0.1185604876
0.1041361182
0.1924089616
0.3964082597
0.381915136
0.4663367472
0.6740688104
0.5944972815
0.7399651583
0.8187278601
0.6260261297
0.8171090531
0.8379101909
0.6851658504
0.8508544646
0.9112226636
0.7795530812
0.1407875688
0.1234766194
0.2141342177
0.4167297408
0.4011571017
0.4877588526
0.694807697
0.6790213857
0.7593316597
0.9228929733
0.9027602129
0.9662397396
1.063832205
0.8966574415
1.086802987
1.133790276
0.963214145
0.1721514611
0.1477652213
0.2427069091
0.4416886421
0.422559587
0.5132725696
0.7175115867
0.7004196483
0.7796403751
0.935605176
0.9263278404
0.9766534685
1.069195209
1.065417909
1.09123263
1.136707652
1.134748557
0.2055453889
0.1808442364
0.2710290598
0.4663026835
0.448328155
0.5365539133
0.7361218739
0.722921838
0.7953022125
0.9437984453
0.9381520066
0.983202555
1.072826013
1.070230751
1.094205577
1.138421555
1.137220537
0.2253777041
0.2121389539
0.2880241866
0.4803626696
0.4711623394
0.5486833179
0.7457960741
0.738919103
0.804263861
0.9496620848
0.9454071589
0.9880623356
1.075356858
1.073546864
1.096196221
1.139389903
1.138723367
0.2382370194
0.2287970069
0.2998619659
0.4905187333
0.4830420946
0.5575291285
0.7523436521
0.7476874655
0.8105202059
0.9541138889
0.9509054394
0.9917365343
1.077110406
1.075859402
1.097500281
1.139835776
1.139543463
0.2492992313
0.2411514937
0.3103594467
0.4993479751
0.4928428061
0.5651998193
0.7568482164
0.753619687
0.8145259599
0.9571443378
0.9550073651
0.9942906354
1.078254913
1.077450622
1.098285057
1.139913771
1.13988542
0.2590381819
0.2518433359
0.3197119213
0.5070785381
0.5013759574
0.571899038
0.7602171091
0.7577728378
0.8171370293
0.9588171414
0.9576817633
0.9957249852
1.078836387
1.078453159
1.098613497
1.139713612
1.139888035
0.2678199335
0.2613138003
0.3281363103
0.5139258557
0.5088671763
0.577807086
0.7629190395
0.7609455433
0.8189748557
0.959441132
0.9590571045
0.9961970353
1.078871887
1.078895294
1.098505252
1.139276762
1.139626009
0.2758458833
0.2698932413
0.3358277908
0.5200533555
0.5155212728
0.5830595361
0.7651527775
0.7635176735
0.8203376368
0.9593771526
0.9594779604
0.9959745503
1.07842766
1.078802333
1.098003463
1.138630686
1.139134212
0.2832674592
0.2777540017
0.3429169907
0.525580274
0.5214886414
0.5877587189
0.7670191363
0.7656516812
0.8213659629
0.9588916855
0.9592879763
0.9953022834
1.077611973
1.07825443
1.097184887
1.137808753
1.138440722
0.2902080539
0.2850444088
0.349499075
0.5306024474
0.5268812775
0.5919951834
0.7685933386
0.7674384357
0.8221462535
0.9581518638
0.9587264462
0.9943530324
1.076533481
1.077363548
1.096133202
1.136849164
1.137580755
0.2967485813
0.2918805463
0.3556471971
0.5352029999
0.5317899538
0.5958473804
0.769937134
0.7689497511
0.8227406087
0.9572590379
0.9579406475
0.9932376568
1.075279288
1.076233908
1.094919662
1.135787669
1.136592514
0.3029244714
0.2983272253
0.3614234585
0.5394569026
0.536297804
0.5993809052
0.7711039196
0.7702443411
0.8232003506
0.9562807927
0.9570209027
0.9920302546
1.073914551
1.074946685
1.093599696
1.134654046
1.135510398
0.3087634149
0.3044156094
0.3668808987
0.5434312925
0.5404749803
0.6026645273
0.7721518951
0.7713754576
0.823579458
0.9552707368
0.9560299814
0.9907865254
1.072488264
1.073562519
1.092215822
1.133472023
1.134362676
0.3143285924
0.3101774119
0.3720914361
0.5472314565
0.5443943469
0.6057828083
0.7731523258
0.7724043918
0.8239413151
0.954277278
0.9550197052
0.9895528629
1.071038091
1.072127103
1.09080093
1.132260476
1.133171631
0.3197350327
0.3156900192
0.3771631278
0.5509587509
0.5481674089
0.6088453659
0.7741797772
0.7734049849
0.8243496472
0.9533413343
0.9540373118
0.9883663394
1.069592594
1.070675802
1.089380296
1.13103457
1.131955208
0.3251050604
0.3210747293
0.3822110156
0.5547005847
0.5518912514
0.6119412562
0.7752861371
0.7744487965
0.8248461338
0.9524862915
0.9531202683
0.9872481552
1.06817017
1.069234754
1.087970976
1.129805315
1.130727568
0.3305080204
0.3264424725
0.3872998741
0.558493617
0.5556442663
0.6151072844
0.7764828465
0.7755781521
0.8254375042
0.9517153949
0.9522866061
0.9862030105
1.066780517
1.067819882
1.086583243
1.128581437
1.129498897
0.3359580241
0.3318367578
0.3924380699
0.5623272335
0.5594444198
0.6183398904
0.7777544175
0.7767947621
0.8261089818
0.9510213714
0.9515356206
0.9852270852
1.065428142
1.066439217
1.085222964
1.127368596
1.128277414
0.3414629613
0.3372377218
0.3976297249
0.5662040468
0.5632631845
0.6216264459
0.7790966928
0.7780758144
0.8268563184
0.9504026583
0.9508582055
0.9843206757
1.064118279
1.065096127
1.083896189
1.126172026
1.127067619
0.3473808515
0.3425837978
0.4032098601
0.570374801
0.5670372565
0.6251784096
0.7805997796
0.7793775732
0.8277347569
0.9498422638
0.9502375156
0.9834532534
1.06280605
1.063786876
1.082559531
1.124962018
1.125866363
0.04653016317
0.03810925363
0.0399668909
0.08066505898
0.0764581258
0.05739792343
0.1673016543
0.1475694941
0.1563416699
0.08927183766
0.03558910926
0.02375072435
0.03149692648
0.05174080188
0.1531428901
0.142116877
0.1082050227
0.2171604491
0.1834225239
0.2213596335
0.1603592317
0.1757972751
0.2099233543
0.1110950932
0.09682911027
0.1420374685
0.1304064107
0.1276914498
0.1263706029
0.1411417592
0.02601088133
0.03621246481
0.0616709165
0.06505804017
0.08247854928
0.07193882387
0.05414241849
0.05803928841
0.1279638879
0.1256931874
0.08257902421
0.1567299974
0.1405865404
0.1448912839
0.1328901923
0.1359249714
0.1526860121
0.02320248772
0.02593475102
0.03575760884
0.01444703808
0.01353482586
0.01123193992
0.05622568353
0.0338210568
0.03893715225
0.02834189929
0.01782710642
0.02035703534
0.06333848504
0.0587671732
0.03357015121
0.09980271822
0.07879190901
0.08312228815
0.07420633298
0.09505918099
0.04669761354
0.05084048958
0.06807477207
0.01739586511
0.01588915478
0.04157724293
0.04094557035
0.2467123718
0.2396999793
0.1476709438
0.3701913952
0.3083171646
0.3144660633
0.2445358563
0.3010804358
0.3293635812
0.1176590143
0.09646642918
0.100609247
0.08768110189
0.0919600572
0.1129011932
0.05302697766
0.07197980766
0.06756702787
0.1872635527
0.1660292012
0.1774411997
0.1500844575
0.1572411811
0.1760242892
0.1027789212
0.1357421523
0.1298180048
0.1021357233
0.06579988696
0.06904969502
0.01831664813
0.01157493488
0.01271526136
0.04810216188
0.04574813103
0.05142960139
0.0498734281
0.03386705437
0.08461329835
0.06792227096
0.06898857123
0.01134320881
0.01622550554
0.0142444017
0.02104588968
0.01850261516
0.01230940385
0.03820359629
0.02862086268
0.03114966196
0.01930147574
0.01310918428
0.01428447763
0.01143482289
0.01200180306
0.01700256493
0.02929903947
0.01932680164
0.02135301245
0.01585051187
0.01746356929
0.0265571933
0.01424784464
0.01578512553
0.02567917635
0.2113593966
0.1980976245
0.1781310122
0.2279863717
0.2108575905
0.2251227312
0.0334530887
0.03567061372
0.04467672228
0.01627639878
0.025872874
0.02353641559
0.03089019524
0.02862738808
0.01851986813
0.04109404385
0.03910788835
0.02852397256
0.05775687288
0.0494816052
0.04954072449
0.0460639292
0.05623468057
0.02126062301
0.01943166954
0.03738762284
0.02872056805
0.03095643633
0.02384373641
0.02630386126
0.03515975772
0.5678590477
0.6742948865
0.7866399026
0.9050774539
1.035269664
1.160817594
0.07032954749
0.08904383638
0.08500219812
0.2261824134
0.2463162227
0.2268846677
0.3015900702
0.3210896966
0.2989935191
0.3832325215
0.4057253598
0.383568118
0.4808948043
0.5098457992
0.4886452657
0.6513859588
0.7516240333
0.7070258579
0.84533465
0.9538079247
0.9282514448
1.066301947
1.162140127
1.161473674
0.1320095085
0.1704802339
0.1650053387
0.3550487641
0.3743881283
0.330210557
0.4328970608
0.4504917818
0.4105151067
0.5041815018
0.5246435705
0.4893147986
0.5907496405
0.6168327656
0.5857564202
0.7669180609
0.8571446912
0.8020741481
0.9354597348
1.033743153
0.9904740925
1.125805345
1.163343847
1.162776767
0.1829394893
0.2574943553
0.2526238618
0.4564849922
0.5269962272
0.5218134867
0.6738993568
0.6734488716
0.607120341
0.692813915
0.7038239585
0.6523795466
0.750246886
0.7702823917
0.7276879647
0.9242858664
0.9919002572
0.9201522208
1.065700062
1.148525201
1.087559166
1.167501379
1.164421662
1.163935573
0.2024121159
0.2739459484
0.2697444809
0.4764963794
0.5470822474
0.5418749095
0.7494172418
0.8101820884
0.805756384
0.9600917566
0.9633487671
0.8870793812
0.966111045
0.9768813229
0.9196081806
1.124661963
1.161387644
1.075107831
1.167759389
1.169773738
1.169144872
1.16861571
1.16530046
1.164909256
0.2277866129
0.2951544772
0.2891427284
0.5002036602
0.5707848196
0.564450503
0.7695925498
0.828317202
0.8237784038
0.9718697862
1.00861213
1.006393969
1.089240534
1.107858085
1.106877752
1.146489668
1.163115152
1.162374829
1.168990317
1.170657555
1.17027343
1.169276064
1.165916537
1.165668001
0.257628863
0.3217018317
0.3149947755
0.5258801397
0.5959268161
0.589976663
0.7885760724
0.8444392982
0.8409069732
0.9802317047
1.015206995
1.013827994
1.092866439
1.110887396
1.110246474
1.147931732
1.164056603
1.163667238
1.169636622
1.171089449
1.170921848
1.169599458
1.166259964
1.166142379
0.281404935
0.3437990034
0.3393806138
0.5437000584
0.6122082136
0.609612901
0.8001240499
0.8540537852
0.8519829745
0.9857952922
1.019795284
1.01877153
1.095302121
1.112849661
1.112438466
1.148677123
1.164438479
1.164306687
1.16983793
1.171155163
1.171159824
1.169636744
1.166366782
1.166365544
0.2941260783
0.3559349089
0.353060931
0.5532702898
0.6208217004
0.6188545325
0.8077196584
0.8609969269
0.8594669535
0.9900387337
1.023220605
1.022456477
1.096920995
1.114078092
1.11382647
1.148942655
1.16441937
1.164470596
1.169702111
1.170945366
1.171077345
1.169449359
1.166283551
1.166372424
0.3052664545
0.3665854546
0.3640418006
0.5614987866
0.6278324805
0.6261907685
0.8127516456
0.8657325007
0.864748365
0.9931561039
1.025715666
1.025174768
1.097951858
1.114783684
1.114648444
1.148876203
1.164118984
1.164298419
1.169321156
1.170540093
1.170761296
1.169098502
1.166055014
1.166212351
0.3151683625
0.376045169
0.3737774012
0.5686593665
0.6337972029
0.6323878058
0.8159582519
0.8685779062
0.8680073497
0.9951426385
1.027319309
1.027002617
1.098505219
1.115082158
1.115042456
1.148564778
1.163619505
1.163890237
1.168769967
1.170000897
1.170282826
1.168635907
1.165728495
1.165929248
0.3240265658
0.3845672441
0.382514407
0.574943048
0.6389712312
0.637742082
0.8181288328
0.8701998201
0.869875707
0.9960655515
1.028047584
1.027942427
1.098612418
1.115018093
1.115066919
1.148052743
1.162974136
1.1633126
1.168101787
1.16937257
1.169694632
1.168101507
1.165333987
1.165565625
0.332065122
0.3923087943
0.3904398927
0.5805089759
0.6435090225
0.6424280039
0.8197053364
0.8711191399
0.8709367266
0.9961560704
1.028030032
1.028093625
1.098299428
1.114616277
1.114746389
1.147368325
1.162217779
1.162608043
1.167352632
1.168686609
1.16903448
1.167522786
1.164899952
1.165146777
0.3394416295
0.3993832716
0.397671463
0.58547309
0.6475126201
0.6465570347
0.8208879329
0.8716150635
0.8715213667
0.9956824024
1.027466518
1.02764769
1.097628553
1.113921255
1.11411923
1.146540656
1.161377529
1.161806606
1.166548244
1.167964995
1.168328562
1.166918902
1.164437268
1.164696869
0.3462678667
0.4058885382
0.4043103703
0.5899300319
0.6510664012
0.6502155378
0.8217832541
0.8718344078
0.8718000182
0.994854488
1.026541213
1.026798231
1.096683504
1.112994862
1.11324466
1.145601315
1.160476943
1.160933424
1.165708486
1.167223539
1.167595502
1.166301874
1.163962739
1.164224191
0.3526235846
0.4119011368
0.4104392026
0.5939656493
0.6542493587
0.6534844672
0.8224638251
0.8718647178
0.8718713172
0.9938111512
1.025388335
1.025692324
1.095543003
1.111898371
1.112185454
1.144579623
1.159535801
1.160010349
1.164848652
1.166473643
1.166848676
1.165681071
1.163477315
1.163743806
0.3585796014
0.4175030125
0.4161372857
0.5976506282
0.6571273657
0.6564331423
0.8229845629
0.8717654652
0.8717996086
0.9926419501
1.024099095
1.024430315
1.0942702
1.110682925
1.110995564
1.143499931
1.158569445
1.15905488
1.163980008
1.165723345
1.166097766
1.165061339
1.16299313
1.16325499
0.3641888368
0.4227526924
0.4214707222
0.6010495209
0.6597617683
0.6591221536
0.8233966548
0.8715876077
0.8716365827
0.9914101346
1.022738198
1.023082252
1.092913658
1.10938887
1.109717925
1.142381522
1.157589284
1.158080239
1.163110525
1.16497817
1.165349115
1.164448074
1.162507455
1.162770448
0.3695117802
0.4277069242
0.4264908461
0.6042382762
0.6622276676
0.6616220353
0.8237587588
0.8713850835
0.871434849
0.9901660818
1.021355183
1.021700705
1.091510625
1.108047553
1.108385896
1.141239715
1.156603717
1.157096081
1.162246112
1.164242257
1.164607468
1.163842424
1.162028169
1.162283512
0.3746375195
0.4324658633
0.4312871803
0.6073149736
0.6646174384
0.6640216427
0.8241367078
0.8712151568
0.871251667
0.9889522281
1.019989742
1.020327714
1.090090231
1.10668384
1.107025761
1.14008688
1.155619583
1.156109358
1.161391461
1.163518895
1.163875457
1.163249631
1.161556856
1.161808045
0.3796848988
0.4371537644
0.4359807707
0.6103861695
0.6670226473
0.666415935
0.8245860936
0.8711238163
0.8711377286
0.9877983814
1.018669359
1.018994301
1.088673625
1.105316235
1.105657744
1.138931902
1.154643936
1.155126212
1.1605503
1.162810895
1.163155656
1.162668085
1.161088796
1.161331856
0.3847495796
0.4418673984
0.4406805813
0.6135146805
0.6694962479
0.6688702497
0.8251311252
0.8711294164
0.8711190112
0.9867169052
1.01740682
1.017716809
1.087274127
1.103957156
1.104295621
1.137782317
1.153681418
1.154152012
1.159724991
1.162119431
1.1624477
1.162104894
1.160647404
1.160870962
0.3898638967
0.4466314309
0.4454224344
0.6167177806
0.6720372778
0.671394552
0.8257646749
0.871224759
0.8711930948
0.9857069491
1.016204228
1.016499311
1.085899564
1.102614865
1.102948553
1.136642359
1.152731104
1.153188031
1.158913041
1.161441495
1.161754582
1.161549892
1.160186336
1.160408468
0.3950256728
0.4514380443
0.4501781201
0.6199751658
0.6746321531
0.6739632242
0.8264720155
0.8713971584
0.8713433307
0.984764721
1.015060792
1.015340041
1.084554806
1.101294733
1.101621926
1.135515019
1.151772472
1.152241712
1.158086249
1.160750328
1.161083988
1.160988249
1.159766978
1.159968046
0.4002660721
0.456320279
0.4548765437
0.623309498
0.6773073424
0.6765246207
0.8272762553
0.8716640904
0.8715405723
0.9838996038
1.013985596
1.014230504
1.083250397
1.100007752
1.100313564
1.134379787
1.150748268
1.151367935
1.15722387
1.160040497
1.160488678
1.160413456
1.159286576
1.15957848
0.1759610639
0.1680218404
0.1728018536
0.09331536947
0.07144510695
0.07821362682
0.0429874681
0.04333904724
0.05468511532
0.1828956107
0.1844847339
0.1939685445
0.135583485
0.1414916891
0.110541763
0.1072170945
0.08999177492
0.05025063211
0.04760552446
0.03841254411
0.0300556677
0.0284376592
0.04397220911
0.05596510826
0.0517649501
0.09854291043
0.1113102444
0.1113288675
0.03426812394
0.03243962921
0.2796525836
0.2627737925
0.2449801512
0.30166137
0.2816565973
0.2991859504
0.3629830999
0.3453139597
0.3228706266
0.3946783537
0.3690410449
0.3867786134
0.4692330084
0.4518398589
0.4221518251
0.5182110286
0.483658741
0.5008923183
0.09697456966
0.093238658
0.07458631587
0.1233911422
0.1131939702
0.1143622084
0.1050249259
0.108988248
0.1249662239
0.2956095283
0.2687664621
0.2484568012
0.3083693292
0.2857104363
0.3154623551
0.2417230048
0.2613962625
0.2828522753
0.3763566299
0.3465590103
0.3274041188
0.3871788218
0.3663423671
0.3961070576
0.3187193721
0.3411465696
0.362018602
0.4574114354
0.4305762355
0.4085423013
0.4785571743
0.4538753392
0.4815839916
0.4069773609
0.4289848111
0.4548145665
0.5581881638
0.5335364532
0.5043926269
0.5938010591
0.5631699537
0.5887247427
0.5198386548
0.5403968228
0.5712016702
0.1803973474
0.1752344232
0.138069454
0.1933644533
0.2071079423
0.2394263934
0.4969863542
0.429427361
0.4123275795
0.4672165794
0.4498635751
0.5128101405
0.3521367529
0.3966828175
0.4168867729
0.5483709852
0.49600518
0.480790064
0.5273663983
0.5117499842
0.5609936548
0.4299529899
0.4681762053
0.4854771893
0.605614821
0.5629752732
0.5446707895
0.6032148402
0.5820402431
0.623164527
0.5114277771
0.5453306336
0.5674255245
0.6875426597
0.6506088749
0.625816461
0.7054028688
0.6771905437
0.7125313203
0.6151430017
0.6448506777
0.6721611187
0.1138717128
0.1092548217
0.2657592051
0.261767278
0.1877212768
0.3917273062
0.3286377189
0.3327394277
0.3197189556
0.3243543762
0.3869549301
0.5368740984
0.5319611175
0.4614484896
0.669172539
0.6016112708
0.6064789461
0.5888898843
0.5967190796
0.6642333548
0.8013745585
0.7515708311
0.735325047
0.7471407689
0.7464188086
0.8276168859
0.6161412178
0.6773342712
0.6838687994
0.820871451
0.7600273309
0.752397143
0.7829636377
0.7700615158
0.8278639515
0.6677078228
0.7167237176
0.7320923453
0.8660051314
0.8162671334
0.7987178721
0.8652977622
0.8374716438
0.8864687545
0.7510074402
0.7928576627
0.8195033222
0.1344513669
0.1287364198
0.2835874827
0.2785330648
0.2080216812
0.4112508663
0.3456020986
0.3505146196
0.3368336853
0.3410701508
0.4060731993
0.5583633993
0.5525640878
0.4819694237
0.6893626543
0.6219689832
0.6276235204
0.6114384025
0.6165834918
0.6841033876
0.8192119768
0.8146687412
0.7543131699
0.9193718654
0.8698057792
0.8738422027
0.8617251383
0.8657631615
0.9157916443
1.003992436
1.001435574
0.9632155103
1.031196344
1.034257322
1.036389032
0.8895629873
0.9578871222
0.9599081682
1.105790266
1.038743451
1.03134731
1.073180192
1.052064812
1.118623512
0.9379668276
0.9933236044
1.014053814
0.1635673607
0.1554061296
0.3082163899
0.3015569256
0.2351492562
0.4351273304
0.3678622744
0.3742910896
0.355882885
0.3616711213
0.4286946356
0.5837040879
0.5772371099
0.5067245951
0.7118750202
0.645786187
0.651949767
0.6335182766
0.6396131951
0.7061346444
0.836984866
0.8327462854
0.7747000688
0.9327473349
0.8855153826
0.8890438701
0.8778418278
0.8817543151
0.9296291961
1.012332775
1.010605164
0.9743914262
1.068060433
1.041665957
1.043023982
1.038355489
1.040117986
1.066814044
1.109533221
1.108739987
1.090286071
1.1361278
1.123867518
1.124539807
1.122277378
1.123116288
1.135478025
0.1977562519
0.1895519687
0.3341175883
0.3281431532
0.2645686634
0.4608869203
0.3935906047
0.3992512557
0.3808754098
0.3873362602
0.454731675
0.6059456839
0.6012860171
0.5316156937
0.7323883107
0.6684470867
0.672805641
0.6578765152
0.6634962951
0.7279298035
0.8497790383
0.8474005633
0.792359411
0.9420852866
0.8973022315
0.8993240675
0.8922511569
0.8950500314
0.9402525272
1.017670261
1.016484805
0.9817684697
1.072037936
1.046467235
1.047438201
1.044268989
1.045413529
1.071175199
1.111977642
1.111462442
1.093569258
1.138072837
1.126150627
1.126572165
1.125139946
1.125675058
1.137674753
0.2218023211
0.217863659
0.3500939059
0.3470277733
0.2848224404
0.4775833874
0.411334432
0.4142582252
0.4043204509
0.4082881805
0.4746775681
0.6167769542
0.6145696826
0.5462489657
0.7437113318
0.6808376999
0.6829586727
0.6759655088
0.6785171899
0.7414206926
0.8577979328
0.8559927034
0.8022791836
0.9483334626
0.9046920313
0.9062661797
0.9012244031
0.9030119625
0.9469161552
1.021633157
1.020747517
0.9869667007
1.074806988
1.049921391
1.050625232
1.048333412
1.049159059
1.074205057
1.113539953
1.113215557
1.095772163
1.139204098
1.127555277
1.127802366
1.126943936
1.127270284
1.138983305
0.2352141932
0.2320693872
0.3614211456
0.3587202211
0.2970366327
0.4881142431
0.422496742
0.4250766324
0.4170910906
0.419835749
0.485622799
0.6244798577
0.6226931024
0.5554374884
0.75094259
0.6883527187
0.6899004194
0.6849026499
0.6866929923
0.7493961575
0.8636351901
0.8623860961
0.8091973434
0.9531319207
0.9103395723
0.9114746366
0.9077334295
0.9090917673
0.9520616664
1.024578766
1.023927627
0.9909220986
1.076733292
1.052422478
1.05292647
1.051274436
1.051872444
1.076316914
1.1144869
1.114297491
1.097227494
1.139763877
1.128345887
1.128469815
1.128014703
1.128194877
1.139667157
0.2466746862
0.2439604647
0.3714507615
0.3690539882
0.3078495467
0.4972532254
0.4323490967
0.4346265961
0.4275769812
0.430000077
0.4950854226
0.6309264859
0.6294095325
0.5633809383
0.7558565489
0.6940100377
0.6952390818
0.6913508082
0.6927168567
0.7547845623
0.8673506775
0.8665963321
0.8136882142
0.9565214374
0.914202798
0.9148979347
0.9124956415
0.9134037585
0.9558093279
1.026629858
1.026200845
0.9937590036
1.078022088
1.054170715
1.054497592
1.05338539
1.053799949
1.077753985
1.11497983
1.114893854
1.098132774
1.139923003
1.128697919
1.128730885
1.12856875
1.128644155
1.139913694
0.2567064905
0.2543084874
0.380411312
0.3782557429
0.3174702295
0.5052368201
0.4410538169
0.4430721338
0.4368354756
0.4389761183
0.5033364675
0.6364716231
0.6351576105
0.5703048475
0.7594496049
0.6986012366
0.6996309429
0.6964100742
0.6975288454
0.7586365399
0.8695026593
0.8690730782
0.8165744969
0.9585123277
0.9164291931
0.9167834738
0.9154952519
0.9160026056
0.9581355604
1.027787556
1.027580539
0.9954659563
1.07874351
1.055211713
1.055361969
1.054780016
1.055017871
1.07861571
1.115094079
1.115099306
1.098573182
1.139787291
1.128713212
1.128670322
1.12874406
1.128737811
1.139845194
0.2657006085
0.2635322965
0.3885280591
0.3865713286
0.3261049277
0.5122874951
0.448799234
0.450609646
0.4450335885
0.4469411811
0.5106013625
0.6413124802
0.6401609405
0.5763962703
0.7622929173
0.702487587
0.7033710317
0.7006200201
0.701571101
0.7616355804
0.8707253735
0.8704813418
0.8185678721
0.9593627096
0.9174884476
0.917628152
0.9170729763
0.9173054002
0.9592364284
1.028119975
1.028105775
0.9961550923
1.078911697
1.05556004
1.055547791
1.055469121
1.055534453
1.0789198
1.114857208
1.114948048
1.098571678
1.139407071
1.128435986
1.128323988
1.128609663
1.128531235
1.139523152
0.2739026486
0.2719180859
0.3959228809
0.3941359358
0.3339655247
0.518582337
0.4557740672
0.457414378
0.4523740658
0.4540944672
0.5170716526
0.6455721767
0.6445567296
0.5818020744
0.764632295
0.705834152
0.7065986178
0.7042221293
0.7050423661
0.7640874491
0.8714089306
0.8712757305
0.8200326366
0.9594413101
0.9178341021
0.9178462476
0.9177291734
0.9177962257
0.9594760738
1.027803944
1.02793246
0.9960808894
1.078578154
1.055304936
1.055163945
1.055499519
1.055417604
1.078703567
1.114301721
1.114467788
1.098162028
1.138810502
1.127893313
1.127720365
1.128195898
1.128051932
1.138978051
0.281461945
0.2796237871
0.4027011517
0.4010592544
0.3411951424
0.5242495755
0.4621109649
0.4636081292
0.4590161326
0.4605806554
0.5228857377
0.649340566
0.6484400767
0.5866307958
0.7665828741
0.7087351892
0.7094005866
0.7073359337
0.7080473655
0.7661272101
0.8717528994
0.871691808
0.821135195
0.9590421777
0.9177532867
0.917687925
0.9178349499
0.9178029465
0.9591749429
1.027039489
1.027263053
0.9955019907
1.077844574
1.054592871
1.054361083
1.054996638
1.054805395
1.078059214
1.113482954
1.113708885
1.097414628
1.138029
1.127123424
1.126901045
1.127533957
1.127334533
1.138239414
0.2885129039
0.2867908648
0.4089509147
0.4074346964
0.3478970606
0.5293904049
0.4679166118
0.4693014257
0.4650730406
0.4665071862
0.5281501144
0.6526997452
0.6518941858
0.5909749881
0.7682238157
0.7112681475
0.7118528118
0.7100435491
0.7106653682
0.7678389263
0.8718690947
0.8718571971
0.8219709612
0.9583544827
0.9174105827
0.9172966264
0.9176078544
0.9175147147
0.9585463858
1.025986732
1.026270241
0.9946096039
1.076822644
1.053566861
1.053275214
1.054111567
1.053846139
1.077099716
1.112464417
1.112734544
1.096413896
1.137100228
1.126174223
1.12591455
1.126668288
1.126425603
1.13734389
0.2951494265
0.2935259201
0.4147489749
0.4133373825
0.354146854
0.5340882829
0.473307379
0.4745961425
0.4706610594
0.4719958161
0.5329504613
0.6557226912
0.6549952124
0.594916822
0.7696200886
0.7135025192
0.7140219285
0.7124192895
0.7129685658
0.7692910109
0.8718280923
0.8718501497
0.8226068239
0.9574926813
0.9169026015
0.9167580103
0.9171731456
0.9170412576
0.9577201199
1.024756296
1.025076027
0.9935277692
1.075605495
1.052337093
1.052007847
1.052972099
1.052658861
1.07592398
1.111302787
1.111603975
1.095235038
1.136061127
1.125092099
1.124805612
1.125647257
1.125372751
1.136329223
0.3014138658
0.2998806506
0.4201690536
0.4188465365
0.3600116688
0.5384228741
0.4783279777
0.4795308428
0.4758620029
0.4771052632
0.5373697004
0.6584707463
0.6578063055
0.5985240695
0.7708260847