/*--------------------------------*- C++ -*----------------------------------*\
| =========                 |                                                 |
| \\      /  F ield         | OpenFOAM: The Open Source CFD Toolbox           |
|  \\    /   O peration     | Version:  v2012                                 |
|   \\  /    A nd           | Website:  www.openfoam.com                      |
|    \\/     M anipulation  |                                                 |
\*---------------------------------------------------------------------------*/
FoamFile
{
    version     2.0;
    format      ascii;
    class       volScalarField;
    location    "3";
    object      omega;
}
// * * * * * * * * * * * * * * * * * * * * * * * * * * * * * * * * * * * * * //

dimensions      [0 0 -1 0 0 0 0];


internalField   nonuniform List<scalar> 
3019
(
697.721938
133.1662167
66.81704486
45.63458411
37.40386152
33.79864494
31.9251096
31.20109593
30.76721209
30.59926169
30.51020834
30.46500636
436.9000835
124.3102923
65.88247139
45.69186792
37.5283112
33.87752179
31.93683266
31.17096134
30.70305189
30.52125369
30.42266183
30.37254722
312.8908401
115.8185129
64.09114247
45.27339586
37.43456082
33.86665885
31.91607614
31.12981804
30.63872018
30.44600017
30.33827577
30.28403465
271.7200067
108.6324704
62.05428926
44.59942167
37.19909098
33.7798048
31.86391803
31.07604939
30.56871833
30.36822662
30.25427511
30.19637405
235.1336257
101.1826128
59.65864431
43.78687774
36.92619457
33.65687476
31.78876799
31.01050286
30.49461907
30.28921479
30.16952312
30.10842086
201.7279049
93.78806332
57.29502043
43.02814173
36.64221825
33.50886319
31.69366744
30.93021908
30.4112115
30.20279357
30.08023208
30.01665378
177.7967849
88.15626288
55.58875691
42.42365076
36.35731187
33.34563223
31.58567311
30.83918825
30.32173759
30.11239558
29.98788743
29.92293032
164.5681788
84.94556323
54.3710435
41.88252391
36.08168204
33.17570428
31.4687989
30.73922343
30.22401007
30.01426821
29.88870565
29.82304626
154.4760247
82.23800045
53.39817466
41.40250718
35.81959674
33.00431134
31.34574791
30.63201771
30.12179418
29.91319179
29.78738512
29.72147919
146.0271634
79.88124439
52.60985122
40.98569333
35.57343683
32.8346505
31.21861715
30.51913196
30.01233803
29.80445949
29.67881027
29.6131546
138.8297859
77.8043233
51.93746082
40.63031918
35.34543694
32.66887088
31.08918345
30.40194909
29.90112572
29.69538242
29.57041559
29.50525224
132.5908016
75.95166639
51.33906771
40.32592908
35.13662942
32.50853453
30.95890414
30.28175972
29.7836496
29.57876653
29.45448745
29.39009386
127.1045065
74.28260771
50.79416899
40.05911786
34.94583814
32.35447505
30.82885505
30.15959885
29.66760064
29.46526644
29.34206607
29.27850748
122.2215882
72.76585097
50.29129857
39.81883126
34.77034884
32.20672406
30.69971382
30.03637013
29.54512372
29.3431594
29.22074572
29.15813594
117.8300098
71.37569938
49.82248558
39.59751017
34.60723174
32.06483992
30.57188239
29.912665
29.42778598
29.22859134
29.10734227
29.04563512
113.8466371
70.09149315
49.38160319
39.39012282
34.4539381
31.92818791
30.44555855
29.7890618
29.30191225
29.10225247
28.98169074
28.92092684
110.2115533
68.89684033
48.96351154
39.19311336
34.30843332
31.7961499
30.3208532
29.66578381
29.18631586
28.98968199
28.87021501
28.81028672
106.8751514
67.77631017
48.56317104
39.00367546
34.16908544
31.66815752
30.19781732
29.54328053
29.05703036
28.8589437
28.74003238
28.68097652
103.7862942
66.71398684
48.17547857
38.81947905
34.03458706
31.5437139
30.07648098
29.42150417
28.9464154
28.75161589
28.63362537
28.57527224
100.8929641
65.69487998
47.79607798
38.63877438
33.90392936
31.42238635
29.95687063
29.30097863
28.8117827
28.61470844
28.49720959
28.4396427
98.15484846
64.70864331
47.42250716
38.46056049
33.776377
31.30378947
29.83907823
29.18144339
28.71077948
28.51681715
28.39995243
28.34292616
95.55469121
63.75213676
47.05450773
38.28452601
33.65145962
31.18767305
29.72342973
29.06396252
28.56594184
28.36998783
28.2536543
28.19734105
93.09356636
62.827392
46.69293861
38.11064793
33.52885511
31.07381358
29.61083761
28.94864795
28.48239935
28.287386
28.17132465
28.11536118
90.79012141
61.9442041
46.34115413
37.9397699
33.40878202
30.96234995
29.50368005
28.839105
28.29640889
28.09952489
27.98388784
27.92863181
850.2003131
728.6180883
161.0985758
538.4556679
833.7065715
455.817298
157.0349822
159.3818556
412.2838151
530.4358699
300.6858832
615.3540187
631.8991957
554.6603362
266.6232714
290.4220982
1171.386195
737.4592117
1283.189116
992.1226076
520.855278
703.5077741
326.8563426
143.8601271
153.8329393
457.7242791
501.5848719
933.0082745
244.9839504
258.9370001
540.1915064
493.1937211
5922.354935
1903.290278
1062.486663
570.8250216
4475.397297
3117.142609
993.6665712
4637.60273
5769.910561
3081.370648
4401.030969
6101.690342
1829.57813
2714.491546
1265.67218
1617.427211
5492.979809
6126.468302
1687.794057
5856.128965
5030.145813
146.0428847
77.18381138
952.789054
2773.524408
1878.634344
4160.785014
2481.21021
1266.465942
744.3285061
5905.240095
6236.063907
6355.657349
5266.870807
6066.102688
1012.669533
1179.539592
5604.768752
5085.571103
5682.578864
5254.996742
6027.183089
5977.469171
5827.800766
3533.77577
5144.609538
4674.447953
5784.908037
5983.726659
3960.881247
4284.428325
4731.59166
6020.859718
4896.302421
3472.403713
3813.616562
5659.281359
4212.819123
4472.511133
3321.91657
3789.038212
5837.740843
66.90355327
49.04898136
45.55642871
38.78364983
37.33870855
34.40832303
621.6852121
412.7115368
443.1600755
126.8431471
75.43092274
76.94245372
66.06682876
49.14641774
49.13133448
45.72161571
38.98455613
38.86065228
37.52360827
34.53552059
34.44952036
397.1084684
219.5918616
239.677371
117.7556198
73.13665716
75.1124
64.55591228
48.68599181
49.07174223
45.41402173
38.90403803
38.98444656
37.47850292
34.5495024
34.54838008
426.3824377
484.6265303
281.0285553
133.4140742
141.0380475
110.4138046
70.4315471
72.50417465
62.60888593
47.85972642
48.49854122
44.77748228
38.6193804
38.84430684
37.26397292
34.45669101
34.53189501
353.6149913
408.257205
244.2170236
123.5121004
130.9675866
103.0890611
67.33239424
69.69055775
60.2752405
46.8313952
47.62628113
43.99513461
38.26775347
38.53468092
36.99505819
34.31743439
34.42350502
284.6247873
335.5061216
209.3900692
113.3470841
120.9622486
95.54932562
64.1039721
66.51498208
57.8509673
45.77887839
46.55848865
43.19804789
37.91513374
38.17728927
36.71390339
34.15226547
34.27826843
234.2890145
269.8704334
182.6297072
104.6442649
110.920065
89.31438581
61.50045467
63.35775437
55.93495574
44.9701942
45.54829192
42.56863057
37.57322862
37.82855474
36.42793151
33.97045744
34.10775132
208.5197025
225.7830582
167.4090249
99.41649722
102.9654826
85.68822176
59.89929606
61.05734667
54.65113983
44.29141467
44.79223188
42.01208586
37.24753558
37.49002133
36.14942573
33.7826272
33.92374875
192.2417191
204.05871
156.8266458
95.47734176
98.37054636
82.87879908
58.64593731
59.55808272
53.62111393
43.69884181
44.13512291
41.51668002
36.94216787
37.16919035
35.88371028
33.5946108
33.73549527
179.2616735
188.7355564
148.0081401
92.10102669
94.58541869
80.44161458
57.62086218
58.3724443
52.79374412
43.19434632
43.56439122
41.08390213
36.65910486
36.8692109
35.63335136
33.40975069
33.54800094
168.5510079
176.4010637
140.5293535
89.16685312
91.3299748
78.3006114
56.73511755
57.38870121
52.09745236
42.77241464
43.08163759
40.71385803
36.40064073
36.59208521
35.40063938
33.23046481
33.36433015
159.452977
166.1433611
134.0728607
86.57937032
88.49033963
76.39619159
55.9424825
56.52926006
51.48306563
42.41515253
42.67782475
40.39799198
36.16772349
36.34002986
35.1870564
33.05854285
33.18674094
151.5691693
157.3796653
128.4142931
84.26993741
85.97793637
74.68445562
55.22097306
55.75594612
50.92607587
42.10314648
42.33352936
40.12296052
35.95830092
36.11329124
34.99198126
32.89492687
33.0168464
144.6288728
149.7534162
123.3922049
82.18824502
83.72964116
73.13221195
54.55750042
55.05001192
50.41353931
41.82224024
42.03039806
39.87687771
35.76828497
35.90913648
34.81294838
32.7395276
32.85532581
138.4465108
143.0175023
118.8867358
80.29481734
81.69842855
71.71256627
53.94205226
54.39940994
49.93684594
41.56343407
41.75569976
39.65136565
35.59346682
35.72329125
34.64699732
32.59162604
32.70188195
132.8916418
137.0025182
114.8077335
78.5581242
79.84681546
70.40355418
53.36647486
53.79462569
49.48949502
41.32100139
41.5014342
39.44087546
35.43036633
35.55169468
34.4914611
32.45027561
32.55570754
127.8708764
131.5888408
111.0903239
76.95372126
78.14525888
69.18792651
52.82397437
53.22791348
49.06616349
41.09094222
41.26242179
39.24155166
35.27629513
35.39107246
34.34417282
32.31455747
32.41584387
123.3110206
126.6900325
107.6838116
75.46047884
76.57064767
68.05033571
52.30813914
52.69270391
48.66186538
40.87008261
41.03494757
39.05045612
35.12918345
35.23891991
34.20341935
32.18367353
32.28140785
119.138272
122.234429
104.5379708
74.05695248
75.10189379
66.97494945
51.81227143
52.18249672
48.2714687
40.65562777
40.81593741
38.86513933
34.98738148
35.09327574
34.06781402
32.0569258
32.15161881
115.2739984
118.1464603
101.5999937
72.72197653
73.71741686
65.94626415
51.33014522
51.69059785
47.89031861
40.44531466
40.60270116
38.68368754
34.84962624
34.95258892
33.93627651
31.93372749
32.02580894
111.6509625
114.3488728
98.82458567
71.43882447
72.39668537
64.9523389
50.85754731
51.2111339
47.51538528
40.23774794
40.3931646
38.5049002
34.71501993
34.81569027
33.80800004
31.81357314
31.90341404
108.2315006
110.7820775
96.18682098
70.19980063
71.12505236
63.98813627
50.39330154
50.74063215
47.1459253
40.03251167
40.18618952
38.32832871
34.58302358
34.68177588
33.68245935
31.69610989
31.78395914
104.998135
107.4196203
93.67669002
69.00358291
69.89750762
63.05331492
49.93796337
50.27859754
46.78242402
39.82964768
39.98154303
38.15387351
34.45328855
34.55037418
33.55928881
31.58106159
31.66712219
101.9304797
104.2590303
91.279995
67.84507362
68.71635749
62.14432397
49.49041909
49.82618737
46.42411803
39.62874733
39.77936947
37.9811292
34.32539003
34.42118507
33.4380761
31.46812322
31.55264727
98.83629381
101.3179049
88.84611533
66.64958142
67.59387683
61.20205797
49.02121332
49.38795923
46.04730115
39.41642499
39.58087558
37.79861797
34.19101596
34.29449732
33.31102391
31.35023578
31.44070651
885.7143122
1039.792042
996.7682238
618.3083657
641.4626238
767.4900193
166.9733411
268.2861989
245.6899958
563.44073
946.395569
1660.446371
1249.514244
818.4570905
359.8428089
373.2761397
497.1096619
152.7938036
218.7557691
210.3100983
238.8628328
223.6878606
153.9794018
476.9486646
534.6756723
311.5470425
428.8497153
398.8645902
442.7206823
296.8996053
1515.636211
1099.688216
719.2504807
693.688844
597.6959683
652.8012325
788.5966495
749.5612209
371.7811495
404.8086267
601.0513162
272.9137719
334.4879436
325.0650561
384.6273792
348.5630798
281.9510207
1698.555185
1515.687708
1103.489355
2897.5332
3160.113327
4685.161641
770.3812311
1164.91447
1016.658896
1386.633485
2233.446308
1941.593346
729.6016571
767.948998
1176.067264
538.8002597
637.3597747
613.2570202
665.5824265
560.5045168
880.7539834
823.7107652
676.8950787
2334.716834
2589.252996
975.0814561
983.4849172
230.2622479
238.6717859
378.7907201
146.9333106
182.0006542
177.4019507
205.0329143
187.1934755
150.256819
469.8995396
548.4456057
530.9056006
589.4342343
568.8466683
486.7894695
811.4811838
668.8091279
698.3960812
247.7865357
298.6990031
293.2611375
314.1329647
307.0236015
254.6686525
511.1178106
378.7399191
395.1660907
512.772372
696.9614878
669.4744321
2175.80226
3764.530115
3288.671725
865.8222445
900.1686827
787.33109
810.8846457
1116.247809
586.6906141
668.8606641
654.4809902
4011.502476
2477.019899
2870.489945
1877.104913
2149.02326
3499.508487
1039.054725
1371.725454
1260.682437
2064.460967
3253.774325
2905.388735
4145.416599
3699.645861
2365.451994
1347.843766
2069.163928
1864.306706
2571.671458
2305.496072
1486.31241
2865.873383
2547.581605
1531.986816
109.7182443
110.8543507
147.6603305
77.51403861
91.24314926
90.52904403
1175.234515
1104.963878
912.8770694
2473.081946
1518.998046
1673.112507
1271.616629
1371.947163
2151.259451
983.2593643
1027.8196
1381.638853
780.5929682
859.3658802
856.1856389
905.5583643
794.2870947
1886.510204
2074.926327
1065.654583
1382.950502
1284.294451
1665.427159
1509.50247
1128.443326
33.767918
32.52691192
31.90930934
31.49408044
31.21619678
31.02474209
668.8349862
576.8502216
595.917398
131.090144
106.840527
108.0516942
66.57881214
59.24224695
59.29204438
45.71458623
42.93824337
42.87582187
37.46084198
36.26431042
36.21610536
33.86914599
32.5916201
32.56504183
31.93721846
31.49117276
31.49371266
31.1912088
30.98152724
31.0049855
423.5140532
336.4658491
347.6409466
121.9300021
101.2451967
102.7482858
65.45446787
58.5819311
58.80557511
45.63227765
42.91622696
42.9660788
37.52566911
36.33134639
36.3330462
33.87766546
32.59535778
32.59860157
31.93091932
31.47149017
31.48393447
31.15628818
30.93330405
30.95931414
301.0577115
217.031144
223.0937759
113.9744264
95.87143518
97.16881065
63.63426071
57.26011188
57.61141229
45.11880211
42.55559217
42.67295079
37.3832264
36.237932
36.27569316
33.80578659
32.55730963
32.58161819
31.89612933
31.42990879
31.45216192
31.10843245
30.87804926
30.90714795
262.5357403
196.8522077
201.7133215
106.8214375
90.66026835
91.99788209
61.47847955
55.65482322
56.09301645
44.40729989
42.00608948
42.14848361
37.13062475
36.04632436
36.0984352
33.69097401
32.47738417
32.52032621
31.82982904
31.37132801
31.40058935
31.04921927
30.81440382
30.84758602
226.2153705
176.5790595
181.7385645
99.27409344
85.01615431
86.45255228
59.04274831
53.80343682
54.2700998
43.58189955
41.37763904
41.53273371
36.85622097
35.82713502
35.88443708
33.54821856
32.376608
32.42980173
31.74316614
31.29383131
31.33400753
30.97443038
30.74043932
30.77907303
194.6545512
157.1173683
161.6429883
92.14702195
79.66929647
80.89874918
56.78521584
52.11299651
52.49343491
42.87061797
40.83318554
40.96048273
36.57052173
35.58824446
35.64883693
33.38759963
32.25746762
32.31884803
31.64101141
31.2025237
31.2492983
30.88799406
30.65609787
30.69947725
173.6180535
143.0558913
145.8690723
87.27020515
76.12238612
76.76884557
55.25977655
50.95006404
51.21399354
42.28259262
40.35079054
40.46730929
36.287293
35.34539226
35.40589926
33.21859774
32.12700164
32.19330285
31.52815935
31.10040217
31.15233673
30.79178653
30.56304463
30.6106454
161.863517
134.7874696
136.7075043
84.23090268
73.87511583
74.39878143
54.10646634
50.00524291
50.22475079
41.75672397
39.91178978
40.01749747
36.0147797
35.10729166
35.1661069
33.04715399
31.99008943
32.05912581
31.40791349
30.99012099
31.04591302
30.68760382
30.4622203
30.51361454
152.2260718
127.8858962
129.5047751
81.61874153
71.96863161
72.42030932
53.1867124
49.23481479
49.41212489
41.29226991
39.51637362
39.61104734
35.75645803
34.878024
34.93437698
32.87680894
31.84985918
31.9202406
31.28257678
30.87388272
30.93247021
30.57705434
30.35501836
30.40944674
144.1231389
122.0138466
123.3990234
79.3381059
70.29998268
70.69823031
52.43297903
48.6091152
48.75463229
40.8913524
39.16675054
39.24976928
35.51465124
34.66009513
34.71339472
32.70988113
31.70847582
31.77919857
31.15409104
30.75345195
30.81398459
30.4616141
30.2424746
30.29949488
137.1889931
116.9396187
118.1439213
77.3218223
68.8149795
69.17119467
51.7819374
48.08084184
48.20602293
40.5499578
38.86284133
38.93477637
35.2914362
34.4555905
34.50537529
32.54806549
31.56763234
31.63789642
31.02407368
30.63027031
30.6920451
30.3425998
30.12612769
30.18488489
131.1548935
112.4902057
113.5514239
75.51841966
67.47805595
67.79990977
51.19832227
47.61486712
47.72677047
40.25617904
38.59858163
38.66141761
35.08732586
34.26554577
34.31170908
32.39239893
31.42858786
31.49782783
30.89379992
30.50553475
30.56797769
30.2211781
30.00670517
30.06696573
125.8317449
108.5420229
109.4876002
73.8901255
66.26393037
66.55712269
50.66482722
47.1919609
47.29433069
39.99689528
38.36490051
38.42094195
34.90064265
34.08933219
34.13217725
32.24309099
31.29206708
31.35998795
30.76413976
30.38015126
30.44283968
30.09829542
29.88568152
29.94657737
121.0810257
105.0021988
105.8531984
72.40724633
65.15231517
65.42160154
50.17112904
46.80128508
46.89635445
39.76193715
38.15354133
38.20465436
34.72851021
33.9251694
33.96519162
32.0997906
31.15835615
31.22485398
30.63561777
30.25477853
30.31740331
29.97469686
29.76314102
29.82482897
116.7982432
101.7975131
102.5706566
71.04531579
64.12616253
64.37550425
49.70982197
46.43591097
46.52517913
39.54449923
37.95846484
38.00596353
34.56806816
33.77104201
33.80873884
31.96188906
31.02747713
31.09256925
30.50851895
30.12986004
30.19222289
29.85093887
29.6405954
29.7020955
112.9069446
98.87251078
99.57998134
69.78494791
63.17169622
63.40424132
49.27510366
46.09080826
46.17541701
39.34000107
37.77542867
37.82024005
34.41689422
33.62511376
33.6609142
31.82874696
30.89932999
30.96307382
30.38298817
30.00571049
30.06766794
29.72742507
29.51727512
29.57929715
109.3510626
96.18580059
96.83720636
68.61028575
62.27734588
62.49592647
48.86192778
45.76178752
45.84275753
39.14512656
37.60135389
37.64417305
34.27306726
33.48586969
33.52012668
31.69979027
30.77377832
30.83624898
30.25909739
29.88252951
29.94399588
29.60446178
29.39514881
29.45631077
106.0814196
93.70037571
94.30503084
67.50579112
61.43156512
61.6391326
48.46521189
45.44478762
45.52313711
38.95719493
37.43382012
37.47520648
34.13503963
33.35205595
33.38506172
31.57450137
30.65065463
30.71194988
30.13685943
29.76046461
29.82139667
29.48223668
29.27226051
29.33410404
103.0460549
91.37802698
91.94555774
66.45559587
60.62255555
60.82199038
48.07995416
45.13594176
45.21257857
38.77401268
37.27091121
37.31129084
34.00158839
33.22266366
33.25464499
31.45243439
30.52979037
30.59002501
30.01625499
29.63957378
29.69999912
29.36091596
29.15174687
29.21202975
100.1939473
89.18198162
89.72107704
65.44539176
59.84001388
60.03359302
47.70214866
44.83224799
44.90779273
38.5939936
37.11124221
37.15090662
33.87176515
33.09688092
33.12802387
31.33318121
30.41101015
30.47035977
29.89718239
29.51986713
29.57994466
29.24049052
29.02967522
29.09144319
97.48915358
87.08702348
87.60291452
64.46653488
59.07809912
59.2667871
47.32992447
44.53235448
44.60698119
38.41633499
36.95404608
36.99313285
33.74490764
32.97410897
33.00454276
31.21646549
30.29405737
30.35294466
29.77942082
29.40114237
29.46137888
29.12090591
28.91141849
28.97102639
94.91618391
85.08331291
85.57948092
63.51700072
58.33588867
58.51978044
46.96337659
44.23634677
44.30997352
38.24083084
36.79901918
36.83758275
33.62059237
32.85394541
32.88375977
31.10205111
30.17829789
30.23793299
29.66242157
29.28294925
29.34471332
29.00160539
28.78919472
28.85323858
92.46591845
83.16560482
83.65300118
62.59635688
57.61349342
57.79435875
46.6028743
43.94449229
44.01735665
38.06737235
36.64595592
36.68410344
33.49848885
32.73606959
32.76535886
30.98965697
30.06197378
30.12615458
29.54472241
29.16381977
29.23083281
28.88127119
28.67159167
28.7363094
90.10976314
81.30968588
81.84069873
61.69103288
56.89997361
57.098206
46.24305819
43.65269818
43.73153943
37.89383271
36.4930306
36.53328033
33.37725876
32.6192407
32.64952468
30.87232709
29.93665837
30.02077868
29.41738268
29.03458725
29.12220203
28.75014693
28.53387379
28.62653104
162.791172
183.820516
181.4082408
551.4280857
629.3136976
617.9439852
937.9773234
927.6711297
789.3330062
178.5914106
176.5885941
157.3767151
354.77706
314.2719433
488.7973386
499.1456382
567.3537891
844.1755708
878.216081
1037.846358
1334.69169
1408.202958
922.1389971
785.7777211
827.5033835
530.389602
469.2436429
478.6919947
1168.717356
1239.543175
59.29417183
59.23258317
66.95769645
48.91886677
53.41102586
53.51118646
42.77996681
42.64734349
45.40522314
38.6756438
40.44989846
40.56483776
36.15729593
36.07820673
37.24210823
34.35133828
35.12763133
35.19213079
542.3623918
557.9106374
643.1528935
422.6042677
483.4590858
471.7773085
513.4022217
498.5265249
432.7573953
104.3207017
105.1993305
128.3178361
76.09939432
88.39417842
87.63400605
89.87252721
89.09605638
76.40331959
58.99412659
59.1370137
66.39871727
49.17178709
53.54125521
53.48342532
53.58736573
53.58880816
49.18191716
42.97933875
42.98006134
45.72928781
38.95889507
40.76133983
40.77016824
40.65824974
40.71328441
38.92017881
36.32163689
36.29848295
37.49635608
34.51328634
35.31799531
35.33755621
35.24468332
35.28421026
34.48724951
317.3303761
327.1503264
405.6684479
283.5432352
278.6281376
234.3398284
98.50096169
99.81796403
119.7931145
73.79786698
84.9397826
84.03447661
86.85126947
85.88269865
74.45158424
57.94792041
58.27334566
65.006745
48.85734936
53.01507854
52.78032185
53.32736883
53.23419088
49.01533262
42.77912064
42.87692059
45.54097526
38.95828544
40.7181229
40.64454687
40.7652484
40.74159055
38.9724797
36.3079949
36.32056233
37.50966648
34.55229187
35.35089699
35.34480123
35.35289276
35.3541137
34.55427936
444.709331
463.678756
206.5878643
211.6233159
290.6808471
135.8755408
166.1804702
162.8861891
173.3274112
169.6330975
138.3983233
93.30373588
94.58977822
112.184713
71.15007593
81.30733298
80.36117854
83.15844145
82.23635017
71.85005577
56.51355561
56.90529956
63.14157674
48.08264372
51.98752241
51.70243011
52.52943827
52.2650635
48.29728066
42.2922502
42.42742458
44.95428511
38.70106921
40.37664984
40.27141099
40.56467834
40.47509066
38.77610367
36.14812576
36.19519579
37.32629834
34.48450377
35.26162016
35.22571915
35.32177234
35.29424044
34.51157482
371.9018516
390.1292512
186.8695046
191.9116159
253.3724523
126.0278978
153.2123898
149.8921529
159.668612
156.4638283
128.5125531
87.88082228
89.28761559
104.9724786
68.13825171
77.358899
76.30135707
79.3901674
78.38945841
68.92579422
54.73839132
55.20189424
60.88393267
47.1028337
50.70150596
50.34709061
51.3834887
51.04825574
47.36885868
41.69102161
41.8495769
44.2030745
38.35938027
39.9314767
39.81079346
40.1602683
40.04745496
38.44526518
35.94014874
35.99388628
37.06430325
34.35350884
35.1021057
35.05807938
35.18647493
35.14561494
34.39069008
300.7124698
317.7391759
166.4503304
171.4528603
217.6000929
115.8468978
139.5660316
136.145659
146.4899771
143.0398981
118.4031059
82.21358584
83.59683298
97.38544432
64.88785357
73.0753722
72.03150236
75.22657131
74.14492181
65.6964888
52.90645151
53.34641769
58.43610079
46.02713214
49.28946035
48.95888446
49.98983702
49.63531063
46.28887653
41.09064315
41.22924634
43.3843356
38.00205818
39.46259764
39.35568543
39.69065045
39.57406885
38.08911791
35.7090148
35.76854979
36.78534617
34.19553001
34.91518468
34.86480459
35.01208087
34.96438824
34.23781911
244.6804376
256.42301
149.1687919
152.9387134
188.3086082
106.5167445
126.7217864
124.0909898
132.8132182
129.6669396
108.644941
77.58160482
78.56082728
90.63483449
62.04182179
69.28358588
68.54351727
71.04103823
70.11211449
62.66630225
51.48912801
51.77862147
56.32181956
45.15378167
48.12566478
47.8971171
48.65002747
48.36953833
45.34359036
40.58656433
40.70852433
42.71759993
37.65745147
39.04351763
38.94265973
39.25015585
39.14605542
37.74261401
35.46662329
35.52745546
36.49904589
34.01673693
34.70915203
34.65639586
34.81352381
34.76157026
34.06262651
213.2949783
218.5935213
138.7168032
140.8225037
170.4007131
100.507418
118.2324338
116.7202607
121.7449844
119.8223644
101.6514527
74.94558761
75.51875746
86.46171478
60.26189822
66.97288401
66.52512074
67.95714177
67.44873298
60.64754885
50.45540883
50.69719102
54.94731618
44.4529818
47.25943389
47.06214662
47.67678921
47.46430192
44.61991197
40.12589707
40.23698832
42.14543674
37.32713743
38.65091993
38.55738522
38.84356967
38.74632295
37.40798703
35.22542565
35.28521445
36.2179826
33.82977511
34.49763434
34.44483048
34.60349845
34.55052703
33.8768424
195.948362
199.8800713
131.1914744
132.9506555
159.2868387
96.40379571
112.5546809
111.2769246
115.2725943
113.8854602
97.36752987
72.88768065
73.37207369
83.54267404
58.93339705
65.3196784
64.95458339
66.10233765
65.70148662
59.23684506
49.5992591
49.79681957
53.85684655
43.83879611
46.51646526
46.35014264
46.87250828
46.69060344
43.98426218
39.70853198
39.8087898
41.63477401
37.01649299
38.28820975
38.2023244
38.4657503
38.37602706
37.0921812
34.99138862
35.04904304
35.94878419
33.64144293
34.28792702
34.23623777
34.39226843
34.33993252
33.68840456
182.2612769
185.4150489
124.8369763
126.3313169
150.0728512
92.89924782
107.7331718
106.6392144
110.0493316
108.868995
93.72687137
71.10854188
71.53170465
81.02045497
57.86137625
63.94207242
63.62751509
64.6043422
64.26730088
58.11149012
48.90688513
49.06666877
52.98567512
43.31224208
45.89720453
45.76063553
46.1916247
46.04073948
43.43556004
39.33571186
39.42458416
41.18608429
36.72764782
37.95668464
37.87893423
38.11841959
38.03652523
36.79769852
34.76750163
34.82239211
35.69437211
33.45553651
34.08373381
34.03383415
34.18497185
34.13410804
33.50161377
171.0559633
173.6704583
119.3892811
120.6782876
142.292629
89.86457015
103.5853162
102.635512
105.5848713
104.5677635
90.58524344
69.53707113
69.91312993
78.81162593
56.94657413
62.73980611
62.4602182
63.32280403
63.02715562
57.16425967
48.33544084
48.46960334
52.2624373
42.87100465
45.38819334
45.27470095
45.63062249
45.50666317
42.97398143
39.00933267
39.08662452
40.80080607
36.46284643
37.65861467
37.5894852
37.80332907
37.72989277
36.52666956
34.55606217
34.60764374
35.45704964
33.27466229
33.88752732
33.83995553
33.98449345
33.93570561
33.31928136
161.600419
163.8295524
114.6454232
115.7740762
135.6047568
87.1977804
99.96463316
99.1282266
101.7166616
100.8270363
87.83458438
68.12974514
68.46793824
76.85271269
56.13331675
61.66408617
61.41158972
62.18802633
61.92281469
56.32884978
47.84154689
47.95945693
51.63059264
42.49952998
44.95955549
44.86154383
45.16573606
45.06084155
42.58700048
38.72630415
38.79339042
40.47259244
36.2236147
37.39465618
37.33365718
37.52249087
37.45757901
36.28104431
34.35875944
34.40671571
35.23864826
33.10076704
33.70124982
33.65637217
33.79305218
33.746809
33.14349902
153.4423649
155.3784599
110.4598583
111.4602058
129.7639074
84.82414076
96.76215419
96.01697888
98.31653811
97.52833121
85.39332173
66.85699337
67.16385058
75.09625694
55.39544938
60.6889789
60.45876952
61.16510161
60.92434856
55.57373252
47.3988309
47.50561294
51.06073862
42.17777206
44.58430949
44.49663406
44.76651953
44.67420234
42.25450402
38.47848263
38.53764804
40.18859078
36.0086595
37.16129266
37.10701933
37.27450063
37.21708612
36.06030275
34.17580645
34.22025307
35.03912787
32.93504562
33.52591657
33.48377465
33.61220196
33.56871684
32.97567814
146.2865852
147.9943166
106.72603
107.6219471
124.5953071
82.68958528
93.89853023
93.22801968
95.29197607
94.58621617
83.20324812
65.6964412
65.97713325
73.50688366
54.71850305
59.79733885
59.58573768
60.23359054
60.01321685
54.88263511
46.99308343
47.09158355
50.53801701
41.89011299
44.24536796
44.16498602
44.41103346
44.32733942
41.95945881
38.25685557
38.31023976
39.93619837
35.81421076
36.952416
36.90328188
37.05418381
37.00268632
35.86113976
34.00586926
34.04724134
34.85636666
32.77764622
33.36123203
33.32158805
33.44229886
33.40145697
32.81623481
139.9286896
141.4521619
103.3619002
104.1720932
119.9701741
80.75233426
91.31302803
90.70408963
92.57418362
91.93617765
81.22012549
64.6294971
64.88834896
72.05632828
54.09187068
58.97533556
58.77926645
59.37835836
59.17498021
54.24429949
46.61577824
46.70778155
50.05302795
41.62640951
43.93259128
43.8576753
44.08614245
44.00872051
41.69047541
38.05426585
38.10343324
39.70614808
35.63594874
36.76205795
36.71677928
36.85523415
36.80818852
35.67920782
33.84697239
33.88577215
34.68740939
32.62795224
33.20604936
33.16857048
33.28253232
33.24402674
32.66469448
134.2268483
135.5970548
100.3029289
101.0418382
115.7914286
78.97896843
88.95732718
88.39971107
90.10890267
89.52690057
79.40848284
63.64073199
63.88129147
70.72141452
53.50699748
58.21141287
58.02832283
58.58670623
58.39749785
53.64969622
46.26110014
46.34790065
49.59886835
41.38030486
43.63968201
43.56899622
43.7839406
43.71131043
41.44043374
37.86565557
37.91170966
39.49231209
35.47019856
36.58557707
36.54319112
36.67231374
36.62860249
35.51062941
33.69715608
33.73385498
34.52949129
32.48505294
33.05899217
33.02333392
33.13158675
33.09506797
32.52018771
129.0799669
130.3192247
97.50171943
98.17994948
111.9886991
77.34352514
86.7946621
86.2805832
87.85367209
87.31889257
77.74066404
62.71771905
62.94290474
69.48389474
52.95682527
57.49608794
57.32381982
57.84816003
57.67082716
53.09145371
45.92454003
46.0071969
49.16999838
41.14747054
43.36220712
43.29480095
43.49922898
43.43033276
41.20461833
37.68743312
37.73116941
39.2904972
35.31408401
36.41953461
36.37933072
36.50141671
36.46021825
35.35233404
33.55473952
33.58972754
34.38031659
32.34800574
32.91875104
32.88461594
32.98808726
32.95323448
32.3817595
124.411568
125.5376815
94.92033076
95.5470503
108.5090266
75.82447125
84.79568062
84.31815149
85.77637484
85.28161736
76.19447906
61.84914063
62.06180396
68.32825589
52.43494421
56.82088468
56.65729651
57.15397102
56.98639915
52.56311198
45.60203896
45.68156251
48.76142082
40.92458712
43.09656492
43.03158685
43.22810315
43.1620541
40.97953151
37.51690104
37.55893696
39.09759146
35.16540243
36.26136163
36.22279076
36.33959357
36.30028661
35.20197413
33.41835292
33.45194899
34.23807155
32.21598313
32.78421654
32.75135434
32.85082928
32.81736905
32.24855363
120.1496382
121.1811039
92.52129267
93.10606666
105.3030259
74.40055795
82.9320789
82.48384825
83.84871898
83.38686494
74.74880276
61.02318713
61.22631093
67.23881673
51.93470829
56.17703344
56.01989481
56.49557159
56.33554411
52.05809326
45.28956495
45.36694536
48.36802054
40.70876899
42.83940878
42.77606511
42.96711117
42.90307459
40.76219533
37.35188716
37.39271977
38.91103253
35.02240561
36.10903162
36.07165896
36.18456825
36.14665947
35.0576969
33.28686191
33.31932659
34.10129119
32.08825842
32.65444386
32.62264574
32.71878438
32.68648416
32.11981518
116.2160147
117.1722911
90.26620321
90.81854876
102.3181324
73.05030771
81.17500817
80.74910997
82.04190997
81.60578639
73.38207987
60.22847394
60.42475272
66.19980383
51.44965324
55.55586912
55.40321337
55.86407905