/*--------------------------------*- C++ -*----------------------------------*\
| =========                 |                                                 |
| \\      /  F ield         | OpenFOAM: The Open Source CFD Toolbox           |
|  \\    /   O peration     | Version:  v2012                                 |
|   \\  /    A nd           | Website:  www.openfoam.com                      |
|    \\/     M anipulation  |                                                 |
\*---------------------------------------------------------------------------*/
FoamFile
{
    version     2.0;
    format      ascii;
    class       volScalarField;
    location    "3";
    object      p;
}
// * * * * * * * * * * * * * * * * * * * * * * * * * * * * * * * * * * * * * //

dimensions      [0 2 -2 0 0 0 0];


internalField   nonuniform List<scalar> 
3019
(
-757.2748523
-969.0922705
-1040.209552
-1023.676521
-976.9206031
-917.7632327
-836.6878149
-791.7106117
-733.8559586
-714.9832532
-702.2843944
-696.0884905
258.3795414
-400.8618193
-650.1453177
-751.4276475
-783.5416067
-775.123219
-735.2748303
-711.7128803
-671.2977332
-659.991835
-651.8277476
-647.9164258
221.6282985
-163.1991286
-408.4191915
-547.6883958
-619.0687603
-644.910268
-636.1062581
-631.3646341
-606.6706749
-602.1212159
-598.3511834
-596.6117692
164.3109007
-77.97915664
-273.548594
-408.5898131
-490.7869463
-533.8941873
-546.0275912
-554.874841
-542.8777189
-544.0036173
-544.081412
-544.1900531
117.6309491
-49.1362847
-198.020526
-313.4645623
-392.6706743
-442.754237
-466.8641418
-484.5729772
-482.2986527
-487.7761913
-490.8463256
-492.3387469
83.40582336
-39.26796046
-153.0953295
-246.6887074
-317.2603292
-368.2180365
-398.7731091
-421.578234
-426.2675532
-434.7149847
-439.9248045
-442.3802959
60.3081295
-33.59901674
-121.8113842
-198.2924086
-260.5203672
-308.8118878
-341.3267159
-366.231818
-375.3010818
-385.5291384
-392.093983
-395.2148076
46.87557798
-27.92911575
-99.11030561
-162.8298522
-216.8880278
-260.9156549
-293.0224317
-318.0340625
-329.5101535
-340.5852634
-347.865068
-351.3291387
37.25588068
-23.85377365
-82.42479317
-135.88892
-182.5613312
-221.8432711
-252.2293727
-276.1850703
-288.6983186
-299.9178447
-307.4157411
-310.9914049
29.99389326
-20.75759579
-69.59221579
-114.7493309
-154.9677892
-189.6484807
-217.530383
-239.8516904
-252.4663731
-263.3492377
-270.7158567
-274.2356023
24.39902228
-18.23769178
-59.35036808
-97.69822936
-132.3423359
-162.751547
-187.8677519
-208.2386732
-220.346611
-230.5913314
-237.598318
-240.9505196
20.01411811
-16.08480967
-50.92838922
-83.6207298
-113.4585086
-139.9934642
-162.325277
-180.6408514
-191.873879
-201.3072227
-207.8138727
-210.9289934
16.52446577
-14.1858509
-43.83743021
-71.77105372
-97.4537248
-120.5156109
-140.1717555
-156.4492391
-166.605465
-175.1428448
-181.0712637
-183.910355
13.7061182
-12.47619648
-37.75323678
-61.63250525
-83.70503468
-103.6687509
-120.817373
-135.1431813
-144.1303227
-151.7467867
-157.0638337
-159.609875
11.39775873
-10.91700319
-32.45300626
-52.83776132
-71.75418922
-88.95669269
-103.788217
-116.2828062
-124.073066
-130.7814244
-135.4838358
-137.7345711
9.480329283
-9.482984284
-27.77637578
-45.11543571
-61.25270805
-75.98942148
-88.69357493
-99.48959757
-106.0945694
-111.9294457
-116.0322605
-117.9945021
7.864524732
-8.15661047
-23.60437448
-38.2600902
-51.93041098
-64.45630632
-75.21081159
-84.43991878
-89.89059272
-94.89779368
-98.42608142
-100.111604
6.481813466
-6.92455001
-19.84475838
-32.11009642
-43.56993015
-54.0999296
-63.06917746
-70.85294125
-75.18816218
-79.41716108
-82.40053803
-83.82348243
5.278446159
-5.776084841
-16.42391143
-26.53557517
-35.99397944
-44.69284085
-52.0389703
-58.48287738
-61.73616289
-65.23740557
-67.70597357
-68.8803148
4.210416826
-4.702161363
-13.2811923
-21.42992227
-29.06041122
-36.08229939
-41.89522128
-47.1076447
-49.32515234
-52.14242316
-54.12493772
-55.06544421
3.240092863
-3.694394406
-10.36376389
-16.70015192
-22.64418257
-28.14449579
-32.45109781
-36.52709668
-37.69144089
-39.87783271
-41.39542621
-42.10799661
2.334905815
-2.744588218
-7.624400349
-12.2622414
-16.62405644
-20.67836893
-23.58251323
-26.53767503
-26.88361995
-28.42787236
-29.50362179
-30.01445649
1.466706071
-1.84404607
-5.0194614
-8.039367234
-10.89108463
-13.56617214
-15.12456939
-17.06042308
-16.02490439
-16.95165089
-17.58542489
-17.83212651
0.6149180954
-0.9813241817
-2.507000235
-3.961429548
-5.345657047
-6.668923787
-6.852089708
-7.7351741
-7.785495462
-8.240514849
-8.539060523
-8.757069678
-811.1077055
-851.1597793
-1082.328899
346.5678584
-763.835662
208.8217323
-411.4201973
-973.8755114
332.7345424
358.7689953
-997.5514651
-30.78242759
-106.6784274
-161.89791
-478.3422172
-856.4486695
-1159.314318
-450.1985886
-1208.848262
-1210.071912
-1240.631001
-358.7704586
234.4973578
-110.8731339
-297.9910218
-901.4829106
-1153.524305
-1161.985635
-126.5254778
-372.9204034
-89.70143147
391.1440995
-1405.317808
-1410.042363
399.3667685
163.2219468
-1169.735385
-995.3873077
-1008.202696
-998.6312911
-1171.999687
-779.789774
-950.3755502
-543.1828222
-568.3899063
-730.7249488
-358.8913485
-515.4473317
-443.7577568
-1182.545488
-1363.567588
-1391.76108
-1182.575312
-1102.367597
-1166.196647
-959.8261297
-948.2597194
-785.3967538
-1528.41509
-1517.565576
-1408.77377
-1400.611575
-780.5546193
-795.4750619
-618.2625615
-623.8779429
-723.1732132
-160.8512274
-306.8001186
-1531.660354
-1400.095216
-1478.608838
-1014.8592
-1011.297871
-999.9832892
-1115.07322
-818.248559
-797.8783303
-784.2114322
-940.2461957
-882.1360866
-880.6136785
-549.171118
-604.6925024
-601.688032
-423.8739047
-429.9041063
-477.2443342
-1328.03108
-1331.65546
-1386.425917
-1196.866376
-1259.342597
-1267.887729
-1158.101475
-1116.781441
-1100.08735
-1046.529405
-1028.087612
-971.8525626
-485.0530021
-583.3014764
-819.9369325
-508.1908617
-695.8319968
-1033.366401
-733.3539452
-801.2641628
-1031.996105
-813.5940122
-830.3390556
-990.1487512
-828.9775111
-817.199444
-933.1007978
295.0835317
43.15058577
-69.72166374
-202.2646467
-406.4764596
-606.4724186
-456.3997592
-566.1910683
-734.5147806
-592.0824056
-645.6364745
-779.8475996
-656.6254802
-674.1254226
-779.8145446
242.7736344
316.1588057
178.9723225
-28.42965984
-79.4818186
-91.58689036
-255.1154032
-359.1024912
-300.509562
-409.7538389
-520.3328487
-438.218043
-503.7661884
-606.3177893
-519.6272525
-552.2802228
-641.489691
170.9741089
221.2318017
128.0755885
-9.459739018
-20.43956289
-53.67557564
-176.5635425
-230.3006885
-213.0956017
-307.6646202
-380.3538838
-334.132152
-398.4664634
-474.4812969
-415.082615
-453.8089909
-525.5567738
121.9869662
157.0728073
90.90945212
-8.382973252
-8.484319389
-40.94268014
-133.970078
-163.6072635
-162.5801455
-239.2252298
-288.0297748
-261.4366992
-318.1432468
-376.1232213
-334.0864725
-374.0995577
-432.2179365
88.60830601
112.2467804
65.05675861
-10.25461934
-8.870755675
-35.0601957
-106.4770535
-126.2160524
-128.8079768
-190.3666563
-225.5353396
-208.9593694
-258.7087292
-301.603958
-273.2947097
-311.3545073
-357.003195
68.81381231
82.49571593
49.70810674
-9.678071551
-10.26561974
-29.19183474
-86.01418576
-100.6950902
-104.1077616
-155.0367893
-180.4598323
-170.7598843
-213.8361392
-246.3302049
-226.8001989
-261.5413859
-297.8459676
55.1717892
65.11456989
39.40319052
-8.863477884
-9.419582794
-24.75911989
-71.24652441
-81.88893487
-86.17015683
-128.6811751
-147.7509376
-141.9953014
-179.068388
-204.3332394
-190.4272452
-221.4287235
-250.7231373
44.83678171
52.32559645
31.6311549
-8.302592517
-8.710950682
-21.46620002
-60.06321412
-68.17485626
-72.51869629
-108.2841581
-123.1105655
-119.5964649
-151.4562223
-171.5850672
-161.3421137
-188.6856921
-212.6448667
36.83437362
42.64797326
25.66945306
-7.793675105
-8.174497496
-18.82723586
-51.22569241
-57.66898443
-61.71608812
-92.00156578
-103.8824697
-101.6463085
-129.0318131
-145.4248653
-137.6072213
-161.5590093
-181.4471901
30.50657937
35.11550315
21.0159363
-7.270497004
-7.665346449
-16.59587142
-44.00050868
-49.28956298
-52.89343028
-78.66142812
-88.42615367
-86.9067658
-110.4569272
-124.0691685
-117.8805279
-138.7651061
-155.5073863
25.41560893
29.13160372
17.32643987
-6.717573844
-7.135104626
-14.64088098
-37.93523236
-42.38899441
-45.50522017
-67.49566838
-75.68990679
-74.55590629
-94.80735196
-106.299717
-101.2222934
-119.3657526
-133.6377582
21.25722733
24.29830144
14.3574266
-6.138381313
-6.574907479
-12.88827286
-32.73702256
-36.563387
-39.19333693
-57.98199832
-64.97882955
-64.02870098
-81.42686735
-91.27068575
-86.95781505
-102.66335
-114.9692206
17.81426458
20.33653036
11.93413371
-5.542646058
-5.99057488
-11.29424157
-28.2089179
-31.54840804
-33.71416533
-49.75525187
-55.81645289
-54.92661052
-69.84014732
-78.37767874
-74.59388558
-88.13281209
-98.85256951
14.92564865
17.04546073
9.928372973
-4.940827126
-5.392367714
-9.830835303
-24.2118453
-27.16435531
-28.89422343
-42.54987444
-47.86685726
-46.95776344
-59.69122141
-67.17997927
-63.75822015
-75.36758217
-84.79663971
12.46946438
14.27509198
8.244248441
-4.342234614
-4.790528774
-8.478897761
-20.64378541
-23.28288935
-24.60548817
-36.1667737
-40.88349864
-39.90211755
-50.70674943
-57.34496541
-54.16305527
-64.04679103
-72.4187404
10.351525
11.91146403
6.808775685
-3.754489853
-4.194022539
-7.224338066
-17.4271989
-19.80932529
-20.75027836
-30.45223641
-34.68072505
-33.58901573
-42.67128837
-48.61638569
-45.58015375
-53.91074312
-61.41616983
8.497497983
9.865849452
5.564997987
-3.183445378
-3.609961865
-6.055871416
-14.50043083
-16.67046863
-17.25082485
-25.28312417
-29.11309016
-27.88135465
-35.40956855
-40.78941307
-37.82262496
-44.73909175
-51.53988387
6.846748977
8.067914938
4.46688511
-2.63372221
-3.04385876
-4.964117414
-11.81325051
-13.80796376
-14.04379062
-20.5592159
-24.06396766
-22.66762785
-28.78010879
-33.69788231
-30.74049612
-36.36164466
-42.57922643
5.347475868
6.459603505
3.475366483
-2.108723167
-2.500043315
-3.940570514
-9.322295383
-11.17369612
-11.07463543
-16.19440056
-19.43749329
-17.85204482
-22.66199747
-27.20715841
-24.20644033
-28.64240215
-34.37768029
3.954711881
4.990938028
2.556720614
-1.61068222
-1.981627608
-2.977067208
-6.989008898
-8.725630858
-8.294991271
-12.11190889
-15.15017156
-13.34868801
-16.94223595
-21.19902174
-18.09808543
-21.42419881
-26.79944501
2.628941652
3.618417619
1.681616568
-1.140390406
-1.490510089
-2.065055766
-4.777653178
-6.42607963
-5.660323877
-8.241433899
-11.12701444
-9.078788959
-11.51672443
-15.56209262
-12.30292473
-14.57279029
-19.68383174
1.337218904
2.303970135
0.8255288857
-0.6973394541
-1.027088806
-1.195573008
-2.655068592
-4.239931973
-3.129820621
-4.519888586
-7.299398442
-4.971891854
-6.292602044
-10.19522495
-6.720483766
-7.964683461
-12.90400558
-0.1216290511
1.019530866
-0.2255896428
-0.4839666234
-0.5881526048
-0.5663991948
-0.8159712472
-2.13249006
-0.8999017837
-1.152338018
-3.604274798
-1.23651884
-1.489703747
-5.006453092
-1.575160121
-1.862688488
-6.334733187
-860.6371836
-853.3095926
-803.2418902
-867.4596227
-958.4207079
-946.409315
-1426.204407
-1442.220809
-1022.222589
215.2146272
469.5725832
-736.993277
-579.5371758
-641.6649652
83.39128877
8.360411626
144.1101511
-613.6063478
-446.3368245
-208.1372911
-891.7379212
-544.8279816
-694.0853484
377.0540124
411.0578218
-1143.571965
-1159.358837
-918.6138162
-1242.9828
-1256.518165
-1509.980021
-1503.9738
30.7283263
105.8648506
39.68753629
-186.8087213
-133.6914029
-49.18470379
-304.4655683
-513.3427598
-399.3006891
-594.6936128
-532.6080566
-403.8860975
-842.5562117
-671.6708987
-721.2449347
-1158.030371
-1110.070067
-1110.51703
-316.3707637
-378.6877311
-368.5948774
-545.4094614
-530.2144267
-383.8924771
-1261.894306
-1260.476334
-1204.909165
-1237.363379
-1331.611788
-1359.742933
-1328.286427
-1329.587121
-1238.538868
-1420.626669
-1416.566211
-318.0152597
-224.3697199
-271.0645668
-211.8287649
-259.2405077
11.43079164
-116.4803678
110.3692077
102.7234577
292.8121536
-153.9446223
-36.87539302
-6.181408789
-153.8730699
-87.52480937
-213.6227
-984.2056593
-971.2852712
-884.3955637
-1148.403085
-1059.263924
-1068.178829
-1042.424376
-1050.253787
-1142.930197
-196.0097053
-100.9874816
-28.67448385
-289.6947431
-188.4319595
-278.7226532
95.47407622
-85.25883014
-195.1327974
404.0831027
519.6254313
491.3939559
-1462.503632
-1464.956892
-1407.44556
176.6872267
96.17304234
315.4319379
249.8185922
330.2774697
104.2899273
174.9747026
237.3047754
-1112.795292
-1110.562926
-1159.193297
-998.8665609
-1051.232909
-1039.843174
-1060.228193
-1056.423796
-1003.279536
-617.5320372
-606.1289689
-557.5572968
-726.9173405
-652.7127029
-671.0154463
-410.6768527
-393.5953032
-338.3453238
-499.2134024
-445.1982666
-462.2891687
-1370.68047
-1321.565484
-1315.506062
-1168.083197
-1348.683437
-1418.362607
-1307.00647
-1330.675878
-1170.703018
-954.6224055
-903.5568135
-909.4447502
-888.8662505
-897.2327871
-950.1937497
-794.0026555
-843.850254
-832.9088637
-1406.537954
-1455.72216
-1459.788986
-1449.453918
-1452.24564
-1405.528639
-1498.940617
-1496.244283
-111.0689988
-163.7209409
-210.5158352
-186.5123252
-136.646348
-283.873249
-233.385828
-255.7481222
-953.0540528
-920.3195262
-885.8028884
-855.6415516
-829.1493234
-807.7948047
-664.9778221
-689.8763803
-777.8061604
-795.0587589
-843.707305
-999.1339215
-928.5332548
-940.9187956
-1040.758417
-950.2413921
-946.8265181
-1013.680109
-926.2981923
-916.6034074
-962.9213721
-810.020114
-803.4109206
-862.0796833
-786.1796804
-768.5457887
-813.0231525
-752.2130682
-739.7507086
-773.3066947
283.1990751
167.6273061
134.3974323
-316.8454465
-401.8433773
-484.8560922
-576.4111064
-615.3329028
-684.9197345
-693.8146028
-710.2167604
-764.0763802
-738.7930569
-742.643932
-783.7695354
-675.4521005
-689.5193729
-745.7574159
-684.8853769
-678.2231527
-723.2956985
-671.0150407
-664.7642075
-701.1844757
209.0025832
114.4092926
114.2491495
-132.78538
-202.0066776
-237.4957649
-367.2054924
-409.5460857
-451.2020299
-507.4239966
-531.6473925
-570.8680317
-583.6807123
-595.0032053
-628.9809877
-559.3870167
-585.3146588
-635.7537066
-589.7194848
-591.8647634
-634.2518818
-592.1789068
-591.5935777
-627.7477699
151.2386482
94.3904562
100.5068224
-67.57647055
-117.8277378
-132.4168513
-250.353665
-288.0576494
-312.969526
-381.6200745
-406.4127513
-433.5592835
-463.8863408
-477.9683424
-504.520112
-463.7397387
-495.0107766
-538.4443591
-505.0599421
-512.9632951
-551.3733442
-518.5669897
-522.3445979
-556.6728074
107.9852712
69.10326974
75.22532267
-45.61072941
-82.63405092
-88.94400798
-184.7843281
-215.2824346
-230.2809495
-294.6312172
-316.9041083
-336.6082428
-371.6625222
-386.4419516
-407.41293
-385.0486764
-418.0139575
-454.8803752
-431.4274645
-442.8847387
-476.8165037
-451.8100189
-458.5783695
-490.0262881
76.60027853
47.69138853
52.43568014
-37.79963871
-65.69477202
-69.1324136
-144.408623
-168.5044877
-178.6766784
-233.0587234
-252.017739
-266.3633803
-301.5791881
-315.7616122
-331.672444
-322.2089343
-353.7720274
-384.3839545
-368.8048283
-381.977379
-411.316921
-392.6965183
-401.1945952
-429.3467164
56.23834195
33.8296088
36.48202926
-32.08261563
-53.61643588
-56.50339119
-115.3994227
-134.7714141
-142.1800868
-188.423876
-204.7059703
-215.2204401
-248.5578783
-261.5234992
-273.8199841
-271.6850628
-300.7016727
-325.9616936
-316.1373559
-329.6548346
-354.8242178
-341.0365476
-350.3130607
-375.2087126
44.21035209
26.24798641
27.91873946
-26.78448448
-44.17454609
-46.23945794
-94.48038053
-110.4565708
-115.8567721
-155.4244412
-169.3295091
-177.2967123
-207.5511935
-219.1059276
-228.7998991
-230.6215673
-256.9277828
-277.7518237
-271.7930752
-284.8386181
-306.3962252
-296.1362658
-305.5116588
-327.4631868
35.2529388
20.56422246
21.83890142
-23.00813638
-37.31154553
-38.85136392
-78.91567435
-92.2357319
-96.35160802
-130.1397813
-142.011625
-148.2379539
-175.1112972
-185.2738409
-193.0636287
-196.9111636
-220.4417546
-237.8943572
-234.1881428
-246.3989334
-264.9029202
-257.1707435
-266.2170176
-285.4930502
28.45996081
16.24498162
17.21847858
-20.0840817
-32.0113787
-33.22584087
-66.82531576
-78.030097
-81.28363206
-110.154832
-120.3070947
-125.3047066
-148.9010962
-157.7789782
-164.1548174
-168.8418998
-189.6704772
-204.4162702
-202.1333713
-213.3225798
-229.2622602
-223.3126527
-231.7820681
-248.7015004
23.20360862
12.92942425
13.67982802
-17.67064798
-27.71478847
-28.71503114
-57.09707691
-66.58655584
-69.23720669
-93.93426879
-102.6317994
-106.7372936
-127.3094034
-135.034055
-140.3427757
-145.1655984
-163.4878494
-176.0668479
-174.6326494
-184.7220436
-198.5245575
-193.8086985
-201.5703152
-216.4399007
19.06782245
10.35862173
10.94266355
-15.58938748
-24.10370151
-24.95408966
-49.04574463
-57.11999574
-59.33258702
-80.47281827
-87.93333419
-91.37240044
-109.2150931
-115.916776
-120.4041952
-124.9584854
-141.0006906
-151.8292182
-150.8661748
-159.8548114
-171.873534
-168.0019288
-175.0023199
-188.1007797
15.76415949
8.346307791
8.805181764
-13.74253403
-20.98811275
-21.72797145
-42.23210108
-49.12012813
-51.00362285
-69.09246801
-75.49358661
-78.42228665
-93.82528304
-99.62357154
-103.4673753
-107.5252348
-121.5171197
-130.9204307
-130.1779167
-138.1074913
-148.635033
-145.328659
-151.5625531
-163.1385484
13.08647897
6.756246262
7.120150324
-12.07345213
-18.24812148
-18.90272202
-36.3618149
-42.24124667
-43.8704016
-59.3198029
-64.80620574
-67.33556018
-80.56392779
-85.56448939
-88.89587588
-92.33712815
-104.4940554
-112.7268453
-112.0396346
-118.9738368
-128.2505837
-125.3103801
-130.8008201
-141.0715294
10.88568106
5.487801095
5.779285629
-10.54755099
-15.8044902
-16.39096354
-31.2306289
-36.24141288
-37.66951569
-50.81563178
-55.50550734
-57.71693851
-69.00461435
-73.2990216
-76.21727671
-78.98089192
-89.49907944
-96.76648226
-96.0217052
-102.0328007
-110.2607567
-107.5391141
-112.3244197
-121.4821812
9.051091997
4.464746983
4.70093
-9.141876102
-13.60152755
-14.13210991
-26.69006112
-30.94365931
-32.21010117
-43.32728804
-47.31730851
-49.27236448
-58.82083312
-62.48733218
-65.06949888
-67.12814131
-76.18160838
-82.64973788
-81.76968941
-86.93058061
-94.27890567
-91.66543793
-95.7905717
-104.0030338
7.499304008
3.628946444
3.823001596
-7.840200874
-11.59844455
-12.08233495
-22.62894423
-26.21488245
-27.34985
-36.66199683
-40.03129908
-41.77799549
-49.75762397
-52.86234211
-55.16997708
-56.5114391
-64.25382652
-70.05980706
-68.98849815
-73.36771998
-79.98029528
-77.38844224
-80.89935347
-88.31480149
6.165983371
2.935165801
3.097401225
-6.629941831
-9.763515436
-10.20799299
-18.96024912
-21.95060093
-22.9780748
-30.66687093
-33.47994551
-35.0568906
-41.60828178
-44.20584346
-46.28975629
-46.89797952
-53.48195163
-58.73497781
-57.42935521
-61.08611908
-67.08754762
-64.44572695
-67.3871592
-74.13554075
5.000319509
2.347473352
2.486168603
-5.500946186
-8.071369931
-8.482253555
-15.61432881
-18.0671227
-19.00632418
-25.21901395
-27.52839213
-28.96650715
-34.20535439
-36.34021684
-38.24060572
-38.12117422
-43.69506851
-48.48056129
-46.8703835
-49.85860102
-55.35987617
-52.60414326
-55.01498924
-61.22014785
3.960036325
1.836040951
1.958202796
-4.444336385
-6.500421477
-6.88287552
-12.53264899
-14.49419659
-15.36178239
-20.21567492
-22.06420379
-23.39012964
-27.41268147
-29.12405874
-30.8741364
-30.04510823
-34.63957636
-39.0925883
-37.09527484
-39.47982653
-44.58010736
-41.65852931
-43.58992646
-49.33181372
3.008875446
1.375524351
1.487115642
-3.451833786
-5.031393337
-5.390078852
-9.663991811
-11.17039153
-11.98107575
-15.56644683
-16.98797027
-18.22574835
-21.10650085
-22.42679337
-24.05989469
-22.47447984
-26.0981799
-30.30069479
-27.95527907
-29.76678804
-34.55576873
-31.38564066
-32.83892914
-38.32159656
2.115385595
0.9443504188
1.050439529
-2.515185755
-3.646366081
-3.985714368
-6.962195604
-8.040405977
-8.807589946
-11.1892033
-12.20869267
-13.3803405
-15.16793499
-16.11873449
-17.66547497
-15.28947875
-18.02749133
-22.01440093
-19.31664359
-20.57553423
-25.11755888
-21.69662897
-22.6650177
-27.80067439
1.252633805
0.5245633372
0.6292799846
-1.625522474
-2.327726766
-2.652108958
-4.384460322
-5.053301045
-5.789270917
-7.009040175
-7.643558725
-8.768919535
-9.490951396
-10.08680871
-11.57472283
-8.357450859
-10.29543009
-14.10694894
-11.04381649
-11.76145594
-16.11713815
-12.39592866
-13.06418527
-17.82615338
0.3898545389
0.09245694307
0.210570698
-0.7806722096
-1.064958401
-1.36979375
-1.897718838
-2.169093859
-2.877079978
-2.965590007
-3.225260581
-4.314236975
-3.986411281
-4.234090899
-5.680034554
-1.978405618
-3.385304152
-6.383005395
-3.657631135
-3.920404517
-7.309464714
-4.238590664
-4.645112754
-8.100537134
-1194.547805
-1184.256245
-1066.002903
298.4105202
394.9235027
428.8934047
-755.9644619
-710.0641455
-713.9598719
-952.6780317
-846.0095509
-875.3955382
-1408.164016
-1407.386082
-215.2788682
-286.6319696
-237.8191453
-1211.016094
-1261.832209
-1261.430821
84.86346183
33.61359199
-1115.501486
-1113.149208
-1164.135057
-21.17795135
-78.49751802
-148.8006844
171.861127
124.7618087
-1146.254562
-1256.679517
-1282.420543
-1204.347838
-1230.427525
-1132.113126
-1082.573251
-1152.839321
-1178.378142
-1103.41546
-1127.906061
-1064.756483
-1009.469716
-1055.972328
-1079.449812
-1010.221301
-1032.909533
-990.7134452
-520.1453461
-603.6994413
-573.8835444
-659.8053819
-632.3483495
-552.4975647
-798.7003383
-714.5055071
-739.1447609
-586.1087361
-705.3968598
-639.589265
-796.9892471
-758.401893
-648.2486723
-1020.891515
-882.9345986
-909.7118766
-762.4693421
-847.8585469
-826.1706637
-873.5818169
-863.2408607
-784.6101428
-1037.273492
-948.3674506
-951.497666
-822.0521912
-884.2829005
-880.3314493
-880.8750351
-883.4224216
-827.2802814
-1002.521648
-941.7765941
-934.7100618
-826.7235002
-871.1381402
-876.9277717
-855.388333
-863.8945584
-822.7592818
-948.2808949
-905.8422687
-894.1293286
201.6548891
188.6239401
293.0355742
25.72105679
64.60115734
-27.21974238
-281.0532311
-334.8349836
-252.2616828
-462.5902914
-404.2282302
-348.5869922
-552.7028853
-471.6501179
-528.8393128
-498.9651058
-553.4678585
-512.1202962
-616.9943224
-588.0851977
-535.2749718
-712.6391312
-647.1081764
-673.0522414
-613.6529394
-660.0273225
-640.7542756
-687.479652
-675.4879596
-631.3992207
-773.3939619
-722.8196484
-732.1718059
-664.7979412
-702.750863
-696.4230085
-708.1791502
-706.5480365
-670.5973131
-782.669882
-743.9644364
-743.3741863
266.122602
288.3267758
106.3449428
111.332401
194.5314753
-40.00101378
34.35524511
38.49823649
13.3804146
26.37484041
-56.50838171
-150.6105478
-173.4130408
-109.4148311
-284.5074759
-231.7926648
-205.1486442
-302.5550649
-264.0401984
-318.9280063
-341.2574304
-373.2121978
-331.5743886
-442.5184263
-410.0291968
-377.562084
-488.3025274
-446.724994
-479.242134
-463.2522028
-495.8639632
-471.0417621
-535.3855119
-517.2323492
-485.0377925
-590.3110415
-552.2522393
-569.5204901
-532.8150183
-562.943727
-550.545272
-580.5087338
-572.7745739
-543.5279938
-636.3668901
-603.7334873
-610.2450945
186.1111948
202.6347262
81.55188063
88.00837096
139.2816789
-11.49670469
38.59530947
36.33926978
39.96015774
40.05150788
-14.97215792
-96.62613728
-106.0913327
-59.66143848
-191.6704822
-150.1821514
-137.6733643
-183.2517308
-165.1810248
-209.3890795
-247.1521092
-266.2644482
-230.3884472
-329.4836275
-299.2929308
-278.6792609
-348.5490267
-322.5082227
-353.6958837
-358.0678204
-381.3438571
-356.8482106
-422.1509694
-403.0621937
-379.4969993
-455.4524226
-428.2623479
-447.3666141
-429.6551878
-453.0984165
-438.7611446
-476.4221458
-465.5366971
-442.4792219
-515.9363456
-489.9529843
-500.2765853
132.6767171
144.3437985
57.63763049
63.22575058
99.09820055
-7.582121913
27.96843723
24.81985506
33.74384869
30.94733361
-7.891481642
-72.96246732
-77.38287036
-42.90242039
-142.6198162
-110.6575222
-104.029659
-127.1779471
-118.2848442
-152.4049264
-189.7273572
-201.8528328
-173.0639126
-254.0665475
-228.8798916
-215.3031241
-260.3004952
-243.7971986
-270.2580309
-281.9223489
-298.7415435
-277.3634606
-335.9827516
-318.2248216
-300.778728
-357.4799187
-337.0864938
-355.2687831
-348.680436
-366.8889663
-352.1701505
-392.2910072
-380.2201669
-361.9871981
-420.5256104
-399.7240197
-411.6429782
95.58236644
103.4515442
39.68745751
43.43133467
70.48644214
-9.946964041
16.84656314
14.80636222
21.90722019
19.23697515
-9.437389639
-59.48552634
-62.51635983
-36.43575648
-112.6193446
-87.95717656
-83.33252613
-98.16667761
-92.86081306
-119.1535822
-150.2578077
-159.048662
-136.3529277
-201.1325477
-180.6429058
-170.7899013
-202.8514244
-191.3358509
-212.8469936
-226.5500964
-238.7820937
-220.5147627
-271.9856078
-255.9353421
-243.1319012
-284.6534542
-269.7409249
-286.2515467
-286.912616
-300.8675108
-286.9531749
-325.6953947
-313.7581785
-299.5866447
-344.8873823
-328.8381186
-340.8736431
72.72503207
77.21868426
29.69632966
31.63831442
52.7811093
-9.990826136
10.90199419
10.07595542
13.14646715
11.86084632
-10.2606941
-48.48852793
-50.94419208
-30.58801057
-90.49143702
-70.94095855
-67.45214408
-78.89672412
-74.74616031
-95.36942272
-121.6744096
-127.959405
-109.5188046
-162.8734785
-145.7588317
-138.6643171
-161.744369
-153.4281324
-171.3237339
-185.8103793
-194.92595
-179.2701893
-223.9631431
-209.8259067
-200.1721477
-231.2331953
-220.1569832
-234.7728517
-239.0682338
-249.9588204
-237.3384116
-272.9925324
-261.833417
-250.6477566
-286.2461322
-273.6838358
-285.0564221
58.23713981
61.55955438
23.20526137
24.67409525
41.71630903
-9.028822666
7.855692781
7.195017588
9.303430174
8.561304589
-9.210666464
-40.49881506
-42.26786582
-25.73284828
-74.53775814
-58.55098069
-56.00782752
-64.24523788
-61.28814965
-78.07506241
-100.739877
-105.4303271
-90.17854308
-134.6187377
-120.2548597
-114.9205921
-132.0830153
-125.962051
-140.961103
-154.8418474
-161.8592117
-148.4941522
-186.9943985
-174.6967288
-167.2037824
-191.1346881
-182.6591646
-195.4017902
-201.2754381
-209.9440749
-198.7447539
-230.6984822
-220.5916549
-211.612203
-240.0723789
-230.0687687
-240.4318856
47.17110796
49.66371057
18.25931434
19.37289666
33.38114172
-8.433260245
5.472625184
4.975920066
6.57990886
6.006716739
-8.568499864
-34.50863597
-35.86754033
-22.21453685
-62.6016888
-49.33965257
-47.38319582
-53.63691409
-51.41941573
-65.29963738
-84.72345423
-88.36745219
-75.62056487
-112.9398114
-100.8154922
-96.65294258
-109.9231772
-105.2304283
-117.8729143
-130.5722795
-136.1327856
-124.7184084
-157.8088109
-147.1671688
-141.196378
-160.140959
-153.4721657
-164.5085189
-170.8465239
-177.8778249
-168.0481529
-196.2988664
-187.2925201
-179.9647664
-203.0884765
-194.9929177
-204.2582544
38.65704768
40.5917745
14.47998279
15.33367648
27.02092934
-7.920900936
3.692325485
3.326409697
4.515019119
4.087865221
-8.047592715
-29.76145158
-30.85853447
-19.44174377
-53.2613084
-42.13861846
-40.56729907
-45.53778464
-43.79270452
-55.40559834
-72.02025702
-74.94702489
-64.20407521
-95.7590261
-85.47137616
-82.12098401
-92.7207997
-88.99942444
-99.71368288
-111.0411803
-115.5588278
-105.7931402
-134.2331798
-125.0426806
-120.1733909
-135.5339623
-130.1564423
-139.690968
-145.8917845
-151.6979582
-143.1209482
-167.9029704
-159.9574474
-153.8796387
-172.9796575
-166.3191187
-174.509875
31.95825003
33.49257354
11.56392941
12.22515744
22.07751606
-7.403945124
2.388533881
2.123628066
2.988301204
2.676246964
-7.535524002
-25.83751705
-26.75669075
-17.12393594
-45.68374122
-36.28166943
-34.97707303
-39.07153387
-37.64492558
-47.44473428
-61.6427583
-64.05790357
-54.94721184
-81.76763447
-73.00243924
-70.23615871
-78.93427546
-75.89863975
-85.01907752
-94.96123742
-98.71035357
-90.34082306
-114.7956527
-106.8652482
-102.814437
-115.5311727
-111.100098
-119.3288753
-125.0779408
-129.9501246
-122.4931474
-144.123945
-137.1597498
-132.0432568
-148.0635908
-142.4968579
-149.6861498
26.59079575
27.82798735
9.292155968
9.809238692
18.17312508
-6.858569886
1.450888288
1.262845165
1.879981161
1.656181237
-6.997776173
-22.49267205
-23.28393982
-15.10842172
-39.36082126
-31.37182783
-30.26094831
-33.72649246
-32.52594088
-40.84399956
-52.96132153
-54.99826079
-47.23974723
-70.11502645
-62.62660778
-60.29449647
-67.59019624
-65.05621512
-72.84390248
-81.46674016
-84.63437851
-77.45395867
-98.48501459
-91.64746524
-88.21982951
-98.93506504
-95.21612189
-102.3125708
-107.4581717
-111.6048888
-105.1397614
-123.9482567
-117.8740268
-113.5094924
-127.1301347
-122.4118796
-128.6894254
22.22250108
23.23509843
7.505437479
7.913653425
15.04270094
-6.285162509
0.7907189488
0.6605373773
1.090861355
0.9338316042
-6.430717494
-19.57677768
-20.27153896
-13.3102315
-33.96737962
-27.16008071
-26.19566009
-29.19040064
-28.15757288
-35.24182572
-45.55745646
-47.30621017
-40.68531609
-60.22775316
-53.82280986
-51.82263414
-58.05357274
-55.8981053
-62.55814997
-69.95614803
-72.6737515
-66.51373827
-84.58797412
-78.70074417
-75.75767558
-84.92464312
-81.75404717
-87.86675816
-92.34490838
-95.9187981
-90.32930281
-106.6258624
-101.3507591
-97.58324274
-109.3055915
-105.2564099
-110.7138017
18.61753746
19.45749067
6.087084727
6.412333006
12.49645353
-5.692543673
0.3388739144
0.2519355162
0.5424026475
0.4354453009
-5.841905626
-16.99316471
-17.61192224
-11.67960092
-29.28649322
-23.48302533
-22.63338369
-25.2625792
-24.3589175
-30.39896975
-39.14373445
-40.66670685
-35.01631275
-51.70716891
-46.23220404
-44.49252126
-49.89361387
-48.03139652
-53.72625219
-60.00142193
-62.36305946
-57.08595168
-72.58981032
-67.53285057
-64.97434908
-72.91931503
-70.17949435
-75.43386496
-79.23078084
-82.34476776
-77.5288085
-91.59310892
-87.03269992
-83.74655664
-93.94486136
-90.43095629
-95.15439929
15.60303588
16.30903033
4.949604396
5.211576215
10.3963644
-5.09131372
0.04211117296
-0.01287483705
0.1739247426
0.1041850761
-5.241873049
-14.67576831
-15.2329899
-10.18558826
-25.16739285
-20.22854637
-19.47094914
-21.80860554
-21.00739304
-26.15105369
-33.51398241
-34.85699413
-30.0450041
-44.2672428
-39.59919291
-38.06722711
-42.8091125
-41.17894082
-46.038575
-51.28680708
-53.36332559
-48.85673099
-62.10974168
-57.78249716
-55.53271981
-62.49933632
-60.10341372
-64.60460996
-67.7296802
-70.47136617