/*--------------------------------*- C++ -*----------------------------------*\
| =========                 |                                                 |
| \\      /  F ield         | OpenFOAM: The Open Source CFD Toolbox           |
|  \\    /   O peration     | Version:  v2012                                 |
|   \\  /    A nd           | Website:  www.openfoam.com                      |
|    \\/     M anipulation  |                                                 |
\*---------------------------------------------------------------------------*/
FoamFile
{
    version     2.0;
    format      ascii;
    class       surfaceScalarField;
    location    "3";
    object      phi;
}
// * * * * * * * * * * * * * * * * * * * * * * * * * * * * * * * * * * * * * //

dimensions      [0 3 -1 0 0 0 0];
oriented        oriented;


internalField   nonuniform List<scalar> 
5975
(
-0.05816645478
0.006489289327
0.05767434562
-0.01263185921
0.006634679046
0.01608878415
-0.1239346086
0.2443358726
-0.0283033242
0.0156986135
-0.1238853374
-0.2456848501
0.01995663131
0.2432138495
-0.01734806149
-0.2387213852
0.01365778829
0.2380701453
-0.01275314638
-0.235245035
0.01126234414
0.2351215511
-0.01091550886
0.009791393352
-0.2353355582
0.2348762352
-0.009280959948
-0.4673129976
0.01507960243
0.4651254945
-0.01289209929
-0.4637314409
0.01119742562
0.462171676
-0.009637660671
-0.01305817849
0.9137392037
0.00877999335
0.00832402725
-0.00839967399
0.9072775422
-0.004128191806
0.9052310188
0.9041549585
-0.1119694651
0.00879822368
0.1118750021
-0.0172564337
0.00855267306
0.02780764411
-0.2374459748
0.2354808086
-0.02583628525
-0.2382981073
0.01679783402
0.23753814
-0.01585608004
-0.2371373897
0.01411866367
0.2373046181
-0.01402772714
-0.234717729
0.01234723399
0.2346882973
-0.01213453993
0.01043664297
-0.2333177751
0.2326666482
-0.009778003496
-0.4631935963
0.01592441302
0.4614617473
-0.01419256401
-0.4605972114
0.0125210178
0.4587904462
-0.01071425259
-0.01259839646
0.9088413449
0.008683470578
0.008812784767
-0.009150974257
0.90383012
-0.004475627234
0.9005556717
0.8996793313
-0.2262927393
0.01967959961
0.2268834061
-0.02027026639
-0.2325111099
0.02026733104
0.232311838
-0.01999530859
-0.2357571353
0.01873014743
0.2355208195
-0.01827207013
-0.2355811372
0.01692993737
0.2353854001
-0.01646961852
-0.2329662288
0.01486502451
0.2325919947
-0.01435340151
0.01185850642
-0.2319392514
0.2295786734
-0.009497928422
-0.4599303875
0.01752804301
0.4567452037
-0.01434285924
-0.4569709488
0.01281404195
0.4549119531
-0.01075504622
-0.01300013479
0.9040530235
0.008970104951
0.008818351199
-0.00922072887
0.9000507141
-0.004690358945
0.8960253018
0.8949889723
-0.2290893951
0.01763873988
0.2297760972
-0.01828870854
-0.2329007201
0.01960954356
0.2332395128
-0.01981793518
-0.2353411317
0.01969270558
0.2352846751
-0.01941790234
-0.2345160552
0.01794547293
0.2340298598
-0.01724969513
-0.2304767367
0.01462568007
0.2295146252
-0.01358918067
0.01120247547
-0.2276117301
0.2270064957
-0.01059724113
-0.4559687185
0.01774281708
0.4532561062
-0.01503020469
-0.452042186
0.01161553583
0.4504503598
-0.01002370958
-0.01216410531
0.8978335708
0.009449403589
0.008934154484
-0.006800687199
0.894687296
-0.004741217718
0.8939658324
0.8902477546
-0.2312578715
0.02299161979
0.231531624
-0.02321339533
-0.2338579886
0.02334268018
0.2337980722
-0.02315108768
-0.2344583145
0.02171534148
0.2338531391
-0.02094170876
-0.2316393307
0.01780861314
0.2304808988
-0.01653382559
-0.2261523235
0.01237037468
0.2255936158
-0.01181101804
0.01030771112
-0.2253879621
0.2248961784
-0.009815927388
-0.4495635987
0.01669335303
0.4478444856
-0.01497423994
-0.4488801486
0.0133339012
0.4472930991
-0.01174685168
-0.01129793673
0.8907669391
0.01006516652
0.00829940191
-0.006378917531
0.8897682768
-0.004364005822
0.8919509207
0.8858837488
-0.2316660224
0.02565264827
0.231498772
-0.02544487621
-0.2325700982
0.02388266202
0.2318132788
-0.02304122211
-0.2308598928
0.01957207961
0.2294970231
-0.01813128634
-0.2259644093
0.01318303316
0.2247855402
-0.01199565373
-0.2242664922
0.01088505673
0.2238821177
-0.0105006823
0.009329913536
-0.2235946611
0.2232001016
-0.008935354037
-0.446253248
0.01539745148
0.4447858448
-0.01393004826
-0.4458276795
0.0124969816
0.4444139838
-0.01108328596
-0.01407971078
0.885675454
0.009462052231
0.009709143598
-0.009246319138
0.8849348852
-0.00175979554
0.8844643971
0.8841239533
-0.2305285129
0.01819447615
0.2301065408
-0.01775924548
-0.2287561935
0.01526245799
0.22758279
-0.01407400053
-0.225335635
0.01148677836
0.2251601393
-0.01131128276
-0.2239082163
0.01066183501
0.2236570324
-0.01041065103
-0.2228707925
0.009580222812
0.2225746153
-0.009284045559
0.008360380659
-0.2221542348
0.2218331205
-0.00803926637
-0.4434347322
0.01400628657
0.4421918893
-0.0127634436
-0.4431200943
0.01152472774
0.4418770194
-0.01028165278
-0.01318030378
0.881038069
0.008762945462
0.009054743367
-0.008698602073
0.8804531835
-0.00431874197
0.880084537
0.8798052113
-0.2295963207
0.01030419826
0.2296142571
-0.01032213468
-0.2269612718
0.01025595878
0.2268983454
-0.01019303241
-0.2247007782
0.009892360323
0.2245659925
-0.00975757463
-0.2229983328
0.009261025637
0.2228053958
-0.009068088639
-0.2217868305
0.008422696243
0.2215533594
-0.008189225127
0.007448309881
-0.2209855173
0.2207212153
-0.007184007875
-0.441047764
0.01263179714
0.4399939486
-0.01157798179
-0.4407443593
0.01051042547
0.4396565225
-0.009422588622
-0.01218095621
0.8768593044
0.008028321191
0.00833139956
-0.008075407231
0.8763476345
-0.004019698502
0.8760288283
0.8757855128
-0.229639401
0.008973678148
0.2296398044
-0.008974081521
-0.2267200407
0.008892248045
0.2266635027
-0.00883571002
-0.2242042777
0.008585539449
0.2240956433
-0.008476905063
-0.2222904553
0.008081189483
0.2221370167
-0.007927750957
-0.2209254609
0.007411800442
0.2207372805
-0.007223620079
0.006619773102
-0.220027306
0.2198092424
-0.006401709534
-0.4390204283
0.01133684799
0.4381208441
-0.01043726388
-0.4386679218
0.009515630462
0.4377170317
-0.008564740322
-0.01115341837
0.8731154723
0.007298952414
0.007598298077
-0.007422399864
0.872616616
-0.003702845611
0.872309274
0.8720826672
-0.2296227173
0.007868936347
0.2296119416
-0.007858160605
-0.2265009358
0.007766029013
0.2264488201
-0.007713913277
-0.2237984209
0.007498030735
0.2237075902
-0.007407200048
-0.2217213006
0.007081190217
0.2215956733
-0.006955563009
-0.2202258212
0.00653276677
0.220070973
-0.006377918617
0.005877353173
-0.2192335711
0.2190510288
-0.00569481085
-0.4372883298
0.01014132413
0.4365170766
-0.009370070918
-0.4368536092
0.008571804802
0.4360215219
-0.007739717537
-0.01014401442
0.8697726613
0.006601729746
0.006885095635
-0.006772248433
0.86924485
-0.003384944721
0.8689219703
0.8686977225
-0.2295677493
0.006942905104
0.2295497058
-0.006924861611
-0.2262977917
0.006826641481
0.2262490887
-0.006777938419
-0.2234553879
0.006586835846
0.2233772919
-0.006508739934
-0.2212509516
0.00623284254
0.2211455327
-0.006127423687
-0.2196460142
0.005773355444
0.2195161641
-0.005643505414
0.005221845525
-0.218566695
0.2184118564
-0.005067006941
-0.4358009062
0.00906183406
0.4351351226
-0.008396050482
-0.4352657037
0.007701183693
0.434535491
-0.006970970975
-0.009186179135
0.8667915138
0.005952667649
0.006214659044
-0.00614898785
0.8662076587
-0.0030784384
0.8658514209
0.8656192841
-0.2294878065
0.006159791621
0.2294650075
-0.006136992615
-0.2261073714
0.006035621466
0.2260615095
-0.005989759602
-0.2231580832
0.005817561241
0.2230895144
-0.005748992355
-0.2208532672
0.005510489051
0.2207629929
-0.005420214779
-0.2191568644
0.005118186446
0.2190461739
-0.005007495895
0.004647167088
-0.2179990238
0.2178660918
-0.004514235146
-0.434514634
0.00809853293
0.4339356775
-0.007519576438
-0.4338715628
0.00691140392
0.4332283823
-0.006268223436
-0.008298219242
0.8641318728
0.00536019171
0.005597668474
-0.005566509038
0.8634759485
-0.00279066456
0.8630755764
0.8628286195
-0.2293915767
0.005491419762
0.2293656947
-0.005465537742
-0.2259277673
0.005363010959
0.2258843882
-0.005319631914
-0.2228955096
0.00516251996
0.2228343567
-0.00510136704
-0.2205106596
0.004891757211
0.220432084
-0.004813181634
-0.2187377933
0.004551601848
0.2186421236
-0.004455932188
0.004144213522
-0.2175101024
0.2173947862
-0.004028897349
-0.433394103
0.007247170873
0.4328869204
-0.006739988312
-0.4326426998
0.006204590898
0.4320737079
-0.005635598954
-0.007490547727
0.8617548985
0.004828124025
0.00503939795
-0.005033302158
0.8610187029
-0.002526254516
0.8605685287
0.860302365
-0.2292848203
0.004919438241
0.2292569792
-0.004891597127
-0.2257576413
0.004789211006
0.2257164725
-0.004748042234
-0.2226601919
0.004603324084
0.2226049762
-0.004548108383
-0.220210876
0.004361406552
0.2201415484
-0.004292078915
-0.218373902
0.004062570079
0.2182902096
-0.003978877645
0.003706239731
-0.2170844998
0.216983511
-0.003605250936
-0.4324106838
0.006500689219
0.4319631084
-0.006053113774
-0.431554509
0.005578901379
0.4310486622
-0.005073054608
-0.006765647039
0.8596247933
0.004354775981
0.004540976338
-0.004552332996
0.8588053889
-0.002287040949
0.8583032367
0.858015324
-0.2291714499
0.004431848673
0.2291424108
-0.004402809624
-0.2255959618
0.004301350398
0.2255567559
-0.004262144526
-0.2224468431
0.004127744197
0.2223964558
-0.004077356867
-0.2199451462
0.003909097174
0.2198832328
-0.00384718379
-0.2180541965
0.003643409511
0.2179801476
-0.003569360662
0.003328379686
-0.2167104149
0.2166211407
-0.003239105502
-0.4315413369
0.005851096149
0.4311434265
-0.005453185821
-0.4305860486
0.005030450667
0.4301338504
-0.004578252387
-0.006124637105
0.8577083261
0.003939913417
0.004101190835
-0.004125364729
0.8568061165
-0.00207419101
0.856252063
0.855941133
-0.2290541207
0.004017077937
0.2290243864
-0.003987343612
-0.2254418044
0.003887241889
0.225404335
-0.00384977251
-0.222251486
0.003724046931
0.2222050763
-0.003677637236
-0.219706892
0.003524419903
0.2196509968
-0.003468524764
-0.2177702462
0.003285626569
0.2177040338
-0.003219414099
0.003004269207
-0.2163785162
0.2162988756
-0.002924628633
-0.430767037
0.005290174975
0.4304105684
-0.004933706375
-0.4297191726
0.004554253281
0.4293124295
-0.004147510147
-0.005564454298
0.8559753858
0.003580001956
0.003717392602
-0.003751107484
0.8549927697
-0.001887276691
0.8543882322
0.8540538563
-0.2289345838
0.00366428419
0.2289044986
-0.003634198974
-0.2252943161
0.003535692066
0.2252583874
-0.003499763286
-0.2220710353
0.003381413298
0.2220279452
-0.00333832316
-0.2194910549
0.003197531788
0.2194401029
-0.003146579762
-0.2175154669
0.002980793021
0.2174556785
-0.002921004707
0.002727097461
-0.2160813307
0.2160096598
-0.002655426641
-0.4300720378
0.004810185036
0.4297501097
-0.00448825695
-0.4289382657
0.004145084312
0.4285698413
-0.003776659827
-0.005081242839
0.8543986895
0.003271663093
0.003386276066
-0.003427529906
0.8533390568
-0.001725446438
0.8526861487
0.8523284099
-0.2288140251
0.003367229703
0.2287838279
-0.0033370325
-0.225152704
0.003240210989
0.2251181298
-0.003205636831
-0.2219030067
0.00309354637
0.2218626875
-0.003053227258
-0.2192936103
0.002922706104
0.2192467191
-0.002875814954
-0.2172845572
0.002724043352
0.2172300239
-0.002669510039
0.002492974946
-0.215812692
0.2157475598
-0.002427842761
-0.4294430907
0.004404602955
0.4291498218
-0.004111333984
-0.428229722
0.003798334695
0.4278933154
-0.003461928033
-0.004670857269
0.8529531647
0.003011530571
0.003104851463
-0.003152254291
0.8518204538
-0.001587623691
0.8511215181
0.8507407862
-0.2286932936
0.003119313909
0.2286631685
-0.003089188787
-0.2250162468
0.002994101166
0.2249828683
-0.002960722601
-0.2217453367
0.002853960439
0.2217073353
-0.002815959127
-0.2191112587
0.002693936335
0.2190677057
-0.002650383328
-0.21707315
0.002510099523
0.2170229225
-0.002459872033
0.002297619197
-0.2155672444
0.215507644
-0.002238018859
-0.4288688337
0.004066249453
0.4285988605
-0.003796276251
-0.4275814947
0.00350807249
0.4272714831
-0.003198060878
-0.004328112409
0.8516168399
0.002796166551
0.002868270667
-0.002922098856
0.8504144402
-0.00147233842
0.8496717577
0.8492684478
-0.2285730324
0.002917389767
0.2285430965
-0.002887453961
-0.2248843126
0.002794048528
0.2248519656
-0.002761701587
-0.2215962897
0.002659390794
0.2215601921
-0.002623293215
-0.2189412557
0.002508175844
0.2189003973
-0.002467317455
-0.2168776763
0.002336287733
0.2168309238
-0.002289535232
0.002138934781
-0.2153411149
0.2152863137
-0.002084133581
-0.4283385523
0.003791319411
0.4280870425
-0.003539809586
-0.4269828246
0.003271546209
0.4266943328
-0.002983054502
-0.004049444361
0.8503666192
0.002623384018
0.002676281003
-0.002734923623
0.8490999195
-0.00137847503
0.8483153091
0.8478899728
-0.2284536569
0.002757668914
0.2284239806
-0.002727992667
-0.2247562755
0.002636157729
0.2247247995
-0.002604681756
-0.221454296
0.002506007996
0.2214197251
-0.002471437102
-0.2187811585
0.002361786413
0.2187424139
-0.002323041746
-0.2166949326
0.002199220699
0.2166508687
-0.002155156833
0.002013417175
-0.2151308575
0.2150793644
-0.00196192406
-0.427843289
0.003573389557
0.4276068556
-0.00333695617
-0.4264239346
0.003084250492
0.4261512164
-0.002811532377
-0.003831643671
0.8491918418
0.002487794189
0.002518626874
-0.002588899392
0.8478571752
-0.001305551312
0.847031961
0.8465844214
-0.2283354204
0.002636066518
0.2283060528
-0.002606698986
-0.2246315183
0.002516304457
0.2246007635
-0.002485549729
-0.2213179172
0.002389774414
0.2212845353
-0.002356392565
-0.2186287554
0.002250932113
0.2185916126
-0.002213789329
-0.2165219096
0.002095388684
0.2164798561
-0.002053335252
0.001918213013
-0.2149318639
0.2148828191
-0.00186916816
-0.4273764238
0.003410352777
0.4271512583
-0.003185187318
-0.4258953499
0.002944810766
0.4256371316
-0.00268659245
-0.003670419922
0.8480597263
0.002392728107
0.002409807314
-0.002480061101
0.8466668164
-0.001250481653
0.8458023815
0.8453339398
-0.2282184381
0.002550652764
0.2281893963
-0.002521611015
-0.2245093903
0.002432451827
0.2244791943
-0.002402255893
-0.2211857839
0.002308636143
0.2211532647
-0.002276116879
-0.2184820214
0.002173646196
0.2184460093
-0.002137634022
-0.2163559902
0.002023039895
0.2163153459
-0.001982395595
0.001851887653
-0.2147413562
0.2146939749
-0.001804506329
-0.4269301761
0.003299321393
0.4267126025
-0.003081747841
-0.4253916177
0.002849314138
0.4251417686
-0.002599465051
-0.003572532787
0.8469651328
0.002321496513
0.00234562978
-0.002414766313
0.8455090499
-0.001220787986
0.8446084032
0.8441131518
-0.2281027119
0.002501328501
0.228073961
-0.002472577655
-0.2243891963
0.002384328998
0.2243593587
-0.002354491376
-0.221056576
0.002262192098
0.2210245745
-0.002230190579
-0.2183390952
0.002129495514
0.2183037492
-0.002094149521
-0.2161948182
0.00198179163
0.2161550068
-0.001941980287
0.001814252411
-0.2145563591
0.214510122
-0.001768015304
-0.4264976868
0.003239013072
0.426284453
-0.003025779282
-0.4249045559
0.002799422412
0.4246668518
-0.0025617183
-0.003501919541
0.002251429432
0.002312409183
-0.002363910657
-0.001187809678
-0.006713429101
0.02896837918
-0.02911877248
0.0068638224
0.006726525424
-0.01295901709
-0.05864739222
0.1233903356
-0.01659229585
-0.1244580265
0.01765998674
-0.009324688167
0.05524764244
-0.05521855125
0.00929559698
0.006716628218
0.02874104028
-0.0186299018
0.001298333549
-0.05196544792
-0.05199713713
0.2321493544
-0.02346917116
0.0141354522
0.0137215621
-0.118446764
-0.1180904335
0.01708768479
0.122391435
-0.01073467509
0.1122514264
-0.1118932351
0.01037648378
0.008855587867
0.05519027825
0.1218728407
-0.02107132479
-0.1230931505
0.01105785697
0.01123377758
-0.0539693084
-0.009760664938
0.01011615971
0.05361381363
-0.01005516089
-0.05443131457
0.01051716706
0.05512019447
-0.009759465187
-0.05541589017
0.11869936
-0.01779792026
-0.1190707095
0.01816926974
-0.02036905977
0.1206961105
0.01068221637
0.01086357359
-0.03048903101
-0.007259789904
0.007618164814
0.0301306561
0.05561342967
-0.01195127459
-0.05606761198
0.006176304533
0.00622915237
-0.007313121214
-0.03078425437
0.00760834457
0.03034347604
-0.007098676279
-0.03055792097
0.06122964577
-0.01248981781
-0.06162349792
0.01288366996
-0.01164233823
0.01199373806
0.05526202984
-0.02259458078
0.01119389826
-0.1125918925
-0.1130348395
-0.02160742227
0.2311079868
-0.2315876886
0.02210131785
0.2340074029
0.01462065503
0.01132894059
0.05963008992
-0.01175213852
-0.0600219805
0.01214402911
-0.01236215706
0.01277290673
0.0608188961
0.03011589655
-0.007032210419
0.1157034921
-0.01221982447
-0.1157249827
0.01224131504
-0.01697046509
0.01686553747
0.1188042876
0.05470050598
-0.009340976446
-0.01372052128
0.1109827362
-0.1106535127
0.01339129773
0.01777958871
-0.01730698031
-0.0004726083945
0.03057914478
-0.007340618646
-0.03080287385
0.007564347715
0.04915784743
-0.008857827506
-0.04939173627
0.05192777907
-0.008267963016
-0.05268364717
0.009023831123
0.007034546561
-0.02631237443
0.02739701261
-0.008119184736
0.006493895125
0.02823156658
-0.007061747936
-0.02766371377
0.02951058807
-0.007013204153
-0.02957392557
0.007076541651
0.02622957338
-0.0246596768
0.004923998548
-0.01793714073
0.02534865004
-0.0003769627455
0.02784833347
-0.007659839576
-0.02789037861
0.007701884717
-0.005796792106
0.004029544608
0.02799682088
0.02945680548
-0.006430235223
-0.02262277411
0.0273872272
-0.006984655054
-0.02745696997
0.007054397822
-0.007489081156
0.007438060634
0.02789935399
0.02742800474
-0.00633289782
-0.02748978442
0.006394677504
-0.006780880486
0.006838785992
0.0273293217
0.02212665019
-0.006654678726
-0.01752164592
-0.0004154948061
-0.007207504306
0.007178802943
0.03060784614
0.02336669028
-0.005308886513
-0.0002782150629
-0.008697485364
-0.03513653499
-0.0156935227
-0.1248333818
-0.0202034628
0.247241388
-0.2496721678
0.0227100902
-0.006785498388
0.006967468538
0.02932861792
0.02911351071
-0.006678736235
0.02872136733
-0.007355071556
-0.02902613535
-0.006192527295
0.004472745111
0.02980208321
-0.006971874368
0.03065596114
0.03081621257
-0.007191184016
-0.0309656472
0.03078508546
-0.006810035074
-0.03087552
0.006900469623
-0.01680202896
0.02371763446
-0.006556768728
-0.000358836778
-0.01624757436
-0.0005544545961
-0.01549243047
0.01605248258
-0.03103588406
0.02338075389
-0.0078373003
-0.006953585344
-0.000364664252
-0.006082249326
0.026731893
-0.02683590213
0.00618625846
-0.006216209902
0.006474140399
0.02717007424
0.0285899545
-0.0001952929076
-0.03567830771
0.02645404559
-0.008082718187
-0.006858464701
-0.0002298885135
0.01614856266
-0.03301044681
-0.00779779265
0.01662107505
-0.0004725123838
0.02184812616
-0.0003030525643
-0.007311940008
-0.0003498567637
0.008138679356
-0.02837472045
-0.007654337519
0.02482323215
-0.03293212715
0.02596834814
0.02617490151
-0.0002972307377
-0.006386266219
-0.0003709594238
-0.006764165791
-0.02454200672
0.02498072904
-0.006868957544
0.006152023634
-0.00731327646
-0.005589544745
0.02366446658
-0.02511534164
0.02574217266
-0.006216375771
-0.006789291322
-0.004288850224
0.02799971719
-0.0003441766816
-0.02790929228
0.0296984553
-0.006078013248
-0.006764133197
-0.02997920577
-0.008035626313
0.02931734672
0.006810008179
-0.007090758645
-0.0003268096226
-0.01796718591
-0.2477974851
-0.01371917389
0.2407029191
-0.2414584674
0.0147098236
-0.01212296438
-0.2400735689
-0.01028923707
0.235890558
-0.2362250294
0.01087112604
-0.009942399279
-0.2353663342
0.2353359602
-0.00912861051
-0.2355807202
0.009483580752
0.05656604872
-0.01162586016
-0.05689146314
0.05825166231
-0.01065791066
-0.0586460775
0.01105232585
-0.01151270953
0.01187589185
0.05926690759
-0.02188254514
-0.2390315894
-0.01784873379
0.2384913737
-0.2416795509
0.02116947957
0.02228497032
0.2450043888
-0.01653579336
-0.2394402
-0.01397742416
0.2368910094
-0.2376017808
0.0149444374
0.0147119701
0.2398842648
-0.01372604077
-0.2371339039
-0.01228929997
0.234811672
-0.235015278
0.01272672396
0.01186450025
0.2355350315
-0.01196679156
-0.234836836
0.2333811697
-0.01027264313
-0.2338665903
0.0108248347
0.01033754133
0.2348926813
0.1121244863
-0.01385805384
-0.1119869538
0.1144937538
-0.01379086812
-0.114633366
0.01393048027
-0.01618621074
0.01660474912
0.1152849538
-0.02101732482
-0.2330487037
-0.01900291809
0.2353082443
-0.2357839166
0.01966083964
0.01793543314
0.237493677
-0.01839164441
-0.2361503529
-0.01682745019
0.2358986003
-0.2361104648
0.01731378101
0.01469486317
0.2365789304
-0.01649630523
-0.2356530454
-0.01504320165
0.2338481992
-0.2342020912
0.01559291271
0.01277464883
0.2346076586
-0.01227526191
-0.2355848288
0.2307540382
-0.01019273311
-0.2314849323
0.01093821957
0.01106457006
0.2328083856
-0.01701188915
0.2275424526
-0.2266721221
0.2246518779
-0.1113055474
-0.01775134894
-0.2283230075
-0.01912365222
0.2319582901
-0.2315375742
0.01879539359
0.02038278096
0.2310283566
-0.0193174231
-0.2325860551
-0.01918575704
0.2350026908
-0.2349497687
0.01933585042
0.01918582217
0.2350423268
-0.01894101628
-0.2353629178
-0.01766375893
0.235062422
-0.2353369469
0.01817733445
0.01737673874
0.2357206972
-0.01706794583
-0.2348848423
-0.0147960947
0.2317012361
-0.2324004142
0.01563443913
0.01545208501
0.2334508751
-0.0138773773
-0.2312998458
0.2278455628
-0.01139463032
-0.228499404
0.01204847152
0.01269360193
0.229923654
-0.02152707031
0.2300338259
-0.2295553858
0.2283080473
-0.02186400499
-0.2308697923
-0.02238992296
0.2333143546
-0.2331144512
0.02230643948
0.01927655497
0.2323953038
-0.02234832289
-0.2337629564
-0.02138625858
0.2345989429
-0.2348832285
0.02185069973
0.019854358
0.2350433253
-0.02077801816
-0.2348809939
-0.01814438731
0.2326880092
-0.2335283877
0.019148418
0.01854096482
0.2346910768
-0.01702967086
-0.2326113546
-0.01316355533
0.2273919952
-0.2287084761
0.01452397702
0.01558448313
0.230860313
-0.01214711954
-0.2271605892
0.2255592633
-0.01054572504
-0.2260831373
0.01106959903
0.01182266275
0.2272253756
-0.02574821731
0.2309629386
-0.2308752859
0.2304133562
-0.02563654817
-0.2317323606
-0.02446798848
0.2325474437
-0.2329911114
0.0250011868
0.0233962186
0.2333745792
-0.02377874719
-0.233159601
-0.02077722087
0.2315899864
-0.2326341096
0.02193009611
0.02234189833
0.2341385989
-0.01948300631
-0.2320511617
-0.01490148811
0.2274628582
-0.2290317301
0.01652649128
0.01897765528
0.2316578131
-0.01320851759
-0.2276260654
-0.01123613422
0.2244601513
-0.224866063
0.01164204589
0.01373546791
0.2260456221
-0.01082437165
-0.2246782547
0.2237438594
-0.009579166596
-0.2241582995
0.009993606689
0.01080247663
0.2250644978
-0.02116271035
0.2305686621
-0.2307527178
0.2309639893
-0.02075669477
-0.2309137139
-0.01837398085
0.2293915838
-0.2303401147
0.01935554025
0.02456287853
0.2319443588
-0.01722053537
-0.2298769017
-0.01289892093
0.2259711674
-0.2275097592
0.01445216078
0.02087846013
0.2303694625
-0.0118494571
-0.2263777433
-0.01105191797
0.2242250122
-0.2244781178
0.01130502356
0.01491516791
0.2257583028
-0.01078197883
-0.2241781555
-0.009893313759
0.2230948941
-0.2234020881
0.01020050769
0.0112626587
0.2240825493
-0.009577847234
-0.2231862591
0.2223048286
-0.00859976478
-0.2226343835
0.008929319673
0.009721262711
0.2233525102
-0.01067861167
0.2300964166
-0.2300590721
0.2303524768
-0.01070186725
-0.2295730651
-0.01064054679
0.2275954349
-0.2276384004
0.01068351228
0.01628555742
0.2283860992
-0.01057553736
-0.2270262813
-0.01025844701
0.2252180077
-0.2253430691
0.0103835084
0.01184162001
0.225618016
-0.01011522159
-0.2248440036
-0.009586572211
0.2233746881
-0.2235662806
0.009778164727
0.01089696104
0.2239898862
-0.009381244549
-0.2232036605
-0.008695935857
0.2220450668
-0.222283733
0.008934602092
0.00986792402
0.2228071929
-0.008448754372
-0.222034012
0.221150793
-0.007667987737
-0.2214163614
0.007933556098
0.008672899669
0.2219923096
-0.009280307714
0.2301959584
-0.2301784628
0.2301290289
-0.009284368501
-0.2296353402
-0.009205972128
0.2274254422
-0.227467673
0.009248202933
0.01029877008
0.2275526236
-0.00914809678
-0.2267779161
-0.008887258664
0.2247814295
-0.2248823156
0.008988144702
0.0100103739
0.2250999941
-0.008773075118
-0.2243184612
-0.008355784663
0.2227147302
-0.2228657074
0.008506761839
0.009440957846
0.2231947558
-0.008193819805
-0.2224524201
-0.007649647517
0.2212162633
-0.2214065676
0.007839951812
0.008647756738
0.2218200063
-0.007451497878
-0.2211236105
0.2202126035
-0.006817762445
-0.2204295207
0.007034679638
0.007701329754
0.2208977732
-0.008128269134
0.230226611
-0.2302241545
0.2302091712
-0.00811984522
-0.2296311413
-0.008029822232
0.2272578349
-0.2272995256
0.008071512989
0.008934359293
0.227383331
-0.007976710985
-0.2265540471
-0.007753299934
0.2244200053
-0.2245047868
0.007838081439
0.008681829921
0.224685139
-0.007658572994
-0.2238931478
-0.007317260563
0.222183803
-0.2223068061
0.007440263654
0.008224243401
0.2225716763
-0.007185495654
-0.2218530655
-0.006741998596
0.2205457076
-0.2207011009
0.00689739189
0.007592353517
0.2210357103
-0.006579693136
-0.2203881267
0.219439329
-0.006056355238
-0.2196192181
0.00623624432
0.006827157959
0.2200052186
-0.007161639483
0.2302095321
-0.2302173443
0.2302261172
-0.007145132186
-0.2295842566
-0.007048090194
0.227092798
-0.2271337793
0.00708907141
0.007807552661
0.2272163112
-0.006998586385
-0.2263472955
-0.006801894965
0.224110598
-0.2241839575
0.006875254523
0.007579585927
0.2243384501
-0.006720950827
-0.223536332
-0.006433854252
0.2217439765
-0.2218469142
0.006536792016
0.007198537422
0.2220664558
-0.006323909058
-0.2213608968
-0.005954375307
0.2199911878
-0.2201207168
0.006083904253
0.006680940004
0.2203975343
-0.005818873378
-0.2197815161
0.2187922786
-0.005379738854
-0.2189436526
0.005531112855
0.006049955636
0.2192667266
-0.006342734421
0.2301600868
-0.2301748348
0.2301997224
-0.006320944395
-0.2295095966
-0.00622015991
0.2269311197
-0.226971177
0.006260217227
0.006867402704
0.2270520368
-0.006173635293
-0.226153896
-0.005997161476
0.2238392069
-0.2239040323
0.006061986863
0.006657826156
0.2240396077
-0.005926454638
-0.2232287901
-0.005679574135
0.2213707948
-0.2214588252
0.005767604511
0.006331630109
0.2216451889
-0.005585904292
-0.2209469371
-0.005272171831
0.2195237631
-0.21963366
0.005382068758
0.005897453889
0.2198670894
-0.00515715848
-0.2192718778
0.2182431293
-0.004783354433
-0.2183722211
0.004912446196
0.00536763133
0.2186464928
-0.005647407547
0.2300888311
-0.230108253
0.2301439892
-0.005622180037
-0.2294168042
-0.005519824474
0.2267734969
-0.2268124905
0.005558818035
0.006075433081
0.2268913081
-0.005475863842
-0.2259717279
-0.005315307976
0.2235969082
-0.2236551149
0.005373514636
0.005880596756
0.2237761714
-0.005252475267
-0.2229583423
-0.005036337168
0.2210480052
-0.2211246479
0.005112979903
0.005595413928
0.22128587
-0.004955118923
-0.2205918779
-0.004684385403
0.2191232659
-0.2192179706
0.004779090123
0.00522395355
0.219417996
-0.004585309971
-0.2188368687
0.2177711272
-0.004262911167
-0.2178825855
0.00437436947
0.004771963094
0.2181183333
-0.005054992522
0.2300028333
-0.230025424
0.2300684941
-0.005027553069
-0.2293122597
-0.004925022521
0.2266203284
-0.2266581924
0.004962886452
0.005401733447
0.2267347744
-0.004883317449
-0.2257993463
-0.004735688253
0.2233776508
-0.2234305648
0.004788602273
0.00521930735
0.2235401208
-0.00467909377
-0.2227167864
-0.00448709802
0.2207643795
-0.2208320974
0.004554815955
0.004965983928
0.2209737784
-0.004415637474
-0.2202823366
-0.004178730112
0.218775243
-0.218857964
0.004261451084
0.004643066279
0.2190318015
-0.004092273067
-0.2184603591
0.2173607852
-0.003810928631
-0.2174580972
0.003908240683
0.004252278354
0.2176630624
-0.004547670466
0.2299069295
-0.2299316313
0.2299796354
-0.004518867567
-0.2292002528
-0.004417097958
0.2264717847
-0.2265084914
0.004453804607
0.004826776827
0.2265827626
-0.004377412986
-0.2256356467
-0.004240566134
0.2231771469
-0.2232257128
0.00428913208
0.00465505981
0.223325915
-0.0041890466
-0.2224983626
-0.004016485659
0.2205119235
-0.2205724779
0.004077039987
0.004427171812
0.2206986142
-0.003952847588
-0.2200087843
-0.003743090787
0.2184691181
-0.2185422065
0.003816179171
0.004142667793
0.2186951453
-0.003666800899
-0.2181304864
0.2170003793
-0.003418748037
-0.2170861809
0.003504549633
0.00380079319
0.2172662317
-0.004114813524
0.2298044945
-0.2298305777
0.2298818305
-0.004085214625
-0.2290837196
-0.003984740661
0.2263278095
-0.2263633889
0.004020320114
0.00433776214
0.226435373
-0.003946854628
-0.2254796904
-0.003819086734
0.2229921427
-0.2230370947
0.003864038779
0.004175333541
0.2231295575
-0.003771748012
-0.2222988247
-0.003615032371
0.2202846551
-0.2203393873
0.003669764543
0.003968069959
0.2204529507
-0.00355774075
-0.2197641836
-0.003370002421
0.2181968357
-0.2182621078
0.003435274571
0.003714375019
0.2183981526
-0.003301974559
-0.2178382741
0.2166807188
-0.003081098918
-0.2167571001
0.003157480252
0.003411951164
0.2169168078
-0.003746128562
0.2296978429
-0.2297247999
0.2297781508
-0.00371611267
-0.2289645997
-0.003617218226
0.2261881798
-0.2262226923
0.003651730734
0.003922549305
0.2262925021
-0.003580930972
-0.2253306034
-0.003460877098
0.2228200862
-0.2228620019
0.00350279279
0.003768191879
0.2229479977
-0.003417022733
-0.2221148897
-0.003273377098
0.2200779781
-0.2201279241
0.003323323101
0.003577869358
0.2202312057
-0.003221291019
-0.219543141
-0.003051580716
0.2179521366
-0.2180110101
0.003110454211
0.003349180777
0.2181332815
-0.00299032081
-0.2175767268
0.2163944953
-0.002791773531
-0.2164631235
0.002860401724
0.003078854919
0.2166061331
-0.003435812558
0.2295886077
-0.229616084
0.2296707202
-0.003405631661
-0.228844206
-0.003308406892
0.2260525801
-0.2260861166
0.003341943439
0.003569960694
0.2261539112
-0.003273518426
-0.2251875924
-0.003159984458
0.2226588995
-0.2226982722
0.003199357104
0.003422661025
0.2227788385
-0.003119028241
-0.2219439629
-0.002986150991
0.2198882353
-0.219934251
0.00303216666
0.003246434136
0.2200290757
-0.002938329414
-0.2193414318
-0.002783349054
0.2177300042
-0.2177836533
0.002836998182
0.003038274338
0.2178946553
-0.00272761429
-0.217340292
0.216135718
-0.002547309058
-0.2161980087
0.002609599738
0.002794283136
0.2163273096
-0.003177433063
0.229477988
-0.2295057199
0.2295610405
-0.003147270862
-0.2287234558
-0.003051733597
0.2259206679
-0.2259533195
0.00308438521
0.003273524448
0.2260192666