/*--------------------------------*- C++ -*----------------------------------*\
| =========                 |                                                 |
| \\      /  F ield         | OpenFOAM: The Open Source CFD Toolbox           |
|  \\    /   O peration     | Version:  v2012                                 |
|   \\  /    A nd           | Website:  www.openfoam.com                      |
|    \\/     M anipulation  |                                                 |
\*---------------------------------------------------------------------------*/
FoamFile
{
    version     2.0;
    format      ascii;
    class       pointVectorField;
    location    "3";
    object      pointDisplacement;
}
// * * * * * * * * * * * * * * * * * * * * * * * * * * * * * * * * * * * * * //

dimensions      [0 1 0 0 0 0 0];


internalField   nonuniform List<vector> 
6426
(
(0 0 0)
(0 0 0)
(0 0 0)
(0 0 0)
(0 0 0)
(0 0 0)
(0 0 0)
(0 0 0)
(0 0 0)
(0 0 0)
(-0.000645522246 0.008517324682 0)
(-0.000656645718 0.008275063804 0)
(-0.0006661404219 0.008032720834 0)
(-0.0001649434526 0.008027083391 0)
(-0.0001435601693 0.008511307971 0)
(0.007513535659 0.008376634435 0)
(0.007475681892 0.007407350216 0)
(0.007437427268 0.006438346536 0)
(0.009494950675 0.006396913012 0)
(0.009568864684 0.008336200696 0)
(0.00854158251 0.008356318426 0)
(0.01508418292 0.00785393011 3.432254481e-13)
(0.01481937029 0.005916634207 3.383404668e-13)
(0.01580028325 0.005544195146 3.180927743e-13)
(0.01622202594 0.007430897352 3.257255576e-13)
(0.01634230123 0.005524207601 2.420841305e-13)
(0.01575274868 0.004075543267 2.336325577e-13)
(0.0146104094 0.003489182193 1.99146255e-13)
(0.0152272078 0.004747198757 2.073619054e-13)
(0.00926173476 0.00236239669 1.014882622e-13)
(0.008704077095 0.001707966806 9.542366897e-14)
(0.006367264395 0.001183114128 6.554479182e-14)
(0.006858323526 0.00165382707 7.058242879e-14)
(0.0009752778131 0.0002022698252 8.493206138e-15)
(0.0007928128047 0.0001271354276 6.911138328e-15)
(6.285993642e-05 9.62050837e-06 5.273559367e-16)
(0.0001200975299 2.376622904e-05 9.992007222e-16)
(0 0 0)
(0 0 0)
(0 0 0)
(0 0 0)
(0 0 0)
(0 0 0)
(0 0 0)
(0 0 0)
(0 0 0)
(0 0 0)
(0 0 0)
(0 0 0)
(0 0 0)
(0 0 0)
(-0.00112360836 0.0008312181263 0)
(-0.00113461525 0.0003446322975 0)
(-0.001145632804 -0.0001424057388 0)
(-0.000109299809 -0.0001658501167 0)
(-8.727406505e-05 0.000807773719 0)
(0.007167028458 0.0006436637168 0)
(0.0071229872 -0.001303131737 0)
(0.009163781217 -0.001344090398 3.579359031e-13)
(0.009233057582 0.0005964627479 3.590183706e-13)
(0.01404413985 0.0004298313023 3.240741009e-13)
(0.01369454106 -0.001280210718 3.171490848e-13)
(0.01437191087 -0.001193109865 2.926270337e-13)
(0.01479253816 0.0003859615385 3.003708393e-13)
(0.01371214562 0.0002750324386 2.040173586e-13)
(0.01315755407 -0.000787755432 1.959821194e-13)
(0.01172754149 -0.0006305538981 1.602884492e-13)
(0.01253047215 0.0002437942179 1.711963904e-13)
(0.006569048196 0.0001296450085 7.208122987e-14)
(0.0057248168 -0.0002233410485 6.281086762e-14)
(0.003889794962 -0.0001378908876 4.007905119e-14)
(0.004432469634 8.828780043e-05 4.565792189e-14)
(0.0001632282264 3.133411802e-06 1.415534356e-15)
(7.372886439e-05 -2.06053258e-06 6.383782392e-16)
(0 0 0)
(0 0 0)
(0 0 0)
(0 0 0)
(0 0 0)
(0 0 0)
(0 0 0)
(0 0 0)
(0 0 0)
(0 0 0)
(0 0 0)
(0 0 0)
(0 0 0)
(0 0 0)
(0 0 0)
(0 0 0)
(-0.001299792364 -0.006956868158 0)
(-0.001343843852 -0.00890411583 0)
(0.000728817242 -0.008951004475 0)
(0.0007728687299 -0.007003756803 0)
(0.006937246982 -0.007079391433 3.561040351e-13)
(0.006802267641 -0.008866894084 3.5055292e-13)
(0.008583337224 -0.008632827928 3.398115123e-13)
(0.008807425863 -0.006958018038 3.479438959e-13)
(0.01254285544 -0.005892589759 2.913225217e-13)
(0.01200121579 -0.007139386329 2.787353681e-13)
(0.01226084649 -0.006405101748 2.499389584e-13)
(0.01289503059 -0.005323574439 2.629424456e-13)
(0.01088508932 -0.003261512412 1.621480727e-13)
(0.01011274405 -0.003837315023 1.505739977e-13)
(0.008579650872 -0.002975575995 1.17197918e-13)
(0.009336964913 -0.002554219835 1.276201367e-13)
(0.003663671606 -0.0007900606341 4.019007349e-14)
(0.003147804152 -0.0008646350296 3.452793607e-14)
(0.001610529121 -0.0004138245694 1.658395643e-14)
(0.002187683657 -0.0004409616914 2.25375274e-14)
(0 0 0)
(0 0 0)
(0 0 0)
(0 0 0)
(0 0 0)
(0 0 0)
(0 0 0)
(0 0 0)
(0 0 0)
(0 0 0)
(0 0 0)
(0 0 0)
(0 0 0)
(0 0 0)
(0 0 0)
(0 0 0)
(0 0 0)
(0 0 0)
(-0.001372664151 -0.01415804839 3.449601715e-13)
(-0.001297816682 -0.01528023724 3.288341821e-13)
(0.0006057556828 -0.0150645761 3.233663337e-13)
(0.0006228763847 -0.01402151659 3.405886684e-13)
(0.006036999258 -0.01291544373 3.11181636e-13)
(0.005653310329 -0.01360255562 2.900318874e-13)
(0.006931038834 -0.012807005 2.726152637e-13)
(0.007461820364 -0.01225831865 2.947364575e-13)
(0.009740479797 -0.009397005716 2.251948628e-13)
(0.00879505539 -0.009545302024 2.026989687e-13)
(0.008651543865 -0.008242081688 1.750682932e-13)
(0.009694394852 -0.008207717849 1.967037644e-13)
(0.007195022025 -0.004436441109 1.067479438e-13)
(0.006097256652 -0.004236282635 9.030276527e-14)
(0.004761376519 -0.003032279568 6.475375791e-14)
(0.00578291302 -0.003266184684 7.875644581e-14)
(0.001449992711 -0.0006542527509 1.587618925e-14)
(0.0009338634269 -0.0004762396175 1.021405183e-14)
(0.0002092756202 -0.000100206615 2.15105711e-15)
(0.0004837818152 -0.0002048015631 4.982125823e-15)
(0 0 0)
(0 0 0)
(0 0 0)
(0 0 0)
(0 0 0)
(0 0 0)
(0 0 0)
(0 0 0)
(0 0 0)
(0 0 0)
(0 0 0)
(0 0 0)
(0 0 0)
(0 0 0)
(0 0 0)
(0 0 0)
(0 0 0)
(0 0 0)
(-0.0008743940284 -0.01576418161 2.512295927e-13)
(-0.0007036870704 -0.01490738108 2.186584247e-13)
(0.0005560114334 -0.0144676473 2.11969331e-13)
(0.0005767070038 -0.01536008963 2.444294767e-13)
(0.004163356045 -0.01309492913 2.07653339e-13)
(0.003583671418 -0.01207472096 1.764144386e-13)
(0.004202270277 -0.01095909033 1.60038649e-13)
(0.004948434045 -0.01201162994 1.90319982e-13)
(0.005611324133 -0.008060453646 1.276340145e-13)
(0.004522044437 -0.007009816198 1.023348073e-13)
(0.004120711385 -0.005623370613 8.212874825e-14)
(0.005246962029 -0.006628683165 1.050132203e-13)
(0.002866426682 -0.002657258547 4.218847494e-14)
(0.001937102849 -0.001944843262 2.846334279e-14)
(0.001142011362 -0.001054195742 1.543210004e-14)
(0.001899090634 -0.001617341329 2.570166302e-14)
(1.595891707e-05 -1.095827693e-05 1.804112415e-16)
(0 0 0)
(0 0 0)
(0 0 0)
(0 0 0)
(0 0 0)
(0 0 0)
(0 0 0)
(0 0 0)
(0 0 0)
(0 0 0)
(0 0 0)
(0 0 0)
(0 0 0)
(0 0 0)
(0 0 0)
(0 0 0)
(0 0 0)
(0 0 0)
(0 0 0)
(0 0 0)
(0 0 0)
(-0.0002638269042 -0.00989086445 1.171007735e-13)
(-0.0001653633045 -0.007742977181 8.615330671e-14)
(0.0003187809951 -0.007339787265 8.162914789e-14)
(0.0004003084666 -0.009451283783 1.118549697e-13)
(0.001806871222 -0.007208743394 8.522349493e-14)
(0.001271818384 -0.005325570434 5.9188765e-14)
(0.001359853644 -0.004470171238 4.968248035e-14)
(0.001996463993 -0.006230601757 7.36494199e-14)
(0.001640921213 -0.003094108384 3.658184866e-14)
(0.0009319174584 -0.001861460561 2.069178162e-14)
(0.0006382530074 -0.001127659007 1.254552018e-14)
(0.001279338943 -0.002131150309 2.520206266e-14)
(0.0001469193269 -0.0001816235058 2.15105711e-15)
(4.124848725e-07 -5.423785846e-07 0)
(0 0 0)
(1.717678761e-06 -1.957209698e-06 2.775557562e-17)
(0 0 0)
(0 0 0)
(0 0 0)
(0 0 0)
(0 0 0)
(0 0 0)
(0 0 0)
(0 0 0)
(0 0 0)
(0 0 0)
(0 0 0)
(0 0 0)
(0 0 0)
(0 0 0)
(0 0 0)
(0 0 0)
(0 0 0)
(0 0 0)
(0 0 0)
(0 0 0)
(0 0 0)
(0 0 0)
(-1.96266287e-05 -0.001873438346 1.765254609e-14)
(-5.554495929e-06 -0.0006462281927 5.800915304e-15)
(2.288366802e-05 -0.000529126323 4.74620343e-15)
(7.36349066e-05 -0.001669046545 1.572353359e-14)
(0.0001603184695 -0.0007699490894 7.244205236e-15)
(1.985381912e-05 -9.983736817e-05 8.881784197e-16)
(3.65897541e-06 -1.459657444e-05 1.387778781e-16)
(0.000121689303 -0.0004628088531 4.357625372e-15)
(0 0 0)
(0 0 0)
(0 0 0)
(0 0 0)
(0 0 0)
(0 0 0)
(0 0 0)
(0 0 0)
(0 0 0)
(0 0 0)
(0 0 0)
(0 0 0)
(0 0 0)
(0 0 0)
(0 0 0)
(0 0 0)
(0 0 0)
(0 0 0)
(0 0 0)
(0 0 0)
(0 0 0)
(0 0 0)
(0 0 0)
(0 0 0)
(0 0 0)
(0 0 0)
(0 0 0)
(0 0 0)
(0 0 0)
(0 0 0)
(0 0 0)
(0 0 0)
(0 0 0)
(0 0 0)
(0 0 0)
(0 0 0)
(0 0 0)
(0 0 0)
(0 0 0)
(0 0 0)
(0 0 0)
(0 0 0)
(0 0 0)
(0 0 0)
(0 0 0)
(0 0 0)
(0 0 0)
(0 0 0)
(0 0 0)
(0 0 0)
(0 0 0)
(0 0 0)
(0 0 0)
(0 0 0)
(0 0 0)
(0 0 0)
(0 0 0)
(0 0 0)
(0 0 0)
(0 0 0)
(0 0 0)
(0 0 0)
(0 0 0)
(0 0 0)
(0 0 0)
(0 0 0)
(0 0 0)
(0 0 0)
(0 0 0)
(0 0 0)
(0 0 0)
(0 0 0)
(0 0 0)
(0 0 0)
(0 0 0)
(0 0 0)
(0 0 0)
(0 0 0)
(0 0 0)
(0 0 0)
(0 0 0)
(0 0 0)
(0 0 0)
(0 0 0)
(0 0 0)
(0 0 0)
(0 0 0)
(0 0 0)
(0 0 0)
(0 0 0)
(0 0 0)
(0 0 0)
(0 0 0)
(0 0 0)
(0 0 0)
(0 0 0)
(0 0 0)
(0 0 0)
(0 0 0)
(0 0 0)
(0 0 0)
(0 0 0)
(0 0 0)
(0 0 0)
(0 0 0)
(0 0 0)
(0 0 0)
(0 0 0)
(0 0 0)
(0 0 0)
(0 0 0)
(0 0 0)
(0 0 0)
(0 0 0)
(0 0 0)
(0 0 0)
(0 0 0)
(0 0 0)
(0 0 0)
(0 0 0)
(0 0 0)
(0 0 0)
(0 0 0)
(0 0 0)
(0 0 0)
(0 0 0)
(0 0 0)
(0 0 0)
(0 0 0)
(0 0 0)
(0 0 0)
(0 0 0)
(0 0 0)
(0 0 0)
(0 0 0)
(0 0 0)
(0 0 0)
(0 0 0)
(0 0 0)
(0 0 0)
(0 0 0)
(0 0 0)
(0 0 0)
(0 0 0)
(0 0 0)
(0 0 0)
(0 0 0)
(0 0 0)
(0 0 0)
(0 0 0)
(0 0 0)
(0 0 0)
(0 0 0)
(0 0 0)
(0 0 0)
(0 0 0)
(0 0 0)
(0 0 0)
(0 0 0)
(0 0 0)
(0 0 0)
(0 0 0)
(0 0 0)
(0 0 0)
(0 0 0)
(0 0 0)
(0 0 0)
(0 0 0)
(0 0 0)
(0 0 0)
(0 0 0)
(0 0 0)
(0 0 0)
(0 0 0)
(0 0 0)
(0 0 0)
(0 0 0)
(0 0 0)
(0 0 0)
(0 0 0)
(0 0 0)
(0 0 0)
(0 0 0)
(0 0 0)
(0 0 0)
(0 0 0)
(0 0 0)
(0 0 0)
(0 0 0)
(0 0 0)
(0 0 0)
(0 0 0)
(0 0 0)
(0 0 0)
(0 0 0)
(0 0 0)
(0 0 0)
(0 0 0)
(0 0 0)
(0 0 0)
(0 0 0)
(0 0 0)
(0 0 0)
(0 0 0)
(0 0 0)
(0 0 0)
(0 0 0)
(0 0 0)
(0 0 0)
(0 0 0)
(0 0 0)
(0 0 0)
(0 0 0)
(0 0 0)
(0 0 0)
(0 0 0)
(0 0 0)
(0 0 0)
(0 0 0)
(0 0 0)
(0 0 0)
(0 0 0)
(0 0 0)
(0 0 0)
(0 0 0)
(0 0 0)
(0 0 0)
(0 0 0)
(0 0 0)
(0 0 0)
(0 0 0)
(0 0 0)
(0 0 0)
(0 0 0)
(0 0 0)
(0 0 0)
(0 0 0)
(0 0 0)
(0 0 0)
(0 0 0)
(0 0 0)
(0 0 0)
(0 0 0)
(0 0 0)
(0 0 0)
(0 0 0)
(0 0 0)
(0 0 0)
(0 0 0)
(0 0 0)
(0 0 0)
(0 0 0)
(0 0 0)
(0 0 0)
(0 0 0)
(0 0 0)
(0 0 0)
(0 0 0)
(0 0 0)
(0 0 0)
(0 0 0)
(0 0 0)
(0 0 0)
(0 0 0)
(0 0 0)
(0 0 0)
(0 0 0)
(0 0 0)
(0 0 0)
(0 0 0)
(0 0 0)
(0 0 0)
(0 0 0)
(0 0 0)
(0 0 0)
(0 0 0)
(0 0 0)
(0 0 0)
(0 0 0)
(0 0 0)
(0 0 0)
(0 0 0)
(0 0 0)
(0 0 0)
(0 0 0)
(0 0 0)
(0 0 0)
(0 0 0)
(0 0 0)
(0 0 0)
(0 0 0)
(0 0 0)
(0 0 0)
(0 0 0)
(0 0 0)
(0 0 0)
(0 0 0)
(0 0 0)
(0 0 0)
(0 0 0)
(0 0 0)
(0 0 0)
(0 0 0)
(0 0 0)
(0 0 0)
(0 0 0)
(0 0 0)
(0 0 0)
(0 0 0)
(0 0 0)
(0 0 0)
(0 0 0)
(0 0 0)
(0 0 0)
(0 0 0)
(0 0 0)
(0 0 0)
(0 0 0)
(0 0 0)
(0 0 0)
(0 0 0)
(0 0 0)
(0 0 0)
(0 0 0)
(0 0 0)
(0 0 0)
(0 0 0)
(0 0 0)
(0 0 0)
(0 0 0)
(0 0 0)
(0 0 0)
(0 0 0)
(0 0 0)
(0 0 0)
(0 0 0)
(0 0 0)
(0 0 0)
(0 0 0)
(0 0 0)
(0 0 0)
(0 0 0)
(0 0 0)
(0 0 0)
(0 0 0)
(0 0 0)
(0 0 0)
(0 0 0)
(0 0 0)
(0 0 0)
(0 0 0)
(0 0 0)
(0 0 0)
(0 0 0)
(0 0 0)
(0 0 0)
(0 0 0)
(0 0 0)
(0 0 0)
(0 0 0)
(0 0 0)
(0 0 0)
(0 0 0)
(0 0 0)
(0 0 0)
(0 0 0)
(0 0 0)
(0 0 0)
(0 0 0)
(0 0 0)
(0 0 0)
(0 0 0)
(0 0 0)
(0 0 0)
(0 0 0)
(0 0 0)
(0 0 0)
(0 0 0)
(0 0 0)
(0 0 0)
(0 0 0)
(0 0 0)
(0 0 0)
(0 0 0)
(0 0 0)
(0 0 0)
(0 0 0)
(0 0 0)
(0 0 0)
(0 0 0)
(0 0 0)
(0 0 0)
(0 0 0)
(0 0 0)
(0 0 0)
(0 0 0)
(0 0 0)
(0 0 0)
(0 0 0)
(0 0 0)
(0 0 0)
(0 0 0)
(0 0 0)
(0 0 0)
(0 0 0)
(0 0 0)
(0 0 0)
(0 0 0)
(0 0 0)
(0 0 0)
(0 0 0)
(0 0 0)
(0 0 0)
(0 0 0)
(0 0 0)
(0 0 0)
(0 0 0)
(0 0 0)
(0 0 0)
(0 0 0)
(0 0 0)
(0 0 0)
(0 0 0)
(0 0 0)
(0 0 0)
(0 0 0)
(0 0 0)
(0 0 0)
(0 0 0)
(0 0 0)
(0 0 0)
(0 0 0)
(0 0 0)
(0 0 0)
(0 0 0)
(0 0 0)
(0 0 0)
(0 0 0)
(0 0 0)
(0 0 0)
(0 0 0)
(0 0 0)
(0 0 0)
(0 0 0)
(0 0 0)
(0 0 0)
(0 0 0)
(0 0 0)
(0 0 0)
(0 0 0)
(0 0 0)
(0 0 0)
(0 0 0)
(0 0 0)
(0 0 0)
(0 0 0)
(0 0 0)
(0 0 0)
(0 0 0)
(0 0 0)
(0 0 0)
(0 0 0)
(0 0 0)
(0 0 0)
(0 0 0)
(0 0 0)
(0 0 0)
(0 0 0)
(0 0 0)
(0 0 0)
(0 0 0)
(0 0 0)
(0 0 0)
(0 0 0)
(0 0 0)
(0 0 0)
(0 0 0)
(0 0 0)
(0 0 0)
(0 0 0)
(0 0 0)
(0 0 0)
(0 0 0)
(0 0 0)
(0 0 0)
(0 0 0)
(0 0 0)
(0 0 0)
(0 0 0)
(0 0 0)
(0 0 0)
(0 0 0)
(0 0 0)
(0 0 0)
(0 0 0)
(0 0 0)
(0 0 0)
(0 0 0)
(0 0 0)
(0 0 0)
(0 0 0)
(0 0 0)
(0 0 0)
(0 0 0)
(0 0 0)
(0 0 0)
(0 0 0)
(0 0 0)
(0 0 0)
(0 0 0)
(0 0 0)
(0 0 0)
(0 0 0)
(0 0 0)
(0 0 0)
(0 0 0)
(0 0 0)
(0 0 0)
(0 0 0)
(0 0 0)
(0 0 0)
(0 0 0)
(0 0 0)
(0 0 0)
(0 0 0)
(0 0 0)
(0 0 0)
(0 0 0)
(0 0 0)
(0 0 0)
(0 0 0)
(0 0 0)
(0 0 0)
(0 0 0)
(0 0 0)
(0 0 0)
(0 0 0)
(0 0 0)
(0 0 0)
(0 0 0)
(0 0 0)
(0 0 0)
(0 0 0)
(0 0 0)
(0 0 0)
(0 0 0)
(0 0 0)
(0 0 0)
(0 0 0)
(0 0 0)
(0 0 0)
(0 0 0)
(0 0 0)
(0 0 0)
(0 0 0)
(0 0 0)
(0 0 0)
(0 0 0)
(0 0 0)
(0 0 0)
(0 0 0)
(0 0 0)
(0 0 0)
(0 0 0)
(0 0 0)
(0 0 0)
(0 0 0)
(0 0 0)
(0 0 0)
(0 0 0)
(0 0 0)
(0 0 0)
(0 0 0)
(0 0 0)
(0 0 0)
(0 0 0)
(0 0 0)
(0 0 0)
(0 0 0)
(0 0 0)
(0 0 0)
(0 0 0)
(0 0 0)
(0 0 0)
(0 0 0)
(0 0 0)
(0 0 0)
(0 0 0)
(0 0 0)
(0 0 0)
(0 0 0)
(0 0 0)
(0 0 0)
(0 0 0)
(0 0 0)
(0 0 0)
(0 0 0)
(0 0 0)
(0 0 0)
(0 0 0)
(0 0 0)
(0 0 0)
(0 0 0)
(0 0 0)
(0 0 0)
(0 0 0)
(0 0 0)
(0 0 0)
(0 0 0)
(0 0 0)
(0 0 0)
(0 0 0)
(0 0 0)
(0 0 0)
(0 0 0)
(0 0 0)
(0 0 0)
(0 0 0)
(0 0 0)
(0 0 0)
(0 0 0)
(0 0 0)
(0 0 0)
(0 0 0)
(0 0 0)
(0 0 0)
(0 0 0)
(0 0 0)
(0 0 0)
(0 0 0)
(0 0 0)
(0 0 0)
(0 0 0)
(0 0 0)
(0 0 0)
(0 0 0)
(0 0 0)
(0 0 0)
(0 0 0)
(0 0 0)
(0 0 0)
(0 0 0)
(0 0 0)
(0 0 0)
(0 0 0)
(0 0 0)
(0 0 0)
(0 0 0)
(0 0 0)
(0 0 0)
(0 0 0)
(0 0 0)
(0 0 0)
(0 0 0)
(0 0 0)
(0 0 0)
(0 0 0)
(0 0 0)
(0 0 0)
(0 0 0)
(0 0 0)
(0 0 0)
(0 0 0)
(0 0 0)
(0 0 0)
(0 0 0)
(0 0 0)
(0 0 0)
(0 0 0)
(0 0 0)
(0 0 0)
(0 0 0)
(0 0 0)
(0 0 0)
(0 0 0)
(0 0 0)
(-0.0006357629507 0.008760023625 0)
(-0.0008879110322 0.008763194116 0)
(-0.0008971635105 0.008520438463 0)
(-0.0001232569295 0.008996190413 0)
(-0.000625815533 0.009002718312 0)
(0.007549105623 0.009346965706 0)
(0.006524253147 0.009366485532 0)
(0.006488278232 0.008396253911 0)
(-0.001112592781 0.001318256207 0)
(-0.001630771118 0.001329978664 0)
(-0.00164178006 0.000842940433 0)
(-0.0009072040628 0.008277926862 0)
(-6.524832113e-05 0.001781397555 0)
(-0.0005464116664 0.001776899385 0)
(-0.001032039564 0.001764810587 0)
(0.007265621483 0.002569860271 0)
(0.006240382471 0.002590293739 0)
(0.00520900865 0.002611544664 0)
(0.005163761841 0.001645459101 0)
(0.005125225865 0.000674018562 0)
(0.00645029187 0.007427108427 0)
(0.003556052998 0.01233885198 0)
(-0.00127776662 -0.005983244323 0)
(-0.002314099428 -0.005959799949 0)
(-0.002336125172 -0.006933423785 0)
(-0.001652783295 0.0003563545215 0)
(-0.0007680551154 0.01216683342 0)
(-0.0005151486355 0.0121629671 0)
(0.003409466786 0.008455769278 0)
(0.003448215082 0.009425395219 0)
(0.002427512879 0.00944337332 0)
(0.002407623633 0.008958391023 0)
(0.002387286425 0.008474007043 0)
(0.003028822772 0.01186181787 0)
(0.003538668117 0.0118527724 0)
(-0.0002604646744 0.01215847239 0)
(-0.0008447268046 0.004654525671 0)
(-0.001339911974 0.004657448154 0)
(-0.001369147686 0.00417697556 0)
(-0.0008746501986 0.004174294858 0)
(-0.0008143525056 0.005135108242 0)
(-0.001310885787 0.005138558917 0)
(-0.000344331958 0.004649811271 0)
(-0.0003140459822 0.005130169616 0)
(0.003238961549 0.004585172328 0)
(0.003283647179 0.005551451566 0)
(0.002253591193 0.005572355965 0)
(0.002203249569 0.004608059719 0)
(0.002366591965 0.007989631145 0)
(0.002345680603 0.007505667357 0)
(0.003369246633 0.007487081532 0)
(-0.0005748307166 0.01045962618 0)
(-0.0008331082192 0.01046515234 0)
(-0.0008382260369 0.01022076482 0)
(-0.0005822342856 0.01021605954 0)
(-0.002503932687 0.006605828582 0)
(-0.002489638682 0.006846479409 0)
(-0.00275216347 0.006853458992 0)
(-0.0007355854405 0.006581659963 0)
(-0.0007110289849 0.007064591147 0)
(-0.001209714161 0.007068859666 0)
(-0.001221722341 0.00682707125 0)
(-0.001233496205 0.006585820473 0)
(-0.0005676606104 0.01070315286 0)
(-0.0008278150819 0.01070930966 0)
(-0.0003195740113 0.010455209 0)
(-0.000311408619 0.01069835121 0)
(0.001450004802 0.01042970042 0)
(0.00146873772 0.01091556853 0)
(0.0009626292477 0.01092339835 0)
(0.0009437565719 0.01043735242 0)
(0.0009974115528 0.01189551198 0)
(0.001504182146 0.01188735047 0)
(-0.002917604396 0.002732724308 0)
(-0.002908186258 0.002974842785 0)
(-0.001258402106 0.006102942439 0)
(-0.0007604654464 0.006098826588 0)
(-0.002510813678 0.006361661933 0)
(-0.002569913098 0.004661836933 0)
(-0.002559200328 0.004903383185 0)
(0.0008169099874 -0.005056961349 0)
(-0.0002194182984 -0.005033517078 0)
(-0.001255751106 -0.005010072704 0)
(0.007025023576 -0.005188968525 3.58726937e-13)
(0.004962236697 -0.005150738742 0)
(0.004917248609 -0.007095799863 3.592126596e-13)
(0.005072355187 -0.0002830717807 0)
(0.005050339673 -0.001256243399 0)
(0.001371274679 0.008490521688 0)
(0.001391757027 0.008974721405 0)
(0.0008857861021 0.008982231396 0)
(0.0008654102404 0.00849793878 0)
(0.0009250032516 0.009951982465 0)
(0.001431143973 0.009944378143 0)
(-0.0003280051887 0.01021211805 0)
(0.003021719837 0.0007374407001 0)
(0.003084275824 0.001693859489 0)
(0.002051992068 0.001712687776 0)
(0.001985387029 0.0007608850739 0)
(0.002149628406 0.00364519501 0)
(0.003194111238 0.00361921353 0)
(-0.0003754327851 0.004169833319 0)
(-0.001211699623 -0.003062825033 0)
(-0.001189673891 -0.002089201197 0)
(-0.002226006683 -0.002065756823 0)
(-0.002248032426 -0.003039380659 0)
(-0.001474495337 0.01141197792 0)
(-0.00129552956 0.01144204392 0)
(-0.001365653868 0.01175319572 0)
(-0.0005416703377 0.01143322435 0)
(-0.0005341677853 0.01167728645 0)
(-0.0007939209915 0.01168280074 0)
(-0.000799504378 0.01143833327 0)
(-0.002581230816 0.004420349612 0)
(-0.002434590368 0.002732429898 0)
(-0.002401269095 0.00321376021 0)
(-0.002886174207 0.003212061381 0)
(-0.000974532873 0.002737450778 0)
(-0.0009411469841 0.003216517384 0)
(-0.001431833665 0.003217030612 0)
(-0.001460283823 0.002736042553 0)
(-0.002948553656 0.002497246219 0)
(-0.001599635703 0.01047828528 0)
(-0.00160688471 0.01023485088 0)
(-0.001353695335 0.01023124963 0)
(-0.001353703245 0.01047701995 0)
(-0.001625910673 0.009505029043 0)
(-0.001370496618 0.009500427322 0)
(-0.001361495854 0.009742736221 0)
(-0.001613199266 0.009746122877 0)
(-0.0006070611596 0.009487454814 0)
(-0.0005985516 0.00972991056 0)
(-0.000851404051 0.009733685169 0)
(-0.0008600428262 0.009491277591 0)
(-0.001850872262 0.009744848623 0)
(-0.001875887037 0.009507697956 0)
(-0.001784938736 0.01045116784 0)
(-0.001851511675 0.01025038405 0)
(-0.001662943242 0.008533644983 0)
(-0.001659460716 0.008778386207 0)
(-0.00191895366 0.0087839851 0)
(-0.001920626456 0.008538840977 0)
(-0.001909063519 0.009272767947 0)
(-0.001644879094 0.009265750819 0)
(-0.002740727128 0.007626389905 0)
(-0.002441007753 0.007566356307 0)
(-0.002430950639 0.007809319982 0)
(-0.002671942266 0.007823549305 0)
(-0.001688364766 0.007558514398 0)
(-0.00167995663 0.007801786846 0)
(-0.001932058681 0.00780509203 0)
(-0.00193973132 0.007561531474 0)
(-0.001924934331 0.008294616119 0)
(-0.001667817841 0.00828956868 0)
(-0.001732673661 0.006590688311 0)
(-0.001720969675 0.00683185018 0)
(-0.001973614224 0.006835574841 0)
(-0.00198523988 0.006594275466 0)
(-0.001949065479 0.00731832522 0)
(-0.001698156094 0.007315499465 0)
(-0.002683966332 0.007319838681 0)
(-0.002448817079 0.007322753598 0)
(-0.001674606625 0.01079067785 0)
(-0.000808240157 0.01119497774 0)
(-0.0005501410431 0.01118954611 0)
(-0.00154095977 0.01120359055 0)
(-0.001317872263 0.01120324923 0)
(-0.001359135733 0.01072472279 0)
(-0.002863313254 0.003694804697 0)
(0.008576478241 0.00932684593 0)
(0.01529973456 0.009811063586 3.469169396e-13)
(0.0136581663 0.01011876317 3.565620021e-13)
(0.01351330322 0.008143408205 3.54410945e-13)
(-0.0008692920947 0.009248883824 0)
(-0.0006169942549 0.009245393231 0)
(-0.00138273041 0.009259005969 0)
(-0.001405496203 0.008528409087 0)
(-0.001399196689 0.008772272176 0)
(0.00457785581 0.01232012506 0)
(0.007653180987 0.01226150297 0)
(0.006628647108 0.01228110608 0)
(-0.001015517432 0.01216899301 0)
(-0.001044529689 0.01193197802 0)
(-0.0007840457435 0.01192608524 0)
(-0.0005252696603 0.0119206383 0)
(-0.0002852756829 0.01142832898 0)
(-0.0002770803558 0.01167219442 0)
(0.0004753587263 0.01141713914 0)
(0.0004841311128 0.01166031286 0)
(0.000231327264 0.01166399588 0)
(0.000222380989 0.0114207356 0)
(0.0002476714521 0.01214987278 0)
(0.000501076587 0.01214576895 0)
(-0.002174394981 0.008542681555 0)
(-0.002164806883 0.008785112902 0)
(-0.002350430131 0.008757640741 0)
(-0.002418522032 0.008558112931 0)
(-0.002235290846 0.009096046616 0)
(-0.002602363594 0.008022998236 0)
(-0.002418704689 0.008051238753 0)
(-0.002485858612 0.008361373216 0)
(-0.002179357466 0.008052520377 0)
(-0.002180811478 0.008299047337 0)
(-0.002874895305 0.003453232866 0)
(-0.002714802049 0.007085579635 0)
(-0.002531707032 0.005631294161 0)
(-0.002524861091 0.00587451146 0)
(-0.001779074706 0.005623181024 0)
(-0.001767561511 0.005864709168 0)
(-0.002016681463 0.005866634788 0)
(-0.002027747986 0.005625051295 0)
(-0.001995913893 0.006351642461 0)
(-0.001744988896 0.006348906842 0)
(-0.001237166651 0.01216939228 0)
(-0.001303181183 0.01195407226 0)
(-0.001054619702 0.01144234005 0)
(-0.001054483289 0.01168865005 0)
(-0.001612110423 0.009991053986 0)
(-0.001916842027 0.01005332748 0)
(-0.002029193341 0.009714360842 0)
(-0.002097630243 0.009507782637 0)
(-0.001655877087 0.009023396612 0)
(-0.001921651107 0.009030947394 0)
(-0.002168179559 0.009294827447 0)
(-0.002191361182 0.007564509263 0)
(-0.002183195197 0.007807877679 0)
(-0.002466605213 0.007083448673 0)
(-0.002213832426 0.00707999258 0)
(-0.002200232626 0.007321156806 0)
(-0.001609832546 0.01099014498 0)
(-0.001348932026 0.01096736644 0)
(-0.001083220982 0.01095977184 0)
(-0.001065981493 0.01120008456 0)
(-0.001094094533 0.01047141844 0)
(-0.001092449752 0.01071674418 0)
(0.008679414877 0.012241047 0)
(0.01176187097 0.01217963939 0)
(0.009705784432 0.01222058796 0)
(0.01650611329 0.009322929084 3.305133944e-13)
(0.01677370169 0.006999106915 2.48134846e-13)
(0.01728247025 0.007892805724 2.801786581e-13)
(0.01688798046 0.006248714931 2.742667204e-13)
(0.01586703811 0.006101751053 2.158551116e-13)
(0.0100201697 0.003144134988 1.097733016e-13)
(0.01231758858 0.004112013686 1.442873598e-13)
(0.01156514981 0.003134972486 1.355304757e-13)
(0.007583479284 0.00224723376 7.802092306e-14)
(0.001332480284 0.0003389190556 1.160183061e-14)
(0.003036948482 0.0008108742833 2.786659792e-14)
(0.002511939979 0.0005466457357 2.306488334e-14)
(-0.0002341369197 0.006576062074 0)
(-0.0002098920197 0.007059181286 0)
(0.001281616359 0.006555074034 0)
(0.001305420133 0.007038293714 0)
(0.0007986940053 0.00704582079 0)
(0.0007754368221 0.00656236252 0)
(0.0008441605763 0.008013620687 0)
(0.001350073735 0.008006157248 0)
(0.009331124792 0.002525169572 0)
(0.01430286821 0.00220557401 3.287647932e-13)
(0.01300477789 0.002350738263 3.458344722e-13)
(0.01281328208 0.0004770469034 3.420319583e-13)
(0.01336142484 0.006188848548 3.520517211e-13)
(0.01516876417 0.002045613084 3.071431998e-13)
(0.01450461687 0.001445294472 2.156191892e-13)
(0.01530130378 0.001659286747 2.495920137e-13)
(0.01463055189 0.000307217454 2.389477505e-13)
(0.01634775692 0.004628308946 2.658984144e-13)
(0.01318621834 0.001222138789 1.800087857e-13)
(0.007113863606 0.0005597561316 7.802092306e-14)
(0.009348166993 0.000771069465 1.096900348e-13)
(0.008740692315 0.0001702056353 1.026123631e-13)
(0.01096160824 0.002281912549 1.285221929e-13)
(0.004892006637 0.0003685857419 5.037636974e-14)
(0.0003783123076 2.50725415e-05 3.28903571e-15)
(0.001462757946 0.0001011785674 1.34336986e-14)
(0.001036749587 2.041718429e-05 9.520162436e-15)
(0.002211306662 0.0003717733771 2.030320356e-14)
(-0.0001753668105 -0.003086269407 0)
(-0.0001533410666 -0.002112645571 0)
(0.002933627091 -0.003156602425 0)
(0.002955652835 -0.00218297859 0)
(0.001919320027 -0.002159534216 0)
(0.001897294283 -0.003133158052 0)
(0.001963361285 -0.0002127387619 0)
(0.002999694093 -0.0002361831356 0)
(0.008969943048 -0.005152955479 3.532590886e-13)
(0.01297884378 -0.004469120997 3.012728955e-13)
(0.01204520451 -0.004792409616 3.242961455e-13)
(0.01170017714 -0.006362835588 3.153727279e-13)
(0.01254106888 -0.001333979032 3.363698209e-13)
(0.01341203848 -0.00406264683 2.734062976e-13)
(0.01153024896 -0.002531410075 1.718070131e-13)
(0.01266802896 -0.003071122355 2.074035388e-13)
(0.01204207453 -0.003979613089 1.971339758e-13)
(0.01410237046 -0.0009419170909 2.306765889e-13)
(0.01018284623 -0.002039845296 1.392636007e-13)
(0.00454826109 -0.0007135701507 4.993228053e-14)
(0.006506327378 -0.001101751778 7.643885525e-14)
(0.005566933517 -0.001292390418 6.536438057e-14)
(0.007862806715 -0.0003409332177 9.23150445e-14)
(0.00272240127 -0.0003981396323 2.804700916e-14)
(0 0 0)
(0.0002884602404 -3.722340222e-05 2.650657471e-15)
(0.0001346502827 -2.405988881e-05 1.235123115e-15)
(0.0007818192749 -2.335422371e-05 7.188694084e-15)
(-0.001402823785 -0.01265157931 3.551742234e-13)
(-0.003469312771 -0.01265432572 3.565481244e-13)
(-0.003393211212 -0.01421147096 3.473332733e-13)
(-0.003372453458 -0.006909979513 0)
(-0.003416504946 -0.008857227185 0)
(0.0006495373784 -0.01259547292 3.523292769e-13)
(0.006356241884 -0.01185582596 3.283623373e-13)
(0.004581154627 -0.01222256767 3.395617121e-13)
(0.004380511661 -0.01341962874 3.24129612e-13)
(0.004846981735 -0.00898025883 3.56770169e-13)
(0.007914639584 -0.01134468226 3.133604487e-13)
(0.01059631809 -0.00892907863 2.455535775e-13)
(0.01009549278 -0.009872167887 2.716993297e-13)
(0.009364568478 -0.01048589433 2.514100039e-13)
(0.01126339695 -0.007765661433 3.037153862e-13)
(0.01065266877 -0.007877677837 2.166183899e-13)
(0.008247344661 -0.004436922776 1.225408663e-13)
(0.009437093787 -0.005589674231 1.540434447e-13)
(0.008374500343 -0.005682143235 1.364741653e-13)
(0.01128735411 -0.004720540111 1.846856001e-13)
(0.006778956435 -0.003338349547 9.243994459e-14)
(0.002012454592 -0.0007897727456 2.205180483e-14)
(0.00350922161 -0.001476858979 4.113376306e-14)
(0.002761789557 -0.001335203171 3.234912338e-14)
(0.004939636041 -0.00145823044 5.796751967e-14)
(0.0008296204666 -0.0003052098842 8.534839502e-15)
(0 0 0)
(0 0 0)
(0 0 0)
(1.290643904e-05 -2.948448841e-06 1.110223025e-16)
(-0.001038550842 -0.01611522508 2.811362254e-13)
(-0.002708448581 -0.01630835565 2.850358838e-13)
(-0.002371493444 -0.01599167727 2.552402734e-13)
(-0.003234580165 -0.0153840417 3.319428066e-13)
(0.0005879256056 -0.01576222087 2.745026428e-13)
(0.004709066723 -0.01370347939 2.375877273e-13)
(0.003512588669 -0.01455782657 2.527283938e-13)
(0.0031437932 -0.01402139147 2.225719609e-13)
(0.004134357458 -0.01423917372 3.042149865e-13)
(0.005662911435 -0.0126878039 2.197547699e-13)
(0.006706594002 -0.008860559234 1.533079219e-13)
(0.006685178181 -0.01023888993 1.771499614e-13)
(0.005687598431 -0.009462436179 1.498245972e-13)
(0.008543380245 -0.01076057582 2.28581043e-13)
(0.006399956136 -0.007430214711 1.285915818e-13)
(0.003896216107 -0.003311443749 5.74817971e-14)
(0.004932017875 -0.004603667412 7.981115768e-14)
(0.003808191623 -0.003874144841 6.145084441e-14)
(0.007249674553 -0.005539458518 1.178918074e-13)
(0.00278142317 -0.002170010636 3.770594947e-14)
(0.0001814048941 -0.0001138511491 1.984523657e-15)
(0.0007917165088 -0.0005311679309 9.24260668e-15)
(0.0003488930342 -0.0002559109994 4.080069615e-15)
(0.002035584862 -0.001111375547 2.381428388e-14)
(0 0 0)
(0 0 0)
(0 0 0)
(0 0 0)
(0 0 0)
(-0.0003895080761 -0.01188204903 1.503380753e-13)
(-0.001292667213 -0.0121520499 1.538630334e-13)
(-0.0009693653784 -0.01015236422 1.202649091e-13)
(-0.002010430368 -0.01515990427 2.22627472e-13)
(0.0004689430502 -0.01142395116 1.444400155e-13)
(0.002385693697 -0.009040193471 1.141309269e-13)
(0.00189127035 -0.009985767273 1.261213356e-13)
(0.001464551183 -0.00809003364 9.565959136e-14)
(0.002744251241 -0.01304219789 1.906946823e-13)
(0.002700921827 -0.007976627822 1.006972283e-13)
(0.002499943064 -0.004435366101 5.59968738e-14)
(0.002751636301 -0.005632640011 7.109590694e-14)
(0.001901247459 -0.004130261348 4.882205751e-14)
(0.004678832167 -0.008390713418 1.224714774e-13)
(0.002098171471 -0.003284649364 4.149458555e-14)
(0.0005398042332 -0.0006252781426 7.91033905e-15)
(0.001047776168 -0.001328416707 1.679212325e-14)
(0.0004630339268 -0.0006259624487 7.410738689e-15)
(0.002759418164 -0.003037727742 4.440892099e-14)
(0.0001583851263 -0.0001689654525 2.137179322e-15)
(0 0 0)
(0 0 0)
(0 0 0)
(7.484748732e-05 -5.959962474e-05 8.743006319e-16)
(0 0 0)
(0 0 0)
(0 0 0)
(0 0 0)
(0 0 0)
(-4.728415385e-05 -0.003572992569 3.547162564e-14)
(-0.000265001566 -0.003745792457 3.719247132e-14)
(-0.0001299702551 -0.001999948671 1.884603584e-14)
(-0.000686296696 -0.007984783399 8.887335312e-14)
(0.0001460754255 -0.0032898063 3.265443471e-14)
(0.0004269568355 -0.001959682071 1.945665851e-14)
(0.0003933949445 -0.002459046582 2.439715097e-14)
(0.0001678358431 -0.00109346259 1.029731855e-14)
(0.001060095594 -0.006108774612 6.790401574e-14)
(0.0003986598904 -0.001445518224 1.434963259e-14)
(8.88660572e-05 -0.0001978085561 1.970645869e-15)
(0.00020486337 -0.000523232501 5.19029264e-15)
(1.547862738e-05 -4.159158886e-05 3.885780586e-16)
(0.001172631172 -0.002694645072 2.994826609e-14)
(1.027953785e-05 -2.028397444e-05 1.942890293e-16)
(0 0 0)
(0 0 0)
(0 0 0)
(0.0001053422127 -0.000151344537 1.679212325e-15)
(0 0 0)
(0 0 0)
(0 0 0)
(0 0 0)
(0 0 0)
(0 0 0)
(0 0 0)
(0 0 0)
(0 0 0)
(0 0 0)
(0 0 0)
(0 0 0)
(0 0 0)
(-4.355168724e-05 -0.0007211138575 6.467049118e-15)
(0 0 0)
(0 0 0)
(0 0 0)
(0 0 0)
(3.425937266e-05 -0.0002330567194 2.081668171e-15)
(0 0 0)
(0 0 0)
(0 0 0)
(0 0 0)
(0 0 0)
(0 0 0)
(0 0 0)
(0 0 0)
(0 0 0)
(0 0 0)
(0 0 0)
(0 0 0)
(0 0 0)
(0 0 0)
(0 0 0)
(0 0 0)
(0 0 0)
(0 0 0)
(0 0 0)
(0 0 0)
(0 0 0)
(0 0 0)
(0 0 0)
(0 0 0)
(0 0 0)
(0 0 0)
(0 0 0)
(0 0 0)
(0 0 0)
(0 0 0)
(0 0 0)
(0 0 0)
(0 0 0)
(0 0 0)
(0 0 0)
(0 0 0)
(0 0 0)
(0 0 0)
(0 0 0)
(0 0 0)
(0 0 0)
(0 0 0)
(0 0 0)
(0 0 0)
(0 0 0)
(0 0 0)
(0 0 0)
(0 0 0)
(0 0 0)
(0 0 0)
(0 0 0)
(0 0 0)
(0 0 0)
(0 0 0)
(0 0 0)
(0 0 0)
(0 0 0)
(0 0 0)
(0 0 0)
(0 0 0)
(0 0 0)
(0 0 0)
(0 0 0)
(0 0 0)
(0 0 0)
(0 0 0)
(0 0 0)
(0 0 0)
(0 0 0)
(0 0 0)
(0 0 0)
(0 0 0)
(0 0 0)
(0 0 0)
(0 0 0)
(0 0 0)
(0 0 0)
(0 0 0)
(0 0 0)
(0 0 0)
(0 0 0)
(0 0 0)
(0 0 0)
(0 0 0)
(0 0 0)
(0 0 0)
(0 0 0)
(0 0 0)
(0 0 0)
(0 0 0)
(0 0 0)
(0 0 0)
(0 0 0)
(0 0 0)
(0 0 0)
(0 0 0)