/*--------------------------------*- C++ -*----------------------------------*\
| =========                 |                                                 |
| \\      /  F ield         | OpenFOAM: The Open Source CFD Toolbox           |
|  \\    /   O peration     | Version:  v2012                                 |
|   \\  /    A nd           | Website:  www.openfoam.com                      |
|    \\/     M anipulation  |                                                 |
\*---------------------------------------------------------------------------*/
FoamFile
{
    version     2.0;
    format      ascii;
    class       volVectorField;
    location    "3";
    object      U;
}
// * * * * * * * * * * * * * * * * * * * * * * * * * * * * * * * * * * * * * //

dimensions      [0 1 -1 0 0 0 0];


internalField   nonuniform List<vector> 
3019
(
(103.4679645 -29.63064063 -5.263245158e-19)
(107.3896127 -19.23181458 8.465232257e-19)
(107.2207609 -13.54800193 6.37084658e-19)
(105.9775415 -9.67350399 6.382596729e-19)
(104.5395556 -6.98312816 2.993148048e-19)
(103.1484697 -5.085602095 1.381713218e-19)
(101.684063 -3.650651777 -6.678312177e-20)
(100.8943041 -2.694814011 0)
(100.0249898 -1.851349556 0)
(99.63960838 -1.252526547 1.182626402e-20)
(99.39719761 -0.7304247825 2.181083123e-21)
(99.27233262 -0.2405769711 -7.063328019e-21)
(96.81560154 -19.19931473 1.331535241e-19)
(102.4178149 -15.78064479 0)
(103.5355422 -12.31331326 3.826633627e-19)
(103.2967694 -9.412885439 0)
(102.5778106 -7.140179778 -4.902425924e-19)
(101.6784528 -5.376865111 -5.765684427e-20)
(100.6410521 -3.92615107 -9.226619423e-20)
(100.0750579 -2.940487764 -3.472623988e-20)
(99.3949748 -2.01346475 -1.924088805e-20)
(99.08796695 -1.367203126 1.893601646e-20)
(98.89050704 -0.799962106 0)
(98.78782164 -0.2634679712 1.8916469e-20)
(98.38271262 -12.50947143 -1.62972061e-19)
(100.4279861 -12.14648783 -8.861571698e-20)
(101.2249004 -10.46495179 -1.143330847e-19)
(101.2647176 -8.560716932 0)
(100.9012771 -6.816870597 0)
(100.3362894 -5.335891532 -2.443095382e-20)
(99.62167771 -3.983864083 0)
(99.25405895 -3.04070424 0)
(98.73973044 -2.083273108 -3.567617026e-20)
(98.50445389 -1.426276408 1.76043117e-20)
(98.35080856 -0.8373031972 7.376613986e-22)
(98.26981486 -0.2757980752 -1.302049038e-20)
(99.28438333 -9.616587121 1.61462182e-19)
(99.76469536 -9.577928874 1.435950627e-20)
(99.92566118 -8.73988888 -2.708819461e-21)
(99.83691532 -7.533172833 0)
(99.57018617 -6.250210382 1.838119084e-20)
(99.18714731 -5.064314974 0)
(98.69472423 -3.878126671 -2.983829773e-20)
(98.47513349 -3.021583257 4.55733581e-20)
(98.0894127 -2.078557693 1.107237215e-20)
(97.91546325 -1.436744399 1.88975956e-20)
(97.79993141 -0.8458271625 -2.146177941e-20)
(97.73787781 -0.278646902 0)
(99.80294523 -7.799529518 -4.894332382e-21)
(99.49106674 -7.808121967 1.558254046e-20)
(99.16186775 -7.325295715 5.336733529e-20)
(98.85682372 -6.533008946 0)
(98.546761 -5.605120571 0)
(98.24197112 -4.677234142 0)
(97.88851614 -3.674199003 0)
(97.75662672 -2.912025905 0)
(97.46751894 -2.016939774 3.818150908e-20)
(97.34165095 -1.407841452 -3.571328166e-20)
(97.25591473 -0.8304657598 -2.417019428e-21)
(97.20880651 -0.2739946425 2.425059282e-21)
(100.0494989 -6.529264502 -6.674656968e-20)
(99.30217428 -6.518597494 -1.431855855e-21)
(98.6522458 -6.199884712 7.759118721e-21)
(98.15881122 -5.649669948 0)
(97.77349035 -4.968225911 0)
(97.48093621 -4.246024636 0)
(97.19388339 -3.406764252 0)
(97.10911707 -2.740338352 0)
(96.88700873 -1.913343852 0)
(96.7956999 -1.347581041 0)
(96.73215308 -0.7976368267 0)
(96.69605831 -0.2642424093 0)
(100.1438591 -5.5677552 5.48150306e-22)
(99.14085106 -5.532095773 -6.414913e-21)
(98.28924015 -5.297204004 0)
(97.64925663 -4.895518435 0)
(97.1845713 -4.381784595 0)
(96.86892364 -3.811379932 0)
(96.60430711 -3.111216417 0)
(96.53717428 -2.536131968 0)
(96.35512075 -1.78511738 0)
(96.28584648 -1.267346624 0)
(96.23669303 -0.7521696729 0)
(96.20898651 -0.2498041016 0)
(100.1920678 -4.798819515 0)
(99.02221151 -4.751481779 0)
(98.0216201 -4.565355421 0)
(97.2656152 -4.258114684 0)
(96.72585988 -3.858760801 0)
(96.37174206 -3.40017111 0)
(96.10515482 -2.813540315 0)
(96.03622517 -2.31957392 0)
(95.8740953 -1.645254521 0)
(95.81667731 -1.176063508 0)
(95.77548915 -0.699603046 0)
(95.75292164 -0.2328243441 0)
(100.2068552 -4.172508138 -4.807580767e-35)
(98.91845258 -4.118837034 0)
(97.81098888 -3.963938213 0)
(96.96576268 -3.719013935 0)
(96.36028566 -3.399692992 0)
(95.96397535 -3.025720248 0)
(95.68059615 -2.529946851 0)
(95.59861935 -2.104511488 0)
(95.44252957 -1.502881596 0)
(95.38917989 -1.080539345 0)
(95.3509866 -0.644031734 0)
(95.33114475 -0.2147714736 0)
(100.196986 -3.655333051 0)
(98.82385309 -3.597105413 0)
(97.6379589 -3.463403903 0)
(96.72373927 -3.261531288 0)
(96.06254819 -2.999755717 0)
(95.62560068 -2.689607982 0)
(95.31737961 -2.267537524 0)
(95.21622386 -1.899322351 0)
(95.05698523 -1.36428034 0)
(95.00218982 -0.9856863802 0)
(94.96343899 -0.5884417511 0)
(94.94448267 -0.1966402016 0)
(100.1713241 -3.222198495 -6.387367751e-35)
(98.73597713 -3.161140535 0)
(97.49116462 -3.042786956 0)
(96.52307944 -2.871918248 0)
(95.81519543 -2.652661719 0)
(95.3408197 -2.39135568 0)
(95.00497526 -2.02913757 0)
(94.88133079 -1.708759537 0)
(94.71317251 -1.233493606 0)
(94.65329749 -0.8947909417 0)
(94.61161771 -0.5348702333 0)
(94.59222287 -0.1791037159 0)
(100.1353436 -2.856027508 0)
(98.65351931 -2.793426012 0)
(97.36358398 -2.686803782 0)
(96.35296602 -2.539111814 0)
(95.60607026 -2.352100202 0)
(95.09801775 -2.128819317 0)
(94.73430486 -1.815492742 0)
(94.58704105 -1.535149208 0)
(94.40662291 -1.112864768 0)
(94.3394397 -0.8099016568 0)
(94.29334527 -0.4846240806 0)
(94.27260098 -0.1625981994 0)
(100.0926407 -2.544666175 2.189562641e-35)
(98.57569891 -2.481426885 0)
(97.25067434 -2.384142338 0)
(96.20609854 -2.254331865 0)
(95.42658321 -2.092348393 0)
(94.88861164 -1.899166573 0)
(94.49805776 -1.626039108 0)
(94.32735751 -1.379261574 0)
(94.13298349 -1.003539083 0)
(94.05726701 -0.7321795947 0)
(94.00591644 -0.4384759933 0)
(93.98322801 -0.1473870947 0)
(100.0456021 -2.279054859 0)
(98.50195283 -2.215818016 0)
(97.1493211 -2.126181679 0)
(96.07736026 -2.010523989 0)
(95.27048445 -1.868355362 0)
(94.70609563 -1.699340196 0)
(94.29032283 -1.459495684 0)
(94.09711444 -1.240911238 0)
(93.88815798 -0.9058664163 0)
(93.80337394 -0.6621609486 0)
(93.74638244 -0.3968129258 0)
(93.7213912 -0.1336084749 0)
(99.99585183 -2.052304688 0)
(98.43183744 -1.989531509 0)
(97.05730323 -1.906279686 0)
(95.9630667 -1.802041451 0)
(95.13313953 -1.675805231 0)
(94.54547401 -1.526408368 0)
(94.10633317 -1.314283964 0)
(93.89191823 -1.119397396 0)
(93.6683659 -0.819701849 0)
(93.57443134 -0.5999597928 0)
(93.51171914 -0.3597528264 0)
(93.48423416 -0.1213118916 0)
(99.94449008 -1.859076225 0)
(98.36495453 -1.797059864 0)
(96.97294474 -1.719193291 0)
(95.86044783 -1.624292225 0)
(95.01099005 -1.511008293 0)
(94.40279517 -1.377658499 0)
(93.9421387 -1.188707996 0)
(93.70795826 -1.013727114 0)
(93.47014887 -0.7446035943 0)
(93.36725631 -0.5454205503 0)
(93.29893091 -0.3272386928 0)
(93.26887309 -0.110488512 0)
(99.8922438 -1.695170535 0)
(98.30093853 -1.634076459 0)
(96.89494327 -1.560772034 0)
(95.76736954 -1.473564507 0)
(94.90125279 -1.370874038 0)
(94.27489269 -1.250690891 0)
(93.79445854 -1.081131505 0)
(93.54194954 -0.9228169448 0)
(93.29039041 -0.6799959313 0)
(93.1788835 -0.4982398079 0)
(93.10515602 -0.2991146718 0)
(93.07251792 -0.1010960087 0)
(99.83960599 -1.557184394 0)
(98.2394454 -1.497103564 0)
(96.82223971 -1.427671109 0)
(95.68211962 -1.346822608 0)
(94.80166986 -1.252809121 0)
(94.15912998 -1.143397641 0)
(93.6605197 -0.9900483507 0)
(93.39101895 -0.8455985307 0)
(93.12621507 -0.6252419051 0)
(93.00650851 -0.4580409511 0)
(92.92763251 -0.2751717064 0)
(92.89244291 -0.09307263828 0)
(99.78693449 -1.442378514 -3.577401206e-36)
(98.18016658 -1.38335561 0)
(96.7539554 -1.317204125 0)
(95.6032946 -1.241600284 0)
(94.71038455 -1.154679884 0)
(94.05325456 -1.054157198 0)
(93.5379181 -0.9142192483 0)
(93.25262144 -0.7810639365 0)
(92.97517797 -0.5797679623 0)
(92.84769818 -0.4244283784 0)
(92.76393969 -0.2551931574 0)
(92.72626019 -0.08635529405 0)
(99.73449526 -1.348591834 0)
(98.12282538 -1.290626944 0)
(96.68934222 -1.227229835 0)
(95.52971534 -1.155903073 0)
(94.62586794 -1.07471531 0)
(93.9556494 -0.9816084814 0)
(93.42436817 -0.8526386018 0)
(93.12447871 -0.7283578893 0)
(92.83442021 -0.5428829073 0)
(92.69957135 -0.3970215138 0)
(92.61114069 -0.238943659 0)
(92.57098397 -0.08086558032 0)
(99.68245898 -1.274126628 0)
(98.06714967 -1.217172433 0)
(96.62772381 -1.156039917 0)
(95.4603305 -1.088114838 0)
(94.54673372 -1.011409527 0)
(93.86466503 -0.9238692914 0)
(93.31804814 -0.8039681919 0)
(93.00442175 -0.6864321386 0)
(92.70369196 -0.5146061815 0)
(92.5618967 -0.3754933068 0)
(92.46904931 -0.2263110475 0)
(92.42658315 -0.07659195834 0)
(99.63093125 -1.217691441 0)
(98.01287268 -1.161656232 0)
(96.56848132 -1.102316451 0)
(95.39419003 -1.036986134 0)
(94.47168991 -0.9636375622 0)
(93.77837447 -0.8801184596 0)
(93.21753225 -0.7672951744 0)
(92.89073166 -0.6555009698 0)
(92.57425087 -0.4922923508 0)
(92.42492027 -0.3594552335 0)
(92.32753041 -0.2168945037 0)
(92.28235925 -0.07333181869 0)
(99.57995569 -1.178347322 0)
(97.95970801 -1.123089482 0)
(96.51102011 -1.065069654 0)
(95.33041979 -1.001576123 0)
(94.3996136 -0.9305685479 0)
(93.69562936 -0.8498097112 0)
(93.12131369 -0.742188181 0)
(92.78211362 -0.6345467725 0)
(92.47139818 -0.4815701812 0)
(92.31754332 -0.3497324185 0)
(92.21673905 -0.2114773615 0)
(92.17000909 -0.07158884817 0)
(99.52960647 -1.155484767 0)
(97.90740403 -1.100810499 0)
(96.45480489 -1.043608562 0)
(95.26824666 -0.9812148125 0)
(94.32951757 -0.9115931556 0)
(93.61518692 -0.8325988696 0)
(93.03214359 -0.7284995438 0)
(92.68252252 -0.6233744199 0)
(92.28241937 -0.4675525441 0)
(92.11529369 -0.341969508 0)
(92.00787926 -0.2067632828 0)
(91.95761346 -0.06961200998 0)
(103.265614 -30.40566021 -3.535170106e-19)
(104.1651255 -30.02413281 -4.695684942e-19)
(108.4701277 -21.15537829 6.226599229e-19)
(95.50006293 -20.28790552 -1.540115552e-19)
(102.9211934 -30.26431202 -3.132933597e-19)
(96.95981188 -20.55611218 -2.47538786e-19)
(102.669755 -17.89702495 7.111566018e-20)
(107.5209765 -20.89955499 -1.106646603e-18)
(97.26777865 -12.89135652 3.670957941e-19)
(95.50330704 -19.53730738 0)
(107.4396662 -25.74883423 -8.122299892e-19)
(97.61646676 -25.69004491 0)
(98.1217949 -26.39681227 -8.386370061e-20)
(99.09748875 -25.90199296 0)
(103.1051905 -23.00221628 -6.339054272e-20)
(106.2416863 -25.1710832 6.545518326e-19)
(105.3330375 -31.477486 4.839449387e-19)
(100.494242 -28.85100759 -5.003234248e-19)
(105.5303999 -31.5786021 5.015616417e-19)
(106.4621834 -31.34173297 5.02078493e-19)
(108.695647 -29.05603696 -1.233946758e-18)
(99.85572371 -28.30399975 -5.53856162e-19)
(98.08604513 -13.53899314 5.900366447e-20)
(100.261974 -13.32705192 0)
(101.7371712 -16.67258755 0)
(105.9431692 -27.95617333 -1.632827657e-20)
(107.9878675 -28.81874244 1.773175862e-18)
(106.1676394 -31.22479168 -4.818395689e-19)
(100.3539184 -19.39510509 -5.681767139e-20)
(102.2562906 -22.13788138 -2.42052563e-19)
(98.59295887 -25.24873638 -1.263153056e-19)
(96.0579447 -15.68066265 1.973453019e-19)
(93.6448807 -29.47570635 -1.815726159e-17)
(105.9584376 -31.71467811 5.941659594e-19)
(91.5738481 -23.94284438 2.452891338e-19)
(96.40294963 -23.43615271 0)
(96.41384851 -30.38407726 7.802508831e-19)
(98.57239603 -30.9209309 4.354058844e-19)
(104.5277397 -31.09847497 1.291123888e-18)
(93.70375716 -29.85652721 0)
(91.4137742 -29.29790099 0)
(96.2293648 -30.46398792 5.177357335e-19)
(94.24005614 -30.03656246 1.745743254e-18)
(82.59003999 -27.36437514 -1.55767869e-18)
(97.52628284 -30.35842263 2.628159049e-19)
(96.75390898 -30.56111383 -3.207371057e-19)
(97.27713369 -29.57443012 -3.500892572e-19)
(97.56495163 -30.21350367 -2.168018738e-19)
(83.86621838 -27.50804171 4.26226434e-20)
(90.54061276 -29.08483135 8.416818267e-18)
(105.9677716 -31.72166568 -5.666976889e-19)
(94.22569094 -29.68383679 -3.526419929e-18)
(94.93391609 -29.98930644 -6.906322603e-18)
(108.6143577 -20.21437385 3.46037075e-20)
(108.6835199 -14.95420765 -7.954542039e-19)
(104.217935 -30.99275583 -8.243864096e-19)
(98.91865904 -31.02791211 -1.267657508e-18)
(99.57912211 -30.9137472 0)
(101.9750297 -30.96037767 -1.397209136e-18)
(105.7931184 -31.66295264 -1.986267892e-18)
(107.551079 -31.65630052 -1.113234267e-20)
(109.2014453 -30.69175817 -1.739220739e-21)
(85.66458799 -28.13319656 4.70512131e-19)
(84.79890592 -27.97123526 0)
(82.08861515 -27.26221712 5.740179828e-18)
(86.78253351 -28.29036449 -2.002193493e-18)
(85.4119594 -28.08169642 -3.344985424e-19)
(96.51926324 -28.37749877 1.205603723e-19)
(97.09269842 -29.35773526 -1.469647975e-19)
(97.00576635 -29.84856882 6.302785508e-18)
(97.84443109 -30.23377368 2.055401994e-21)
(96.59922717 -29.93232505 0)
(92.41457247 -29.51673918 1.713482382e-19)
(88.05715797 -28.58246621 5.726675933e-18)
(88.64290259 -28.73960557 3.88872927e-18)
(91.16765976 -29.30725043 -3.879786911e-18)
(95.47435104 -30.31558042 1.142826758e-20)
(89.46272617 -28.95424003 0)
(91.05930087 -29.34169524 -5.407567696e-19)
(88.54351522 -28.70575933 -2.966527693e-18)
(88.05711122 -28.68884785 -7.537554693e-19)
(94.73451088 -30.22997091 0)
(89.34282098 -28.95329357 1.386820211e-19)
(88.3681436 -28.66130486 0)
(82.88902615 -27.42457756 1.415586235e-18)
(85.18986989 -27.76689079 -5.44502596e-20)
(90.86110645 -29.08697437 -4.09296547e-19)
(90.16454034 -29.00686891 3.459823433e-19)
(94.09090516 -29.7016773 2.747657936e-18)
(99.43160057 -30.84260944 -2.39654339e-18)
(99.01591892 -30.62663305 1.622315406e-18)
(100.4351538 -31.15384777 -2.735513917e-19)
(99.81655464 -31.05730044 -1.500034754e-20)
(93.59570435 -29.71658526 4.760265301e-18)
(108.3438039 -13.64182925 0)
(107.1528926 -10.45484695 5.299482161e-19)
(106.7296734 -9.5884091 0)
(105.4657996 -7.437178948 6.710553608e-19)
(105.057188 -6.843592124 0)
(103.8869347 -5.354504256 5.842756747e-19)
(101.4358042 -28.27049935 5.09370898e-19)
(103.4320106 -26.37329174 -2.630609201e-19)
(105.2883597 -27.60431375 -4.362167235e-19)
(103.3414114 -16.76041095 -6.664228113e-19)
(104.2787953 -13.64445718 4.067028958e-19)
(107.4356835 -14.77796932 -6.691575948e-19)
(104.3206895 -12.71299782 0)
(104.072726 -10.2635348 -2.271609156e-19)
(106.3270322 -10.50797377 -4.695296662e-19)
(103.9098009 -9.551592912 -4.950869423e-19)
(103.285275 -7.693487024 -1.014273112e-18)
(104.8989851 -7.5697269 0)
(103.0459166 -7.154961093 4.902827642e-19)
(102.2960174 -5.746626942 -2.408422054e-19)
(103.4877777 -5.497886013 -6.474630591e-19)
(97.11600805 -15.92387353 1.400309266e-19)
(99.22627729 -15.99713479 -1.392815768e-20)
(99.95745852 -18.46963326 8.278557762e-20)
(100.7376494 -12.95678174 1.36221996e-19)
(101.5708521 -11.47599973 0)
(103.4478535 -13.13998403 -2.09658773e-19)
(101.6887292 -10.93061626 1.427700615e-19)
(101.7611407 -9.320416202 -1.624086578e-19)
(103.4198213 -10.07672913 6.747916728e-19)
(101.711786 -8.804623087 0)
(101.4200072 -7.370088715 -3.772542534e-19)
(102.7793662 -7.654134305 7.302157041e-19)
(101.2875138 -6.929016136 0)
(100.8231569 -5.732610055 1.402169983e-21)
(101.9111495 -5.775362445 4.682374939e-19)
(98.57023103 -9.758991867 0)
(97.38483347 -11.84332762 1.634384899e-19)
(99.0920624 -10.20783974 -1.036498743e-19)
(99.71534735 -10.24985758 -1.462516277e-20)
(100.0419081 -12.42175438 1.983387811e-20)
(99.87266208 -10.1299261 2.385429339e-20)
(100.1495034 -9.44359731 0)
(101.119065 -10.9354962 1.143123486e-19)
(100.1839225 -9.145349018 2.373647587e-20)
(100.1792112 -8.143267261 -6.120429753e-23)
(101.303062 -9.030162862 1.619630363e-19)
(100.1462626 -7.790676256 8.396062115e-21)
(99.95771686 -6.742329712 1.89424902e-20)
(101.0172621 -7.231049429 7.010251715e-19)
(99.8714449 -6.403783248 -1.894070358e-20)
(99.56087575 -5.442571799 0)
(100.4857033 -5.678806212 0)
(99.52561238 -7.978872225 -1.129773861e-19)
(98.8614453 -9.243639253 6.981170727e-20)
(99.70334412 -8.189439758 0)
(99.5901629 -8.243663688 0)
(99.66792458 -9.671161049 2.194614715e-20)
(99.54580156 -8.195010886 1.115877115e-20)
(99.38242431 -7.825739396 -1.700279912e-21)
(99.91597975 -8.999166442 0)
(99.32170903 -7.649176145 0)
(99.13612248 -7.011516601 0)
(99.87669973 -7.851754533 1.342858133e-20)
(99.07049736 -6.773962727 0)
(98.85521228 -6.024058837 0)
(99.65189729 -6.566089187 1.361797438e-19)
(98.77645101 -5.768613674 0)
(98.53518467 -5.018601359 0)
(99.2830634 -5.344259278 0)
(100.0683756 -6.69853549 4.502465383e-20)
(99.69547151 -7.624710991 5.320098399e-20)
(100.0067836 -6.811243799 -1.836831917e-20)
(99.5065796 -6.838910216 0)
(99.57066393 -7.849158381 -8.56524971e-21)
(99.34687795 -6.80713727 -3.38221902e-20)
(98.89720325 -6.573125023 -1.984351892e-20)
(99.24320701 -7.482533443 -5.343345851e-20)
(98.76378405 -6.457909525 2.4790713e-20)
(98.41548689 -6.025295968 -3.636202839e-20)
(98.93201496 -6.749875394 0)
(98.31284292 -5.858276283 -4.971435748e-20)
(98.03214265 -5.313845312 0)
(98.62630837 -5.842047038 -6.722627704e-21)
(97.94688389 -5.123631998 0)
(97.71989828 -4.545224814 0)
(98.31368943 -4.902554224 0)
(100.306725 -5.71381463 0)
(100.1512933 -6.428199964 -1.617161487e-20)
(100.1279022 -5.787000368 5.090103366e-21)
(99.40596586 -5.784270204 -7.359431501e-21)
(99.48264121 -6.548784301 0)
(99.17706061 -5.756932491 6.441652918e-21)
(98.55114484 -5.587380147 0)
(98.7999047 -6.304974648 8.419484713e-20)
(98.36871183 -5.505224181 -6.468945227e-22)
(97.89738039 -5.194158914 0)
(98.26987709 -5.803536498 0)
(97.76272614 -5.072412339 0)
(97.41590053 -4.667518177 0)
(97.86151002 -5.145524524 0)
(97.3178279 -4.52268263 0)
(97.07415286 -4.071135935 0)
(97.5443323 -4.425088965 0)
(100.3985564 -4.939197526 0)
(100.3371961 -5.503688015 -7.526659947e-22)
(100.1833328 -4.976631681 0)
(99.32449108 -4.955622829 0)
(99.38226019 -5.559063555 0)
(99.05014466 -4.930990501 0)
(98.30192339 -4.797124801 0)
(98.48208426 -5.373520821 -8.347750534e-22)
(98.0821628 -4.734691804 0)
(97.51368188 -4.499900223 0)
(97.79108156 -5.008700303 0)
(97.35236849 -4.407541153 0)
(96.94354511 -4.096422818 0)
(97.28630943 -4.51759033 0)
(96.83059896 -3.9834125 0)
(96.55713555 -3.624655328 0)
(96.93422153 -3.95583503 0)
(100.4459827 -4.302703552 0)
(100.4132812 -4.768190593 0)
(100.2059401 -4.317609052 0)
(99.25011035 -4.288337871 0)
(99.30567753 -4.775606094 0)
(98.9434009 -4.265389295 0)
(98.10646141 -4.153868221 0)
(98.2489879 -4.624160478 0)
(97.85953968 -4.103852767 0)
(97.21730132 -3.918315366 0)
(97.43276012 -4.344845828 0)
(97.03449055 -3.845532551 0)
(96.5717975 -3.599013398 0)
(96.8425026 -3.965383405 0)
(96.44448583 -3.508682725 0)
(96.13749959 -3.218505423 0)
(96.44410683 -3.518610505 0)
(100.4624226 -3.774225959 4.111948837e-35)
(100.4525932 -4.161591467 4.817832439e-35)
(100.2012038 -3.775935519 -4.103306224e-35)
(99.17685328 -3.740543468 0)
(99.23170744 -4.141486912 0)
(98.846803 -3.718670229 0)
(97.94541687 -3.622055552 0)
(98.06349603 -4.011577042 0)
(97.67840596 -3.580337967 0)
(96.97980526 -3.428264551 0)
(97.15323309 -3.787947543 0)
(96.77984128 -3.369049045 0)
(96.27188603 -3.168372483 0)
(96.49097278 -3.485410733 0)
(96.13168307 -3.094531713 0)
(95.79228283 -2.855497969 0)
(96.04501838 -3.123310832 0)
(100.4570913 -3.329590785 0)
(100.4628169 -3.655956359 0)
(100.1788811 -3.323637845 0)
(99.10467815 -3.284117262 0)
(99.15869687 -3.618743675 0)
(98.75739919 -3.263150138 0)
(97.80801977 -3.177213823 0)
(97.90915773 -3.503472344 0)
(97.52584035 -3.141363434 0)
(96.7836846 -3.013070414 0)
(96.92741835 -3.318013741 0)
(96.57003074 -2.963606209 0)
(96.02448243 -2.79641949 0)
(96.20571414 -3.070196109 0)
(95.87304674 -2.734833902 0)
(95.50392388 -2.53455681 0)
(95.7154424 -2.771055743 0)
(100.4369483 -2.952186495 -5.540397077e-35)
(100.4532236 -3.229469374 6.400596085e-35)
(100.1450846 -2.942018274 5.529047967e-35)
(99.03392119 -2.899816862 0)
(99.08684222 -3.181890846 0)
(98.67367317 -2.879704657 0)
(97.6878019 -2.801900832 0)
(97.77654552 -3.077431333 0)
(97.39395572 -2.770410302 0)
(96.61770898 -2.659717208 0)
(96.73970647 -2.91937417 0)
(96.39307398 -2.617499031 0)
(95.81637885 -2.475465539 0)
(95.96918741 -2.711681756 0)
(95.6552836 -2.42320086 0)
(95.25958909 -2.252841016 0)
(95.4391382 -2.460269619 0)
(100.4068214 -2.63017011 0)
(100.4302029 -2.866876016 0)
(100.1038002 -2.617905402 0)
(98.96490504 -2.574043988 0)
(99.01649431 -2.813329001 0)
(98.59475244 -2.554757349 0)
(97.58067424 -2.483437657 0)
(97.65991835 -2.717373406 0)
(97.27771492 -2.455318347 0)
(96.47445253 -2.358108779 0)
(96.57999663 -2.579807934 0)
(96.24094484 -2.321436293 0)
(95.63840612 -2.198772332 0)
(95.76935427 -2.402385871 0)
(95.4690502 -2.153749284 0)
(95.04989304 -2.006895103 0)
(95.20423178 -2.187868503 0)
(100.3699505 -2.354745301 -1.913880265e-35)
(100.3981365 -2.557240235 -2.193998477e-35)
(100.057669 -2.341574245 1.91003872e-35)
(98.89781981 -2.296783595 0)
(98.94794832 -2.500512297 0)
(98.5200324 -2.278286985 0)
(97.48387675 -2.212302272 0)
(97.55559399 -2.411534528 0)
(97.17370819 -2.186870307 0)
(96.34879925 -2.100282974 0)
(96.44155188 -2.289819601 0)
(96.10806464 -2.067962425 0)
(95.48400301 -1.960539692 0)
(95.59780863 -2.13581476 0)
(95.30759065 -1.921247587 0)
(94.86783623 -1.793151172 0)
(95.00202464 -1.950337491 0)
(100.3285367 -2.119144998 0)
(100.359953 -2.292343133 0)
(100.0084757 -2.105663433 0)
(98.8327479 -2.060492041 0)
(98.88136226 -2.234123768 0)
(98.44904819 -2.042740543 0)
(97.39546042 -1.981236262 0)
(97.46105101 -2.151025 0)
(97.0795315 -1.957994596 0)
(96.2371163 -1.879955182 0)
(96.31968756 -2.041902171 0)
(95.99044992 -1.851117698 0)
(95.34837674 -1.755896707 0)
(95.44849481 -1.906403042 0)
(95.16592731 -1.721207477 0)
(94.70812542 -1.608266754 0)
(94.8259961 -1.744140783 0)
(100.2841219 -1.918025024 0)
(100.3176662 -2.065814079 0)
(99.95743802 -1.904489736 0)
(98.76967735 -1.859327448 0)
(98.81679498 -2.007105008 0)
(98.38139401 -1.842264737 0)
(97.31396245 -1.784564941 0)
(97.37448646 -1.929036507 0)
(96.99339427 -1.763134862 0)
(96.13670679 -1.692077699 0)
(96.21104663 -1.830117133 0)
(95.88513548 -1.666067863 0)
(95.22790136 -1.580739659 0)
(95.31695893 -1.709487365 0)
(95.04026821 -1.549787458 0)
(94.56663641 -1.4492021 0)
(94.67118821 -1.56600887 0)
(100.2377615 -1.747109748 0)
(100.2726799 -1.872609153 0)
(99.90535854 -1.733596332 0)
(98.70851693 -1.688700435 0)
(98.75421155 -1.813960448 0)
(98.31669321 -1.672260977 0)
(97.23823681 -1.617804637 0)
(97.29452745 -1.740219884 0)
(96.9139092 -1.597885359 0)
(96.0455018 -1.532583793 0)
(96.11311052 -1.649679554 0)
(95.78984446 -1.508889914 0)
(95.11976263 -1.431644713 0)
(95.19980332 -1.54113885 0)
(94.92765464 -1.403745808 0)
(94.44009187 -1.313280583 0)
(94.5337118 -1.412987121 0)
(100.1901996 -1.602894023 0)
(100.2259598 -1.708676049 0)
(99.85278071 -1.589410941 0)
(98.64913503 -1.544953074 0)
(98.69351064 -1.650370534 0)
(98.2545995 -1.529071015 0)
(97.16735929 -1.477383676 0)
(97.22009566 -1.580353835 0)
(96.83996938 -1.458729254 0)
(95.96186814 -1.398192426 0)
(96.02394048 -1.496746956 0)
(95.70277919 -1.376402778 0)
(95.02172085 -1.305780782 0)
(95.09438382 -1.398100587 0)
(94.82572114 -1.280380239 0)
(94.32582573 -1.198199085 0)
(94.41047106 -1.282503019 0)
(100.1419782 -1.482489435 0)
(100.1781882 -1.570660634 0)
(99.80008903 -1.469033113 0)
(98.59138207 -1.425130247 0)
(98.63455007 -1.512856159 0)
(98.19479372 -1.40974384 0)
(97.10055384 -1.360419204 0)
(97.1503039 -1.446042802 0)
(96.77065428 -1.342823462 0)
(95.88446492 -1.286229102 0)
(95.9419805 -1.368191633 0)
(95.62246538 -1.266003768 0)
(94.9319337 -1.20080265 0)
(94.99856482 -1.277659957 0)
(94.73251519 -1.177443779 0)
(94.22157939 -1.102030544 0)
(94.29890703 -1.172331672 0)
(100.0935058 -1.383594207 0)
(100.1298708 -1.455827812 3.584271314e-36)
(99.74757255 -1.370168078 0)
(98.53511627 -1.326889552 0)
(98.5771821 -1.398627132 0)
(98.13699394 -1.311941332 0)
(97.03716383 -1.264618953 0)
(97.08441032 -1.334564018 0)
(96.70518933 -1.247902614 0)
(95.81217491 -1.194543166 0)
(95.86595353 -1.26148141 0)
(95.54767757 -1.175591622 0)
(94.84888449 -1.114791144 0)
(94.91059401 -1.177589898 0)
(94.64643937 -1.093091014 0)
(94.12559883 -1.023211845 0)
(94.19687238 -1.080677445 0)
(100.045062 -1.304393423 0)
(100.0813836 -1.362009088 0)
(99.69542318 -1.291007839 0)
(98.48018355 -1.248375661 0)
(98.52126458 -1.305474565 0)
(98.08092653 -1.233807925 0)
(96.97659699 -1.188153409 0)
(97.02177965 -1.243752216 0)
(96.64288173 -1.172153943 0)
(95.7440123 -1.121394343 0)
(95.79478381 -1.174577724 0)
(95.47733648 -1.103456609 0)
(94.77123766 -1.046136516 0)
(94.8290165 -1.096056259 0)
(94.5660857 -1.025742672 0)
(94.03634121 -0.9601972068 0)
(94.10271884 -1.005991811 0)
(99.99684002 -1.243495049 1.398405505e-35)
(100.0329799 -1.287499577 0)
(99.64376235 -1.230167024 -1.395777604e-35)
(98.42642136 -1.188160734 0)
(98.46664033 -1.231654347 0)
(98.02632611 -1.173913353 0)
(96.91831139 -1.129604123 0)
(96.96183259 -1.171884268 0)
(96.58310204 -1.114169329 0)
(95.67908996 -1.06542424 0)
(95.72751131 -1.105837118 0)
(95.41046999 -1.048262805 0)
(94.6977626 -0.9935838433 0)
(94.75252364 -1.031529664 0)
(94.49013066 -0.9741730468 0)
(93.95207808 -0.9118565178 0)
(94.0148678 -0.9467147336 0)
(99.94896854 -1.199870456 -4.626956661e-36)
(99.98483533 -1.231002101 0)
(99.59264701 -1.186618386 4.618322751e-36)
(98.37363787 -1.145176004 0)
(98.41314194 -1.175833522 0)
(97.97291096 -1.131182958 0)
(96.86178234 -1.087895513 0)
(96.90403485 -1.117633102 0)
(96.5252496 -1.072878699 0)
(95.61658614 -1.025598943 0)
(95.66326819 -1.053988193 0)
(95.34618467 -1.008995546 0)
(94.62735998 -0.9562036809 0)
(94.67991426 -0.982847353 0)
(94.41741139 -0.9374941636 0)
(93.87151353 -0.8774925876 0)
(93.93163878 -0.9019522017 0)
(99.90150574 -1.172842604 0)
(99.93706727 -1.191578264 0)
(99.54206253 -1.159676865 0)
(98.32159811 -1.118693327 0)
(98.3605701 -1.137030515 0)
(97.92036668 -1.104878394 0)
(96.80648548 -1.062269205 0)
(96.84786484 -1.080004913 0)
(96.46873652 -1.047522437 0)
(95.55573095 -1.001174655 0)
(95.60124839 -1.018072654 0)
(95.28365207 -0.984922447 0)
(94.55903441 -0.9333122597 0)
(94.61012241 -0.949144411 0)
(94.3468799 -0.915042045 0)
(93.7934392 -0.8564935924 0)
(93.85180363 -0.8709727564 0)
(99.84898785 -1.161356536 -3.738084439e-37)
(99.88981974 -1.168633616 0)
(99.48609636 -1.148464345 3.73316525e-37)
(98.26386832 -1.107957474 0)
(98.30875906 -1.114594605 0)
(97.86211328 -1.094221258 0)
(96.74536853 -1.051871957 0)
(96.79285156 -1.05831194 0)
(96.40633437 -1.03723577 0)
(95.48868562 -0.9912924352 0)
(95.54073635 -0.9974106581 0)
(95.21479683 -0.975194114 0)
(94.48389449 -0.9240747829 0)
(94.5422115 -0.9297930467 0)
(94.26934183 -0.9059674264 0)
(93.70768571 -0.8477539312 0)
(93.77420757 -0.853273087 0)
(103.5808027 -30.64494697 7.275691591e-19)
(102.8360991 -30.92266282 -8.607895269e-21)
(102.561554 -30.73609568 -3.505104101e-19)
(104.8811927 -29.34621611 0)
(105.590023 -29.69299903 5.205280741e-19)
(104.8673397 -30.38162828 5.942305613e-19)
(111.5424416 -21.89899131 0)
(111.4941822 -25.63896944 0)
(107.8407727 -24.5508082 7.609282634e-20)
(96.1175219 -22.62853779 -4.786916777e-19)
(91.62194397 -22.90871598 -1.182385964e-19)
(99.66393744 -30.83783089 1.02659869e-20)
(99.42389919 -30.3765151 2.637547266e-19)
(101.8232285 -29.85042954 -8.069480412e-20)
(98.34790223 -20.27160134 -6.191354214e-20)
(98.81161283 -21.49651673 1.601620856e-20)
(97.07695641 -22.44306105 3.158661469e-19)
(104.3668624 -19.02426056 0)
(102.9621784 -21.30145717 5.47544508e-19)
(101.0653173 -18.90286635 -1.748588013e-19)
(106.7160886 -24.03634414 5.464539805e-19)
(103.7775723 -22.06567647 0)
(105.0907754 -19.44850765 0)
(96.3881953 -14.8375678 0)
(95.35273046 -17.79842543 0)
(108.6881856 -26.24959325 4.837104784e-19)
(108.3551012 -28.1247883 2.240148689e-20)
(106.3661962 -27.29138158 4.824012411e-19)
(109.0393943 -28.33426122 6.639167759e-19)
(109.732389 -26.1941837 6.102464756e-19)
(107.9225477 -31.74558281 -8.161551202e-21)
(108.9771668 -31.54522091 6.179707617e-19)
(96.4240669 -26.1060132 1.62266905e-20)
(95.9748681 -25.32556752 -1.745093397e-19)
(97.15714534 -24.96782563 0)
(98.66776477 -27.07258649 2.331216337e-19)
(97.436993 -27.55928038 -1.974646559e-19)
(96.91507022 -26.84879084 8.754021119e-20)
(101.2163363 -24.41788154 -4.691235367e-19)
(102.8428471 -25.98041563 -2.478910764e-20)
(100.8061336 -27.73010263 -2.086813722e-19)
(104.0562761 -23.80828285 6.848847461e-19)
(103.2910024 -24.84984401 3.627143201e-19)
(102.2688668 -23.94806098 1.866708138e-19)
(105.7447148 -26.97008306 4.056617625e-19)
(104.4234653 -25.68168093 -9.601267494e-19)
(105.1058073 -24.53294898 1.276868979e-18)
(103.848625 -31.57978495 -2.628986256e-19)
(103.8257571 -31.53330298 -4.679480535e-19)
(105.098127 -31.3722728 0)
(91.66633917 -29.06950216 -1.28382321e-19)
(91.30359267 -29.13170372 6.998441678e-19)
(85.70568037 -27.84871432 -3.598226291e-19)
(101.1564485 -29.37170771 1.355806421e-19)
(99.25375484 -30.18934738 2.20504449e-19)
(98.54221798 -29.47062493 1.477167332e-19)
(105.7171443 -31.66925649 0)
(103.6583975 -31.6599974 -5.419710845e-19)
(103.7687631 -31.61509747 2.39399485e-19)
(107.7535147 -30.53675214 -6.131458749e-19)
(108.479645 -30.75267521 0)
(107.323437 -31.60667087 0)
(109.4158337 -29.26964967 0)
(109.0210688 -30.02433539 0)
(108.2895367 -29.80389162 0)
(109.753079 -30.2191309 1.798422137e-19)
(110.1403464 -29.45756537 0)
(98.5624348 -28.86217661 3.752657014e-19)
(97.99038094 -28.23778486 -3.168531445e-19)
(99.24572498 -27.71317981 2.8805554e-19)
(92.47881068 -28.79492525 1.039699327e-19)
(92.08360065 -28.92728348 2.304352357e-20)
(95.17551 -27.25056476 0)
(96.26339484 -28.08961673 0)
(99.00256879 -13.6900921 -1.685829052e-19)
(98.94330507 -14.9301498 6.426587826e-20)
(97.28959612 -15.1018155 -1.680697095e-19)
(100.5804202 -14.34249476 0)
(99.87758107 -14.73634141 3.746650113e-20)
(99.69981945 -13.58945664 0)