/*--------------------------------*- C++ -*----------------------------------*\
| =========                 |                                                 |
| \\      /  F ield         | OpenFOAM: The Open Source CFD Toolbox           |
|  \\    /   O peration     | Version:  v2012                                 |
|   \\  /    A nd           | Website:  www.openfoam.com                      |
|    \\/     M anipulation  |                                                 |
\*---------------------------------------------------------------------------*/
FoamFile
{
    version     2.0;
    format      ascii;
    class       surfaceVectorField;
    location    "3";
    object      Uf;
}
// * * * * * * * * * * * * * * * * * * * * * * * * * * * * * * * * * * * * * //

dimensions      [0 1 -1 0 0 0 0];


internalField   nonuniform List<vector> 
5975
(
(103.8157711 -29.82718155 -4.979739145e-19)
(103.101952 -30.07346841 -3.842613703e-19)
(103.1221283 -29.42445105 -9.68131358e-19)
(103.8251923 -29.30513528 -5.10502906e-20)
(102.9018545 -29.89498163 6.396955724e-19)
(107.4737098 -20.40235367 -4.111547876e-19)
(108.1990487 -19.88638922 3.053879192e-19)
(106.602549 -18.86446939 1.324071913e-19)
(107.4739434 -18.4834123 1.167216969e-19)
(106.9044791 -20.04714076 -4.671541847e-20)
(108.2632716 -19.20363762 2.805955389e-19)
(107.7817974 -13.59487439 3.188240429e-19)
(107.3279966 -14.16113538 -1.452115993e-20)
(106.6889987 -13.44816796 3.189057525e-19)
(107.0880817 -12.98035976 -6.682473048e-20)
(106.3523915 -9.631002056 3.192706346e-19)
(106.1517999 -10.09272783 9.010020171e-20)
(105.6152496 -9.685241104 2.31675042e-20)
(105.7990532 -9.293417367 1.511584255e-20)
(104.7985144 -6.913176907 1.491868236e-19)
(104.7194063 -7.276946803 1.495388882e-19)
(104.2826173 -7.030951407 2.915208226e-19)
(104.3620217 -6.714862539 -3.598774033e-19)
(103.3184249 -5.291836319 -2.553926212e-19)
(103.3324713 -5.013368899 1.419268863e-19)
(102.961191 -5.138027982 6.908766564e-20)
(102.984611 -4.892296555 2.205190141e-20)
(101.9332528 -3.533744424 -1.544328693e-20)
(101.9380749 -3.943254187 1.137853683e-20)
(101.4226314 -3.734417421 -3.28916812e-20)
(101.4680121 -3.397142639 -3.340131833e-20)
(101.0853626 -2.59990688 2.55369122e-22)
(101.073095 -2.919066878 0)
(100.6900035 -2.763694884 -1.114331703e-20)
(100.7441818 -2.496624577 0)
(99.83203185 -1.544549187 5.921395372e-21)
(99.70452314 -1.932407067 -9.620327692e-21)
(100.1618708 -2.214448405 0)
(100.4041146 -2.143451129 0)
(99.51839763 -0.9921490596 7.020291624e-21)
(99.35833554 -1.309877853 1.437642943e-20)
(99.334761 -0.4849911411 -2.438396723e-21)
(99.13888297 -0.7652030841 1.090374695e-21)
(99.02599515 -0.2520264703 6.304709731e-21)
(96.86712675 -19.88685026 -7.605585643e-20)
(95.94161926 -19.40522616 4.438469152e-20)
(96.84386366 -18.58043183 1.489825641e-19)
(97.4485108 -19.1484695 1.404446226e-19)
(95.96807732 -18.9321242 4.43845995e-20)
(102.076047 -16.24067226 0)
(102.8834272 -16.2730106 -3.348528853e-19)
(102.0649659 -15.28549652 0)
(102.6792358 -15.34910045 0)
(103.9275835 -12.51290248 1.91573421e-19)
(103.4916523 -12.72751988 8.812049855e-20)
(103.1871645 -12.09164186 2.559701733e-20)
(103.5424774 -11.9233793 1.922657937e-19)
(103.6037327 -9.482351162 -2.479392681e-19)
(103.3583503 -9.7460791 3.378613918e-19)
(103.012015 -9.325257536 0)
(103.2192762 -9.102050609 -4.658405723e-19)
(102.8148753 -7.147396567 4.213898242e-21)
(102.6787528 -7.39666279 1.208903828e-19)
(102.3494007 -7.11715032 2.637709475e-20)
(102.4699063 -6.88946118 -2.456264803e-19)
(101.7949166 -5.577727124 2.055734806e-19)
(101.8588945 -5.355928361 -2.881010702e-20)
(101.5008925 -5.384250247 -5.637882828e-20)
(101.5635787 -5.19392712 2.910367711e-20)
(100.9013807 -3.872152752 -4.562748175e-20)
(100.8186532 -4.228924387 -2.372281207e-20)
(100.380229 -3.952717139 -4.263332861e-20)
(100.4864093 -3.671084237 -1.76516103e-20)
(100.2808611 -2.886521383 -2.856878938e-20)
(100.2033478 -3.176157096 1.032771489e-20)
(99.86602095 -2.972976178 -3.023680929e-20)
(99.9641269 -2.73292506 -1.571055943e-20)
(99.24124355 -1.688088822 -8.155854692e-22)
(99.06178746 -2.048370868 -2.74909385e-20)
(99.45003986 -2.398790947 -7.106804241e-21)
(99.70035095 -2.348446818 -4.225114219e-21)
(98.98919164 -1.085446725 9.46370332e-21)
(98.79103714 -1.396737473 1.778584982e-20)
(98.839162 -0.5311735248 9.458676301e-21)
(98.61618917 -0.8186372025 3.688336434e-22)
(98.52506414 -0.2696364955 2.251410964e-21)
(98.20346285 -13.02289334 -5.197130921e-20)
(97.8815708 -12.22504843 7.686940046e-20)
(98.50434114 -12.07589737 -1.568412001e-19)
(98.7352455 -12.53831949 -8.148747099e-20)
(100.5864907 -12.55169433 2.377779082e-20)
(100.2347983 -12.28388025 -3.434492845e-20)
(100.3122301 -11.77721645 -1.170309976e-20)
(100.583792 -11.97073675 -4.434497832e-20)
(101.4580351 -10.69764803 1.413767948e-20)
(101.1719246 -10.70133416 -7.274273256e-22)
(101.0254695 -10.23783682 -5.06249803e-20)
(101.2564451 -10.22700626 -5.718908286e-20)
(101.4887753 -8.682729753 0)
(101.283878 -8.795955748 8.096411085e-20)
(101.0608909 -8.434028073 -1.933397806e-20)
(101.2331437 -8.33286215 0)
(101.0951847 -6.873081788 0)
(100.9591837 -7.024051324 3.499977508e-19)
(100.7189074 -6.753325797 -8.360686173e-23)
(100.8370702 -6.619054361 -5.910127248e-21)
(100.4111115 -5.50789894 -1.219665583e-20)
(100.4969687 -5.353043571 1.71585598e-22)
(100.1805133 -5.30927905 -1.221694425e-20)
(100.2632806 -5.168739321 -1.064810407e-20)
(99.87111792 -3.981578786 3.4243544e-21)
(99.74108318 -4.263041924 6.368284603e-21)
(99.38187199 -3.965690303 0)
(99.52047278 -3.739704142 2.74841211e-21)
(99.45845675 -3.023093362 -1.286934831e-20)
(99.33668409 -3.266879837 2.745976958e-21)
(99.05341931 -3.041640756 4.334907952e-21)
(99.17916528 -2.833967255 0)
(98.62194564 -1.756666468 -8.104627661e-21)
(98.4099079 -2.080913053 -1.187131244e-20)
(98.7384013 -2.464950831 -1.222357095e-21)
(98.9829929 -2.440972124 -1.188153784e-20)
(98.42753725 -1.133609746 9.160822691e-21)
(98.2055966 -1.431512215 1.82510316e-20)
(98.31030658 -0.5560784128 -6.136930541e-21)
(98.07178635 -0.8415680958 -1.036035082e-20)
(98.00070817 -0.2772255094 -6.510647491e-21)
(99.18944667 -9.91242201 3.07148858e-20)
(99.07239958 -9.444067134 1.045416195e-19)
(99.36456027 -9.353656543 3.708754223e-20)
(99.37792346 -9.613317357 1.100388525e-19)
(99.82027454 -9.85388049 1.910524027e-20)
(99.71626452 -9.624189992 1.831768497e-20)
(99.72255171 -9.326405818 5.090261966e-21)
(99.8028733 -9.501859793 7.187097343e-21)
(100.0551218 -8.942523791 1.050764667e-20)
(99.92081772 -8.869640758 -1.353684444e-21)
(99.81311662 -8.547608108 8.593880097e-21)
(99.92410383 -8.599698101 -3.051627453e-21)
(99.99227526 -7.661896964 4.197811955e-21)
(99.85679502 -7.692678241 6.709542274e-21)
(99.69767333 -7.40469589 -2.900000277e-20)
(99.81168854 -7.371524095 1.324909516e-19)
(99.72110467 -6.327039955 -2.912369949e-22)
(99.61096976 -6.407960811 7.71761592e-20)
(99.42935945 -6.171342276 9.196392975e-21)
(99.52485086 -6.095065734 5.65112752e-20)
(99.23510483 -5.203193439 0)
(99.32220455 -5.104588247 0)
(99.05810037 -5.018449022 0)
(99.14089341 -4.922081342 0)
(98.91946352 -3.912892995 -1.489604295e-20)
(98.77214215 -4.120965528 -1.488180631e-20)
(98.48557583 -3.832254149 5.462154038e-21)
(98.63413964 -3.656802489 -4.158950407e-20)
(98.66784549 -3.03207762 2.709109969e-20)
(98.52433433 -3.22790269 -3.671460196e-21)
(98.28886236 -2.998570773 2.619446668e-21)
(98.42767096 -2.823561927 1.282920027e-20)
(98.00232463 -1.760973412 1.498949432e-20)
(97.77547858 -2.047731743 2.463373733e-20)
(98.05158081 -2.434416352 3.046955167e-20)
(98.28329123 -2.44313153 -1.291784857e-20)
(97.85765339 -1.142855834 -1.98911868e-21)
(97.62571354 -1.422288199 -8.291795622e-21)
(97.76887517 -0.5618562082 -1.072070443e-20)
(97.52545569 -0.8381500377 -1.194331022e-20)
(97.47090577 -0.2763235968 1.212456857e-21)
(99.75305575 -7.994452776 -2.447528211e-21)
(99.74927828 -7.718903328 2.418938415e-20)
(99.84403573 -7.62114555 2.754823921e-20)
(99.77352469 -7.804087607 2.195016738e-20)
(99.51902661 -8.001500404 1.337152613e-20)
(99.5309309 -7.829710074 4.333329249e-21)
(99.46572425 -7.629033988 4.331532714e-21)
(99.45087133 -7.766414316 -8.203332617e-21)
(99.24230999 -7.48723562 2.668305835e-20)
(99.20253447 -7.403778327 -1.446019702e-22)
(99.08995354 -7.172489076 -2.806415839e-21)
(99.12268807 -7.236987728 8.102268347e-21)
(98.96402097 -6.653573334 0)
(98.89436462 -6.641282521 0)
(98.75917576 -6.416641089 4.348873218e-20)
(98.8189365 -6.420239952 -5.118012869e-20)
(98.6615618 -5.686911695 0)
(98.58649265 -5.723658005 -3.357756981e-21)
(98.43941869 -5.523862068 0)
(98.5069407 -5.487116397 0)
(98.27782989 -4.788715968 0)
(98.35182603 -4.728035968 0)
(98.13722793 -4.623883323 0)
(98.20876075 -4.560245012 0)
(98.08303669 -3.730421324 2.031549081e-20)
(97.93795379 -3.877215893 0)
(97.70797111 -3.610141161 0)
(97.85191371 -3.477932864 0)
(97.93392573 -2.943834522 -2.017192625e-20)
(97.78597259 -3.096946045 0)
(97.58767297 -2.871289005 0)
(97.72785271 -2.728336239 0)
(97.40451825 -1.716389104 -2.134114359e-21)
(97.17634201 -1.965168884 1.910073205e-20)
(97.40861409 -2.337746258 1.270754274e-20)
(97.62189079 -2.374730311 1.272852993e-20)
(97.29882125 -1.12081261 -1.908213037e-20)
(97.06739506 -1.37773412 -1.787019675e-20)
(97.23230428 -0.5518006663 2.133950211e-23)
(96.99225153 -0.8140473064 -1.208392003e-21)
(96.95071002 -0.269120172 1.212364907e-21)
(100.0283363 -6.67019468 -4.270400726e-20)
(100.1008911 -6.487433841 -4.142982883e-20)
(100.0662368 -6.397626384 -3.336629179e-20)
(99.95772051 -6.531477184 -6.2431801e-21)
(99.32461085 -6.662894318 -1.763001015e-20)
(99.39244551 -6.533475324 -7.155497491e-22)
(99.28054857 -6.383642932 -7.034788171e-21)
(99.21439124 -6.491667994 -2.520976787e-20)
(98.70837298 -6.329031421 1.628393338e-20)
(98.72601604 -6.252240515 4.60687298e-20)
(98.60118601 -6.077973278 -1.301642316e-21)
(98.58373213 -6.139868186 -3.41873665e-20)
(98.23610695 -5.754117186 -2.489164336e-20)
(98.21425676 -5.726461902 0)
(98.08783715 -5.549503667 0)
(98.10639535 -5.568607886 0)
(97.86031862 -5.045919931 0)
(97.81750066 -5.056936925 0)
(97.69259402 -4.892159896 0)
(97.73229066 -4.87836576 0)
(97.51263391 -4.334454605 0)
(97.56928899 -4.300261927 0)
(97.39711632 -4.190927883 0)
(97.45268288 -4.151151701 0)
(97.36080462 -3.476423785 0)
(97.22979188 -3.576228424 0)
(97.04065556 -3.333724793 0)
(97.16951476 -3.235407795 0)
(97.26795669 -2.785445228 0)
(97.12713391 -2.902562211 0)
(96.95952522 -2.690015929 0)
(97.09216013 -2.57421576 0)
(96.84135432 -1.635084285 0)
(96.62089718 -1.849230616 0)
(96.8204946 -2.197666295 0)
(97.01246942 -2.255055998 0)
(96.76394864 -1.073779949 0)
(96.54010638 -1.307463833 0)
(96.71407548 -0.5308488375 0)
(96.48351664 -0.7749055145 0)
(96.45163948 -0.2570277838 0)
(100.1359533 -5.677352461 2.818599261e-21)
(100.240752 -5.542252984 -1.025131242e-22)
(100.1508685 -5.464019612 1.646278318e-21)
(100.0171217 -5.563983278 -3.453167078e-21)
(99.15894024 -5.64461343 1.977110724e-23)
(99.26151021 -5.545029776 -3.208436865e-21)
(99.12491179 -5.426310877 -3.605600208e-21)
(99.02483546 -5.511776759 1.419026433e-22)
(98.3289922 -5.40124045 -3.235292262e-22)
(98.38564217 -5.335243086 -4.173007921e-22)
(98.25241173 -5.19856858 0)
(98.19974445 -5.253730963 0)
(97.70611409 -4.983965387 0)
(97.7201691 -4.952083143 0)
(97.59650573 -4.810723118 0)
(97.58375346 -4.83541618 0)
(97.25129491 -4.452233613 0)
(97.23544092 -4.449708691 0)
(97.1220558 -4.313345495 0)
(97.1382993 -4.31214378 0)
(96.90157223 -3.883130821 0)
(96.94073477 -3.86496389 0)
(96.80061115 -3.758717866 0)
(96.84057541 -3.733983451 0)
(96.74587809 -3.185950876 0)
(96.63573511 -3.253114987 0)
(96.47472221 -3.036354806 0)
(96.58398169 -2.964450958 0)
(96.67723232 -2.587912738 0)
(96.5504171 -2.676745497 0)
(96.40602583 -2.481786746 0)
(96.52608786 -2.388027588 0)
(96.32048362 -1.530635673 0)
(96.11499143 -1.715185951 0)
(96.29093588 -2.035291014 0)
(96.46170594 -2.103064305 0)
(96.26127043 -1.010173275 0)
(96.05118458 -1.221705066 0)
(96.22283939 -0.501537797 0)
(96.0057311 -0.7258863594 0)
(95.98049542 -0.2413142229 0)
(100.1875583 -4.887735923 0)
(100.3026745 -4.785972252 0)
(100.1953851 -4.714449041 0)
(100.0448313 -4.794303149 0)
(99.03620536 -4.841246563 0)
(99.16394607 -4.76356655 0)
(99.00874697 -4.666299048 0)
(98.88630891 -4.734339252 0)
(98.05196176 -4.650033445 0)
(98.13530276 -4.594686634 0)
(97.99314575 -4.484722003 0)
(97.91586137 -4.532082968 0)
(97.3090711 -4.332836595 0)
(97.34918766 -4.301451759 0)
(97.2248798 -4.186459505 0)
(97.18876477 -4.211838662 0)
(96.77830018 -3.921093889 0)
(96.78418188 -3.912074428 0)
(96.67642335 -3.798439847 0)
(96.67332154 -3.803634522 0)
(96.40792405 -3.459502964 0)
(96.43074522 -3.4503939 0)
(96.3154126 -3.351967063 0)
(96.34053841 -3.336743091 0)
(96.22510396 -2.887516755 0)
(96.13838043 -2.933874612 0)
(95.99518897 -2.741480076 0)
(96.08370256 -2.689114339 0)
(96.15890899 -2.373507722 0)
(96.04923961 -2.441162576 0)
(95.92157139 -2.265012328 0)
(96.02665881 -2.188500435 0)
(95.8453863 -1.414580909 0)
(95.65911792 -1.574070125 0)
(95.81818198 -1.864666401 0)
(95.969425 -1.935059705 0)
(95.79608379 -0.9378013275 0)
(95.60329837 -1.128302813 0)
(95.76420509 -0.4668097204 0)
(95.56330623 -0.6718181966 0)
(95.54197489 -0.2237981709 0)
(100.206357 -4.24506702 -2.40351123e-35)
(100.3297242 -4.167987993 2.673891084e-36)
(100.206533 -4.103319665 -4.682310652e-35)
(100.0458592 -4.168175347 -2.403793006e-35)
(98.93094242 -4.192121674 0)
(99.07508172 -4.130166301 0)
(98.90627164 -4.048989651 0)
(98.76831181 -4.103906187 0)
(97.83530542 -4.033903614 0)
(97.93724108 -3.987709916 0)
(97.78790098 -3.897105996 0)
(97.69315921 -3.9372527 0)
(97.00017684 -3.782280589 0)
(97.05949788 -3.753455403 0)
(96.93322136 -3.658291204 0)
(96.87950577 -3.68218809 0)
(96.40243526 -3.454194187 0)
(96.42562993 -3.442545491 0)
(96.32032138 -3.347043199 0)
(96.30148288 -3.3551417 0)
(96.00449642 -3.074673991 0)
(96.01261362 -3.071145149 0)
(95.91745792 -2.982285879 0)
(95.92891713 -2.973390401 0)
(95.78279224 -2.599687393 0)
(95.71936622 -2.6328026 0)
(95.58652648 -2.462921181 0)
(95.65528961 -2.4238885 0)
(95.70588455 -2.157484188 0)
(95.61430345 -2.2098538 0)
(95.49842515 -2.05209179 0)
(95.58754138 -1.989024692 0)
(95.41585473 -1.295177189 0)
(95.25069244 -1.433578956 0)
(95.39830073 -1.695262435 0)
(95.53181717 -1.764583855 0)
(95.37008376 -0.861917188 0)
(95.19627077 -1.033111485 0)
(95.34106541 -0.4299884586 0)
(95.15755144 -0.6162359356 0)
(95.13802075 -0.2057055744 0)
(100.1990768 -3.715627282 -2.051414853e-35)
(100.3299015 -3.655719557 0)
(100.1943747 -3.597645086 0)
(100.0265203 -3.650713405 0)
(98.83533439 -3.657880762 0)
(98.9912768 -3.607911272 0)
(98.81259331 -3.538991389 0)
(98.66337472 -3.583699548 0)
(97.658203 -3.521864145 0)
(97.77355684 -3.483405684 0)
(97.61856751 -3.407426704 0)
(97.51103575 -3.44120792 0)
(96.75181662 -3.315283923 0)
(96.82557881 -3.289751553 0)
(96.69699707 -3.209892213 0)
(96.629806 -3.231388158 0)
(96.09714239 -3.047138212 0)
(96.13413195 -3.03496714 0)
(96.02957326 -2.954024082 0)
(95.99798433 -2.963028394 0)
(95.67052105 -2.730477665 0)
(95.66625404 -2.730197156 0)
(95.58659863 -2.650962441 0)
(95.58661063 -2.645672869 0)
(95.40489359 -2.331720409 0)
(95.36292277 -2.355434707 0)
(95.23662628 -2.206413062 0)
(95.28682941 -2.176302617 0)
(95.31004891 -1.949500265 0)
(95.23625429 -1.990896482 0)
(95.1285092 -1.850410154 0)
(95.20185294 -1.79763501 0)
(95.02958753 -1.178029779 0)
(94.88601553 -1.298886973 0)
(95.02614419 -1.533324758 0)
(95.14398151 -1.59913962 0)
(94.98281493 -0.7864648046 0)
(94.82843506 -0.9402386609 0)
(94.95396057 -0.3930954269 0)
(94.78804083 -0.5616559922 0)
(94.76874734 -0.1878719588 0)
(100.1750907 -3.27291228 -3.19405476e-35)
(100.3122739 -3.225507597 -1.758777177e-36)
(100.1672172 -3.173565793 -3.19405476e-35)
(99.99399301 -3.217125023 -3.193687359e-35)
(98.74669099 -3.212139414 0)
(98.91141159 -3.1714943 0)
(98.72543905 -3.112262925 0)
(98.56779972 -3.148868023 0)
(97.50851476 -3.092069471 0)
(97.63385351 -3.06008634 0)
(97.4744363 -2.995514999 0)
(97.3572784 -3.023804847 0)
(96.54657194 -2.917756905 0)
(96.63139296 -2.895629519 0)
(96.50057065 -2.827849483 0)
(96.42290165 -2.846654442 0)
(95.84413936 -2.693743039 0)
(95.89219226 -2.682162808 0)
(95.78747835 -2.613033535 0)
(95.74551205 -2.621837591 0)
(95.38997841 -2.425944495 0)
(95.37525144 -2.427268761 0)
(95.30768502 -2.357266609 0)
(95.2978774 -2.354010193 0)
(95.08037661 -2.087213085 0)
(95.05761846 -2.104711197 0)
(94.93512002 -1.974202948 0)
(94.96840975 -1.950075597 0)
(94.9636094 -1.755128747 0)
(94.90659089 -1.788685099 0)
(94.80429605 -1.66404284 0)
(94.86267795 -1.619085118 0)
(94.683235 -1.066795858 0)
(94.56079351 -1.173179187 0)
(94.69625385 -1.382572906 0)
(94.80040598 -1.443423306 0)
(94.63245817 -0.7140852224 0)
(94.49709908 -0.8523462992 0)
(94.60192003 -0.3575006852 0)
(94.45308398 -0.5097471569 0)
(94.43291159 -0.1708509577 0)
(100.1402066 -2.899027884 2.764845029e-35)
(100.2827733 -2.861027228 0)
(100.1302579 -2.814732148 0)
(99.95291278 -2.850437815 0)
(98.66359968 -2.836570344 0)
(98.83500879 -2.803354141 0)
(98.64358752 -2.752014776 0)
(98.47949027 -2.782052765 0)
(97.3787809 -2.728611897 0)
(97.51174955 -2.702072104 0)
(97.34885971 -2.646655191 0)
(97.22428101 -2.670224038 0)
(96.37303568 -2.578309974 0)
(96.46648132 -2.559446842 0)
(96.33364299 -2.501409998 0)
(96.24769666 -2.517517315 0)
(95.6306953 -2.38765466 0)
(95.68771316 -2.377234764 0)
(95.58239467 -2.317819383 0)
(95.53191217 -2.325822524 0)
(95.15112419 -2.158461258 0)
(95.12753857 -2.160368967 0)
(95.06953148 -2.09894104 0)
(95.05129484 -2.0967186 0)
(94.7997456 -1.867380534 0)
(94.79393725 -1.880973854 0)
(94.67343241 -1.766666943 0)
(94.69149554 -1.746504805 0)
(94.65944427 -1.577237676 0)
(94.61786765 -1.60525001 0)
(94.51911908 -1.494886285 0)
(94.56364722 -1.455864228 0)
(94.37303131 -0.9636766046 0)
(94.27064559 -1.058203513 0)
(94.40342176 -1.244963816 0)
(94.49570828 -1.300120421 0)
(94.31639311 -0.6464416488 0)
(94.19908891 -0.7710417539 0)
(94.28297284 -0.3240813564 0)
(94.15027559 -0.4615507068 0)
(94.12846992 -0.1549928679 0)
(100.0982154 -2.581290041 1.094654183e-35)
(100.2453886 -2.550589764 9.937886663e-37)
(100.0869214 -2.509467199 1.094654183e-35)
(99.90636163 -2.538568389 1.094782515e-35)
(98.58522811 -2.518096375 0)
(98.76182565 -2.49094796 0)
(98.56629935 -2.44620207 0)
(98.39715425 -2.470799774 0)
(97.26420247 -2.419734475 0)
(97.4031325 -2.39782627 0)
(97.23751737 -2.349942731 0)
(97.10709936 -2.369422684 0)
(96.22353309 -2.287887975 0)
(96.32382521 -2.272065588 0)
(96.18924532 -2.222053097 0)
(96.09665765 -2.235569733 0)
(95.44783055 -2.123052403 0)
(95.51219685 -2.114074244 0)
(95.40608439 -2.062760632 0)
(95.34854287 -2.069638731 0)
(94.94531752 -1.924855328 0)
(94.91418951 -1.926715283 0)
(94.86386936 -1.873126315 0)
(94.83838395 -1.871294635 0)
(94.555275 -1.671940126 0)
(94.56434154 -1.683235599 0)
(94.44462101 -1.583034846 0)
(94.44910433 -1.565436839 0)
(94.39133846 -1.416942468 0)
(94.36375886 -1.441084868 0)
(94.26719927 -1.343445764 0)
(94.29910777 -1.308930195 0)
(94.09512525 -0.8698307759 0)
(94.01133459 -0.954701332 0)
(94.14284731 -1.121254999 0)
(94.22489818 -1.170455917 0)
(94.03159243 -0.5844861125 0)
(93.93102088 -0.6971692552 0)
(93.99457192 -0.2933582438 0)
(93.87678943 -0.4176438548 0)
(93.85287351 -0.1404975848 0)
(100.0516307 -2.310310922 9.549084532e-36)
(100.2027776 -2.285453306 0)
(100.0394818 -2.249009012 0)
(99.85638521 -2.272518991 0)
(98.51099239 -2.247048874 0)
(98.69165961 -2.224952848 0)
(98.4930281 -2.185811835 0)
(98.31988648 -2.205826822 0)
(97.16151764 -2.156522469 0)
(97.30518436 -2.138594232 0)
(97.13742335 -2.097026461 0)
(97.00233808 -2.112942338 0)
(96.09271748 -2.039239872 0)
(96.19852391 -2.026205135 0)
(96.0624652 -1.982909092 0)
(95.96448072 -1.993997173 0)
(95.28904396 -1.894798404 0)
(95.3594906 -1.887372859 0)
(95.25252416 -1.842893243 0)
(95.18908375 -1.848491357 0)
(94.76604521 -1.721830305 0)
(94.72847065 -1.723261563 0)
(94.68440249 -1.676767216 0)
(94.65267033 -1.674913327 0)
(94.34071862 -1.499758299 0)
(94.36281531 -1.509856978 0)
(94.24306935 -1.421925235 0)
(94.23550561 -1.40590263 0)
(94.15392364 -1.27426658 0)
(94.13890669 -1.295761556 0)
(94.04356108 -1.209381854 0)
(94.06410356 -1.178273048 0)
(93.84576596 -0.7856981813 0)
(93.77895525 -0.8627841327 0)
(93.91020183 -1.011444892 0)
(93.98344605 -1.054691984 0)
(93.77487897 -0.5286648468 0)
(93.68956405 -0.6310603707 0)
(93.73388648 -0.2655952792 0)
(93.62967565 -0.3782828761 0)
(93.60337359 -0.1274601833 0)
(100.00216 -2.078980962 0)
(100.156759 -2.058930859 0)
(99.98948835 -2.026673424 0)
(99.8043723 -2.045440011 0)
(98.44044237 -2.016132937 0)
(98.62431831 -1.998304482 0)
(98.4233346 -1.963984111 0)
(98.24700686 -1.980090372 0)
(97.0684193 -1.932134138 0)
(97.21589311 -1.917651195 0)
(97.04643194 -1.881448229 0)
(96.90757601 -1.894242447 0)
(95.97676181 -1.826576725 0)
(96.08705667 -1.816073019 0)
(95.94974486 -1.778464589 0)
(95.84733439 -1.787309542 0)
(95.14953811 -1.698503718 0)
(95.22505023 -1.692640888 0)
(95.11722635 -1.65397287 0)
(95.04882841 -1.658239564 0)
(94.60833042 -1.546285568 0)
(94.56523243 -1.547067979 0)
(94.52627614 -1.506946881 0)
(94.48915436 -1.504810918 0)
(94.15104982 -1.349319375 0)
(94.18455727 -1.358981802 0)
(94.06423618 -1.281726298 0)
(94.04601784 -1.266562727 0)
(93.94263088 -1.148624933 0)
(93.93881621 -1.168377811 0)
(93.84397302 -1.091914898 0)
(93.85435911 -1.063349759 0)
(93.62139862 -0.7112573574 0)
(93.5698823 -0.7821527217 0)
(93.70161126 -0.9150884723 0)
(93.76732016 -0.9525469365 0)
(93.54307609 -0.4790807954 0)
(93.47145765 -0.5726901716 0)
(93.49797628 -0.2408769028 0)
(93.40591938 -0.3434957596 0)
(93.3770941 -0.1159002018 0)
(99.95096172 -1.88178298 0)
(100.108585 -1.865804894 0)
(99.93798673 -1.837283755 0)
(99.75125427 -1.851994246 0)
(98.37317467 -1.819662301 0)
(98.55958517 -1.805500181 0)
(98.35682464 -1.775376767 0)
(98.1779477 -1.788096846 0)
(96.98317194 -1.741164077 0)
(97.13373434 -1.729701315 0)
(96.96292029 -1.698116237 0)
(96.82099061 -1.708145488 0)
(95.87279557 -1.645180044 0)
(95.98677917 -1.636980912 0)
(95.84840479 -1.604247095 0)
(95.74233259 -1.611019398 0)
(95.02563435 -1.530397876 0)
(95.10539772 -1.526069006 0)
(94.99674205 -1.492388276 0)
(94.92415074 -1.49531542 0)
(94.46825277 -1.395387463 0)
(94.42040284 -1.395386196 0)
(94.38565034 -1.360990747 0)
(94.34386308 -1.35839695 0)
(93.98211782 -1.218938314 0)
(94.02562518 -1.228701655 0)
(93.90434568 -1.160748123 0)
(93.87671757 -1.145907879 0)
(93.75350117 -1.039079757 0)
(93.75963374 -1.057775701 0)
(93.66476044 -0.9900200899 0)
(93.66611957 -0.9633051091 0)
(93.41870259 -0.6462030307 0)
(93.38083083 -0.7122997628 0)
(93.51361332 -0.8314950542 0)
(93.57290168 -0.8634055515 0)
(93.33309454 -0.4356181029 0)
(93.2736344 -0.5218301791 0)
(93.28390159 -0.2191704437 0)
(93.20259978 -0.3131766823 0)
(93.17120562 -0.1057922603 0)
(99.89880014 -1.714385665 0)
(100.0591018 -1.701943423 0)
(99.88567203 -1.676763818 0)
(99.69763782 -1.687969797 0)
(98.3088171 -1.653170935 0)
(98.49722673 -1.642216473 0)
(98.29313931 -1.615793187 0)
(98.11221961 -1.625528698 0)
(96.90442925 -1.579330852 0)
(97.05751769 -1.570558893 0)
(96.88562615 -1.543002946 0)
(96.74117006 -1.550544896 0)
(95.77861143 -1.491229261 0)
(95.89565501 -1.485151782 0)
(95.75637766 -1.456647996 0)
(95.64724926 -1.461486188 0)
(94.91445951 -1.387311832 0)
(94.99781936 -1.384483521 0)
(94.88837044 -1.355124967 0)
(94.81220662 -1.356713751 0)
(94.34268114 -1.266650005 0)
(94.29072095 -1.265769977 0)
(94.25944618 -1.236545396 0)
(94.21360242 -1.233361189 0)
(93.83048714 -1.106959878 0)
(93.88276853 -1.117218682 0)
(93.76025084 -1.057383149 0)
(93.72431584 -1.042447323 0)
(93.58312769 -0.9445650051 0)
(93.59806823 -0.9627416819 0)
(93.50274708 -0.9026133118 0)
(93.49611725 -0.87717102 0)
(93.23463696 -0.5900874276 0)
(93.20882447 -0.652619713 0)
(93.34312737 -0.7598799427 0)
(93.39698484 -0.7865000733 0)
(93.14202077 -0.3980408671 0)
(93.09322607 -0.478140963 0)
(93.08883652 -0.2003770106 0)
(93.0169247 -0.2871435366 0)
(92.98297168 -0.09708443996 0)
(99.84619268 -1.573299539 0)
(100.0088971 -1.563971065 0)
(99.83301571 -1.54179246 0)
(99.64392428 -1.549945425 0)
(98.2470236 -1.513089146 0)
(98.43699989 -1.504974914 0)
(98.23193691 -1.481842593 0)
(98.04938426 -1.488916317 0)
(96.83110713 -1.443201985 0)
(96.98627001 -1.436853864 0)
(96.81351321 -1.412846457 0)
(96.66697062 -1.41812692 0)
(95.69245315 -1.361614411 0)
(95.81205006 -1.357503996 0)
(95.67199141 -1.332702376 0)
(95.56029743 -1.335724549 0)
(94.81370041 -1.266596281 0)
(94.90011842 -1.265231469 0)
(94.78990439 -1.239644307 0)
(94.71068242 -1.23990248 0)
(94.22901774 -1.157907546 0)
(94.17349594 -1.156077775 0)
(94.14507442 -1.131538426 0)
(94.09570596 -1.127655718 0)
(93.69326732 -1.011842837 0)
(93.75326578 -1.022898968 0)
(93.62928368 -0.9701732702 0)
(93.58600621 -0.9547919145 0)
(93.42854195 -0.8640051734 0)
(93.45126318 -0.8821028088 0)
(93.3551468 -0.8286388407 0)
(93.34147027 -0.8039777131 0)
(93.06636179 -0.5423976391 0)
(93.05112799 -0.6025042736 0)
(93.18738043 -0.699461287 0)
(93.23668407 -0.7210523602 0)
(92.96707159 -0.3660517088 0)
(92.92755728 -0.4412341769 0)
(92.91003723 -0.1843608768 0)
(92.84624393 -0.2651821419 0)
(92.80977322 -0.08971386866 0)
(99.79350979 -1.455704266 -1.788908326e-36)
(99.95840263 -1.44915861 8.095250426e-38)
(99.78036427 -1.4297083 -3.483719295e-36)
(99.5903983 -1.435163199 -1.788702555e-36)
(98.18747953 -1.396548193 0)
(98.37867651 -1.390987766 0)
(98.17291455 -1.370818575 0)
(97.9890574 -1.375480883 0)
(96.76230518 -1.330012306 0)
(96.91918106 -1.325881737 0)
(96.74572267 -1.305035109 0)
(96.59744605 -1.308227237 0)
(95.612881 -1.253800609 0)
(95.73462407 -1.251538367 0)
(95.59387591 -1.230009036 0)
(95.4800127 -1.231304682 0)
(94.72145131 -1.16606051 0)
(94.81049037 -1.166132183 0)
(94.69953418 -1.143866086 0)
(94.61767181 -1.142797693 0)
(94.12506268 -1.067418907 0)
(94.06639076 -1.064586117 0)
(94.04038315 -1.044393583 0)
(93.98784663 -1.039730016 0)
(93.56797944 -0.932259873 0)
(93.6348527 -0.9444314141 0)
(93.50907833 -0.8979796092 0)
(93.45934188 -0.8817271517 0)
(93.28711568 -0.7963725282 0)
(93.31670133 -0.81478864 0)
(93.21947924 -0.7671254392 0)
(93.19961881 -0.742785014 0)
(92.91143807 -0.502625991 0)
(92.90534445 -0.5613254348 0)
(93.04389462 -0.649440611 0)
(93.08946803 -0.6661875896 0)
(92.80582008 -0.3393448909 0)
(92.77417119 -0.4107249461 0)
(92.74509943 -0.1709834421 0)
(92.688094 -0.2470684082 0)
(92.64915156 -0.08361043718 0)
(99.74103211 -1.359378703 0)
(99.90793945 -1.355349485 0)
(99.7279692 -1.338407802 0)
(99.53726672 -1.341442026 0)
(98.12990905 -1.3012829 0)
(98.32204715 -1.298048097 0)
(98.11579423 -1.28057235 0)
(97.93089997 -1.283020482 0)
(96.69726601 -1.237565024 0)
(96.85555912 -1.235489335 0)
(96.68151423 -1.217480745 0)
(96.53179258 -1.218719264 0)
(95.53869731 -1.165746205 0)
(95.66224958 -1.165238487 0)
(95.52086806 -1.146618728 0)
(95.4051666 -1.146256657 0)
(94.63615496 -1.083902095 0)
(94.72744332 -1.085383383 0)
(94.61575416 -1.066048061 0)
(94.53161597 -1.06366329 0)
(94.02918332 -0.9936979236 0)
(93.96771534 -0.9899488708 0)
(93.94380191 -0.9737142653 0)
(93.88844749 -0.9682385976 0)
(93.45228588 -0.867189286 0)
(93.52521964 -0.8805758707 0)
(93.39741301 -0.8397207982 0)
(93.34205763 -0.8221599316 0)
(93.15650149 -0.7407724156 0)
(93.19212108 -0.759852795 0)
(93.09356012 -0.7171964978 0)
(93.06824823 -0.6928474048 0)
(92.76699578 -0.4702641228 0)
(92.76895426 -0.5287445444 0)
(92.91037769 -0.6093099565 0)
(92.95281641 -0.6215958665 0)
(92.65535723 -0.3176081318 0)
(92.63076632 -0.3862574103 0)
(92.59106178 -0.1600830368 0)
(92.54012317 -0.2326273532 0)
(92.49876973 -0.07872876933 0)
(99.68894095 -1.282568214 0)
(99.85771943 -1.280849472 0)
(99.6759913 -1.266247475 0)
(99.48465418 -1.2670658 0)
(98.07403912 -1.225491144 0)
(98.26689718 -1.224411393 0)
(98.06030435 -1.209413379 0)
(97.87458674 -1.209791805 0)
(96.6353047 -1.164097866 0)
(96.79477638 -1.163960983 0)
(96.62021911 -1.14852695 0)
(96.46928595 -1.147903902 0)
(95.46883623 -1.095786614 0)
(95.59392091 -1.096974646 0)
(95.45192934 -1.080962886 0)
(95.33466331 -1.078978981 0)
(94.55641339 -1.018576932 0)
(94.6496298 -1.021468044 0)
(94.5371858 -1.004726908 0)
(94.45109291 -1.00100178 0)
(93.9397656 -0.9351682186 0)
(93.875966 -0.9304176696 0)
(93.85349611 -0.9177221766 0)
(93.79588028 -0.9112513051 0)
(93.34423236 -0.8153855932 0)
(93.42233111 -0.8299592514 0)
(93.29264876 -0.7940650852 0)
(93.2322459 -0.7750449819 0)
(93.03456629 -0.6962336224 0)
(93.07544126 -0.7163512929 0)
(92.97506631 -0.6779912657 0)
(92.9452358 -0.653009494 0)
(92.63279433 -0.444970813 0)
(92.64079439 -0.5034495901 0)
(92.78479691 -0.577817719 0)
(92.82526168 -0.5849789512 0)
(92.51547427 -0.3006502603 0)
(92.49519175 -0.3674745029 0)
(92.44781565 -0.1516143667 0)
(92.40012665 -0.2216029123 0)
(92.35634336 -0.07496193584 0)
(99.6373468 -1.223929957 -6.979698481e-36)
(99.80788329 -1.224369029 0)
(99.62453187 -1.211985998 -5.789102973e-36)
(99.43262846 -1.210728744 0)
(98.01960042 -1.167785504 0)
(98.21300949 -1.168743361 0)
(98.00618037 -1.15605582 0)
(97.81980479 -1.154458769 0)
(96.5757935 -1.108243578 0)
(96.73625625 -1.109974182 0)
(96.56122677 -1.096903556 0)
(96.4092655 -1.094469375 0)
(95.40233254 -1.042625125 0)
(95.52872911 -1.045486351 0)
(95.38612466 -1.031837782 0)
(95.26751161 -1.028234709 0)
(94.48091354 -0.9689059163 0)
(94.57580322 -0.9732413766 0)
(94.46256322 -0.9588280806 0)
(94.37475923 -0.9537088955 0)
(93.85500579 -0.8909489146 0)
(93.78913181 -0.884916354 0)
(93.76773026 -0.875687443 0)
(93.70796845 -0.8681691406 0)
(93.24237456 -0.7757285765 0)
(93.32504303 -0.7920921558 0)
(93.19324933 -0.7603134913 0)
(93.12835444 -0.7397949872 0)
(92.91924292 -0.6625256813 0)
(92.96496306 -0.6839648741 0)
(92.86290642 -0.6495643456 0)