/*--------------------------------*- C++ -*----------------------------------*\
| =========                 |                                                 |
| \\      /  F ield         | OpenFOAM: The Open Source CFD Toolbox           |
|  \\    /   O peration     | Version:  v2012                                 |
|   \\  /    A nd           | Website:  www.openfoam.com                      |
|    \\/     M anipulation  |                                                 |
\*---------------------------------------------------------------------------*/
FoamFile
{
    version     2.0;
    format      ascii;
    class       volScalarField;
    location    "2.21";
    object      omega;
}
// * * * * * * * * * * * * * * * * * * * * * * * * * * * * * * * * * * * * * //

dimensions      [0 0 -1 0 0 0 0];


internalField   nonuniform List<scalar> 
3019
(
31.93055496
31.9313833
31.93228503
31.93312895
31.96660786
31.96710961
31.96746409
31.968127
31.96946239
31.9719412
31.97595247
31.98117517
31.79346094
31.79588702
31.79852927
31.80097465
31.83510659
31.83684701
31.83872255
31.85746175
31.86356484
31.87498962
31.89362029
31.91817533
31.65778635
31.66218387
31.66681428
31.67070197
31.70536667
31.70857939
31.71280227
31.73525914
31.75014936
31.77745131
31.82298416
31.88144279
31.52393084
31.5296973
31.53587684
31.54118641
31.57675671
31.58219815
31.59096303
31.62127296
31.65262609
31.71545715
31.81692177
31.94364274
31.39181468
31.39945396
31.40740325
31.4141759
31.45056501
31.45895122
31.47423286
31.51716554
31.58470618
31.71994703
31.96015653
32.27752583
31.26132518
31.27032646
31.27974291
31.28819752
31.32697392
31.34036351
31.36702176
31.43040557
31.55639345
31.84578624
32.46445538
33.57426847
31.13294088
31.14359106
31.15497244
31.16553255
31.20613289
31.22630864
31.26958311
31.36445704
31.5770471
32.16424999
33.72281849
38.67672155
31.00647244
31.01856357
31.03167415
31.04465389
31.08912636
31.11802902
31.18239634
31.31400867
31.64396729
32.63691929
35.77692154
51.39030994
30.88284402
30.89684483
30.91261157
30.92900831
30.9770069
31.01649764
31.1052566
31.27551076
31.74029237
33.12921885
37.46429124
60.83656001
30.76208061
30.77771397
30.79578911
30.81580305
30.87022031
30.92156067
31.03640486
31.24511894
31.84131279
33.53746149
38.50973927
67.92749676
30.6458354
30.66361332
30.68490444
30.70985508
30.76866388
30.83291525
30.97405078
31.22277515
31.946317
33.89409071
39.41647934
76.91561322
30.53282627
30.55231602
30.57630436
30.6063484
30.6716336
30.74978051
30.91632016
31.20782019
32.05220027
34.23486192
40.47346005
87.95677148
60.22391521
66.86481186
75.75908035
86.60932145
49.38747533
38.28664186
57.38127981
53.50675554
39.21271917
63.88443854
58.0818435
71.2937564
207.3106926
182.5933798
40.25440348
71.56270714
64.75762447
80.64195368
313.8414728
244.6242737
72.568641
90.2326392
501.213056
392.8516119
141.4578183
171.4183225
90.87169579
136.3761147
179.5364339
159.314923
63.68473201
210.9249849
228.3296921
177.0797618
207.5218449
241.0717117
211.3754337
72.40960292
274.6221782
321.7337417
230.6207625
271.1889465
388.213476
317.4400455
81.9897065
393.0982946
501.1892352
324.8473702
388.7463643
511.5386071
90.63996537
706.0439067
506.7990764
688.5437543
37.13005305
52.99305935
46.23539041
56.44509805
112.5239714
79.80984946
63.07351494
156.8672819
136.1748868
132.7556293
115.4196849
57.60245888
1274.699738
193.7680559
461.7491073
55.88636008
83.76741231
432.2635269
159.6888856
167.8135069
1091.739596
1274.434052
152.9575149
782.230381
608.4851784
1262.574061
784.9036556
156.5075787
113.3656662
325.1824273
158.6591398
528.5990858
353.1801094
120.7701202
487.0596007
774.986027
213.821942
1454.061744
214.4436542
190.4748277
1372.325496
1286.172943
1444.162756
1383.240265
194.5977027
296.0830104
299.1298788
247.8915164
250.3955434
425.9953466
433.2404345
355.8001152
360.1941741
170.7398187
547.650832
552.7565848
93.65002914
178.2171223
285.7951876
127.439767
132.5233348
121.1817256
125.8216158
279.8472127
150.2225072
157.28885
427.213038
227.5334681
115.4458031
119.7169135
684.6999813
669.1747885
311.6979431
348.566208
141.8164481
148.0528658
134.2908684
139.8518777
343.8788611
406.1839327
1022.293085
1010.564158
1654.943248
1603.477029
478.4978053
336.7890051
725.364685
687.3302
1005.43438
996.6453303
376.3275073
523.7329432
1691.780722
1663.025112
1702.988437
599.4971497
1345.618838
1279.689383
299.1050938
325.1821175
1208.157217
1224.936031
762.7522265
261.7667286
285.1767671
235.1462288
255.0812501
754.2052344
843.2102244
327.3339289
361.049823
293.5599244
318.721139
848.5642184
462.8512113
211.4827897
229.4448063
682.3172433
716.1287629
1506.017475
478.6628834
544.9012809
451.4384902
467.2067473
1464.176655
599.1086905
612.4119826
567.0196936
594.3696692
1341.215221
393.3770898
408.279164
369.8030179
388.1722056
1328.59129
1418.693095
432.2559972
446.1325291
413.165834
427.4976693
1412.952353
948.5103213
955.6112376
918.5651007
946.2127414
971.8257607
987.1331665
958.1125186
968.5638837
633.3414838
646.0706694
616.5904249
628.9615503
691.5178225
872.606546
652.1221399
667.0311744
1038.453833
1029.223858
410.9214237
1681.249766
1687.132953
1643.598383
1670.188865
1737.079766
466.8172362
1564.603291
1096.283612
961.861976
747.4682945
341.1805178
1041.324208
1534.130905
988.2835585
1051.852992
1602.250467
1629.792875
1555.917321
1590.637054
372.2882477
993.8111585
981.8055592
1729.882421
1697.502287
529.021164
582.2759733
1801.760421
1733.216811
195.9180629
105.1570878
108.8513964
100.484043
103.9631419
192.4370506
110.1245588
114.0849938
223.4817447
283.9662024
629.640949
601.6046227
578.6523568
510.3300957
261.3252107
1303.965908
1139.299414
1526.354236
1256.292447
774.4761976
521.4160912
529.6587432
1222.956796
741.5767848
783.9119792
534.9726257
546.8081329
800.9412155
186.0759581
206.3255325
435.3494303
555.5975732
1003.710868
716.0867989
1189.025816
1238.415385
777.3612718
1822.060728
1308.688278
1363.435191
886.7723377
889.6252261
1459.523898
1478.965772
1494.088021
1397.420799
1420.949143
1359.963473
830.475562
835.5974786
802.2535615
809.1972996
1302.242479
1436.475797
874.151659
878.8801261
841.0625137
846.5601831
1393.459851
647.4116892
634.4671124
287.0084193
308.6218169
664.906975
651.5873099
477.6009771
464.5191568
240.2809286
1537.073968
1539.828648
1500.336163
1505.980955
1912.699681
1548.572875
1549.834814
258.478752
498.5924037
482.8616039
1020.197344
701.1304768
705.0807012
1639.232287
1033.51067
1038.031684
1004.814364
1026.531508
1627.104711
1682.84139
1698.608943
1680.755084
1045.021413
1049.107363
1040.103877
1043.107484
1673.673654
1617.112337
1660.75173
1127.975368
1553.107272
2152.730401
1303.487814
1639.618343
474.4873702
653.7137526
1030.373407
1140.658172
682.8950596
1003.228948
1322.363212
1180.558158
1247.702336
595.8319977
669.6167786
1175.287435
800.5600671
551.6620833
575.8074088
1119.327798
1081.173541
640.4655696
1094.88004
1430.159804
721.3784662
1178.411159
1160.310357
951.1595322
943.5777887
1426.818606
1471.5849
902.4575767
899.460806
1457.625036
1470.627375
1434.446268
1447.628598
822.004565
826.5808503
1354.032805
1315.471021
813.5579541
817.6873161
862.5872523
867.5339283
1426.007054
1404.648462
852.3749925
857.5216971
951.0289581
1533.780439
1522.78972
1549.214252
1541.988533
953.1858664
936.8201607
1486.132318
1467.829917
1512.560559
1500.373426
943.018694
977.4153555
1597.495186
1586.81926
1613.279937
1602.898097
980.184896
961.1119905
1563.361838
1556.976157
1580.38933
1570.603935
964.1109084
1525.069836
1529.403687
637.4414976
930.7494484
927.7208789
938.0737609
935.5888925
642.2891683
1513.386011
1518.416429
1596.090643
1510.565949
712.9136468
996.9006268
1006.602894
1431.647456
1377.104606
791.9705423
654.7648697
945.8998642
944.5595072
954.1560303
957.7811034
665.2118891
1561.698215
1554.358148
1042.707764
726.2106038
728.1406586
711.9300083
714.6588952
1029.985465
1681.750521
1696.420793
1649.699784
1667.299185
1639.343836
2086.432802
1498.155335
863.2872091
953.5211894
755.1277803
778.2775415
1085.074376
1437.155863
1997.117119
1574.172713
1496.903044
1000.757684
1628.156668
1614.074009
1665.857738
1620.35167
996.8998962
1610.188811
1622.594715
1568.91751
1581.311779
1714.413913
1059.095081
1067.393178
1051.260297
1057.124752
1710.446572
1752.914559
1081.620243
1140.303416
1069.158473
1084.527378
1756.222529
31.76521099
31.77363462
31.8614309
31.77726622
31.793219
31.87112143
31.79958
31.82607535
31.88765205
31.83591715
31.87177964
31.91100106
31.88240159
31.64890013
31.66679456
31.74561553
31.67495645
31.71031474
31.7694843
31.726096
31.78660918
31.81023852
31.8101783
31.88764206
31.86648667
31.91155402
31.54244137
31.57982716
31.64266263
31.59818272
31.67657936
31.69624032
31.71121489
31.84639221
31.78915095
31.90201423
32.08436546
31.91121982
32.12769976
31.45009299
31.52304704
31.56225475
31.55817751
31.71947416
31.67900835
31.79840184
32.13965338
31.88958061
32.28660536
32.86808003
32.18059232
33.00671662
31.37910268
31.50333366
31.51489323
31.56796703
31.89655457
31.74893666
32.06641371
32.89140368
32.26910536
33.31419244
35.54589786
33.18109186
36.42679262
31.32625162
31.51909748
31.50452082
31.62843163
32.20260863
31.95902157
32.51965635
34.22675165
33.17369418
35.24897853
44.80268132
36.54413855
41.94161967
48.23196409
40.46793174
31.28432446
31.55710599
31.52366638
31.71543375
32.54827945
32.28108003
33.01356295
35.57294939
34.59425495
36.28611483
38.23783816
37.53034662
53.30006019
60.3460896
57.63386482
31.25194244
31.60990298
31.56976825
31.81525462
32.86719125
32.63272394
33.44158449
36.48866808
35.83525068
37.76855327
40.26678521
39.86806807
61.60498156
72.8782005
71.67092267
31.2273872
31.66993974
31.62472075
31.91826594
33.15122549
32.94128965
33.80687694
37.19683684
36.66924542
38.75186554
41.59106437
41.25561749
69.02327834
90.80490672
88.13481038
31.20954678
31.73476281
31.68747986
32.02328348
33.4205329
33.2206334
34.14962306
37.90791184
37.35733178
39.70486336
43.080342
42.59995783
78.10759432
107.0734153
103.625037
31.7545149
33.48713818
38.08736237
40.86270991
46.21297136
44.29915323
90.32223665
130.206886
125.0780596
70.73928416
69.55336472
59.4234929
87.20972353
84.15597444
65.82535295
102.5303903
99.34831264
74.62788628
123.4845564
118.9141105
84.88448083
74.8594568
51.76152007
43.60379321
41.62917367
50.93938164
40.94937208
40.61155647
38.03028017
55.5336927
43.72872737
44.34737187
42.83473766
43.52712797
55.02951294
42.27727552
41.89607372
38.95903667
61.25793088
45.48661456
46.3362142
44.55423522
45.24235557
60.40801509
94.43426201
91.69173026
70.16212249
203.2695158
157.0492252
159.5649343
143.4481668
145.5658765
185.7682666
44.07362374
43.40801073
39.91159552
68.42187625
48.08084439
49.35775715
46.64304414
47.70795721
67.48021583
112.0294886
108.2652945
79.33578918
302.9636648
204.0031607
207.332337
184.0834042
187.6772022
251.2924339
49.75974664
51.0254796
76.37994365
137.6216871
131.9635329
90.87296211
462.6256336
277.7650444
273.6911706
245.2172448
250.4627795
407.0526971
145.6470654
203.2781234
185.9826481
277.6577799
258.5391531
165.1472897
97.62529688
114.5807478
104.1959491
175.2771536
167.901033
132.1949346
171.0234226
96.16804301
99.37091181
92.67444382
95.21548489
168.1779029
64.80505233
82.8414056
76.15145132
216.9938849
362.9098571
349.944005
442.869674
429.851498
221.5605178
182.0999753
297.138151
283.1545701
345.8721726
334.0253587
202.8758563
236.0074858
178.2889046
181.4319846
162.1214791
164.7181156
215.3854577
73.51733165
98.33621355
95.3812079
277.8110927
342.1354409
337.3466987
397.6115389
393.2640211
318.1677393
237.8720478
460.0463502
447.1821321
331.9112383
326.2993942
267.7940809
372.7599553
235.7733788
240.5855566
210.8230728
214.4626186
328.3066427
83.45525762
117.4634316
113.3374156
397.352122
512.3112351
507.6769815
692.0593539
684.986971
494.9284355
328.4944939
406.3683953
401.5549343
502.5731392
497.929279
384.5756308
274.3718979
139.5970507
716.6016551
1075.991797
1067.878982
512.4929875
703.1263387
697.6028733
1044.74741
990.5204888
661.4277862
39.41409834
38.87146865
36.7352369
50.9208948
41.55907557
42.57722871
39.61959623
41.16666938
50.01117196
65.08139114
62.8682778
54.98719429
101.3403389
72.45923981
77.01775085
66.1321555
70.76172228
96.22496328
75.68200221
73.76973185
62.15711453
148.8438461
87.79226599
91.6800394
84.38558819
86.83932219
146.2475762
125.2381606
81.58496587
83.73638193
78.07712589
80.90022989
122.9584287
58.62870752
68.35696486
66.83078523
226.8357422
283.6189353
228.9848535
716.5914731
612.6739051
407.2279578
62.22014537
84.72760349
64.27311133
76.3053019
60.14369206
133.461039
84.80092586
68.47350628
265.7998709
273.6937277
452.4884758
162.3969374
205.2054945
200.7897943
213.5582587
208.4801825
164.9731955
224.6857477
208.4261005
149.3863773
401.8048364
436.9818894
686.1303688
160.4115176
251.6036509
230.5908192
138.6873739
126.8778383
105.6840539
247.7644961
166.3346914
179.8972515
126.7580943
138.920457
221.3512994
504.9202972
358.6815511
375.341926
275.1004711
288.2854424
375.7144974
126.4004424
159.3620359
149.7710024
397.3419971
369.0576089
218.3266856
219.4941279
425.3657248
407.0755564
313.91327
301.4322708
186.3036952
198.8852474
330.061093
317.9938492
365.7797518
361.9565511
293.0230127
302.2650111
373.5027336
369.6088854
298.3824091
295.1521036
245.2848541
253.0757415
304.9759522
301.6678409
545.8134358
540.0506186
420.6017433
442.501537
574.7684473
558.7423195
459.253468
448.6873521
351.3082198
364.3207642
473.6940478
467.4397538
217.9223795
738.1436577
729.9035282
540.5357041
561.5071679
754.9788349
741.6805187
112.9161849
127.0800416
197.6296919
200.7906582
299.149926
129.1006775
157.4926163
155.1672711
162.2295933
159.8428483
130.7933089
122.7078295
148.5145558
146.3195364
152.861149
150.5952868
124.2393007
253.8578387
190.2756549
194.2860214
152.5245811
190.6180659
187.2375398
197.578872
193.789913
154.8003577
411.7707409
255.2017508
261.3017732
172.702845
175.5753011
231.9913442
116.8453407
140.3329521
138.3819203
144.3325641
142.2691893
118.2584207
678.2968918
504.1371646
509.657117
494.9594908
499.9681845
674.4405818
315.0374561
389.3931639
385.2494129
226.4603309
231.1033346
366.5228352
143.8363821
178.1055381
175.1880628
184.1783305
181.0626134
145.8996031
136.1003272
167.1775641
164.6729545
172.4208928
169.7600086
137.9536809
332.0295194
218.2554364
222.2267128
522.2401988
517.7961124
401.8851115
690.7214191
695.2512204
1013.44437
487.7417593
675.4796102
659.5954148
417.8874264
411.1510807
332.0622771
699.9776292
525.7997642
537.8655345
513.5677988
520.5378286
698.1838564
1002.715081
680.8824534
685.468571
671.4540536
676.0125423
998.8920023
380.3858904
493.0912379
488.4836859
713.9306747
708.1672554
517.8387335
626.9182575
897.7239795
810.399809
412.7424294
324.1933782
249.3483397
299.4434227
385.8222287
379.7722394
555.5844354
452.2418419
501.0480728
512.7606068
770.1064719
269.1902348
359.7583346
348.0049314
380.3356034
370.0837236
276.6167869
241.6456686
308.2940486
293.8661639
335.8558319
322.7265688
248.2151272
732.8935782
466.1701232
486.615712
338.1001312
456.1875364
431.9586169
507.2920425
484.8526674
350.1153456
302.2628511
398.1571285
388.7126116
417.8480577
405.0237466
310.0469241
332.8908861
342.9681556
471.7476007
217.7261656
261.4833779
252.37056
281.6701179
270.821819
222.7374683
492.381604
672.0850755
650.8157017
827.0447163
749.2622108
516.1660887
455.5441312
613.8115543
610.6840273
626.6098452
624.4814368
462.116371
603.6271364
904.8713924
901.6906676
911.8385217
907.8226426
607.9854043
580.5380914
889.2776647
870.9965859
899.1157871
895.6496401
588.635458
398.4389367
553.1033693
547.9169401
563.177778
558.0737622
403.3780724
376.7692256
530.3732939
521.4412851
542.5975843
536.9290532
382.7232455
436.8152378
593.7423166
588.9862714
603.8856457
599.4898702
441.7387056
417.9888563
573.5643695
568.4098123
583.8350346
578.8486602
422.8031662
620.6628761
917.4802078
914.7626184
923.8556822
920.8890077
624.8548754
415.3334213
532.4726104
528.2510819
634.03362
601.1574991
453.8969478
913.5862007
608.4761986
632.3510437
552.7102366
577.6854219
828.7835078
347.4519407
436.8859
426.2824832
483.7532292
478.967914
368.3266764
991.6717714
661.7076418
666.6738085
646.9333514
655.5603615
988.2325018
535.377362
725.4122542
718.8420687
786.488576
757.8661815
568.3095358
152.2691375
154.6237681
199.5017724
106.368056
125.8660592
124.216478
129.2777512
127.5532501
107.5985142
101.6237047
119.4774961
117.9698352
122.6013459
121.0201484
102.7856476
189.0527018
147.7407613
149.9765478
111.4231304
132.8280076
131.035987
136.506598
134.6428933
112.7395586
219.3496361
167.3222039
170.0239204
350.4518897
346.4788832
280.9808842
623.7761606
448.9681417
454.1900005
434.712119
442.7382133
615.4591262
548.9644229
412.8154979
424.3304416
394.4501213
402.5799294
524.5355254
264.4790213
320.9460468
316.2016609
193.6561658
221.9941361
210.4341874
243.0086146
232.6946737
199.5010737
413.9427606
305.5625708
318.1723232
643.1838492
468.0287092
472.5141024
458.9595767
463.546333
638.9369665
289.986692
358.1400814
354.3399834
381.3687525
377.3576704
305.3444584
660.1703904
485.8691654
490.5966396
476.9265459
481.4635168
655.9061315
473.4962938
366.6204412
370.4860006
358.7641506
362.6130037
468.7646417
242.8270414
291.9426752
288.7627518
312.0749872
308.4399456
255.6629433
493.463846
383.2514763
387.9674821
374.6677178
378.6019136
486.7570775
31.9018065
31.90227067
31.96727928
31.90289695
31.90409905
31.9675584
31.90485215
31.90649682
31.96869368
31.90886658
31.91213255
31.97052265
31.9164788
31.92202872
31.97375519
31.92880144
31.93643042
31.97851444
31.94451663
31.95248173
31.98357205
31.77087332
31.77152756
31.83605216
31.77250303
31.77374091
31.83767934
31.77532203
31.76360269
31.85652945
31.82631114
31.82778721
31.85849107
31.83401902
31.83697439
31.8655415
31.84847918
31.85363809
31.87844075
31.87193081
31.87947554
31.89859662
31.90275889
31.91117442
31.92353613
31.64192313
31.64319995
31.70701354
31.64524191
31.64796149
31.71042605
31.65137021
31.64499228
31.73297657
31.70594957
31.70940419
31.73819266
31.72396472
31.73076772
31.75585238
31.75747097
31.76964124
31.78738399
31.81276467
31.8302773
31.83716223
31.88445444
31.90054708
31.89606898
31.51428338
31.51656476
31.5792137
31.52006677
31.52509002
31.58605721
31.53175772
31.53424555
31.61616657
31.59451681
31.60149558
31.62723393
31.63219764
31.64712781
31.66481544
31.70846861
31.73675542
31.73693111
31.83289498
31.87213941
31.84673944
31.98263845
32.02730009
31.96819576
31.38956129
31.39338333
31.45427365
31.3992416
31.4076259
31.46544124
31.41950469
31.43553022
31.50747523
31.49346328
31.50731348
31.52908127
31.57300636
31.6038907
31.61119786
31.7373364
31.79886972
31.76896137
32.04123024
32.14113329
32.03240355
32.42713752
32.56033875
32.3237846
31.26745725
31.27352328
31.3326569
31.28305176
31.29687557
31.35121043
31.3172096
31.35293988
31.41315501
31.41211621
31.43822477
31.45281481
31.55763471
31.61729218
31.60719219
31.90667061
32.05239613
31.96433809
32.69075079
32.99145013
32.68711525
34.12916615
34.72043002
33.78730484
31.14845222
31.15743817
31.21440644
31.17173607
31.19306554
31.2436866
31.22490239
31.28606528
31.33467053
31.35103386
31.39207409
31.40150896
31.59250814
31.70420969
31.67339245
32.27347608
32.58347793
32.42285323
34.19323929
35.12625364
34.42701963
31.03393289
31.04682728
31.10068645
31.06717275
31.09769466
31.14378609
31.14318164
31.23101237
31.27076964
31.30406602
31.36137802
31.3666689
31.66980993
31.84577497
31.80249276
32.77162354
33.29509628
33.10797559
30.92429175
30.9419353
30.99250345
30.96938813
31.01044949
31.0521581
31.07087197
31.18526744
31.21887079
31.26715709
31.34273298
31.34637508
31.76490976
32.00252401
31.96321654
33.23817836
33.92826926
33.78449948
30.8196394
30.84305217
30.89002547
30.87837332
30.93075821
30.96809046
31.00643226
31.14652765
31.17493201
31.23881729
31.33422603
31.33554364
31.86677479
32.15874835
32.12044651
33.62992278
34.42802861
34.31124446
30.72016003
30.74999506
30.793282
30.79370736
30.85773433
30.89065413
30.9484932
31.11341289
31.13796911
31.21747322
31.3341708
31.33375471
31.96962996
32.30979131
32.27499547
33.97809125
34.86439423
34.75716176
30.70168241
30.8185965
31.10747691
31.20172105
31.33982906
31.3398432
32.07593253
32.46228656
32.42644864
34.32307718
35.3018136
35.1884672
54.07170391
50.87586612
47.33292117
44.04852088
46.75040491
56.71495157
50.9033592
51.32150765
48.67398138
49.05822491
54.03504659
63.01243113
55.04659325
55.70703679
51.75878359
52.22964213
58.81908023
70.42220265
60.7537547
61.56945467
56.38134642
57.08431115
65.6488364
310.2642118
260.6415542
263.2482752
62.35740929
63.2364049
73.91252913
488.6999926
383.6895347
389.5194597
319.254597
322.9289854
397.5363631
176.5970897
139.375556
141.3875893
127.8277404
129.7487459
162.4858826
273.1840644
270.0799699
225.9892395
233.0356641
279.3691752
276.2681895
383.4278026
312.020457
315.637247
265.8186643
268.5891344
321.0304657
395.2985862
400.6816763
519.4446009
100.716013
52.38087234
47.82304132
48.27768867
43.63932374
44.50313093
47.65125664
109.3324194
94.18321128
96.48413601
73.98590261
78.02328285
84.98461245
154.047985
124.2534877
126.0662364
111.4843783
113.4625348
139.7563123
129.977252
108.1790856
109.7543595
98.49851545
100.3812572
118.1050741
93.9485567
85.70117031
78.02428632
350.4742372
355.1116523
438.327326
301.4621661
244.6969471
258.4126154
148.2027287
161.7308908
177.9306401
243.7223074
237.0937393
213.8283698
215.7410896
253.31124
248.9712873
204.1504205
169.52085
153.8113971
248.9961973
249.999274
290.7552955
272.5136113
249.0439906
248.541985
421.7295677
342.1292082
346.5553982
289.2450103
292.871938
354.0126316
339.7164666
282.8155668
286.0161388
31.76758661
31.79745389
31.79547449
31.80233446
31.79953082
31.77018567
31.86000463
31.82949168
31.83162473
31.78200879
31.80909587
31.80522809
31.81818918
31.8130063
31.7869048
31.86846243
31.84022683
31.84420068
31.80771015
31.82999
31.82330458
31.84471459
31.83640495
31.8158138
31.88336557
31.85904142
31.865437
31.84819652
31.86231102
31.85252049
31.88223995
31.87112168
31.85939395
31.90535783
31.88683539
31.89508179
31.89547817
31.90146277
31.89133845
31.90939355
31.90601709
31.93034937
31.91847973
31.65384828
31.68124298
31.67701953
31.69208154
31.68612613
31.65971425
31.74145235
31.71340507
31.71839308
31.68483027
31.7069799
31.69884764
31.72750414
31.71624006
31.69642233
31.7619328
31.73823982
31.74737442
31.74415414
31.75515686
31.74018385
31.78875258
31.77127456
31.76328709
31.79771599
31.78271614
31.79802301
31.83514458
31.83054142
31.80863488
31.87361066
31.85155349
31.86063305
31.85030206
31.84877561
31.86763069
31.93394657
31.91147411
31.89353015
31.92692537
31.94999808
31.90737857
31.91292431
31.55248452
31.57666239
31.56826798
31.59889804
31.58662639
31.5647458
31.63425011
31.60983942
31.61993718
31.6200941
31.63230832
31.61397214
31.67815136
31.65373592
31.64561282
31.67918604
31.66486775
31.68551658
31.74972658
31.74019643
31.70810575
31.8153224
31.77530749
31.79514645
31.76261325
31.76586901
31.79759705
31.96346416
31.90420988
31.85920822
31.99803352
31.95023274
32.02741065
31.87745602
31.91179345
31.94880916
32.20379325
32.09011808
32.05123177
32.14797897
32.25073298
31.99819455
32.05102887
31.46936668
31.48741837
31.47104143
31.5335662
31.50801372
31.49351753
31.54385343
31.52475461
31.54662075
31.60245243
31.60110224
31.56406458
31.69818622
31.64542408
31.65415091
31.64188471
31.6423643
31.68586921
31.89417113
31.84090981
31.76387537
32.03150714
31.92925679
32.00889738
31.82544647
31.8710153
31.95239529
32.45640524
32.27268749
32.14839074
32.53069845
32.39233745
32.6655302
32.10309975
32.25372176
32.35777539
33.27066398
32.80636238
32.72015034
32.95039005
33.41234991
32.41123142
32.62335148
31.41230781
31.42432152
31.39484296
31.50531387
31.4609036
31.45283905
31.4809207
31.47018912
31.50885775
31.65291286
31.63071548
31.56127752
31.83650676
31.72125104
31.76102747
31.66945058
31.69408306
31.78953783
32.28343158
32.15669913
31.97978685
32.64134384
32.37379359
32.55541575
32.10381576
32.22928327
32.44079216
33.84902153
33.37109645
32.96978205
34.37007619
33.80600493
34.59250423
32.90741664
33.38181036
33.80882813
37.97291313
35.8872186
35.24675192
36.77969984
40.2419358
34.11257517
35.10356649
31.37531595
31.38281394
31.33791959
31.51142193
31.43867782
31.43691118
31.44676749
31.4424388
31.50723933
31.77195236
31.73364767
31.60713147
32.1112827
31.89817036
31.95906545
31.79762411
31.84879886
32.03487592
32.93580679
32.74666483
32.38690385
33.84796589
33.22067137
33.48770285
32.75273979
32.98537063
33.50422673
36.77158464
35.89336167
34.70937175
40.41494001
37.50565401
39.16785801
35.28400313
36.52858438
38.51915076
44.9535254
43.89953825
45.54834893
31.35041491
31.3551834
31.29367198
31.5453398
31.43609404
31.43803106
31.43467226
31.43579065
31.53596541
31.92306015
31.88292908
31.69122648
32.46158973
32.13357232
32.19411349
32.00983093
32.07579575
32.37668709
33.62987897
33.46498764
32.89284391
35.27655539
34.23262615
34.45496071
33.73897667
33.99750366
34.95375393
31.33724252
31.33982588
31.25932449
31.59628342
31.44868363
31.45315698
31.44108894
31.44447405
31.58258306
32.08097411
32.04243058
31.79038336
32.79216538
32.36895359
32.42405017
32.25376172
32.31145037
32.71330936
34.19036408
34.06340901
33.34276767
36.2870631
35.01526403
35.17551593
34.65806739
34.84466934
36.07510733
31.33340365
31.33341529
31.23297003
31.65543303
31.47132355
31.47749522
31.45870109
31.46448847
31.63940506
32.23487846
32.19826372
31.89363806
33.0838168
32.58712312
32.63790689
32.47941653
32.53297507
33.01282349
34.64958026
34.54004343
33.720149
37.0177427
35.60652613
35.74448799
35.32433009
35.47000229
36.85273734
89.9263421
80.29434014
81.02219117
78.89057533
79.60738246
89.0232627
31.3370425
31.33637355
31.21471288
31.72120705
31.50254122
31.50861313
31.48588458
31.49177353
31.7011358
32.38664389
32.35176309
31.99995605
33.35500292
32.79518257
32.84402046
32.69173425
32.74024844
33.28546936
35.0801473
34.97117914
34.0647523
37.70809669
36.14497691
36.28783329
35.87577982
36.01360714
37.54344298
105.8960344
92.61306172
93.53381049
90.87336584
91.75785205
104.7560991
31.51936697
31.5253082
31.76745294
32.89616779
32.94684785
33.5556892
36.4250825
36.57720171
38.30386659
128.4097004
109.7530466
111.2105459
107.2219855
108.4761964
126.740205
101.4459233
89.19929561
90.04941096
87.58887076
88.40510571
100.3920919
121.9072147
104.8231075
106.0622213
102.5401841
103.6877449
120.3950075
62.1154315
56.55085448
59.98643541
49.07540755
51.54307051
56.80983558
45.32127327
47.91217312
45.27229208
44.36330013
45.24715966
43.09865631
53.31770337
49.61536398
46.90678252
50.99631184
57.21221828
50.13890501
50.51550066
56.09725397
47.23124067
46.94212403
44.13601669
54.50084132
49.41442157
49.77951061
53.81521184
54.41921126
62.14312799
45.75497192
49.26940361
48.88202574
50.12820257
49.69020009
46.03001708
44.77599226
47.83957425
47.52968377
48.51180544
48.16824318
44.99884712
59.59293094
52.723304
53.25559605
93.49475848
83.13311222
83.878981
81.71030165
82.44273407
92.58410924
59.2448245
60.00355166
69.43232059
48.48393628
53.23978524
52.6830466
54.41502382
53.81945702
48.89245648
46.97957566
51.08577818
50.60117546
52.12989546
51.60453285
47.32576968
66.54881102
57.7949364
58.52155594
110.7430743
96.31249373
97.3170729
94.42338013
95.38144921
109.4947803
255.83287
258.2197363
306.6361339
50.27408361
55.65921963
55.02628193
56.95152292
56.29911325
50.61337117
74.90748755
64.09297996
65.02057109
135.71411
114.7559338
115.9867106
112.3693015
113.8756517
133.8708091
370.8387735
378.3328557
474.8129778
305.6656936
297.2494842
273.6748248
402.1805289
326.59994
330.5104237
197.7033508
178.5643
180.6131009
175.8947445
177.1177992
192.0890406
271.6145658
221.3643397
225.9673282
211.1878327
216.7210697
265.388813
135.4487237
137.4017346
173.7760511
97.21393365
113.6794924
112.3272653
116.502376
115.0715908
98.2775265
93.83232949
108.518813
107.2146532
111.0220115
109.7601778
94.38148536
164.7790055
131.5584191
133.4973377
358.2701155
287.9700993
291.8752954
281.5027901
284.7228768
353.8505398
438.5398907
335.901712
339.6667681
328.4238228
332.158781
434.2129235
223.7796689
266.9710344
263.8055882
292.7370862
236.6696834
240.0251554
229.6737214
233.3236277
288.1213216
341.9514312
275.1845381
278.5124149
268.8816294
272.1069495
337.9686943
97.33197376
86.05306618
86.82885957
84.57810891
85.3357821
96.35334121
285.611797
282.4754696
235.3901707
455.7790247
351.0476194
354.8655689
343.4441464
347.2231005
451.4359401
304.5490563
308.2961177
378.3472197
324.6636877
271.2529835
274.1479282
116.053593
100.3637709
101.4688702
98.29087746
99.33966813
114.6833014
275.8443364
318.9800798
312.7843109
117.399943
46.75013903
47.32966272
51.72120981
48.91810639
45.34599233
46.10235158
88.78696672
91.67368936
105.5664545
74.221526
79.98158517
77.43228641
84.13538602
82.06809163
75.58872031
74.77064483
71.3997886
68.35131864
90.53092494
82.00054052
85.58100623
120.4728712
122.5278074
151.494823
88.98806419
102.877183
101.1596267
105.9105302
104.4445821
90.27728413
85.15780105
96.64783132
95.49951704
99.4285789
97.9405962
85.90114886
143.1525702
115.843459
118.2637296
105.1601164
106.688837
127.5679742
82.35817396
92.33346228
91.2003562
94.43583893
93.36335407
82.9927253
79.18255369
87.4479766
85.81040901
90.08820827
88.76978979
80.00290272
120.5803228
102.0445007
103.6682528
68.31785742
73.52535866
70.10094695
66.50218399
70.36833753
110.5586252
98.66488099
107.5182076
78.55526794
84.85898449
96.85923684
72.52718849
78.09877738
71.64609439
444.4530504
359.5626199
365.3455881
218.9699401
187.2953284
190.3477974
182.477167
184.9695181
213.7686995
244.3887872
200.9956606
205.9968958
193.2607907
197.0906814
237.2631219
209.6956881
226.8213385
275.2505062
199.0765997
186.1373875
171.8245172
198.512312
177.1397883
191.2177218
386.5064994
303.2860997
307.6802946
295.2072366
300.2471765
376.8952871
260.5469996
257.0981715
217.504758
420.4678903
320.8361188
324.6765743
312.37181
316.7799007
414.642099
309.792942
249.7808925
253.0568147
243.2865204