/*--------------------------------*- C++ -*----------------------------------*\
| =========                 |                                                 |
| \\      /  F ield         | OpenFOAM: The Open Source CFD Toolbox           |
|  \\    /   O peration     | Version:  v2012                                 |
|   \\  /    A nd           | Website:  www.openfoam.com                      |
|    \\/     M anipulation  |                                                 |
\*---------------------------------------------------------------------------*/
FoamFile
{
    version     2.0;
    format      ascii;
    class       volScalarField;
    location    "2.01";
    object      p;
}
// * * * * * * * * * * * * * * * * * * * * * * * * * * * * * * * * * * * * * //

dimensions      [0 2 -2 0 0 0 0];


internalField   nonuniform List<scalar> 
3259
(
792.0929518
796.3538603
805.1667876
817.6415176
847.2045854
871.7861356
902.8538089
952.4830323
1002.253497
1053.853094
1104.950219
1191.076782
744.4843868
747.2312834
753.1097374
760.9789571
784.7401169
799.5330006
815.5982705
848.9452859
875.7741526
895.9461277
898.7534618
908.3022594
693.8887166
695.0565889
697.666071
700.734389
719.0334214
723.4881049
725.7698983
741.0703333
745.8236117
737.6763765
696.0087567
576.2212573
641.6446874
641.3746928
640.9051753
639.5441582
652.7220957
648.5224462
639.7044206
637.6505413
621.7228917
591.7945142
528.7162574
416.1438486
589.0441228
587.5922412
584.5861035
579.6040123
587.9973065
577.0144062
559.6748217
544.739882
510.243777
463.1495417
392.4559334
288.4025666
537.2230911
534.8575952
529.8910525
522.1667436
526.5555992
510.706365
487.7073259
465.9591637
419.8094064
361.3599075
285.9083413
196.3286053
487.064969
484.0386801
477.654042
468.0139234
469.3740542
450.4673399
424.2556931
399.392556
352.3126717
292.2128378
217.3767166
138.7096522
439.2133848
435.7644393
428.4721953
417.6548768
416.9045322
396.4274637
368.8159754
343.2774995
298.0366565
243.1425169
178.2536508
111.0262736
394.1012989
390.4386118
382.6911019
371.3268612
369.1935762
348.2966278
320.7479841
295.8579833
253.7675193
204.7777271
149.0387426
90.92487726
351.9785209
348.2687457
340.4288209
329.0244149
326.049634
305.5723375
279.1631728
255.5482425
217.2109974
173.854917
125.4389819
75.77523878
312.9363243
309.30412
301.6388674
290.5663365
287.1791091
267.672313
243.0125299
221.0785605
186.610434
148.3801925
106.3183368
63.71320615
276.9425517
273.4776687
266.1744766
255.6884805
252.2107037
234.0227888
211.3791491
191.3772556
160.6698384
127.055084
90.55471957
53.89623173
243.8792938
240.6434769
233.8287193
224.0934901
220.7586655
204.0834894
183.5746529
165.588189
138.4313872
108.9717983
77.3335453
45.75262528
213.5717592
210.604203
204.3570589
195.4694235
192.4374718
177.3619472
159.0019195
143.024944
119.1689032
93.45627506
66.07953272
38.88779584
185.8052328
183.1277815
177.4916831
169.4996008
166.8834269
153.4243848
137.1650237
123.1376492
102.3241731
79.99631037
56.37854769
33.02088079
160.3396203
157.9617178
152.9546171
145.872533
143.7495219
131.8803349
117.6384885
105.4740413
87.45603507
68.19533478
47.91902621
27.94477965
136.9231497
134.8460796
130.469043
124.2894694
122.7150016
112.3843956
100.0613714
89.65876565
74.21141397
57.74341129
40.46089506
23.5021499
115.30106
113.5208613
109.7643589
104.466768
103.4807804
94.6263322
84.14655958
75.36806382
62.29902038
48.38775862
33.81863372
19.56993848
95.21410546
93.72486357
90.57420573
86.12811025
85.77668292
78.32215745
69.62915115
62.34366919
51.48071475
39.92552365
27.83537072
16.04844263
76.43186434
75.22454377
72.66293981
69.03862381
69.3314688
63.21284127
56.19948266
50.37584693
41.55710432
32.18734012
22.37754537
12.85443101
58.63171126
57.70688412
55.72572909
52.88235238
53.96031258
49.06459371
43.54145708
39.25449551
32.34431161
25.02073266
17.33446921
9.917385936
41.86468881
41.19527433
39.77645426
37.75037407
39.18541673
35.66093852
31.59637815
28.7660326
23.67190937
18.28793221
12.60887577
7.177283032
24.8600036
24.52775422
23.68768547
22.47086205
25.10059984
22.81221209
20.14003114
18.73947796
15.383858
11.86017518
8.109882144
4.581897924
11.91472995
11.63170208
11.21425378
10.58698223
11.34802644
10.19792932
8.910433394
9.017989307
7.32833705
5.603224133
3.746222047
2.09209864
1207.293159
937.7291198
1153.980317
1203.667364
950.7793851
942.3142388
1173.960275
1078.488224
1119.207813
1257.525242
646.1762624
1265.466855
1270.962043
1043.40963
1108.305489
1059.543764
1113.963858
960.1430138
1263.034335
1124.056497
-234.2894564
1190.444908
1155.553581
1098.306073
1222.429385
1173.066787
1198.870855
1314.235381
1282.457579
1237.866869
1296.877665
1322.620611
1327.026758
1318.148411
1077.382925
1013.470842
953.4038618
975.8471544
518.5254499
233.9593787
1204.981759
-221.429704
193.1843252
-135.472424
1197.197514
-171.1993481
160.6400704
743.4533417
684.4776514
906.2223618
792.1306406
814.6841379
998.6558901
1151.117618
1136.862726
1104.937666
911.4423439
708.9816559
1359.123506
1284.422555
800.9456262
994.064254
951.0627029
1093.467485
1054.677962
1064.863939
201.6275327
1072.581657
469.8956282
745.010994
556.4362051
592.3669153
1234.017109
1156.084502
1175.016717
1147.290223
1158.190874
1221.429496
1209.122079
1184.241576
1352.426301
1293.607995
1044.874388
1040.305519
996.3253095
644.4691257
562.5862214
1054.495769
308.6762079
452.4753345
358.5301315
1223.855775
-372.2140868
49.49442507
257.4957081
7.190860326
1157.233187
1241.799926
1217.953564
1230.684078
1283.166841
1271.448582
1249.852844
1275.958052
1284.365097
1277.933944
1102.243575
1255.04578
1261.900132
1268.631002
1131.296444
1301.312876
1279.262826
1290.480161
1346.454522
1330.599262
1309.208673
1331.154256
1341.537862
1336.14088
1309.736398
1313.347465
1321.683771
977.9483701
990.6286767
962.9455299
687.8835455
985.3378588
398.8192408
516.3109473
627.5999378
1211.177278
1215.377484
1211.114639
-285.5910115
-128.0272476
-108.0006473
-123.871354
1187.257633
1194.129872
1204.204899
-28.75880815
1375.094496
1371.453694
1287.880248
1281.50043
1287.619817
1282.491029
980.7831201
1005.503713
1092.007808
1081.478777
1075.374025
1059.332915
1089.116365
419.2478631
407.8446691
1060.706375
950.9814968
739.3743528
1235.670668
1250.762372
1245.401667
1143.423903
1346.745935
1334.421616
1366.748938
1358.592796
1298.303749
1305.155983
1301.370361
1308.024079
1301.526458
1324.189743
1315.880251
1040.699381
1019.991934
1022.309263
607.2402146
616.3311908
667.457046
564.7089988
569.6824491
556.8182811
1033.77872
400.7632094
353.1113106
289.2810921
1216.671405
1218.475819
1223.918069
-351.6829353
135.7723267
80.41551936
242.3367784
233.5029224
243.6363881
64.29600782
-66.19333303
-46.97399746
53.18387369
1169.955221
1184.836255
1177.473019
977.283556
1018.44889
1032.94049
1077.389472
1092.419123
1138.738363
874.4303968
898.6449803
989.4803084
906.6759722
928.5262244
1040.932627
934.6135386
947.4919365
1092.763485
1054.797466
1054.980983
1137.689791
1145.465424
1165.189465
1214.09247
767.7532606
775.8239638
869.2666841
777.8572747
778.5840328
892.1259891
776.1981212
756.1428303
900.2851529
845.3107071
838.6439457
910.5137057
869.4129892
856.9384985
925.0203459
662.6675558
655.2745709
745.2035968
651.8460917
635.3349443
741.8752281
626.7838329
586.8503885
711.2525119
567.5125902
489.0965655
624.213526
451.5481932
566.6985861
544.9561658
626.4250158
536.6798378
506.1588379
601.5125907
493.3533749
444.1306667
548.6661174
423.8446517
347.1166604
448.5647213
318.0444913
484.4254463
452.1338405
519.6256703
439.9286482
399.1072771
476.7325835
383.7611396
330.867753
412.9359157
309.1649238
243.3090922
317.9439924
215.7853838
414.9683211
380.8786692
432.692661
367.7499283
323.0488546
377.1043729
306.7208981
251.849524
307.5687339
231.0373275
174.4911097
222.6957445
150.1269715
356.4079148
323.0540468
365.3188596
310.5691099
269.2175643
308.3092164
254.2737769
204.6403854
238.0367267
186.4818649
136.3660794
162.5706359
116.4929447
306.9704686
275.5487873
310.303325
264.0309034
226.7782818
257.6548962
213.5763699
170.6872577
195.3319881
155.8367411
111.6595296
129.7298388
95.29568566
265.0162185
236.1449348
265.015904
225.7318384
192.6362657
217.568613
181.0117669
143.5994865
163.3204456
130.8703937
93.16590928
106.6139274
79.23151716
229.1959558
203.0787773
227.3430131
193.7797055
164.5453511
185.1145849
154.3175533
121.6932306
137.6964783
110.7454043
78.4306382
89.17968218
66.49099235
198.3917982
175.0133715
195.6379977
166.7749411
141.0319869
158.2832747
132.0516632
103.6488238
116.8621026
94.23013015
66.40740585
75.20099489
56.17488582
171.6966546
150.9430697
168.6549285
143.6869083
121.0899833
135.7442109
113.2286947
88.54558627
99.6270319
80.43523345
56.42500525
63.74175023
47.65550987
148.384292
130.0963212
145.4552319
123.7382209
103.9811723
116.5716832
97.12459589
75.71754464
85.14678575
68.73332118
48.01056087
54.18958705
40.50095133
127.8751315
111.8750723
125.3153671
106.3344975
89.14560505
100.0781154
83.1919709
64.68293871
72.80658361
58.67656015
40.82385336
46.10988212
34.40637339
109.6948559
95.80463578
107.6721407
91.00858916
76.14825111
85.73866595
71.0083871
55.08077831
62.16022294
49.93194203
34.61267338
39.18798408
29.14906031
93.45023139
81.50299746
92.07634519
77.3872586
64.64722246
73.14416694
60.24470133
46.63159611
52.86959049
42.24236907
29.18432257
33.18853285
24.56064131
78.80666977
68.65676757
78.16608309
65.16605575
54.36653771
61.9723069
50.63570356
39.11942271
44.67312127
35.41163833
24.38869099
27.93127092
20.51089373
65.48815665
57.00746236
65.64118785
54.09397542
45.08121213
51.95968366
41.96689314
32.36714395
37.3664863
29.27711773
20.10325804
23.27382934
16.89508285
53.2753664
46.34294081
54.25671526
43.96430097
36.60677871
42.89328256
34.06258943
26.22402965
30.7796273
23.69908262
16.22598964
19.0992904
13.62628539
41.96555118
36.47039389
43.80805709
34.59047427
28.77879471
34.59531272
26.76649481
20.56285276
24.76813445
18.56182409
12.67088587
15.31008241
10.63096228
31.33508157
27.20582689
34.10393706
25.79803378
21.44776784
26.90503922
19.93757859
15.2728707
19.20968857
13.76559541
9.364449692
11.82364354
7.846842232
21.20899783
18.3847885
24.96513773
17.42799366
14.47503714
19.67629006
13.44535614
10.25192567
13.99628915
9.218234064
6.241856307
8.568921188
5.219652552
11.42833967
9.855036455
16.23081117
9.33013912
7.72282769
12.7721089
7.160889649
5.405222093
9.027331406
4.835215425
3.249322959
5.483262326
2.705126773
2.246452486
1.772170974
7.748851897
1.610078892
1.119176171
6.048661166
0.9833033697
0.933494698
4.205190365
0.982663561
0.3713441192
2.516943462
0.1944893784
1229.49392
1273.884014
1249.42753
944.9382152
992.8042626
986.0480774
661.7810184
1164.282689
1239.858377
1202.040349
1286.778638
1250.753701
1173.41951
939.8302765
1026.693105
1002.395383
1044.723994
1030.846579
940.4168325
1146.100309
1060.484007
1078.240996
1092.465396
1147.915093
1127.842191
1129.335111
1125.158577
1113.977275
1251.938541
1243.771303
1249.187006
508.1377871
718.3858365
752.9442904
662.4459732
466.4404136
642.2039253
627.707021
1272.190474
1266.702782
1259.706451
1337.961445
1353.33331
1264.473606
1288.150225
967.0974409
996.019778
955.4385277
1102.342105
1089.569938
1095.671725
1007.466158
1012.44499
1072.885422
942.7699607
915.6714927
1061.390902
1184.861812
1175.381794
1180.592602
1137.286325
1145.304185
1163.773271
1101.186862
1133.659147
1118.145242
1206.482849
1215.053827
1231.133279
1181.416116
1198.419957
1190.009786
1206.272976
1201.563492
1193.516592
1310.104457
1302.214633
1306.057722
1267.790747
1276.299755
1291.149859
1246.53464
1261.47064
1252.945336
1324.579939
1333.955452
1305.852945
1320.132689
1310.929233
1331.005167
1326.004015
1318.082972
1055.943683
1053.570871
1090.061527
1003.944988
1040.633063
1034.591042
473.4037875
515.6214347
550.96313
264.366025
313.7268507
277.3788773
147.0608021
185.1865207
224.3916955
-134.3610756
20.178738
727.1624785
781.7122416
793.2164099
759.8009248
768.6323736
708.3885187
909.1379001
817.2470071
795.6862939
784.9308162
821.3421844
830.6628146
896.3341948
800.5518076
744.9834779
932.4789957
861.9527112
781.1897304
1146.096379
1136.15323
1141.039926
1126.271316
1131.059615
1141.191606
1109.19197
1120.381306
1115.79092
732.1363485
719.6557651
725.6299285
656.1762262
683.504909
739.9993188
1365.444923
1370.837753
1365.40066
947.4163169
950.1572092
649.7847793
982.0571783
988.1884757
991.6016779
954.0574204
974.1107397
967.9229076
1081.307675
1084.924028
1097.47094
1056.358466
1071.277247
1068.393733
316.4664224
767.1333333
870.2569734
827.8864594
663.0147965
880.9118079
691.7920939
750.2270569
700.7370443
1166.358274
1170.589918
1179.883692
1151.147479
1161.045341
1156.433926
1170.226132
1165.583432
1155.584402
1217.74914
1209.460876
1213.421168
1201.17923
1205.217909
1213.616764
1188.602989
1196.997999
1192.314552
1344.790583
1351.387646
1359.308097
1025.622854
1022.907751
1040.049626
987.4446207
1004.853518
1010.903218
427.3637889
389.2924119
406.9887095
319.5855561
356.4604578
395.4008757
65.41174438
116.4521957
93.12786271
1234.298586
1238.792264
1246.813855
1222.105356
1230.58928
1225.801908
1240.267616
1235.307563
1226.507942
1279.780805
1273.069266
1277.399074
1264.567534
1268.68511
1275.801329
1254.463677
1261.732583
1256.87273
1294.213655
1298.149874
1305.844741
1283.090258
1290.559959
1286.269515
1298.029579
1294.46489
1287.009765
1340.946567
1333.662816
1339.030701
1323.924266
1328.558033
1335.740466
1313.516475
1321.153573
1316.2384
438.1050491
480.3362381
443.5709679
539.7003495
512.1003124
476.0972643
584.6531122
555.8416525
588.6573402
-86.66659678
976.2453196
967.530066
975.1346605
1024.812018
1005.25415
991.7121138
1304.744266
1090.029925
1058.931463
1000.451071
944.1891702
1049.867109
919.0669736
995.9704237
1001.763276
748.7363102
766.370881
724.4630803
878.8671775
890.4895839
906.1671157
924.2876882
945.0378044
964.5651772
817.6455882
825.3017977
858.6131733
835.7695222
847.028383
886.490793
858.603185
866.7874686
941.0450217
926.997424
937.644362
964.5096024
971.0396038
982.2680739
1015.127386
1014.865601
1025.18723
1066.6832
1177.027544
1182.892784
1198.389905
752.4107736
756.6655563
791.7863541
761.6803218
766.6157051
807.7407541
770.6912562
764.8292736
842.2262481
821.8225024
827.2777508
855.7048114
843.0874435
847.5580586
881.8662869
855.7552253
855.8613202
898.6436103
685.6833031
685.9192676
721.5079182
685.6478908
684.4780396
725.181805
682.03673
664.696544
739.6220316
714.5435442
714.8342025
742.6096146
713.8245995
712.3763255
745.3587021
699.8447739
691.9285446
731.4520269
650.913749
629.4763825
676.451593
527.3201176
517.9789362
578.0108243
619.8325578
616.6511499
651.2801091
612.193349
606.1685438
644.7485341
598.8121349
573.3180973
641.1132584
613.269293
608.6406694
634.1933378
592.4751493
585.7257828
616.1806483
557.8670055
544.9909377
580.0140051
491.8533526
468.5587019
505.3751472
382.6144145
331.5323309
365.9207491
556.6149997
550.7194432
583.4533849
543.1066923
533.5265992
569.0064235
522.5985394
493.3550766
552.4317826
523.7619044
514.8395295
536.7255306
485.1879907
474.0521085
500.0931926
434.7340735
419.138136
448.0446788
362.6838205
338.4854143
368.3205482
261.5016465
226.1935258
248.047216
497.2370078
489.4733667
519.7348446
479.7846317
468.0008502
499.8456364
454.9750168
424.6919082
475.3286727
448.2231317
437.9189617
455.8208057
401.3081763
387.2554789
406.2684142
341.074686
324.3584669
344.8066644
265.2265658
244.9303609
264.5267312
178.9225945
150.6609889
167.5183182
442.3860647
433.4992786
461.0726055
422.6596597
409.7636021
437.9730726
395.554583
366.1670834
409.350899
384.4390593
373.895842
388.8274126
337.6668048
324.0256201
338.4550613
278.7738724
262.4320585
275.5498649
206.5683821
188.1639513
198.9409095
129.2080935
104.9947477
112.9972163
392.2892981
382.8926669
407.7783547
371.6307957
358.5098237
383.3050589
343.9219092
316.3166753
353.1711501
330.6555795
320.4289967
332.915983
286.1287787
273.5218112
285.1439702
232.7042596
218.0396435
227.9686276
170.5759726
154.7426297
161.7142212
105.3027243
86.01722225
90.56342415
346.8710047
337.4391941
359.7749898
326.273278
313.507067
335.2725173
299.1891154
273.696944
305.2916923
285.1509905
275.558814
286.0674246
243.9821674
232.6021899
242.0742197
196.4404372
183.5850121
191.4945226
142.6485372
129.2509705
135.070773
86.79665884
70.90499942
74.29066075
305.9005038
296.764379
316.7499611
286.0376706
273.9677197
293.1088441
260.4796176
237.1426989
264.2804452
246.4132721
237.6146057
246.527021
209.0599726
198.9250245
206.7691764
167.0349661
155.7576583
162.201879
120.2891533
108.8930034
113.5796329
72.50989043
59.21329456
61.88218753
269.027757
260.4006216
278.2743746
250.3338965
239.1176081
255.9930092
226.6755954
205.5759306
229.0449989
213.2287384
205.2689451
212.8921125
179.7307759
170.7699125
177.3650505
142.7005065
132.8204255
138.1661164
102.0996751
92.35072218
96.18723855
61.07454097
49.8704086
52.02674908
235.8703666
227.8798819
243.8737361
218.6060402
208.3461703
223.2587447
197.0385771
178.1255354
198.5589422
184.5798478
177.4526486
184.0298859
154.7949268
146.9067747
152.523334
122.2599902
113.6238447
118.1213353
87.03702643
78.65408025
81.85226625
51.72123221
42.21874025
43.99919198
206.0379602
198.7523899
213.0893731
190.3346986
181.0714412
194.3037979
170.9174682
154.0860334
172.0004026
159.6570711
153.330079
159.0521898
133.3610974
126.4437746
131.280412
104.8746776
97.34683572
101.1787996
74.35409487
67.1279406
69.83476318
43.92913886
35.83422443
37.32901465
179.1533124
172.6005452
185.4849913
165.0580002
156.7914356
168.584286
147.7700643
132.8891016
148.7010217
137.811191
132.2393447
137.2575164
114.7500442
108.7113672
112.9186185
89.9158283
83.37627044
86.67999345
63.52228084
57.29355744
59.61434423
37.33664782
30.42830666
31.70038472
154.8587611
149.0401499
160.6623347
142.3640246
135.0692506
145.6345718
127.1371304
114.0649975
128.120194
118.5200386
113.6525958
118.0887899
98.43696463
93.19524046
96.89030699
76.90392252
71.24856415
74.128862
54.15783929
48.80107236
50.81408217
31.68459617
25.79391341
26.88939413
132.8196503
127.7203401
138.2525845
121.8857264
115.5242596
125.0452767
108.6267568
97.2212741
109.8090978
101.352333
97.13782137
101.0919731
84.00504058
79.48866489
82.76451427
65.46673464
60.60645597
63.14392988
45.96862451
41.38436988
43.14973306
26.78005855
21.77534921
22.72928518
112.7260396
108.3223432
117.9218824
103.2967116
97.82676827
106.462429
91.9090404
82.01667545
93.3920381
85.94758057
82.33777682
85.8938645
71.11856508
67.26551876
70.1978476
55.31040983
51.16964644
53.42915593
38.73032373
34.83855032
36.40279037
22.47545452
18.25262717
19.09237738
94.29219789
90.55415421
99.36526439
86.30003841
81.67903701
89.57736345
76.7336072
68.17991243
78.53390503
71.99604547
68.95004609
72.17810928
59.49986982
56.25685958
58.90807428
46.19526699
42.71107463
44.7447076
32.26655676
29.00008941
30.40140916
18.654477
15.13027762
15.87791575
77.2475637
74.1437898
82.30276126
70.62461202
66.79231319
74.09344061
62.79807976
55.48986315
64.97852066
59.25581063
56.73446651
59.6893777
48.9232637
46.24415539
48.66461189
37.92931701
35.04913597
36.89881298
26.42631658
23.73161299
25.00195482
15.22219825
12.32988657
13.0036181
61.36095092
58.84539783
66.47134596
56.02464366
52.92259499
59.74284113
49.7708551
43.73641411
52.52141475
47.52368421
45.48664051
48.2178857
39.19429429
37.03930632
39.27441613
30.34775678
28.02724016
29.73062699
21.0819222
18.91776476
20.08419079
12.09859191
9.785281627
10.40065663
46.3023872
44.38931989
51.63009586
42.27301279
39.90085222
46.3176643
37.49499885
32.66715157
40.95558022
36.57645779
34.99718359
37.55916797
30.13182079
28.46931675
30.56117987
23.30200933
21.50561881
23.09616482
16.12697691
14.4601242
15.54597083
9.216077057
7.440553988
8.010714894
31.955277
30.66615005
37.52977102
29.18250827
27.51291817
33.63798026
25.82440646
22.12275162
30.03148378
26.21948508
25.07600835
27.51174276
21.56979851
20.37569847
22.36265433
16.65733628
15.3585547
16.86677851
11.46641635
10.27190109
11.29814343
6.516726335
5.247860152
5.784148765
18.34388166
17.43158523
24.072541
16.57310012
15.60136547
21.48396796
14.59981592
11.94099636
19.58863139
16.28234668
15.55802335
17.9078331
13.35437308
12.60943142
14.52832588
10.28586068
9.467494894
10.92274095
7.010819951
6.273248574
7.258958191
3.950523845
3.166399574
3.678209488
6.110979875
5.57445491
10.78569429
5.15331606
4.79376211
9.571904783
4.410572114
2.401820952
9.469849387
6.621216067
6.303893169
8.592332492
5.343384972
5.024626998
6.906849952
4.051138188
3.713862798
5.142930271
2.701333234
2.413897551
3.348065068
1.478352745
1.15975088
1.6614244
1213.582893
1228.430495
1220.794559
937.7857917
957.3098081
955.1337163
1232.330782
1221.07104
1193.111276
976.2848748
973.1990552
941.253665
1164.253404
1134.49784
1143.132496
1081.783607
1099.550719
1094.266847
1291.543915
1298.429676
1042.907936
1045.44815
1063.68707
112.7203448
906.714492
871.6417329
869.6354308
930.2387241
908.5071708
928.3014418
860.7162696
875.9010491
916.040116
244.2063968
600.7276386
553.5866134
605.8426292
990.5315785
1016.662936
1002.011963
1047.417902
1031.807027
1004.224701
1047.624175
1079.750814
1063.41808
1113.198111
1096.35387
1062.447611
1107.563979
1147.635504
1130.28159
1183.528074
1165.34684
1122.958169
882.3866225
909.8471953
900.5650638
928.9931032
919.3343879
890.4886553
976.8851324
948.5698082
959.7513837
914.4272695
948.1595666
938.6607983
966.2261542
957.3887786
921.7604417
1028.041596
993.3778347
1004.268725
939.8855805
982.4395398
974.6085475
996.6285403
989.7057119
944.2502047
1079.561298
1035.305717
1045.603672
1150.71389
1166.960073
1160.10475
1181.952402
1174.274743
1157.747003
1206.084678
1190.402536
1198.267982
770.5682006
798.7283097
794.6325134
806.7273274
802.823435
773.3225441
862.5133902
832.7465255
838.0852869
779.2232137
813.0933451
810.2239378
815.9964149
815.0567353
779.3430665
887.3756628
851.2900763
854.0942915
771.9148983
813.3746626
815.4903226
802.7823907
809.2720101
765.3624613
900.2086241
854.5487583
851.2095312
921.797635
901.7898298
903.9341069
660.4653395
687.3586274
688.3188704
684.726337
686.2394354
658.0695712
744.0536838
714.9319443
714.5078129
647.5534065
679.6917328
682.6312521
670.0862968
675.5986371
642.1481917
744.3605574
709.7538409
705.6575599
616.1271629
653.4495087
662.8351753
626.6215718
641.5203567
602.9563019
722.7901995
681.4811486
668.0606659
544.4484792
585.7052274
608.1788912
532.7458956
559.8094614
517.5321153
653.6598321
604.7397884
576.5603921
404.3073574
453.2791583
489.5876351
394.6698077
353.0483396
480.6777593
439.9364265
559.8082628
583.8295824
589.6179014
571.2734991
577.7729818
552.6112797
630.5185277
603.7375
598.4064587
527.6004739
556.2215597
564.1551093
536.8970316
547.2226374
517.5003641
609.5399084
577.9035144
568.7220654
478.8422027
511.2315704
524.9920669
477.2329907
495.3513435
462.4336504
565.727182
529.7894269
512.0896852
400.1642665
433.5646354
456.9343198
378.4792347
405.8240928
372.7296752
477.8663566
440.8358194
412.0460804
272.2775335
300.0541895
349.7720364
264.9241813
241.3089439
318.7799417
290.192241
474.5607981
494.1799115
503.700851
473.0912466
483.8996218
463.7438929
528.4035238
505.4475404
495.6048863
427.0933612
449.6994004
461.7312897
423.0866218
436.8627473
413.5213398
488.9858753
462.0383473
448.9851678
367.4417206
392.2397219
408.2418771
356.267725
375.0416745
350.0354449
431.2998836
402.1371942
383.6161519
286.4874104
311.1172811
334.8385076
266.131348
288.5004526
265.4365638
341.9504149
313.9179288
291.0009802
186.0020737
205.6404643
237.411025
173.7110385
153.3927288
218.2950969
195.6065752
404.4558625
420.8050043
431.2525218
397.2436555
409.4883992
393.1034173
444.7432528
426.6833111
414.4833729
353.708368
369.8961778
384.0452549
339.13544
354.8589188
338.7809487
392.0584537
372.5080519
357.1142022
289.881492
306.0791582
322.8840736
268.0339771
288.0875801
271.8967334
327.1652712
306.4986807
286.6025607
212.1505377
227.4590706
246.9563889
188.3680645
209.010643
194.4866774
244.5724218
225.7363547
204.3955656
123.2618871
135.8341055
163.5265777
106.4653086
95.77937873
135.2624888
119.5991248
345.9712707
359.6188453
370.1414414
336.4477367
348.395991
334.8531022
377.4828304
362.5940696
350.5226001
297.4079407
310.3558701
323.7657253
281.4994958
296.246586
283.6025124
323.7644824
309.6212118
294.5125807
238.6170442
250.1068166
266.1502464
215.1260238
233.2369064
222.1118564
257.8381139
245.2891939
226.5124601
169.180208
178.102843
196.0512177
143.220696
161.6543667
153.4159854
182.0711265
171.3917889
152.2118518
94.92059103
99.17994355
121.715652
76.70632913
73.17781901
87.37849125
81.10158785
297.0323223
308.4753539
318.5851774
286.5857032
297.811451
286.5528258
321.9297387
309.5935451
298.1590142
252.027238
262.4969861
274.8061684
236.4975773
249.7060204
239.5901249
271.6612631
260.3800392
246.7701855
199.8537651
208.6922335
222.8714479
178.504914
193.8541236
185.5110822
212.0114059
202.6668752
186.7225636
141.267872
147.8713789
163.0610466
117.120609
132.9380517
126.8753608
146.2126171
139.4166705
123.1655983
77.87923684
81.7499537
100.0229958
63.34421113
60.38833055
69.84463759
66.52442139
255.8109661
265.4796283
274.9015767
245.3409217
255.6252209
246.1785621
275.787404
265.4862552
254.9551792
214.979344
223.5810723
234.6468517
200.531757
212.1988818
203.9404021
229.9909865
220.871268
208.8309271
168.971967
176.0900165
188.5303925
149.8200185
163.1503035
156.4682135
177.632106
170.1915396
156.3810153
118.524447
123.7449149
136.6031574
97.38831151
110.9019031
106.1598748
121.2250377
115.9166749
101.8669013
64.70917945
67.71198878
82.89952879
52.56385006
50.23869835
57.62992981
55.02636359
220.8149462
229.0483411
237.6560605
210.8306813
220.1040935
212.1000972
237.1233621
228.4388096
218.9119496
184.2435668
191.4236659
201.2565159
171.0913669
181.3702837
174.5024478
196.0665706
188.5510726
177.9406559
143.7599571
149.6177659
160.5295653
126.7633424
138.3301295
132.8537777
150.1165874
144.0768437
132.0912106
100.2132958
104.4434883
115.397164
81.82844193
93.39891105
89.56999213
101.675471
97.4284783
85.40670222
54.29622016
56.68835737
69.41930188
43.99816646
42.13121343
48.0431436
45.96619196
190.8511725
197.924527
205.6893934
181.6204169
189.8975987
183.0485516
204.4086701
197.0134073
188.4907357
158.363589
164.4407448
173.1235603
146.5416353
155.586862
149.7896415
167.927817
161.6283347
152.2875833
122.8116131
127.7067114
137.2621106
107.8532817
117.870793
113.3105742
127.6285176
122.6391665
112.2536129
85.19425915
88.69002615
98.07430581
69.19954973
79.15447517
75.99997959
85.92807083
82.4604818
72.12769363
45.86374154
47.8184533
58.56468042
37.0684401
35.53983446
40.35834994
38.67287462
164.9745922
171.1031731
178.0402156
156.6316915
163.962354
158.0470821
176.4513497
170.0934138
162.5317349
136.2963701
141.5015882
149.137815
125.784563
133.7238288
128.7703882
144.2218623
138.8706083
130.6656763
105.1627632
109.3078214
117.6547444
92.08569832
100.7511929
96.90179442
108.9449487
104.7621446
95.77623248
72.65327264
75.59049464
83.66692124
58.75779482
67.34843535
64.70668098
72.986883
70.10592493
61.1943988
38.88849
40.51685297
49.64310502
31.3591962
30.0865778
34.0817727
32.68964093
142.4410168
147.7949215
153.9406907
135.0414346
141.4908544
136.3364506
152.336614
146.8211286
140.1578158
117.2710896
121.7770899
128.4665435
108.0261956
114.9688789
110.6903042
123.9998117
119.4023678
112.2200932
90.10490914
93.65832775
100.9284821
78.74035108
86.23066798
82.93840892
93.20431427
89.64998576
81.88094691
62.02339095
64.52624054
71.48966621
49.98777819
57.4072124
55.16215904
62.17351427
59.74238271
52.04568251
33.02327416
34.40022352
42.18015261
26.58131933
25.50683125
28.86820462
27.70080093
122.6619683
127.3754377
132.7771144
116.2120889
121.8503809
117.3215223
131.3504392
126.5243438
120.6897361
100.7038773
104.6420829
110.4742703
92.66701679
98.71037595
94.97806592
106.559607
102.5686595
96.30903501
77.1066579
80.18723985
86.49651025
67.2948301
73.75865335
70.90998272
79.76685577
76.70898798
70.00092213
52.89779753
55.05621768
61.05626537
42.52042536
48.92015302
46.98862363
53.00259782
50.92341173
44.28117392
28.0253778
29.20419431
35.84394102
22.52931465
21.61114773
24.47498393
23.48322557
105.1602034
109.344022
114.0530633
99.6428346
104.538244
100.5244515
112.9307624
108.6717831
103.5966872
86.13787798
89.61292863
94.66699861
79.24525038
84.4756221
81.18758533
91.36542508
87.86647426
82.44035211
65.76085383
68.46081684
73.90960577
57.36348623
62.92156745
60.42878157
68.15756372
65.4963234
59.72189682
44.97240849
46.85502433
52.01026676
36.08537935
41.58663353
39.90534692
45.12494275
43.32541838
37.60951355
23.71590057
24.73676796
30.39483064
19.05218153
18.25862811
20.7267748
19.87435714
89.54367962
93.28911186
97.35669739
84.93063717
89.14558109
85.5567934
96.62416078
92.8331422
88.45345414
73.20972806
76.30522634
80.65033127
67.39813251
71.89061295
68.96577178
77.99693655
74.89956783
70.22905669
55.75282948
58.14404852
62.81788068
48.64844826
53.40083682
51.19589075
58.01345965
55.67216252
50.72671184
38.01353077
39.67319359
44.07736493
30.47677355
35.1772706
33.69781186
38.27837452
36.70330007
31.81075965
19.95844986
20.85226828
25.65266494
16.03492481
15.34158865
17.49209574
16.75134015
75.48387288
78.8682688
82.34096996
71.74698375
75.33610666
72.09704785
82.06183684
78.65644337
74.91542271
61.62421825
64.40886538
68.10471331
56.83543911
60.65496827
58.02684099
66.12081275
63.35178851
59.36958111
46.83039539
48.97107931
52.9422434
40.91976532
44.9463167
42.97485655
49.05390545
46.97170968
42.77010563
31.84010096
33.31840429
37.0480595
25.53535452
29.51583758
28.20014525
32.26256256
30.86929183
26.71559667
16.64667269
17.43782536
21.47889566
13.38834044
12.77589472
14.67012766
14.01940807
62.70917591
65.79401591
68.71140358
59.81965128
62.82983985
59.87986037
68.93525515
65.84720439
62.69634288
51.13829241
53.66806169
56.76602393
47.31973221
50.5215741
48.13625844
55.46403443
52.96308941
49.61153683
38.79075513
40.72736347
44.05595772
33.99261214
37.35705046
35.57511497
41.05457658
39.18265239
35.65822182