/*--------------------------------*- C++ -*----------------------------------*\
| =========                 |                                                 |
| \\      /  F ield         | OpenFOAM: The Open Source CFD Toolbox           |
|  \\    /   O peration     | Version:  v2012                                 |
|   \\  /    A nd           | Website:  www.openfoam.com                      |
|    \\/     M anipulation  |                                                 |
\*---------------------------------------------------------------------------*/
FoamFile
{
    version     2.0;
    format      ascii;
    class       volScalarField;
    location    "2.57";
    object      k;
}
// * * * * * * * * * * * * * * * * * * * * * * * * * * * * * * * * * * * * * //

dimensions      [0 2 -2 0 0 0 0];


internalField   nonuniform List<scalar> 
3019
(
36.90869718
36.90874255
36.90880517
36.90887007
36.95438712
36.95474518
36.95540426
36.95700667
36.96030363
36.96635236
36.97581623
36.98714301
36.7274394
36.72763118
36.72781278
36.72815411
36.77367787
36.77558122
36.77972717
36.80845198
36.8240264
36.85244282
36.89691929
36.95226318
36.54735285
36.54781577
36.54834172
36.54914975
36.5954145
36.60044566
36.6107051
36.64979795
36.6885498
36.7574575
36.86507967
36.97513643
36.36862768
36.36908362
36.36988033
36.37187184
36.41944535
36.43028206
36.45238224
36.51265971
36.59482157
36.74572314
36.9271263
37.09081235
36.19189064
36.19250674
36.19403719
36.19803625
36.2484469
36.26809742
36.31110552
36.40417924
36.57426709
36.82252141
37.10782033
37.36352245
36.01685371
36.01767573
36.02025226
36.02732967
36.08339349
36.11725402
36.19293792
36.34129297
36.61558184
36.99216508
37.46396815
37.96162942
35.8444438
35.84592162
35.85057441
35.86231732
35.9253833
35.9787522
36.10052418
36.32696421
36.70901992
37.26956987
38.07552651
39.31100916
35.67532117
35.67766464
35.68491572
35.70260256
35.77710077
35.85536705
36.03589995
36.33961559
36.83866585
37.61836307
38.91471176
41.65412379
35.51148271
35.51539523
35.52676427
35.55371339
35.63994797
35.74884327
35.99518483
36.36904555
36.99049015
37.97950541
39.68677553
43.71836006
35.35389342
35.35950806
35.37538451
35.41319631
35.51322497
35.65875948
35.97188609
36.41036776
37.14550595
38.30269139
40.25359574
44.6823858
35.20465343
35.21279427
35.2348636
35.28647436
35.39793204
35.58359479
35.96130941
36.46234938
37.30127496
38.59451268
40.71979129
44.86821207
35.06359361
35.07402717
35.10187547
35.16689827
35.29420822
35.52042934
35.96034421
36.52219195
37.45514135
38.86999974
41.16472626
44.50219821
43.55251106
44.60051897
44.88907637
44.56444716
41.29560013
40.12590804
43.64706536
42.80463967
40.60933622
44.21414614
43.74567344
44.85891352
46.66370199
47.60372696
41.06569785
44.25656928
44.24041717
44.76276993
43.13382644
45.06969149
44.24505501
44.27736197
38.43305749
40.84049019
47.81101173
49.63608635
43.76279515
47.40263166
47.71893837
48.40551798
44.25532493
49.0603281
47.80170465
49.74959141
49.20343091
45.25500515
46.50404412
44.88796809
46.17001138
44.38630631
47.72014442
46.28020348
40.97385763
43.01293987
44.71855819
42.07182813
39.57987533
44.26621932
42.2087897
38.25852475
44.24476864
36.33866315
39.43607777
36.54637262
39.51590265
42.64870476
40.98462403
42.64033809
46.4031929
43.35077084
44.14631195
48.48114718
48.43070824
48.26775309
46.71833503
42.91048728
55.24249472
45.81972601
53.18538604
41.24960271
43.29919459
39.742326
43.82243767
43.47213028
59.44985613
55.69917221
48.73387601
56.00438233
56.98023318
51.71843377
55.67610351
48.9825109
45.43823139
50.84011955
45.20107716
56.21504016
51.60232855
46.01002822
53.88112383
59.2681943
48.46818106
44.54981221
48.38818299
49.66473137
47.93414418
51.17475381
44.94346737
47.50861428
49.56965606
45.35977279
45.24463745
47.09663446
47.00577033
41.08950142
40.91986036
43.30086534
43.16135283
43.35019939
38.42867783
38.28585433
42.90777031
45.3865161
43.99961007
45.35263324
45.10096378
45.66403787
45.43315195
44.14055663
44.25403275
43.93266264
39.88208809
45.8164076
45.9338126
45.73604272
40.75695714
41.26700925
44.76132806
42.00849331
44.64933357
44.35604298
45.01386576
44.74322236
42.14517069
41.661185
36.25973171
36.59845753
33.67158065
33.90813533
40.07064877
43.8640485
39.9425176
40.61382234
36.73415438
37.11539336
42.61754614
39.00768125
33.33985734
33.59337858
32.80088197
37.51666574
53.25420411
53.15123157
48.67659498
49.57621862
58.0811828
57.52618743
57.0802722
51.75258092
52.33520054
50.71293786
51.51902546
57.38240022
54.13276508
52.57489658
52.40110473
52.46522202
52.59048016
54.41191433
54.57098848
49.47395425
50.44165252
57.62989085
58.08224702
43.14780074
48.56751961
47.69435294
49.38796795
48.80346506
43.73104839
46.48194697
45.88002377
47.39020618
46.68901104
49.23322315
51.62715201
51.09047955
52.27189526
51.79866896
49.69702957
45.97261205
50.15956726
49.58492868
50.90702717
50.34852291
46.34680956
40.26855307
39.77017579
41.13376959
40.44338886
38.97738528
38.49211606
39.61268887
39.12201591
44.91581355
44.34603155
45.68556817
45.11103322
43.20840176
41.58228219
44.13806917
43.56618756
35.80281604
36.12621178
41.52307391
34.07347254
33.85404421
34.38286022
34.16546668
33.74220065
40.28008286
34.00014569
35.49342679
37.96645867
39.65627582
43.72808933
37.58033018
35.34798485
38.39343145
37.64829339
34.76045039
34.4837567
35.19285014
34.86802559
42.75304521
37.25195192
37.7114778
33.03891142
33.26692634
38.8650737
37.76370755
32.81896209
32.98214696
47.10012846
46.29550968
46.19142505
46.37440977
46.32112115
47.23324782
46.14761264
45.99264757
45.9946418
45.82446239
42.80965378
43.44875899
43.75929045
44.71215747
46.60977819
54.50310944
59.14974739
59.92284485
56.35000141
56.38441533
55.25307174
55.09492221
52.28886892
53.29333308
52.91339775
54.91904564
54.70208033
55.24314289
47.99569942
49.15940392
54.04115118
55.38861373
60.86009573
57.19564908
61.03235111
61.38465286
58.64720814
41.49891523
43.69899629
43.16993094
47.37842964
47.14201192
44.30968165
41.05405819
40.81195012
42.73051699
42.37968192
48.3615049
50.55212154
50.2223218
52.55992658
52.22092348
50.66301487
45.24279073
47.99251602
47.71354353
49.89020135
49.56634966
47.11249988
42.11325174
42.63115156
45.71250842
44.87967858
41.43102453
41.94422461
45.65351858
46.15808399
47.37219943
39.39794174
39.24907627
40.59985687
40.40837193
37.0837358
39.02480008
38.90097919
46.70875014
44.94758831
45.47831525
36.35147299
38.65233666
38.52171848
33.76538787
35.29077662
35.19214595
35.60584283
35.40862728
33.84283725
32.8539435
32.80604904
33.42947416
34.9424588
34.85000407
35.11000492
35.02438006
33.50648909
32.98157311
32.90941737
33.7273765
33.14298061
32.88793409
54.14056819
51.36874185
50.56315818
53.6857599
60.34864168
61.86266327
54.60577013
59.17697606
62.87371883
58.66681349
56.88457544
54.06803236
53.69117451
52.83570985
54.9333824
54.51837372
54.25595098
62.07248904
61.75217372
56.71708752
62.36254323
64.48401859
58.50049047
61.87366119
62.04785042
45.99482779
45.83540894
43.09774148
43.88931606
46.76098425
46.59373961
41.54874302
41.29160826
42.08528445
41.80793698
51.21505479
50.88091809
48.78034292
50.1754503
51.88616206
51.55048713
48.61501039
48.31779174
45.64050737
46.70652284
49.24081714
48.93109772
40.09665255
37.24712452
37.401846
36.96752342
37.11170577
39.9346159
40.84784447
37.91070048
38.13999342
37.5534755
37.72542102
40.63328602
38.8033789
36.14839177
36.29719565
35.90633528
36.05211857
38.67695513
39.44723389
36.68925135
36.83584566
36.40971468
36.56256857
39.29297432
39.787566
39.61701273
44.72765156
42.64888725
42.83935352
42.25475122
42.42838932
44.52867644
40.18993024
40.00319187
38.23605606
38.11654431
42.93608203
40.90317698
40.97150486
38.47786239
38.95390949
42.22997876
43.96677402
41.8739838
42.01763154
41.48668243
41.59038145
43.72945018
38.65995082
38.5628553
35.87432293
38.07138341
37.93602423
38.37049104
38.24797642
36.04993163
34.01604564
33.91046716
34.31375786
34.21943707
33.71029446
33.68038376
34.17947393
36.70879196
35.99300701
37.6560325
37.3790691
35.20831906
35.9761769
34.74823347
35.28128495
35.58470608
38.16818757
35.66815188
35.82670519
35.40177894
35.59549013
38.08981522
34.67035854
34.56518434
35.0785632
34.96537376
33.11667687
34.58303291
34.48160016
34.76473991
34.66706779
33.18191659
32.87437847
34.19183372
34.02963439
34.39877757
34.2900193
32.92048273
36.68785457
36.70974965
36.81890916
36.71925657
36.75938589
36.84347416
36.77547293
36.83878823
36.88376918
36.86331267
36.94024055
36.93736428
36.9617547
36.54451366
36.59149543
36.67667961
36.61284829
36.70222639
36.73731165
36.7402514
36.86155639
36.83679154
36.90226109
37.01837224
36.95070767
37.05166313
36.42852712
36.52614604
36.56890278
36.57262888
36.73498268
36.70335682
36.79483212
36.98502521
36.8817089
37.04875979
37.22549147
37.05462798
37.27344043
36.35199307
36.52874719
36.51998845
36.5996159
36.84587315
36.75556593
36.93926159
37.24817527
37.03583002
37.354703
37.6763734
37.30637034
37.76959212
36.32652247
36.58033578
36.53810739
36.68203045
37.04807028
36.88800683
37.19106408
37.69796036
37.33939969
37.89488687
38.59765988
37.83706198
38.85840448
36.33534459
36.66900726
36.59947975
36.80655268
37.3189695
37.10906618
37.53025617
38.34047302
37.84342118
38.69713954
40.68293495
38.92614779
39.97972339
40.5986625
39.60402743
36.36042975
36.77741555
36.69208527
36.95198403
37.61313327
37.38901105
37.89228903
39.00553712
38.51470356
39.12835566
39.6672956
39.40402008
42.00409753
42.66099341
42.21639933
36.39897143
36.89822245
36.80716549
37.10651145
37.89365823
37.6854579
38.22531701
39.53559575
39.15127117
39.84419618
40.53494883
40.35006082
43.87319281
44.97145218
44.79722612
36.44856574
37.02406395
36.92940684
37.2621051
38.15261611
37.96031594
38.52348909
39.96507207
39.64923403
40.37626874
41.14237389
41.00334609
44.75309673
45.90714367
45.90759271
36.50590703
37.15153779
37.05628772
37.41619792
38.39698016
38.21510965
38.80154075
40.36173324
40.06404084
40.83638708
41.66981663
41.53466122
44.83883718
45.34560174
45.50557735
37.18423741
38.45725783
40.45974795
41.29662935
42.38424324
42.01471496
44.43684803
44.24657564
44.48263651
44.6080407
44.38442249
43.36289038
45.89826759
45.83349208
44.50549527
45.55400597
45.68591936
44.89881002
44.55768773
44.77260173
44.61991846
42.95518772
41.0380331
40.27299043
39.77670248
40.85618253
40.85812947
40.70249221
39.98972097
43.3178964
41.37336049
41.62714689
40.97798846
41.28334732
43.20361523
41.40831159
41.27531768
40.49299025
44.06864248
42.01055807
42.22780382
41.70643231
41.93617954
43.9998999
45.84470704
45.89878388
44.81270127
46.81627861
46.77753662
46.67466681
47.26709397
47.19840421
47.48190338
41.9361835
41.78542765
40.9421704
44.27414277
42.56625135
42.74904481
42.2988413
42.50126419
44.27452032
45.10215416
45.2877142
44.80308713
43.49749386
44.66729611
44.5084946
45.56095684
45.41442425
44.85290837
42.80379423
42.93738763
44.19302703
43.90938566
44.16486043
44.37590747
39.08142459
41.78022133
41.72329753
42.93977897
42.74729651
40.43633413
48.15717437
50.22805138
49.39695557
51.62514397
51.65736733
49.4379593
44.25490992
44.76403743
44.16902914
48.82023622
48.2413794
46.99277723
48.04427507
46.38741476
46.38428391
46.36044426
46.38225786
48.14283631
44.39488278
45.78494522
45.36196725
48.9131139
49.08533048
49.54105263
46.98454958
47.48481455
48.05576988
49.76066298
51.28735276
51.56165809
49.68995697
50.13067875
49.33681817
45.44805009
45.83389907
45.69722332
46.56734335
46.45543982
46.33886422
44.9009501
45.72427665
45.81990977
46.05310448
45.55208206
45.69628477
43.57923417
43.72506158
44.51519989
47.46376437
46.32563548
46.81998699
45.84359767
45.99173775
46.39529405
41.39312524
43.30929064
43.12499018
44.34700406
44.18343057
42.64758619
44.67113961
44.84066315
45.03863159
41.93510788
40.60697955
40.75226145
37.65668358
37.80663238
39.72935649
44.13568018
43.28506407
43.43578841
40.90014169
41.04642106
42.34534532
41.64612566
43.82057858
36.17896227
33.89589342
34.00103011
39.29339108
37.38610652
37.52004515
34.17270007
34.49756353
36.83175858
40.14526198
39.91760395
39.32990054
42.06568223
40.47504489
40.86627808
39.8533347
40.33378129
41.82884689
43.48240719
43.09069875
42.33729569
45.24272263
43.74783735
44.44610456
42.77849775
43.49703077
44.76633738
45.28348954
45.1152489
44.00679445
48.64192393
46.10205617
46.32395797
45.74310634
46.02102473
48.65527377
47.71691818
45.28327686
45.6457917
44.63706341
45.14935534
47.50355495
43.15102559
44.12705153
43.8277015
46.71250101
47.55142946
46.32269901
56.85858559
54.80063311
51.82447008
41.50208778
42.46931774
41.93465269
42.25707654
41.39266769
44.43030469
42.68971502
42.22374654
42.16604796
41.91400796
39.27406685
43.70588642
43.04191523
43.20806759
42.72529406
42.89971687
43.59183354
51.05097155
50.45183154
48.46125725
54.20873197
54.78334721
57.55722479
49.21330514
51.60301895
51.21859921
46.28854803
45.50010122
44.82391281
48.13235232
46.52275881
47.62261472
44.76785073
45.39203455
47.26885936
55.55127589
53.11490118
53.62986906
50.01126195
50.61986732
52.45578183
46.52182573
47.68900539
46.99677107
48.37898016
48.92228216
48.74332199
48.13469128
47.65411083
48.1867182
50.81674697
51.17854413
49.73326346
49.45970238
50.2733085
50.68667005
44.71848165
44.85790245
45.48035313
45.12193906
44.43781401
44.57908656
46.88110354
46.99693856
47.1924924
46.90642336
46.64505946
46.7642006
39.70056071
39.86278559
41.23992519
40.72564139
39.22616685
39.48571684
42.12543553
42.3292302
43.44030744
43.02409169
41.78559155
41.94638357
42.56240451
36.59382451
36.73311785
38.57687796
38.12859903
36.31835284
36.47371625
43.43943959
43.91551881
44.97531014
44.82314518
43.61898953
45.27042439
45.16911234
45.28140973
44.93801909
45.05457536
45.18647757
45.58908059
45.60426929
45.70732435
45.39149573
45.49955233
45.51193082
44.68507556
45.27368619
45.12403521
44.14949012
43.64596056
43.78803892
43.35194589
43.50336131
44.04306167
40.30020247
42.55708927
42.34863071
46.0944182
45.96555731
45.63295139
45.87128305
45.99735294
46.08906092
45.80628617
45.90335366
45.80530788
40.93689012
42.57714896
42.41268686
42.8973423
42.73458809
41.09231339
44.63502879
43.86736526
44.01157438
43.67307507
43.49221531
41.54728444
44.55361555
44.19395934
44.32460488
43.92552293
44.06102869
44.45585669
44.92525943
44.69927405
44.81953388
44.45225088
44.57692081
44.83512319
42.52543531
44.01729692
43.8477995
40.31610629
40.45898535
41.79783734
38.94149597
38.80188177
36.48870771
39.8895435
37.97871394
38.20213724
42.95876784
43.13240069
44.00817999
40.26264961
41.91151028
41.68588782
42.25675623
42.08135598
40.40759349
36.85394186
39.23577631
39.09107897
39.53374654
39.38587228
36.98939112
42.48173219
41.19368508
41.33987853
37.12223074
37.25592162
39.15152299
37.1882737
35.08366866
35.70462358
50.48527084
48.49615712
47.34685318
47.21456075
48.97328487
50.96778595
53.62625689
51.4486546
55.36910093
55.34037965
56.72160059
51.97239191
53.60496399
53.4385484
53.75185304
53.71342408
52.16501067
50.99417583
52.5569773
52.14146468
53.21045641
52.91728448
51.26159823
57.56558422
55.14437946
55.33597694
52.54961687
53.36161038
53.46425902
52.94714642
53.17373095
52.49541633
52.54895483
53.69582978
53.74052503
53.52930716
53.62080071
52.59206176
52.2126127
52.67900195
55.10822462
49.81899152
50.94451015
50.52392549
51.72874412
51.32392203
50.10680493
48.33791773
47.42536577
47.70478624
46.09147327
46.73456772
48.0312001
49.19861953
48.56626949
48.79092031
48.07849214
48.28663944
48.99365753
46.27852964
44.32202822
44.55101112
43.87769131
44.09848594
46.07789892
47.13179987
45.29102796
45.62091323
44.78348434
45.02617877
46.90310665
51.45155162
51.52179355
51.76542948
51.02990962
51.27700268
51.27201101
52.12377302
52.4815762
52.71533051
52.00696911
52.24582341
51.96498396
49.96989829
49.54155388
49.78562953
49.04916046
49.28837366
49.77641203
50.72196547
50.53089493
50.78011456
50.03448503
50.28087761
50.53557359
45.49471985
43.46382512
43.66564494
43.05312218
43.2524829
45.30149064
41.38453242
40.02385912
40.16713065
38.50869445
38.88805771
40.508035
38.38868706
40.71917569
40.41711361
41.42377703
41.082513
39.01649539
43.56793427
42.55031304
42.76765174
41.48658256
41.63403939
42.88832782
37.38641588
39.83935363
39.6855711
40.1874922
40.00336849
37.53679955
38.71928015
36.85802685
36.99357953
35.94637915
36.18926086
37.97074632
46.96439195
46.8741205
46.96143974
46.26548461
46.61020384
46.66377419
46.48787922
46.55165736
46.23054928
46.36109576
46.79724453
46.83337106
46.71276934
46.75716834
46.34260057
47.36149975
47.12622471
47.04832178
46.09971729
46.34293056
46.41811642
46.17798318
46.26266995
46.04793363
46.16902445
46.33922351
46.21873242
45.27238033
45.41152577
45.94198153
42.99749934
44.50608913
44.34041486
44.86703997
44.67955923
43.20344935
44.12315014
45.28946253
45.07326605
45.67777702
45.49470953
44.46223654
46.50079265
46.13450954
46.2706624
48.41650709
49.13844829
48.58789696
50.10891391
49.6176246
48.77028527
53.29321601
51.1881441
51.74570051
42.28458557
43.85885884
43.69934097
44.17851757
44.01817307
42.45592754
45.59377287
44.99601427
45.13444427
44.15361769
44.29676865
45.00473112
41.60461832
43.21916166
43.05701379
43.53998296
43.37928197
41.77265711
45.82079792
46.58041105
46.43886592
46.86022529
46.72133646
45.99136077
47.28022547
47.11070412
47.22368704
46.39982185
46.52398737
46.81202304
45.12347759
45.99917332
45.84718492
46.29431131
46.14990695
45.31122067
36.86482445
36.86569383
36.95500653
36.86714861
36.86969248
36.95589639
36.87209105
36.87632511
36.95838969
36.88233681
36.8905087
36.96291504
36.90119489
36.91457555
36.9706702
36.93045566
36.94813041
36.9815172
36.96661578
36.98408574
36.99208209
36.68499727
36.68576737
36.77444707
36.68746437
36.69019346
36.7772775
36.69401434
36.68339547
36.80599213
36.76719182
36.77114458
36.81128787
36.78711108
36.79478151
36.82942565
36.8233285
36.83622433
36.86155849
36.87966471
36.8974604
36.90960299
36.95128975
36.96806916
36.96615684
36.50829482
36.51048747
36.59747846
36.51475819
36.52125918
36.60475006
36.52976714
36.53398891
36.64379365
36.61325386
36.62228832
36.65737032
36.66030381
36.67755831
36.7029286
36.74459136
36.77438668
36.78120646
36.87155911
36.90484039
36.89486526
36.99431806
37.01909333
36.99850011
36.33473062
36.33949181
36.42374683
36.34785336
36.36068766
36.43974503
36.37891526
36.40663293
36.4994499
36.48299991
36.50151907
36.52833837
36.58175602
36.61964284
36.62571282
36.75679285
36.80653953
36.7903601
36.95934933
37.00910129
36.97186278
37.13903666
37.17474767
37.12268023
36.16722679
36.17611692
36.2564345
36.19124825
36.21408616
36.28533562
36.24915371
36.31176297
36.37843172
36.38347378
36.42014978
36.43553291
36.5786937
36.64208712
36.63174095
36.85637735
36.93425471
36.8922271
37.17788787
37.25842187
37.17801269
37.47478909
37.53033505
37.4140652
36.00605119
36.02101752
36.09699718
36.04648301
36.08499011
36.1472063
36.14330879
36.25898513
36.29422149
36.33383714
36.39914205
36.39877798
36.63478611
36.72758291
36.69961717
37.05218497
37.1758496
37.10305556
37.59008331
37.74008426
37.59015584
38.20278444
38.33834342
38.07970753
35.85253151
35.87578936
35.94653916
35.91506
35.97498136
36.02731873
36.06479418
36.24210402
36.25191047
36.3283546
36.41801208
36.41069579
36.74003989
36.87135763
36.82976292
37.35153557
37.54679913
37.4440742
38.27186121
38.5758915
38.32696198
35.7085451
35.74356017
35.80753556
35.8003094
35.88639723
35.92795637
36.01307241
36.24799663
36.24187953
36.34630284
36.45703439
36.44433887
36.87759841
37.05220733
37.00224712
37.7128473
37.99313398
37.87793703
35.57499037
35.6252748
35.68194173
35.70243209
35.81763116
35.84946897
35.98186018
36.26778703
36.25175403
36.37831839
36.5131296
36.49779181
37.02901267
37.2437146
37.19566261
38.06387025
38.41468652
38.31501039
35.45343911
35.52128055
35.57006797
35.62083127
35.76591533
35.7893314
35.96569235
36.29825131
36.27440824
36.42259456
36.58120783
36.56315574
37.18452375
37.43393863
37.38677907
38.37808268
38.7773209
38.69130444
35.34518522
35.43094716
35.47158028
35.55390291
35.72790938
35.74418871
35.96000151
36.33620106
36.30702395
36.47631961
36.65727802
36.63811734
37.33900675
37.61833474
37.57347883
38.66382262
39.10047401
39.02199721
35.38465852
35.71023369
36.34719586
36.53517846
36.73727419
36.71915991
37.49198839
37.79864224
37.75498615
38.93765083
39.41033573
39.33319331
41.7021365
41.2667052
40.9361416
40.04011272
40.31051095
43.54144803
42.75374183
42.85215748
42.06736094
42.20053548
42.94860603
44.17725511
43.43766922
43.50325389
42.94615898
43.03839321
43.83767628
44.26532284
43.79240421
43.81642603
43.56118609
43.61373912
44.25843593
43.25523679
43.88892298
43.78292208
43.83660969
43.85409832
44.22975391
38.63664124
40.04213575
39.90156579
41.86518686
41.74455523
40.70681294
47.83082675
47.39612813
47.33239848
47.71181088
47.67208586
48.32295023
47.76458282
47.8706613
47.88861065
47.63409152
47.55170433
47.65864349
41.10901705
42.10030148
41.98060102
43.68159725
43.57438735
42.89114816
39.76068652
39.62174079
38.10483723
44.21567161
42.47376491
41.77056708
41.92602072
40.58061758
40.79919064
41.28377213
46.05730537
45.31781647
45.61258176
43.12338314
43.49521039
43.78402754
48.54731185
47.76441474
47.7458785
47.35019173
47.48123489
48.55745103
48.09331107
47.06773534
47.2146912
45.87887156
46.12721207
47.0066509
43.59765682
43.13881873
42.90136366
40.8855393
40.75416919
39.59581645
49.92748543
48.77323278
49.41844081
45.05322618
45.52059125
45.81694383
48.59622596
48.68609349
48.56063578
48.3006792
48.39319176
48.49629493
45.74408047
44.91065606
44.71482443
44.48939804
44.39158874
43.8680606
44.2985471
44.6468279
44.57776803
40.02370957
41.13734098
41.00619171
42.82213955
42.70192218
41.86132904
42.27538636
43.04591175
42.9325585
36.69403119
36.7319848
36.72686348
36.74463974
36.73743517
36.70093193
36.81496485
36.77548735
36.78110394
36.73119265
36.76192807
36.75213736
36.78478469
36.77190593
36.74379904
36.8363243
36.80281504
36.81295564
36.79514621
36.81384397
36.79758172
36.84928537
36.82958338
36.81497177
36.87273254
36.84901042
36.86462464
36.89077205
36.89056808
36.86757238
36.93507549
36.9120796
36.91481069
36.92422689
36.91381325
36.93370811
36.98351032
36.97356686
36.95399586
36.98904531
37.00053182
36.98124774
36.98311649
36.55756325
36.58891254
36.57790702
36.61722942
36.60182049
36.57307637
36.66601257
36.63289324
36.64573564
36.63806821
36.65566124
36.6349013
36.7071535
36.67938399
36.66733858
36.71859894
36.69681181
36.7195113
36.77962052
36.77485334
36.73920984
36.84753555
36.81043231
36.82017094
36.80667311
36.80643849
36.83957668
36.94275857
36.92057343
36.88393139
36.9892409
36.95534379
36.98134531
36.9225964
36.93603807
36.96687291
37.08016711
37.04555443
37.01955233
37.06513172
37.10242185
37.01652701
37.03769524
36.45506009
36.47722646
36.45502242
36.53554585
36.50366096
36.48724288
36.54690571
36.52362622
36.55006955
36.62380825
36.61988478
36.57392721
36.71946991
36.66809236
36.67785671
36.66229106
36.66317583
36.70878936
36.857015
36.82864527
36.77304052
36.94278889
36.88541009
36.92069425
36.83567106
36.85725493
36.90860607
37.11110851
37.05485011
36.99954331
37.15556333
37.10713453
37.17052734
37.01439157
37.05635523
37.10031994
37.31527407
37.23758956
37.19873147
37.2723261
37.35674365
37.14789946
37.20709845
36.40220638
36.40916572
36.3659395
36.52220277
36.46167558
36.4624849
36.47378956
36.46505931
36.51945649
36.67589637
36.6564203
36.58716338
36.81096051
36.73094964
36.75797705
36.69203563
36.70973337
36.78156053
37.03853125
36.98420073
36.89580884
37.16667596
37.07431054
37.14193062
36.9635522
37.01474768
37.09644948
37.46291149
37.35255133
37.26020903
37.5247572
37.44117102
37.57121219
37.24454452
37.33651097
37.41005173
37.85035966
37.68047766
37.60552873
37.73203088
37.9339526
37.45198178
37.58403912
36.40451065
36.40030202
36.32874084
36.56470881
36.47953859
36.48877776
36.46558563
36.47183616
36.54983012
36.79411268
36.75837828
36.65723784
36.98909796
36.86880414
36.91592945
36.79039174
36.82802722
36.93633808
37.34746342
37.25780496
37.11878146
37.56429987
37.40605663
37.51638926
37.21890369
37.30758695
37.44583479
38.10616399
37.90944809
37.73257598
38.28298016
38.09294054
38.34075423
37.71519585
37.8957237
38.05554513
39.1217547
38.69822375
38.49135346
38.85200606
39.52793985
38.16056045
38.48121421
36.43541056
36.42584385
36.33086812
36.64366343
36.52879124
36.54565827
36.50053396
36.51430262
36.62126851
36.95951599
36.91348744
36.77157224
37.24471461
37.07052542
37.1294819
36.96229471
37.01609313
37.1758152
37.76754055
37.65305001
37.43767364
38.1661315
37.89420788
38.03530121
37.63445055
37.76267589
38.00165486
39.1313494
38.84208611
38.48106908
39.78856224
39.25743615
39.66864868
38.60288506
38.93683786
39.3656197
40.26826732
40.13016093
40.42589323
36.48296279
36.46909974
36.35265702
36.74830388
36.60048362
36.62150429
36.561057
36.58145508
36.72124327
37.14736515
37.09885984
36.91377719
37.53925745
37.30616071
37.36645839
37.18470292
37.24733149
37.46627734
38.2109504
38.1030344
37.80258285
38.85045936
38.44849048
38.5779718
38.17378319
38.31423818
38.68677842
36.54576709
36.5291277
36.38826609
36.86758418
36.68851113
36.71181027
36.6433938
36.66565581
36.83713891
37.33930064
37.29178681
37.06782701
37.82584923
37.54296988
37.60018779
37.42588417
37.48463794
37.75623434
38.60247593
38.51055192
38.14594833
39.41536338
38.92931124
39.03476126
38.70140871
38.81833146
39.28767092
36.61856979
36.59972356
36.43524675
36.99257719
36.78515926
36.81008979
36.73580652
36.76028432
36.96087159
37.52694068
37.48085947
37.22357414
38.0898971
37.76813204
37.82228077
37.65687865
37.71281917
38.0256689
38.94209343
38.86079279
38.45170941
39.86260905
39.32645076
39.41781281
39.13561952
39.23278367
39.75830795
45.91098091
45.45706187
45.46711869
45.42229559
45.43954588
45.91132926
36.69758641
36.67830296
36.49158566
37.12066828
36.88769106
36.91260184
36.83578226
36.86068387
37.08737016
37.70936238
37.66520532
37.37892175
38.33743918
37.98321037
38.03478077
37.87659889
37.9290841
38.27574584
39.25580385
39.17850291
38.73344999
40.26096843
39.68250304
39.77010867
39.50700279
39.59540366
40.16417698
45.40150648
45.20876067
45.16878363
45.27776164
45.24193046
45.45462593
36.9393858
36.96390136
37.2146107
38.08749687
38.13852772
38.51630631
39.85748794
39.94565145
40.56102011
44.32788137
44.44675338
44.38507436
44.558414
44.50462549
44.40645704
45.60044524
45.33826441
45.3067453
45.39034726
45.362852
45.64440163
44.63104225
44.665996
44.61076441
44.76901676
44.71526646
44.7024797
41.94015892
41.69321558
42.19155296
40.82514763
41.21272794
41.47089419
40.58664545
40.83799217
40.47260826
40.12122599
40.17762147
39.89590867
40.93140647
40.60376453
40.42104208
40.7403481
41.11038923
42.54799373
42.65355085
43.43121796
42.18999201
42.10051844
41.54496643
43.07821899
42.32246362
42.43935015
43.29045066
43.36725359
44.12896825
42.08360928
42.68136661
42.60427657
42.82929661
42.75694284
42.15664889
41.78453341
42.3612233
42.27631138
42.52491032
42.44390534
41.86087022
43.92210379
43.1257141
43.21075016
45.86580475
45.47593376
45.47026433
45.4761862
45.47675831
45.88430115
43.73471432
43.76599043
44.27151797
42.6255326
43.19759203
43.1458356
43.29468483
43.24798744
42.68966473
42.36666151
42.9657592
42.89977304
43.08883166
43.02972927
42.43602973
44.2689998
43.65908943
43.69995581
45.16582062
45.04947523
45.00332241
45.13207059
45.08890673
45.22738543
44.09400453
43.9892519
43.37602498
42.85818174
43.37959282
43.33903369
43.45115784
43.41687062
42.89233803
44.21147017
43.86984204
43.88286355
43.99544895
44.20896684
44.14889652
44.32932885
44.26462724
44.07967909
40.33561941
40.16744473
38.86138872
41.08945344
41.28135948
41.76441928
40.57252386
41.62741865
41.5032517
49.97148898
49.22189232
49.39878158
48.91238545
49.06276259
49.70256788
51.66550662
50.84238321
50.84277453
50.71885784
50.79837284
51.67745384
47.51738507
47.45811826
47.93963541
46.39042761
46.92594313
46.95320507
46.86646305
46.89705083
46.38885757
46.38081971
47.02391175
47.03070705
46.97964857
47.00532228
46.37831434
48.23095302
47.62518934
47.57340158
49.23808836
49.21857408
49.094322
49.45215546
49.32969812
49.39087713
47.15016452
47.66904628
47.53586876
47.93553825
47.80227461
47.31697113
47.96864207
47.97568167
48.08125352
51.38995202
50.7470143
50.679685
50.83133662
50.79502949
51.48244059
49.83842713
49.67871546
49.56048586
49.8946568
49.78293591
49.98463613
45.75954821
45.43271947
45.4109562
45.46249844
45.44749033
45.79149965
47.33494237
47.44368514
47.54965524
46.49096264
47.13387989
46.99799399
47.40255478
47.268836
46.6560867
42.33858129
42.21678578
41.24765456
42.76993801
43.4724915
43.36425072
44.90811566
44.86779506
44.81540125
44.96138068
44.91161406
44.97347033
41.55315957
40.77820178
40.92595775
44.08537377
41.42285785
41.60431239
42.2807339
41.56797359
41.02010264
41.22910554
44.65879058
45.00319458
45.6694107
43.9988307
44.39316225
44.07378898
44.95274212
44.67672315
44.22167636
43.74151575
43.36155145
43.20073611
44.25349498
43.89919824
44.29047191
47.74616311
47.77013417
48.60386174
46.18472858
46.95563424
46.88004823
47.0280377
47.0012388
46.25948181
45.84212982
46.59175033
46.481721
46.79314332
46.6928776
45.92974489
48.63311522
47.59730464
47.6922301
46.74056282
46.91356481
47.91260996
45.41798197
46.11302695
45.96048063
46.37033686
46.2434717
45.53125829
44.82823972
45.42025479
45.19096875
45.80217343
45.61469221
44.9884115
47.26701251
46.34914932
46.55639132
41.77778369
42.07969284
41.97184016
41.87835944
42.11787148
43.72311652
43.50418576
43.91371553
42.57377893
42.87836753
43.12827194
42.53582013
42.71227856
42.33783452
39.4462995
40.62387333
40.47268138
50.86148866
49.8760067
50.03875836
49.55555589
49.72547581
50.66875452
51.50887703
50.47190307
50.60638866
50.18251386
50.33543765
51.37539559
47.38012271
48.12897369
49.11641454
48.06172944
47.44684614
47.16234475
46.45437588
46.09653138
46.67238536
48.57225951
48.72243448
48.59680828
48.97563331
48.84438594
48.75396832
48.18542722
48.29032166
48.22207906
47.82595886
48.20153407
48.06859608
48.46642668
48.33412819
48.00249657
50.9431347