/*--------------------------------*- C++ -*----------------------------------*\
| =========                 |                                                 |
| \\      /  F ield         | OpenFOAM: The Open Source CFD Toolbox           |
|  \\    /   O peration     | Version:  v2012                                 |
|   \\  /    A nd           | Website:  www.openfoam.com                      |
|    \\/     M anipulation  |                                                 |
\*---------------------------------------------------------------------------*/
FoamFile
{
    version     2.0;
    format      ascii;
    class       volScalarField;
    location    "1.2";
    object      nut;
}
// * * * * * * * * * * * * * * * * * * * * * * * * * * * * * * * * * * * * * //

dimensions      [0 2 -1 0 0 0 0];


internalField   nonuniform List<scalar> 
3259
(
1.147954318
1.147589343
1.147757614
1.148995793
1.150887427
1.155685624
1.162709565
1.007502935
0.7723335404
0.6108147383
0.5062201679
0.4150381584
1.147803599
1.14746013
1.147750373
1.149220789
1.151528819
1.156987947
1.164494914
1.05332392
0.8376458321
0.6697279957
0.5410615571
0.2779242509
1.14770371
1.147375193
1.147780079
1.149497016
1.152140942
1.158123988
1.165787957
1.145310106
0.9416203194
0.7820784908
0.647579212
0.08834294028
1.147718859
1.147405971
1.147907686
1.149837726
1.152773613
1.159165522
1.166843868
1.167139452
1.098323336
0.9740315638
0.8267085533
0.05510342284
1.147719853
1.147411868
1.147990592
1.150134654
1.153370953
1.160056347
1.167538373
1.167092312
1.14613898
1.072432008
0.7812208905
0.04727479659
1.147791398
1.147489621
1.148123611
1.150428591
1.153889684
1.160762105
1.167948279
1.166449983
1.142415247
1.057273451
0.7097689902
0.03864724529
1.147794341
1.147490925
1.14816139
1.150619331
1.15430582
1.16126788
1.167987106
1.165311973
1.137598046
1.036710885
0.6102493467
0.03293804277
1.147846528
1.14754842
1.148241611
1.150793142
1.154609048
1.161576553
1.167714744
1.163711635
1.13192788
1.013270294
0.5208309545
0.03297741132
1.147798002
1.147503507
1.148212556
1.150857124
1.154808635
1.1617065
1.167174094
1.161733836
1.125403852
0.9856225892
0.4528534268
0.03417008167
1.147798798
1.14751976
1.148244678
1.150934354
1.154920442
1.161686129
1.166410865
1.159436369
1.118016756
0.9510273533
0.4017621075
0.03598327961
1.147680212
1.147418314
1.148163765
1.150916773
1.154967641
1.161545316
1.165464479
1.156851441
1.109531632
0.9087283849
0.3616204909
0.03855154147
1.14762371
1.147391242
1.148164044
1.150944153
1.154963847
1.161309007
1.164361405
1.153960748
1.099323925
0.8639629811
0.3290612253
0.04191971038
1.147436406
1.147234358
1.14804176
1.150877206
1.15492269
1.160993366
1.163111401
1.150692552
1.086635776
0.8215474809
0.3023852601
0.04610481085
1.147331364
1.147169889
1.148018564
1.150875358
1.154845746
1.160606551
1.161710111
1.146935989
1.071207545
0.7828271238
0.2802392727
0.05111011874
1.147089892
1.146967357
1.147861538
1.150767991
1.154740006
1.160151638
1.160144828
1.142558909
1.053493578
0.7475784135
0.2616793158
0.05710673893
1.14695013
1.146874958
1.14782018
1.150743064
1.1546015
1.159628916
1.15839651
1.137443396
1.034273468
0.7154434494
0.2460554002
0.06404264077
1.146675978
1.146643279
1.147638562
1.150599303
1.154436159
1.159036775
1.15644027
1.13151372
1.014290745
0.6861818932
0.2326199029
0.07174626438
1.146508744
1.146527351
1.147579443
1.150551538
1.154237588
1.158372595
1.154245033
1.124771847
0.9941293004
0.6596051303
0.2210437205
0.07997639012
1.146229085
1.146289633
1.147390473
1.15037982
1.154011992
1.157631467
1.151787329
1.117285336
0.9742198316
0.6355353589
0.2111405989
0.08844108599
1.146026597
1.146141328
1.147301948
1.150298642
1.153751294
1.156807077
1.149038627
1.109159164
0.9548489981
0.6138375126
0.2027879863
0.09685571827
1.145780982
1.145933219
1.147135859
1.150120606
1.153460789
1.155891316
1.145979612
1.100503166
0.9361432666
0.5943010568
0.1957623991
0.10500972
1.14551601
1.145725289
1.146988269
1.149969744
1.153133033
1.154877766
1.142616673
1.091408352
0.9181149319
0.5765575989
0.1897328156
0.1128001627
1.145351081
1.145590002
1.14688228
1.149831715
1.152773616
1.15376266
1.138942207
1.081945052
0.9007208377
0.5602628244
0.1844905946
0.1202091803
1.145019762
1.14532574
1.146679586
1.149574648
1.152401636
1.15256924
1.135130576
1.072221142
0.8840367466
0.5452893305
0.1798714739
0.127260475
0.4196251569
0.3235850131
0.5017883438
0.4779504183
0.5285522348
0.3981432657
0.4695206409
0.381812787
0.02962700769
0.04904359798
0.2695386762
0.05001054987
0.03134501883
0.004693528678
0.02931541463
0.3768336158
0.01842873724
0.01075891227
0.03099703213
0.0187628232
0.0122119687
0.04412400048
0.1874021086
0.174534321
0.2051731675
0.1926118377
0.04448070596
0.0659577817
0.2228198738
0.2097497725
0.2271594419
0.06726999017
0.04792721053
0.04692386707
0.1695040246
0.1600004678
0.02343666377
0.01182567273
0.02113750127
0.01434868282
0.02954174243
0.01204391703
0.01373476192
0.01237406334
0.02957377392
0.01237030956
0.0177729247
0.6077727169
0.370436848
0.38694954
0.2490161827
0.008455861556
0.005310798711
0.03259470169
0.09469791073
0.0894355341
0.01153406053
0.0164151065
0.05008108369
0.03825557194
0.004378020396
0.1225054448
0.1049463285
0.08763415125
0.08335903775
0.02894233843
0.01913814241
0.01818977605
0.01161087615
0.01924025608
0.02472465062
0.00284076076
0.03051724753
0.01979233341
0.1031394599
0.09657957095
0.03633665772
0.04663324377
0.1103911536
0.1049331367
0.04943200347
0.04305604704
0.02785499331
0.0807434386
0.0723798743
0.01298750852
0.01241816829
0.01739984721
0.01198960247
0.01320476474
0.01691387559
0.03040435938
0.008514682032
0.01289020979
0.01184329478
0.01248314792
0.02061677779
0.1176545166
0.1121254838
0.04711975032
0.05758194446
0.125928707
0.1195749332
0.01958259989
0.01987378081
0.03218088665
0.01837986304
0.03078499198
0.01914968892
0.01931928319
0.01877939844
0.1341588299
0.128047015
0.06077140574
0.07021900295
0.1414818876
0.1359816418
0.03152026121
0.03158617946
0.04828179348
0.04660603859
0.03112295928
0.03108899315
0.02221698753
0.03518604367
0.03474538034
0.008537576725
0.01415523088
0.01865656655
0.01330780108
0.01264903771
0.01823650983
0.01848014349
0.02999281388
0.01212055376
0.008845421416
0.01203012425
0.01215253692
0.0280286109
0.01774088843
0.01832262968
0.01387817487
0.01987054427
0.01967694657
0.0154864049
0.03422554499
0.02046315864
0.02137319549
0.0414547176
0.02873043416
0.003006207822
0.02894817314
0.04425138709
0.04389280352
0.01815694423
0.01158480274
0.008498433816
0.003689751388
0.01287519151
0.01306952841
0.01891556664
0.01907843741
0.03071134129
0.01920556057
0.01922742464
0.01918184421
0.0194757339
0.01941205955
0.02947773635
0.02946407714
0.04463131342
0.01842216045
0.01944614023
0.01895246658
0.01901662789
0.0422926122
0.04172006917
0.0276582118
0.01312298792
0.01082223672
0.01067303501
0.008095504297
0.01112857966
0.01255937119
0.01797442453
0.01254288204
0.01318614619
0.0129964576
0.03011422917
0.01859244897
0.01879638687
0.01182408878
0.01202077989
0.01201929921
0.01255040614
0.0124968582
0.008673040631
0.008798623358
0.01248295927
0.01210024318
0.0124258521
0.01506934721
0.01859131159
0.02807030494
0.9971007938
0.8117601817
0.7599870654
0.633986582
0.6004356751
0.5224890675
1.035314175
0.8658826559
0.823358313
0.8161422607
0.6869343392
0.6454167472
0.6494196945
0.5479404823
0.5264079399
0.510743606
0.4842032416
0.4963700688
0.4006876518
0.2443677364
0.2579038345
1.115180518
0.9561595714
0.8867109069
0.9094637841
0.7825327078
0.7084469503
0.7452338176
0.6427221362
0.5641164585
0.5541216274
0.5163659676
0.4988253816
0.2726556802
0.1332810119
0.1513477234
1.16705799
1.095452141
0.9864808808
1.05274635
0.9486342002
0.8174018034
0.9186735979
0.8457559395
0.6825514981
0.8350317315
0.2419863418
0.3402931565
0.05839814215
1.167161003
1.1548913
1.141495327
1.146786631
1.101525755
1.000955606
1.075096095
0.908642037
0.9270250071
0.7942946607
0.184913982
0.2234740607
0.04933235395
1.166670832
1.152573127
1.154437911
1.143483145
1.092373826
1.099717161
1.061724508
0.8646243927
0.899470673
0.7307606745
0.1428662607
0.1744704074
0.04093956659
1.165646473
1.149285274
1.151822923
1.138875906
1.079057938
1.089330829
1.042055198
0.7993832476
0.8501819217
0.636206766
0.1036301551
0.1332664599
0.03370841533
1.164149906
1.145304578
1.148361407
1.133428551
1.063709143
1.07545734
1.019470926
0.7221086555
0.7803758462
0.5412215108
0.07663535439
0.094984263
0.03276893655
1.162260139
1.14066436
1.14420224
1.127112813
1.045836386
1.059484163
0.9930439651
0.6429485875
0.7019109967
0.4679678697
0.06269011751
0.07224430756
0.03381388823
1.160037951
1.135414324
1.139408271
1.119951179
1.024671538
1.040917832
0.9604838057
0.5759468065
0.6247390909
0.4133127894
0.05492281679
0.06041489558
0.0354647026
1.157524143
1.129504418
1.134003399
1.111783214
0.9979989973
1.018613384
0.919797247
0.5227581078
0.561515515
0.3708581833
0.05064657502
0.05351831016
0.03783907543
1.154714652
1.12268967
1.127900019
1.102082337
0.9650429306
0.9902766029
0.8750506126
0.4793043615
0.5111061898
0.3365824066
0.04887669553
0.0500265076
0.04099346189
1.151549937
1.114505805
1.12079226
1.090067684
0.928970666
0.9561546091
0.8318150609
0.4430682383
0.4696383531
0.3085879312
0.04857408335
0.04868638946
0.04498342747
1.147927431
1.104473001
1.11218436
1.075305915
0.8930438171
0.9198881932
0.7921653397
0.4123783103
0.4349201058
0.285418532
0.04927065789
0.04865899163
0.04977207361
1.14371845
1.092407585
1.101644025
1.058094528
0.858773158
0.8842874415
0.7560849353
0.3860905033
0.4054204215
0.2660319376
0.05026874927
0.04950937446
0.05551795791
1.138796344
1.078520867
1.089090361
1.039176884
0.8266594137
0.850525987
0.7231995305
0.3634421112
0.3801011898
0.2497326641
0.05143401612
0.05052998347
0.06223270989
1.133072985
1.063259676
1.074812981
1.019322836
0.796792999
0.818980589
0.6932382364
0.3438605037
0.3582779356
0.2357990312
0.05294055759
0.05176156291
0.06976650165
1.12652995
1.047126727
1.059287763
0.999161081
0.769136894
0.7896691969
0.6660068598
0.3268199114
0.3393710845
0.223771813
0.05491311072
0.05337118066
0.07789451196
1.119220333
1.030569954
1.043010073
0.9791550992
0.7436547694
0.7625609303
0.641324961
0.3119967228
0.3229102451
0.2134632748
0.05741674719
0.05546771113
0.08633657527
1.111243433
1.01394558
1.026407251
0.9596305243
0.7203019723
0.7376160882
0.6190468385
0.2992197856
0.3086107392
0.2047398263
0.06046658853
0.05809010309
0.09480075871
1.102710273
0.9974879945
1.009807986
0.9407548475
0.6989655765
0.7147841528
0.5989985826
0.2882758856
0.2963250066
0.197389604
0.06407559393
0.06127703573
0.1030597592
1.093717905
0.981311802
0.9934143661
0.922559627
0.6793770459
0.6939165609
0.5808361981
0.2787738774
0.2857966784
0.1911167231
0.06817721162
0.06496318244
0.1109938285
1.084338838
0.9654318756
0.9773139971
0.9049987524
0.6611992036
0.6747192785
0.564156297
0.2703185991
0.2766172052
0.1856254788
0.07276539074
0.06911477117
0.1185866449
1.074610158
0.9497755659
0.9615161076
0.8879562873
0.6440834646
0.6568986314
0.5485815175
0.2626516586
0.2684690939
0.1807601456
0.07782014689
0.07373706539
0.1258942855
1.063911817
0.9332922563
0.946106785
0.8702352289
0.6267321722
0.6403701452
0.5329040268
0.2551260775
0.2611857576
0.1760768013
0.08373866923
0.07876968631
0.1334625703
0.2626204522
0.2763300012
0.433598733
0.1569113173
0.1715661241
0.3307777253
0.03337797843
0.4902731114
0.5114135202
0.4976707091
0.4997114024
0.4993523952
0.4868871697
0.487462024
0.4931342223
0.5174508261
0.4354639967
0.4744607662
0.4724455583
0.4852694346
0.4753897589
0.4440361007
0.2261624525
0.2393773759
0.3960060646
0.02984522952
0.04722848628
0.04640139225
0.07066386209
0.0693744835
0.04830182631
0.009820160615
0.009291510929
0.2321812511
0.01789411839
0.01876585545
0.03750446962
0.04483414653
0.05156519868
0.0739665739
0.07209600154
0.1431247858
0.07134790382
0.4378972381
0.2808554045
0.003316119966
0.02668084554
0.01472011447
0.04554802137
0.04509248008
0.02924100658
0.3629481999
0.2075067226
0.2204123853
0.0149935804
0.01412770069
0.005244273226
0.06151005389
0.05969924663
0.0422893169
0.1840248552
0.135476591
0.1381432348
0.1152684377
0.125366568
0.1783455987
0.2011388566
0.1511073194
0.1547788979
0.1433542314
0.1466294216
0.1963712655
0.0454863386
0.06396356329
0.06263685311
0.08747073579
0.08588111794
0.06489929289
0.2184781618
0.1674369464
0.1714582561
0.15906558
0.1631313456
0.2140138199
0.2358581368
0.183136177
0.1754136505
0.1792790318
0.2314923664
0.06814504799
0.09046539056
0.08904725754
0.1670358383
0.1065012205
0.1125937995
0.0944799512
0.1034556879
0.1596588985
0.02113541031
0.01514866083
0.01545526677
0.0128263545
0.01276930855
0.01499296263
0.01317593132
0.01290733888
0.01286713113
0.01286106868
0.0146600556
0.5736404332
0.5402211425
0.5768111581
0.3478410471
0.4958014997
0.5239216806
0.4702369377
0.4892336476
0.3568192368
0.1225626946
0.1473316838
0.2621069169
0.008192318138
0.03594595017
0.02891354659
0.09799641328
0.1124072458
0.006754184555
0.05119031837
0.04883058091
0.03072218991
0.09286741374
0.06994844734
0.07213681271
0.066773162
0.0680233203
0.0909482299
0.01319115165
0.02965094654
0.02169556999
0.03126780365
0.02784598002
0.01639157835
0.03212616841
0.03228685314
0.05067385588
0.009859247246
0.006895516071
0.002836099528
0.1157602287
0.06109331991
0.06746346724
0.05279271317
0.05879827225
0.1098020356
0.0863502615
0.06445899325
0.0653376203
0.06225724413
0.06302911079
0.08442659847
0.02320329993
0.01654527662
0.01340166504
0.01449387956
0.01314894092
0.01235616935
0.01604300491
0.006134387768
0.007948196764
0.1010289775
0.07957168105
0.0814241189
0.07482905138
0.07725466052
0.0989930916
0.04072024274
0.05748400566
0.05453521206
0.06613025656
0.06492842082
0.04589454443
0.1084981412
0.08612456369
0.08767543485
0.08305713532
0.08464134783
0.1068034347
0.04897694711
0.0318326601
0.03190688591
0.07987238659
0.05925449698
0.06019395184
0.05125134846
0.05253978052
0.07217791566
0.01296758307
0.01301275424
0.01275333319
0.01573226113
0.01306950823
0.01344125671
0.01244794678
0.01270544222
0.01302991822
0.1157425396
0.09224778151
0.09390330273
0.08915935318
0.09071850934
0.1139781678
0.04775843891
0.06829713512
0.06713395999
0.0790727247
0.07632432234
0.05408652436
0.1237181097
0.09984453087
0.1022128038
0.09565954794
0.09763135037
0.1216040354
0.1321446645
0.108765256
0.1106755472
0.1045293961
0.1067542364
0.1302056319
0.06298146042
0.08396030549
0.08165564137
0.09339624469
0.09197801411
0.06929266207
0.1396666333
0.11632919
0.1182949746
0.1125442941
0.114413168
0.1379101365
0.0139152394
0.01432828905
0.01954265169
0.01329788782
0.01295746963
0.01280877939
0.01342318067
0.01297498151
0.01356446049
0.01351592367
0.03126801639
0.01534120905
0.02188192566
0.01420824178
0.01501759372
0.02959607242
0.002057809226
0.006722876267
0.006473726194
0.009471210363
0.007719320015
0.003493781683
0.01186734998
0.008975240564
0.00994040215
0.0105026067
0.009689085086
0.01186430463
1.150729787
1.152566716
1.155099542
1.158297324
1.162108328
1.064866913
1.151257794
1.153439672
1.152879801
1.156398653
1.1600392
1.159199171
1.163753116
1.105604268
1.088705832
1.014249513
0.9514652316
0.9396645678
0.7857150656
0.7393806768
0.7261245213
0.6223434446
0.5901316692
0.5797682508
0.4101583612
0.3597770943
0.3646163527
1.151846232
1.154319187
1.153870776
1.157567328
1.161400599
1.16073118
1.165161881
1.167208428
1.134280437
1.064575585
1.0086731
0.9949570291
0.8543057403
0.8087572761
0.7916732385
0.6875239016
0.6514416147
0.6345739913
1.152476656
1.155193228
1.154749019
1.158664012
1.1626441
1.162039844
1.166336056
1.168024088
1.167439747
1.166765668
1.118853028
1.08585923
0.9760126715
0.9325289624
0.8977536676
0.8230428958
0.7906956473
0.7486591881
0.697127928
0.6816390221
0.62189571
0.07265806767
0.01491879021
0.01435193329
1.153098321
1.15600652
1.155597743
1.159636567
1.163664949
1.163189237
1.167205745
1.168370377
1.168138825
1.167178444
1.164881357
1.164900949
1.147750778
1.11615975
1.061467742
1.037899134
1.022006921
0.9496199581
0.81681775
0.6610887078
0.675249743
0.05290982508
0.01679857841
0.01635397373
1.1536587
1.156712247
1.156361865
1.160437223
1.164429577
1.16407625
1.167801521
1.168228333
1.168385214
1.166986929
1.164300147
1.164519646
1.145361141
1.133810099
1.134894573
1.069319357
1.029767954
1.034433614
0.7663495792
0.5910805989
0.6118920474
0.04544410359
0.01896641764
0.01832207229
1.154126269
1.157281395
1.157002482
1.161043419
1.16493715
1.164715957
1.168009108
1.167667893
1.168145615
1.166212067
1.162996529
1.163392031
1.141291703
1.128091509
1.129687274
1.052444472
1.004727526
1.011874778
0.6868274038
0.4880649214
0.515724316
0.03648092008
0.0229476832
0.02172359871
1.154482326
1.15770188
1.1574988
1.16144883
1.165186081
1.165092492
1.167887304
1.166643905
1.167437254
1.164951688
1.161150363
1.161664623
1.136271139
1.121112294
1.122950053
1.031182218
0.9728518093
0.9810550862
0.5858013227
0.3885988567
0.4100746265
0.03263847746
0.02962947063
0.02773013501
1.154728859
1.157977265
1.157846334
1.161664649
1.165199136
1.165219889
1.167475094
1.165272768
1.166332632
1.163249899
1.15880355
1.159431245
1.130374326
1.112958414
1.115107288
1.006818652
0.9364286284
0.9461608634
0.501863257
0.324963836
0.338766462
0.03322731372
0.03743574779
0.03531557548
1.154877896
1.158125221
1.15805595
1.161715254
1.165007807
1.165126663
1.166817598
1.163603974
1.164882298
1.161187138
1.156045608
1.156770697
1.123641001
1.103614516
1.106066367
0.977755041
0.891397496
0.903677599
0.4387671365
0.2794783395
0.2895675036
0.03455677535
0.04707958373
0.0445086307
1.154952215
1.158170284
1.158149991
1.161630815
1.164645341
1.164845739
1.165958551
1.161685238
1.163148187
1.158816233
1.152923265
1.153737022
1.116015178
1.092890081
1.095729237
0.9410420233
0.8375025429
0.851362602
0.3908704435
0.2458343784
0.2534450585
0.0365575317
0.05820541068
0.05531491507
1.154968983
1.158136167
1.158153521
1.161439354
1.164142316
1.1644096
1.164931506
1.15953227
1.161171625
1.156158742
1.149434425
1.150344234
1.107172649
1.080033788
1.083514065
0.8975132893
0.7836931018
0.7966862625
0.3528417624
0.2194282801
0.2254828925
0.03931101853
0.07027373859
0.06719725484
1.154943889
1.158039731
1.158087496
1.161161716
1.163521747
1.163845584
1.163754748
1.157122031
1.158958322
1.153182078
1.145494701
1.146529823
1.096406804
1.063881201
1.068273224
0.8530396433
0.7356476031
0.7470691992
0.3218935793
0.1983971739
0.2032103405
0.04290184955
0.08273023175
0.07960985517
1.154881996
1.157891149
1.157965014
1.160809656
1.162796467
1.163171677
1.162430316
1.154401581
1.156476685
1.149803378
1.140942302
1.142148956
1.08302768
1.044063225
1.049327865
0.8115177446
0.6935013531
0.7035447325
0.2964582793
0.1815935944
0.1854676215
0.04728654747
0.09509546073
0.09203295248
1.154789578
1.15769485
1.157793265
1.160388497
1.161970675
1.162395967
1.160949289
1.151293252
1.153667767
1.145904395
1.135571149
1.137002155
1.066963754
1.021483652
1.027312161
0.7737022162
0.6562191966
0.665133482
0.2752952549
0.1680255021
0.1711415414
0.05251624203
0.1070039936
0.1040802209
1.154665782
1.157453296
1.157574985
1.159899679
1.161042707
1.161519582
1.159294939
1.147727543
1.150448913
1.141352655
1.129192657
1.130889366
1.048797845
0.9974721601
1.003545723
0.7392613422
0.6229819604
0.6309464919
0.2575206723
0.1570333837
0.1595354314
0.05876242037
0.1182907779
0.1155325625
1.154513198
1.157166242
1.157311597
1.159342595
1.160007132
1.160538705
1.157445468
1.14361001
1.146756139
1.136037463
1.121708428
1.123683857
1.029322491
0.9730648659
0.9791600437
0.7078643416
0.5932440346
0.6003724369
0.2425097903
0.1477461695
0.1499723619
0.06590998378
0.1286952882
0.1261744855
1.154331107
1.156834145
1.157002276
1.15871495
1.158855159
1.159446207
1.155373665
1.138892613
1.142491969
1.129901935
1.113146942
1.11538233
1.009247033
0.9489495353
0.9549241731
0.6792903322
0.566629905
0.5730079204
0.2295600466
0.1396779536
0.141556761
0.0737734052
0.1381355363
0.1358649696
1.154117919
1.156454907
1.156647232
1.158013163
1.157574248
1.158231828
1.153049543
1.133564501
1.137621219
1.12296478
1.103644803
1.106098679
0.9891128769
0.9255411696
0.9313116532
0.653355923
0.5428371683
0.5485369443
0.2184206429
0.1329170024
0.1345067823
0.08209580797
0.1466180748
0.1445775748
1.153878756
1.156028374
1.156243317
1.157231696
1.156150404
1.156882409
1.150447835
1.127649557
1.132144989
1.115307959
1.093396515
1.096017497
0.9693172971
0.9031141433
0.9086167549
0.6298912264
0.5216134823
0.5266882634
0.2089125032
0.1271701091
0.1285120717
0.09058292645
0.1542458808
0.1524008543
1.153600742
1.155549511
1.155790405
1.156362317
1.154566008
1.155381788
1.147546086
1.121194792
1.126090414
1.107039402
1.082599789
1.085340778
0.9501069805
0.8818478044
0.8870496307
0.6087604186
0.5027873423
0.5072829489
0.2009110956
0.1224137899
0.1235041873
0.09896665741
0.1611799067
0.159480359
1.153304572
1.155015682
1.155281468
1.155391712
1.152795466
1.153715106
1.14431611
1.114252496
1.119509474
1.098266039
1.071415033
1.074240944
0.9315725724
0.8617754024
0.8666885622
0.5897064903
0.486057571
0.4900730714
0.1941405894
0.1185275271
0.1194153802
0.1070705614
0.1676168355
0.166001309
1.152948095
1.154413461
1.154718814
1.15430224
1.150807827
1.151874624
1.140696143
1.106868061
1.112453347
1.089072713
1.059950234
1.062838978
0.9137042468
0.8427528042
0.8474223983
0.5723322542
0.4709786187
0.4746423035
0.1882691796
0.1153139628
0.1160508201
0.1148310043
0.1737573403
0.1721551609
1.152569895
1.153721885
1.154097214
1.153059419
1.148559655
1.14984891
1.136704087
1.099070444
1.104966898
1.079519522
1.048268438
1.051214308
0.8964303346
0.824599701
0.8290993517
0.5562589617
0.4571529654
0.4606213977
0.1831229822
0.1127451442
0.1133788756
0.1222711312
0.1797686993
0.1780968639
1.152081186
1.152876839
1.153443987
1.151523782
1.145790832
1.147686669
1.131848952
1.09035956
1.097132963
1.069542463
1.036267775
1.039488667
0.8794245743
0.8069017042
0.8117312959
0.5410106535
0.4441550738
0.4478497998
0.1784971192
0.1106295231
0.111226363
0.1294793559
0.1857891213
0.1839203975
0.3694925033
0.3743942629
0.4244433014
0.2549432855
0.2667929144
0.3183173251
0.4857807024
0.4890521496
0.48294819
0.4053710135
0.4373596149
0.430856913
0.4765984764
0.4700509766
0.4606766032
0.3311322552
0.335550629
0.386464696
0.4459865836
0.4002372882
0.3723608068
0.3221038192
0.3257363571
0.01655238235
0.4229004932
0.4214730508
0.3767379486
0.01176201242
0.01075465642
0.005667382108
0.01201383836
0.016452799
0.01557352713
0.02051769122
0.01652620465
0.01391575155
0.02006929418
0.9298656623
0.9190091726
0.9882119687
0.8001294389
0.8563277769
0.8677522133
0.7138075623
0.7019564992
0.7485400213
0.6229329163
0.6601446665
0.6717513511
0.5707930651
0.561825523
0.5901690167
0.5178336897
0.5381212136
0.5456002429
0.9767959227
0.9628865631
1.026324544
0.8501733579
0.9047090193
0.9196848533
0.8788497468
0.8920700683
0.8364076307
0.769908261
0.7537131447
0.7999967791
0.671393973
0.7108158388
0.7268551715
0.683823856
0.69663544
0.6577646755
0.6152162534
0.6013450954
0.6346661263
0.5377443194
0.5716605025
0.5827130306
0.5532122671
0.5620778214
0.5314667079
0.3501256395
0.3549209184
0.4055554144
0.2486735505
0.3020717567
0.2974314033
0.3116285295
0.3069282177
0.2534797974
1.057830384
1.031162699
1.089344479
0.9272299489
0.9782074843
1.005641881
0.9394264928
0.9541531098
0.902460116
0.8651495839
0.8342492087
0.879443247
0.7515993113
0.7918299081
0.8231046084
0.7486631313
0.7657957408
0.7255881785
0.7108483824
0.6771531139
0.7135410515
0.6086136085
0.6437603246
0.6776276293
0.6005222687
0.617394554
0.5818093696
0.2032858269
0.1989398548
0.1463227926
1.164863735
1.157183982
1.166930286
1.055852923
1.103129694
1.145235872
1.0339329
1.065295618
1.019711993
1.014854953
0.9718765037
1.01260434
0.9008947835
0.9346452023
0.9801267507
0.8558547051
0.8925799797
0.8571094451
0.8906110262
0.838227754
0.8684686979
0.7804619006
0.8095975974
0.8644213913
0.7163521174
0.760315396
0.72794447
0.6888777145
0.702128185
0.7585825234
0.265701741
0.5101050695
0.4899265008
0.5527535748
0.531892544
0.2986048519
0.01591100149
0.01542791045
0.06363641138
0.03552829593
0.0376003135
0.03095874013
0.03321704066
1.164688958
1.164805854
1.167188158
1.155249056
1.160935768
1.160710798
1.161195286
1.161105291
1.155535405
1.135799557
1.136554266
1.147318791
1.103026072
1.122165762
1.121111929
1.029782001
1.085756478
1.059796134
1.038481478
1.041945995
1.07733372
0.9167394909
0.9913453629
0.9859555459
0.9323182676
0.9960749513
0.9239960268
0.6296686171
0.6462534578
0.8061562525
0.1964709043
0.4292559171
0.4087502119
0.4693469992
0.4490180586
0.2088218105
0.0177494256
0.01725552024
0.05094157923
0.04306869458
0.04502883727
0.03945878836
0.04125738006
1.163732786
1.16403646
1.166846507
1.153268884
1.159629488
1.159156109
1.160414132
1.160052021
1.153894144
1.131184758
1.13256828
1.144470496
1.095134291
1.116608355
1.114670325
1.119845194
1.118341614
1.097591095
1.018488174
1.024454558
1.065749138
0.877516368
0.9648824774
0.956071457
0.9797746548
0.9727758405
0.8891378884
0.5426084259
0.5680879291
0.7496196651
0.1536416278
0.3456061197
0.3231938767
0.3888324447
0.3669833155
0.1634282944
0.02063592413
0.01975280605
0.04308331932
0.05283021205
0.05640578923
0.04724700303
0.04983001731
1.162147527
1.162588467
1.165947976
1.150180817
1.157468845
1.156838505
1.158641779
1.158081301
1.151031387
1.124732074
1.126459874
1.14012896
1.082599728
1.107933478
1.105491758
1.112553023
1.110289289
1.086065167
0.989123156
0.9971244256
1.047334523
0.8173642324
0.9241445717
0.9122257803
0.9462320689
0.9355680872
0.8345129092
0.4342989406
0.4606825044
0.6619155821
0.1137792617
0.2622438052
0.2442120011
0.3017036217
0.2811167757
0.1235491475
0.02598327326
0.02433221951
0.03489630047
0.07011709384
0.07546824483
0.06044941322
0.06512486755
1.1600324
1.160605731
1.164563457
1.146365966
1.154705814
1.153923388
1.156168051
1.155454561
1.147386313
1.117182644
1.119184377
1.134876663
1.067777797
1.097672933
1.094848087
1.10298764
1.100393015
1.071695053
0.9554351707
0.9643262091
1.025439736
0.7420332116
0.8747704328
0.8612403978
0.8999238547
0.8876292578
0.7614272407
0.3538487045
0.3703639285
0.5629471325
0.08144678023
0.2026421412
0.1923464539
0.2284078011
0.2141435575
0.08728654728
0.03332898525
0.03144673612
0.0326574866
0.09110805934
0.09586505095
0.08083842799
0.08624531628
1.157472462
1.158150295
1.162765902
1.141881878
1.151386034
1.150479611
1.153108596
1.1522627
1.143061628
1.108439193
1.110735896
1.128769707
1.050557965
1.085738369
1.082483019
1.091918159
1.08888266
1.055104111
0.9152570484
0.9261528591
1.000091518
0.6620280462
0.8159374069
0.7994673744
0.8469294646
0.8318113428
0.6817841968
0.3004264256
0.312174514
0.4842646807
0.06549576912
0.1667254946
0.1597790879
0.1829402662
0.1744977452
0.06860351089
0.0420407612
0.03968038292
0.03350432601
0.109264359
0.1133846763
0.1005010866
0.1049720111
1.154528557
1.155298147
1.160622075
1.136784112
1.147588193
1.146567562
1.149544237
1.148580458
1.138115422
1.098454759
1.101079665
1.121824793
1.030376631
1.071980627
1.06818695
1.079111833
1.075616063
1.035778603
0.8650894563
0.8784938939
0.9693878478
0.591252566
0.7491091819
0.7328209181
0.7826511006
0.765786653
0.6075065121
0.2615247021
0.2701661122
0.4256215722
0.05643931774
0.1424943711
0.13761361
0.1534560883
0.147625454
0.05830502624
0.0524905003
0.0497430654
0.03499129107
0.1247797904
0.1282802436
0.1173383163
0.1211342907
1.151227884
1.152087225
1.158179537
1.131052594
1.143330653
1.142188384
1.145518412
1.144440091
1.132551161
1.086802702
1.089920861
1.113940858
1.00529779
1.05559172
1.050885199
1.064210733
1.060023674
1.012167359
0.8100355642
0.8236831573
0.9305994571
0.5349967151
0.6874262412
0.6735579023
0.7170667123
0.701928347
0.5478955264
0.2318976333
0.2386648501
0.3805926047
0.05140373326
0.1240770854
0.1199847308
0.1329418978
0.1284036774
0.05234621424
0.06415637577
0.06115603076
0.03716506018
0.1379876859
0.1409878384
0.131642871
0.1348752347
1.147529536
1.148496958
1.155447612
1.12450067
1.138537358
1.13723285
1.141011002
1.139795496
1.126235237
1.072425781
1.076342333
1.104694326
0.9737354229
1.034898079
1.028927634
1.045877962
1.040551611
0.9821700279
0.7588780363
0.7710843272
0.8862573997
0.4894144327
0.6354195882
0.6237565715
0.6602889699
0.6475894692
0.5000096334
0.2082992107
0.2137044536
0.3445052268
0.04916009021
0.1091240473
0.1059597787
0.1161127196
0.1125038163
0.04953689606
0.0764853848
0.07337175578
0.04013933988
0.1494011353
0.1520372689
0.1438850115
0.1466853292
1.143307528
1.14442177
1.152379972
1.116708991
1.132993402
1.131453514
1.135877484
1.13446632
1.118802165
1.054396891
1.059252541
1.093323866
0.938064801
1.009350509
1.002382372
1.022659486
1.016123095
0.9471446972
0.7139052805
0.7245978913
0.8423204813
0.451545883
0.591489177
0.5815409176
0.6125685119
0.6018241587
0.4603980788
0.1895521231
0.1938383076
0.3150768682
0.04853246494
0.09771812949
0.09533644984
0.1030266087
0.1002951976
0.04858105824
0.08895155486
0.08584743524
0.04391800038
0.1595460236
0.1619397
0.1546024983
0.1571043663
1.138372152
1.139684594
1.148883219
1.107171791
1.126381299
1.124523038
1.129841671
1.128152788
1.109741714
1.033032647
1.038623942
1.079249352
0.9019057546
0.9806797527
0.9732933303
0.9952575281
0.988011864
0.9108607171
0.6743100049
0.6837611792
0.8017276502
0.4195972404
0.5537756897
0.5451481563
0.571951737
0.5627043224
0.4271051982
0.1744716624
0.1779465648
0.2908204947
0.04901618655
0.08903736076
0.08720464884
0.09310382604
0.09100042953
0.04879618661
0.1011117394
0.0981213152
0.0484989789
0.1688529466
0.1710771418
0.164283933
0.16658393
1.132516978
1.134077003
1.144834048
1.095608359
1.118401035
1.116171276
1.122575384
1.120535582
1.098688945
1.009582311
1.015567166
1.062588906
0.8671481237
0.9510540955
0.9436720424
0.9658805187
0.9584623938
0.8756556941
0.6391353679
0.6475558802
0.7647915555
0.3922951698
0.520937761
0.5133807372
0.5368075968
0.5287439254
0.3987365867
0.1622387839
0.165072877
0.2705722241
0.05000503674
0.08265381557