/*--------------------------------*- C++ -*----------------------------------*\
| =========                 |                                                 |
| \\      /  F ield         | OpenFOAM: The Open Source CFD Toolbox           |
|  \\    /   O peration     | Version:  v2012                                 |
|   \\  /    A nd           | Website:  www.openfoam.com                      |
|    \\/     M anipulation  |                                                 |
\*---------------------------------------------------------------------------*/
FoamFile
{
    version     2.0;
    format      ascii;
    class       volScalarField;
    location    "1.2";
    object      p;
}
// * * * * * * * * * * * * * * * * * * * * * * * * * * * * * * * * * * * * * //

dimensions      [0 2 -2 0 0 0 0];


internalField   nonuniform List<scalar> 
3259
(
702.4320161
706.0273698
713.48106
724.0712222
748.8744649
769.858346
796.016271
840.7054227
894.796188
954.8332015
1012.150451
1101.974117
662.1291648
664.5712388
669.8069601
676.9162673
697.4591131
711.1139031
726.2573256
757.6092693
787.9025934
813.144221
823.4188427
852.4022313
619.2408655
620.4534685
623.1545987
626.5280311
642.949122
648.6083692
653.3022608
669.1768324
676.0744732
669.2810193
631.2419956
524.9551573
574.8047726
574.8705709
575.1213747
574.9663031
587.3749672
586.0790324
581.7550496
583.6947632
572.1145884
542.8357671
479.8921341
358.7525727
529.8436139
528.938733
527.1049657
523.9599021
532.566307
525.5861716
514.1904925
505.9720923
480.1379742
438.2906901
369.7399291
266.4722628
485.2810659
483.5996552
480.0998885
474.6019193
479.8798943
468.6382518
452.1391287
437.6658013
403.7575487
356.1475883
290.3789188
204.8497834
441.8586295
439.5897611
434.8290766
427.6048016
430.2328184
416.0906132
396.4228837
378.2525736
341.8974834
293.5539361
232.6867556
160.1826701
400.1386277
397.4663428
391.8367806
383.4692429
384.1172508
368.2622115
346.8915695
327.1304271
290.8402574
245.0911955
190.4233697
128.2078811
360.5210607
357.6137889
351.4745116
342.4661411
341.7497625
325.123554
303.1788822
283.2436414
248.4637065
206.3441519
157.9360031
104.6613377
323.2606674
320.2589098
313.9148533
304.6844184
303.0793494
286.4148771
264.7961208
245.4978526
213.0245506
174.9024813
132.2475409
86.42391987
288.4815012
285.4949769
279.1857007
270.0653785
267.9394348
251.7702468
231.1014265
212.899112
183.1222118
149.0163411
111.5351303
71.997979
256.2004157
253.3115901
247.2139575
238.4483034
236.0927954
220.7786945
201.5076736
184.6020878
157.6604171
127.4024426
94.55497989
60.38104891
226.355309
223.6240706
217.8632666
209.6214068
207.2577943
193.0276152
175.349089
159.9184387
135.7907223
109.1194884
80.41844131
50.87903141
198.8289263
196.2966228
190.9574137
183.3495368
181.1414798
168.1286211
152.1285523
138.2527605
116.840961
93.46912573
68.48567789
42.99167818
173.4634303
171.1565891
166.2927552
159.3850322
157.454828
145.7223445
131.4194158
119.1110865
100.277322
79.92574784
58.28373682
36.35206638
150.0728943
148.0067439
143.6487546
137.4755888
135.9122377
125.4775062
112.8478298
102.0778176
85.66851954
68.08119065
49.45230461
30.68422901
128.4553055
126.6370677
122.798709
117.372044
116.2431535
107.0943144
96.10652018
86.80091096
72.66621088
57.61539959
41.72059564
25.78164166
108.40113
106.8324578
103.5161138
98.83288868
98.18980224
90.29612436
80.92504849
72.98963434
60.98514034
48.27062782
34.87292612
21.47854587
89.69125556
88.37136784
85.57312355
81.61795033
81.51751846
74.83015028
67.01694741
60.40253266
50.38875159
39.83498571
28.73039397
17.64614927
72.133107
71.05731722
68.76995379
65.52534191
65.98865108
60.46500395
54.0852814
48.83519575
40.67339058
32.12901312
23.14626632
14.18038561
55.43180822
54.6047819
52.8283093
50.26565486
51.43739026
46.98861431
41.94718464
38.06318106
31.65203614
24.99347283
17.99513363
10.99461433
39.68766285
39.0840482
37.80615913
35.97196155
37.40437659
34.19980949
30.47044889
27.90326469
23.15940569
18.28661799
13.16429993
8.014397509
23.58830588
23.29660242
22.53756827
21.43279427
24.00732459
21.92970653
19.46073293
18.19399145
15.04887
11.87646631
8.547485413
5.170781896
11.74380783
11.46576593
11.07063706
10.45287033
10.91678927
9.85809537
8.676953914
8.791257131
7.194119216
5.626991814
4.031242606
2.396956611
1115.610253
881.6230457
1056.288848
1110.917571
871.3875032
880.9606136
1085.496439
1005.653288
1055.798464
1166.697676
593.5574878
1173.315897
1178.408631
1020.702587
1047.584711
989.6025356
1053.259457
928.8559952
1171.816472
1060.621349
-279.4765556
1112.034458
1078.240968
1031.613641
1133.572101
1092.643909
1118.727931
1213.450495
1183.90189
1146.430258
1196.112044
1220.699506
1224.799846
1217.067093
1014.45286
961.3180185
923.8785614
944.443321
485.6772945
196.1987261
1124.593274
-267.069887
154.2894928
-181.4766631
1118.56041
-216.4213331
121.4775817
676.3283434
626.1694164
846.5654166
736.098197
759.2193148
967.8129257
1080.489571
1066.315368
1040.70842
875.3685528
660.0372844
1252.534825
1187.967681
787.1635652
945.612394
907.177271
1031.556464
1000.342935
1013.561557
163.3047757
1021.611139
443.4173759
706.4220988
522.7249527
574.2182458
1147.169138
1085.88759
1096.967938
1074.471874
1085.4893
1136.425747
1124.708631
1104.508975
1246.896841
1196.035887
997.3098058
988.671087
954.6881737
624.6294112
538.664079
1007.408262
274.6903485
423.357036
324.1862379
1138.541335
-418.4628059
7.31123851
221.7054235
-36.06935115
1084.460664
1151.730227
1131.986534
1144.140827
1187.058418
1176.23237
1158.480503
1183.134495
1190.437733
1184.090601
1044.556468
1165.235818
1171.74801
1177.07574
1065.466666
1201.356801
1182.759306
1193.188839
1241.24584
1226.284912
1208.131658
1228.616724
1237.860195
1232.788737
1209.819036
1213.155151
1220.304956
940.0043105
950.4267953
931.3254143
676.901101
948.1021413
365.0196928
488.8246328
604.4771623
1130.45362
1133.002639
1129.073696
-331.1079338
-174.0689966
-153.1006578
-168.956329
1110.463716
1117.035138
1125.250925
-71.50483201
1266.792695
1264.197565
1190.608659
1186.345289
1192.547387
1185.847926
942.1237363
976.6704057
1084.498851
1026.790368
1020.134523
1007.24777
1034.644244
390.2661422
377.1508344
1057.300796
941.9912759
723.2909026
1148.569529
1162.093526
1157.054906
1075.399385
1242.738917
1231.57616
1260.549605
1253.46583
1200.523494
1206.135198
1202.612846
1208.73468
1203.41307
1222.516448
1215.395101
992.0196507
975.2097344
979.0531903
585.137928
598.2494369
654.0005893
542.5236962
548.9335311
533.6375723
991.1877625
368.5463618
318.7867915
253.5690963
1133.015159
1134.529122
1138.442015
-397.4582687
96.00987308
39.13985459
205.3124595
195.199603
206.4995488
21.93788468
-110.2011782
-90.81570959
10.16683174
1096.264372
1109.611135
1102.662559
860.700257
904.566953
920.7839652
971.827012
989.0814611
1039.957527
778.2216133
804.9745035
880.2591234
814.2174027
840.4151429
939.8303473
848.0662023
866.636287
998.6284281
966.8075127
971.7478502
1045.469678
1062.965455
1084.560316
1125.360824
691.0205475
700.9703595
780.3289341
703.5736713
705.3641796
807.9683249
703.5845953
687.0807538
822.7109879
773.2585053
769.4141921
838.8891586
813.540677
806.0722361
876.7576805
604.5873042
599.6642635
675.1441625
596.8955958
580.9866816
672.7566571
572.3292148
532.4416467
645.0308092
513.4650151
438.1800221
565.0613554
391.13092
524.523785
508.5108433
576.0694181
501.7735605
474.555708
552.5976157
462.410644
414.1920745
499.7030792
393.9340419
320.1378625
403.0095774
285.7535797
453.8839866
430.589388
487.6556484
421.3544623
388.0588796
450.898314
374.6996738
326.6474672
389.7288274
307.9120037
242.8183154
297.9182338
218.3875795
392.2855913
366.3543702
413.3868273
356.253106
321.0403972
369.6043004
307.594985
262.1686213
308.6201553
245.4134761
188.382008
227.4563481
170.0417758
339.1760581
312.7378597
352.0311314
302.7154078
268.7905
306.8523742
256.1845933
214.827123
248.9729489
199.9265855
150.4307637
177.4630439
135.2467031
293.585011
267.888486
300.7713377
258.345159
226.7489858
257.4304797
215.2646416
178.4306787
204.8646631
165.3318357
123.0176282
142.8157472
109.9875382
254.4014881
230.1737186
257.8493769
221.3159349
192.4810636
217.5334159
182.1827647
149.6371836
170.6151547
138.1448415
101.8711986
117.2176657
90.57574159
220.602338
198.2256805
221.6936842
190.1433908
164.1841392
184.9060911
155.0438102
126.3843601
143.3675684
116.3217171
85.22905763
97.34882024
75.30841297
191.2998236
170.9426464
191.0051432
163.6592403
140.523191
157.8782885
132.4615641
107.2905891
121.2646742
98.50349886
71.79711415
81.60826182
63.06397022
165.7741297
147.4604879
164.7455056
140.9607503
120.5002415
135.2095931
113.4195749
91.38072739
103.0463274
83.72452744
60.75213052
68.83759085
53.0862356
143.4048134
127.0867802
142.0995429
121.3356903
103.3590947
115.9699194
97.16588608
77.94256556
87.81263144
71.29014881
51.52081104
58.29289958
44.83391793
123.6750442
109.2668375
122.4116932
104.2196446
88.52702959
99.4538721
83.13806272
66.45085878
74.90465161
60.69302543
43.69240655
49.44462382
37.91149937
106.1511631
93.54928777
105.1560515
89.15801457
75.56017385
85.12548077
70.90207667
56.50539293
63.83302557
51.54838941
36.97355531
41.91887106
32.02234828
90.4657381
79.56463359
89.90321969
75.78276208
64.10892109
72.56692479
60.11759729
47.79857326
54.22250646
43.56280681
31.13291718
35.43834043
26.94532602
76.31337007
67.01078477
76.302612
63.79513149
53.89405207
61.44901568
50.51395244
40.09027104
45.78626943
36.51246736
25.99764426
29.78885578
22.50568325
63.44194665
55.63702324
64.06562325
52.94760269
44.68565965
51.50569437
41.86882917
33.18456563
38.29540765
30.20798914
21.42621287
24.80668858
18.56616281
51.64000365
45.2300203
52.95249165
43.03011987
36.29054284
42.51765106
33.99611173
26.91977957
31.56420673
24.49696307
17.30641261
20.35785897
15.01742077
40.68877582
35.59236724
42.75600715
33.85167171
28.53765199
34.29839736
26.73183598
21.15615983
25.43696713
19.24867341
13.5405636
16.33523141
11.76899307
30.39187358
26.54677908
33.28184264
25.2413055
21.27490854
26.68162157
19.93044671
15.7708089
19.77888107
14.34763053
10.0418107
12.64413734
8.744004949
20.58482191
17.93829527
24.35934068
17.04792938
14.36379886
19.51936605
13.45829443
10.64938168
14.47016357
9.687622055
6.727484208
9.199116473
5.872432384
11.12080883
9.634210758
15.83826158
9.141179206
7.673591626
12.67556418
7.183934316
5.67063406
9.396547396
5.156066337
3.516757436
5.918073857
3.090065505
2.336627015
1.90874989
7.590593516
1.769759915
1.310880684
6.017572917
1.137237622
0.562816436
4.431840496
0.4264397787
0.7330996267
2.710670282
0.6066211186
1138.264514
1175.673699
1151.656041
897.1811123
940.9715093
925.3473071
620.6223582
1068.86968
1135.170767
1099.076896
1182.054683
1146.021443
1078.529915
866.5894541
946.0718335
919.0543864
973.3417375
952.0612231
869.4080031
1054.577715
978.7198012
1002.965572
1024.23703
1070.217675
1048.141036
1063.428917
1059.274688
1050.506471
1161.394445
1154.593659
1159.730251
460.2295916
665.5035433
697.0435315
612.9172093
425.0707334
600.6370749
580.2399931
1178.719716
1173.52606
1167.839741
1232.598899
1247.067131
1164.369463
1187.763881
947.059964
965.0551339
922.9283816
1041.426251
1031.396372
1037.863083
944.4996088
957.3663738
1007.908042
910.0060562
893.3466211
1033.380812
1106.627903
1098.93094
1103.992462
1063.264842
1071.763346
1086.764109
1036.455843
1063.01395
1047.694766
1120.310655
1128.773847
1142.059509
1101.123748
1115.059826
1106.641439
1124.479052
1119.967554
1113.57187
1209.613069
1202.872933
1206.425303
1171.513981
1179.674051
1192.201234
1154.809427
1167.235628
1159.035593
1219.604839
1228.482305
1204.641875
1216.752302
1208.025585
1227.967146
1223.273147
1216.4629
996.7281626
998.0061396
1027.526445
958.7576697
987.5570448
978.8218284
440.7625758
484.993662
521.3751505
227.4052185
278.0035007
240.7250252
107.0084518
145.5576321
186.1230003
-178.7957638
-21.60178124
662.7644698
715.1307076
723.8074639
701.6171194
705.2519203
646.8406578
839.9048188
751.877034
737.2481335
728.4686478
766.6489226
774.5786723
839.1764569
755.3523057
697.7088621
887.5822764
816.2064396
734.1960943
1075.549717
1067.912164
1072.728509
1057.768546
1062.739623
1070.709467
1045.391142
1054.271874
1049.35619
687.3475096
667.6649661
684.7791608
602.2170331
630.4637433
692.3972271
1258.503375
1262.84226
1257.771583
915.9361949
930.5917573
665.8722852
939.061733
952.2153612
949.6880166
913.8291804
937.3202606
925.4698752
1021.813978
1026.149401
1036.110929
1003.209555
1015.236634
1011.426594
281.7110201
731.5525725
841.5010263
792.6924632
642.9703505
864.615101
661.3269556
744.5676958
690.0601672
1089.929595
1094.244593
1101.777238
1078.574943
1086.534268
1081.886144
1095.56433
1090.996289
1082.927109
1132.983239
1126.262035
1130.017212
1118.229603
1122.212355
1129.054537
1108.82642
1115.575824
1111.006749
1240.338484
1246.598462
1253.43425
976.8166384
976.0254559
989.9218276
947.704577
960.6284452
964.8362023
395.9823765
356.4849785
376.2024177
284.0746881
322.0739113
362.2269285
23.58807567
75.71581642
52.06392542
1145.563448
1149.872644
1156.518867
1136.04338
1143.062348
1138.463849
1152.241147
1147.548605
1140.222138
1184.026598
1178.589618
1182.586356
1170.593747
1174.487577
1180.334183
1162.860164
1168.806775
1164.187692
1195.341784
1199.084752
1205.626119
1186.399894
1192.665225
1188.625801
1199.559986
1196.292631
1190.032238
1236.055548
1229.84282
1234.896904
1220.674198
1225.038877
1231.142831
1212.186092
1218.706571
1214.069308
405.8973041
448.8810061
410.3191703
513.7430292
483.2612794
445.9516698
558.7933219
527.9462043
563.7295504
-130.166998
943.7798988
940.1753082
934.4350823
1001.531497
983.4630001
962.9563824
1313.707845
1075.976102
1039.855045
1004.008271
971.3851064
1077.452185
914.8657425
1008.994398
1000.185817
740.2914427
763.3849392
708.7719267
774.8519703
784.5559112
797.6281687
812.4330871
829.3612265
847.9569358
724.6582986
731.4009476
758.612356
740.6095547
750.39921
782.1754827
760.805366
770.1363346
829.2296924
820.4141737
831.5940934
853.0904084
868.4409952
881.3704526
909.6571551
919.9088004
932.2225995
969.6201889
1089.846121
1096.563422
1109.696002
670.7931501
674.9857094
703.9220644
680.1121746
685.2489752
718.6632445
689.9907623
687.4805739
750.4691767
735.4150239
741.5357319
765.0263756
759.6974583
765.0759528
795.1606736
776.2871696
777.9401317
817.3658958
615.1706335
616.1924568
645.8459624
617.1573866
617.5726158
651.2654608
617.1344136
605.3001193
666.9051165
647.4977038
648.501841
671.414053
648.8989122
647.2509452
676.0428843
635.7645351
628.0126262
663.5954907
588.9073774
569.201675
613.9719929
471.7219621
459.9370557
515.7646552
559.6210811
557.9248801
587.1378046
555.4520011
551.918628
584.3983187
547.3804581
528.876359
585.6743268
563.4299256
560.3704184
581.5857059
547.8858435
541.8095308
567.0265452
514.7740152
501.9764829
530.9843445
448.8315075
425.7700423
456.8589149
331.1774542
302.5801175
329.788232
505.7505275
501.7552706
529.7421371
496.5781176
489.989958
520.3775116
482.3984074
460.2271149
511.1393206
488.0219183
481.8475215
500.416151
459.5315062
450.4013909
471.6362665
415.6890214
401.1739195
423.9668795
347.4491803
326.2044533
347.9165017
248.9880334
220.7978027
237.7553877
454.5089435
448.8420218
475.0786145
441.7636334
433.1047927
460.8735072
423.4800006
399.5977723
444.4601221
421.9810855
414.3856485
430.3052164
387.1127123
376.394298
393.3121449
338.8154053
324.2623612
341.5204817
274.1794134
255.4255988
271.0151796
192.3229291
167.8150436
179.1264612
406.5947636
399.8321782
424.0543824
391.5614307
381.6804351
406.7047179
370.9229668
346.8535216
385.8288594
364.7195748
356.5658003
370.1676004
328.2120949
317.3695962
331.0083998
280.3626967
266.525491
279.4464666
220.9647539
204.4257569
215.6230701
151.1611952
132.2079371
139.9324831
362.3489822
354.9728107
377.0944195
346.1002465
335.6790642
358.0092257
324.3279101
301.1815687
334.9557706
315.5117042
307.3170204
318.8942526
279.5061648
269.1245358
280.3106171
234.6006978
222.021389
232.1829952
181.5283242
166.9115008
175.3246489
121.7254816
105.9974414
111.8376211
321.8286319
314.2342125
334.2998024
305.218258
294.8032638
314.6306479
283.3625949
261.6505514
290.9296991
273.2583608
265.3538546
275.2298252
239.0130842
229.3578799
238.6116858
197.876045
186.6381345
194.7715388
150.9600508
138.1800793
144.713718
99.6702465
86.43576711
90.83458473
284.9368186
277.4261312
295.5469031
268.5927416
258.5379114
276.1257477
247.4010543
227.3565519
252.8077474
236.8881736
229.4659336
237.9280126
205.0775594
196.2626873
203.9943192
167.9670588
158.0229261
164.6438676
126.6585297
115.521225
120.7192197
82.50696955
71.37555917
74.80283701
251.4701472
244.2561447
260.5855418
235.8285758
226.3610188
241.9697351
215.8357391
197.4869291
219.6959188
205.4371849
198.6005282
205.8955081
176.377341
168.4333404
174.9605013
143.2542481
134.4939367
139.9715202
106.9801019
97.2963925
101.5042363
68.86176437
59.4704091
62.2038802
221.1632968
214.3871966
229.0972666
206.5084856
197.7410193
211.6364342
188.0330194
171.3829332
190.8122378
178.1061431
171.8958258
178.2210186
151.8851836
144.7974793
150.3616408
122.5502863
114.8548686
119.4513526
90.78283566
82.38482883
85.85057216
57.82952297
49.85691216
52.08064777
193.7255044
187.4724274
200.7361394
180.2315723
172.2229901
184.6188039
163.3996554
148.4350236
165.5324993
154.2297325
148.6498094
154.1702331
130.802557
124.5312596
129.3199147
104.9831639
98.24618778
102.1521077
77.24941228
69.98384148
72.88328185
48.7720623
41.95644821
43.7952433
168.8630773
163.17997
175.1609692
156.623376
149.403964
160.4991433
141.4851049
128.141183
143.2755023
133.238938
128.2739995
133.1258303
112.4947807
106.9873224
111.1478086
89.90344041
84.03188333
87.38929832
65.78897714
59.52268639
61.98072789
41.22692825
35.36742233
36.90899548
146.2861308
141.1937865
152.0497086
135.3379613
128.9112773
138.8874428
121.8877517
110.0764508
123.560794
114.6615824
110.2858494
114.5815169
96.45677728
91.65658025
95.3055687
76.81920933
71.73102328
74.64882712
55.96008936
50.57712468
52.69020087
34.85294336
29.79874514
31.10821457
125.7155959
121.2176403
131.0947237
116.0606412
110.4154176
119.4317921
104.2636924
93.87476322
105.9802368
98.09922065
94.28243414
98.1158328
82.27949221
78.13192222
81.36266807
65.34649533
60.9695682
63.53268266
47.42525759
42.83166613
44.66990086
29.39396404
25.0329799
26.15888375
106.8870685
102.9760357
112.0108657
98.50408702
93.62063364
101.8229273
88.34038459
79.23609339
90.1795059
83.21452337
79.92722302
83.37686411
69.63199742
66.08722832
68.97512256
55.18305206
51.45500233
53.73046903
39.93357217
36.03989475
37.65976514
24.65524492
20.90410429
21.88418966
89.55238905
86.21113208
94.53148889
82.40242678
78.24322153
85.76984804
73.82811233
65.90986146
75.87022743
69.73150612
66.9432286
70.07351142
58.24247302
55.25565687
57.86277464
46.08372983
42.95087103
44.9935576
33.27695996
30.01064135
31.45541333
20.48063454
17.2824795
18.14649574
73.47508752
70.68208875
78.40859184
67.5150737
64.03811202
71.00821017
60.45462075
53.68965461
62.81408046
57.41930688
55.09940605
57.96415242
47.88486448
45.41566497
47.79367181
37.84662376
35.26312198
37.11802001
27.28722139
24.59010014
25.89567401
16.7489413
14.06359013
14.83552504
58.44743643
56.16941796
63.40893995
53.62096376
50.79631524
57.30440686
47.91926637
42.32462693
50.82203806
46.07206572
44.1889659
46.84064682
38.35991066
36.37330398
38.56901284
30.29749336
28.22495179
29.93191452
21.8225109
19.64967035
20.84593251
13.36076548
11.16154146
11.86155636
44.16623564
42.42744038
49.31660337
40.51012288
38.34564008
44.48602139
36.13969326
31.62902876
39.63729662
35.46922501
34.00271519
36.490647
29.48533717
27.95339169
30.00873655
23.28183552
21.68915208
23.28337304
16.76147641
15.08047857
16.19344664
10.23302545
8.502566939
9.148222822
30.54158616
29.36829263
35.90137227
28.01526432
26.48309512
32.34848348
24.92390909
21.44024823
29.08090944
25.43679808
24.36878239
26.73366018
21.10131293
20.0010915
21.95319493
16.66137867
15.52381931
17.03728846
11.99438016
10.78178713
11.83669624
7.293279678
6.020375693
6.627834744
17.62085932
16.76570837
23.08780229
15.9758818
15.07998552
20.70730226
14.1485387
11.60290062
18.99086245
15.81575924
15.13374457
17.41240943
13.06573909
12.37713792
14.2592248
10.30500087
9.601812662
11.0666264
7.413552187
6.654611568
7.675899971
4.473708746
3.653588229
4.237518264
6.165384541
5.623171184
10.40120116
5.201547826
4.843013569
9.277197282
4.460108971
2.49504066
9.213431903
6.480155909
6.181216823
8.389120046
5.273491736
4.974139367
6.800056483
4.081767316
3.783149304
5.233922792
2.890632488
2.593378882
3.612458828
1.727140766
1.360682897
1.924977544
1122.527658
1135.132478
1127.260681
883.1026205
902.3408351
897.4137098
1135.442464
1123.34643
1099.20508
911.3293642
905.3433048
876.2445291
1074.249363
1048.438642
1059.070826
1010.960954
1026.096792
1019.429268
1187.548344
1194.635
975.383264
979.8805057
995.561471
72.73737077
843.4109618
809.2777861
810.6053114
892.3345617
865.1730262
888.8800112
821.3906715
835.0584061
878.6523934
206.8414361
570.1921118
533.390496
572.37161
874.4178766
894.8836436
879.8216797
927.9927871
910.971482
889.067579
937.5007356
964.4580663
945.8798763
1002.925286
983.5413788
954.577627
1006.212196
1041.818614
1022.408615
1080.034331
1061.040434
1023.177913
786.8292859
809.2192936
799.3137529
830.3561203
819.5995782
795.7812015
866.2421889
843.3796054
855.7130928
823.3266583
852.3456217
841.3306444
873.8141812
863.2344799
832.1230776
924.72472
894.3499579
907.2106245
854.9622504
893.5844781
883.9719724
911.5481854
902.7078312
861.1134474
984.1869619
944.1962097
956.073198
1069.364965
1083.126126
1075.627032
1098.512269
1090.659465
1076.795036
1117.390872
1104.203175
1112.12797
694.5227771
717.8469088
713.0696855
727.1536761
722.6010962
697.9255129
772.6358165
747.7207624
753.8409825
705.3141353
734.8534301
731.3254745
739.2991887
737.577058
705.9687032
801.9166952
769.7898121
773.6194392
700.3281246
738.1920973
739.3572076
731.0262035
735.6525632
694.8781585
820.4651516
777.7467062
776.6435288
870.4079976
851.0205806
855.1541172
603.4793706
625.7777781
625.8642654
624.0918154
625.284079
601.8701204
673.5878629
649.2695874
649.4028422
593.0868362
619.6893941
622.3022925
610.6612415
616.0788886
587.8583867
674.8501793
644.9012698
641.3580039
561.5906495
593.943607
603.3373425
567.5348104
582.1253389
548.4053739
655.5615216
617.893315
605.1035391
491.0012203
528.3681151
549.7006052
476.785707
504.5304138
465.6285114
593.6406114
546.8118771
517.6094196
361.5929911
403.4134981
428.8952535
353.295558
317.6425639
433.4376721
393.8305302
519.7283653
539.7353442
543.7187337
530.2690401
535.3151755
514.4402238
579.1429802
556.9280057
552.8545953
494.0232581
517.4740729
524.4018246
499.4889685
509.2499137
485.0247991
560.5814832
534.4276445
525.4991896
448.3942847
474.4479688
487.9653654
440.6336605
458.7216164
432.3540095
516.6829928
486.830586
469.1382827
371.5965283
397.4596253
420.2304414
344.736279
371.1604242
345.9056733
430.4461103
399.1354864
372.0967498
256.7598058
278.283689
307.1565035
244.0271691
225.2710732
289.0214348
265.1083806
446.8409284
464.0028377
470.6838621
448.6908139
456.678188
439.0766554
494.3623925
475.1037584
467.7138643
411.2709993
430.2930033
439.9421158
407.7197966
419.5989999
400.212807
461.9534952
440.157892
428.6383083
360.045025
379.9033567
394.5251235
346.097994
363.7763434
344.0367486
407.8062093
384.993312
367.0817139
287.9200799
306.265661
326.8911638
259.5363418
283.0903743
265.6196278
322.9876434
302.1354825
277.8128712
191.6471289
205.4971658
233.0408167
180.6067226
168.5588291
208.668833
193.8957542
384.331325
399.0619832
406.8726129
381.3334818
390.5687328
375.6997779
422.2312122
406.0733144
396.9976092
345.3557504
360.4543257
371.3096374
336.1467605
348.737396
333.626654
381.9620802
364.8164698
352.3149468
293.2894661
308.2057425
322.6487792
276.4610159
292.8044449
278.1383205
325.681775
308.6293143
291.919475
227.8069109
241.0493206
259.2185105
200.3211006
221.0640126
208.4933933
249.5439126
234.7267306
213.3217482
148.3418103
157.5920466
180.7410782
138.288062
129.7391846
157.5848625
147.5366851
330.9492008
343.4969194
351.7140729
325.2514948
334.688217
322.1420948
361.4427547
347.7811222
338.3400072
292.0571371
304.3982034
315.1621292
280.7836496
292.9418833
280.7502982
319.3339342
305.7888158
293.4546926
242.9550596
254.3847139
267.9252573
225.4479835
240.2066762
229.1517662
264.5692331
251.9822078
236.7903149
184.3607615
194.059195
210.0883655
158.7124805
176.8325762
167.7850401
196.9689769
186.4583016
167.5787899
118.1319432
124.9168909
142.9367224
107.6900205
101.7180081
121.8144758
114.4676519
285.50413
296.1915922
304.3522184
278.3722896
287.5381442
276.9387344
310.1171039
298.5905152
289.3248613
248.3050033
258.4662306
268.6837608
236.4473282
247.7184078
237.7696394
269.1740192
258.1753556
246.6624002
203.35563
212.4261019
224.6714513
186.7151726
199.7653708
191.0734396
218.7588874
208.9789405
195.510567
151.6571205
159.0429508
173.1821762
129.2023186
144.2920144
137.4540743
159.3768179
151.5791985
135.7837023
95.53657047
100.577108
115.6698173
86.01522845
81.48652525
96.15727275
90.90495091
246.7206348
255.8554646
263.6677586
239.0128911
247.6404022
238.6418914
266.7696874
257.0096999
248.2306728
212.0730754
220.5201088
229.9717571
200.4268872
210.6661913
202.4551474
228.2974363
219.2713791
208.768341
171.6030846
178.9254879
189.8319809
156.2495089
167.7391951
160.7649872
182.8622003
175.0944819
163.2317473
126.213283
132.0247048
144.3734982
106.673068
119.3407544
114.0004158
131.036335
125.0085106
111.7793444
78.44210906
82.31288387
94.9840677
69.64152708
66.18506133
77.27150039
73.33061391
213.4639239
221.3147146
228.6122211
205.7367981
213.6910353
206.0007725
229.995489
221.6841337
213.5538173
181.7635494
188.8585816
197.4563982
170.7782116
179.9578108
173.1019923
194.6145626
187.1222736
177.6788939
145.7068285
151.7175722
161.3543783
131.7621304
141.8664345
136.1662023
154.144311
147.8522596
137.4164594
105.9330431
110.5992701
121.356691
89.04820107
99.69950186
95.43677585
108.9606817
104.2006246
93.08192206
65.09050491
68.14310687
78.80680546
57.03169204
54.33292604
62.94287704
59.89700833
184.7742137
191.5618528
198.2572611
177.3765648
184.6020468
177.9837659
198.598384
191.4701446
184.0601918
156.1471657
162.1664087
169.8937013
146.0629131
154.2138998
148.4264073
166.5370859
160.2464405
151.8434267
124.2479222
129.2572968
137.7405918
111.7325139
120.5979466
115.8667381
130.7327584
125.5488032
116.3860982
89.48275148
93.2935825
102.6406211
74.90448931
83.9089271
80.43888385
91.39438596
87.55666926
78.17112067
54.41829999
56.87835649
65.88727624
47.11659083
44.96988632
51.78834802
49.38646485
159.8799735
165.7840594
171.8483951
153.0151671
159.50616
153.7705586
171.602327
165.4467997
158.7732994
134.2872611
139.442995
146.3222006
125.2098099
132.398093
127.4602327
142.8696156
137.5308369
130.1091792
106.2157914
110.4466461
117.8930367
95.10236377
102.8567948
98.87599491
111.3409991
107.0082257
98.98738023
75.91082125
79.07480371
87.17608795
63.32416977
70.9781597
68.10755228
77.13427451
73.98404105
66.01642365
45.72083147
47.7392601
55.40066542
39.18458623
37.45022208
42.93746483
41.01144196
138.1351279
143.3064522
148.7416123
131.921609
137.698913
132.6906957
148.2300718
142.8758456
136.9228172
115.453316
119.9121047
125.9872445
107.4084681
113.7141037
109.4565778
122.7067272
118.1277743
111.609064
90.87251654
94.48920355
101.0015771
81.10194982
87.86113657
84.46949918
95.0558242
91.38709106
84.38919334
64.53912247
67.20494334
74.20937189
53.68385599
60.22429406
57.81440892
65.36353661
62.73820942
55.93917182
38.51786338
40.19892812
46.75901465
32.74253928
31.320717
35.80217844
34.23472343
119.0083315
123.569313
128.3940858
113.508722
118.6061405
114.2004851
127.8443122
123.1518923
117.8879987
99.07286528
102.9646343
108.2899835
92.04471186
97.54636734
93.83917792
105.3480723
101.3803958
95.68476206
77.66778134
80.79350303
86.46193052
69.16510923
75.0315928
72.1087389
81.2055264
78.06178154
71.9810452
54.88228092
57.15825183
63.19327735
45.53464016
51.14958331
49.09932357
55.50240962
53.28234136
47.45042876
32.47058962
33.88919804
39.53498963
27.43500117
26.25300754
29.9650737
28.67113354
102.0587106
106.1124692
110.3543715
97.30301598
101.7604121
97.85321326
109.9283031
105.7836323
101.1700099
84.69068068
88.12012518
92.75221649
78.64747987
83.4166379
80.15639578
90.25247036
86.7801881
81.83414867
66.17793037
68.90906352
73.81303558
58.8652047
63.92880975
61.38112839
69.28757544
66.56266804
61.30622137
46.57114404
48.53881311
53.71644807
38.5630655
43.39524359
41.63093824
47.12608516
45.22569572
40.21028386
27.32686421
28.53922875
33.41081941
22.99913052
22.00210365
25.12179043
24.03818093
86.91747277
90.55028822
94.23978083
82.91582865
86.77408864
83.2793336
94.05603474
90.36485364
86.36045344
71.94248891
74.99334125
78.98575586
66.84582255
70.94560056
68.05025945
76.99401223
73.9254069
69.66374932
56.07231136
58.48409176
62.69332672
49.87306679
54.21176835
51.96674006
58.91491126
56.52656438
52.01314134
39.32964845
41.05262802
45.46329228
32.52071777
36.69109739
35.15099017
39.92790562
38.28243863
33.95497596
22.89771968
23.94662204
28.14859626
19.23782674
18.38454058
21.04441761
20.12377031
73.27931288
76.5616834
79.72795989
70.02956324
73.32759203
70.17479515
79.8759687
76.56015947
73.12554946
60.53464846
63.27495539
66.67622067
56.34514676
59.83068134
57.23379935
65.23524317
62.49663989
58.86231003
47.08969916
49.24248625
52.81701982
41.9351838
45.61529026
43.6151209
49.78790672
47.67185921
43.83288711
32.94011948
34.46743844
38.19847785
27.22357041
30.80941768
29.44712805
33.65911263
32.21264968
28.48648808
19.03697394
19.95560736
23.56396044
16.00139818
15.26003504
17.56195066
16.76814964
60.89191272
63.8829651
66.55635805
58.38188635
61.1571172
58.28731566
67.09770846
64.0928506
61.19020413
50.22434543
52.71066442
55.56447868
46.90437472
49.8237314
47.47020603
54.70255891
52.23339793
49.17663819
39.01587887
40.95929172
43.95083112
34.8448725
37.92390243
36.12107451
41.66841051
39.77209217
36.54764401