/*--------------------------------*- C++ -*----------------------------------*\
| =========                 |                                                 |
| \\      /  F ield         | OpenFOAM: The Open Source CFD Toolbox           |
|  \\    /   O peration     | Version:  v2012                                 |
|   \\  /    A nd           | Website:  www.openfoam.com                      |
|    \\/     M anipulation  |                                                 |
\*---------------------------------------------------------------------------*/
FoamFile
{
    version     2.0;
    format      ascii;
    class       volScalarField;
    location    "0";
    object      k;
}
// * * * * * * * * * * * * * * * * * * * * * * * * * * * * * * * * * * * * * //

dimensions      [0 2 -2 0 0 0 0];


internalField   nonuniform List<scalar> 
3259
(
36.9749
36.9759
36.967
36.9534
36.9405
36.9309
36.9244
36.9208
36.833
36.8298
36.8291
36.8287
36.9434
36.9483
36.9259
36.8886
36.8513
36.8223
36.7634
36.7487
36.66
36.6526
36.6506
36.6496
36.9549
36.9637
36.9245
36.8492
36.7659
36.6989
36.617
36.5855
36.4924
36.4795
36.4751
36.4733
37.0476
37.0562
36.994
36.8824
36.7467
36.617
36.4966
36.437
36.3321
36.3108
36.3028
36.2996
37.3072
37.3044
37.1833
36.9993
36.7967
36.6037
36.4138
36.3078
36.1801
36.1466
36.133
36.1277
37.9779
37.8967
37.5877
37.2459
36.9264
36.6461
36.3774
36.2029
36.0374
35.9868
35.9651
35.9568
39.5428
39.3627
38.3655
37.6705
37.1493
36.7405
36.3842
36.1246
35.9048
35.8314
35.799
35.7866
42.0973
39.6578
38.2878
37.4639
36.8849
36.4153
36.071
35.7828
35.6815
35.6358
35.6183
46.2731
41.2062
39.0279
37.8423
37.0662
36.463
36.0371
35.6722
35.539
35.4778
35.4542
49.065
42.5657
39.7564
38.2336
37.2622
36.5203
36.0162
35.5734
35.4061
35.328
35.2976
50.4444
43.5845
40.3836
38.5934
37.4504
36.5783
36.0031
35.4855
35.2844
35.1889
35.1511
50.9147
44.2673
40.8674
38.8919
37.6127
36.6288
35.9916
35.4064
35.1735
35.0614
35.0162
46.643
42.4681
49.9639
47.1686
51.4219
50.2317
51.9176
51.5199
51.9398
39.4708
41.9329
39.3193
50.9615
44.2727
45.8054
41.6103
40.1773
53.9941
55.5739
48.8005
43.3115
42.0741
51.952
52.1229
50.3317
44.5456
43.6644
52.359
51.8312
40.9865
53.4872
53.0264
55.5425
51.4198
44.903
50.0888
54.5583
52.2077
53.8378
48.605
54.3778
53.2857
54.6814
54.4661
48.4228
51.769
51.9868
51.0394
53.3556
53.339
53.2336
53.3676
50.8739
52.955
52.4398
42.8829
43.8136
53.5459
40.5694
59.0188
48.9953
46.2758
50.8948
45.3494
44.7828
49.2434
45.5486
45.2151
43.7287
49.3721
44.2903
44.9402
42.8612
51.8006
53.4874
53.6156
53.3455
53.4643
51.7436
40.8783
43.4905
41.1428
40.9572
59.9474
48.2457
58.5319
47.3746
57.2187
47.2465
55.1742
55.2712
51.8763
51.8906
42.2408
45.2822
52.1319
42.928
42.8677
46.5427
43.1252
52.0615
46.9479
45.8939
47.6125
54.348
54.0876
52.9411
53.0574
53.8244
52.5611
52.0793
53.0251
52.6948
53.7468
55.0108
50.9572
50.0541
51.8904
51.2179
54.996
52.2296
46.759
52.2009
42.9925
44.612
52.6682
42.6496
42.1152
50.0169
47.2973
56.083
40.8706
41.9823
52.6353
42.5479
44.9412
42.5122
46.9511
42.5355
42.6359
54.521
57.0909
56.4245
55.5351
51.852
46.7498
46.826
49.6041
48.9396
51.9429
55.229
57.8039
57.3001
52.3953
48.0983
46.6761
49.7078
48.5347
52.7751
52.4961
50.5895
49.8835
53.4549
46.8111
46.656
52.0778
53.3333
53.5274
53.4942
53.0446
53.3164
53.1128
53.4732
53.3667
53.0326
52.7404
44.8734
47.1275
47.9596
55.9881
55.2002
54.6126
46.9595
46.9012
40.4691
40.6591
49.7093
55.7811
47.4393
57.1044
44.6911
42.4586
43.5909
46.1587
47.9957
60.4768
55.0644
52.4503
57.5382
55.7594
51.4795
48.4351
53.9635
55.141
54.7689
54.7163
55.4884
56.1789
55.3895
47.5697
46.8666
51.8482
48.0434
48.4809
46.6624
47.8264
48.5328
51.9186
48.6911
47.8405
42.9688
43.3645
42.6204
48.0805
47.4063
44.6575
46.4697
45.9849
47.1379
46.6355
44.1604
43.9382
40.9525
40.5292
57.8337
57.6448
55.0318
58.5521
58.8887
58.6387
58.4184
57.9824
59.002
58.6114
53.0912
57.3886
57.9123
51.5241
50.8271
52.6017
53.3614
52.4842
51.7355
45.4196
45.3499
45.8643
45.529
47.106
45.5268
46.3431
45.3568
45.3675
47.9619
42.1915
47.8097
45.8676
47.65
42.1115
49.6951
41.6121
39.7254
38.5848
49.6025
49.1905
45.4953
48.9726
53.6361
53.8413
51.9752
44.2353
43.4996
47.0167
54.1666
44.37
44.4513
40.6129
41.038
43.1217
49.6224
53.8237
55.723
42.2213
41.3189
42.9882
47.4178
48.3031
53.2321
56.2278
57.0954
52.6954
46.901
44.9354
49.9701
48.4039
42.5011
58.3608
46.8375
43.6951
44.6807
49.8729
40.9058
40.8211
45.9025
46.172
44.6226
47.0518
43.9897
41.9524
41.05
42.0304
42.4107
45.7813
59.0943
57.2433
56.4176
60.8813
60.2088
42.4216
44.4182
43.7738
46.7851
46.6757
44.4448
48.7655
48.2697
42.6205
46.1544
43.737
43.9553
46.1077
42.0705
42.8079
47.086
47.1659
44.2618
44.6299
46.883
47.1879
47.343
52.1039
46.6712
46.9817
50.2982
49.0026
49.6904
45.369
44.4875
41.5304
55.1905
55.7208
57.2155
43.2378
47.9658
46.6005
48.4027
48.3795
44.0209
43.6177
44.1994
52.1799
53.8285
54.0566
53.3222
53.5885
56.8761
56.3172
56.5044
55.9317
56.126
56.6395
49.4197
48.9097
49.1156
48.6492
48.7437
49.2043
57.635
56.9644
57.0144
56.6849
56.8459
57.4831
50.3068
49.8106
50.0568
49.3401
49.572
50.1182
52.835
53.0589
52.378
52.5811
51.2941
50.6486
50.4818
46.2518
51.1238
57.8053
58.9589
57.6303
56.7831
55.7152
53.1074
58.2021
56.8485
47.0339
46.9728
49.8627
45.8168
47.3339
54.3772
47.4894
48.3383
47.9503
59.0754
57.9402
59.6004
56.8736
58.5179
59.4409
59.8557
59.4774
54.8822
54.6372
54.8646
54.2601
54.416
54.6962
55.9153
55.5186
55.729
55.0859
55.3042
55.6606
47.3072
48.5268
48.6181
48.2066
48.3713
47.0327
47.9287
47.8133
47.5097
48.7584
49.0494
48.3538
48.6909
48.6431
48.6936
48.7232
48.1037
46.3604
45.3158
42.6568
47.1708
47.3852
47.2246
43.848
46.8352
46.8197
43.5002
43.5975
45.339
57.7347
56.916
56.8749
56.9761
56.9438
57.6614
58.6666
58.7468
58.3298
59.927
59.9321
59.6471
59.8243
58.2157
59.0797
59.9415
60.2438
59.1158
51.2974
50.8247
51.0911
50.3064
50.5618
51.0236
52.229
51.8814
52.1042
51.3624
51.6306
52.0019
46.3427
46.8158
46.9346
45.0664
45.6427
45.7638
47.5739
47.4628
47.7614
47.6933
46.0431
45.3311
46.1717
45.675
47.2099
46.7977
45.3127
47.7371
43.2411
43.8605
42.2181
42.6908
47.1908
46.815
47.3551
44.5948
45.624
47.5497
50.3398
36.937
36.9358
36.946
36.9567
36.9499
36.9544
36.9315
36.9354
36.9188
36.8702
36.9011
36.8525
36.7989
36.8625
36.7826
36.7391
36.8305
37.0007
36.945
37.0135
37.0267
36.9663
37.0226
36.9868
36.9384
36.968
36.8956
36.8699
36.8675
36.776
36.7856
36.7444
36.657
36.7137
37.1983
37.0335
37.2182
37.231
37.0612
37.2205
37.1528
37.0151
37.1207
37.0047
36.9135
36.9605
36.823
36.782
36.7773
36.6443
36.6463
37.7036
37.2843
37.743
37.736
37.3185
37.6973
37.5268
37.2212
37.4594
37.2424
37.0496
37.1693
36.9545
36.8471
36.8857
36.6914
36.6509
39.166
37.9277
39.2405
39.0514
37.9523
38.8696
38.2968
37.6727
38.1253
37.6772
37.3302
37.5454
37.191
37.0031
37.0847
36.7978
36.7122
40.7103
40.6813
39.5772
40.0212
39.5786
39.0926
39.2928
38.3538
37.8238
38.1171
37.5383
37.2677
37.3773
36.9633
36.8338
43.7293
42.1024
41.0421
40.8229
39.2136
38.5572
38.8388
37.9733
37.641
37.7445
37.1764
37.0131
47.4929
44.8191
43.8745
42.2565
40.0854
39.4375
39.5816
38.4351
38.0889
38.1375
37.4111
37.2342
49.725
46.6377
46.0828
43.3629
40.8382
40.2874
40.239
38.8653
38.5472
38.5083
37.6407
37.4698
50.7049
47.5598
47.2927
44.1251
41.4208
41.0011
40.7605
39.2262
38.9631
38.8241
37.8431
37.6944
50.9508
48.6132
48.5086
41.5382
39.3029
37.8874
46.0871
47.5386
48.6432
42.7803
43.4707
43.0682
49.6661
51.6771
52.0541
48.9761
49.8622
47.6645
51.3113
52.8373
52.8906
52.1603
52.4268
50.4716
51.8865
52.8398
52.8583
52.6219
52.6801
51.6043
52.8719
52.8846
51.9575
52.4051
49.9239
55.6521
40.6194
53.3495
53.2463
41.449
41.679
42.1914
39.4953
40.5834
40.2524
50.4935
51.4879
52.1153
44.9564
46.1385
45.2436
43.5371
42.4642
44.2728
41.1328
41.9198
42.4975
40.7632
41.3352
40.6506
54.1598
53.6009
53.3479
56.1588
56.0629
55.5798
45.8646
45.1029
47.8536
42.9284
44.0684
44.5172
43.0549
43.5808
42.5154
51.9062
50.3492
50.4022
50.6109
50.4855
52.0475
47.1815
46.7954
49.9034
44.281
45.6169
45.9038
44.9246
45.2913
43.9879
52.2816
50.3237
50.4806
48.0899
48.5466
51.9019
40.0651
40.1645
41.514
53.2986
48.5933
49.4411
51.8097
51.9481
53.0975
55.4822
56.294
56.2392
52.6802
53.1818
51.8652
45.8405
47.1371
45.5042
50.7779
49.3831
48.7717
52.1752
51.7937
53.9884
52.2983
50.9003
50.7514
53.1027
52.8808
53.6921
51.0128
51.5313
49.1094
54.1318
54.038
53.9319
54.3088
54.3064
53.4628
54.9214
52.8238
52.5179
53.8883
53.7601
54.7449
47.8565
50.1242
50.8158
51.7156
47.5082
47.9462
50.4465
50.4863
52.0211
52.7144
52.8141
51.1841
53.3445
54.1645
54.1912
53.5267
53.5303
53.3349
53.115
54.299
54.3059
54.218
54.2442
53.0091
50.6856
52.4981
52.6715
52.8837
51.5255
51.6685
50.6433
50.7913
52.5188
49.716
40.0309
50.9269
53.3594
51.1159
48.3791
47.634
50.7706
45.1825
46.5657
46.7344
46.1553
46.3752
44.9941
45.2192
40.9326
41.5404
43.1281
43.4013
45.453
46.1973
44.1083
42.8053
48.1313
47.4623
48.641
43.6787
43.9545
45.3841
44.6601
42.5887
42.8568
41.577
41.6481
43.0967
52.7941
52.8191
51.8491
53.541
53.577
53.3764
53.5914
53.5852
53.556
53.3856
53.429
53.4946
53.3847
53.4162
53.4036
51.6785
52.7258
52.7638
41.934
42.8986
43.172
43.9011
40.961
41.9355
41.7006
42.0252
42.0042
40.9893
50.4734
53.0849
49.2765
52.5051
47.4586
45.8402
55.3529
54.3872
56.3874
46.2912
47.4611
49.5142
55.091
54.8905
55.0548
55.3548
55.4206
55.2629
50.3337
50.3045
51.8627
51.9007
50.3585
50.3561
50.0313
50.1729
52.2054
42.789
43.5635
43.4396
44.652
44.4365
42.7646
43.3453
43.307
43.3998
51.979
48.693
49.104
46.5985
43.8191
44.1678
41.7902
42.5707
46.2488
55.6634
55.8321
54.5848
53.7959
55.1944
55.4591
51.9065
51.7304
52.8254
53.1686
52.2425
52.0805
54.2516
54.2106
54.0545
52.4132
53.4297
53.5428
53.146
53.3003
52.2524
52.9261
53.8045
53.869
53.6422
53.7292
52.8164
53.5293
54.2974
54.2799
53.3314
53.094
54.9659
50.6781
51.8575
52.1259
51.2431
51.5639
50.3772
51.6844
52.796
52.9793
52.372
52.5938
51.4602
54.8339
53.7273
53.5408
47.0773
47.3701
52.3073
52.1675
50.7328
50.7987
43.5898
48.3201
48.9156
48.7675
48.5395
43.8351
52.5941
50.9393
51.087
42.4587
41.5816
41.5533
43.2371
42.7734
42.0559
44.5354
41.1627
43.7162
42.9765
42.3421
43.0194
43.4425
42.8145
42.1643
45.6315
43.2382
45.2557
46.0324
48.3418
42.6219
43.4946
43.1884
43.5747
43.5802
42.6713
54.1133
53.856
54.3348
55.566
55.9559
55.8382
50.274
50.305
51.8668
46.7363
48.4141
48.3711
48.5598
48.487
46.7856
51.9857
50.3876
50.3314
56.2568
56.3065
55.3808
50.465
49.9619
51.4382
47.6424
48.7104
49.207
47.6292
48.1826
47.1673
49.3392
50.5162
50.8941
49.6739
50.1095
48.9478
53.7238
51.3772
50.9343
51.2181
51.0565
52.395
53.5632
52.6985
52.5682
46.7563
48.6323
48.6066
48.6816
48.6515
46.6939
52.0469
50.5219
50.5636
54.1117
54.1379
53.3367
53.5207
54.0632
54.0485
54.0818
54.0746
53.5103
54.279
54.2896
53.0893
53.2572
54.0041
54.033
53.9234
53.968
53.1902
53.4446
54.0808
54.0843
54.0553
54.0711
53.4099
53.012
54.2563
54.2679
51.2331
51.381
52.8124
45.6285
49.2432
49.0023
49.6945
49.4677
46.8457
52.8865
54.9899
56.8808
40.4651
41.2346
40.8666
42.2825
41.6997
40.5263
50.3757
43.8172
41.5677
41.8465
41.2464
41.3707
43.0873
43.3379
41.7554
41.8994
54.2321
56.1272
57.0186
54.3967
55.3072
53.3693
57.6417
58.0631
56.3211
50.4936
52.304
53.3632
49.8446
51.1281
49.4736
55.3897
53.273
51.9327
54.9024
54.6469
54.378
55.709
55.5691
55.4275
48.3822
48.4413
47.0651
51.8519
50.2786
50.2657
50.3211
50.3398
51.9078
43.845
43.6957
42.6826
47.8787
45.6681
45.8914
45.2279
45.4473
47.6557
46.2979
44.4116
44.5267
44.262
44.3128
46.1317
46.9629
44.8717
45.0306
44.6344
44.7433
46.7979
43.7511
43.335
43.4091
41.0013
41.4803
44.9584
40.7759
40.2461
40.1844
40.5827
40.3773
40.6335
54.8118
55.9884
56.1394
54.4652
54.8566
53.4714
57.7337
56.3557
55.9924
56.7913
56.6308
57.9047
52.7117
51.5554
51.3842
52.4748
52.3766
53.2697
45.3499
44.7073
44.5382
45.2907
44.9667
45.3341
45.7588
44.3283
44.2745
44.4473
44.3907
45.6502
41.8498
41.6797
42.305
42.0607
42.386
42.0835
40.7181
40.1415
40.3746
39.3035
39.7078
40.2188
38.829
39.2372
38.9196
46.8799
47.0048
45.6211
53.7119
53.6013
53.5962
53.608
53.6039
53.801
43.977
45.1642
45.7761
44.1582
44.583
43.7142
51.5106
46.1629
45.1655
50.3452
52.4849
54.7711
44.4879
46.3091
45.9098
46.2818
46.4904
44.5311
41.5322
41.389
40.9182
42.4669
41.8937
41.8521
50.0872
50.8145
50.0447
54.4807
52.7404
52.1062
53.9464
53.3566
55.1051
41.9542
40.4682
40.65
40.2168
40.3166
41.6368
42.1732
40.3454
40.6232
47.7206
50.1394
49.9172
50.5719
50.3582
48.012
56.5855
54.9059
54.4704
55.6263
55.2768
56.851
52.2856
53.6302
54.0528
40.8527
40.8207
41.6527
41.4868
42.0605
41.8432
40.7919
45.6987
43.6716
43.9365
45.6587
46.4608
47.0546
47.8964
46.7684
46.0472
42.0984
42.3327
44.3354
41.5607
41.1903
41.189
41.3485
41.2459
41.2642
42.1388
42.5975
42.4207
43.0184
42.8157
42.2868
44.3508
43.4894
43.7757
48.6123
46.568
46.7852
46.1166
46.3449
48.4443
42.6767
44.2235
44.0219
50.611
50.6697
52.1378
46.7492
48.8145
48.7343
49.0086
48.9101
46.8639
43.7393
44.5386
44.2267
45.438
44.9991
44.0151
50.1054
47.1519
48.5757
36.9524
36.9563
36.9767
36.9543
36.9471
36.9724
36.9357
36.9218
36.9604
36.907
36.8925
36.9466
36.8793
36.868
36.9352
36.8587
36.8489
36.9272
36.8426
36.8378
36.9223
36.9398
36.9446
36.9464
36.9465
36.9429
36.946
36.9196
36.9097
36.9198
36.8733
36.8617
36.8815
36.8261
36.8164
36.8453
36.7268
36.7057
36.7753
36.6878
36.6755
36.7553
36.6657
36.6543
36.7401
36.9684
36.9759
36.9618
36.9776
36.9713
36.9581
36.9341
36.9163
36.9083
36.8511
36.8264
36.8276
36.7538
36.7314
36.7471
36.632
36.5862
36.6419
36.5528
36.5284
36.5994
36.5094
36.4905
36.5705
37.0916
37.1018
37.057
37.099
37.0876
37.0466
37.0273
36.9999
36.9697
36.9027
36.8667
36.8499
36.7526
36.7148
36.7116
36.6011
36.5089
36.5411
36.4498
36.4048
36.4632
36.3699
36.3395
36.4127
37.4194
37.4341
37.3205
37.4085
37.3805
37.2829
37.2589
37.21
37.1418
37.0465
36.9903
36.949
36.8211
36.7665
36.7473
36.6312
36.4878
36.4912
36.3897
36.312
36.354
36.2525
36.2046
36.2692
38.2878
38.3093
37.9982
38.1481
38.0538
37.8286
37.7394
37.6345
37.5016
37.3336
37.2391
37.1633
36.9731
36.8911
36.8524
36.7124
36.5139
36.4968
36.376
36.2553
36.2791
36.1607
36.0875
36.1429
39.8772
39.9064
39.5698
38.641
38.3979
38.1685
37.8076
37.6439
37.5277
37.2197
37.0968
37.0379
36.8447
36.5732
36.5394
36.3974
36.232
36.2401
36.0951
35.9894
36.0353
42.6292
42.2275
41.7661
40.0413
39.5399
39.2272
38.467
38.2001
38.0492
37.5546
37.3776
37.3015
37.0187
36.6624
36.6148
36.4376
36.2335
36.2302
36.0521
35.9096
35.9467
46.7118
45.8277
45.4282
41.5757
40.8104
40.4997
39.2161
38.8343
38.6741
37.9411
37.7035
37.6199
37.2132
36.7693
36.7145
36.4911
36.2479
36.24
36.0254
35.8454
35.8753
49.3065
48.2585
48.0262
42.8542
41.9144
41.6612
39.9252
39.4453
39.2988
38.3279
38.0332
37.9525
37.4054
36.8793
36.8247
36.5498
36.267
36.2571
36.0091
35.7936
35.818
50.5426
49.4869
49.3862
43.7845
42.7547
42.5703
40.5187
39.9678
39.8478
38.6749
38.3328
38.2621
37.5756
36.9797
36.9314
36.605
36.2861
36.2768
35.9981
35.7502
35.7712
50.9328
49.8321
49.8218
44.3915
43.3328
43.2111
40.965
40.369
40.2807
38.9548
38.5777
38.5224
37.023
36.2938
35.7306
39.8045
45.0078
44.5704
45.3153
47.7742
47.5023
48.512
49.2723
49.1438
50.2049
53.4266
52.5888
52.714
53.623
53.442
54.406
54.2914
54.4645
54.4962
53.9583
53.9871
53.3405
54.7808
53.9272
53.783
54.5275
54.5566
54.5588
54.0187
54.0402
53.3375
53.1876
53.9053
53.9296
52.8274
49.8039
49.7963
50.8636
44.4788
43.916
43.3376
53.5097
53.854
53.8634
53.7812
53.7809
53.5932
53.3558
53.9754
53.9963
53.8745
53.8868
53.4429
40.8556
41.1238
41.1675
41.242
41.2666
40.9716
49.1403
47.6197
46.2505
54.242
54.2821
53.9019
53.6717
54.163
54.2019
54.4842
54.4234
55.0101
54.964
54.5741
54.5343
50.8603
50.9218
52.2602
43.1489
45.097
44.87
46.7688
46.5492
44.3471
51.8412
51.6196
51.9611
53.1173
52.3108
52.0716
53.8095
53.819
53.0563
53.0242
53.7916
53.7989
45.1338
47.1805
46.986
41.3381
40.9421
41.1649
53.6609
53.788
53.7837
51.968
52.8931
52.8985
40.7552
41.1929
41.0084
42.8589
42.4538
42.6276
53.1666
52.0845
52.2162
45.2357
45.8538
45.1408
45.0989
44.2941
44.5682
36.9326
36.9322
36.9525
36.9469
36.9409
36.9508
36.9502
36.956
36.9495
36.9476
36.9482
36.9494
36.9442
36.9488
36.928
36.9373
36.9418
36.94
36.9367
36.9294
36.9039
36.9043
36.917
36.8758
36.8905
36.8878
36.9081
36.8976
36.8863
36.8341
36.8457
36.8608
36.8166
36.8309
36.8164
36.8692
36.8489
36.8379
36.7669
36.7901
36.8029
36.7671
36.7781
36.7525
36.8356
36.8061
36.7977
36.9758
36.9577
37.0223
36.9957
36.9876
37.0003
36.9999
37.0266
36.9656
36.9799
36.9805
37.0144
36.9897
36.9969
36.9652
36.9791
37.0024
36.9497
36.9619
36.9493
36.9462
36.9287
36.9483
36.8828
36.9068
36.922
36.8901
36.8964
36.8745
36.838
36.8303
36.8573
36.774
36.8023
36.8075
36.8065
36.8017
36.7771
36.7135
36.7201
36.7466
36.672
36.6954
36.6842
36.7299
36.7108
36.6914
37.13
37.0759
37.2303
37.1586
37.1475
37.1611
37.163
37.2345
37.0615
37.1063
37.1053
37.2035
37.1392
37.153
37.0967
37.1203
37.1807
37.0328
37.0716
37.0513
37.0849
37.0379
37.0691
36.9673
37.0039
37.0461
36.9427
36.9697
36.9371
36.9151
36.8883
36.9286
36.8045
36.8469
36.8692
36.8165
36.8296
36.7912
36.7324
36.7217
36.7627
36.6405
36.6811
36.6882
36.6781
36.6773
36.641
37.5294
37.3926
37.7612
37.5779
37.5615
37.5644
37.5784
37.7584
37.3241
37.4366
37.4277
37.6473
37.5002
37.5376
37.4049
37.4553
37.5895
37.2549
37.3455
37.3043
37.3881
37.2918
37.3504
37.1668
37.23
37.3155
37.0972
37.1578
37.1027
37.097
37.0395
37.103
36.9125
36.9758
37.0252
36.8981
36.9336
36.8768
36.8189
36.7903
36.8507
36.6743
36.7315
36.7541
36.6987
36.713
36.6609
38.6081
38.2223
39.2781
38.7228
38.698
38.5888
38.6783
39.1887
37.9889
38.2874
38.2294
38.6768
38.3324
38.4673
38.0522
38.1917
38.4814
37.7531
37.9516
37.8456
37.9659
37.7886
37.9176
37.5466
37.665
37.8169
37.4156
37.5317
37.4313
37.4212
37.3249
37.4332
37.1213
37.2209
37.3032
37.0823
37.1473
37.0586
36.9839
36.935
37.0259
36.7654
36.8481
36.8883
36.781
36.8124
36.7369
40.7383
40.2878
40.2601
40.2664
40.2869
40.7164
39.5772
39.9117
39.9036
38.9302
38.6528
38.9524
38.1629
38.3927
38.6215
37.9889
38.1813
37.9859
37.9054
37.77
37.9567
37.4415
37.5989
37.7135
37.3937
37.4923
37.3513
37.2288
37.1604
37.2957
36.9167
37.0343
37.0911
36.9328
36.9815
36.8735
43.1758
42.6993
43.179
41.7386
42.1481
42.5783
40.1809
39.8594
40.4325
38.9908
39.387
39.6537
38.866
39.1234
38.7712
38.5138
38.3554
38.6513
37.8597
38.0937
38.2279
37.835
37.9624
37.7486
37.5373
37.4563
37.6484
37.12
37.2809
37.3486
37.1517
37.2151
37.0655
46.5651
46.2072
47.1126
44.517
45.3191
45.6477
44.6065
44.9718
44.2047
41.3925
41.1088
41.9264
39.8757
40.4355
40.6793
39.9199
40.1817
39.659
39.1478
38.9927
39.4012
38.3208
38.636
38.7692
38.364
38.5005
38.2051
37.8704
37.7872
38.0397
37.3519
37.5589
37.6293
37.418
37.4883
37.2928
48.6665
48.4724
49.5269
46.4706
47.4492
47.6364
47.0223
47.2444
46.283
42.3686
42.1501
43.1197
40.665
41.3432
41.5386
40.9124
41.1344
40.4813
39.7203
39.5861
40.0862
38.7631
39.1489
39.2663
38.8994
39.0262
38.6567
38.1886
38.1122
38.4198
37.585
37.8352
37.9006
37.699
37.7677
37.5279
49.6549
49.5757
50.6291
43.0745
42.9223
43.9641
41.292
42.0436
42.1848
41.7211
41.8893
41.1523
40.1841
40.0798
40.6442
39.144
39.5838
39.6767
39.3783
39.4844
39.0563
38.4629
38.3997
38.7517
37.7959
38.0825
38.1373
37.9637
38.0245
37.7463
42.3124
42.427
41.6445
39.7631
39.8425
39.3739
38.189
38.2373
37.9291
47.9243
47.1274
46.7798
47.7826
47.459
48.2919
51.8123
50.8344
50.6839
51.1051
50.9754
51.9375
49.2909
48.3867
48.0898
48.9339
48.6673
49.5867
52.8585
52.1407
52.1043
52.2579
51.3369
51.227
51.5351
51.4412
52.3454
40.1818
39.8218
39.7868
39.4774
40.4992
40.1251
40.1808
39.9205
39.9984
40.3597
43.185
43.8295
44.2259
43.0017
43.4216
42.8295
44.802
44.1156
43.6503
45.6271
46.5244
46.7827
45.9577
46.2492
45.3747
48.1973
47.2109
46.8998
47.0665
48.0991
48.2255
47.806
47.9614
46.9346
50.0631
49.0018
48.8423
48.2408
50.1541
50.045
50.3582
50.2583
48.3937
52.3398
52.4687
53.3636
48.8796
50.9845
50.7798
51.3795
51.1826
49.1631
46.2882
45.6878
45.307
46.4253
46.0578
46.719
54.2175
53.2423
53.0219
51.1963
50.1829
50.0023
50.5235
50.3557
51.3691
54.4013
54.4317
54.2088
54.0097
54.2426
54.2658
54.1682
54.2099
53.9729
53.4004
54.0194
54.0524
54.1679
54.0545
54.8601
53.8454
54.0524
54.1162
53.8711
53.9731
53.8029
54.6524
54.5808
54.6003
50.3724
49.3927
49.168
49.8109
49.6082
50.6032
47.658
49.6783
49.5273
49.933
49.8103
47.8029
52.7532
51.9615
51.9079
52.0593
52.015
52.7854
53.5289
53.9948
53.9759
54.0318
54.0135
53.5309
53.3418
54.0628
54.0865
53.8629
53.8811
53.1466
53.0049
53.7509
53.7636
52.5637
51.7031
51.6243
51.8442
51.7788
52.6201
51.5695
50.8274
49.7843
49.7231
41.1014
42.8004
42.4543
43.4219
43.1331
41.3085
45.3209
44.5982
45.3419
43.6187
44.0088
44.619
42.9959
43.4675
43.1879
44.4386
44.1776
43.8114
44.9294
44.5481
44.9127
53.8033
53.8235
53.5233
53.7657
53.7528
53.3707
53.5756
53.784
53.7909
53.9361
53.9548
53.369
53.4476
53.8956
53.8715
53.9485
53.923
53.4666
53.395
53.8026
53.7845
53.8459
53.8248
53.4032
53.4227
53.9019
53.9179
41.01
40.7394
41.6906
41.3194
41.5083
41.438
41.8245
41.2361
41.2199
40.9534
41.865
41.5179
41.555
41.4063
41.4301
41.7573
42.0636
41.6209
41.5867
41.5974
41.617
42.0458
40.9899
41.2759
41.2688
51.3947
50.0076
49.2879
51.4431
50.7265
52.2637
50.5297
49.0559
50.8419
46.5675
47.1704
48.5247
48.6058
47.9763
48.5155
48.8349
50.5448
50.4543
50.7067
50.6314
48.9722
42.0461
43.9641
43.7127
44.4458
44.2271
42.3102
53.9786
54.322
54.3622
54.088
54.1246
53.5987
54.995
54.3513
54.2661
54.6147
54.603
54.9113
47.162
49.1857
49.0993
49.3703
49.2739
47.2559
52.2854
50.9816
51.0389
45.7639
45.4487
43.3544
46.9941
47.1932
49.0431
44.0881
46.3059
46.0512
43.1323
42.6924
42.6426
42.9122
42.8618
43.3211
42.4661
44.5348
43.7863
43.4119
42.9682
42.997
43.6214
43.0535
43.0269
43.058
43.0702
43.6211
52.7906
52.5502
53.4313
53.0714
53.8319
53.8449
53.7765
53.7828
53.016
47.5447
47.3782
45.3863
40.7531
40.5775
40.2362
53.8011
53.7927
53.6838
42.2114
42.1083
41.8027
36.8341
36.8286
36.9186
36.7889
36.7808
36.8167
36.6737
36.6561
36.6833
36.6073
36.5762
36.5893
36.6102
36.5614
36.5576
36.6651
36.5974
36.5834
36.7725
36.6784
36.6532
36.9278
36.8011
36.7663
37.1149
36.9523
36.9124
37.3108
37.1116
37.072
37.4942
37.2601
37.2251
37.6479
37.3837
37.3561
39.3511
39.6642
39.6133
48.9805
49.1916
48.7831
48.2372
48.5147
48.7547
38.8816
39.2617
38.9735
38.961
39.9197
39.6267
39.6867
41.3027
41.7255
41.3867
47.4822
48.5257
48.6059
48.3365
48.4378
47.3879
49.8597
49.8494
50.9416
52.2053
52.1739
52.8737
48.9511
49.3875
49.5749
47.9798
48.2582
48.0508
48.6732
48.7407
47.7029
40.4138
40.5094
40.8982
42.1648
42.2233
42.5869
36.7142
36.7459
36.7568
36.6087
36.6297
36.6507
36.5605
36.5648
36.6015
36.574
36.5656
36.6188
36.6323
36.6126
36.6867
36.7349
36.7047
36.8068
36.8742
36.8364
36.9723
37.0323
36.9919
37.1639
37.1883
37.1505
37.3587
37.3257
37.2942
37.5359
38.9953
38.9914
39.2729
73.7966
94.299
97.6682
72.0226
134.823
68.544
84.3597
117.778
57.2681
74.1748
94.5834
99.0985
67.53
94.1523
81.8024
63.2869
108.247
100.149
62.9813
108.732
99.917
62.4356
109.975
99.1942
60.9298
122.893
87.3818
60.6602
121.534
88.9566
60.7639
123.485
86.871
61.4876
125.08
84.955
70.535
135.572
69.8278
70.8577
135.527
69.4825
79.6458
126.61
63.1419
84.6614
116.249
56.1678
64.1251
107.001
100.677
65.923
104.57
101.644
64.9452
105.995
101.112
66.4445
103.892
101.821
61.7236
112.079
97.7817
62.2629
110.535
98.8421
61.7245
112.583
97.3773
60.4331
119.765
90.8867
60.6132
120.938
89.5211
60.2731
119.497
91.3179
61.564
125.66
84.3942
61.2806
127.512
82.7469
63.1681
129.716
79.5261
61.9546
127.405
82.2417
62.7599
129.208
80.2063
79.3023
126.949
63.4529
85.2243
114.83
54.6746
73.5549
94.2184
96.8098
71.7519
134.947
68.8399
84.6592
117.097
56.935
65.7001
136.384
73.2956
72.4925
134.529
68.3041
72.6333
133.974
68.4399
65.6432
76.6745
53.2491
85.082
115.538
55.5449
85.2919
115.125
55.1172
63.5667
107.771
100.366
63.7501
107.407
100.525
62.7605
109.208
99.6689
62.4491
109.596
99.463
60.8499
122.255
87.9989
60.4466
122.046
88.5257
61.1878
123.719
86.3017
61.4408
124.306
85.6239
68.8075
95.979
86.1994
70.4689
94.908
91.5889
71.314
94.2883
93.2894
71.3171
135.195
69.165
79.9007
126.083
62.8791
80.8781
124.735
62.1219
80.1339
125.383
62.6101
61.1492
54.7427
54.5984
54.6469
84.7928
116.624
56.5417
65.3528
104.85
101.601
65.3203
105.28
101.429
66.9189
103.25
101.965
61.9308
111.591
98.1282
62.03
111.079
98.4932
61.5359
113.153
96.9663
61.4309
113.699
96.5603
60.4956
120.259
90.3884
60.275
120.72
90.0025
60.5204
119.035
91.6809
60.4974
118.481
92.1894
61.4105
127.173
83.1176
63.3479
130.455
78.8754
62.2935
127.941
81.5682
62.4383
128.691
80.8713
74.0815
131.809
67.54
73.699
132.194
67.9312
73.1012
133.046
68.2445
82.2417
122.217
60.8453
82.5605
121.836
60.5158
64.0035
75.0743
54.7256
62.0178
76.4355
60.789
62.9389
80.2993
65.8249
83.9841
118.335
57.7522
68.4409
137.201
71.1178
68.7967
136.626
70.979
71.0616
99.0379
101.865
66.6153
136.732
72.5469
66.1291
136.538
72.9429
65.6065
74.8595
53.9811
66.0178
76.0443
53.64
83.0723
120.02
59.4683
85.5943
114.572
53.9841
85.7283
114.408
53.5866
60.6461
116.145
94.6625
60.9279
114.22
96.1805
61.1104
114.495
95.8667
60.4573
116.417
94.3825
60.536
117.995
92.65
60.6995
117.302
93.3079
77.6092
129.472
64.5424
65.2615
73.1075
54.4074
66.0146
54.8687
83.6018
119.568
58.868
67.7716
137.32
71.4219
63.9226
54.8529
73.899
96.017
101.077
73.733
96.6105
101.385
61.5672
126.514
83.5406
67.1939
137.63
71.7849
75.5971
130.948
66.1502
77.8098
129.049
64.4482
76.098
130.332
65.7986
65.1263
76.3707
53.7286
81.548
122.964
61.3593
82.7969
121.224
60.2049
84.0685
118.662
58.1107
72.9131
93.9372
95.7677
68.3608
137.457
70.9769
69.3634
135.966
70.7614
70.1125
135.58
70.2198
74.4535
95.024
99.7505
72.4773
98.166
101.644
70.5989
99.5036
102.045
70.094
100.02
102.18
63.77
131.75
77.4485
63.2061
131.507
78.0218
66.9571
137.113
72.1442
64.2302
132.321
76.7668
64.5331
133.168
76.0526
65.971
90.774
76.1857
81.182
124.39
61.8352
81.3557
123.825
61.6091
83.0402
120.463
59.852
60.9092
115.616
95.0125
61.0129
115.03
95.4563
60.6405
116.647
94.0321
60.5048
117.027
93.6788
63.8794
68.2766
54.9277
64.7192
70.3841
54.7417
83.9027
119.107
58.4966
69.3538
95.2906
88.2762
68.1122
137.374
71.1599
74.3778
95.3777
100.281
73.2211
97.3926
101.557
68.8593
101.49
102.078
69.5628
100.717
102.167
68.1475
102.062
102.028
67.2311
102.743
102.035
67.1631
137.513
71.8402
65.1156
134.424
74.8722
64.6855
133.976
75.4355
65.4959
134.952
74.3213
65.7072
135.576
73.8295
75.2639
131.327
66.4833
74.916
131.47
66.8713
78.4332
127.608
63.9609
78.1271
128.326
64.223
76.3995
130.005
65.4314
77.2702
129.67
64.8541
63.9941
84.3757
69.9824
)
;

boundaryField
{
    topAndBottom
    {
        type            slip;
    }
    inlet
    {
        type            fixedValue;
        value           uniform 37;
    }
    outlet
    {
        type            inletOutlet;
        inletValue      nonuniform List<scalar> 0();
        value           nonuniform List<scalar> 0();
    }
    wing
    {
        type            kqRWallFunction;
        value           nonuniform List<scalar> 
162
(
97.6682
68.544
57.2681
99.0985
81.8024
100.149
99.917
99.1942
87.3818
88.9566
86.871
84.955
69.8278
69.4825
63.1419
56.1678
100.677
101.644
101.112
101.821
97.7817
98.8421
97.3773
90.8867
89.5211
91.3179
84.3942
82.7469
79.5261
82.2417
80.2063
63.4529
54.6746
96.8098
68.8399
56.935
73.2956
68.3041
68.4399
53.2491
55.5449
55.1172
100.366
100.525
99.6689
99.463
87.9989
88.5257
86.3017
85.6239
86.1994
91.5889
93.2894
69.165
62.8791
62.1219
62.6101
54.7427
54.5984
54.6469
56.5417
101.601
101.429
101.965
98.1282
98.4932
96.9663
96.5603
90.3884
90.0025
91.6809
92.1894
83.1176
78.8754
81.5682
80.8713
67.54
67.9312
68.2445
60.8453
60.5158
54.7256
60.789
65.8249
57.7522
71.1178
70.979
101.865
72.5469
72.9429
53.9811
53.64
59.4683
53.9841
53.5866
94.6625
96.1805
95.8667
94.3825
92.65
93.3079
64.5424
54.4074
54.8687
58.868
71.4219
54.8529
101.077
101.385
83.5406
71.7849
66.1502
64.4482
65.7986
53.7286
61.3593
60.2049
58.1107
95.7677
70.9769
70.7614
70.2198
99.7505
101.644
102.045
102.18
77.4485
78.0218
72.1442
76.7668
76.0526
76.1857
61.8352
61.6091
59.852
95.0125
95.4563
94.0321
93.6788
54.9277
54.7417
58.4966
88.2762
71.1599
100.281
101.557
102.078
102.167
102.028
102.035
71.8402
74.8722
75.4355
74.3213
73.8295
66.4833
66.8713
63.9609
64.223
65.4314
64.8541
69.9824
)
;
    }
    front
    {
        type            empty;
    }
    back
    {
        type            empty;
    }
    procBoundary2to0
    {
        type            processor;
        value           nonuniform List<scalar> 
58
(
36.9705
39.41
41.9757
51.6594
45.9124
53.4186
58.3761
49.7845
56.7377
58.3761
36.9253
36.9433
36.9305
36.9838
36.9322
37.1711
37.0147
37.645
37.2525
39.1187
37.8516
40.4924
40.7105
41.5727
42.7522
42.464
44.8681
43.1044
47.5739
36.9433
39.7292
36.922
36.9237
36.9605
36.9436
37.1063
37.0549
37.4829
37.3546
38.4654
38.8498
38.1195
40.0856
40.4924
40.9575
41.2403
42.464
44.1146
43.5473
38.8498
54.5522
60.4059
59.5989
58.0566
59.5989
62.8752
62.8752
61.869
)
;
    }
    procBoundary2to3
    {
        type            processor;
        value           nonuniform List<scalar> 
51
(
36.6492
35.9852
35.3325
35.7105
35.0718
34.9445
34.8922
42.1176
53.881
53.6022
40.2501
47.6429
53.881
51.9768
45.7256
42.7345
51.2799
50.9519
48.6962
49.9814
40.0516
44.9252
42.7345
45.7284
47.1104
53.6128
41.0668
44.4996
43.4399
41.0528
40.4491
39.0126
38.6288
37.0603
36.2999
35.7105
52.9384
52.9007
41.7397
42.5289
39.4389
39.9148
37.9675
38.2819
51.7516
37.6799
37.4101
49.8748
85.7119
114.16
53.2505
)
;
    }
}


// ************************************************************************* //
