/*--------------------------------*- C++ -*----------------------------------*\
| =========                 |                                                 |
| \\      /  F ield         | OpenFOAM: The Open Source CFD Toolbox           |
|  \\    /   O peration     | Version:  v2012                                 |
|   \\  /    A nd           | Website:  www.openfoam.com                      |
|    \\/     M anipulation  |                                                 |
\*---------------------------------------------------------------------------*/
FoamFile
{
    version     2.0;
    format      ascii;
    class       volScalarField;
    location    "0";
    object      nut;
}
// * * * * * * * * * * * * * * * * * * * * * * * * * * * * * * * * * * * * * //

dimensions      [0 2 -1 0 0 0 0];


internalField   nonuniform List<scalar> 
3259
(
1.15666
1.15667
1.15656
1.15638
1.15621
1.15608
1.15599
1.15595
1.15555
1.15554
1.15558
1.15562
1.15741
1.15748
1.15719
1.15668
1.15616
1.15576
1.15533
1.15513
1.15473
1.1547
1.15478
1.15487
1.03491
1.03179
1.11091
1.15772
1.15656
1.15562
1.15488
1.15443
1.15396
1.15388
1.15397
1.15411
0.705481
0.716294
0.797515
0.9482
1.15788
1.15609
1.15477
1.15392
1.15327
1.1531
1.15317
1.15335
0.420434
0.440931
0.528788
0.670313
0.882485
1.15748
1.15519
1.15368
1.15267
1.15235
1.15238
1.15257
0.208388
0.239874
0.333802
0.471243
0.66292
0.947054
1.15625
1.15377
1.1522
1.15164
1.15158
1.15177
0.0743522
0.11448
0.211726
0.342301
0.518162
0.770309
1.15316
1.15425
1.15187
1.15098
1.15078
1.15095
0.0625481
0.154585
0.272077
0.432409
0.658997
1.02769
1.15507
1.15168
1.1504
1.15002
1.15014
0.0708175
0.14526
0.247089
0.392366
0.597969
0.946247
1.15616
1.15166
1.14991
1.14931
1.14937
0.0959897
0.160069
0.252302
0.38657
0.576731
0.905329
1.1574
1.1518
1.14955
1.14872
1.1487
0.129768
0.189512
0.278492
0.407166
0.587225
0.899258
1.1587
1.15211
1.14936
1.14828
1.14818
0.165246
0.232018
0.324212
0.452268
0.626615
0.923915
1.16
1.15256
1.14933
1.14802
1.14784
0.0625491
0.0535922
0.0870589
0.0654399
0.121655
0.0910508
0.153383
0.127167
0.157386
0.0763364
0.0556117
0.107499
0.0326932
0.0231909
0.0684668
0.122971
0.130302
0.0409804
0.0529735
0.0922795
0.136646
0.124511
0.0604119
0.0465468
0.125422
0.164801
0.142637
0.0973981
0.076884
0.0183034
0.138298
0.130608
0.0515367
0.0342229
0.0555835
0.0356443
0.0504324
0.0461488
0.0409648
0.0766964
0.0529889
0.0581547
0.0516465
0.0530101
0.0751949
0.0743587
0.0618653
0.108657
0.0811081
0.0981172
0.0587037
0.0791559
0.104009
0.126524
0.10071
0.0163968
0.0158677
0.139918
0.0190764
0.0126619
0.010524
0.0139953
0.1585
0.201683
0.17331
0.0136341
0.0507745
0.0457485
0.0265613
0.0339873
0.0541919
0.0436805
0.0302759
0.141973
0.126626
0.13591
0.1009
0.123079
0.138748
0.0294925
0.023458
0.0374142
0.0281387
0.0109041
0.0265641
0.0219395
0.0123512
0.0197184
0.0250256
0.0493485
0.0499719
0.0527097
0.0518574
0.0196783
0.0146087
0.088138
0.0187887
0.0260579
0.0139614
0.0178462
0.0852422
0.0634854
0.0538051
0.01436
0.0428019
0.0420718
0.0442228
0.0439888
0.055147
0.0724491
0.0678682
0.0790351
0.0742545
0.0554309
0.0604229
0.0605394
0.0555272
0.0661576
0.0618687
0.0596692
0.0731319
0.0138762
0.0716581
0.0272778
0.0383865
0.111168
0.028795
0.0205247
0.00760561
0.0668883
0.00500094
0.0190901
0.0170973
0.00683822
0.0164745
0.0148672
0.011937
0.0105512
0.0156505
0.0111951
0.0426716
0.0275262
0.0254233
0.0516824
0.0563364
0.0224211
0.0258524
0.0166228
0.0163613
0.0482646
0.0482414
0.0301795
0.0282208
0.041695
0.0478353
0.0436097
0.0540082
0.0492783
0.0431775
0.0451743
0.017988
0.0168546
0.0419501
0.0267328
0.0287457
0.0659696
0.0877797
0.107808
0.0998622
0.0645052
0.0870041
0.081045
0.0968007
0.0894381
0.0654761
0.114865
0.0402214
0.0571022
0.0144033
0.0149577
0.00737367
0.0137813
0.013547
0.0136068
0.0230458
0.0199607
0.00769094
0.0128508
0.00867963
0.0135155
0.014929
0.016764
0.0351282
0.0143716
0.0128177
0.0177013
0.0251684
0.0216896
0.0323018
0.0267353
0.0209156
0.0186413
0.0152996
0.0226031
0.0205239
0.0444683
0.0512431
0.0248042
0.0231947
0.0208291
0.0217486
0.0553414
0.015141
0.0160581
0.0178899
0.0152299
0.0166314
0.0491003
0.0172113
0.0204584
0.0171148
0.0163874
0.0215328
0.0522543
0.0461774
0.0156429
0.0379478
0.0336688
0.0440331
0.0394259
0.0161175
0.0156538
0.0282421
0.0242399
0.0369391
0.0339885
0.0471357
0.0275099
0.0301866
0.0259098
0.0376155
0.0334301
0.0309219
0.0360773
0.0386232
0.0390747
0.0373415
0.0198853
0.018405
0.0449049
0.0426018
0.0214893
0.0205255
0.0275051
0.0245469
0.0324247
0.0287572
0.0125952
0.0195676
0.0184852
0.0235825
0.0202218
0.0082623
0.0248608
0.0135069
0.0143636
0.0132641
0.0237063
0.0133665
0.0644556
0.138133
0.184025
0.0127134
0.0119957
0.212881
0.00782835
0.139994
0.14609
0.168321
0.00571966
0.00910395
0.00670973
0.00567973
0.00695879
0.00542808
0.07007
0.0447494
0.0269906
0.0296827
0.0271041
0.0306942
0.0358132
0.0302432
0.0162322
0.0601568
0.0699511
0.138066
0.0320164
0.0369267
0.0371067
0.0146741
0.0153519
0.0126729
0.0143149
0.0376771
0.0120877
0.013571
0.0156994
0.0151879
0.0127919
0.0208673
0.0239131
0.0513978
0.0423811
0.0390976
0.0290365
0.0374003
0.0175069
0.0199452
0.0282213
0.0179746
0.0122226
0.01715
0.0221569
0.0210454
0.0303634
0.0315996
0.0188598
0.0150803
0.0155495
0.00980376
0.0136696
0.0153058
0.0598135
0.0542332
0.0225521
0.0143002
0.0185326
0.0177228
0.0147762
0.016925
0.0162945
0.0140461
0.0141532
0.0171508
0.0167024
0.0138892
0.0143199
0.0142668
0.067375
0.0296378
0.0333065
0.0116922
0.0139371
0.0134154
0.014732
0.0150606
0.0176971
0.00795506
0.005447
0.00988286
0.0158641
0.0139902
0.0143288
0.0123846
0.0135175
0.0153281
0.0120894
0.00809666
0.00623423
0.0238426
0.024397
0.0228099
0.0232703
0.0268092
0.0349226
0.0351083
0.0345008
0.0347356
0.0262096
0.0162281
0.0260251
0.0259248
0.0268162
0.0262729
0.0160539
0.0297517
0.0364759
0.0381489
0.0353156
0.0356718
0.0289793
0.0177052
0.0259176
0.02591
0.0258746
0.0258756
0.017205
0.0218218
0.0223452
0.0224571
0.0219127
0.011158
0.00754916
0.0117288
0.0148704
0.00735863
0.00863913
0.00724512
0.0164733
0.00571605
0.00989721
0.0080948
0.00586087
0.00725946
0.0134608
0.0109841
0.0118235
0.0147577
0.0143014
0.0105865
0.0139786
0.00800704
0.0137098
0.0275403
0.0237642
0.0186919
0.0302614
0.0323055
0.0342463
0.0277896
0.0246985
0.0221392
0.0316703
0.0328181
0.0249649
0.0291993
0.0215853
0.0242738
0.0340132
0.0342606
0.0333805
0.0337241
0.0236835
0.0210852
0.0315346
0.0311186
0.0153571
0.0156413
0.0168416
0.0151971
0.015113
0.0158555
0.0168011
0.0166207
0.0184463
0.0288498
0.0277323
0.0306131
0.0298768
0.0197503
0.0139537
0.0144782
0.0179797
0.00909634
0.0134592
0.0134561
0.0158343
0.0135996
0.013628
0.020465
0.0195051
0.0149374
0.0365879
0.0438836
0.0446061
0.0410069
0.0428459
0.0357891
0.0283686
0.0295442
0.0382962
0.0316766
0.0308861
0.0330506
0.0327103
0.0356782
0.0316488
0.0301071
0.028119
0.0323239
0.019348
0.0259476
0.025922
0.0259275
0.0259638
0.0189879
0.0213844
0.0249764
0.0237186
0.0258244
0.0255725
0.0209145
0.0146906
0.0141895
0.0139432
0.0161809
0.0153959
0.0191632
0.0143543
0.0141756
0.0148354
0.0145613
0.0188486
0.0224236
0.0157585
0.0167131
0.0143013
0.0148778
0.0212177
0.0136118
0.0158134
0.015337
0.0172233
0.0164488
0.0139064
0.013857
0.0135292
0.0148963
0.01434
0.00853294
0.0125804
1.12625
1.15732
1.11311
1.0994
1.15751
1.1054
1.15843
1.1573
1.15827
1.15761
1.15683
1.15737
1.15662
1.1563
1.1564
1.15578
1.15586
0.796818
1.04837
0.785977
0.784915
1.02474
0.79396
0.848122
1.08556
0.874569
0.98302
1.158
1.0289
1.15789
1.15684
1.15746
1.15624
1.15583
0.493983
0.71557
0.485242
0.491611
0.7066
0.503292
0.562056
0.771167
0.588623
0.691037
0.903355
0.732119
0.888745
1.11566
0.95185
1.15764
1.1565
0.261834
0.428903
0.254285
0.268049
0.428466
0.282612
0.34817
0.501848
0.375317
0.475236
0.628994
0.514287
0.654392
0.822139
0.710031
0.912234
1.10156
0.091093
0.215817
0.0894606
0.122626
0.224404
0.140046
0.208316
0.306294
0.235924
0.331765
0.432636
0.36853
0.497528
0.608647
0.548311
0.729822
0.85892
0.0368266
0.0463565
0.0806005
0.0866952
0.116308
0.137095
0.163421
0.251051
0.306063
0.28489
0.403087
0.468709
0.449243
0.614055
0.69436
0.0616359
0.0881418
0.0938624
0.14463
0.219969
0.239198
0.249979
0.356769
0.387369
0.398741
0.5494
0.592684
0.0799239
0.0988459
0.0936477
0.154828
0.221714
0.217949
0.248821
0.346562
0.351288
0.385337
0.524699
0.539479
0.108089
0.124436
0.114259
0.180981
0.244549
0.225687
0.270213
0.363006
0.348415
0.399777
0.531038
0.523741
0.142196
0.160044
0.145826
0.219794
0.284969
0.252975
0.310685
0.402632
0.370715
0.438558
0.564434
0.537561
0.173284
0.193594
0.182445
0.298248
0.416435
0.578098
0.0599339
0.0525164
0.0567512
0.0449746
0.0444487
0.0528628
0.0836206
0.077977
0.0827406
0.0583989
0.0640487
0.0673151
0.117533
0.113691
0.118664
0.0848445
0.0902716
0.0951636
0.150001
0.146417
0.149344
0.122499
0.127233
0.131453
0.152101
0.154742
0.160592
0.00381141
0.00411166
0.00372323
0.0389761
0.0037725
0.00354182
0.0589041
0.0499548
0.0460888
0.085303
0.052169
0.0773824
0.0319262
0.0314427
0.0322562
0.0197704
0.0198922
0.0233743
0.0908105
0.0893019
0.0626617
0.123166
0.103591
0.104406
0.108304
0.104792
0.125475
0.0411681
0.0310274
0.0309056
0.0433028
0.0429962
0.0526894
0.110125
0.102353
0.0820121
0.131553
0.115181
0.12078
0.106829
0.110488
0.127461
0.0589263
0.0465139
0.0476874
0.0358542
0.0361409
0.0470074
0.141223
0.128928
0.112446
0.156828
0.142224
0.150598
0.127169
0.13435
0.149412
0.094223
0.0712354
0.0741836
0.0454208
0.0502985
0.079544
0.0220561
0.0210024
0.0175677
0.137687
0.0733909
0.0842611
0.104649
0.108485
0.134713
0.0502719
0.0443374
0.0437021
0.0336003
0.0344745
0.034858
0.0469929
0.0507609
0.0575634
0.0376117
0.0393202
0.0376077
0.0499384
0.0482831
0.0475975
0.0457929
0.0354552
0.0356351
0.0308764
0.0309887
0.0410893
0.0710498
0.0749503
0.0840052
0.0536191
0.0692586
0.0644198
0.0788057
0.0769904
0.0567698
0.0554633
0.0535327
0.051711
0.0638342
0.0595513
0.0546447
0.0682303
0.0646168
0.0692573
0.071975
0.0394888
0.0439
0.0488324
0.0499511
0.0632357
0.103042
0.109697
0.113318
0.0831921
0.102034
0.0993533
0.115442
0.110694
0.0902633
0.0607714
0.0826372
0.0807022
0.0964226
0.0922707
0.0696048
0.099487
0.0930353
0.0994738
0.122558
0.0972157
0.100885
0.0772797
0.0803506
0.104094
0.0880754
0.0231651
0.00914365
0.0103488
0.0108991
0.171963
0.168635
0.145979
0.19154
0.177278
0.187824
0.159339
0.167961
0.182408
0.047893
0.0251778
0.0296004
0.0347708
0.0365407
0.0476227
0.0280292
0.0381842
0.0390104
0.0360103
0.0346781
0.0323181
0.0528252
0.0446952
0.0451349
0.0416933
0.0313572
0.0330405
0.0230073
0.0241978
0.0318489
0.139121
0.143088
0.14558
0.133383
0.13666
0.137804
0.144101
0.140687
0.136919
0.109823
0.124353
0.119742
0.133133
0.126504
0.113007
0.135135
0.131653
0.135287
0.0155187
0.0244283
0.0207739
0.0199334
0.0334705
0.0209233
0.0319056
0.0146972
0.0185942
0.0304323
0.0231962
0.02615
0.0280243
0.0133768
0.0179392
0.0163443
0.0199698
0.0180106
0.0184436
0.0240285
0.020964
0.0222175
0.040789
0.0397036
0.0483432
0.0504271
0.0416851
0.0413423
0.0414669
0.0421159
0.0535501
0.0509607
0.0399439
0.0407676
0.0657333
0.0684137
0.091131
0.0197472
0.0264838
0.0252248
0.0349324
0.0333836
0.0248755
0.0240247
0.0229706
0.0170716
0.0823268
0.0519666
0.0569869
0.0601822
0.0433798
0.0461321
0.0312271
0.0363117
0.0569712
0.042593
0.0443565
0.0443811
0.0413508
0.0400063
0.0410023
0.0347307
0.0348322
0.0444372
0.0436764
0.0343273
0.0345895
0.0714069
0.0695356
0.054044
0.071043
0.0690378
0.0709596
0.0654669
0.066071
0.0694643
0.0774399
0.0758295
0.0775192
0.0725979
0.0741879
0.0758017
0.0563814
0.0751874
0.0733489
0.0573258
0.0554122
0.0568827
0.0588407
0.0566963
0.0584208
0.0532926
0.0549965
0.0572283
0.064682
0.0636294
0.0644416
0.0599912
0.0618851
0.0632719
0.0559536
0.0601975
0.059321
0.0344895
0.038085
0.077358
0.0702439
0.0562173
0.0576418
0.0315871
0.0587302
0.0617047
0.0645785
0.0615851
0.0331959
0.107581
0.0835215
0.0867947
0.0273777
0.0208294
0.0218848
0.0160511
0.0167165
0.021486
0.0490138
0.0183401
0.0154291
0.0159297
0.0138986
0.0102906
0.00700129
0.012084
0.0168848
0.00882985
0.010942
0.0108837
0.00928537
0.00900015
0.0133162
0.00950991
0.0129684
0.00683585
0.00819239
0.011807
0.0321651
0.0313422
0.0416475
0.0521614
0.0427265
0.0424638
0.0443941
0.0453974
0.0574247
0.0234592
0.0342276
0.0332581
0.0364292
0.0353307
0.0247
0.0475674
0.0365579
0.0371787
0.0473179
0.0454683
0.049348
0.0436254
0.0412568
0.0392269
0.046345
0.043504
0.0449764
0.0403945
0.0419005
0.0450331
0.0524141
0.0500082
0.0516511
0.0465054
0.0482983
0.0509434
0.0464904
0.0466548
0.0450936
0.0351596
0.0353001
0.0454703
0.0414156
0.0313712
0.0320912
0.0274143
0.0382921
0.0374091
0.0400737
0.0391533
0.028042
0.0646147
0.0510748
0.0522452
0.107214
0.104667
0.0854205
0.105452
0.1034
0.106182
0.0976331
0.100471
0.102385
0.0863507
0.084529
0.0616398
0.0850572
0.0831737
0.085147
0.0793561
0.0812233
0.0828717
0.0943613
0.0920889
0.0947862
0.0873113
0.0896593
0.0916128
0.0685091
0.0902205
0.0882728
0.0901535
0.0936469
0.118652
0.0458615
0.0709767
0.0677034
0.0775926
0.0742219
0.054169
0.0124868
0.0121038
0.013274
0.0219416
0.0178883
0.0186385
0.0165435
0.0172059
0.0209188
0.00919431
0.015453
0.0188842
0.0180451
0.0207556
0.0197782
0.0160611
0.0334573
0.0254381
0.0267535
0.0239235
0.0242593
0.0260457
0.0205286
0.0222362
0.0226453
0.0275095
0.0297195
0.0283331
0.0197672
0.018178
0.0195047
0.0170986
0.0173425
0.0188778
0.0168851
0.0162641
0.0154403
0.0466745
0.0374292
0.0340706
0.0422102
0.0419586
0.0508328
0.0325142
0.0319691
0.0213544
0.0544169
0.0427829
0.0435263
0.0380212
0.0389925
0.0500223
0.0290221
0.027736
0.0206304
0.0503173
0.0375357
0.0392139
0.0342906
0.0358942
0.0482535
0.0364646
0.0265511
0.0278
0.0242311
0.0253276
0.0350204
0.0424362
0.0314231
0.032782
0.0289955
0.0301775
0.0409109
0.0165319
0.0220878
0.021297
0.0182872
0.0175715
0.0151733
0.0268383
0.0213297
0.0223561
0.0194769
0.0203782
0.0255053
0.0457853
0.046073
0.0478629
0.0381712
0.0393128
0.0392611
0.039914
0.0389458
0.0375144
0.0427445
0.0407615
0.0381736
0.0446626
0.0349311
0.0350372
0.0329983
0.0338153
0.0432121
0.0263779
0.0184845
0.0194007
0.0173252
0.0178357
0.0254217
0.0312395
0.0224569
0.0233019
0.0204893
0.0215515
0.0300312
0.0190966
0.0199026
0.0260691
0.0225667
0.0175113
0.0183279
0.0965973
0.103407
0.0811882
0.149144
0.126039
0.113485
0.158465
0.139987
0.164557
0.198528
0.209506
0.225356
0.136077
0.149914
0.146764
0.154689
0.152292
0.143182
0.00662723
0.00500623
0.00451093
0.00809025
0.00660517
0.00756955
0.00496583
0.00523464
0.00751873
0.00520011
0.00451799
0.0044167
0.00604644
0.00475068
0.00613295
0.00427114
0.00426594
0.00544945
0.0377347
0.0462215
0.0518131
0.0396854
0.040711
0.0337588
0.0292213
0.030087
0.0299873
0.0281979
0.029641
0.0285859
0.031693
0.0305386
0.0295496
0.0340623
0.0262482
0.0277102
0.0235405
0.0248424
0.0321115
0.0168789
0.0200154
0.0191055
0.0633813
0.0845783
0.0810314
0.0919162
0.0882078
0.0666172
0.0333997
0.0336376
0.0325527
0.0363581
0.034863
0.0350287
0.0364327
0.0358663
0.0369087
0.0292229
0.0218132
0.0279546
0.0266002
0.0308653
0.0293694
0.0228155
0.0496344
0.0383431
0.0401476
0.0411218
0.0376817
0.0389775
0.0304663
0.0334962
0.0322801
0.0281976
0.0297353
0.0395252
0.0182565
0.0228923
0.0217986
0.0252982
0.0240567
0.0190645
0.0246344
0.0222498
0.0260836
0.01597
0.0189038
0.0211405
0.0164031
0.017548
0.0140651
0.0580226
0.044553
0.0463814
0.0409487
0.0427347
0.056093
0.023691
0.0318615
0.0303958
0.0534896
0.0548183
0.0687791
0.0307608
0.0423056
0.0411149
0.044923
0.0435975
0.0320278
0.0111684
0.0100102
0.0118932
0.0071218
0.00842047
0.00948297
0.00767961
0.00789121
0.00660254
1.15713
1.15718
1.15669
1.15715
1.15706
1.15663
1.15691
1.15672
1.15647
1.15652
1.15632
1.15629
1.15614
1.15599
1.15614
1.15586
1.15573
1.15603
1.15565
1.15558
1.15597
1.15776
1.15783
1.15746
1.15786
1.1578
1.15745
1.15749
1.15735
1.15709
1.15686
1.15669
1.15656
1.15621
1.15606
1.15607
1.15561
1.15531
1.15549
1.15507
1.1549
1.15522
1.15476
1.15463
1.15504
0.952285
0.944458
1.02539
0.953373
0.966398
1.04474
1.0336
1.0669
1.14513
1.15813
1.1578
1.15742
1.15679
1.15648
1.1563
1.15589
1.15521
1.15521
1.15477
1.15442
1.15463
1.15415
1.15392
1.15426
0.628123
0.624069
0.700803
0.641486
0.656094
0.730371
0.723778
0.754182
0.828293
0.87141
0.921073
0.999071
1.10017
1.15783
1.15741
1.15706
1.15571
1.15537
1.15491
1.15426
1.15429
1.15377
1.15339
1.15362
0.3603
0.358083
0.417766
0.383557
0.400843
0.457557
0.472596
0.50301
0.559234
0.614515
0.658693
0.716685
0.819395
0.884038
0.948766
0.985602
1.15697
1.15624
1.15565
1.15454
1.15434
1.15369
1.15306
1.15319
0.167026
0.16754
0.207836
0.202003
0.221551
0.259313
0.29706
0.327219
0.364468
0.432879
0.474101
0.513106
0.620218
0.67793
0.722297
0.796769
1.04488
1.13858
1.15699
1.15532
1.15487
1.15397
1.15299
1.15298
0.0602956
0.0602929
0.0735822
0.191533
0.220409
0.241086
0.319915
0.357945
0.381193
0.491759
0.544171
0.571763
0.676538
0.895926
0.963134
1.08549
1.15654
1.15589
1.15462
1.15318
1.15304
0.0617785
0.0707922
0.0720768
0.148837
0.173629
0.180479
0.262198
0.29672
0.307532
0.418503
0.46638
0.481268
0.607738
0.800749
0.842065
0.9817
1.15802
1.15726
1.15559
1.15364
1.15337
0.0740136
0.0803006
0.0777611
0.147307
0.168261
0.166959
0.246068
0.277103
0.278907
0.388126
0.432124
0.437275
0.578845
0.751085
0.770614
0.921065
1.11705
1.14725
1.15677
1.15432
1.15394
0.0998079
0.104883
0.10136
0.166218
0.185809
0.179806
0.257071
0.285815
0.28149
0.389431
0.430556
0.428304
0.580607
0.739149
0.740869
0.898193
1.07904
1.09453
1.15805
1.15517
1.15472
0.133975
0.13917
0.135012
0.198767
0.218386
0.209018
0.287966
0.316025
0.306561
0.41608
0.455503
0.446916
0.609788
0.759354
0.745509
0.907796
1.07204
1.0727
1.15936
1.15613
1.15564
0.16519
0.17208
0.167302
0.245464
0.266045
0.252236
0.339381
0.368058
0.352667
0.467749
0.506337
0.491034
0.780634
1.08143
1.15664
0.0626441
0.0757337
0.0737407
0.0661902
0.0979881
0.0948888
0.0883428
0.130236
0.126135
0.121325
0.138146
0.129425
0.132774
0.0493736
0.0488466
0.0494037
0.0530578
0.0668456
0.0668061
0.0719914
0.0713724
0.0576529
0.0528876
0.0514505
0.0507833
0.0668394
0.0670403
0.053242
0.115564
0.113607
0.0954425
0.0593108
0.0733835
0.0726562
0.136883
0.16405
0.160642
0.157988
0.0266949
0.0304816
0.0306581
0.130262
0.131607
0.13099
0.139177
0.137955
0.138322
0.103775
0.119652
0.118173
0.129364
0.128518
0.119633
0.0309678
0.026514
0.0239016
0.0234261
0.0230846
0.028206
0.0121315
0.0138546
0.0139284
0.0683711
0.068107
0.0548424
0.0557174
0.0689936
0.0686913
0.058431
0.0576214
0.0598718
0.058696
0.0609301
0.0600609
0.0590682
0.060496
0.074531
0.0285835
0.0381634
0.0365168
0.0506275
0.0487106
0.036591
0.0410376
0.0401587
0.039953
0.0441892
0.0440526
0.0434086
0.0788875
0.0779071
0.0635379
0.0664549
0.0809196
0.0799155
0.0420939
0.0544808
0.0526343
0.0743133
0.0766473
0.0677392
0.137789
0.142092
0.140476
0.164775
0.157745
0.161117
0.0601261
0.0540801
0.0638111
0.0311893
0.0320052
0.0281803
0.136828
0.112411
0.116418
0.0355995
0.0366049
0.0403234
0.0140665
0.0142545
0.0131607
1.15806
1.15767
1.10153
1.15825
1.15817
1.1583
1.15829
1.09843
1.1575
1.15787
1.15788
1.11845
1.15821
1.15828
1.158
1.15813
1.13363
1.15737
1.15773
1.15762
1.15807
1.15767
1.15785
1.15728
1.15749
1.15785
1.15694
1.15719
1.15703
1.15711
1.15687
1.15708
1.15646
1.15667
1.15687
1.15641
1.15652
1.15636
1.15617
1.1561
1.15628
1.15577
1.15593
1.15597
1.15594
1.15593
1.1558
0.880421
0.964966
0.780501
0.862167
0.868672
0.865054
0.861275
0.780369
1.02273
0.942716
0.945648
0.80758
0.886708
0.873439
0.927264
0.904419
0.82557
1.06143
0.983717
1.00707
0.905986
0.986116
0.953843
1.06492
1.02243
0.941762
1.15827
1.10256
1.14538
1.08104
1.15823
1.11011
1.15747
1.15786
1.13492
1.15713
1.15746
1.15712
1.15703
1.15672
1.15709
1.15605
1.15638
1.15662
1.15606
1.15619
1.15591
0.563641
0.637635
0.48215
0.551021
0.554562
0.559301
0.55275
0.484424
0.701353
0.625232
0.631141
0.519107
0.585487
0.570304
0.627502
0.604609
0.538777
0.748669
0.674777
0.697416
0.618722
0.684172
0.653965
0.757109
0.718284
0.652855
0.863359
0.788644
0.827583
0.77838
0.849163
0.80142
0.958857
0.900763
0.830297
1.05541
0.976486
1.03554
1.01948
1.09463
1.02552
1.15721
1.15776
1.09254
1.15694
1.15733
1.15682
0.312865
0.368499
0.253178
0.303181
0.3049
0.316802
0.307368
0.257957
0.420596
0.361538
0.370218
0.301076
0.348362
0.330683
0.394123
0.369562
0.323174
0.477967
0.421419
0.445312
0.405535
0.451534
0.421693
0.521859
0.484736
0.439178
0.592934
0.535892
0.572611
0.556577
0.604989
0.562266
0.705051
0.652312
0.603235
0.765588
0.706355
0.760878
0.771187
0.824922
0.762067
0.970465
0.894248
0.838588
1.02245
0.955924
1.03332
0.138408
0.173729
0.095661
0.132136
0.132072
0.151077
0.139622
0.109026
0.21355
0.173762
0.185608
0.158461
0.188254
0.167716
0.236492
0.210867
0.18255
0.281608
0.243878
0.269043
0.26555
0.29414
0.264401
0.36122
0.326354
0.297488
0.397341
0.359536
0.394688
0.408152
0.4392
0.39878
0.530253
0.482922
0.451173
0.558843
0.518879
0.567392
0.603195
0.638383
0.582076
0.767913
0.700417
0.663659
0.787337
0.741736
0.811525
0.0378711
0.0482027
0.0475993
0.0555887
0.0509356
0.0410244
0.0762565
0.0625415
0.0674
0.190384
0.203668
0.175541
0.26603
0.233837
0.219675
0.272434
0.251265
0.284277
0.321267
0.337985
0.300774
0.421674
0.378256
0.360602
0.423438
0.399163
0.443479
0.499266
0.520118
0.468902
0.636788
0.575987
0.554052
0.630414
0.601613
0.664597
0.0702638
0.0700301
0.0613556
0.0899451
0.0797455
0.0783291
0.167248
0.16937
0.145686
0.224003
0.195499
0.192416
0.208751
0.20081
0.230284
0.282653
0.288539
0.254953
0.364486
0.324964
0.318159
0.345881
0.334096
0.374576
0.444655
0.454309
0.407405
0.56075
0.505411
0.494733
0.534716
0.518826
0.576034
0.084967
0.082462
0.0779906
0.0976652
0.0897193
0.0923997
0.0852295
0.087251
0.0943414
0.174815
0.170929
0.150544
0.219015
0.193911
0.197216
0.191295
0.191876
0.217706
0.278533
0.277028
0.246699
0.346348
0.310159
0.311044
0.313546
0.310946
0.347877
0.427751
0.428989
0.385827
0.527552
0.47614
0.47411
0.486245
0.480186
0.532723
0.112894
0.108939
0.103887
0.121264
0.115228
0.118765
0.107566
0.111048
0.116943
0.200469
0.192731
0.173213
0.237181
0.213705
0.221171
0.201663
0.20718
0.230868
0.298401
0.291482
0.263071
0.35669
0.322632
0.329243
0.313488
0.317368
0.351809
0.439904
0.434442
0.393854
0.527243
0.478789
0.483664
0.473926
0.475474
0.524338
0.14762
0.143892
0.138116
0.239822
0.228607
0.208764
0.273117
0.24946
0.261064
0.229598
0.23902
0.262494
0.338955
0.326796
0.298663
0.39049
0.35729
0.369474
0.33719
0.346544
0.379863
0.477523
0.465736
0.426553
0.554452
0.508216
0.51961
0.490256
0.49832
0.544392
0.274027
0.288494
0.313073
0.383258
0.398774
0.431998
0.532841
0.547793
0.591493
0.0537459
0.0560864
0.055393
0.0590365
0.0582736
0.055401
0.0798065
0.08165
0.0808036
0.0847397
0.083475
0.0813622
0.0600165
0.062112
0.0612117
0.0656694
0.0641734
0.0617676
0.114834
0.116839
0.114085
0.0863678
0.0884327
0.0870512
0.0923894
0.0907523
0.0887361
0.0498714
0.0726977
0.0803575
0.0901163
0.0599875
0.0698615
0.0620947
0.0859672
0.0768924
0.0675675
0.0907367
0.0817906
0.0830306
0.0797404
0.0798812
0.0885669
0.0642626
0.0722849
0.0709282
0.107855
0.100871
0.104022
0.0951524
0.0979996
0.104004
0.0837924
0.0914969
0.0881087
0.137181
0.132232
0.135325
0.123509
0.126918
0.132581
0.116832
0.121485
0.117337
0.0470024
0.0608677
0.0592062
0.0642314
0.0625999
0.0486392
0.120636
0.124989
0.136758
0.0769189
0.0996506
0.095732
0.107756
0.103645
0.0805505
0.0478682
0.0507211
0.0502007
0.0532894
0.0527119
0.0496929
0.0484573
0.0475962
0.0471651
0.0724501
0.0768209
0.0753116
0.0776308
0.0778222
0.0737599
0.0672325
0.0669933
0.0532708
0.0674025
0.0697493
0.0720882
0.0670665
0.0680404
0.0650818
0.0571919
0.0707997
0.0702841
0.0536134
0.0528936
0.0541286
0.063618
0.0656774
0.0663893
0.0613355
0.0638896
0.0614697
0.0537488
0.0673976
0.0666358
0.0653647
0.0703096
0.0690833
0.073427
0.0713889
0.0671241
0.0409532
0.0539576
0.0521317
0.0574685
0.0557664
0.042422
0.104567
0.106454
0.104211
0.111508
0.109146
0.108373
0.114859
0.113321
0.115455
0.108844
0.111248
0.112681
0.0928699
0.11161
0.109612
0.0750276
0.0741611
0.0599917
0.070714
0.0852436
0.084191
0.0946437
0.0967589
0.0948639
0.101487
0.0993899
0.0978314
0.111923
0.150054
0.154813
0.151784
0.0265643
0.0349686
0.0329745
0.0389105
0.037021
0.0280473
0.0314181
0.0307398
0.0272845
0.0383658
0.0348114
0.0347982
0.0352167
0.0339007
0.0381116
0.0437726
0.04634
0.0472356
0.048349
0.0479883
0.044837
0.133867
0.133916
0.134114
0.133804
0.130668
0.138321
0.13439
0.136272
0.135175
0.123103
0.121787
0.106743
0.122317
0.123474
0.122922
0.120375
0.120076
0.120708
0.130484
0.130467
0.129826
0.126907
0.126288
0.128596
0.116274
0.126519
0.12532
0.0289072
0.0345147
0.0204995
0.024522
0.0196381
0.0219907
0.0177338
0.0290877
0.0323287
0.0347532
0.0240756
0.0275649
0.0245653
0.0334632
0.0313594
0.0276133
0.015147
0.0189916
0.0189321
0.0222467
0.0202504
0.016523
0.0291068
0.0243947
0.0261414
0.0236712
0.0248626
0.0242213
0.0269298
0.0263322
0.0251654
0.0145954
0.0140288
0.0127045
0.0178578
0.0168418
0.0163909
0.0229252
0.0228753
0.0220532
0.0536327
0.0675456
0.065946
0.070775
0.0692469
0.0553172
0.0328883
0.042696
0.0408954
0.0463191
0.0446273
0.0346053
0.0544705
0.0677903
0.0674749
0.0697948
0.0693913
0.0560346
0.0584087
0.0559989
0.0551748
0.0637567
0.0624305
0.0574267
0.0356257
0.0475222
0.0462264
0.0502447
0.0488508
0.0368068
0.0760133
0.0619432
0.0633835
0.0425224
0.0403931
0.0300358
0.0482237
0.0500449
0.0633858
0.0348581
0.0466565
0.0446602
0.00884013
0.0105991
0.0116665
0.0087314
0.00940669
0.00797081
0.0137145
0.00916978
0.00997742
0.010988
0.0115672
0.0108775
0.00670284
0.00831208
0.00828663
0.00945267
0.0088598
0.00727234
0.04589
0.0453633
0.0454261
0.062571
0.0768981
0.0759449
0.0830565
0.0819898
0.0674617
0.0581989
0.0564559
0.0439866
0.0730598
0.0833791
0.0904081
0.143451
0.14471
0.1418
0.0301102
0.034675
0.0363334
1.15553
1.15547
1.15592
1.15569
1.15557
1.15568
1.15567
1.15544
1.15542
1.15635
1.15595
1.15573
1.10405
1.15732
1.15689
0.881898
0.954274
1.0413
0.729175
0.799363
0.854516
0.636444
0.699665
0.731982
0.589048
0.646981
0.661604
0.576208
0.631482
0.632179
0.591773
0.647105
0.635541
0.634912
0.692535
0.669153
0.102604
0.0886704
0.0996739
0.0758717
0.0776857
0.0777861
0.0744706
0.0728665
0.0744613
0.10897
0.0878097
0.10432
0.104553
0.0988744
0.107613
0.0993822
0.0833638
0.0794374
0.0903458
0.154838
0.150429
0.152879
0.141191
0.143957
0.150265
0.182101
0.176573
0.172995
0.124329
0.122761
0.118557
0.081259
0.0801212
0.0835075
0.0674413
0.0704056
0.0708296
0.159442
0.159998
0.171736
0.103736
0.0948042
0.0855001
0.0415089
0.0385371
0.0353249
1.15545
1.15549
1.15563
1.1556
1.15549
1.15575
1.15653
1.15619
1.15667
1.05294
1.15774
1.0623
0.869801
0.939768
0.849553
0.743285
0.785943
0.707677
0.668111
0.690968
0.622803
0.63509
0.642491
0.583037
0.635514
0.630028
0.578296
0.666045
0.648639
0.603313
0.105658
0.105943
0.092134
0.0107172
0.00577546
0.000505567
0.00765787
0.00593356
0.000524522
0.00926502
0.00625
0.00051153
0.0121194
0.00594391
0.000510135
0.00556587
0.00309623
0.000441677
0.0111744
0.00544407
0.000547387
0.0110358
0.00544946
0.000547764
0.0105592
0.00546879
0.000548558
0.00775647
0.00530312
0.000540102
0.00794186
0.00533421
0.000541363
0.00771256
0.0053842
0.000538683
0.00754779
0.0052368
0.000538117
0.00741319
0.00581012
0.00052623
0.00747299
0.00588792
0.000525005
0.00889732
0.00615682
0.000520655
0.00982053
0.00617443
0.000512079
0.0115842
0.00525651
0.000548732
0.0122482
0.00537623
0.000546505
0.0117443
0.005251
0.000549388
0.0123519
0.00538227
0.000545825
0.00999967
0.00543157
0.000548669
0.0104111
0.00537854
0.000549451
0.00983757
0.00537545
0.000549176
0.00821888
0.00545675
0.000541991
0.00800509
0.00542416
0.000541062
0.00830617
0.00543282
0.000542796
0.00751586
0.00527676
0.000536768
0.00736674
0.00550512
0.000531383
0.00718674
0.0052602
0.000531571
0.00731036
0.00543656
0.000531992
0.00721406
0.00529837
0.000531957
0.00869757
0.00613266
0.00052068
0.00987574
0.00606053
0.000511022
0.009165
0.00564122
0.000500837
0.00759658
0.00592175
0.000524617
0.0098034
0.00622432
0.000511904
0.00706074
0.0054872
0.000521277
0.00772515
0.00598648
0.000524078
0.00779224
0.00612169
0.000524779
0.00672857
0.0062698
0.000745709
0.0094318
0.00615179
0.00051045
0.00988308
0.00609073
0.000511144
0.0113247
0.00550013
0.000546707
0.0114994
0.00544491
0.000547166
0.0108794
0.0054457
0.000548109
0.0107542
0.00552421
0.000547597
0.00781387
0.00539607
0.000539805
0.00789418
0.00542538
0.000540092
0.00764267
0.00536639
0.000538311
0.00758667
0.00525922
0.000538671
0.00688376
0.00374598
0.000455567
0.00782727
0.00527219
0.000475065
0.00737225
0.00625074
0.000479194
0.00753324
0.00593008
0.000524505
0.00896164
0.00623379
0.000519557
0.00884153
0.00618634
0.00051873
0.00899292
0.00622599
0.000519613
0.00987655
0.000473607
0.000461743
0.000466455
0.00981589
0.00616968
0.000512093
0.0121829
0.00559312
0.000545477
0.0118857
0.00547716
0.000547338
0.0124733
0.00545026
0.000544478
0.0101266
0.00539627
0.000549251
0.0102815
0.00540103
0.000549275
0.00971549
0.0053708
0.000548819
0.00958625
0.00534417
0.000548689
0.00814506
0.00538036
0.000542135
0.00809224
0.00545385
0.000541249
0.00836505
0.00534974
0.000544083
0.00844694
0.00536968
0.000544786
0.00740477
0.00533554
0.000533743
0.00717336
0.005222
0.000531365
0.00727302
0.00528704
0.000533456
0.00724514
0.00527218
0.000533208
0.00797
0.00597748
0.000527406
0.0079148
0.00608229
0.000525845
0.00785669
0.00618511
0.00052427
0.00899404
0.00621717
0.000517323
0.00942111
0.00622206
0.000517597
0.00399996
0.00374871
0.00146485
0.00297303
0.00266023
0.000922253
0.00298415
0.00233299
0.000640884
0.00968878
0.006181
0.000513923
0.00724239
0.00591085
0.000522857
0.00728487
0.00601201
0.000522245
0.0135006
0.00549012
0.000534506
0.00706023
0.00555038
0.000521041
0.00705435
0.00555442
0.000520865
0.0133334
0.00890582
0.000575903
0.00931372
0.00722188
0.000638239
0.00951185
0.00616947
0.000517233
0.00931308
0.0060647
0.000508688
0.0098289
0.00609423
0.000508126
0.00903154
0.00541711
0.000545857