/*--------------------------------*- C++ -*----------------------------------*\
| =========                 |                                                 |
| \\      /  F ield         | OpenFOAM: The Open Source CFD Toolbox           |
|  \\    /   O peration     | Version:  v2012                                 |
|   \\  /    A nd           | Website:  www.openfoam.com                      |
|    \\/     M anipulation  |                                                 |
\*---------------------------------------------------------------------------*/
FoamFile
{
    version     2.0;
    format      ascii;
    class       volScalarField;
    location    "0";
    object      omega;
}
// * * * * * * * * * * * * * * * * * * * * * * * * * * * * * * * * * * * * * //

dimensions      [0 0 -1 0 0 0 0];


internalField   nonuniform List<scalar> 
3259
(
31.9669
31.9674
31.963
31.9561
31.9497
31.9449
31.9417
31.9399
31.8748
31.8723
31.8706
31.8691
31.9189
31.9212
31.9101
31.8919
31.8738
31.8599
31.8206
31.8134
31.7477
31.742
31.7382
31.7347
31.8855
31.8903
31.8675
31.8291
31.789
31.7569
31.7065
31.6914
31.6237
31.6146
31.6083
31.6029
31.9455
31.9484
31.8943
31.8144
31.7362
31.6732
31.605
31.5767
31.5036
31.4899
31.4808
31.4733
32.3115
32.2841
32.1072
31.9063
31.7401
31.6236
31.5218
31.4713
31.388
31.3678
31.3552
31.3454
34.0372
33.6625
32.8306
32.2307
31.8505
31.6187
31.4615
31.3778
31.2769
31.2482
31.2311
31.2187
43.0926
40.2285
34.9633
33.0055
32.1259
31.6795
31.4249
31.297
31.1709
31.1311
31.1083
31.0931
65.5326
40.0533
34.443
32.6077
31.8165
31.4123
31.2284
31.0701
31.0167
30.9872
30.9687
116.091
47.2057
36.4132
33.2622
32.0195
31.4205
31.1697
30.9747
30.906
30.8687
30.8466
140.646
53.0191
38.366
33.9644
32.2544
31.4417
31.1183
30.8849
30.7999
30.7542
30.7282
141.317
56.4519
39.902
34.5883
32.4807
31.4656
31.0719
30.8004
30.6991
30.6448
30.6145
131.184
57.8201
40.8753
35.0528
32.6632
31.4819
31.0272
30.7199
30.6035
30.5407
30.5061
133.674
73.5265
172.269
141.23
170.758
173.679
155.719
169.274
153.543
42.5138
66.2827
40.2401
508.337
160.24
110.607
51.0647
43.217
1317.56
1042.75
139.171
59.7957
53.5968
859.963
1119.79
142.04
64.6195
61.352
537.577
674.149
2239.28
326.32
405.995
1027.79
542.71
108.049
403.148
806.745
1131.29
1314.24
156.66
1026.21
916.275
825.074
1027.47
155.045
696.206
840.322
174.229
657.833
543.626
906.818
674.208
174.756
418.539
520.703
2615.32
2761.17
317.411
2126.68
1760.88
663.67
3306.53
132.787
66.3229
65.2874
3509.52
897.076
988.341
130.106
363.695
99.1834
1028.84
1415.69
161.977
422.404
345.519
528.699
434.389
163.94
62.2742
130.445
63.8775
64.2038
1886.11
343.842
1665.25
463.372
1497.67
290.832
1118.05
1106.05
984.189
1000.64
2146.56
3099.67
591.48
2284.78
1645.09
3333.68
2416.5
610.747
739.507
852.966
3315.64
814.609
785.745
1197.15
1206.16
976.017
338.382
332.5
338.246
339.154
969.617
910.431
305.347
278.462
329.013
312.643
921.682
714.184
3369.72
728.471
1576.1
1162.18
473.773
1481.14
2051.92
3693.41
707.108
1884.44
2140.94
2455.49
1035.13
2582.66
3022.84
124.121
455.352
118.078
133.538
1277.69
2074.05
2219.4
1074.55
920.399
2085.08
1811.29
2984.09
2991.18
1076.21
945.386
1915.34
2030.42
569.136
219.099
178.819
267.868
232.075
603.236
1162.08
2812.4
2959.63
1274.25
1751.07
1623.06
789.421
607.581
300.356
313.146
822.329
330.434
336.94
317.114
327.527
809.953
459.152
1115.66
825.319
3329.77
1447.48
1669.87
1294.86
3466.42
3446.89
1756.03
2036.96
3691.63
1092.73
430.488
1173.34
2993.57
2532.73
1240.91
3211.8
3539.35
1918.63
1073.4
802.532
1391.16
1152.39
711.098
452.161
1139.91
2439.53
2668.54
1230.46
1082.85
2264.9
2388.02
2283.81
2154.92
936.879
3173.07
3019.09
2608.31
3140.3
2918.14
1057.4
2829.02
2338.43
2510.62
2646.22
1979.32
920.125
1026.61
2854.8
1224.57
1365.8
1070.51
1182.87
2739.9
2806.88
1450.05
1672.01
1565.65
1696.01
907.531
2128.4
1950.82
2263.19
1553.04
1461.34
1908.1
1624.6
683.03
1344.1
1550.88
2591.06
2761.59
1171.4
1252.56
2442.34
2520.55
1651.31
1847.48
1414.49
1583.22
3407.12
2326.64
2507.04
1923.32
2243.5
3583.15
1697.11
3539.66
3193.32
3540.55
1776.39
3532.46
60.0287
40.897
35.8334
3655.68
3633.06
66.4091
3651.14
336.074
268.995
147.036
275.007
176.054
463.765
1642.81
280.048
305.865
50.6218
60.1946
110.834
422.123
890.884
1103.33
1178.93
1366.22
2648.33
788.237
690.527
371.762
1167.85
1284.78
646.934
3196.17
2927.02
3560.7
3381.37
1128.03
1708.16
3451.3
2783.24
2941.86
3625.17
1960.29
1707.06
893.083
165.444
127.419
253.781
1176.19
2396.33
2058.14
83.441
107.842
325.663
1721.57
1437.34
1343.17
2005.09
1859.5
2249.31
2945.43
2815.12
3464.72
3414.56
2903.79
815.293
890.04
1889.87
3227.54
2360
2480.16
3120.39
2485.7
2627.13
3352.24
3332.54
2580.74
2672.07
3375.5
3295.26
3318.4
773.342
1574.72
1410.59
3678.7
3515.99
3637.99
3079.62
2953.9
2346.74
1242.93
1576.72
1389.33
2725.52
3428.52
3252.23
3558.13
3517.97
2871.92
177.473
250.164
1259.32
2257.66
2215.71
2337.68
2302.87
2121.51
1612.63
1609.43
1621.17
1615.81
2161.02
3045.31
1879.33
1894.54
1814.17
1855.28
3064.94
1937.2
1561.7
1494.52
1605.1
1593.58
1983.59
2841.36
1921.89
1931.95
1906.89
1915.78
2913
2421.2
2374.51
2332.36
2399.57
3757.53
3740.53
3662.94
3110.32
3793.39
1731.68
1860.24
1645.66
1849.69
1628.08
1291.7
1888.55
1733.15
3494.15
3476.63
3660.82
3104.6
3309.74
1012.06
3397.28
3597.75
3497.52
1683.86
1516.55
1770.37
1287.88
1559.14
1735.69
1795.69
1737.43
2478.96
1725.19
1671.78
2173.46
1863.61
2533.96
2303.52
1632.27
1626.62
1650.24
1639.9
2350.18
2243.62
1538.84
1562.35
3139.04
3092.54
2792.65
3153.81
3163.71
2996.42
2902.1
2951.09
2621.32
1687.74
1754.02
1590.61
1630.81
2435.6
3322.45
3129.94
2372.5
3537.69
3520.66
3509.54
2769.18
3443.85
3435.56
2125.59
2235.19
3035.28
1577.97
1296.98
1275.05
1389.43
1329.03
1611.15
2068.01
1988.44
1523.12
1891.84
1940.42
1774.78
1828.92
1499.75
1866.73
1990.94
2142.46
1828.86
2651.31
1958.74
1970.95
1940.27
1947.4
2687.17
2442.39
2077.21
2196.77
1988.91
2018.99
2486.4
3154.58
3299.34
3366.12
2785.16
2964.59
2388.11
3314.26
3348.21
3219.43
3275.35
2442.78
2021.58
2929.96
2732.88
3301.09
3145.48
2135.61
3507.02
2734.47
2859.78
2451.22
2595.38
3393.46
3378.44
3500.22
2993.68
3181.59
3569.44
3646.76
31.8838
31.915
31.8887
31.8944
31.922
31.8931
31.8806
31.9151
31.8742
31.8504
31.8984
31.8417
31.8159
31.8796
31.8079
31.7872
31.8641
31.9056
31.8798
31.915
31.9231
31.8919
31.9192
31.8904
31.8751
31.8766
31.8281
31.8393
31.811
31.7613
31.7985
31.7457
31.7036
31.764
32.142
31.9343
32.1644
32.169
31.9539
32.1517
32.0621
31.9115
32.0251
31.9078
31.835
31.8685
31.7618
31.7547
31.7311
31.6544
31.6874
33.2189
32.2815
33.3098
33.2317
32.3109
33.1149
32.7025
32.1571
32.569
32.2158
31.9559
32.1173
31.8749
31.7769
31.8098
31.655
31.6488
40.1012
33.8912
40.5927
38.7094
33.8617
37.525
34.8049
33.0243
34.2117
33.0227
32.3569
32.7547
32.1773
31.9293
32.0387
31.732
31.6661
58.8617
55.8948
42.9024
44.7744
41.0852
38.4253
38.4739
34.6948
33.3485
34.0182
32.7405
32.2918
32.4674
31.9037
31.7658
85.1438
58.736
50.594
45.4257
37.2272
35.2666
35.8987
33.5561
32.9248
33.0885
32.1653
31.962
128.923
79.7973
72.8199
51.7892
39.8674
37.9136
37.9072
34.469
33.7832
33.7922
32.4759
32.2406
142.936
89.6368
87.4069
55.8109
41.9532
40.4538
39.5681
35.2974
34.6894
34.4451
32.7817
32.5546
138.29
89.9061
90.4767
57.634
43.2747
42.3576
40.6838
35.9244
35.4759
34.9538
33.0367
32.8515
126.345
93.9
94.6545
43.4893
36.0434
33.0885
125.5
183.652
210.422
82.8961
94.6356
81.9694
170.254
267.987
268.761
218.445
239.099
148.105
172.187
243.118
234.157
268.277
264.928
174.532
157.843
191.27
187.773
213.188
209.713
167.61
184.263
180.888
151.372
1508.15
1055.5
1969.61
56.9726
1722.58
1720.54
60.0896
65.7115
73.4539
42.0059
53.4814
47.1863
475.385
582.622
637.431
206.039
263.577
198.98
70.1965
61.6096
91.8596
48.418
55.0817
58.8886
47.5749
51.2369
45.7609
1315.58
1727.53
1726.15
1296.88
1303.91
1054.86
86.3075
81.7111
132.152
57.9931
68.5359
70.9331
62.4834
65.7272
55.9265
880.866
1082.45
1056.93
1411.57
1396.91
1107.22
90.5214
90.0511
143.077
63.7516
75.8266
76.7599
72.9382
74.5644
62.6695
554.871
706.442
680.483
1058.76
965.17
652.493
1816.51
1912.38
2363.09
358.058
662.116
586.761
495.08
478.852
394.152
1007.89
1269.67
1286.88
688.712
735.271
577.52
144.183
174.069
116.887
444.607
325.931
298.56
466.949
445.291
730.165
1142.06
1435.62
1424.2
1719.85
1706.45
1306.72
261.081
266.962
160.66
1009.56
563.675
564.386
586.907
592.168
941.748
868.296
505.567
487.049
564.282
564.873
1001.83
149.827
244.796
258.043
718.521
1203.08
1092.17
1033.05
1010.72
822.654
254.292
246.042
173.351
641.22
495.195
505.675
282.137
295.891
590.882
874.012
573.184
580.571
516.024
526.222
761.572
174.885
263.207
256.824
431.501
530.012
512.154
655.325
632.121
504.533
564.47
1728.07
940.325
1235.86
896.576
95.2608
89.579
137.072
66.1166
77.9811
78.0182
77.4026
77.7997
65.7774
944.172
1625.74
1403.38
1240.35
1187.75
954.44
218.318
115.856
88.4149
271.644
245.182
327.072
90.5078
104.179
134.129
1071.16
1358.18
1297.1
1807.12
1721.16
1353.16
198.454
194.851
159.953
387.622
249.757
237.263
236.633
243.129
376.401
486.107
259.581
275.876
241.389
254.6
472.571
165.823
206.039
202.282
95.7741
109.821
126.615
156.786
62.5009
89.5612
75.1461
100.745
94.9334
64.1322
578.326
817.023
406.329
980.815
378.995
279.023
1219.05
1116.36
1411.88
246.08
340.733
498.637
1350.64
1382.51
1138.83
1097.72
1329.51
1336.72
1213.83
1194.43
968.488
1018.45
1260.73
1235.2
761.125
733.375
572.861
2166.84
1644.91
1722.1
1278.24
1331.09
1719.15
1804.19
1885.32
2542.23
631.374
937.006
861.67
774.289
1010.13
957.42
1338.27
1172.37
811.793
1025.89
1054.17
842.76
754.249
958.939
995.774
1494.54
1485.13
1188.77
1217.33
1521.89
1505.67
600.869
601.365
1000.19
337.002
439.786
440.854
434.912
437.837
335.029
339.056
439.281
437.26
441.11
440.579
339.373
949.414
596.292
599.199
537.845
522.457
879.976
297.235
388.891
399.672
363.931
376.987
288.261
324.541
425.261
430.838
409.466
417.999
319.055
979.99
567.07
552.652
1364.98
1243.8
676.172
742.663
902.441
881.282
1379.99
822.748
792.737
755.166
788.169
1320.5
488.881
609.894
588.596
1550.85
1996.29
1898.73
2693.72
2558.75
1957.36
908.63
2244.41
2833.35
2697.88
110.462
145.601
195.518
127.804
97.9361
303.427
150.304
302.166
395.838
639.871
127.563
187.888
152.598
210.002
202.512
134.12
1682.36
1718.32
1304.64
1065.27
1309.63
1314.96
1132.45
1108.1
903.214
1992.24
1414.48
1454.42
1332.99
1372.37
1894.15
1092.88
1378.3
1353.77
1188.91
1238.37
980.483
377.496
353.642
488.128
205.8
265.261
283.724
227.026
246.17
192.313
256.552
334.532
349.767
301.419
318.344
244.569
698.616
422.65
400.096
1456.73
1446.36
1152.29
1293.31
1679.84
1638.09
1705.54
1270.03
1299.33
1214.8
1242.59
1665.14
805.496
989.176
967.813
473.996
484.625
624.401
304.751
381.155
374.371
394.272
387.789
309.023
555.898
564.919
861.283
332.985
427.171
422.643
434.547
431.158
335.184
320.831
406.575
400.558
417.697
412.324
324.334
773.796
536.563
546.456
568.288
548.668
445.104
994.92
693.794
723.779
640.453
666.483
864.807
1093.23
1421.81
1655.13
1844.22
2305.12
2192.59
2555.84
2423.56
1937.31
658.726
2835.51
2201.19
2319
1987.24
2091.74
2682.71
1295.32
1641.45
1566.12
981.425
1244.82
1358.78
1053.61
1152.42
892.759
1438.09
1491.77
1217.33
622.851
840.221
944.933
608.476
727.646
535.871
1304.14
998.888
858.419
1176.28
1460
1596.04
1319.8
1324.38
1090.39
1488.03
1515.25
2204
952.865
1175.2
1154.83
1323.5
1291.01
1037.69
1510.74
1575.42
2068.92
951.536
1216.66
1170.28
1318.96
1266.14
987.611
1269.67
1672.68
1601.68
1826.66
1749.59
1317.28
1106.67
1427.99
1373.64
1539.36
1482.67
1143.9
2646.47
1961.95
2038.27
2242.08
2360.66
2963
1519.32
1886.86
1797.46
2083.63
1981.4
1593.14
872.995
1087.19
1131.73
866.097
914.052
720.053
1446.45
1157.49
1094.43
1250.62
1213.33
1516.88
1180.22
1475.92
1466.56
1590.23
1548.9
1232.75
1719.24
2418.64
2295.7
2614.15
2521.16
1783.28
1464.78
1973.93
1900.03
2169.29
2059.75
1520.09
2191.48
2094.19
1622.8
1863.84
2420.5
2296.14
48.3027
44.5958
47.6368
38.8684
41.3373
44.2613
36.9739
38.8779
37.1707
77.9125
77.6904
66.3886
310.974
224.107
230.242
213.179
218.502
277.678
236.526
371.108
473.423
223.125
277.887
202.863
1093.1
451.032
301.21
1092.91
1508.63
1829.83
304.119
550.227
462.238
559.378
593.632
316.843
68.9362
63.7384
56.7188
81.9691
72.2785
75.9544
468.222
526.322
446.251
958.656
738.886
680.608
858.81
798.284
1027.49
1231.69
1541.75
1466.97
1708.41
1622.89
1296.63
2498.58
2015.72
2126.25
752.913
592.817
616.023
550.195
570.904
720.714
1213.17
961.256
914.513
1043.6
1001.94
1247.48
611.88
778.193
820.767
1397.97
1871.38
1490.01
1559.64
1362.71
1424.72
1787.9
920.706
1138.97
1094.37
152.317
189.268
208.028
292.508
219.133
193.382
1492.98
1423.66
1121.7
2276.49
1799.31
1889.53
1634.45
1714.53
2164.45
89.5732
104.978
94.5958
135.402
119.172
98.5044
191.888
149.154
175.642
837.817
1045.23
1008.71
1126.2
1084.48
863.642
1801.39
1387.99
1448.29
946.184
924.321
758.048
1519.77
1153.86
1185.32
1090.95
1121.85
1463.23
190.66
254.764
218.638
379.507
312.731
222.336
906.156
546.386
769.191
31.9346
31.9365
31.9678
31.9355
31.9319
31.9657
31.9263
31.9195
31.9596
31.9121
31.905
31.9527
31.8985
31.893
31.9471
31.8885
31.8836
31.9431
31.8805
31.8782
31.9407
31.9062
31.9084
31.9202
31.9094
31.9077
31.9202
31.8961
31.8916
31.9075
31.8736
31.8683
31.8889
31.8508
31.8464
31.8713
31.7813
31.7714
31.8265
31.7623
31.7564
31.8166
31.7517
31.7454
31.8086
31.8876
31.8923
31.8895
31.8925
31.8882
31.8868
31.8648
31.8543
31.8587
31.8194
31.8072
31.8187
31.7721
31.7614
31.78
31.6915
31.6705
31.719
31.6538
31.6422
31.698
31.6331
31.6229
31.6832
31.9927
32.0011
31.9527
31.993
31.9805
31.9392
31.9228
31.8992
31.8754
31.8242
31.7994
31.7939
31.73
31.7099
31.7189
31.6328
31.5902
31.6272
31.5608
31.5394
31.5892
31.5228
31.5068
31.5637
32.525
32.5437
32.3263
32.4712
32.4163
32.2478
32.2185
32.151
32.0566
31.9584
31.9018
31.8603
31.7556
31.7154
31.7066
31.615
31.5374
31.5601
31.4886
31.4515
31.4933
31.4232
31.3986
31.4513
35.209
35.2544
34.0779
34.4717
34.1118
33.4453
33.175
32.9317
32.6552
32.3717
32.2302
32.1187
31.9016
31.8185
31.7811
31.6579
31.5169
31.5226
31.4402
31.3812
31.4141
31.3359
31.2991
31.3474
46.4947
46.7453
43.3122
35.9141
34.9871
34.2951
33.2981
32.9474
32.7235
32.2263
32.0614
31.9859
31.7754
31.5354
31.521
31.4157
31.328
31.3526
31.2614
31.2087
31.2524
71.7752
64.1872
59.5735
41.7855
39.0918
37.8874
34.9052
34.159
33.8122
32.7594
32.4643
32.3497
31.9643
31.5934
31.56
31.4143
31.2892
31.307
31.198
31.1273
31.1667
121.017
101.52
97.6397
48.8823
44.1469
42.9209
36.9255
35.686
35.2954
33.4391
32.9822
32.8467
32.1951
31.6785
31.6337
31.43
31.2611
31.2739
31.1433
31.0533
31.0892
141.746
119.369
118.253
54.1023
48.1689
47.3043
38.7995
37.1461
36.8038
34.1317
33.5192
33.3884
32.4274
31.7717
31.7253
31.454
31.2407
31.2503
31.0947
30.9856
31.0187
140.425
120.224
120.729
56.9606
50.6223
50.1535
40.1987
38.2832
38.0372
34.7217
33.987
33.8802
32.6236
31.8532
31.815
31.4753
31.2221
31.2315
31.0499
30.9222
30.9535
129.583
111.599
112.891
57.9186
51.6976
51.5351
41.0346
39.0016
38.8607
35.1399
34.3279
34.256
31.8847
31.2115
30.8916
45.7278
93.3992
88.8675
104.696
116.854
115.161
137.296
121.09
121.296
142.599
335.61
406.327
393.52
646.535
629.248
785.228
1023.25
814.78
815.737
749.51
756.413
925.2
841.107
677.11
662.338
815.798
813.787
1024.73
432.076
442.408
558.845
896.761
734.569
742.258
381.479
114.259
115.69
134.308
155.103
127.008
110.811
410.785
337.599
346.109
285.704
292.434
355.292
514.15
411.724
421.803
354.819
363.768
446.722
61.4851
67.5261
69.5039
71.6475
72.3714
64.5299
632.547
451.617
340.146
793.347
797.013
982.85
963.285
785.043
789.065
746.653
736.704
900.532
936.418
767.681
756.63
861.043
841.738
701.187
1509.57
1181.68
1228.75
923.782
955.626
1211.97
506.107
494.795
531.451
635.332
535.616
519.832
682.105
690.81
835.033
797.898
664.754
673.198
1072.22
866.002
892.687
55.4396
51.7989
55.2177
327.283
273.115
278.993
149.188
177.568
174.35
53.3658
58.8837
54.8633
98.0618
87.9916
96.222
382.684
463.338
448.525
153.259
170.959
139.582
256.695
204.232
230.852
31.8917
31.9023
31.8922
31.8988
31.8959
31.9008
31.9005
31.8941
31.9219
31.91
31.9103
31.8903
31.8976
31.8998
31.8895
31.894
31.8861
31.917
31.9045
31.9012
31.8668
31.8779
31.884
31.8641
31.871
31.8588
31.9014
31.8854
31.8802
31.8329
31.8495
31.8566
31.8355
31.8422
31.8242
31.8825
31.8618
31.8568
31.8005
31.8227
31.8287
31.8117
31.8168
31.7935
31.8663
31.8412
31.8374
31.8888
31.8809
31.9211
31.902
31.8967
31.9043
31.9045
31.9238
31.8916
31.8946
31.8947
31.9122
31.896
31.9015
31.8786
31.8884
31.9025
31.8817
31.882
31.874
31.8613
31.8548
31.8674
31.8273
31.8414
31.845
31.8493
31.8432
31.8314
31.794
31.7987
31.8131
31.7709
31.7847
31.7774
31.8085
31.7952
31.7834
31.7308
31.745
31.7577
31.7219
31.7331
31.7166
31.7717
31.7515
31.7423
32.0453
31.9789
32.1764
32.0726
32.0626
32.0698
32.0748
32.1777
31.9554
32.0037
32.0009
32.127
32.0409
32.0582
31.9933
32.0189
32.0967
31.9267
31.9642
31.9446
31.9864
31.9352
31.9651
31.873
31.9043
31.9472
31.8556
31.8746
31.8494
31.8307
31.8112
31.8418
31.7539
31.7819
31.7951
31.774
31.7753
31.7519
31.7032
31.7045
31.728
31.6628
31.683
31.6777
31.7027
31.6914
31.6739
32.7788
32.4835
33.3408
32.8629
32.8389
32.8058
32.8502
33.3123
32.3257
32.5391
32.5136
32.9803
32.651
32.7367
32.463
32.558
32.8399
32.2048
32.354
32.2867
32.4413
32.2771
32.369
32.1051
32.1882
32.3236
32.006
32.0845
32.0197
32.0286
31.9572
32.0278
31.8323
31.8921
31.948
31.8172
31.8491
31.8
31.7519
31.7303
31.7785
31.6486
31.6871
31.7005
31.6763
31.6792
31.6467
36.6956
34.964
40.5845
37.2044
37.1358
36.3309
36.8672
39.7715
34.0134
35.1088
34.8227
36.468
35.0716
35.6924
34.0312
34.5124
35.547
33.2295
33.7675
33.4529
33.734
33.2857
33.6261
32.7536
32.9981
33.344
32.4978
32.7194
32.534
32.5303
32.3663
32.5447
32.0793
32.2124
32.3397
32.0186
32.1059
31.9969
31.9204
31.8648
31.9642
31.7043
31.7787
31.8189
31.7199
31.7458
31.6825
59.0063
51.6275
51.413
50.1037
51.0926
57.7209
43.1368
46.4755
45.9565
36.7891
35.8191
37.0882
34.1828
34.8875
35.5841
33.7692
34.2823
33.7339
33.4927
33.2038
33.6357
32.5729
32.8559
33.0757
32.4886
32.6603
32.4236
32.2434
32.1471
32.3399
31.8516
31.9862
32.0579
31.8669
31.9226
31.8056
74.0854
69.067
78.3977
55.8624
61.0232
64.9461
41.6448
40.356
43.5989
36.5481
38.1267
39.0535
36.3674
37.2245
35.8903
34.906
34.5254
35.393
33.3356
33.858
34.1472
33.3179
33.5805
33.1244
32.7141
32.5862
32.9202
32.0934
32.3149
32.4114
32.1374
32.2233
32.0254
108.17
105.041
125.222
77.6432
89.3652
91.94
83.376
86.506
75.346
46.3446
45.2927
50.4136
39.2456
41.7484
42.5547
39.9817
40.8868
38.5911
36.4446
36.0709
37.4258
34.2428
35.0404
35.3311
34.444
34.7434
34.0132
33.2546
33.1186
33.6165
32.3966
32.719
32.8234
32.5119
32.6149
32.3179
120.822
120.229
142.511
89.0732
102.837
103.51
100.861
101.955
88.3316
49.5894
48.9296
55.0303
41.5014
44.6141
45.1649
43.3043
43.9936
41.0011
37.7645
37.4674
39.2005
35.106
36.1388
36.3781
35.6123
35.8824
34.9023
33.7663
33.6458
34.2928
32.7084
33.1267
33.2212
32.9266
33.028
32.6324
118.9
119.61
139.411
51.3063
51.0032
57.3496
43.0157
46.4143
46.704
45.6498
46.065
42.7113
38.694
38.5017
40.4586
35.7902
36.9835
37.145
36.5995
36.8019
35.6409
34.1749
34.0852
34.8434
32.9795
33.4739
33.5459
33.3108
33.3954
32.9177
46.9339
47.111
43.6619
37.2871
37.4091
36.1475
33.6114
33.67
33.1356
192.959
159.373
152.571
172.235
165.884
201.898
268.626
217.766
216.86
218.539
218.277
268.867
225.937
183.913
178.204
194.091
189.189
232.838
240.159
202.187
203.923
267.471
218.155
218.459
216.831
217.56
266.314
50.2709
44.8266
44.1707
41.7468
51.3293
47.2667
48.5026
44.3868
45.5485
49.0044
67.3894
76.4306
80.0155
68.826
72.7046
64.5558
98.4041
84.0792
79.1308
84.9643
97.997
99.548
94.2251
96.2234
83.4579
134.979
113.173
110.881
90.4766
104.41
104.408
103.981
104.292
90.328
142.958
121.344
121.185
1026.35
823.986
845.267
784.012
802.849
994.952
433.866
419.786
346.437
635.469
511.633
530.438
476.812
493.826
610.338
154.282
131.738
124.745
145.714
138.676
164.226
759.647
610.722
591.119
263.485
212.577
210.563
215.688
214.267
265.433
809.152
812.495
1017.61
564.142
633.199
637.133
624.417
629.049
564.327
933.704
762.989
769.056
703.577
690.749
855.386
564.225
609.546
617.993
585.179
598.754
564.338
1016.81
809.321
802.094
249.901
201.908
198.191
208.115
205.239
254.329
1163.72
920.69
950.042
868.875
893.196
1126.84
251.659
209.033
210.586
205.692
207.364
248.898
286.74
353.715
346.847
367.545
360.642
291.348
574.371
452.842
463.4
717.908
726.542
885.9
749.567
630.557
638.591
261.302
214.748
215.834
212.105
213.458
259.137
460.759
135.787
117.229
118.092
1547.24
1223.97
1287.49
1115.94
1165.1
1472.81
169.287
146.932
185.707
105.216
120.954
136.559
96.2267
107.592
96.1692
114.048
105.28
99.4984
118.015
111.41
123.983
317.137
326.698
399.086
285.068
279.159
233.626
365.689
300.153
308.068
391.995
401.812
499.977
264.643
325.372
318.286
339.684
332.531
270.172
245.542
297.801
291.331
311.278
304.468
250.049
459.454
372.973
382.362
63.9442
58.373
81.8454
71.3661
79.7511
76.0316
88.8386
68.7536
67.3273
61.97
84.3551
74.5092
77.3515
68.8822
70.1496
78.43
101.955
83.8508
82.7387
80.4879
82.5511
99.2303
64.4354
71.8521
70.9311
658.356
505.045
451.859
621.872
561.946
737.841
718.536
578.967
803.999
319.353
380.583
492.152
405.234
366.689
419.729
910.543
748.307
765.085
716.45
731.172
885.297
1278.45
1029.7
1068.89
959.555
991.034
1222.65
990.97
801.325
805.666
774.957
779.991
956.528
890.609
726.46
715.372
792.547
779.838
956.199
1323.82
1035
1062.15
982.597
1008.66
1283.89
687.845
823.037
805.239
1076.23
1125.16
1443.42
974.501
943.016
773.724
1264.79
992.484
1031.15
158.824
130.054
124.93
151.414
145.613
179.215
110.987
229.575
182.062
175.301
147.014
151.261
215.589
164.182
161.819
160.152
162.865
211.48
571.64
552.861
666.774
848.18
700.042
708.999
647.469
655.969
785.868
816.935
839.207
1031.82
51.0922
48.614
45.9124
262.256
267.251
318.779
84.8792
80.0285
73.8086
31.8763
31.8733
31.9387
31.833
31.829
31.8573
31.7338
31.7247
31.7489
31.6575
31.6418
31.6591
31.6178
31.5914
31.5999
31.6276
31.5806
31.5777
31.7071
31.6246
31.607
31.8624
31.7291
31.6965
32.077
31.882
31.84
32.3134
32.0539
32.0108
32.5319
32.212
32.1758
32.6998
32.3307
32.3064
40.5463
42.7817
42.0969
167.89
170.458
158.188
153.351
161.522
164.913
38.2105
40.7456
38.7388
38.6715
43.6451
41.754
42.2983
53.6038
57.2713
53.1667
90.1657
103.613
103.167
104.248
103.992
90.3497
109.182
110.348
127.943
198.619
200.303
237.101
159.521
172.612
174.655
153.301
157.681
151.645
102.611
102.065
89.2704
46.257
47.2143
50.2746
76.5881
78.9208
86.8857
31.7748
31.8011
31.8066
31.6795
31.7007
31.7116
31.6122
31.6252
31.6437
31.5801
31.5835
31.6142
31.5951
31.5851
31.6399
31.6693
31.6441
31.7383
31.801
31.7629
31.9115
31.9677
31.9241
32.1356
32.1366
32.0962
32.3713
32.2775
32.2468
32.5793
38.7632
38.7583
40.6522
4989.96
13796.5
39429.9
9405.04
19491.3
33083.3
8616.35
16555.3
30233.7
5084.51
13870.9
39723.5
4094.02
12507.6
35994.4
5663.59
16282.4
39967.4
5707.02
16325.6
39922.6
5912.89
16570.2
39774.6
7855.35
18839.2
37343.6
7638.04
18558.9
37677.8
7878.56
18852.8
37228.9
8146.44
19272.8
36823.8
9514.8
19772.5
33389.8
9481.84
19682.4
33304.4
8951.65
17904.2
31750.4
8620.86
16441.5
29944.2
5535.55
16101.2
40080.2
5382.26
15603.6
40264.5
5529.94
16027.2
40168.3
5379.3
15537.9
40299.1
6172.56
16887.2
39494.7
5980.43
16665.8
39711.4
6274.37
17037.7
39412
7352.96
18216.2
38077.1
7571.83
18471.1
37791.9
7256.43
18105.5
38169
8191.21
19354.6
36699.2
8318.55
19428.1
36326.4
8789.53
20069.2
35627.4
8474.9
19596.6
36218.7
8699.66
19927.3
35775.7
8989.71
18000.4
31829.6
8629.67
16372.1
29545.1
4955.76
13875.3
39257.8
9445.29
19560.4
33152
8635.7
16532.4
30144.9
9304.98
20609.7
34204.4
9383.95
19311.2
33024
9321.24
19153.9
33047.2
2838.59
5755.09
28970.7
8614.09
16395.2
29776.2
8630.09
16388.3
29665.1
5613.08
16220.2
40002.5
5543.78
16119.8
40036.6
5768.77
16399
39870.3
5806.95
16408.6
39829.5
7787.43
18742.4
37469.7
7657.11
18565.1
37580
8006.07
19027.9
37104.5
8098.51
19180.4
36968.9
4224.06
13458
36981.1
4400.9
13262.6
38153.2
4516.7
13243.2
38481.7
9466.99
19618.4
33226.6
8915.85
17791.7
31679.6
8872.9
17600
31495.3
8910.78
17734
31613.2
6191.36
29538.4
29505.6
29517.6
8638.32
16495.6
30045.4
5364.28
15589.4
40244.1
5495.7
15899.8
40214.4
5364.98
15447.6
40322.4
6115.65
16835.9
39563.8
6033.15
16724.5
39640.5
6333.79
17101.8
39334.6
6408.23
17195.5
39251.1
7427.27
18304.4
37979.8
7448.5
18307.1
37891.1
7234.91
18100.5
38249.8
7162.05
18002.5
38353.7
8293.37
19473.2
36420.1
8830.99
20164.3
35485.3
8565.02
19726.6
36083.4
8617.96
19812.5
35925.3
9295.05
19003.6
32836.3
9311.54
19028
32926.7
9304.33
19054.9
32994.6
8773.12
17210.3
31171
8749.24
17121.9
31082.9
3332.65
5931.15
29590.2
3433.4
7058.07
30852.4
3725.04
8580.8
32136.7
8668.19
16703.2
30364.4
9450.05
20021
33687.8
9443.78
19901.7
33648.4
5263.6
14683.3
40297.9
9435.29
20596.2
34030.2
9374.23
20596.1
34118.2
2546.04
5796.78
29263.1
2662.29
5789.39
29180.1
8733.55
16963.4
30813.1
8610.75
16314.2
29359
8602.26
16253.3
29251.2
6714.92
17537.5
38862
6464.05
17190.8
39171.1
6566.56
17358.8
39104.2
6758.27
17523.5
38798.2
7100.15
17925.1
38452
7001.37
17821
38581.6
9115.01
18428.1
32102
2485.93
5838.64
29386.7
6127.01
29556.8
8694.77
16864.3
30656.1
9487.12
20333
33764.5
6147.06
29564
5261.42
14185.8
40129.1
5349.45
14407.8
40192.1
8269.34
19458.1
36515.7
9426.57
20432.6
33847.7
9210.44
18738.1
32492.3
9046.71
18298.3
32071.9
9204.11
18699.7
32407.3
2987.05
5711.77
29221.3
8802.13
17316
31294.5
8732.41
17033.7
30997.4
8691.13
16771.7
30458.6
4824.89
13627.2
39032.3
9493.24
20162.8
33664.1
9468.3
19879.8
33603.1
9517.22
19814.6
33482.8
5190.96
14067.9
39857
5371.9
14642.3
40256.2
5290.3
14765.8
40322.1
5328.73
14896.2
40353.7
8969.93
20294.4
35152.1
8845.76
20172.3
35284.6
9462.17
20572.7
33941.1
9064.5
20414
35006.7
9125.16
20505.6
34844.5
4001.1
11667.5
34792.5
8835.99
17492.2
31420.2
8796.4
17360.1
31355
8743.33
17004.1
30907
6683.69
17513.3
38938.7
6623.26
17433.4
39030.5
6871.16
17658.8
38729.9
6910.63
17675.5
38657.6
2475.63
6049.41
29553.2
2474.77
6016.13
29508.2
8694.79
16820.3
30559.3
4281.45
13306.4
37403.6
9506.16
20257.7
33706.4
5209.35
14051.5
39964.9
5390.03
14565.9
40238.4
5362.43
15172
40350.5
5373.81
15088.8
40361.5
5326.68
15211.2
40333.3
5316.57
15301.4
40333.6
9459.08
20518.1
33867.1
9230.51
20595.5
34567.5
9157.26
20531.4
34698
9286.12
20652.1
34445.1
9306.18
20678.1
34331.3
9258.17
18837.1
32577.8
9302.94
18914.6
32675.6
9012.89
18127.6
31953.1
9018.12
18187.1
32013.2
9180.92
18651.9
32321.8
9165.42
18524.6
32180
3869.72
9875.96
33074
)
;

boundaryField
{
    topAndBottom
    {
        type            slip;
    }
    inlet
    {
        type            fixedValue;
        value           uniform 32;
    }
    outlet
    {
        type            inletOutlet;
        inletValue      nonuniform List<scalar> 0();
        value           nonuniform List<scalar> 0();
    }
    wing
    {
        type            omegaWallFunction;
        value           nonuniform List<scalar> 
162
(
39429.9
33083.3
30233.7
39723.5
35994.4
39967.4
39922.6
39774.6
37343.6
37677.8
37228.9
36823.8
33389.8
33304.4
31750.4
29944.2
40080.2
40264.5
40168.3
40299.1
39494.7
39711.4
39412
38077.1
37791.9
38169
36699.2
36326.4
35627.4
36218.7
35775.7
31829.6
29545.1
39257.8
33152
30144.9
34204.4
33024
33047.2
28970.7
29776.2
29665.1
40002.5
40036.6
39870.3
39829.5
37469.7
37580
37104.5
36968.9
36981.1
38153.2
38481.7
33226.6
31679.6
31495.3
31613.2
29538.4
29505.6
29517.6
30045.4
40244.1
40214.4
40322.4
39563.8
39640.5
39334.6
39251.1
37979.8
37891.1
38249.8
38353.7
36420.1
35485.3
36083.4
35925.3
32836.3
32926.7
32994.6
31171
31082.9
29590.2
30852.4
32136.7
30364.4
33687.8
33648.4
40297.9
34030.2
34118.2
29263.1
29180.1
30813.1
29359
29251.2
38862
39171.1
39104.2
38798.2
38452
38581.6
32102
29386.7
29556.8
30656.1
33764.5
29564
40129.1
40192.1
36515.7
33847.7
32492.3
32071.9
32407.3
29221.3
31294.5
30997.4
30458.6
39032.3
33664.1
33603.1
33482.8
39857
40256.2
40322.1
40353.7
35152.1
35284.6
33941.1
35006.7
34844.5
34792.5
31420.2
31355
30907
38938.7
39030.5
38729.9
38657.6
29553.2
29508.2
30559.3
37403.6
33706.4
39964.9
40238.4
40350.5
40361.5
40333.3
40333.6
33867.1
34567.5
34698
34445.1
34331.3
32577.8
32675.6
31953.1
32013.2
32321.8
32180
33074
)
;
    }
    front
    {
        type            empty;
    }
    back
    {
        type            empty;
    }
    procBoundary2to0
    {
        type            processor;
        value           nonuniform List<scalar> 
58
(
31.9647
41.8347
86.9718
656.477
287.177
773.646
1278.05
534.192
1038.27
1278.05
31.8776
31.9301
31.9127
31.8932
31.8724
32.1103
31.9191
33.0796
32.2384
39.6727
33.6652
54.0701
57.4948
75.7904
120.422
108.796
228.293
136.086
385.135
31.9301
44.6922
31.8865
31.8983
31.8784
31.8722
32.0213
31.9601
32.6886
32.4224
36.0013
37.9984
34.5757
48.5871
54.0701
61.9327
67.8136
108.796
187.108
157.423
37.9984
29483.7
2481.23
6235.62
6222.57
6235.62
2495.01
2495.01
2496.92
)
;
    }
    procBoundary2to3
    {
        type            processor;
        value           nonuniform List<scalar> 
51
(
31.4848
31.0048
30.642
30.861
30.5122
30.4416
30.4027
2486.87
260.661
309.695
2023.57
677.012
260.661
144.901
3045.8
1086.87
3714.64
124.736
93.0379
543.709
1645.93
862.813
1086.87
66.2805
77.3734
208.108
1335
57.9447
51.7997
41.1624
39.1176
35.2151
34.3905
31.9082
31.1994
30.861
370.258
171.228
43.795
47.239
36.2362
37.5114
33.1767
33.7213
445.757
32.7307
32.3532
108.038
8578
16155.7
29155.9
)
;
    }
}


// ************************************************************************* //
