/*--------------------------------*- C++ -*----------------------------------*\
| =========                 |                                                 |
| \\      /  F ield         | OpenFOAM: The Open Source CFD Toolbox           |
|  \\    /   O peration     | Version:  v2012                                 |
|   \\  /    A nd           | Website:  www.openfoam.com                      |
|    \\/     M anipulation  |                                                 |
\*---------------------------------------------------------------------------*/
FoamFile
{
    version     2.0;
    format      ascii;
    class       volScalarField;
    location    "0";
    object      p;
}
// * * * * * * * * * * * * * * * * * * * * * * * * * * * * * * * * * * * * * //

dimensions      [0 2 -2 0 0 0 0];


internalField   nonuniform List<scalar> 
3259
(
111.424
-36.6779
-179.056
-304.386
-406.934
-486.199
-544.517
-585.651
-619.817
-635.792
-644.991
-649.315
134.691
-19.5107
-168.742
-299.602
-405.647
-486.703
-553.714
-592.392
-625.97
-640.122
-648.143
-651.889
149.727
-27.0164
-194.684
-334.366
-440.738
-517.1
-579.515
-611.654
-640.366
-650.56
-656.082
-658.627
180.203
-43.4813
-245.578
-397.97
-502.079
-569.105
-619.521
-640.853
-661.235
-665.708
-667.661
-668.483
237.555
-85.4784
-346.358
-510.115
-598.234
-642.207
-672.415
-678.237
-685.753
-682.975
-680.596
-679.329
353.774
-211.527
-553.912
-690.26
-731.221
-735.954
-734.419
-719.907
-710.783
-699.814
-692.686
-689.147
710.572
-662.392
-951.063
-951.806
-898.036
-841.642
-797.566
-760.396
-732.505
-713.419
-701.677
-695.945
-2055.27
-1569.95
-1261.95
-1068.52
-940.909
-851.19
-792.543
-746.614
-720.752
-705.218
-697.681
-3488.19
-2078.58
-1501.2
-1192.79
-1009.16
-882.989
-809.039
-749.261
-719.132
-701.25
-692.58
-3408.05
-2146.16
-1556.3
-1224.89
-1025.4
-883.901
-804.815
-737.984
-706.861
-688.457
-679.501
-2633.52
-1854.4
-1426.85
-1157.9
-984.591
-851.721
-778.87
-712.49
-683.657
-666.551
-658.16
-1758.08
-1407.98
-1186.2
-1019.44
-898.073
-791.926
-733.856
-674.523
-650.606
-636.262
-629.137
-3700.04
-2146.25
-3706.49
-3786.94
-2862.65
-3626.28
-1915.59
-2742.59
-1799.92
871.81
-1839.22
-488.518
-4613.27
-2476.86
-3402.46
-2193.39
-1675.59
-5216.87
-5311.87
-3473.18
-2395.57
-2301.36
-3977.83
-4663.6
-2741.76
-2109.93
-2359.24
-2685.04
-3238.82
-1571.9
-1499.53
-2008.97
-5304.58
-4684.62
-3234.01
-4495.3
-5161.93
-4703.07
-5197.15
-3794.94
-5077.25
-4618.39
-5170.67
-5095.83
-3814.23
-3319.79
-3925.01
-3213.35
-3828.72
-3249.88
-4579.13
-3919.22
-3325.5
-2082.92
-2607.95
-1535.22
-1570.07
-1429.07
-1527.98
-5266.73
-2708.05
-3205.76
-1865.84
-1608.23
-1995.48
-1941.55
-1878.37
-2139.56
-2404.97
-4330.4
-3004.73
-2181.19
-2468.56
-2267.8
-2562.89
-2054.35
-3172.12
-2637.58
-2386.53
1423.59
-2081.37
-312.117
1233.83
-5402.44
-3932.09
-5292.42
-2649.41
-5113.8
-3609.74
-5278.57
-5287.75
-4307.04
-4353.69
-2849.01
-3144.91
-2918.52
-3122.21
-2823.55
-3491.97
-3167.6
-2997.79
-1548.83
-1795.79
-1872.67
-5130.04
-5093.62
-4943.69
-4973.8
-4882.28
-4330.7
-4424.2
-4142.6
-4289.76
-4851.96
-5171.35
-4469.96
-4408.18
-4445.06
-4473.92
-5162.51
-3568.25
-3523.44
-3614.35
-2778.86
-2488.51
-2380.68
-2508.93
-2800.56
-1882.11
-1466.95
-2990.53
-2069.5
-2207.37
3958.9
-2238.65
-2387.9
2320.32
-2212.61
-67.6303
1769.94
-5258.08
-5757.96
-5720.94
-5314.99
-4117.48
-4303.99
-4130.33
-4912.12
-4776.79
-4538.02
-5245.91
-5699.55
-5773.77
-4944.03
-4101.8
-3762.33
-4369.28
-4186.38
-4974.43
-4813.7
-5076.18
-4959.45
-5113.43
-4076.41
-3924.22
-3790.66
-3571.9
-3333.98
-3548.09
-4285.92
-3897.63
-4085.44
-3619.82
-3830.13
-4240.74
-2305.84
-2448.37
-2176.58
-1699.55
-4561.78
-3149.49
-4177.89
-3320.26
-3375.08
-1900.38
-2027.21
-2046.06
2968.68
3631.26
2760.25
-2540.57
-2391.87
-2343.84
-2400.14
-2559.43
-5631.99
-4971.22
-4483.64
-5407.41
-5103.98
-4292.93
-3601.05
-4283.77
-5612.99
-5572.9
-5262.36
-5310.46
-5698.13
-5634.43
-4514.64
-4357.4
-4165.99
-4411.15
-4580.38
-4186.56
-4361.81
-4623.12
-4492.88
-4733.31
-4562.52
-2978.14
-3029.94
-2998.96
-2915.88
-3038.03
-3351.78
-3250.59
-3380.83
-3079.19
-3207.45
-3302.86
-1752.31
-1726.22
-1855.73
-5640.56
-5672.33
-5220.7
-5796.91
-5796.44
-5792.43
-5634.11
-5495.75
-5803.78
-5666.74
-4951.44
-5480.35
-5626.08
-5211.37
-5112.47
-4848.23
-5076.9
-5348.74
-5235.26
-3594.56
-3730.06
-3424.18
-3552.55
-3649.03
-3972.85
-4127.43
-3775.97
-3924.63
-2569.29
-2635.21
-2697.19
-2556.87
-2743.94
-2675.2
-1773
-1798.91
-1469.89
-925.506
-2194.35
-2246.79
-1472.8
-2257.3
-1983.04
-1518.72
-1459.42
3018.47
3375.02
3964.43
-1961.92
292.734
2416.33
-1070.8
-616.107
-2071.23
-4292.04
-4864.45
-5171.14
-1552.39
-1682.44
-1700.38
-2096.03
-1854.69
-1787.9
-5261.81
-5433.04
-4907.32
-1550.53
-1632.81
-1647.64
-1559.61
-1509.31
-5132.54
-3237.55
-1920.3
-1979.26
-1986.98
-2188.92
-2057.49
-2017.1
-3618.04
-3092.8
-3659.37
-2303.6
-2361.21
-2228.02
-1090.68
-446.119
-2229.01
-5455.73
-5207.68
-5033.39
-5745.54
-5685.15
-2892.01
-2922.05
-2876.17
-3161.21
-3152.53
-3125.81
-2750.34
-2872.19
-2951.86
-3459.95
-3410.08
-3454.25
-1864.78
-1841.54
-1871.61
-3747.63
-3799.87
-3495.03
-3542.22
-3567.22
-3852.1
-3873.5
-3741.8
-3876.67
-3735.41
-1879.79
-2108.89
-2143.34
-2232.12
-2185.89
-2165.49
3785.61
4408.8
3472.9
-2286.51
-2314.47
-2245.35
-2406.05
-2354.49
-2341.13
-1052.39
-149.987
-2035.06
-5499.73
-5506.48
-5456.21
-5476.41
-5746.18
-5611.32
-5618.93
-5592.33
-5603.28
-5735.09
-4872.67
-4796.03
-4838.02
-4702.32
-4752.42
-4828.74
-5746.17
-5589.2
-5556.71
-5623.76
-5615.01
-5774.89
-5033.85
-4956.27
-4994.48
-4880.58
-4919.05
-4999.57
-5423.51
-5441.3
-5351.24
-5388.96
-1560.44
-1709
-1700.28
-1687.84
-1564.43
-4805.78
-5087.6
-4889.85
-3960.99
-3742.01
-2891.89
-4607.11
-4301.11
-3275.49
-3403.4
-2041.32
-2028.09
-2038.56
3206.42
-2467.32
-2412.61
-2507.34
-5484.9
-5361.05
-5550.92
-5311.92
-5540.49
-5625.82
-5658.04
-5604.27
-5588.93
-5494.42
-5509.74
-5494.53
-5482.01
-5570.42
-5672.57
-5558.44
-5576.74
-5526.35
-5542.01
-5653.77
-4465.54
-4392.96
-4441.5
-4463.44
-4525.79
-4237.33
-4261.94
-4227.54
-4310.48
-4673.61
-4713.78
-4678.72
-4593.81
-4649.14
-4490.27
-4541.86
-4618.51
-3015.07
-2941.81
-2927.6
-2956
-2890.69
-2941.71
-3082.36
-3109.52
-3058.76
-3315.51
-3357.31
-3386.33
-5650.89
-5479.39
-5460.93
-5522.8
-5499.15
-5663.23
-5804.42
-5796.55
-5606.58
-5779.29
-5784.55
-5727.06
-5772.71
-5566.53
-5789.94
-5805.35
-5850.04
-5726.14
-5182.13
-5097.49
-5127.18
-5029.29
-5063.23
-5144.37
-5305.41
-5231.6
-5301.68
-5154.38
-5185.8
-5266.69
-3678.54
-3706.99
-3622
-3592.52
-3627.36
-4018.48
-4049.94
-4009.61
-4164.41
-4100.67
-4069.09
-3818.24
-3854.37
-3820.91
-3964.57
-3919.98
-3872.08
-2653
-2634.48
-2684.03
-2544.79
-2589.77
-2624.25
-2806.43
-2841.6
-2726.52
-2739.76
-2751.27
-1822.35
186.089
171.209
144.741
18.1367
18.3284
-24.8801
-147.662
-133.564
-186.715
-291.856
-269.761
-323.692
-406.006
-382.07
-430.075
-490.493
-468.968
220.437
192.45
170.699
14.2967
17.5098
-37.8719
-184.911
-154.643
-229.361
-345.546
-302.399
-378.548
-461.022
-417.023
-483.566
-539.105
-500.341
287.543
233.316
219.553
0.730962
12.3353
-70.8453
-261.243
-199.21
-314.377
-442.192
-364.776
-475.682
-552.399
-479.845
-571.069
-611.981
-555.284
425.922
312.814
315.697
-51.9539
-6.43888
-164.861
-425.08
-290.811
-487.178
-613.019
-476.793
-638.271
-685.439
-581.617
-694.375
-708.842
-633.967
777.668
483.169
646.866
-298.593
-83.0169
-488.026
-788.586
-491.035
-829.747
-877.392
-668.977
-878.663
-863.139
-725.832
-854.431
-825.052
-736.59
996.889
-119.545
129.852
-965.71
-1017.44
-797.932
-1405.57
-1233.98
-960.519
-1185.27
-1062.12
-912.695
-1027.91
-942.049
-855.107
-2775.87
-2294.03
-1828.07
-1987.83
-1557.44
-1325.35
-1455.93
-1227.03
-1109.35
-1169.11
-1032.57
-968.407
-3602.74
-2938.42
-2803.2
-2170.87
-1679.98
-1611.09
-1561.71
-1294.13
-1254.75
-1226.63
-1068.39
-1047.4
-3152.95
-2705.44
-2853.2
-1949.13
-1570.41
-1672.15
-1473.01
-1242.96
-1292
-1182.81
-1038.43
-1066.94
-2304
-2078.24
-2324.75
-1524.97
-1312.04
-1515.61
-1252.16
-1100.75
-1214.22
-1058.59
-952.584
-1021.4
-1439.93
-1432.08
-1609.91
-1236.25
-1056.39
-924.834
-3579.98
-3982.23
-4169.41
-2251.52
-2627.78
-2451.51
-3776.05
-4137.6
-4006.47
-4208.13
-4282.25
-3844.55
-2981.16
-3189.56
-2986.61
-3953.24
-3782.78
-3534.21
-2031.64
-2090.78
-1966.67
-2859.85
-2728.54
-2623.73
-1843.15
-1720.3
-1685.03
3800.08
4209.1
4742.56
1320.12
1108.83
2624.93
-1549.46
-1525.92
-1875.41
-42.1018
-393.539
-880.006
-4503.66
-4675.64
-4776.87
-2560.91
-3043.04
-2874.4
-2745.14
-2417.4
-2975.02
-2048.48
-2274.53
-2453.58
-1800.12
-2051.97
-1872.45
-5234.69
-5364.94
-5346.12
-5460.17
-5458.25
-5315.57
-2902.72
-2934.32
-3594.36
-2400.57
-2684.69
-2667.98
-2581.61
-2657.68
-2370.17
-4019.89
-4076.6
-4027.19
-4747.04
-4705.32
-4623.08
-2413.65
-2628.56
-3054.95
-2211.54
-2419.71
-2293.17
-2613.75
-2528.66
-2296.21
-2762.64
-2813.49
-2733.15
-3345.1
-3217.98
-3158.06
-1566.87
-1614.1
-1623.55
-1716.38
-1774.82
-1535.76
-2037.42
-1961.31
-1935.39
-5290.52
-5446.28
-5458
-4862.54
-4941.69
-4775.04
-3571.7
-3901.05
-3424.96
-4634.1
-4353.7
-4215.92
-4824.14
-4780.31
-5100.54
-4740.92
-4826.09
-4787.64
-5327.41
-5305.16
-5174.63
-4255.29
-4173.51
-3770.93
-5003.88
-4718.39
-4752.93
-4435.05
-4500.09
-4725.3
-5185.81
-4875.73
-4855.76
-4778.06
-4788.16
-5135.1
-3769.82
-4286.95
-4271.44
-3402.32
-3515.12
-3387.96
-3977.04
-3928.53
-3882.27
-3458.1
-3257.52
-3098.18
-3741.52
-3650.78
-3731.93
-3050.93
-3262.95
-3489.58
-4459.22
-4294.13
-4366.22
-3814.25
-3897.72
-4059.43
-3433.03
-3719.48
-3525.82
-2156.87
-2189.82
-2113.58
-2653.32
-2574.26
-2531.45
-1456.28
-1521.41
-2773.01
-3419.06
-3216.62
-1792.76
-1987.17
-2193.65
-1741.86
-1852.2
-1695.35
-2153.88
-2005.88
-1871.7
-1961.08
-2014.33
-1887.76
-2155.56
-2114.35
-2099.12
-3377.36
-2897.52
-2230.67
-4057.03
-3874.87
-4130.75
-2738.24
-2969.21
-3437.07
-2222.18
-2239.21
-2196.82
-2489.83
-2448.74
-2427.84
-2343.76
-2216.32
-2149.59
-2342.71
-2288.22
-2437.34
-2019.78
-2152.68
-2270.23
-2940.47
-2779.37
-2981.67
-2507.22
-2706.62
-2864.19
-2505.38
-2600.13
-2471.89
2013.74
-1712.9
-1643.63
-2081.78
233.556
-166.256
-850.878
1606.23
179.149
435.905
-4270.47
-4741.88
-4211.19
-3888.26
-3349.81
-2660.73
-4828.52
-4585.28
-4898.85
-3258.97
-3504.77
-4096.55
-5391.31
-5381.75
-5270.65
-5296.02
-5415.15
-5403.29
-4374.89
-4327.09
-4260.72
-4400.24
-4471.94
-4423.13
-2975.8
-2894.27
-2840.43
-3088.42
-3057.13
-3096.62
-2798.17
-2840.2
-2865.87
-3138.14
-3180.31
-3211.47
-3077.71
-3175.72
-3051.17
-1630.91
-1647.98
-1562.92
-1844.58
-1718.43
-1713.25
-5292.39
-5318.67
-5164.73
-5058.09
-5221.37
-5260.74
-5032.48
-5001.95
-4913.53
-5005.43
-5093.92
-5062.04
-4667.38
-4717.7
-4973.42
-4367.06
-4534.9
-4493.61
-4605.81
-4573.27
-4398.19
-4196.04
-4344.31
-4285.29
-4448.52
-4398.93
-4245.52
-4760.14
-4560.67
-4616.15
-4887.2
-4885.74
-5183.17
-4457.83
-4664.06
-4671.36
-4622.77
-4648.22
-4437.86
-4460.34
-4649.8
-4633.1
-4670.76
-4662.85
-4470.28
-5143.97
-4869.26
-4881.15
-3690.51
-3557.82
-3450.69
-3653.81
-3697.12
-3653.3
-2652.58
-2618.59
-2708.46
-2458.89
-2538.2
-2612.33
-2455.42
-2496.61
-2419.68
-2549.96
-2569.18
-2528.63
-2823.61
-2775.76
-2755.28
-1478.05
-2115.87
-2131.16
-2082.04
2567.93
3137.2
2719.92
3093.13
2622.63
3657.62
3272.31
-1749.07
-1662.34
-2188.35
426.891
164.843
-452.258
2272.79
549.672
1061.22
-5388.62
-5381.37
-5249.04
-5316.34
-5454.51
-5448.29
-4178.55
-4128.01
-4068.55
-4245.81
-4185
-4238.13
-4079.01
-4130.75
-4183.1
-4581.27
-4662.39
-4616.64
-5397.09
-5424.15
-5270.39
-4571.5
-4471.71
-4752.3
-4003.44
-4225.82
-4325.62
-3974.94
-4109.15
-3891.02
-4319.29
-4539.09
-4586.58
-4410.42
-4480.83
-4259.21
-5076.73
-4726.26
-4659.97
-4900.36
-4863.7
-4778.05
-5146.79
-5272.41
-5229.98
-4022.4
-3976.82
-4027.77
-3880.14
-3927.48
-3971.81
-3831.9
-3880.3
-3834.1
-3490.79
-3570.31
-3655.97
-3405.02
-3487.25
-3411.9
-3639.86
-3563.32
-3476.59
-4141.58
-4219.11
-4415.87
-3962.74
-4088.35
-4017.31
-4222.61
-4156.89
-4025.61
-3690.84
-3793.25
-3716.74
-3944.02
-3869.16
-3761.22
-4106.39
-3980.54
-4061.9
-2342.88
-2266.24
-2231.33
-2327.35
-2301.23
-2380.03
-2144.55
-2222.63
-2257.39
-3729.29
-3969.09
-4435.47
-1946
-1961.03
-1910.73
-2035.94
-2004.49
-1988.09
3491.1
-2493.11
-2469.73
-2512.15
-2379.33
-2422.38
-2438.96
-2385.84
-2405.06
-2362.41
-4827.39
-5098.46
-5248.33
-4725.7
-4922.11
-4664.54
-5369.52
-5468.75
-5217.35
-4081.59
-4299.38
-4526.42
-3781.91
-4052.1
-3859.1
-4629.34
-4301.3
-4000.5
-5264.37
-5377.2
-5386.79
-5438.85
-5427.19
-5304.12
-4290.12
-4341.96
-4410.97
-4213.64
-4278.33
-4228.69
-4568.8
-4520.4
-4446.88
-2971.3
-3015.74
-3046.9
-2955.9
-2985.32
-2942.59
-3067.78
-3026.94
-2999.44
-3294.21
-3327.36
-3283.46
-3415.25
-3372.33
-3337.98
-3121.56
-3152.07
-3109.88
-3239.82
-3195.54
-3164.48
-3254.78
-3224.46
-3270.85
-1744.99
-1797.52
-1814.59
-1771.01
-1783.9
-1736.71
-1865.83
-1826.5
-1813.67
-5193.99
-5343.6
-5369.43
-5122.07
-5176.75
-5020.52
-5542.47
-5350.86
-5296.86
-5436.65
-5399.45
-5593.58
-4881.42
-4969.05
-4935.14
-5180.98
-5133.52
-5040.52
-3637.01
-3675.48
-3632.89
-3771.74
-3720.68
-3682.2
-3468.17
-3504.05
-3458.43
-3587.88
-3548.65
-3511.21
-2658.59
-2612.46
-2592.44
-2713.59
-2730.28
-2698.74
-1676.77
-1285.69
-1139.55
-1270.07
-1289.46
-1538.29
-878.906
-1065.99
-1086.12
-1538.82
-1384.9
-1338.3
-1770.32
-1756.3
-1887.82
-1498.13
-1626.23
-1656.57
3318.83
3730.43
3380.35
3614.91
3733.21
3409.6
4304.46
4049.09
3824.75
-805.316
-392.059
-1226.39
899.863
533.3
-136.986
2565.64
1533.02
1664.02
-931.63
-1110.58
-823.473
-2015.31
-1468.4
-1199.21
-4491.5
-4583.34
-4410.07
-4977.13
-4767.67
-4660.65
-4966
-4869.75
-5077.44
-1596.55
-1604.54
-1559.55
-1690.17
-1647.04
-1638.97
-1668.27
-1657.28
-1697.66
-2015.35
-1988.34
-2066.53
-1832.1
-1910.13
-1934.73
-5337.37
-5128.53
-5053.07
-5244.59
-5190.19
-5390.48
-4829.96
-5006.38
-5068.98
-1515.34
-2147.67
-2130.31
-2171.62
-2043.19
-2086.97
-2102.34
-2057.83
-2072.53
-2031.27
-3457.13
-3652.13
-3822.61
-3910.77
-3669.2
-3439
-2321.41
-2281.07
-2264.12
-2319.65
-2300.37
-2340.67
-2213.02
-2256.35
-2271.79
-945.178
-1262.72
-1383.97
-838.242
-1086.36
-732.666
-2067.47
-1530.6
-1357.97
-2789.51
-2815.01
-2773.71
-2899.31
-2856.84
-2832.29
-2907.33
-2882.7
-2926.37
-3787.71
-3742.52
-3701.35
-3828.38
-3786.49
-3833.29
-3694.38
-3739.78
-3780.56
-776.702
-1195.44
-1363.07
-592.934
-952.373
-514.529
-2133.28
-1498.36
-1203.98
112.682
37.7637
37.5289
-37.4543
-111.087
-109.405
-181.467
-247.277
-244.349
-307.62
-361.992
-358.644
-410.238
-452.501
-449.358
-489.222
-520.622
-517.797
-546.994
-569.033
-566.926
137.523
98.1263
95.7069
-21.181
-60.8342
-58.7803
-174.125
-209.749
-204.309
-306.869
-336.103
-329.131
-413.071
-435.489
-428.587
-507.612
-540.53
-528.152
-564.747
-584.499
-574.911
-600.577
-613.388
-607.215
155.624
109.991
106.32
-29.8295
-75.4273
-70.5071
-204.236
-243.243
-232.476
-347.07
-376.822
-363.883
-453.19
-474.424
-462.272
-553.944
-578.39
-557.264
-597.811
-613.038
-597.324
-625.05
-634.343
-623.505
191.307
131.709
125.102
-50.5395
-108.71
-97.7264
-264.772
-309.358
-288.631
-420.289
-450.15
-428.045
-522.971
-541.962
-521.914
-621.85
-632.94
-603.667
-644.502
-652.789
-631.594
-658.781
-662.987
-648.165
258.951
168.578
157.564
-104.575
-186.399
-159.91
-384.859
-435.289
-395.441
-548.858
-574.71
-538.374
-627.822
-639.739
-612.223
-710.908
-702.581
-666.076
-702.704
-701.213
-676.186
-698.989
-696.444
-679.17
401.185
223.267
209.179
-274.822
-396.046
-321.779
-633.016
-676.966
-603.485
-747.681
-758.558
-706.156
-770.362
-769.97
-734.518
-815.293
-781.434
-741.496
-766.428
-752.951
-727.06
-740.964
-730.659
-713.01
789.533
556.708
522.494
-1089.18
-1081.89
-962.769
-1028.5
-1006.63
-940.293
-941.941
-921.887
-883.372
-918.393
-858.094
-820.954
-826.367
-800.147
-777.675
-778.292
-760.202
-745.08
-2309.4
-2187.71
-1973.66
-1727.54
-1605.5
-1477.66
-1334.49
-1266.45
-1205.35
-1106.32
-1064.27
-1031.78
-996.92
-916.416
-890.623
-870.48
-833.509
-819.091
-803.5
-779.094
-769.548
-3547.79
-3292.64
-3232.14
-2139.22
-1946.3
-1893.88
-1534.3
-1435.26
-1406.96
-1210.49
-1153.45
-1138.3
-1027.36
-941.082
-933.728
-887.655
-844.704
-842.242
-810.001
-782.323
-780.843
-3331.42
-3145.41
-3209.94
-2098.48
-1926.31
-1962.6
-1538.97
-1441.89
-1455.87
-1216.77
-1158.71
-1165.74
-1000.18
-923.945
-937.785
-871.757
-829.35
-840.35
-794.755
-767.278
-775.026
-2524.18
-2426.77
-2526.65
-1750.37
-1640.4
-1727.74
-1373.77
-1302.28
-1347.7
-1128.45
-1081.63
-1107.44
-923.245
-868.232
-900.327
-824.72
-788.614
-811.839
-758.635
-734.529
-751.053
-1650.55
-1617.93
-1716.57
-1291.1
-1245.53
-1347.15
-1118.44
-1080.1
-1139.58
-978.351
-948.754
-985.337
-829.271
-760.412
-710.959
984.571
-3150.18
-3044.11
-3288.75
-3264.54
-3306.72
-3526.43
-2625.29
-2721.55
-2848.35
-1572.21
-1585
-1510.15
-5031.35
-5001.88
-5144.41
-5056.12
-4942.92
-4962.7
-4540.34
-4568.19
-4654.4
-5179.68
-5054.24
-5032.02
-4979.43
-4991.97
-5111.62
-3182.56
-3258.5
-3328.4
-4540.82
-4465.58
-4495.73
-1436.61
-1820.94
-1917.52
-1973.45
-2741.79
-2633.34
-2344.7
-2488.71
-2447.18
-2519.69
-2028.04
-2096.02
-2126.03
-3094.62
-3032.78
-3107.06
-2592.07
-2664.49
-2712.75
1601.75
1774.69
1587.74
1342.76
1024.92
957.207
-3070.3
-2947.26
-2584.22
-4795.26
-4814.32
-4911.04
-4823.73
-4738.91
-4758.52
-5061.15
-5053.71
-5175.5
-5157.12
-5049.49
-5044.35
-3609.53
-3567.02
-3530.02
-2735.05
-2712.06
-2755.09
-2469.25
-2508.63
-2529.34
-4798.37
-4735.44
-4915.62
-5015.5
-4884.1
-4832.72
-4222.11
-4257.58
-4329.07
-4196.94
-4136.58
-4173.15
-2408.14
-2389.39
-2428.3
-1757.74
-1543.42
-1551.55
-1911.8
-1889.79
-1957.59
-1571.3
-1598.86
-1478.95
-969.397
-1222.45
-1291.8
-2056.58
-1774.29
-1755.55
-1861.77
-1885.3
-1809.47
-3251.32
-3461.65
-3282.49
-2233.55
-1918.27
-1814.34
180.843
175.749
103.326
100.864
140.547
18.6638
59.1107
60.3846
58.005
58.5964
18.4727
-66.4534
-63.0877
-23.195
-141.855
-103.744
-108.095
-95.7353
-99.4605
-137.532
-223.268
-215.642
-180.165
-283.139
-250.908
-258.895
-237.041
-243.608
-276.197
-352.816
-343.584
-314.879
-396.763
-371.629
-380.712
-355.861
-363.388
-389.175
-451.728
-442.843
-421.157
-482.237
-463.769
-472.209
-449.112
-456.119
-475.315
209.496
200.225
119.333
114.318
162.567
15.7185
65.0678
66.8851
61.8248
63.3772
16.7497
-88.767
-81.436
-33.3982
-172.945
-128.177
-137.99
-113.425
-120.068
-162.959
-270.957
-255.941
-215.693
-329.001
-293.82
-309.746
-268.675
-280.278
-314.76
-408.692
-391.724
-361.729
-444.409
-419.307
-436.19
-391.635
-404.483
-429.803
-503.913
-488.232
-467.412
-524.531
-507.265
-522.425
-482.275
-493.935
-511.567
266.356
248.475
147.826
139.248
204.3
5.89462
72.5863
74.2103
68.7931
70.7273
9.62902
-138.99
-122.236
-59.4684
-236.732
-181.552
-202.696
-149.845
-164.179
-216.295
-362.042
-333.628
-287.482
-412.58
-375.275
-404.498
-328.392
-350.094
-386.995
-504.964
-475.484
-445.891
-525.471
-501.942
-530.332
-455.273
-477.021
-501.252
-586.848
-563.548
-546.035
-591.604
-578.557
-600.387
-539.551
-558.335
-572.705
380.238
343.229
194.633
180.956
284.602
-30.8444
74.1773
69.7729
75.3429
75.571
-16.4831
-265.09
-220.66
-130.114
-371.32
-301.204
-351.514
-228.611
-260.782
-326.931
-538.871
-482.985
-431.481
-562.576
-526.598
-580.572
-438.664
-479.152
-516.957
-658.071
-614.341
-591.403
-647.925
-632.905
-673.543
-561.778
-595.786
-613.343
-700.953
-669.336
-659.885
-682.426
-676.729
-705.643
-624.052
-649.515
-657.447
651.917
556.679
161.411
235.019
460.344
-195.647
8.31822
-52.3189
59.9803
41.3131
-128.298
-626.664
-495.673
-363.015
-671.93
-597.262
-724.396
-414.166
-494.402
-572.752
-855.522
-760.458
-724.446
-800.985
-784.965
-870.399
-640.891
-708.613
-731.499
-876.028
-815.213
-810.509
-814.961
-816.349
-870.545
-717.714
-765.334
-769.033
-844.918
-806.962
-811.639
-795.04
-801.324
-835.042
-736.172
-768.221
-765.484
600.596
587.81
885.892
0.791442
281.338
214.578
319.744
309.313
76.352
-1344.25
-1210.6
-1242.6
-1141.13
-1176.15
-1287
-964.824
-1067.61
-1049.23
-1140.51
-1073.77
-1106.82
-1013.02
-1042.48
-1099.58
-926.999
-984.601
-962.894
-996.688
-959.88
-985.508
-914.033
-936.094
-968.143
-869.022
-902.885
-884.97
-2587.02
-2393.59
-2551.52
-2138.68
-2259.29
-2428.78
-1817.96
-1720.81
-1869.42
-1490.52
-1596.24
-1676.59
-1396.82
-1501.64
-1412.18
-1368.64
-1321.42
-1399.88
-1193.04
-1253.05
-1293.01
-1154.76
-1206.55
-1153.49
-1118.03
-1093.19
-1140.08
-1014.14
-1051.46
-1072.81
-998.553
-1026.58
-992.715
-3349.67
-3330.77
-3583.86
-2899.01
-3104.87
-3130.29
-3006.68
-3067.95
-2873.81
-1979.4
-1974.53
-2169.44
-1672.74
-1811.28
-1817.95
-1740.35
-1785.51
-1649.79
-1459.69
-1452.89
-1554.5
-1288.62
-1365.04
-1371.24
-1325.57
-1349.76
-1275.43
-1167.25
-1163.15
-1221.82
-1065.49
-1111.39
-1114.84
-1090.16
-1103.13
-1058.55
-2991.68
-3071.81
-3245.54
-2754.5
-2909.5
-2841.66
-3026.3
-2973.91
-2820.02
-1806.21
-1873.27
-2031.6
-1615.84
-1736.1
-1681.1
-1806.58
-1778.62
-1650.27
-1386.87
-1418.59
-1510.82
-1265.91
-1337.48
-1310.62
-1368.45
-1357
-1282.44
-1129.19
-1146.41
-1202.59
-1051.77
-1096.42
-1081.31
-1113.42
-1107.23
-1061.43
-2224.07
-2325.7
-2414.27
-1448.08
-1546.51
-1639.83
-1384.88
-1461.95
-1377.33
-1615.67
-1541.98
-1453.24
-1197.15
-1251.75
-1315.12
-1142.35
-1194.37
-1146.83
-1277.18
-1238.1
-1180.41
-1020.06
-1052.34
-1095.15
-978.109
-1013.48
-984.832
-1062.16
-1039.41
-1001.25
-1289.94
-1201.33
-1158.88
-1096.4
-1044.02
-1010.08
-953.88
-921.158
-895.474
-4057.37
-3876.02
-3789.75
-3988.97
-3922
-4115.59
-4100.48
-3968.72
-3989.69
-3881.47
-3914.79
-4053.61
-4243.23
-4066.7
-4016.62
-4114.04
-4078.92
-4264.35
-3123.21
-3057.82
-3114.53
-3900.21
-3784.21
-3823.32
-3675.79
-3720.98
-3841.34
1129.97
-129.467
-316.571
-227.951
-601.043
-434.84
-242.142
-712.659
-591.692
-761.115
-2642.42
-2831.91
-2932
-2579.26
-2717.61
-2550.04
-3146.1
-2914.69
-2761.52
-2916.08
-3105.31
-3073.28
-3134.78
-3129.32
-2945.25
-3568.47
-3335.71
-3350.07
-2483.29
-2601.19
-2515.39
-2764.82
-2686.13
-2567.53
-2953.05
-2815.35
-2905.58
-3302.95
-3270.42
-3309.42
-3187.07
-3226.06
-3260.19
-1733.67
-1658.96
-1644.15
-1695.12
-1676.92
-1754.02
-1522.58
-1599.64
-1615.39
-3696.66
-3525.62
-3397.11
-3722.42
-3615.62
-3802.38
-5126.32
-4994
-4957.63
-4233.07
-4076.19
-4094.95
-4022.5
-4051.44
-4205.55
-4895.38
-4920.24
-5031.68
-4720.42
-4816.85
-4792.61
-4855.31
-4838.72
-4746.22
-4691.6
-4611.14
-4636.53
-5065.81
-5049.13
-5182.04
-4780.72
-4881.58
-4871.37
-4919.56
-4899.88
-4796.56
-5124.47
-5004.59
-5021.08
-4286.27
-4110.5
-4114.67
-4106.44
-4109.21
-4281.37
-3473.44
-3438.55
-3476.7
-3354.01
-3393.24
-3430.6
-3392
-3311.65
-3366.75
-3184.69
-3241.02
-3323.86
-3121.76
-3189.68
-3116.83
-3337.18
-3263.18
-3192.42
-3408.52
-3335.04
-3412.39
-4387.33
-4419.52
-4499.59
-4013.09
-3967.24
-4001.43
-3656.97
-3559.25
-3608.89
-3437.14
-3490.05
-3590.76
-1445.63
-2083.61
-2018.19
-2121.65
-1972.99
-1960.18
-2001.37
-1875.87
-1918.29
-1931.41
-3188.27
-2917.39
-3070.37
-2674.08
-2788.21
-3030.65
-2288.26
-2540.85
-2457.69
-3131.52
-2989.52
-2829.57
-3281.32
-3129.22
-3283.56
-2309.3
-2376.68
-2414.79
-2478.55
-2408.37
-2377.94
-2197.93
-2167.57
-2235.95
-2884.35
-2958.32
-3017.3
-2843.85
-2901.41
-2830.43
-3044.15
-2973.63
-2918.99
-2570.9
-2618.29
-2548.64
-2759.12
-2688.96
-2642.67
-2788.35
-2737.52
-2810.6
1875.64
1692.97
2323.33
2080.83
1777.64
1977.17
2236.03
150.492
-78.2067
-8.31495
-453.478
-230.834
26.2081
-672.019
-444.315
-677.779
1091.5
1077.31
1463.59
329.028
682.273
593.07
722.845
716.663
401.17
-4445.72
-4260.44
-4083.1
-4548.8
-4398.22
-4599.97
-3666.32
-3308.56
-3489.44
-3086.04
-3186.05
-3497.48
-3918.01
-3735.86
-3912.71
-3134.1
-3104.88
-3143.35
-3025.82
-3062.23
-3092.07
-1802.17
-1791.3
-1833.48
-1707.08
-1749.72
-1760.18
-4944.01
-4852.78
-4868.36
-4677.48
-4700.2
-4791.38
-5182.12
-5067.56
-5055.99
-5037.2
-5032.19
-5148.59
-3645.04
-3605.67
-3649.82
-3518.72
-3561.82
-3600.63
-3485.73
-3524
-3482.22
-2631.91
-2670.9
-2692.76
-2731.92
-2691.04
-2670.53
-2570.86
-2550.43
-2590.11
3119.7
2855.59
2901.19
2470.27
2744.24
3005.2
2896.94
3587.53
3446.58
-180.737
8.8228
385.608
1674.54
1626.01
2134.04
696.519
1197.19
1101.95
-4944.29
-4903.02
-5046.44
-4373.56
-4305.87
-4339.94
-4050.03
-4087.35
-4151.14
-2310.34
-2348.82
-2367.4
-1333.32
-1351.04
-1179.41
-1754.95
-1820.63
-1840.94
-1468.7
-1526.5
-1312.94
-587.152
-601.903
-601.994
-492.7
-508.036
-504.59
-527.636
-541.611
-532.969
-585.219
-595.753
-581.828
-663.84
-668.746
-649.411
-762.109
-758.385
-734.401
-868.323
-853.254
-828.26
-962.468
-935.901
-914.9
-1019.18
-984.948
-973.602
-1020.83
-985.436
-986.803
-966.906
-936.643
-950.001
-871.758
-850.431
-872.348
-351.102
-458.283
-580.209
-3941.32
-3928.31
-3795.38
-3800.33
-3947.21
-3950.12
695.298
484.907
444.739
590.53
-1027.17
-898.157
-806.302
-1900.85
-2084.5
-1992.67
-2157.74
-2241.64
-2148.71
-2425.15
-2334.85
-2248.99
-1420.57
-1517.49
-1544.78
-2937.82
-2989.26
-3055.15
-3769.21
-3905.42
-3876.84
-3961.83
-3954.19
-3800.29
-2053.66
-1957.29
-1910.81
-1521.46
-1537.76
-1720.32
-1809.48
-1788.77
-2038.93
-522.204
-516.35
-500.018
-566.421
-554.911
-540.223
-629.929
-613.221
-602.903
-711.936
-689.875
-686.696
-806.105
-781.125
-788.32
-897.384
-873.691
-893.483
-965.813
-949.089
-980.531
-991.668
-986.542
-1024.54
-966.685
-974.335
-1011.71
-897.166
-915.321
-945.886
151.779
316.152
323.389
-5931.74
-5832.17
-6232.51
-3229.8
-3239.41
-3247.7
-1906.99
-1920.26
-1927.67
-5901.01
-6055.73
-6417.36
-3796.72
-4478.81
-6043.66
-5926.07
-6005.8
-6098.99
-5896.35
-5963.49
-6043.37
-5857.01
-5940.57
-6034.25
-5037
-5076.72
-5117.46
-5157.61
-5199.48
-5242.85
-4983.17
-5014.25
-5041.4
-4840.69
-4862.17
-4887.07
-3379.75
-3382.24
-3391.01
-3340.22
-3352.82
-3362.85
-2558.4
-2559.99
-2566.12
-1784.34
-1794.09
-1800.55
-5884.69
-5931.83
-5986.89
-5970.52
-6035.73
-6134.41
-5932.24
-5993.8
-6083.06
-5994.55
-6048.81
-6156.54
-5748.3
-5808.77
-5872.81
-5820.24
-5880.67
-5952.48
-5724.14
-5789.5
-5862.83
-5304.11
-5367.26
-5428.49
-5202.72
-5265.42
-5328.13
-5320.07
-5362.25
-5398.67
-4805.18
-4834.6
-4864.94
-4690.29
-4734.82
-4768.08
-4422.81
-4457.48
-4490.37
-4660.55
-4729.02
-4790.52
-4469.03
-4502.71
-4533.11
-2593.63
-2604.12
-2611.92
-1647.8
-1652.45
-1658.48
-5998.3
-5862.21
-6419.64
-3266.9
-3283.32
-3296.97
-1880.13
-1889.4
-1902.71
-3903.62
-3919.86
-3930.28
-3187.6
-3200.24
-3206.88
-3166.67
-3180.48
-3189.92
3908.43
3893.38
3816.9
-1733.53
-1748.31
-1757.92
-1694.04
-1697.09
-1705.71
-5948.62
-6046.54
-6160.52
-5926.68
-5991.75
-6078.25
-5884.88
-5959.25
-6045.18
-5871.46
-5943.8
-6020.67
-5087.43
-5150.24
-5211.86
-5109.74
-5143.82
-5173.25
-4955.17
-5013.46
-5069.07
-4901.26
-4940.05
-4980.12
-4804.58
-5154.72
-6519.63
-5350.56
-5429.74
-6182.28
-5775.99
-5656.34
-6431.69
-3305.92
-3328.03
-3344.61
-2523.82
-2536.7
-2546.52
-2437.83
-2450.2
-2458.38
-2490.31
-2509.88
-2525.42
1810.54
1739.81
1585.88
1612.28
-1832.48
-1841.32
-1849.96
-5968.58
-6049.46
-6140.06
-5977.67
-6098.18
-6243.69
-6031.65
-6104.91
-6251.15
-5772.3
-5839.35
-5913.89
-5787.54
-5841.63
-5904.16
-5688.8
-5738.05
-5793.59
-5667.16
-5721.4
-5783.14
-5269.57
-5319.68
-5371.11
-5224.92
-5262.81
-5296.57
-5351.22
-5397.55
-5446.18
-5376.96
-5415.86
-5460.51
-4723.56
-4751.63
-4777.98
-4367.77
-4389
-4411.74
-4586.47
-4619.72
-4653.32
-4513.53
-4532.54
-4552.53
-3041.32
-3053.55
-3066.3
-3096.34
-3125.87
-3151.21
-3143.17
-3177.06
-3203.59
-2283.21
-2296.42
-2305.45
-2245.09
-2246.49
-2252.41
4918.63
5124.28
5319.99
4097.81
4265.73
4349.04
2540.38
2369.44
1893.35
-1955.66
-1966.22
-1973.77
-3558.45
-3579.87
-3591.61
-3539.06
-3575.6
-3602.46
-5983.65
-6081.45
-6233.72
-3829.85
-3852.63
-3872.03
-3874
-3897.33
-3919.67
2970.45
2970.22
2838.28
3401.97
3356.22
3252.05
-2123.82
-2134.48
-2143.79
-1586.66
-1594.95
-1600.06
-1553.41
-1553.38
-1558.04
-5559.21
-5608.24
-5656.73
-5643.56
-5697.95
-5744.18
-5645.42
-5715.82
-5803.61
-5552.94
-5617.92
-5677.7
-5409.1
-5457.52
-5500.81
-5460.21
-5514.66
-5579.89
-2745.23
-2747.41
-2752.84
2734.81
2717.44
2592.04
2044.12
1918.59
-2068.36
-2076.62
-2082.04
-3685.13
-3717.46
-3740.33
1952.3
1870.77
-5989.58
-6117.68
-6375.92
-6088.27
-6104.67
-6390.46
-4764.56
-4806.18
-4838.45
-3713.81
-3731.24
-3741.05
-2909.83
-2925.42
-2936.94
-2714.08
-2726.83
-2734.56
-2870.7
-2892.92
-2910.62
4499.2
4602.6
4692.29
-2338.93
-2361.49
-2379.57
-2207.55
-2220.2
-2230.18
-1997.94
-2007.38
-2016.29
-5814.96
-5986.02
-6580.96
-3590.07
-3601.51
-3610.41
-3505.09
-3538.39
-3568.05
-3432.2
-3445.77
-3457.64
-6113.05
-6087.15
-6483.78
-5988.18
-6029.78
-6213.43
-6084.06
-6149.46
-6352.95
-6072.09
-6153.7
-6338.72
-4265.1
-4302.29
-4339.17
-4300.45
-4322.5
-4338.05
-3776.54
-3790.94
-3802.58
-4204.77
-4231.5
-4256.17
-4136.53
-4152.65
-4167.89
-1836.93
-2774.65
-4394.63
-2405.47
-2407.43
-2413.52
-2371.36
-2384.64
-2393.98
-2166.89
-2185.9
-2201.15
-5576.74
-5619.37
-5668.34
-5611.74
-5657.85
-5713.04
-5539.98
-5616.35
-5695.45
-5492.84
-5539.27
-5588.38
2190.76
2177.23
2042.79
2438.02
2381.83
2256.16
-2038.37
-2042.52
-2051.13
-5243.18
-5011.41
-6217.49
-3636.19
-3647.56
-3661.65
-6060.82
-6044.09
-6335.49
-6037.91
-6054.12
-6274.4
-5993.76
-6055.13
-6179.96
-6026.28
-6105.73
-6266.5
-5995.11
-6069.55
-6187.05
-6015.51
-6134.83
-6264.49
-3738.46
-3751.42
-3760.73
-4052.54
-4081.5
-4105.35
-4086.88
-4104.48
-4117.97
-4005.02
-4026.84
-4046.24
-3957.32
-3970.59
-3983.66
-2945.22
-2949.11
-2956.97
-2979.73
-2987.19
-2993.94
-2649.85
-2670.43
-2687.77
-2683.21
-2707.27
-2724.26
-2827.51
-2839.45
-2849.81
-2773.57
-2781
-2786.36
491.537
-38.633
-1257.91
)
;

boundaryField
{
    topAndBottom
    {
        type            slip;
    }
    inlet
    {
        type            zeroGradient;
    }
    outlet
    {
        type            fixedValue;
        value           nonuniform List<scalar> 0();
    }
    wing
    {
        type            zeroGradient;
    }
    front
    {
        type            empty;
    }
    back
    {
        type            empty;
    }
    procBoundary2to0
    {