/*--------------------------------*- C++ -*----------------------------------*\
| =========                 |                                                 |
| \\      /  F ield         | OpenFOAM: The Open Source CFD Toolbox           |
|  \\    /   O peration     | Version:  v2012                                 |
|   \\  /    A nd           | Website:  www.openfoam.com                      |
|    \\/     M anipulation  |                                                 |
\*---------------------------------------------------------------------------*/
FoamFile
{
    version     2.0;
    format      ascii;
    class       volVectorField;
    location    "0";
    object      U;
}
// * * * * * * * * * * * * * * * * * * * * * * * * * * * * * * * * * * * * * //

dimensions      [0 1 -1 0 0 0 0];


internalField   nonuniform List<vector> 
3259
(
(99.9984 0.338769 0)
(100.001 0.341753 1.43592e-20)
(100.004 0.314188 -2.39295e-20)
(100.005 0.266482 1.50476e-20)
(100.005 0.211797 0)
(100.004 0.159954 2.54099e-20)
(100.004 0.115081 1.04596e-19)
(100.002 0.0824989 -2.96094e-20)
(100.009 0.0944242 -6.18803e-19)
(100.006 0.0598495 0)
(100.004 0.0322919 -7.92718e-20)
(100.004 0.0103488 -5.25112e-19)
(99.9207 1.53388 -9.22732e-21)
(99.9963 1.56463 4.9424e-23)
(100.062 1.44744 -3.57768e-21)
(100.1 1.23091 3.41681e-20)
(100.109 0.97873 -6.78651e-20)
(100.098 0.74403 0)
(100.112 0.565902 -4.82972e-19)
(100.081 0.392624 9.36272e-19)
(100.082 0.270293 6.31219e-19)
(100.06 0.171078 1.32674e-18)
(100.045 0.0920317 -1.33176e-18)
(100.039 0.0294215 6.2968e-19)
(99.7824 3.0108 1.39119e-20)
(100.088 3.0801 -2.48539e-22)
(100.341 2.82563 0)
(100.47 2.36658 2.60789e-20)
(100.48 1.84505 -6.99795e-20)
(100.422 1.3672 -1.67546e-19)
(100.375 0.971444 -2.91859e-18)
(100.278 0.663139 -6.49194e-19)
(100.23 0.412246 -6.49536e-19)
(100.167 0.259218 1.50069e-18)
(100.127 0.138703 -1.68895e-19)
(100.11 0.0441546 0)
(99.464 4.74829 3.72024e-20)
(100.24 4.86545 0)
(100.843 4.34908 0)
(101.105 3.51807 -1.19723e-19)
(101.1 2.6599 0)
(100.946 1.91075 0)
(100.781 1.29257 1.05278e-18)
(100.576 0.862673 -8.21343e-19)
(100.437 0.501425 -1.66169e-18)
(100.317 0.310446 8.56271e-19)
(100.241 0.164165 -1.72196e-19)
(100.207 0.0519413 0)
(98.8324 7.07164 2.56859e-20)
(100.599 7.23564 -2.10394e-20)
(101.806 6.13728 5.62651e-19)
(102.178 4.64425 1.66129e-18)
(102.028 3.32496 3.24289e-19)
(101.681 2.30579 -4.12561e-21)
(101.314 1.47668 -1.74897e-18)
(100.954 0.956456 1.4667e-19)
(100.68 0.518067 0)
(100.487 0.312606 1.75608e-19)
(100.369 0.162123 -1.32094e-19)
(100.313 0.0507664 -4.10746e-20)
(97.4368 10.745 2.42605e-20)
(101.65 10.7723 0)
(103.734 8.15152 2.19068e-18)
(103.899 5.59466 0)
(103.313 3.7118 -2.88568e-19)
(102.589 2.42625 5.0172e-19)
(101.934 1.46376 4.48103e-19)
(101.374 0.910098 -3.02965e-19)
(100.926 0.44586 0)
(100.653 0.257042 0)
(100.487 0.128377 -4.4561e-20)
(100.408 0.0393325 -1.2556e-19)
(92.959 17.4679 3.18601e-19)
(105.558 16.3018 3.45786e-18)
(107.428 9.85841 0)
(106.389 5.89414 8.67506e-19)
(104.912 3.56572 -4.73623e-19)
(103.601 2.17141 -7.7698e-20)
(102.551 1.19523 0)
(101.78 0.699823 1.66757e-19)
(101.139 0.278457 1.1494e-19)
(100.785 0.14127 -1.3857e-19)
(100.573 0.0620027 -1.58378e-19)
(100.471 0.0174112 3.56671e-19)
(117.402 20.8017 9.24498e-19)
(113.133 9.10274 -1.94648e-19)
(109.315 4.80048 1.44002e-19)
(106.532 2.6401 -2.30992e-19)
(104.541 1.45936 7.07176e-20)
(103.053 0.660992 -9.13139e-20)
(102.101 0.325341 3.76857e-19)
(101.275 0.023998 -1.40797e-19)
(100.855 -0.0287321 1.17423e-19)
(100.606 -0.0335297 -2.29421e-20)
(100.485 -0.0138452 -3.36256e-19)
(130.453 9.35789 0)
(117.788 4.10676 6.56376e-19)
(111.538 1.9997 7.21756e-19)
(107.689 0.904174 3.40198e-20)
(105.169 0.324663 -2.1078e-19)
(103.328 -0.0925276 -9.63664e-20)
(102.262 -0.183619 2.13557e-19)
(101.3 -0.294432 4.85502e-20)
(100.838 -0.238298 0)
(100.565 -0.150283 1.8139e-19)
(100.431 -0.0518992 1.67979e-19)
(130.059 -5.16164 -9.42665e-19)
(118.369 -2.57732 0)
(111.994 -1.65955 1.86232e-19)
(107.943 -1.26877 -6.34755e-20)
(105.281 -1.04532 -4.0656e-19)
(103.299 -0.955514 8.26511e-19)
(102.213 -0.764057 0)
(101.19 -0.641534 -4.76664e-20)
(100.717 -0.465628 -2.01123e-19)
(100.438 -0.276774 2.24978e-20)
(100.299 -0.0931121 0)
(123.118 -13.9251 1.06233e-18)
(115.563 -7.88317 0)
(110.674 -4.92639 -1.37085e-18)
(107.227 -3.32213 0)
(104.831 -2.37658 -3.96245e-19)
(102.949 -1.79053 0)
(101.945 -1.33498 -5.09701e-19)
(100.941 -0.978122 -5.98374e-19)
(100.49 -0.68664 4.56185e-20)
(100.222 -0.400325 -1.45991e-19)
(100.087 -0.133464 2.00524e-20)
(115.046 -17.57 -1.42236e-18)
(111.264 -10.7924 3.10528e-19)
(108.276 -7.07419 -1.09911e-18)
(105.813 -4.84372 -5.19545e-20)
(103.931 -3.44166 -4.56694e-20)
(102.331 -2.48307 4.31783e-20)
(101.487 -1.82742 -6.21281e-19)
(100.571 -1.27058 3.54256e-19)
(100.166 -0.880023 0)
(99.9233 -0.509633 1.68451e-19)
(99.7993 -0.169322 0)
(132.007 12.4109 2.1658e-20)
(117.936 23.3061 -2.83404e-18)
(132.584 -4.14694 -1.87409e-19)
(132.87 10.1712 -6.39817e-19)
(125.165 -14.2556 -5.91029e-19)
(131.895 -5.82822 1.13119e-18)
(116.509 -18.4318 3.5314e-18)
(124.088 -15.045 -5.47547e-19)
(115.442 -18.6492 -7.44007e-19)
(91.6944 16.1433 -3.0547e-19)
(115.288 23.4092 3.38663e-20)
(103.802 17.4434 -8.16042e-19)
(136.53 30.2975 1.94411e-19)
(117.203 39.3272 5.05931e-18)
(129.624 11.3159 0)
(118.998 6.73705 2.77112e-19)
(114.282 10.8048 -2.213e-19)
(143.806 1.68325 5.43252e-20)
(144.214 13.9453 0)
(130.624 -3.6094 3.77477e-19)
(120.852 -1.16282 -1.0878e-18)
(119.988 4.85489 -2.32347e-19)
(133.809 -15.3817 6.93686e-19)
(139.412 -9.06185 0)
(124.106 -13.1551 -1.68454e-18)
(118.154 -7.79254 -2.34873e-18)
(120.51 -3.0518 0)
(122.848 -21.8715 -8.83631e-21)
(127.607 -19.7407 0)
(109.116 -28.3086 0)
(112.391 -23.4299 0)
(116.909 -23.3074 3.57841e-19)
(144.083 14.8683 2.6136e-18)
(137.365 29.4203 -1.54708e-19)
(127.62 18.6423 -1.53238e-18)
(136.222 27.6977 9.1355e-19)
(143.129 14.6892 -8.70427e-19)
(139.74 -8.51796 2.67487e-20)
(143.653 0.948466 5.45451e-20)
(133.294 1.99968 1.84847e-19)
(142.996 1.14911 -2.62301e-20)
(139.324 -8.18406 0)
(143.292 13.7855 -1.08365e-19)
(143.139 1.86022 2.06325e-19)
(133.319 3.00831 1.20641e-20)
(128.292 -19.3466 0)
(133.417 -15.7292 -1.6883e-19)
(128.295 -11.3148 -4.42309e-21)
(132.928 -15.2378 6.16804e-19)
(128.018 -18.6422 0)
(139.008 -8.72624 0)
(133.676 -14.6079 -3.74331e-19)
(129.283 -10.127 0)
(117.561 -23.215 3.67672e-19)
(122.175 -22.0955 -9.60414e-19)
(107.26 -28.3464 0)
(107.023 -28.2406 1.79164e-19)
(111.746 -23.4416 0)
(109.045 -28.3235 1.65911e-19)
(135.713 51.41 3.51422e-17)
(111.579 57.9765 4.16239e-19)
(122.227 -23.1809 -4.97449e-18)
(116.04 -17.3332 -1.54756e-18)
(113.37 -11.5667 0)
(117.066 -9.01196 5.03947e-19)
(106.82 -27.2962 3.10352e-18)
(114.683 -26.2917 -7.76861e-19)
(116.949 -25.9412 2.04861e-19)
(117.413 36.2068 -9.35608e-19)
(134.604 29.447 -2.09819e-19)
(125.533 20.344 1.31207e-18)
(117.289 -25.8498 0)
(119.545 -25.4055 0)
(119.755 -17.3896 0)
(121.991 -21.3979 4.5695e-19)
(117.469 -22.5351 -7.20363e-19)
(127.341 -19.0287 0)
(122.65 -21.1674 -2.45746e-19)
(120.843 -16.9104 -9.88216e-19)
(83.8422 22.8959 4.41855e-20)
(113.985 38.7505 4.33217e-21)
(100.583 29.1036 9.60385e-19)
(85.471 25.4817 -4.16658e-20)
(137.899 48.9493 -1.57707e-16)
(129.824 36.645 -5.18443e-19)
(136.49 48.6681 2.26492e-17)
(112.589 54.2872 -4.8959e-19)
(134.007 50.2804 -3.45631e-18)
(126.949 37.9318 -1.00752e-18)
(144.302 7.07564 -2.38979e-19)
(144.348 7.88688 0)
(136.52 -12.8337 -1.89584e-19)
(136.9 -12.3978 7.71867e-19)
(121.943 -24.5623 2.90491e-19)
(122.627 -23.2999 -4.99814e-19)
(124.875 -21.0861 0)
(124.286 -23.2122 2.35071e-18)
(122.535 -24.2461 1.39603e-19)
(125.395 -21.7566 6.35843e-18)
(124.376 -23.0824 1.19371e-18)
(125.555 -20.7842 -4.20757e-19)
(111.922 -26.2512 6.49325e-19)
(113.996 -26.315 9.29781e-19)
(107.622 -27.4651 -1.02594e-17)
(142.026 21.4616 1.84927e-18)
(141.603 22.4683 -6.35132e-19)
(141.748 -4.35755 -7.22586e-19)
(141.996 -3.72216 1.19996e-18)
(141.503 -3.48742 0)
(137.551 -1.9072 2.10727e-19)
(138.244 1.57875 -4.36338e-21)
(136.029 -6.06699 6.99996e-19)
(137.231 -3.00618 0)
(141.266 -4.12454 0)
(143.657 7.91105 -1.13301e-19)
(138.334 8.01227 1.10281e-19)
(137.56 12.1516 -2.18444e-19)
(138.375 2.81006 -9.42661e-20)
(138.438 6.67624 -8.15641e-20)
(143.631 7.10448 4.41132e-19)
(130.483 -17.8014 7.54278e-20)
(125.659 -21.4789 0)
(130.838 -17.5274 7.72838e-20)
(122.217 -24.3545 -2.69183e-19)
(120.019 -24.9853 0)
(120.182 -22.6705 -8.643e-19)
(119.841 -25.3224 4.83759e-19)
(121.677 -24.6853 -2.83479e-19)
(104.782 -27.1697 6.3475e-18)
(111.227 -26.1829 -6.13585e-19)
(99.5721 77.6544 -1.01675e-16)
(114.357 -27.3322 -6.3561e-19)
(114.839 -27.0471 -2.38947e-19)
(51.8818 -5.7883 -2.4594e-17)
(114.792 -26.9011 0)
(114.598 -26.4646 5.32127e-19)
(70.3122 29.2662 -4.14222e-18)
(107.758 56.3484 2.4812e-18)
(93.6582 42.149 3.33524e-19)
(74.5036 36.2941 -1.22813e-18)
(144.136 3.93835 3.44208e-18)
(146.321 14.091 1.94342e-17)
(146.183 11.0802 0)
(144.411 11.2618 4.57886e-20)
(134.965 -14.4001 0)
(135.068 -15.6902 -1.61666e-18)
(134.002 -16.6546 1.97866e-19)
(139.356 -10.2693 9.01022e-18)
(138.166 -11.8768 0)
(138.377 -10.5812 -3.95989e-19)
(143.392 17.6526 1.05664e-19)
(145.84 18.2332 -7.40908e-19)
(146.345 15.1127 0)
(140.648 21.9491 4.27384e-19)
(134.426 19.2328 1.95086e-19)
(131.193 23.2423 3.55001e-19)
(137.131 13.5713 6.45032e-21)
(135.262 17.8228 2.0322e-19)
(141.052 21.0075 -1.26437e-20)
(140.664 -6.80835 1.01045e-18)
(140.834 -7.87198 -1.49117e-19)
(139.749 -9.71936 9.10707e-18)
(143.03 -1.18032 3.32552e-18)
(133.611 -16.9698 0)
(132.427 -17.8069 4.1036e-18)
(132.285 -16.5303 3.22904e-19)
(130.773 -16.8677 -5.2296e-23)
(129.122 -14.7526 -6.03293e-19)
(130.982 -13.1 -3.29669e-19)
(136.595 -12.0123 -3.5905e-19)
(133.974 -9.59579 6.41717e-19)
(135.556 -7.01497 -4.90127e-19)
(131.599 -12.4773 0)
(133.402 -10.3793 0)
(136.23 -12.4451 7.15162e-19)
(119.526 -22.8307 1.00195e-20)
(119.701 -25.0687 0)
(117.567 -25.3104 4.92099e-21)
(105.499 -27.7364 9.66552e-18)
(126.737 57.5486 -3.84685e-19)
(104.174 74.3031 -1.00085e-17)
(123.35 59.0746 -4.4367e-20)
(123.296 -22.6441 -2.18327e-17)
(123.573 -22.4898 -2.40136e-17)
(113.606 -27.5045 -1.96088e-19)
(114.224 -27.3625 8.22107e-19)
(106.875 -26.9275 -2.70442e-17)
(66.3327 -15.4129 -6.7464e-17)
(57.9163 -3.81822 7.15836e-17)
(69.4702 -16.0944 2.8048e-17)
(116.422 -25.958 -8.21761e-19)
(116.553 -26.3733 -3.64936e-19)
(118.597 -25.6209 0)
(114.078 -26.2246 -8.19806e-19)
(113.939 -25.7922 7.66486e-19)
(141.233 42.2387 1.04032e-16)
(137.003 39.3347 -1.96611e-18)
(132.244 42.741 -3.85389e-19)
(141.465 34.4082 -7.82527e-19)
(138.309 38.1111 1.20057e-18)
(130.408 43.7343 1.77958e-19)
(124.185 46.0559 -1.9347e-19)
(126.297 54.5026 -1.82467e-18)
(145.507 6.66002 2.2196e-18)
(144.784 4.16202 -1.09936e-16)
(144.187 4.71623 -6.68754e-18)
(144.423 10.3901 2.3462e-19)
(146.055 10.1382 4.6595e-18)
(145.661 7.51216 5.47609e-18)
(136.758 -14.0044 -3.89249e-18)
(135.475 -15.3128 -3.85946e-18)
(135.359 -14.0361 7.00997e-19)
(134.614 -15.8384 1.0237e-18)
(136.118 -14.5097 0)
(133.475 -16.9942 3.48646e-18)
(134.194 -16.2261 9.09616e-19)
(136.53 -13.9229 0)
(138.016 -11.0501 0)
(137.774 -12.3105 0)
(137.136 -13.5047 0)
(122.353 -24.1641 0)
(122.519 -23.9654 1.25211e-18)
(123.645 -23.7713 -1.48606e-18)
(124.205 -22.6674 0)
(125.217 -22.2938 -1.41421e-19)
(125.259 -22.3584 -2.16745e-18)
(126.92 -21.4682 7.53086e-19)
(127.94 -20.9239 -9.95296e-21)
(125.547 -22.1056 -8.75236e-21)
(126.577 -21.6407 1.51084e-19)
(125.06 -22.5398 3.94601e-18)
(108.567 -28.0579 0)
(112.482 -27.5539 -1.86933e-19)
(113.348 -27.5177 -4.01973e-19)
(145.19 22.6771 -8.03124e-18)
(145.735 19.3595 -3.06341e-18)
(143.09 18.584 1.63449e-18)
(146.159 19.2682 8.22596e-18)
(145.857 22.7243 9.63647e-18)
(146.044 18.1593 0)
(144.093 29.151 -1.53278e-18)
(142.374 33.0713 6.56252e-19)
(145.734 23.9033 0)
(144.554 27.8957 -2.25303e-19)
(140.105 25.4438 0)
(143.58 27.2918 3.0614e-20)
(144.948 23.7964 -1.82211e-18)
(142.102 -5.22223 -4.61465e-18)
(141.183 -7.22263 -2.373e-19)
(140.952 -6.20977 1.16377e-19)
(142.775 -1.83576 -7.05176e-18)
(142.953 -2.69826 1.07065e-16)
(142.344 -4.52747 -2.34776e-19)
(129.539 -19.9214 3.2801e-19)
(130.5 -19.2931 0)
(128.278 -20.7274 1.01262e-20)
(129.25 -20.1113 2.37835e-18)
(126.168 -20.8127 8.34209e-17)
(131.951 -18.1217 -9.64033e-18)
(133.119 -17.3042 0)
(130.812 -19.0513 -2.88067e-18)
(131.603 -18.3808 -1.47417e-18)
(113.529 -25.619 0)
(120.72 -25.0653 -1.31457e-19)
(116.027 -25.2452 1.38853e-17)
(115.965 -25.735 -4.23215e-19)
(116.242 -25.1141 2.03045e-17)
(120.986 -24.9555 -3.95467e-19)
(104.638 -27.5617 -9.15348e-18)
(115.16 20.9783 1.62194e-18)
(112.414 11.4193 1.3804e-18)
(107.429 11.2267 -8.74849e-19)
(109.674 -26.8186 -1.0653e-17)
(109.956 -26.7145 0)
(112.075 -12.0687 0)
(109.517 -26.538 5.96749e-17)
(116.834 -22.6367 0)
(112.696 -22.4759 -6.48741e-19)
(112.301 -18.9334 2.73297e-19)
(56.2527 35.8589 2.13116e-17)
(59.4007 16.3679 -1.78294e-17)
(52.2203 2.98973 4.22383e-17)
(90.0748 76.9075 9.53102e-19)
(81.8261 55.6763 1.13275e-19)
(60.2307 44.5432 2.573e-18)
(108.726 21.486 -1.08748e-18)
(103.718 27.4438 -3.69023e-18)
(114.643 35.7918 1.71538e-18)
(133.585 33.2438 3.87118e-19)
(136.891 36.7665 -1.1938e-18)
(140.084 33.2478 1.67215e-18)
(111.185 -27.4747 4.49847e-21)
(112.16 -27.5925 7.46983e-20)
(108.822 -28.1101 -1.45949e-18)
(116.889 -25.4106 2.19837e-19)
(114.842 -25.5848 1.12113e-18)
(114.962 -23.4806 3.22371e-19)
(141.005 32.0831 2.13172e-19)
(143.01 28.441 9.33786e-19)
(139.505 26.382 -4.29639e-19)
(104.389 -28.0194 -1.55538e-18)
(106.729 -28.2045 -3.66435e-19)
(102.783 -27.6512 6.19364e-18)
(103.607 -27.779 0)
(110.839 -27.4893 1.5769e-19)
(133.442 53.5149 -4.70631e-20)
(122.61 -23.0144 -5.9708e-18)
(110.543 -27.7429 -6.15208e-19)
(110.446 -27.5841 4.40227e-19)
(107.224 -27.1897 4.23104e-18)
(116.014 -26.8798 -1.15803e-19)
(115.225 -27.0638 2.67401e-21)
(115.958 -26.0056 0)
(129.857 24.4628 0)
(125.126 27.4422 0)
(128.341 33.9275 7.2709e-19)
(118.276 -25.7295 2.24354e-19)
(116.6 -26.5194 1.2432e-19)
(116.193 -26.7988 1.14465e-19)
(106.298 34.6275 -1.70148e-18)
(98.146 40.6368 -1.63713e-18)
(109.396 53.1429 -1.68322e-18)
(138.457 46.4603 0)
(136.665 45.3966 0)
(134.818 47.0811 1.65629e-18)
(143.524 35.1589 -1.14328e-18)
(142.913 36.8938 0)
(122.162 -24.4083 3.67144e-20)
(120.655 -24.5202 6.36803e-19)
(120.547 -24.6818 -6.48858e-19)
(120.704 -23.3151 -9.4569e-18)
(121.061 -23.5477 9.38237e-18)
(122.882 -23.5319 4.9933e-21)
(122.84 -23.1566 -2.45785e-19)
(123.856 -22.8393 3.8898e-19)
(123.364 -23.9052 3.50107e-21)
(124.959 -22.0407 -2.62476e-17)
(126.768 -21.7994 -1.28588e-18)
(126.977 -21.5391 3.499e-19)
(108.323 -27.7294 -8.72607e-19)
(110.922 -27.9344 2.1916e-19)
(110.759 -27.8011 7.52671e-19)
(128.1 -20.0174 0)
(128.509 -19.8003 -1.40079e-17)
(127.234 -21.3038 2.6183e-18)
(127.521 -21.0805 6.32876e-18)
(126.012 -21.2516 5.81152e-18)
(128.811 -19.5551 1.97119e-17)
(128.701 -19.2982 -8.63169e-17)
(131.913 -16.8338 -9.88219e-21)
(132.062 -18.0585 -7.08735e-19)
(131.042 -18.6913 -1.34741e-18)
(105.243 -27.3759 -6.11778e-18)
(108.925 -27.0628 -1.41728e-17)
(109.355 -26.9401 2.8132e-19)
(112.665 -26.9408 1.06635e-18)
(112.648 -27.1034 8.56207e-18)
(114.716 -27.1829 2.4103e-19)
(54.9634 -10.7025 -5.3642e-17)
(43.8045 -3.89251 -3.81107e-17)
(58.9673 -14.0266 -6.08101e-17)
(114.691 -26.8178 -3.67186e-19)
(111.494 -26.5451 -1.51268e-17)
(112.153 -26.7056 -6.2782e-19)
(112.003 -26.2534 -1.04525e-17)
(111.906 -26.3775 9.90754e-18)
(114.663 -26.6333 -1.57568e-18)
(99.4817 50.45 7.72336e-19)
(87.7161 54.7393 -1.25913e-18)
(98.7295 70.1899 7.78932e-18)
(144.664 2.76806 7.31671e-18)
(144.822 3.54302 -5.01864e-17)
(144.291 1.26851 -7.29687e-20)
(144.464 2.01895 0)
(146.292 13.0808 -9.98256e-18)
(145.888 13.2414 0)
(145.88 14.2036 -1.21461e-17)
(145.837 11.3411 -4.07599e-18)
(145.877 12.288 8.38899e-18)
(146.255 12.0828 2.44346e-19)
(138.973 -10.8613 1.41698e-19)
(139.476 -10.3192 -4.6543e-19)
(139.834 -9.76308 -7.6398e-18)
(138.727 -11.3555 2.92991e-21)
(139.104 -10.8607 -3.156e-18)
(138.553 -11.4205 4.30185e-18)
(146.103 17.2426 7.1394e-18)
(145.528 17.2144 -3.63676e-18)
(145.281 18.202 -6.88156e-18)
(145.842 15.183 0)
(145.73 16.1951 -6.84693e-19)
(146.294 16.1879 2.63664e-19)
(140.483 -8.46318 1.49483e-19)
(140.847 -8.00032 0)
(141.164 -7.39732 0)
(140.188 -9.20038 -4.02402e-18)
(140.526 -8.6049 0)
(140.135 -9.10559 2.92315e-19)
(143.957 -0.348644 -2.83908e-19)
(144.148 0.483045 1.014e-18)
(143.43 -1.76869 -9.05975e-19)
(143.718 -1.0879 1.05809e-18)
(101.096 -27.5515 -9.68932e-18)
(102.417 -27.4188 0)
(103.069 -27.5904 0)
(106.346 -27.9935 5.73989e-19)
(100.586 -27.3922 5.53237e-18)
(127.891 60.161 8.64341e-18)
(132.012 57.2078 -5.54437e-18)
(130.482 56.0103 -1.95728e-17)
(112.343 72.5647 -1.3724e-16)
(113.704 69.0348 0)
(108.207 67.8131 9.4286e-19)
(124.292 64.6859 1.12385e-16)
(119.23 67.1693 -3.26334e-17)
(122.904 -22.8332 0)
(123.406 -22.3111 9.95735e-18)
(107.349 -27.1009 -1.04434e-17)
(110.32 -27.4334 6.9668e-19)
(109.67 -27.2049 2.12974e-17)
(63.0045 -13.5058 6.34504e-17)
(113.434 -26.0724 -8.27716e-18)
(111.563 -26.0707 -3.10324e-17)
(113.832 -25.9143 -3.20111e-18)
(140.042 42.0286 1.97295e-17)
(138.323 43.7065 1.79521e-18)
(139.97 44.4832 -2.32109e-18)
(140.486 35.5671 -1.25026e-18)
(141.778 36.611 -9.2568e-19)
(142.795 35.1459 -4.47055e-17)
(142.23 38.4242 1.79284e-17)
(141.349 40.1587 -2.76812e-17)
(145.321 5.86312 0)
(145.238 6.17306 -4.63518e-18)
(145.368 6.99102 -2.81081e-18)
(144.904 4.36597 7.25583e-17)
(145.176 5.36205 2.5565e-19)
(145.172 5.10428 0)
(145.917 9.25857 5.31734e-18)
(145.669 9.54146 -4.41207e-18)
(145.762 10.4219 -8.63033e-18)
(145.475 7.82731 5.54867e-19)
(145.575 8.6773 -9.65254e-20)
(145.793 8.37507 -1.08683e-19)
(136.342 -14.485 7.54364e-18)
(136.525 -14.1281 -7.05276e-18)
(136.931 -13.6745 3.58184e-18)
(135.099 -15.4308 0)
(135.615 -15.0215 -8.9425e-18)
(133.654 -16.6967 1.00724e-17)
(132.571 -17.0292 0)
(132.523 -17.3751 -1.1834e-17)
(133.703 -16.5598 0)
(136.837 -13.4404 -1.01785e-17)
(136.922 -13.0239 -8.70941e-17)
(137.714 -12.5839 4.38272e-17)
(138.049 -12.2859 -3.99979e-19)
(138.379 -11.8259 -4.03834e-19)
(137.323 -13.2118 0)
(137.702 -12.7511 3.34495e-18)
(137.474 -13.0346 0)
(119.978 -24.237 1.40173e-17)
(120.375 -24.3335 -3.09774e-17)
(122.267 -24.2585 -3.51315e-20)
(118.247 -24.3216 3.60612e-17)
(118.317 -24.6406 0)
(118.58 -24.4963 0)
(122.757 -23.7637 -6.8299e-19)
(120.814 -23.8025 -1.67874e-18)
(120.468 -24.05 5.77114e-18)
(126.376 -22.1645 1.00242e-18)
(126.581 -21.9694 -7.64498e-18)
(125.181 -22.1512 2.16913e-17)
(145.394 21.5831 0)
(144.51 21.2268 -2.46002e-18)
(144.234 22.2944 2.15552e-18)
(145.031 19.1545 3.61111e-18)
(144.766 20.1697 -1.45677e-18)
(145.565 20.4649 2.07717e-18)
(146.126 20.3359 -3.19455e-18)
(146.003 21.5543 2.0491e-17)
(143.664 30.4054 -1.45892e-18)
(144.642 30.5367 1.17252e-18)
(144.926 29.1775 2.04017e-17)
(143.693 33.584 2.77545e-17)
(144.287 32.0258 -9.34326e-18)
(143.12 31.708 1.00598e-17)
(145.504 25.1145 0)
(145.266 27.9386 3.36522e-19)
(145.548 26.3386 -1.04146e-16)
(145.057 26.4248 4.20281e-17)
(141.811 -5.91262 4.64653e-18)
(142.033 -5.48298 0)
(142.29 -4.81935 -2.46835e-18)
(141.467 -6.76482 1.89321e-19)
(141.754 -6.12406 -4.60426e-18)
(141.499 -6.54783 4.99667e-18)
(142.82 -3.24262 -1.36646e-18)
(143.014 -2.87751 -1.58377e-17)
(143.292 -2.22915 -4.77366e-17)
(142.521 -4.16209 8.27651e-19)
(142.753 -3.5201 -2.75489e-19)
(142.585 -3.87857 1.44029e-18)
(127.466 -20.4349 2.19558e-17)
(127.801 -20.2142 0)
(126.295 -21.053 2.08684e-18)
(127.749 -20.8458 0)
(127.711 -20.5814 -5.90446e-17)
(132.32 -17.8489 5.34868e-20)
(131.182 -18.2411 0)
(130.757 -18.5276 7.65213e-18)
(132.116 -17.7042 -2.1879e-18)
(131.624 -17.9844 0)
(132.709 -17.5855 -5.51821e-20)
(131.06 -18.8175 2.71616e-18)
(130.059 -19.0913 3.74222e-17)
(130.053 -19.3165 -8.1805e-19)
(130.388 -18.7838 0)
(129.944 -19.0036 0)
(131.307 -18.6292 -1.35672e-18)
(115.781 -25.4125 -5.50307e-18)
(118.3 -25.5335 -2.81973e-19)
(118.45 -25.3948 -3.10405e-19)
(118.293 -25.8078 0)
(118.252 -25.7162 0)
(115.379 -25.5951 -4.27673e-18)
(117.586 -24.9459 -1.77954e-17)
(118.01 -24.801 0)
(118.496 -25.2358 -6.14895e-19)
(118.105 -25.0478 2.92667e-17)
(115.825 -24.9467 -4.27736e-17)
(105.088 -27.4712 -2.92875e-18)
(99.7858 2.5671 -3.24776e-21)
(99.953 1.49728 -2.726e-20)
(99.8325 2.62643 2.42885e-21)
(100.013 2.6981 1.17637e-21)
(100.029 1.57198 1.4859e-21)
(100.064 2.68551 -3.96057e-21)
(100.224 2.54728 0)
(100.097 1.4934 0)
(100.258 2.47257 9.00531e-21)
(100.348 2.1876 -6.74959e-20)
(100.136 1.29836 0)
(100.357 2.07962 1.34114e-20)
(100.377 1.74287 3.48708e-20)
(100.144 1.05028 -2.98504e-20)
(100.368 1.63151 -1.63398e-20)
(100.341 1.3131 0)
(100.129 0.805122 -7.76434e-20)
(99.4244 4.15825 2.53039e-20)
(99.7166 2.94021 2.18061e-20)
(99.5647 4.27522 1.54481e-20)
(100.036 4.40972 2.55028e-21)
(100.016 3.0957 -3.33338e-21)
(100.19 4.37944 0)
(100.587 4.09344 -3.47515e-20)
(100.292 2.91392 1.49924e-20)
(100.686 3.94717 0)
(100.882 3.42003 5.73457e-20)
(100.453 2.49276 4.89207e-20)
(100.914 3.22927 3.01969e-21)
(100.934 2.655 -1.46385e-19)
(100.489 1.97402 -1.30676e-19)
(100.918 2.46768 6.25678e-19)
(100.83 1.93994 -2.058e-18)
(100.442 1.47859 -8.06205e-20)
(98.7155 6.17221 0)
(99.2901 4.60989 -2.00996e-20)
(99.035 6.40764 -4.58059e-21)
(100.125 6.64475 9.9313e-23)
(100.049 4.90368 1.29262e-21)
(100.475 6.56299 -1.39754e-20)
(101.312 5.94882 0)
(100.724 4.52179 3.59976e-20)
(101.502 5.66188 -2.13654e-19)
(101.82 4.70237 1.06883e-18)
(101.07 3.73659 0)
(101.855 4.37232 1.59055e-18)
(101.814 3.45392 -1.94012e-18)
(101.12 2.86868 -2.40447e-19)
(101.764 3.17749 0)
(101.559 2.44243 0)
(100.991 2.08206 0)
(97.1846 9.06758 8.79904e-20)
(98.4423 6.78623 0)
(97.911 9.61716 3.19294e-20)
(100.49 10.0055 -2.26854e-20)
(100.173 7.34364 1.92744e-21)
(101.261 9.72737 0)
(102.829 8.23528 7.13703e-19)
(101.59 6.47901 -2.72716e-19)
(103.116 7.63805 4.54719e-18)
(103.433 5.91624 2.5183e-19)
(102.147 5.01646 1.95375e-18)
(103.401 5.39389 2.69292e-19)
(103.099 4.03627 4.0447e-19)
(102.096 3.62808 4.15023e-19)
(102.958 3.65322 -2.65561e-19)
(102.499 2.69196 -3.76289e-19)
(101.774 2.5325 -2.06807e-19)
(92.8646 15.0237 2.99985e-20)
(96.527 10.0366 -3.15714e-20)
(93.8695 16.1138 -6.31068e-19)
(102.4 15.9885 -6.95657e-20)
(100.714 11.1627 1.053e-20)
(103.99 14.7845 -2.29783e-18)
(106.165 10.7299 -1.41304e-18)
(103.437 8.86268 1.69288e-18)
(106.299 9.54548 3.71675e-19)
(105.948 6.67548 -8.04053e-19)
(103.967 6.17502 2.9431e-19)
(105.696 5.92167 3.82586e-19)
(104.804 4.13212 1.43184e-18)
(103.488 4.11995 4.4262e-19)
(104.495 3.66763 7.07817e-19)
(103.615 2.56486 3.17073e-19)
(102.766 2.70047 -1.60824e-18)
(88.4304 23.7524 9.9816e-20)
(99.3448 26.0093 1.96441e-18)
(98.2334 19.1726 -7.79306e-20)
(107.926 18.9782 -1.63291e-18)
(108.577 15.4811 -2.87693e-18)
(106.639 14.531 -1.01706e-18)
(111.625 9.68626 -1.05172e-18)
(109.307 6.07312 -5.20378e-21)
(106.733 6.694 2.76457e-18)
(108.594 5.23838 2.75875e-19)
(106.699 3.40015 2.41006e-19)
(105.277 4.03808 0)
(106.148 2.95253 3.66497e-19)
(104.727 1.93824 -2.87491e-19)
(103.902 2.45791 3.34697e-19)
(123.82 18.1594 -6.16938e-19)
(119.891 13.2044 2.6175e-19)
(115.781 15.3051 8.36211e-19)
(116.958 5.66552 0)
(112.318 3.3619 -9.52285e-20)
(110.161 5.59952 -8.17641e-20)
(111.123 2.8294 0)
(108.246 1.67435 -2.05489e-19)
(107.145 3.05989 -1.27341e-19)
(107.473 1.39901 5.92284e-19)
(105.572 0.791362 -2.206e-19)
(104.976 1.69503 -7.4294e-20)
(131.615 3.52953 1.13607e-19)
(125.807 3.0744 3.81819e-19)
(124.663 7.34256 -2.33397e-19)
(118.613 -0.95229 0)
(113.412 -0.759395 8.51916e-19)
(112.81 2.40339 -2.80176e-19)
(112.065 -0.738552 -9.41982e-20)
(108.836 -0.71892 -1.20435e-18)
(108.5 1.1156 0)
(107.975 -0.716001 6.09859e-19)
(105.875 -0.699859 0)
(105.706 0.439095 2.03039e-19)
(127.813 -9.191 0)
(123.737 -6.89542 -2.96656e-19)
(125.193 -3.61408 -6.55205e-19)
(116.474 -6.77108 1.90889e-18)
(112.289 -4.68929 1.34475e-18)
(113.319 -1.81555 0)
(111.137 -4.19771 1.74905e-19)
(108.273 -3.11484 1.39608e-19)
(108.799 -1.34349 1.1963e-18)
(107.486 -2.84697 0)
(105.53 -2.22136 -1.70874e-20)
(105.849 -1.09116 9.08014e-19)
(120.092 -15.7875 -1.63609e-20)
(117.938 -12.8538 -4.26542e-19)
(120.292 -11.1865 4.53821e-20)
(112.391 -10.2921 -1.37235e-18)
(109.73 -7.39039 -3.0994e-19)
(111.744 -5.50105 1.37809e-18)
(108.932 -6.65725 -1.46571e-19)
(106.822 -4.96286 6.20717e-20)
(107.977 -3.64297 -1.26433e-18)
(106.211 -4.52608 -5.66945e-20)
(104.636 -3.48312 -3.86965e-19)
(105.351 -2.57076 0)
(112.092 -17.8828 -1.59931e-20)
(111.939 -15.4768 6.45845e-19)
(113.601 -15.18 -2.08622e-18)
(108.982 -7.83147 -4.74012e-20)
(106.373 -5.30448 2.8379e-20)
(104.352 -3.73605 0)
(130.856 14.6032 8.59654e-19)
(133.774 17.0062 -1.94775e-19)
(135.601 13.0757 -1.98078e-19)
(118.386 26.3434 -3.64614e-19)
(121.647 25.7135 -2.95193e-19)
(120.598 22.7052 2.14251e-18)
(133.17 -2.34727 3.10669e-19)
(136.004 -2.6929 0)
(134.923 -5.6078 -3.93647e-19)
(136.032 11.7273 0)
(136.852 7.85837 -5.24142e-20)
(133.442 7.94105 -2.43082e-19)
(126.228 -13.3599 2.88039e-19)
(127.924 -14.614 1.15138e-18)
(126.122 -15.9212 0)
(134.495 -6.53566 5.70457e-19)
(133.045 -9.02534 -1.04706e-20)
(131.102 -7.38504 -3.81714e-19)
(117.583 -18.1474 -7.91724e-19)
(118.09 -19.3381 2.52994e-20)
(116.953 -19.611 -1.16587e-18)
(125.032 -16.1725 2.91169e-19)
(123.86 -16.8935 -5.33173e-19)
(123.01 -15.7421 5.46306e-19)
(115.821 -19.816 3.78795e-19)
(114.697 -19.9576 1.75633e-18)
(114.381 -18.8075 -1.39671e-18)
(39.1425 38.1724 -6.17351e-17)
(39.3717 23.954 -3.64632e-17)
(33.3616 13.0945 -2.7197e-16)
(85.7176 20.5017 -6.23448e-19)
(59.1183 68.9787 5.62633e-18)
(46.1104 55.3232 0)
(112.801 23.0925 -1.39479e-18)
(112.24 25.733 0)
(115.198 26.3037 6.1169e-19)
(99.8914 19.0009 -1.66388e-19)
(102.109 24.9068 9.55585e-19)
(107.134 20.426 1.48165e-18)
(135.589 31.3142 0)
(136.683 32.3092 0)
(137.614 31.3078 1.9699e-19)
(116.769 42.9349 -1.99615e-18)
(120.762 43.0552 9.46691e-19)
(120.535 39.3578 -1.05163e-18)
(123.995 8.64019 0)
(121.104 12.3524 -2.76667e-19)
(125.635 16.6934 -6.61853e-19)
(117.673 8.41278 0)
(119.797 10.1585 1.11397e-18)
(121.43 8.12679 -1.52988e-18)
(115.525 12.9549 -4.43839e-20)
(117.787 11.803 4.51197e-19)
(116.07 9.79312 0)
(143.942 2.42031 -1.69993e-18)
(144.472 2.29837 2.30441e-19)
(144.323 1.56027 -1.76595e-19)
(145.107 14.0695 4.01627e-18)
(145.156 13.1238 -2.38896e-19)
(144.308 13.042 -1.77224e-18)
(125.527 -2.33065 1.6153e-19)
(125.911 1.66989 0)
(131.594 1.64743 1.67922e-19)
(120.901 0.825975 1.09325e-18)
(123.585 0.998574 -1.56521e-18)
(123.443 -1.35119 1.21467e-18)
(122.61 5.83981 -3.24357e-19)
(123.322 3.42615 7.77801e-20)
(120.621 2.85603 -5.44424e-19)
(134.19 -15.1172 -8.7083e-19)
(134.375 -15.4978 6.58291e-19)
(133.975 -15.8004 -6.58033e-19)
(139.737 -9.48156 -1.11394e-19)
(139.39 -10.0211 4.287e-19)
(139.076 -9.58606 0)
(121.052 -10.3914 0)
(123.121 -7.94548 5.94428e-20)
(126.937 -10.3248 -6.55253e-19)
(119.116 -6.38768 -5.0796e-19)
(121.158 -7.37493 1.71627e-18)
(119.978 -8.94786 -3.04524e-20)
(122.95 -3.55604 0)
(122.168 -5.57323 1.12502e-18)
(119.916 -4.80224 9.40965e-19)
(123.523 -21.628 -5.1697e-19)
(123.653 -22.3384 3.29398e-19)
(122.972 -22.5846 7.80004e-19)
(127.962 -20.5654 9.49487e-21)
(126.922 -21.1029 -1.43921e-19)
(126.922 -20.1099 -7.40362e-20)
(110.259 -28.1318 -1.64697e-19)
(110.475 -28.1382 0)
(109.141 -28.3079 0)
(114.312 -23.5669 6.27345e-19)
(114.157 -25.6015 -1.43516e-18)
(112.1 -25.5284 6.11513e-19)
(116.948 -23.9952 7.72429e-19)
(116.281 -24.0694 -3.72133e-19)
(116.256 -23.3839 0)
(143.902 15.7967 3.27467e-19)
(144.877 16.0072 -8.58556e-19)
(145.023 15.0318 -1.7832e-18)
(138.472 30.2426 0)
(139.248 29.2031 0)
(138.146 28.3661 -5.10756e-20)
(129.913 21.9615 -6.97899e-19)
(132.97 18.3226 1.84808e-19)
(129.395 16.7035 3.52378e-19)
(137.622 25.8854 8.30732e-19)
(135.689 24.4904 -1.68194e-18)
(134.338 26.0935 -4.14364e-20)
(140.611 14.5649 -4.58485e-19)
(140.106 16.2074 4.40029e-19)
(142.416 17.359 4.17246e-19)
(140.058 -7.96223 -3.56454e-18)
(140.404 -8.34906 1.84945e-18)
(140.076 -8.92509 3.79313e-18)
(144.168 0.815451 -4.78061e-19)
(143.98 0.0543961 2.31114e-19)
(143.477 0.215889 -1.08341e-19)
(136.881 1.73187 -1.08167e-19)
(136.278 -1.61922 -4.15395e-19)
(133.077 -0.828901 -2.13106e-19)
(142.433 -0.927082 -3.37243e-18)
(140.613 -0.324961 -1.05267e-19)
(140.896 1.55698 0)
(138.348 -7.12654 -1.07492e-19)
(138.884 -6.06229 -4.14758e-19)
(140.219 -6.52287 -8.49074e-19)
(143.594 11.2021 1.82359e-18)
(141.298 11.3465 1.73226e-19)
(141.007 12.9415 -5.62093e-19)
(140.99 2.22807 -5.27414e-20)
(141.166 4.23184 1.07743e-19)
(143.449 4.073 1.71337e-18)
(133.083 6.13483 9.89167e-20)
(136.964 6.60466 7.95074e-20)
(136.981 2.90124 1.08255e-19)
(128.984 -18.9302 6.84181e-19)
(129.328 -19.7547 0)
(128.304 -20.3644 -9.58247e-21)
(133.58 -16.1138 8.77204e-20)
(133.184 -16.4 6.25804e-19)
(133.035 -15.9778 -4.18425e-19)
(130.268 -12.4767 -1.57371e-19)
(128.51 -14.1117 -1.49201e-19)
(127.273 -12.3899 1.26429e-18)
(132.198 -15.8215 -5.21366e-19)
(131.72 -15.084 0)
(132.42 -14.506 -3.34913e-19)
(126.64 -16.5639 8.28199e-19)
(128.503 -15.2449 -2.84244e-19)
(130.074 -17.3454 7.26041e-20)
(138.01 -10.2148 -3.30693e-21)
(137.175 -9.10823 3.99037e-19)
(137.776 -8.14305 -3.10543e-19)
(133.125 -13.8861 -1.66764e-19)
(133.834 -13.2143 8.52617e-20)
(134.735 -13.9795 -8.18859e-20)
(130.225 -8.81788 1.84506e-19)
(132.518 -9.80187 -3.43864e-19)
(130.842 -11.8494 0)
(118.215 -23.1031 -3.95435e-19)
(118.281 -23.7954 1.43768e-20)
(117.615 -23.9034 4.13569e-19)
(122.294 -22.8149 8.70181e-19)
(121.618 -23.02 -5.01021e-19)
(121.504 -22.3015 2.28767e-19)
(111.416 -25.4616 0)
(110.021 -28.1164 2.76469e-21)
(110.267 62.4664 1.54125e-18)
(115.011 63.7795 -3.45245e-20)
(115.72 59.0871 3.55264e-20)
(115.306 -14.6793 0)
(117.138 -13.4176 1.67441e-18)
(119.074 -16.2705 4.60525e-19)
(114.648 -10.8951 0)
(115.832 -12.3472 8.04752e-19)
(114.352 -13.0537 -1.55134e-18)