/*--------------------------------*- C++ -*----------------------------------*\
| =========                 |                                                 |
| \\      /  F ield         | OpenFOAM: The Open Source CFD Toolbox           |
|  \\    /   O peration     | Version:  v2012                                 |
|   \\  /    A nd           | Website:  www.openfoam.com                      |
|    \\/     M anipulation  |                                                 |
\*---------------------------------------------------------------------------*/
FoamFile
{
    version     2.0;
    format      ascii;
    class       surfaceScalarField;
    location    "1.24";
    object      phi;
}
// * * * * * * * * * * * * * * * * * * * * * * * * * * * * * * * * * * * * * //

dimensions      [0 3 -1 0 0 0 0];
oriented        oriented;


internalField   nonuniform List<scalar> 
6464
(
0.4582562018
0.00206896627
-0.002103068242
0.4583428792
0.002095189012
-0.002044526166
0.4584235515
0.001950974674
-0.001834174443
0.4584713202
0.001697854286
-0.001540349075
0.4584850818
0.0013902673
-0.001238355602
0.4584925583
0.001060797259
-0.000980789352
0.4584650261
0.0008657632616
-0.0007175843254
0.4584704264
0.0005971578935
-0.001559542959
0.9187208534
3.793904717e-05
-0.0005492494536
-0.0009765109038
0.9187669679
4.721995003e-05
0.9158262692
0.91384722
-0.003291528867
-0.2289800504
0.2287715499
0.003500005767
-0.004214867218
-0.2291728217
0.2291275926
0.004260096351
-0.004101027711
-0.2293147442
0.2293787437
0.004037028179
-0.0036565366
-0.229408105
0.2295545927
0.003510048961
-0.00301787715
-0.2294326997
0.229610076
0.002840500799
-0.00235870706
-0.2294052083
0.2295715585
0.002192356803
-0.4589144014
-0.00341477443
0.4603951441
0.001934031667
-0.0005793359916
0.4610200292
-0.001147790201
-0.459292903
-0.00124845638
0.9184298112
0.0001355726746
0.001403925902
-0.0007656932954
0.9182842049
0.0004606477985
0.9145999281
0.9143078678
-0.2273622709
0.03475243094
0.2268485594
-0.03423902193
-0.2208788491
0.02915088647
0.2180330207
-0.02630109841
-0.2223620597
0.01447013485
0.2174543796
-0.009557944353
-0.2302467534
-0.005928843879
0.2295699456
0.00660574829
-0.2303901236
-0.005602714045
0.2307381029
0.005254734738
-0.003962544522
-0.2303428815
0.2310397492
0.003265676819
-0.4630911509
-0.0007241968408
0.4620248486
0.001790499096
-0.4601857679
-0.001831001517
0.4602670266
0.001749742785
0.0007759854046
0.9205259399
-0.00164001149
-0.001232102594
0.001988617637
0.9170715726
0.0009279606053
0.9156605851
0.9152358284
-0.2253757832
0.04537225884
0.2249485233
-0.04494721493
-0.2110959723
0.04235468998
0.2096472832
-0.04089914409
-0.2042496861
0.03377942489
0.2008143071
-0.03033117495
-0.2121695304
0.01675717669
0.2067811888
-0.01135791396
-0.2343932378
-0.001380375942
0.236501018
-0.0007267350679
-0.004398332375
-0.232003947
0.2320625555
0.004339723885
-0.4621619821
-0.00670025657
0.4635507953
0.005311443282
-0.4611076552
-0.00394000248
0.462241284
0.002806373665
0.003770429103
0.9209224629
-0.002193895393
-0.001973056739
0.002553772804
0.9182882289
0.001181816706
0.9170325412
0.9164176451
-0.2240064053
0.01925279135
0.2238257716
-0.01907519738
-0.209154144
0.02166586976
0.2106944075
-0.02319901003
-0.1950664507
0.02696933674
0.1950552542
-0.02694064213
-0.2052643045
0.03440380929
0.1961288845
-0.02524271247
-0.2135909521
0.008950975923
0.2087601651
-0.00410646279
-0.006360356867
-0.2336326471
0.2342656125
0.005727391456
-0.4654171607
-0.007875169568
0.467234223
0.006058107289
-0.4633455063
-0.004701685336
0.4644982726
0.003548919023
0.004620764403
0.9233140984
-0.003883880613
-0.003128519326
0.002573597375
0.920335396
0.001171543116
0.9184345955
0.9175891882
-0.2230752183
-0.0308028919
0.222855386
0.03102224468
-0.2229569802
-0.01824975007
0.2278915576
0.01331979222
-0.2076533344
0.007869666934
0.2098113514
-0.0100082737
-0.1880480554
0.01244152919
0.1881922527
-0.01255611102
-0.1978180424
0.008612453768
0.195487769
-0.00625728916
-0.00319943528
-0.232390291
0.2302860913
0.00530652306
-0.4688902695
-0.008196972462
0.4705888596
0.006498382386
-0.4652665903
-0.005233842555
0.4659926461
0.004507786778
0.003923172656
0.9261093938
-0.003245253753
-0.00347321424
0.00216531141
0.9220932572
0.0009138606382
0.9196860462
0.9185030488
-0.02750634665
-0.1088103561
0.1082240818
0.02809262104
-0.02236472748
-0.2490222951
0.04251926347
-0.02276946328
0.1253951673
0.1262420552
-0.02316864755
-0.2223086462
0.2286615037
0.01682965301
-0.192666128
-0.005485398509
0.1970097823
0.001173200042
-0.1931590311
0.004732775541
0.192442364
-0.003979997683
-0.0003613771371
-0.2215125252
0.2196695557
0.002218393734
-0.4723014021
-0.007041786834
0.4734722728
0.005870916165
-0.4671535634
-0.004474994302
0.4682870091
0.003341548558
0.002369613242
0.9281341087
-0.002044535981
-0.00234979222
0.00115151581
0.9233113546
0.0004449617878
0.9203926003
0.9189480106
-0.02968013422
-0.1380647213
0.1408200348
0.02692482079
-0.02943037757
-0.2490841426
0.2546032196
0.0239200929
-0.2043933059
-0.01304425198
0.2068309861
0.01064176061
-0.1934546251
-0.005765809187
0.1945373537
0.004723013669
0.0004477473599
-0.2172570562
0.2165383504
0.0002950215833
-0.4749750196
-0.00424850462
0.4761974292
0.003026094998
-0.4691823503
-0.002175137264
0.4699169218
0.001440565842
-0.0001319847436
0.9290835397
-6.583119083e-05
-0.0007516150301
-0.0003712776977
0.9235506476
-0.0002550239673
0.9202763465
0.9186929866
-0.01325487243
-0.1538344266
0.1544452022
0.01264409685
-0.01662048126
-0.2671966016
0.2694808219
0.01434252589
-0.2144314763
-0.008260325203
0.2162164481
0.006518620866
-0.197774571
-0.002282423435
0.1987630883
0.001347678532
0.0001625547454
-0.216700409
0.2167696303
-0.0002020080891
-0.4775703
-0.0002219716432
0.4785963348
-0.0008040631993
-0.4702766424
0.001265456752
0.4704384153
-0.001427229633
-0.003144963232
0.9284014347
0.002233311044
0.001593757168
-0.002225821953
0.9226315063
-0.001158257361
0.9192087819
0.9175347293
0.004418125345
-0.152369407
0.151436936
-0.003485654333
0.0005698060952
-0.269375369
0.2677499449
0.001063679846
-0.2182319851
-0.002726476107
0.2184408632
0.002568738636
-0.2015474474
-0.001061877326
0.2022797029
0.0003913895206
0.001447165304
-0.2185976088
0.2191017811
-0.001918084996
-0.4785141233
0.005182508257
0.4778407552
-0.00450914011
-0.4701638459
0.004218295987
0.4703441123
-0.004398562388
-0.006449597325
0.9260265324
0.004803570086
0.004020929568
-0.004222917576
0.9204048266
-0.0021282482
0.9171141126
0.9154064811
0.01411625351
-0.1431317103
0.1418138593
-0.01279840254
0.01242325007
-0.2590477696
0.2550061087
-0.008365409745
-0.2163465379
-9.680531301e-05
0.2177310708
-0.001228289604
-0.2040918752
0.001602546012
0.2047010988
-0.002142072096
0.004161276269
-0.2219936979
0.222644381
-0.004778440095
-0.4767097113
0.01022686361
0.4751828107
-0.008699962994
-0.4703179754
0.007366454633
0.4691252106
-0.006173689902
-0.009489000228
0.9222364769
0.00692284255
0.006356213201
-0.006137318117
0.9170531445
-0.003012773376
0.9139895678
0.9123937077
0.01755955305
-0.1328819967
0.1315954151
-0.01627297149
0.01719264857
-0.2433004878
0.2392527312
-0.01311365098
-0.2145834838
0.008176601771
0.2104186633
-0.003936797748
-0.2059034747
0.001343862829
0.2060503047
-0.001419590554
0.006361179038
-0.2253011521
0.2261067402
-0.007138289186
-0.4733347968
0.01423236883
-0.01210260932
-0.4678220044
0.01026542797
-0.008693729542
-0.01213238131
0.007426291233
-0.007778511008
-0.003774223483
0.1569015858
0.01583622132
-0.1559727041
-0.008106009031
-0.008659093981
-0.1390070095
-0.03289354949
0.1422204247
0.1545402648
-0.002586070756
-0.1555499544
0.001982462992
0.001613297373
0.1574669328
-0.006647991267
-0.007172228108
0.1442432216
-0.01339530525
-0.1456347644
0.007463581631
0.007323266407
0.1534514046
0.002935168361
0.002571817149
0.133324621
-0.01733432031
-0.1345905062
0.01860020545
0.01552187755
0.1428375976
0.01906655057
0.1318176235
-0.1055251352
0.1042262602
0.03000436825
-0.1356168296
-0.03339454811
-0.1225875273
-0.02391148062
0.1241342804
0.04187737309
0.009146992087
-0.04156042848
-0.009463936703
0.02436427785
-0.07024058063
-0.02649787259
0.07237417537
0.01494408053
-0.1529422859
0.280148839
0.02089119294
-0.2775160035
-0.02352388303
-0.2630142363
-0.0352312548
0.2688167087
0.04818608929
0.0008064057109
-0.04827440605
-0.000718088946
-0.04496910116
0.003504781252
-0.002899814976
0.04436413488
-0.001786150297
-0.1531693274
0.2815054468
0.003538686061
-0.2824177522
-0.002626354902
-0.01830058818
0.281829003
0.0389019104
-0.004239446543
-0.03925331204
0.004590848182
-0.04194264201
-0.001686671026
0.001233911951
0.04239540109
-0.01207767213
-0.1444493434
0.2714746459
-0.01008262016
-0.274881753
0.01349106045
0.00214528151
0.2799300679
0.07014172025
-0.01102629162
-0.07063429168
0.01151886305
-0.073809367
-0.01011256376
0.07334936577
0.00535755065
0.005215014344
0.008133829231
0.03075123427
-0.007837450889
-0.03104761261
0.06372718369
-0.01142741421
-0.0641569527
0.01185718322
-0.06684022487
-0.01164006428
0.01200850238
0.06647178678
0.004058072676
-0.04532949295
-0.00369768089
0.00878431059
-0.009000461235
0.04209352374
-0.1508746045
0.0232552251
0.1529817726
-0.01245050631
-0.01291188686
-0.08190533914
-0.008400965689
0.08264290011
0.01644771531
0.04382562589
0.004216305734
-0.04398385895
-0.001504695418
-0.04147509289
0.001037146295
0.000154492532
-1.183267298e-05
0.04804342943
-0.07835930974
0.001991826696
-0.001959322834
0.07832680588
-0.04678308907
0.04659964229
0.0003379393196
0.04135347579
-0.001741564891
-0.04111660632
0.04350970122
0.003820705926
0.0008118514352
-0.0467885348
0.002696767131
-0.07848604341
-0.002570033461
-0.009922518837
-0.07429865085
0.005226054756
0.005185747926
-0.004109130608
0.004286398822
0.03872464219
-0.1497344872
-0.0102778396
0.1483741585
0.00593638565
0.00570178261
-0.0773933578
0.004094361938
0.07688008337
-0.007690218115
0.07360083055
-0.009470586024
-0.07405276336
0.04157463336
-0.001907828597
0.004082548746
-0.00741963171
-0.03926865713
-0.03902706425
-0.009062179284
-0.1509765911
0.005270123235
0.005034159916
-0.01155097891
-0.06729011534
0.01200086938
-0.01126205674
0.01165143721
0.06975233978
-0.02940581578
-0.007463612298
0.007028638916
-0.02976788974
0.008495903198
0.01167553584
-0.007442250288
0.03048313937
0.01279518796
-0.0432591142
-1.921313225e-05
0.01912190275
-0.03549985742
-0.02109869579
0.03747665047
0.04537460781
-0.007701876664
-0.03750381803
-0.0001689131188
-0.01613537045
-0.1340809465
0.2539233367
-0.01670197962
-0.2587902846
0.02157936077
0.01631140406
0.2675890686
0.03882873929
-0.007433732809
-0.03120093379
-0.0001940726932
0.06480021679
-0.01326197259
-0.0653825093
0.006954429005
0.006889836096
-0.03330443905
-0.006635668432
0.00672671897
0.03321338852
-0.07026012203
0.07199221624
0.02263218363
-0.009426150951
0.01758388293
-0.08091607903
0.02540144905
-0.1483091662
-0.0138077195
-0.01415916789
-0.006682068278
-0.03344737406
0.006825003289
-0.03541576096
-0.006852094401
0.007302682976
0.03496517238
-0.1387117064
-0.016475688
0.01786800829
0.1373193861
-0.07017815305
0.06970976132
-0.01079366501
0.06687777507
-0.01112647491
-0.06730227906
0.0731687027
-0.009680435909
-0.01065350132
-0.07055094335
-0.01601464785
-0.1401069583
0.01740989977
0.01930453316
-0.05230223432
-0.01805133876
0.05104903992
0.02429520752
-0.06822062084
-0.02631516731
0.03635710066
-0.1217701367
-0.01885925115
-0.02014053114
0.06161846496
0.06279435343
-0.05593111796
0.05495899046
0.02027666066
0.03091525314
-0.0004321137674
-0.07826679651
0.02202588722
0.08006800031
-0.01179407278
-0.01203301824
-0.04155682787
0.05669171825
0.01578036277
-0.0353218171
0.03691187073
0.01753184912
0.01458718993
-0.04334882985
0.02296961247
-0.07641204783
-0.01230771903
-0.01251664211
-0.0405629589
0.00254963682
-0.002541373514
0.04055469559
0.002236699745
-0.04086760276
-0.001932055881
-0.03954269217
-0.003216758215
0.003127760692
0.03963168969
-0.003450691793
-0.03984489455
0.003752894176
-0.006165774663
0.03635302295
-0.03540926983
0.005222021552
-0.009687150916
0.02206148759
0.03300027114
-0.07195045257
-0.01074732441
0.01113101584
0.07156676114
-0.03823560182
0.03638756309
-0.007839112195
0.03631313018
-0.006372586044
-0.0361063188
-0.0341033131
0.03813884844
-0.003806999095
-0.0002285362389
-0.006877982273
-0.03905949621
-0.01059138578
-0.0723745002
0.005541846568
0.005473586842
0.06286290001
-0.01296745195
-0.06335879267
0.01346334461
-0.01322621188
0.06426376934
0.006890173244
0.00687248608
0.01899738688
0.02887068839
-0.009039335975
-0.04321279568
0.00612808055
-0.005913166165
0.0429978813
0.006540364675
-0.04324040405
-0.006512756306
-0.03922557163
-0.0009727606021
0.0008610593454
0.03933727289
-0.001324318052
-0.03940174376
0.001500490186
0.04006939049
-0.001046342229
-0.04034736632
0.08043837891
-0.0003763919561
-0.08071803681
0.0006560498511
-0.08139566558
0.00155787869
-0.001375028275
0.08121281516
0.07925536216
-0.002621153047
-0.07957287758
0.002938668471
-0.0009692046772
0.001247476989
0.0801601066
0.04005683317
-0.0009602032754
0.04128611699
0.002377556882
-0.04142697412
0.08171512761
0.005183240114
-0.08173381595
-0.005164551775
-0.08154549787
0.007553972707
-0.007668661871
0.08166018703
0.002248392906
-0.08154212275
-0.002101935731
0.004430994291
-0.004400805198
0.08168493852
0.04141104245
0.002424711353
-0.03796790832
-0.004640245567
0.004819022518
0.03778913137
-0.001875938409
-0.03215692899
-7.044570944e-05
-0.004667088727
-0.03818783028
0.004887010693
0.006158131421
0.03647535457
-0.006320355816
0.00694500846
0.03489740405
-0.00663524179
-0.03520717072
0.06849080957
-0.01142648056
-0.06891178111
0.01184745211
-0.03591025043
0.007439497934
0.005490743716
0.03702041065
0.01922510441
-0.0002277175324
-0.01288182101
0.01323441756
0.03511750087
-0.03810394891
0.002986448038
0.03444482861
-0.007004387979
-0.03451690007
0.007076459444
-0.03210004389
-0.006969941258
0.006639524414
0.03243046074
-0.004194663479
-0.01247746209
0.01333368098
0.003338444588
-0.00768014315
-0.03306426184
0.008644361094
-0.03029050892
-0.007692964229
0.006430114632
0.03155335852
0.02531540139
-0.04797435967
-0.02362194796
0.02272359894
0.02355730731
0.0184876408
-0.03377445832
-0.0202130399
0.02674248495
-0.05789154338
-0.0283523362
0.05950139464
-0.05233892574
0.02791753556
0.02411283863
0.02562395294
-0.04540397463
0.003840245225
-0.005739891213
0.04730362062
-0.04067044178
0.03994174283
0.0008760433774
-0.0001473444274
0.03887007657
0.0005908637824
-0.03910907157
-0.0003518687814
0.04241216714
0.002636840461
-0.04302800936
-0.002020998246
-0.04030407737
-0.00368506435
0.003824888288
0.04016425343
-0.04228747779
0.003507970521
0.04267172145
-0.003892214178
0.03756800253
0.0069081591
-0.005973421441
-0.03850274018
-0.0371811542
0.03730799651
-5.400262953e-06
-0.000121442048
0.04293129792
-0.003527484254
-0.03918613534
-0.0002176783235
0.04258765119
-0.002967099969
-0.04291459412
0.003294042901
-0.0435767317
0.005928449137
-0.006851265039
0.04449954761
-0.03950536619
-0.02758273795
0.05573274484
0.01135535931
0.001838174737
-0.04231524341
-0.0001933731044
0.04251657996
0.006464605534
-0.04244082082
0.08044133318
0.01179239375
-0.08001126492
-0.01222246202
-0.07821192912
0.01427580796
-0.01495749931
0.07889362046
0.008386646928
-0.08137003011
-0.00856211469
0.01092611538
-0.01129761619
0.08081283399
0.04249519069
0.006149469815
-0.04023110091
-0.001131866236
0.0007478838885
0.04061508325
-0.03671712647
0.03680824278
0.0001614737221
-0.0002525900369
0.0001275803291
-0.03703640037
-0.0002723341601
0.04469093476
-0.002715626286
-0.04671114375
0.004735835268
0.003658002514
0.03823904556
-0.004329045549
0.002566099193
0.04145747154
-0.00349985717
-0.04052371356
0.03879008213
-0.004235487702
-0.03874673983
0.004192145399
0.07543760376
0.004557167455
-0.008601493603
-0.07606036634
-0.007296607135
0.07452771535
-0.07493691261
0.007705804403
-0.07615700126
-0.006412310521
0.006815090462
0.07575422132
0.03961941045
-0.003197207635
-0.03987289461
0.07776546989
-0.004543516193
-0.07818406576
0.004962112062
-0.003137653622
0.003466097244
0.07892691853
-0.006052967414
-0.07657774478
0.006473710931
-0.004953650351
0.00533371258
0.07738540766
0.03957979119
-0.003177138959
-0.01147062355
0.01183010602
0.0681313271
0.03463526947
-0.006589959827
0.06657623326
0.006675271241
-0.01289028248
-0.0670432903
-0.03813271413
-0.009481248107
0.0191284151
0.02848554713
-0.04084101804
0.01880806809
-0.01923784521
0.04127079516
-0.03120909314
0.04079411139
0.02553248263
0.01907070403
-0.04006614084
-0.01984558123
-0.02895600746
-0.002284858699
0.03142081887
-0.0001799527044
-0.006142503426
-0.02259045538
-0.0002230486513
0.03347892421
-0.007314639019
-0.03365230863
0.007488023442
-0.007500040499
0.008053182899
0.03389168621
0.01972643666
-0.01946510721
-0.0002613294503
0.01462840428
-0.01763760963
0.002512417612
-0.01386875393
0.01324365161
0.002087274762
0.006654667411
-0.03153951444
0.0328274728
-0.007942625766
0.009320049469
0.03326942134
-0.008166449014
-0.0344230218
0.03409301992
-0.006775357646
-0.03441154933
0.007093887055
-0.04126370778
0.02029324833
-0.02112662845
0.02794861355
-0.0001673176927
0.03103355263
-0.03049561811
-0.0005379345208
0.04511993888
0.01255157068
-0.04405617797
-0.01361533159
-0.04170574102
0.01329379723
-0.01407039955
0.04248234334
0.0468093682
0.01157224916
-0.04483517752
-0.01354643984
0.0117590856
-0.01205762624
0.04541847952
0.01350127726
-0.04103468607
-0.0141723322
-0.03848288795
0.01433763102
-0.01518950109
0.03933475802
-0.04113191244
0.04235552478
0.01758445575
-0.03750386122
0.03664612566
0.001169301498
-0.0003115659354
0.0261456517
-0.02606214459
-8.35071124e-05
0.004363837392
-0.04301540258
-0.006752409446
0.002453895742
-0.00187823696
0.04183650836
0.03857334704
0.000521194021
-0.0002244644896
0.0006382314381
-0.03797332689
-0.0001687657623
0.0004236686113
-0.03752431648
0.0389136417
-0.001812993832
0.00106485793
-0.00218884189
-0.04116349383
-0.003441628684
-0.04015630773
0.003293859054
0.03759343385
-0.03618046949
-0.0003481064315
-0.03415070361
0.03512684336
-0.0005524711375
0.03553014609
-0.03512432623
0.006502339237
0.04148968001
-0.000388275643
-0.002159450502
-0.03186128827
-0.0001299648315
-0.003518232307
0.004384075438
0.04172180806
0.05077328636
-0.007631381965
-0.0002106064773
-0.003569378926
-0.03611438805
-0.03765921444
-0.007019800577
0.007604254851
0.03707476016
-0.005461877341
-0.03623314403
0.004035806934
0.03763221014
-0.006068536977
-0.03702555051
0.03592967127
-0.005982819088
-0.03603036624
0.006083514058
-0.03690816347
-0.005853887269
0.006280649476
0.03648140126
0.03394329494
-0.006909774486
-0.03317602388
0.03699543957
-0.005852168707
-0.03733942474
0.006196153875
-0.03807813233
-0.005349086684
0.005205912442
0.03822130657
-0.005804943321
-0.03714227171
0.006039051567
-0.005653976874
0.005647006242
0.0370024102
0.03600496298
-0.004346526739
0.007417466853
0.03244522777
-0.007619854378
-0.03224284025
0.03242157393
-0.007126440251
-0.03267078136
0.007375647678
-0.007358131383
0.00771036444
0.03312669116
-0.002226761596
-0.04584561861
0.04398357197
0.004088808237
-0.008216111732
0.008662925221
-0.03995217968
0.006030207519
-0.04295457752
-0.006652361706
0.02753806941
-0.0355164189
-0.0002377622421
-0.04195950176
0.03988568611
-0.0001529459441
-4.466854086e-05
0.04086387849
0.006106957555
-0.04350913343
-0.003461702613
0.009959992109
-0.01075262194
0.04760199802
0.005026735542
-0.04679042977
-0.0001958075388
0.009077321061
-0.008148159377
0.03993471681
-0.042328075
0.007621375202
-0.007900051091
0.04260675089
-0.04257393367
0.04293280894
0.008718445784
0.005898574327
-0.0467174574
-0.03610909668
0.03641285132
1.139529724e-05
-0.0003151499393
0.0002330685146
-0.03653713399
-0.0004130609863
-0.001013647645
-0.03988421763
0.0006667643686
-0.003210839945
0.005732394536
0.04216938017
0.02542403044
-0.02511368024
-0.0003103501946
-0.000569058526
-0.03547777337
-6.226478022e-05
0.03916275274
-0.005872865756
-0.03988366468
0.006593777693
-0.03779515785
-0.005143105826
0.004355567201
0.03858269648
-0.005180606958
-0.03766600873
0.004768483353
-0.006256138728
0.007400030145
0.03801886133
0.02307427543
-0.02268985541
-0.0003844200237
0.04154192742
-0.04017560962
0.00119978139
0.001970971224
0.03721717738
-0.006555190168
-0.03848243376
0.007242466078
-0.004259595673
0.003648459183
0.04215306392
-0.02084363028
-0.0002829981707
-0.03569401142
-0.006537301178
0.006285181138
0.03594613146
-0.02746165444
0.03060562843
-0.003029768722
-0.0001142052608
-0.009641423166
-0.04274172155
-0.006033744677
-0.02127814239
-0.0001497673697
-0.00693091184
-0.0359800643
0.007216964721
-0.03049692836
-0.0002183189156
0.02714929694
-0.13520965
0.02909491377
-0.2552363295
-0.03686973147
-0.2316150096
-0.03072037947
0.2391750855
-0.02545575526
0.02839080609
-0.002713219167
-0.0002218316674
-0.01983122784
-0.005447931651
-0.0001765957621
0.02201839769
0.2491119977
-0.0195277734
-0.0003034544391
0.0665104569
-0.01127274611
-0.02142079098
-0.1292575752
0.01142443997
-0.01751564989
-0.1292536139
0.01876790288
0.01723415205
-0.02028121907
-0.01632206975
0.01936913678
-0.02008424542
-0.009675350724
0.01840163655
0.0113579596
-0.006554483659
0.007461496402
-0.01338447483
0.02425745073
-0.02906958367
-0.03329181597
0.01903671886
-0.02672910262
-0.01980562865
0.02749801241
-0.02282824374
0.02143136564
0.01863103015
-0.127958092
0.02889528843
-0.03090350972
0.1299663133
-0.124622382
0.1261328878
0.03484659477
0.02252551681
-0.06849043132
0.01001833148
-0.04062615739
-0.01031362808
0.040921454
-0.04366086542
0.04414136712
0.0112785839
0.04589858564
0.01052821721
-0.04485455369
0.03128380023
-0.007021906512
-0.03149879835
0.007236904636
-0.007070623119
0.007464338476
0.03202785858
0.0315054067
-0.008541427034
0.006612173606
0.06609974756
-0.01277135633
0.06486525727
-0.01278772086
-0.06533950899
0.06528131845
-0.011585882
-0.06570221583
0.01200677939
0.04633105543
0.009527522325
0.007425085175
-0.04389206129
0.007841469234
-0.04223887102
-0.007930673214
-0.02653509294
0.005534933995
0.007984065699
-0.02949601694
-0.008255938501
0.03582724005
-0.02757869738
-0.0002644769717
0.01778805031
-0.006945370148
0.007073372911
-0.05738988116
0.01471332798
-0.0005825610178
-0.03345309685
-0.00381719143
-0.0002335297499
-0.0328731713
0.0329996826
-0.007560244108
0.004852468518
-0.03108159498
-0.006644044829
-0.0260990168
-0.0002494484698
-0.03325384127
0.03325956059
-0.006975660573
0.0340250417
-0.006934483197
-0.03409494648
0.03292962593
-0.006613592374
-0.0330286887
0.006712655147
0.01506319654
-0.07743241597
-0.01584270968
-0.07458778428
0.01712928862
-0.01816970735
0.07562820302
-0.0770592362
0.07853007661
0.02055504681
-0.006687024017
0.006997835004
0.03378220894
0.0332806231
-0.00770416598
-0.007271502933
-0.03366248149
-0.06382585414
0.022555484
-0.02351939223
0.06478976237
-0.06029972908
0.0611306119
0.02591160213
0.01717774602
-0.03401192232
0.01390834121
0.04331077915
-0.0005274021141
-0.04396116437
0.04368560277
0.01418390282
-0.04302998598
0.01484918437
-0.02924899689
0.02937544929
-0.0001264523955
0.009644191169
-0.03870295255
-0.0001902355107
0.007183369654
-0.03546563345
-0.007127006034
0.03328328576
-0.03221673555
0.006116819449
0.002994158735
0.03551114858
0.02219956966
-0.0001380820675
-0.006406920305
0.02866508973
-5.859977022e-05
0.03400079617
-0.007407445338
-0.006039114181
0.03523825463
-0.0353622274
0.006163086953
-0.005936558212
0.006134636727
0.03573159275
0.03724289391
-0.006630484342
-0.007550582436
0.04603430412
-0.0003448732487
-0.0392504946
0.03829437388
-0.006594461715
-0.03830815537
-0.004749338324
-0.007459955272
0.00593805808
0.03039258558
-0.03214550278
0.03242588469
-0.007740337172
-0.008185156163
-0.03307588105
0.03510720321
-0.001803258736
-0.0002280634286
-0.03042535399
-0.002340405586
-0.0003101214686
-0.03647072323
-0.003713370549
0.002385080027
-0.03448513569
-0.004370667563
-0.0296255624
-0.0001462865591
-0.02358338234
-0.006558283691
-0.0002836879614
-0.02338049668
-0.0002028856556
-0.004283480203
0.004425515479
0.03864804686
0.04166808952
-0.004470213651
0.03871685247
-0.005849239431
-0.03942280321
0.02547057965
-0.0003074171527
-0.03250095605
0.03996903762
-0.007232370176
-0.0002357113957
-0.003806823197
-0.0003033267583
0.03033731663
-0.02914572386
-0.004972149844
0.0325962473
0.03362792544
-0.006169614549
0.01022561839
-0.001503305794
0.004611368392
-0.0099394147
0.01327785929
0.004229070963
0.005996547427
0.007439125385
-0.03317510249
-0.007328284726
0.04002913617
-0.03230732579
-0.0002826849963
0.02713725437
-0.02055244251
-0.0001546972187
-0.005013864361
-0.0001562070629
-0.006635608339
-0.03062898925
0.01633246742
-0.01702159244
0.03131811426
-0.02885306836
0.02958119272
0.01830859451
0.02369404706
-0.03064568948
-0.04578317946
0.04203202474
0.003930529361
-0.0001793746438
-0.05362859974
0.008168713949
-0.000323293667
-0.04081009989
0.04044826057
0.0004397856882
-7.794637097e-05
0.001397826132
-0.0001759012774
0.0006307163457
0.03951527985
-0.0002042533628
-0.0448469377
0.04394466454
0.001532989513
-0.04594618462
0.001975290298
-0.04314627995
0.04248712251
0.001250021218
-0.0005314377715
0.001329822361
-0.0001252294959
-9.760880201e-05
0.03785470149
-0.0004490961782
-0.04256885128
0.04339795471
-0.0009267122382
-0.04198124814
-0.0005930034003
-0.04425151797
0.04431387222
-0.003589838504
0.0009706405972
-0.001824203849
-0.0003607932509
0.009085678473
0.04666771554
-2.064916797e-05
-0.0457210367
0.04745395349
0.007352761689
-0.04285412719
0.008488449799
-0.0471056471
0.00299763722
-0.004602307828
0.004950614209
-0.0002498357009
8.67167315e-05
0.03681359096
-9.206491131e-05
-0.04050279645
0.04090049968
-0.0003109864983
-0.04009246569
-0.0002488570404
-0.04143945
-0.0004142178092
-0.0002233386603
-0.000315611659
-0.000446148065
-0.040548095
0.0416674796
-0.0007539330345
-0.0003654515623
1.964130471e-05
-0.0001194757348
-0.04506414992
0.05261554221
-0.007241313457
-0.0003100788335
-0.003251715535
-0.0001449547823
-0.018112761
-0.0002129835532
0.01951857644
-0.0003901613315
-0.007768605182
-0.000291515764
-0.008779074987
-0.000324710686
0.03416157983
-0.05296142501
-0.0004380000246
0.03493146729
-0.0007698874666
0.0188123813
0.0404820687
0.0003120426881
-0.03588225178
0.05298569104
0.02337862944
0.02341570181
-0.03376547097
-0.03374296945
0.03352636862
0.000216600832
0.01942506152
-0.0001823399356
-0.001778629389
-0.0002536485929
-0.02219183492
-0.0003986204616
-0.006127014964
-0.0002455651711
-0.0296477276
-0.007560882344
-0.009143797196
-0.01346868969
-0.03329254896
-0.007717409549
-0.0002537492653
-0.0002591941818
-0.005166039622
-0.0001778957885
-0.04237288122
0.05808310745
0.0153233264
-0.01293731788
0.01425003943
-0.0001221568463
-0.01139250663
-0.04476449276
0.01132182187
0.04208590408
-0.04383421955
0.05791491353
-0.04641926609
0.008053303268
-0.000336989733
0.01214843545
-0.0004845940861
0.002843928655
0.03396999029
-0.0001677932851
-0.03892326251
0.03774198573
0.004025205439
-0.03988972358
0.002135762566
-0.03786626472
0.01038331669
-0.008113717619
0.007989438624
-0.0002058719229
0.0004757713824
0.03825483677
-0.0001572611132
-0.04184990872
0.04122647682
0.001099203284
0.001158407807
-0.04062185828
0.001370366139
-0.0005352181279
0.001139836668
-0.0002537082518
-0.001265704293
0.0001229003577
0.04005644563
-0.03934345252
-0.002276273247
0.04035402148
-0.03842862421
-0.002727822145
-0.0356271909
-0.0002978367029
-0.0002554418892
-0.0003774471822
0.02379244917
-0.04936742289
-0.009549352507
0.02404103516
-0.0002485859882
0.03097739322
-0.0004340188201
-0.007621630842
-0.0002561120339
-0.0247750244
-0.006975476649
-0.0001107872269
-0.02441515029
-0.0003598741064
-0.009636213594
0.03599434967
-0.04241879176
0.03945717406
-0.006674595898
-0.005736301505
-0.03807045839
-0.003927544744
0.007095515035
-0.005708799364
0.04424202565
-0.0363766787
-0.0002610921066
-0.009402123562
0.02142741366
-0.007792996853
0.02173670857
-0.0003092949072
-0.02803494331
0.03122671595
-0.0001976139045
-0.0001814152889
0.003034076909
-0.005266424764
0.03198367166
-0.0002845050172
-0.0003572001017
-0.03638111871
-0.006605664566
0.03607700879
0.009333554674
-0.007420299501
0.003765408253
0.04188037099
-0.001662207275
-0.04390612024
0.04255847551
0.005113052991
0.005304251333
-0.04512156334
-0.04178858012
0.007597378144
-0.005202158712
0.0059720541
-0.003273967401
-0.0382284344
-0.0005619518978
-4.95556968e-06
-0.003035208741
-0.04608027862
0.005606353926
0.03932946357
-0.04198990909
-0.0003747632201
0.0360373778
-0.000169616849
0.04740057124
-0.0002382796469
0.005726621327
-0.000315959171
0.007248340732
-0.05631787762
0.009817441563
-0.0002899937028
0.02795302386
-6.380543472e-05
0.02830658537
-0.0003535615056
0.01192342455
0.0001283925765
0.03654653607
-0.000262077329
-0.03895103229
0.03934412525
-0.000264700378
-0.03842599472
-0.0005136422757
-0.0396641686
-0.0001952285772
-9.564916142e-05
-0.0002243941845
-8.624708039e-05
-0.007397555054
0.03302490367
-0.0002033181824
-0.03700767804
0.03671690564
-0.007106782646
-0.00950581608
-0.03768998119
-0.001305072056
0.002211674471
-0.003184750025
-0.0002411952257
-0.03913434617
0.04698317555
-0.007756753369
-9.207600304e-05
-0.003874727835
-0.0001524151277
-0.006351742356
-0.0001995446094
-0.03378710699
-0.007049771062
-0.00949378685
0.0005276317023
-0.03877033138
-0.001932909944
0.03501242951
-0.03427642489
-0.000208372916
0.0365465952
-0.0003343843016
0.03333702347
-0.0003886590268
-0.0006494095969
-0.0002899918237
-0.002202563596
0.00983838851
-0.04085611157
-0.007464710705
0.03491956415
-0.04846167232
0.03560374654
0.04049413147
-0.0002990770826
-0.007757812363
-0.0002097284918
-0.006460860014
-0.004082931576
0.03489865174
-0.0002100917376
-0.03506432308
0.03658294088
-0.005601549374
-0.03280628058
-0.005287811225
-0.03623814188
-0.008211776821
0.03480849554
0.007582112521
-0.007237313522
-0.0002609572918
-0.03555733252
0.04334641957
-0.007564801453
-0.0002242856018
-0.004032275654
-0.0002983409165
-0.0316736879
-0.007166337352