/*--------------------------------*- C++ -*----------------------------------*\
| =========                 |                                                 |
| \\      /  F ield         | OpenFOAM: The Open Source CFD Toolbox           |
|  \\    /   O peration     | Version:  v2012                                 |
|   \\  /    A nd           | Website:  www.openfoam.com                      |
|    \\/     M anipulation  |                                                 |
\*---------------------------------------------------------------------------*/
FoamFile
{
    version     2.0;
    format      ascii;
    class       volScalarField;
    location    "2.33";
    object      p;
}
// * * * * * * * * * * * * * * * * * * * * * * * * * * * * * * * * * * * * * //

dimensions      [0 2 -2 0 0 0 0];


internalField   nonuniform List<scalar> 
3019
(
-769.1298733
-1002.075115
-1081.916186
-1062.058959
-1004.32
-940.1682591
-861.7858048
-818.4346806
-762.7750611
-744.7136478
-732.4769007
-726.5646155
264.0124633
-413.7558895
-681.6131614
-788.7666451
-814.789499
-802.3999015
-762.1269952
-738.9535013
-699.3635704
-688.3838092
-680.5057383
-676.7735102
235.4850722
-168.7288462
-435.8315423
-584.7196558
-653.4627039
-674.9360198
-663.9978808
-658.6768905
-633.7853819
-629.2941545
-625.6615598
-624.0019083
172.6987682
-89.20264689
-302.5115712
-444.8209622
-525.2269831
-564.3354696
-573.880723
-581.7285995
-568.9950785
-569.9996756
-570.0711615
-570.1820582
111.3628854
-68.84123082
-229.1248759
-348.3813376
-425.0942027
-472.0174993
-493.8069283
-510.4961051
-507.2541567
-512.520292
-515.4939084
-516.9460448
67.79681831
-63.18429622
-183.2254513
-277.5422504
-346.208781
-395.2784049
-424.1837486
-446.1416138
-449.8539455
-458.0871367
-463.1764679
-465.5801095
42.68142675
-56.65560008
-147.220108
-224.183917
-285.9076223
-333.3303965
-364.7827703
-389.1521102
-397.3694026
-407.4318212
-413.8939717
-416.9710031
32.67760406
-46.13109697
-119.7722037
-184.6623235
-239.0275298
-282.9167407
-314.3920442
-339.1732587
-349.9815038
-360.9603303
-368.1750124
-371.6116864
25.88145222
-38.60219755
-99.54054064
-154.4444818
-201.8554312
-241.4320598
-271.5803136
-295.5198704
-307.5417455
-318.7424797
-326.2191537
-329.7869368
20.61514473
-32.99560186
-83.99666542
-130.6492433
-171.8065653
-207.0281561
-234.9650448
-257.4220144
-269.6993838
-280.6315885
-288.0174198
-291.5481401
16.49599376
-28.57782906
-71.62944078
-111.4219532
-147.0722363
-178.1472054
-203.4950378
-224.1183603
-236.0150931
-246.3612899
-253.4206547
-256.7998127
13.23934207
-24.94064842
-61.49840501
-95.5339162
-126.3693516
-153.6183208
-176.2847093
-194.9226776
-206.0377536
-215.6089878
-222.1930451
-225.3472411
10.64076512
-21.84464604
-52.99870938
-82.15196161
-108.7810312
-132.5555587
-152.5948313
-169.2306157
-179.332111
-188.0296788
-194.0523307
-196.9385293
8.551233628
-19.14089838
-45.72484318
-70.69286667
-93.63731004
-114.2814979
-131.8247693
-146.5188292
-155.4894974
-163.2764147
-168.6968935
-171.2943197
6.859943493
-16.73263444
-39.39612871
-60.73902682
-80.44124087
-98.27360215
-113.4861645
-126.3405404
-134.1326068
-141.0120483
-145.8206478
-148.1238887
5.482932775
-14.55355837
-33.81001969
-51.98060608
-68.81268363
-84.11823402
-97.17335045
-108.3079579
-114.9176016
-120.9168661
-125.1235179
-127.1369108
4.355772154
-12.55650928
-28.81636009
-44.18267213
-58.45575391
-71.48402818
-82.54973903
-92.08751331
-97.53411009
-102.6936427
-106.3195715
-108.053025
3.428035031
-10.70594596
-24.29917214
-37.16061157
-49.13209449
-60.09246189
-69.33274965
-77.38831864
-81.70198974
-86.06761332
-89.13966608
-90.6059758
2.659601452
-8.973898412
-20.16631378
-30.76661765
-40.6493145
-49.70610788
-57.27554087
-63.95445864
-67.16290066
-70.78287997
-73.3292788
-74.54151631
2.01784768
-7.337351361
-16.34217217
-24.87933465
-32.85266166
-40.17201766
-46.13837153
-51.55374716
-53.69828407
-56.6160977
-58.6642557
-59.63652644
1.475710102
-5.775992859
-12.76132691
-19.39265405
-25.60181685
-31.33492588
-35.74186701
-39.97816697
-41.04504988
-43.31043947
-44.8802167
-45.61831354
1.010626315
-4.271445103
-9.366088497
-14.21180062
-18.76504523
-22.99133115
-25.94397991
-29.02173947
-29.22482228
-30.82813136
-31.94257466
-32.47193946
0.6039557098
-2.806463906
-6.103953154
-9.250890298
-12.22574457
-15.01550004
-16.56758158
-18.58824467
-17.41339374
-18.37514786
-19.03163113
-19.29269077
0.2414113513
-1.364409965
-2.926062273
-4.431702012
-5.875947651
-7.275698381
-7.398727807
-8.337350836
-8.039894019
-8.500973473
-8.819522167
-9.043399366
-822.4004897
-865.2020634
-1117.341379
350.916495
-773.9609081
211.4569023
-424.0425276
-1004.873754
350.7006074
364.6891503
-1023.724274
-33.06728805
-109.1807178
-165.8431908
-490.7786614
-878.413897
-1179.966985
-454.7243744
-1230.948878
-1233.446495
-1271.109064
-362.4936828
247.6132441
-111.7866852
-306.7487864
-921.4331842
-1181.120723
-1183.931669
-130.1736882
-382.9485698
-93.1136685
405.6182894
-1428.971529
-1439.036937
396.9050895
162.4063978
-1187.427161
-1008.023411
-1024.569295
-1010.960816
-1189.112423
-785.4619599
-961.302489
-540.9289185
-570.5037977
-735.7034125
-358.8781217
-516.8410059
-439.7112766
-1198.051536
-1391.05832
-1417.543377
-1199.153881
-1139.677325
-1212.287792
-974.6856845
-959.8171613
-792.6417266
-1561.357113
-1551.068072
-1438.730706
-1433.456213
-784.1204513
-798.8302781
-616.9169977
-623.4053319
-725.5685919
-160.3516036
-306.6145573
-1563.331009
-1424.92486
-1507.531738
-1026.424566
-1021.813719
-1012.017734
-1130.198994
-824.2215855
-801.6639896
-788.7888435
-950.2742785
-889.048102
-888.5836796
-548.2758249
-604.6726753
-600.3735625
-420.519814
-427.5173854
-475.0472998
-1351.194991
-1356.235254
-1412.537044
-1215.675318
-1280.512489
-1288.180383
-1204.557353
-1158.910255
-1139.241962
-1075.700965
-1054.370864
-993.2167269
-492.1248499
-595.3541165
-837.6893
-524.8081842
-725.6172132
-1074.178964
-766.7873513
-839.2960071
-1072.401156
-850.9307511
-861.7272103
-1020.154551
-859.8027607
-843.9731059
-955.8249494
306.603488
47.08130135
-71.39620274
-208.2972656
-429.6449648
-633.8231136
-484.4476621
-602.6765757
-771.9621445
-629.2654905
-680.9469176
-813.0816692
-690.6331161
-704.5072128
-807.6691208
260.9702924
332.8814622
190.8434359
-32.14111537
-79.56921473
-100.6513611
-279.3679486
-381.7657511
-328.8378201
-445.2583277
-556.4478845
-474.6493942
-539.4198009
-641.9278803
-554.2913876
-583.6908699
-672.3837633
175.1449403
236.6988326
125.1133973
-22.1421465
-26.65965788
-71.72064518
-204.7564914
-255.5173253
-243.850233
-342.8500812
-415.8428463
-369.6782691
-432.5124124
-509.8802354
-448.1330413
-484.1644433
-556.8566535
111.5369011
157.0736528
76.95915732
-29.6221453
-24.11467696
-64.41929715
-163.4385233
-192.5099471
-193.3308161
-271.5094991
-322.7239959
-293.5379042
-348.5954981
-409.4949381
-363.9377979
-402.2829389
-462.1556145
73.05409648
99.58706459
47.23963678
-32.52709075
-31.12117045
-59.04201372
-132.8788527
-155.3282078
-155.6167411
-217.4899666
-256.6525543
-236.0051791
-285.212388
-331.0514957
-299.5514131
-336.8009712
-384.5170539
55.45541838
67.00402035
34.59566745
-28.05333903
-32.22891966
-48.45679236
-107.2670952
-125.7272139
-125.82461
-177.6466625
-206.3516312
-193.5275815
-236.7713315
-271.897462
-249.7142411
-284.2531549
-322.5953767
44.45106989
52.53853938
27.41823428
-23.57939594
-26.74776805
-40.26509535
-88.65992166
-102.0712617
-104.0822403
-147.7230062
-169.3890583
-161.3057361
-198.9252073
-226.4530953
-210.395412
-241.5800125
-272.7783458
35.96137411
42.12397411
21.81127987
-20.4186762
-22.69716751
-34.26430495
-74.59859876
-84.79242653
-87.53789077
-124.4861582
-141.3819302
-136.1102514
-168.6940243
-190.7460655
-178.7601231
-206.4996925
-232.1860545
29.32995298
34.15196241
17.43543669
-17.97630882
-19.75560724
-29.59685931
-63.54355912
-71.5973468
-74.48193861
-105.9124488
-119.4663377
-115.8758378
-144.0480946
-162.0728226
-152.8349215
-177.2928686
-198.7177121
24.05818959
27.89997458
13.98492282
-15.96117112
-17.44009795
-25.7917936
-54.56096004
-61.13107745
-63.85872412
-90.69165871
-101.8329622
-99.24347602
-123.57838
-138.5838145
-131.2220303
-152.6577658
-170.7601399
19.80704581
22.91041618
11.2376263
-14.21925782
-15.50431953
-22.57715992
-47.06507831
-52.5653067
-54.99544246
-77.95283797
-87.3014212
-85.29774823
-106.2959595
-118.9907253
-112.926118
-131.6240996
-147.1042291
16.33784824
18.87414143
9.032464592
-12.6630629
-13.81528872
-19.78597942
-40.671808
-45.37527519
-47.44529783
-67.09728809
-75.08137128
-73.40232307
-91.48993589
-102.3853794
-97.22341371
-113.4610376
-126.847825
13.47686254
15.57130536
7.250402613
-11.2406283
-12.29644542
-17.31101532
-35.12027486
-39.21330519
-40.90182261
-57.70315994
-64.62541971
-63.10478985
-78.64083957
-88.11138652
-83.5800401
-97.61321393
-109.309042
11.09430075
12.84066217
5.801546402
-9.919159705
-10.90178981
-15.07971383
-30.2254963
-33.84099287
-35.14595654
-49.46228659
-55.54494586
-54.07218994
-67.35726484
-75.68625466
-71.59040529
-83.64745393
-93.96733281
9.091568045
10.56126726
4.617101384
-8.676942714
-9.601828187
-13.04080421
-25.85184581
-29.08759708
-30.0160603
-42.14323763
-47.55365471
-46.05293815
-57.33749861
-64.74382632
-60.93962185
-71.21992088
-80.41432786
7.392253381
8.640891396
3.643612163
-7.498758972
-8.376899993
-11.15648224
-21.89663415
-24.82730238
-25.38916139
-35.56749449
-40.43572679
-38.85198871
-48.34340401
-55.0010742
-51.37736296
-60.05028741
-68.32521126
5.935780654
7.007454576
2.838660183
-6.372907381
-7.212801079
-9.397107374
-18.27869366
-20.96333719
-21.16782129
-29.59252084
-34.0223635
-32.31316865
-40.18227001
-46.23168562
-42.70000103
-49.90327239
-57.43045625
4.673189681
5.603673242
2.167973043
-5.289773457
-6.098476064
-7.738680473
-14.93220497
-17.41896809
-17.27298469
-24.10252174
-28.17867842
-26.30965004
-32.69907297
-38.25341985
-34.74521448
-40.60347896
-47.50856761
3.563743742
4.382912173
1.60320273
-4.240678716
-5.024642957
-6.160301964
-11.80079791
-14.13123894
-13.63696584
-18.99793564
-22.7938808
-20.73208711
-25.75863277
-30.91817607
-27.37083471
-31.99610407
-38.39589436
2.573140113
3.306180179
1.120759965
-3.217359812
-3.982764158
-4.643223303
-8.835070286
-11.04566565
-10.20045195
-14.1907345
-17.7715171
-15.48318522
-19.23591608
-24.09342452
-20.44197819
-23.90915874
-29.93380958
1.672339177
2.340534314
0.7010100183
-2.211473942
-2.964582158
-3.169874499
-5.990137737
-8.114184015
-6.909666796
-9.60120144
-13.02589602
-10.47482424
-13.01847585
-17.6570853
-13.83860642
-16.20462843
-21.95449741
0.8380636061
1.458338348
0.3275532856
-1.21568764
-1.961800394
-1.724475163
-3.225262301
-5.292940608
-3.715952277
-5.157757108
-8.479297724
-5.627926227
-7.004932073
-11.49977579
-7.452115091
-8.75572414
-14.32479634
-0.08028099789
0.6398221401
-0.1460882131
-0.3280033254
-0.9662349335
-0.3952270577
-0.620317782
-2.54073381
-0.7009524884
-0.9535264186
-4.06079337
-1.04049297
-1.308612475
-5.521000642
-1.400834843
-1.707100569
-6.91688439
-872.9337389
-864.4755176
-813.2858398
-883.6844844
-977.0297252
-962.9924606
-1474.576478
-1485.861973
-1050.800042
215.2584231
469.0115521
-743.4196955
-582.9657092
-649.1101563
84.15000216
6.934128657
143.8111122
-632.992477
-458.8230447
-213.9737172
-916.2330987
-559.8340459
-716.0190154
392.8512134
422.9977844
-1174.347066
-1188.065962
-939.7900153
-1274.501914
-1291.723394
-1544.065623
-1538.707235
29.4228882
104.5940725
37.74029082
-189.6210317
-134.6063107
-50.27727779
-311.3838175
-524.1241483
-405.3314606
-609.7918455
-544.7761422
-413.5520952
-861.5881836
-686.8832526
-739.4314574
-1177.558624
-1128.452662
-1129.862988
-313.2190246
-376.1445962
-364.9925086
-551.21797
-532.9659645
-385.2688943
-1285.944976
-1283.257552
-1225.58768
-1264.020094
-1362.015914
-1388.259315
-1361.632843
-1361.270915
-1267.34352
-1455.683322
-1453.024455
-319.1474163
-225.3356563
-274.2793367
-208.724703
-255.7940356
11.74958821
-116.2422863
118.615102
109.8388837
305.5789958
-156.7165941
-35.03811976
-2.595636204
-157.8352419
-88.38767808
-219.1014771
-1006.558241
-991.9573563
-902.7844142
-1174.184624
-1082.3822
-1093.078259
-1061.732829
-1071.460531
-1166.850736
-201.7059393
-104.4701823
-30.11937173
-297.1840084
-193.9218875
-286.5305166
94.27504981
-88.56212375
-200.1093411
417.3263851
535.8485917
508.76559
-1493.527684
-1494.817602
-1434.658072
175.7002392
95.65979595
314.0338251
248.5441305
328.3263536
102.8459646
173.9085754
236.5426788
-1129.402498
-1128.093754
-1177.622619
-1012.928047
-1066.792858
-1053.529028
-1077.881392
-1073.240239
-1018.542109
-620.2977785
-607.0825646
-558.0437651
-730.2825976
-654.335757
-674.7250527
-410.9957417
-392.5792386
-336.8857889
-498.9102703
-444.4716156
-463.0761811
-1397.259602
-1346.888005
-1341.487773
-1210.695386
-1399.013685
-1468.056551
-1359.323108
-1382.360945
-1215.302155
-968.5013413
-916.0569912
-923.1525974
-898.728327
-908.5229585
-963.0385337
-802.6051288
-853.5842103
-841.0887906
-1437.369269
-1488.599072
-1491.798978
-1484.207462
-1486.240833
-1437.926514
-1534.544056
-1532.379407
-108.8383084
-161.1105635
-210.1653745
-184.8248891
-135.1750384
-282.0675421
-231.4994615
-255.1442541
-974.2100711
-942.6050454
-909.9148604
-881.2131518
-856.0576981
-836.6564811
-674.8764935
-702.1195409
-791.9205893
-821.6469402
-873.5009899
-1034.899633
-967.400728
-980.7501461
-1083.310596
-988.1294105
-982.9407306
-1049.529341
-954.9409367
-943.2535684
-988.1678621
-836.2278618
-829.1397624
-886.1232714
-812.2210466
-795.0159138
-839.0139576
-779.0889082
-766.8519015
-800.8878222
291.6330445
173.2688474
137.6955157
-326.7432794
-416.8404964
-502.3390422
-606.4876061
-648.7826399
-719.454032
-731.0455419
-746.9315902
-800.6629308
-771.3648951
-773.6785984
-813.9383332
-705.0384623
-717.4805843
-772.7686113
-712.3838403
-705.5441761
-750.2515359
-698.3892696
-692.2721503
-728.7493355
223.3565139
123.9735315
123.4104428
-138.7875586
-213.8725579
-248.9095312
-394.5255782
-440.5871372
-482.5278326
-544.2351143
-568.6750518
-607.9871776
-618.3340455
-628.4355944
-662.127928
-589.9165794
-614.0978788
-664.3216287
-617.7176791
-619.3143746
-661.7347319
-619.3182957
-618.5976661
-655.0396535
155.707418
95.5575567
105.2110237
-81.11651529
-135.9292409
-148.5910575
-279.9625069
-320.3943272
-344.9505956
-417.7137448
-442.5151628
-469.9479802
-497.9541198
-510.9890581
-537.8775266
-493.3724892
-523.2872339
-567.1058178
-532.5499559
-539.8305634
-578.6125593
-545.0170893
-548.5136829
-583.2911787
98.72918899
57.82044511
66.86636443
-66.57803575
-107.0191095
-112.1936
-216.0191385
-247.922932
-263.0882594
-328.7595226
-350.7416537
-371.3380707
-403.2974833
-417.2964564
-438.9323885
-412.7245542
-444.9023357
-482.5500308
-457.6683723
-468.576696
-503.1634435
-477.0953232
-483.5682776
-515.6526925
59.78477803
29.03974317
34.90754592
-61.99525517
-91.83957484
-94.93917333
-173.6728275
-198.2294727
-209.4708011
-262.599554
-281.2281418
-296.7904759
-329.6231355
-343.3955704
-360.1275288
-347.3970029
-378.8069863
-410.4069592
-393.273424
-406.0528981
-436.2423473
-416.4592188
-424.7140471
-453.6518589
39.22908564
15.5845922
17.47108135
-53.81714482
-76.10872646
-80.3226321
-139.4802747
-159.1567323
-167.8445018
-213.2191953
-229.5027701
-241.0503042
-273.0969327
-285.9179722
-299.0060351
-294.3220235
-323.5001383
-349.9005412
-338.5534472
-351.8799771
-377.9913171
-363.0697082
-372.1858752
-397.9423568
30.83390989
11.88066008
12.68863986
-44.00955226
-62.13943578
-65.19510853
-114.1601968
-130.5511417
-136.9166741
-176.3707436
-190.448819
-199.2696808
-228.94181
-240.5241657
-250.9314143
-250.7968265
-277.3505614
-299.3852301
-292.1288014
-305.1472938
-327.6631987
-316.366469
-325.6737173
-348.4988712
24.4404071
8.9111196
9.590672408
-37.05649085
-52.02623983
-54.28578653
-95.28664896
-109.0477979
-113.906812
-147.9791144
-160.1056671
-167.0337819
-193.7560623
-204.0430381
-212.4632741
-214.8135657
-238.7645043
-257.2389886
-252.57336
-264.8279815
-284.2640453
-275.6092615
-284.6599318
-304.8137462
19.49066982
6.552022805
7.088912112
-31.79964046
-44.314438
-46.07075007
-80.65125425
-92.28416604
-96.12168234
-125.4706857
-135.9084279
-141.4857177
-165.1823245
-174.2353424
-181.1593185
-184.703137
-206.0359142
-221.7413206
-218.6466462
-229.9506157
-246.778384
-240.0202275
-248.5474147
-266.3223724
15.61012403
4.712012868
5.129053129
-27.60681715
-38.16474876
-39.58675371
-68.91514279
-78.80245163
-81.92260994
-107.1749169
-116.1606815
-120.7503618
-141.5596027
-149.4814519
-155.2663439
-159.2052725
-178.066498
-191.5175606
-189.4092662
-199.6592416
-214.2926399
-208.8706939
-216.7275547
-232.4167523
12.53461748
3.290884854
3.611816734
-24.12290225
-33.08428537
-34.27302034
-59.2390898
-67.67407695
-70.27291911
-91.9797724
-99.71616669
-103.565512
-121.7099547
-128.6133031
-133.5168127
-137.369838
-153.9533358
-165.5757522
-164.0416171
-173.2163528
-186.0086141
-181.5149251
-188.6338131
-202.5102449
10.07554294
2.203948489
2.448349646
-21.13641638
-28.769223
-29.78834757
-51.07802768
-58.28790557
-60.49648887
-79.12560674
-85.78233588
-89.06435706
-104.7878171
-110.7814792
-114.9923634
-118.4730432
-132.9882984
-143.1154198
-141.879063
-150.0046437
-161.250937
-157.389579
-163.7537421
-176.0644342
8.09475052
1.38277232
1.566332863
-18.51413592
-25.02240943
-25.91390058
-44.06306856
-50.22602916
-52.13499602
-68.07693895
-73.79483988
-76.63366374
-90.17220578
-95.35548221
-99.01445448
-101.9591784
-114.609435
-123.5056026
-122.3800897
-129.5089266
-139.4545658
-136.0109841
-141.6346431
-152.5978495
6.489031399
0.7727467528
0.9080112885
-16.1684949
-21.71082399
-22.50358234
-37.93661022
-43.19423288
-44.86847187
-58.44763621
-63.34336317
-65.83053204
-77.39992372
-81.86079809
-85.07508578
-87.39057064
-98.36535361
-106.2451073
-105.1001745
-111.2967451
-120.1496356
-116.9627895
-121.8777482
-131.6887816
5.179899941
0.330429832
0.4272874687
-14.03878368
-18.74024136
-19.4549965
-32.51110058
-36.97688822
-38.46440235
-49.94905
-54.11902347
-56.32394558
-66.11439007
-69.929244
-72.7824684
-74.41738633
-83.88788535
-90.92588445
-89.67028489
-95.00226418
-102.9375561
-99.8858187
-104.1323491
-112.9626719
4.106857154
0.02158962117
0.08787677882
-12.08133548
-16.04171126
-16.69395725
-27.64633184
-31.411947
-32.74944696
-42.36073041
-45.88452096
-47.86137202
-56.03618741
-59.27022613
-61.82946457
-62.75196777
-70.87438788
-77.21463298
-75.78232906
-80.31441131
-87.48171345
-84.46916454
-88.0899568
-96.09190153
3.222355207
-0.1810050106
-0.1390394036
-10.26274882
-13.56217819
-14.16402859
-23.23301282
-26.37264313
-27.58917678
-35.50818479
-38.45114319
-40.24333997
-46.9388775
-49.64609422
-51.96651829
-52.14797877
-59.0924749
-64.83874187
-63.17586258
-66.96333445
-73.49324557
-70.4402796
-73.47811494
-80.78575763
2.488428577
-0.2992157756
-0.2765457389
-8.556642679
-11.25956938
-11.82066014
-19.1840439
-21.75780327
-22.876584
-29.25164925
-31.66764458
-33.30984447
-38.64138854
-40.86729947
-42.99146496
-42.43663013
-48.33037831
-53.60131807
-51.60578644
-54.70970341
-60.71907801
-57.55598721
-60.05047709
-66.79026801
1.873925149
-0.3507156132
-0.343260616
-6.940718694
-9.098528104
-9.627267797
-15.42653926
-17.48274559
-18.52382315
-23.47401962
-25.40737253
-26.9296959
-30.99424706
-32.77974946
-34.7446262
-33.45529816
-38.30256317
-43.24592697
-40.85543835
-43.34051425
-48.93181464
-45.60052865
-47.60069473
-53.86328962
1.353010373
-0.3498417664
-0.3542926905
-5.395230168
-7.048104003
-7.551883901
-11.897258
-13.47389241
-14.45481442
-18.07228009
-19.55803869
-20.9875269
-23.85856597
-25.23575105
-27.07866318
-25.00177936
-28.84882998
-33.50401291
-30.78064363
-32.66607743
-37.93265267
-34.34940142
-35.85838794
-41.83850735
0.9041224211
-0.3081893094
-0.321890627
-3.902139126
-5.080578423
-5.566126609
-8.540032959
-9.665857606
-10.60239039
-12.95413826
-14.01856378
-15.37953776
-17.10667334
-18.09816398
-19.85110497
-16.9497296
-19.87453769
-24.31225733
-21.21687764
-22.52991466
-27.54288918
-23.69739128
-24.7075346
-30.34075237
0.5095573707
-0.23494895
-0.255754085
-2.444563182
-3.170302624
-3.643799655
-5.303562761
-5.999049102
-6.905519936
-8.035833351
-8.697359227
-10.01181599
-10.62473905
-11.24665361
-12.93888816
-9.167782253
-11.23950878
-15.50625147
-12.02511725
-12.78038804
-17.60523057
-13.44595163
-14.13830598
-19.40016508
0.1465861533
-0.1460207721
-0.1635804946
-1.011592501
-1.297604523
-1.759817995
-2.144833172
-2.423356296
-3.307887744
-3.246401385
-3.516340445
-4.798788522
-4.312168599
-4.572997515
-6.226730618
-1.817316688
-3.33256089
-6.880232642
-3.621492907
-3.90002809
-7.883709285
-4.229567346
-4.643020637
-8.731420982
-1233.750501
-1221.607531
-1099.121631
301.0403879
398.2847632
434.1336799
-765.0323023
-718.3653422
-723.1619023
-981.9248808
-871.8233803
-903.2646193
-1447.494609
-1447.331026
-220.298806
-292.5653613
-242.3490995
-1235.45347
-1287.997664
-1286.410746
85.37558789
34.60593297
-1136.269831
-1134.688731
-1186.985896
-23.92546071
-81.82700097
-152.9864656
171.3031998
124.7693481
-1192.323691
-1307.032783
-1334.280454
-1248.683419
-1278.256369
-1176.827003
-1118.524431
-1188.938019
-1218.734532
-1131.596002
-1159.872406
-1097.221216
-1033.427636
-1078.412609
-1104.405289
-1030.14283
-1053.646207
-1013.016017
-529.4023929
-614.3606814
-582.2292249
-673.815482
-644.8459341
-563.2550637
-814.9760931
-728.8198445
-754.9204468
-606.8707029
-730.2316061
-660.7213448
-829.8014039
-787.3526365
-673.6528407
-1059.397809
-916.2090304
-946.2320254
-798.519652
-885.61343
-862.1185293
-912.0127383
-901.8147448
-822.1988683
-1079.782014
-987.9395376
-990.0525799
-857.9775297
-918.9466205
-917.5568052
-912.9095346
-917.1242108
-861.6160224
-1035.38864
-975.1670431
-965.6944839
-855.9107401
-899.1550076
-906.7977293
-880.9273312
-890.4138631
-850.5279142
-971.9525317
-930.9824755
-918.306311
210.4668775
196.0343076
303.1901895
26.43927415
67.46015358
-26.97954696
-292.8141969
-347.828776
-259.8179467
-486.8456248
-423.0127239
-366.2211178
-575.2674397
-492.1459363
-554.468555
-530.898322
-586.164921
-541.1807573
-653.70515
-623.3349737
-570.0248517
-749.1955529
-682.8395935
-709.9989094
-650.7457005
-696.8935208
-677.9584385
-722.3661424
-711.5352756
-667.8052622
-808.5554674
-758.5044098
-766.5392527
-697.4268839
-734.6716968
-729.8612105
-737.8589716
-737.2004555
-702.0145622
-811.4935013
-773.6444567
-772.2451391
285.5340093
306.9980666
113.5416105
120.3501899
208.5421143
-41.62634406
38.0920719
39.88430662
18.02489203
31.1791193
-56.85171671
-165.0083059
-186.3253692
-116.6600398
-307.9322447
-250.1950801
-224.691377
-319.8186034
-281.6272611
-341.7441341
-372.7825039
-404.3363707
-359.29179
-478.1512739
-443.8148447
-411.4239727
-522.5474619
-480.6479745
-515.0579799
-499.9290669
-532.7421717
-507.6642216
-571.1679107
-553.7804495
-521.411026
-626.8915072
-588.878054
-605.2949958
-566.3606997
-596.5154389
-585.2836139
-611.8944172
-605.1975203
-575.9532553
-668.3133932
-635.9913531
-641.4604279
194.3591791
214.6915894
76.30859404
85.89423606
139.9002911
-22.27963684
32.22816559
26.98832109
40.70911609
36.46482559
-24.03081725
-118.3342344
-126.1197174
-75.71056473
-218.9565595
-174.0196075
-162.8253377
-204.1594731
-187.5637252
-235.648633
-279.9324085
-298.8707937
-260.6204816
-364.9887003
-333.6765021
-312.9362566
-382.6814481
-356.8658849
-389.2572665
-393.4926699
-417.1723938
-392.7768905
-456.7115412
-438.3978664
-414.3804326
-491.5498939
-463.9809894
-482.3741588
-461.7164482
-485.6528309
-472.3427107
-507.1622111
-497.1337711
-473.641266
-548.2076407
-521.943356
-531.3488725
125.1316792
140.3434589
41.72244171
49.39781903
87.26619106
-27.76889765
10.52174491
5.802577134
21.23905112
15.72490867
-25.75314163
-98.48914482
-102.4754589
-65.34255156
-172.1743355
-138.1905462
-131.7890409
-153.4336408
-145.336643
-181.7699658
-221.3657293
-234.106828
-204.183855
-287.3318354
-261.8424346
-247.4445933
-294.299125
-277.3747499
-304.3202849
-313.5777147
-331.5521728
-310.5594447
-367.4444462
-350.4143239
-331.8463891
-391.6770501
-370.3471502
-387.7321558
-377.9507832
-396.96785
-382.9223467
-421.1251975
-409.6562869
-390.6990233
-451.2145709
-429.8418903
-441.0799084
80.43589899
89.24723723
20.31669069
24.16776503
52.93152
-32.74016369
-4.417485383
-6.331226624
1.690731155
-1.742293004
-32.28113898
-84.47569524
-88.31749523
-60.73719839
-140.2101779
-114.7425756
-109.1059937
-125.9091921
-120.3239757
-147.6449473
-177.2915862
-187.4883379
-164.5026186
-229.5633132
-209.1513646
-197.9167253
-233.965922
-221.2215893
-242.6410018
-253.4595078
-266.817891
-248.7773077
-299.4514481
-283.7023231
-269.8569214
-314.5991806
-298.5829483
-314.7010712
-312.9053873
-327.6779919
-314.0971509
-351.8363462
-340.2305685
-325.3050733
-372.8613347
-356.0652798
-367.7083464
58.53198718
62.21164651
13.49625374
14.4007211
36.70789843
-29.51955325
-7.622909016
-7.347196206
-7.421530544
-7.692969571
-31.05525758
-68.52130559
-72.15529358
-51.02187017
-112.9053547
-92.81434908
-88.14746676
-103.3937047
-97.89936575
-119.0471065
-143.767308
-151.1580827
-132.371226
-186.5140469
-169.2173206
-161.0520562
-187.5644466
-178.0280449
-196.0569756
-208.6797293
-218.7361169
-203.0247729
-247.7449413
-233.6423461
-223.0948346
-256.9513297
-244.9052884
-259.4323156
-261.9338961
-273.5790551
-261.0525266
-296.3715992
-285.3385946
-273.4424719
-311.2157817
-297.9150787
-309.1176209
46.95686253
49.67081632
10.31044462
11.07695226
29.0689386
-24.53842732
-6.781753809
-6.684018894
-7.08501689
-6.905317148
-25.58719803
-56.71005231
-59.32008812
-42.06146236
-92.80672907
-76.25081514
-72.85573148
-83.86112112
-79.90861993
-97.2651513
-119.0869262
-124.6222763
-108.9435436
-154.47634
-139.8093459
-133.6428002
-153.4659416
-146.4020256
-161.6830003
-174.3745091
-182.1657255
-168.6006487
-207.5758011
-195.1597586
-186.9170019
-213.2012094
-203.9061931
-216.7372698
-221.3275302
-230.6694525
-219.4117632
-251.4776428
-241.3525497
-231.7248601
-262.1727337
-251.4914348
-261.8447718
37.88786976
39.94022633
7.660237918
8.267631374
23.08496242
-21.12518902
-6.474720538
-6.42402863
-6.601503242
-6.532536107
-21.88196925
-47.93334411
-49.91401838
-35.61453683
-77.78489615
-63.98127162
-61.38768725
-69.69520047
-66.74402741
-81.17541279
-100.1804401
-104.481349
-91.29405892
-129.7940308
-117.3221125
-112.5034896
-127.8623803
-122.432177
-135.4159814
-147.3607981
-153.5583809
-141.8779463
-175.6612996
-164.8226807
-158.2253005
-179.1372235
-171.7829367
-183.0016674
-188.4188887
-196.0382481
-186.0678881
-214.6731837
-205.5701828
-197.6684555
-222.5697797
-213.8629016
-223.2076656
30.84422748
32.44917603
5.573713476
6.04753069
18.43230682
-18.53863644
-6.287146874
-6.241810617
-6.377081059
-6.331877948
-19.13044011
-41.08089255
-42.65415728
-30.66890331
-66.08397903
-54.46656728
-52.40325197
-58.94677337
-56.64398
-68.76413213
-85.20042183
-88.64931342
-77.48472734
-110.1994781
-99.55986395
-95.68250258
-107.9514034
-103.6435038
-114.7111074
-125.56009
-130.606661
-120.5528123
-149.7714928
-140.3494243
-134.9539944
-151.9635017
-146.0123801
-155.7727994
-161.3084116
-167.6252733
-158.865461
-184.1338092
-176.0461259
-169.4645197
-190.1272346
-182.9286254
-191.2522572
25.26924439
26.54828152
3.954772252
4.321033643
14.77413675
-16.43479527
-6.094159452
-6.039405033
-6.194950285
-6.145894849
-16.92710302
-35.51299312
-36.80855079
-26.6793462
-56.64855983
-46.80360405
-45.10762838
-50.44409123
-48.58022726
-58.8359636
-72.98779267
-75.82756778
-66.32793932
-94.23567828
-85.13437111
-81.93604107
-91.99532976
-88.48377924
-97.94550881
-107.5813511
-111.7753076
-103.1195661
-128.3638721
-120.1929759
-115.695795
-129.8073916
-124.8924378
-133.3611977
-138.6205815
-143.9374273
-136.2808062
-158.456614
-151.3281722
-145.7693305
-163.1608055
-157.1222516
-164.4714504
20.78851152
21.82180241
2.710272667
2.990751095
11.86817124
-14.63467774
-5.854911125
-5.786364192
-5.981373301
-5.919902677
-15.06262406
-30.8452853
-31.94287646
-23.33586717
-48.82322708
-40.44256466
-39.01154961
-43.4857862
-41.93245653
-50.65478651
-62.79288117
-65.18317389
-57.07359579
-80.94118756
-73.14223331
-70.44833522
-78.87759553
-75.94929439
-84.0544706
-92.47501362
-96.02259785
-88.5708204
-110.3604498
-103.288307
-99.4768207
-111.3871541
-107.2550266
-114.5885325
-119.3615436
-123.898558
-117.232537
-136.5980903
-130.3529741
-125.5975435
-140.4274912
-135.2938231
-141.741197
17.14228026
17.98681938
1.763816891
1.976083142
9.540053514
-13.03800036
-5.55965958
-5.477302585
-5.714270694
-5.638675881
-13.42181622
-26.83418383
-27.7853226
-20.45073813
-42.18273562
-35.03223988
-33.7988499
-37.63526125
-36.30996206
-43.74922817
-54.11195764
-56.16151843
-49.22845874
-69.66024888
-62.97456504
-60.66492022
-67.8601729
-65.37099291
-72.3194391
-79.57363576
-82.62124441
-76.21139783
-94.99060435
-88.88308381
-85.60485633
-95.81112979
-92.28256991
-98.61969657
-102.8001478
-106.720327
-100.9381576
-117.7746269
-112.3319514
-108.2157664
-121.0139962
-116.5961255
-122.222114
14.14281588
14.84031533
1.054324388
1.212347729
7.661587636
-11.58572894
-5.211403075
-5.116920697
-5.391728388
-5.303050141
-11.93751143
-23.31882347
-24.1579334
-17.90452912
-36.44037901
-30.33876773
-29.25731991
-32.60724608
-31.45467629
-37.80381266
-46.59634514
-48.38105604
-42.45647696
-59.93309999
-54.20849682
-52.19857848
-58.43734618
-56.28669546
-62.23899392
-68.39837627
-71.05151226
-65.54923407
-81.69287698
-76.43447847
-73.57873623
-82.44176113
-79.38695312
-84.84776064
-88.39185213
-91.81675055
-86.82188501
-101.3913419
-96.67283306
-93.07235269
-104.2379081
-100.3934348
-105.2772874
11.65090688
12.2325314
0.5329509076
0.6479176909
6.136576165
-10.24138416
-4.817786806
-4.713299235
-5.019732234
-4.919974983
-10.56882419
-20.18772399
-20.93927158
-15.61777471
-31.39569145
-26.20028197
-25.23791969
-28.20831366
-27.18987486
-32.600185
-39.99497459
-41.5706646
-36.52069081
-51.42808009
-46.54127919
-44.76848405
-50.25309248
-48.36843629
-53.45447969
-58.59412176
-60.93258025
-56.22661561
-70.04912996
-65.54153562