/*--------------------------------*- C++ -*----------------------------------*\
| =========                 |                                                 |
| \\      /  F ield         | OpenFOAM: The Open Source CFD Toolbox           |
|  \\    /   O peration     | Version:  v2012                                 |
|   \\  /    A nd           | Website:  www.openfoam.com                      |
|    \\/     M anipulation  |                                                 |
\*---------------------------------------------------------------------------*/
FoamFile
{
    version     2.0;
    format      ascii;
    class       surfaceVectorField;
    location    "2.33";
    object      Uf;
}
// * * * * * * * * * * * * * * * * * * * * * * * * * * * * * * * * * * * * * //

dimensions      [0 1 -1 0 0 0 0];


internalField   nonuniform List<vector> 
5975
(
(103.9176832 -31.15310163 -2.043451198e-19)
(103.1662735 -31.40878472 -2.116934934e-19)
(103.2051941 -30.72990327 -1.513677623e-19)
(103.9260013 -30.61233327 4.766484812e-20)
(102.9660683 -31.21565978 -3.046578486e-19)
(107.7567161 -21.43999673 6.65654807e-19)
(108.5129396 -20.90268842 3.793965483e-19)
(106.8537657 -19.8361798 -1.405396435e-19)
(107.7646899 -19.44429314 -8.568023788e-20)
(107.1662655 -21.06348343 -3.267427604e-19)
(108.5826502 -20.19284198 3.755849503e-19)
(108.08072 -14.25477624 6.35959854e-22)
(107.619451 -14.87432331 4.53727982e-19)
(106.9514642 -14.08565281 6.372210723e-22)
(107.3463372 -13.58758445 -2.276177074e-19)
(106.395939 -9.848398191 -7.741285699e-20)
(106.2272184 -10.35565066 -7.74312719e-20)
(105.6454024 -9.886763807 -2.739312233e-19)
(105.7977146 -9.464134016 -1.472326827e-19)
(104.5327363 -6.880784462 2.746232696e-19)
(104.4907434 -7.260432214 5.333570822e-19)
(104.0283034 -6.995429536 2.591820475e-19)
(104.0751461 -6.666336439 2.793428837e-19)
(102.9369962 -5.222165545 -1.526554861e-19)
(102.9389314 -4.951328938 -1.700063674e-20)
(102.5852079 -5.074293104 1.188211137e-19)
(102.599344 -4.834504686 1.086453334e-19)
(101.5799503 -3.533266154 -1.526712509e-20)
(101.5842767 -3.928619076 1.139144368e-20)
(101.0865745 -3.729649245 -3.249321561e-20)
(101.132525 -3.400961772 -3.299702512e-20)
(100.7702209 -2.622850163 2.530056722e-22)
(100.7541521 -2.935339212 0)
(100.3825257 -2.783046789 -1.106909072e-20)
(100.43543 -2.521097936 0)
(99.55013666 -1.572863351 5.922555717e-21)
(99.41452287 -1.959340515 -9.626263602e-21)
(99.86438661 -2.246154301 0)
(100.1034538 -2.172879841 0)
(99.25038772 -1.013251381 7.029166581e-21)
(99.08190212 -1.332669199 1.43889461e-20)
(99.07566408 -0.4963015149 -2.443979295e-21)
(98.8728127 -0.7811054349 1.09082313e-21)
(98.76547484 -0.2573657613 6.303606206e-21)
(96.71796084 -20.98991526 1.067439767e-20)
(95.74497329 -20.52114769 -4.134751343e-19)
(96.65569435 -19.64725949 -3.879531335e-20)
(97.30314529 -20.21863313 -3.192079539e-20)
(95.75356144 -20.03944243 -4.956265054e-20)
(102.12824 -17.11819008 -6.856200504e-20)
(102.9746447 -17.14525117 3.324844822e-20)
(102.114022 -16.11880682 -1.224401733e-20)
(102.7624224 -16.18136783 -1.078383095e-19)
(104.0813863 -13.08234214 4.37881748e-20)
(103.6314035 -13.33601431 2.236216752e-19)
(103.3112232 -12.63541441 4.651204141e-21)
(103.6717591 -12.43580196 1.130708136e-19)
(103.5963029 -9.664976457 2.447114968e-20)
(103.3722585 -9.968735913 -4.821714781e-20)
(102.9919458 -9.503783235 1.336500175e-19)
(103.177817 -9.245635881 1.336347612e-19)
(102.5769554 -7.107010005 -2.292658893e-19)
(102.470053 -7.374067227 -6.057740274e-21)
(102.1227757 -7.081262536 -2.597879899e-20)
(102.2186032 -6.847286229 -2.020943627e-19)
(101.4746349 -5.519328273 -1.441429997e-19)
(101.5289354 -5.30178907 1.856005952e-21)
(101.1839276 -5.336388548 -2.846572593e-20)
(101.239581 -5.148534932 2.926318456e-20)
(100.5810028 -3.867937982 -4.54183412e-20)
(100.5026139 -4.217447867 -2.357085927e-20)
(100.0735014 -3.952324838 -4.243735797e-20)
(100.1778437 -3.674214965 -1.757601893e-20)
(99.98161966 -2.90483806 -2.839724869e-20)
(99.90324066 -3.189653577 1.03238316e-20)
(99.57270589 -2.991104844 -3.017066396e-20)
(99.66890782 -2.752757981 -1.56490666e-20)
(98.95701502 -1.711114597 -5.967434462e-22)
(98.77198516 -2.071885083 -2.755107351e-20)
(99.1600167 -2.421996866 -6.817727248e-21)
(99.40769681 -2.370834974 -4.231130086e-21)
(98.7144506 -1.103246836 9.47253117e-21)
(98.5096657 -1.417262391 1.783333355e-20)
(98.57122277 -0.5408322976 9.484073134e-21)
(98.34243739 -0.8326493895 3.701443475e-22)
(98.25543369 -0.2742942754 2.282295692e-21)
(97.92451555 -13.81320348 0)
(97.52410019 -12.98163608 2.796090043e-20)
(98.21427544 -12.806125 0)
(98.49443692 -13.28620696 0)
(100.5483017 -13.25579536 -1.330547995e-21)
(100.1640047 -12.98012096 -5.958889556e-20)
(100.2573366 -12.43668159 -8.335278794e-20)
(100.5531564 -12.63423622 -3.155210571e-20)
(101.5007244 -11.16802527 8.916731248e-20)
(101.2010787 -11.19629108 7.357130498e-20)
(101.0435835 -10.68183206 1.089893554e-19)
(101.2816823 -10.64862392 -5.158062165e-20)
(101.4278754 -8.84861057 7.071649135e-20)
(101.2346407 -8.994731082 1.027794178e-21)
(100.985161 -8.596982605 7.379801204e-20)
(101.1454156 -8.467561511 -1.713349556e-19)
(100.8763705 -6.860326702 1.366132394e-21)
(100.7562531 -7.026612598 -8.783030303e-20)
(100.4997815 -6.749442186 8.299833348e-20)
(100.6046243 -6.601615593 -1.367529836e-19)
(100.1303177 -5.485832957 2.916379593e-25)
(100.2088169 -5.329831039 1.59866507e-22)
(99.89882172 -5.295370549 -1.22786971e-20)
(99.97636295 -5.153584821 -1.070345208e-20)
(99.57499523 -3.987300119 3.413896653e-21)
(99.44945901 -4.2677467 6.375939427e-21)
(99.09313569 -3.978981622 0)
(99.23018813 -3.75230839 2.766775319e-21)
(99.16966336 -3.042420239 -1.286625807e-20)
(99.04875084 -3.284928524 2.764323896e-21)
(98.76726302 -3.06341915 4.353828398e-21)
(98.89143531 -2.854833582 0)
(98.33500006 -1.778207764 -8.137972967e-21)
(98.11895085 -2.105098786 -1.191788795e-20)
(98.4498141 -2.48811546 -1.224985712e-21)
(98.69396223 -2.463346839 -1.191717722e-20)
(98.14685287 -1.150064681 9.188749511e-21)
(97.91943281 -1.451591527 1.832770556e-20)
(98.03454868 -0.5649426356 -6.155168312e-21)
(97.79087529 -0.8547891665 -1.041775046e-20)
(97.72271851 -0.2816172497 -6.530623775e-21)
(98.91696024 -10.47700485 -5.498783817e-20)
(98.76190965 -9.998989532 -4.670866743e-20)
(99.10656305 -9.873333895 -3.785205512e-21)
(99.13786125 -10.16839652 -4.711653833e-20)
(99.72967639 -10.387924 8.151688366e-20)
(99.6048944 -10.15023795 1.729259884e-20)
(99.61856161 -9.823188356 7.828851657e-20)
(99.71600766 -10.00101131 -2.960571016e-20)
(100.000788 -9.306066069 1.459509495e-19)
(99.85623816 -9.245114925 1.198220828e-19)
(99.73433279 -8.884840451 2.80921591e-19)
(99.85276531 -8.924343886 3.134416009e-19)
(99.86625038 -7.809192772 1.199654984e-19)
(99.73366986 -7.860880615 -1.081519969e-19)
(99.55318699 -7.546827025 -6.012305696e-20)
(99.66400064 -7.495087703 -1.876291782e-19)
(99.49414438 -6.350528478 -1.53027381e-19)
(99.39143318 -6.443184264 0)
(99.19771245 -6.203470944 -1.755991493e-20)
(99.28776459 -6.117269986 2.41293629e-21)
(98.96742419 -5.220507814 0)
(99.05043658 -5.117800415 0)
(98.78714986 -5.039954195 0)
(98.86727718 -4.940265818 0)
(98.63504222 -3.934272985 -1.507137133e-20)
(98.49027018 -4.145607668 -1.505696713e-20)
(98.20259609 -3.861518467 5.531400984e-21)
(98.3508578 -3.683015126 -4.197164856e-20)
(98.3825473 -3.057067213 2.72745976e-20)
(98.23991485 -3.254591425 -3.753723031e-21)
(98.00304299 -3.027111621 2.604271345e-21)
(98.14091578 -2.849681463 1.293000699e-20)
(97.71172123 -1.78350647 1.506629652e-20)
(97.48100108 -2.074325319 2.482858015e-20)
(97.76110072 -2.461692888 3.07255523e-20)
(97.99367235 -2.468434457 -1.307166641e-20)
(97.5709223 -1.159357208 -1.939949968e-21)
(97.33387363 -1.443030579 -8.405253196e-21)
(97.48551543 -0.5705508952 -1.077936827e-20)
(97.23719304 -0.8513744068 -1.201135086e-20)
(97.1847173 -0.280725195 1.221837844e-21)
(99.50084761 -8.408955493 -5.221365871e-20)
(99.56832445 -8.154267946 -5.982776138e-20)
(99.57944108 -8.010787929 7.441544821e-20)
(99.52715742 -8.235091106 3.697344195e-21)
(99.37616425 -8.391446118 -2.292219895e-21)
(99.34534608 -8.213487386 -5.658377714e-20)
(99.30260436 -7.988272816 -1.170582897e-20)
(99.27798748 -8.131161206 5.86249793e-20)
(99.08614554 -7.75379925 -1.266178343e-19)
(99.03515516 -7.677483537 -1.570710084e-20)
(98.90739297 -7.418938384 -1.570327333e-20)
(98.94988185 -7.47603393 -1.570305166e-20)
(98.76304697 -6.782598749 -2.392425519e-19)
(98.69065717 -6.782530946 -9.985211454e-20)
(98.54079992 -6.542417711 -7.947472181e-20)
(98.60293033 -6.535210189 -8.75478077e-20)
(98.4129912 -5.746062258 -1.84422634e-21)
(98.3388835 -5.790816586 2.796968809e-20)
(98.18445857 -5.59096547 -1.844296641e-21)
(98.25165936 -5.547431025 -1.843732941e-21)
(98.00493969 -4.835720859 0)
(98.07795635 -4.770350131 0)
(97.86081812 -4.672048331 0)
(97.93203703 -4.604545562 0)
(97.79913258 -3.766845607 2.05381305e-20)
(97.65422251 -3.918681459 0)
(97.42130591 -3.65275963 0)
(97.56629642 -3.516459056 0)
(97.64630861 -2.975964636 -2.035211912e-20)
(97.49837944 -3.132408984 0)
(97.29712438 -2.906788584 0)
(97.43752518 -2.760678425 0)
(97.10864548 -1.740838572 -1.985617644e-21)
(96.87616243 -1.994331931 1.926884095e-20)
(97.11304899 -2.369445254 1.281938405e-20)
(97.32838811 -2.404098779 1.284055596e-20)
(97.00530457 -1.138048424 -1.925102497e-20)
(96.76877922 -1.399479746 -1.802975848e-20)
(96.94109327 -0.5606816038 2.042065644e-23)
(96.69615101 -0.8276107763 -1.217691872e-21)
(96.65614907 -0.273641566 1.221745183e-21)
(99.70051834 -6.998608776 -1.663388608e-19)
(99.83585358 -6.815864323 -4.492121519e-21)
(99.71442457 -6.705719653 5.04793019e-20)
(99.6261141 -6.858434446 -9.442951487e-21)
(99.07424105 -6.948394602 1.955867909e-21)
(99.10303187 -6.820574872 -1.099086328e-21)
(98.99895294 -6.647315723 -1.234163088e-21)
(98.93200348 -6.755304538 -1.116829615e-21)
(98.4521136 -6.526675959 -2.237968716e-19)
(98.45742426 -6.453823255 0)
(98.3242642 -6.263393993 0)
(98.31675597 -6.321189358 7.076508124e-21)
(97.97316587 -5.876556488 -1.072342825e-20)
(97.94583059 -5.855811453 -5.072930543e-21)
(97.81333044 -5.672224323 -5.046955492e-21)
(97.8365047 -5.685411888 -5.120274522e-21)
(97.58510657 -5.129112597 0)
(97.54033469 -5.145739724 0)
(97.41071329 -4.978434808 0)
(97.45225886 -4.960068617 0)
(97.22521501 -4.400097522 0)
(97.28271824 -4.362004658 0)
(97.10688973 -4.255828704 0)
(97.1634913 -4.212902443 0)
(97.06996626 -3.524146703 0)
(96.93741311 -3.629281429 0)
(96.74452501 -3.385391192 0)
(96.87568481 -3.282826901 0)
(96.97364346 -2.823838577 0)
(96.83170945 -2.944813428 0)
(96.66066304 -2.730688148 0)
(96.79456745 -2.61162431 0)
(96.53858285 -1.66119474 0)
(96.31347204 -1.880097054 0)
(96.51731207 -2.232528671 0)
(96.71216756 -2.287840485 0)
(96.46279266 -1.091738009 0)
(96.23383219 -1.329888384 0)
(96.414609 -0.5399894832 0)
(96.17915018 -0.7887185885 0)
(96.14848259 -0.2616310348 0)
(99.72289182 -5.920788206 2.996106396e-20)
(99.85927527 -5.781082107 4.189427638e-20)
(99.72479377 -5.686270978 1.575208423e-20)
(99.6017541 -5.798856471 1.57831276e-20)
(98.80158058 -5.85039961 2.248255186e-20)
(98.89002946 -5.749926247 1.458847926e-20)
(98.75371098 -5.617523777 2.424301294e-20)
(98.66485169 -5.705030181 1.28370752e-20)
(98.00803535 -5.56049911 -2.901476619e-21)
(98.05544447 -5.496084328 -1.756542952e-21)
(97.92184293 -5.350455412 0)
(97.87715448 -5.404341257 0)
(97.40322464 -5.103336197 0)
(97.41176225 -5.074557119 0)
(97.28584202 -4.927356509 0)
(97.27771056 -4.949615229 0)
(96.95091108 -4.542211145 0)
(96.9321335 -4.542782442 0)
(96.81616605 -4.403021812 0)
(96.83502761 -4.399356912 0)
(96.59793094 -3.955859365 0)
(96.63885356 -3.935433653 0)
(96.49522807 -3.829833496 0)
(96.53696718 -3.802984614 0)
(96.44385882 -3.240241472 0)
(96.33100768 -3.311278501 0)
(96.16666213 -3.091886216 0)
(96.27889004 -3.016183616 0)
(96.37351365 -2.630154277 0)
(96.24468644 -2.722533917 0)
(96.09708014 -2.524848768 0)
(96.21910086 -2.428251492 0)
(96.00975738 -1.557529575 0)
(95.79949595 -1.746371036 0)
(95.97887461 -2.071356019 0)
(96.15282285 -2.137969022 0)
(95.9518884 -1.028410759 0)
(95.73677856 -1.244106342 0)
(95.91482594 -0.5107599341 0)
(95.69289609 -0.7395995006 0)
(95.66867527 -0.2458772681 0)
(99.74783862 -5.051944088 0)
(99.89148026 -4.946096424 0)
(99.75409642 -4.861531183 0)
(99.60630159 -4.952757258 0)
(98.64290586 -4.992382573 0)
(98.76172465 -4.910705236 0)
(98.61096989 -4.804746569 0)
(98.49629478 -4.876711897 0)
(97.6998046 -4.77835679 0)
(97.7760254 -4.721645271 0)
(97.63590756 -4.604891975 0)
(97.56463967 -4.653633364 0)
(96.97973698 -4.43795401 0)
(97.01519543 -4.406928664 0)
(96.89075854 -4.286932801 0)
(96.85853729 -4.312220144 0)
(96.45821031 -4.006408868 0)
(96.46119557 -3.998461985 0)
(96.35239402 -3.881379292 0)
(96.35183538 -3.885828828 0)
(96.08987531 -3.5305051 0)
(96.11473248 -3.520524638 0)
(95.9965126 -3.420872385 0)
(96.02353106 -3.40467203 0)
(95.91109998 -2.942981702 0)
(95.82100802 -2.991345455 0)
(95.67559462 -2.795620973 0)
(95.76709371 -2.740633848 0)
(95.84487743 -2.416662187 0)
(95.73276892 -2.486998055 0)
(95.60244997 -2.307556205 0)
(95.70977093 -2.228917407 0)
(95.5263609 -1.441092758 0)
(95.33542559 -1.60410793 0)
(95.49717891 -1.899895444 0)
(95.65145367 -1.970305628 0)
(95.47833027 -0.9556835796 0)
(95.28078571 -1.149835491 0)
(95.44763162 -0.4758267071 0)
(95.24214366 -0.6849810029 0)
(95.22168419 -0.228176441 0)
(99.76477499 -4.34648562 -1.752740605e-35)
(99.91162354 -4.26407729 -2.530305774e-37)
(99.76596682 -4.191078376 -3.412503708e-35)
(99.60526841 -4.265345878 -1.752946088e-35)
(98.52592164 -4.294868096 0)
(98.663752 -4.227625009 0)
(98.50052742 -4.140626412 0)
(98.36805411 -4.200594855 0)
(97.46804308 -4.129557002 0)
(97.5649218 -4.080229104 0)
(97.41880426 -3.98469454 0)
(97.32827853 -4.027819376 0)
(96.65551643 -3.867371188 0)
(96.7113654 -3.837097395 0)
(96.58620567 -3.737941443 0)
(96.53533213 -3.763323129 0)
(96.06892918 -3.528080763 0)
(96.08979096 -3.51601531 0)
(95.98442171 -3.417436102 0)
(95.96756817 -3.426063726 0)
(95.67490017 -3.13799322 0)
(95.68491579 -3.134259026 0)
(95.58726335 -3.043207757 0)
(95.60036213 -3.034052099 0)
(95.458322 -2.651490745 0)
(95.39169291 -2.685302457 0)
(95.2575819 -2.511751884 0)
(95.32871217 -2.471625673 0)
(95.38208304 -2.198775842 0)
(95.28809207 -2.252766304 0)
(95.17013411 -2.0915951 0)
(95.26144094 -2.027158337 0)
(95.08881701 -1.320119695 0)
(94.91942628 -1.461157918 0)
(95.06899815 -1.727931551 0)
(95.20522461 -1.797923615 0)
(95.044256 -0.8787689266 0)
(94.86615721 -1.052950668 0)
(95.01625321 -0.4384898046 0)
(94.82854449 -0.6283967495 0)
(94.80974343 -0.2097551445 0)
(99.76408026 -3.766158693 -1.489141261e-35)
(99.91270492 -3.700202185 0)
(99.76193236 -3.636863459 0)
(99.59307744 -3.697915421 0)
(98.43136321 -3.718442848 0)
(98.58292125 -3.662609779 0)
(98.41032129 -3.589909725 0)
(98.26483067 -3.64020709 0)
(97.28729834 -3.585942043 0)
(97.39935014 -3.543345226 0)
(97.2481274 -3.46394716 0)
(97.14322975 -3.50164205 0)
(96.40075535 -3.37821324 0)
(96.4722977 -3.35006512 0)
(96.34549358 -3.267207315 0)
(96.28000787 -3.291230916 0)
(95.75624361 -3.106121138 0)
(95.79173356 -3.092456364 0)
(95.68769323 -3.008988015 0)
(95.65728902 -3.019472911 0)
(95.33346612 -2.783098602 0)
(95.33046007 -2.783475995 0)
(95.24930113 -2.701425248 0)
(95.25035933 -2.696693079 0)
(95.07200014 -2.377093519 0)
(95.02769815 -2.40060227 0)
(94.90040805 -2.247901111 0)
(94.95229284 -2.217930721 0)
(94.97785065 -1.98674912 0)
(94.90200316 -2.028802633 0)
(94.79267107 -1.885014819 0)
(94.86785922 -1.831666272 0)
(94.695333 -1.200411189 0)
(94.54823276 -1.322938731 0)
(94.68975754 -1.562041191 0)
(94.80980749 -1.62905998 0)
(94.64959221 -0.8016754609 0)
(94.49158531 -0.9576902817 0)
(94.62154639 -0.4007928045 0)
(94.4519763 -0.5724230659 0)
(94.43323911 -0.1914659373 0)
(99.75196802 -3.280982904 -2.290093691e-35)
(99.90139386 -3.22727307 -1.508111919e-36)
(99.74766891 -3.172099716 -2.290093691e-35)
(99.57353495 -3.222696019 -2.28983027e-35)
(98.35216892 -3.23608813 0)
(98.51396881 -3.189339553 0)
(98.33425689 -3.127838572 0)
(98.17895019 -3.17026917 0)
(97.14209828 -3.126870733 0)
(97.26559913 -3.090192093 0)
(97.11012467 -3.023410476 0)
(96.99424467 -3.05615153 0)
(96.19608059 -2.958382339 0)
(96.27987715 -2.93289604 0)
(96.15111563 -2.863011647 0)
(96.07404639 -2.885024289 0)
(95.50118406 -2.736311065 0)
(95.5486612 -2.722476284 0)
(95.44474261 -2.65141569 0)
(95.40307676 -2.662384833 0)
(95.0494824 -2.466055051 0)
(95.03528231 -2.468727548 0)
(94.96714763 -2.39559288 0)
(94.95769008 -2.393515756 0)
(94.74149022 -2.124466025 0)
(94.71750112 -2.140713681 0)
(94.59423873 -2.006957115 0)
(94.62827121 -1.983954373 0)
(94.62480831 -1.786763244 0)
(94.56635649 -1.820084963 0)
(94.46285448 -1.692453684 0)
(94.52251681 -1.647674013 0)
(94.34290342 -1.085849493 0)
(94.21784082 -1.192922939 0)
(94.35434052 -1.406320988 0)
(94.46011647 -1.46878939 0)
(94.2928136 -0.7271663704 0)
(94.15463877 -0.8668874503 0)
(94.26280445 -0.3641582968 0)
(94.11098551 -0.5188145677 0)
(94.09114921 -0.1738886623 0)
(99.73249058 -2.871177718 1.962585197e-35)
(99.88194793 -2.826972748 0)
(99.72679489 -2.77876983 0)
(99.54931938 -2.820910217 0)
(98.28427921 -2.828712462 0)
(98.45390956 -2.789335984 0)
(98.26875097 -2.736873987 0)
(98.10585211 -2.772807389 0)
(97.02268442 -2.7368048 0)
(97.1550454 -2.705275224 0)
(96.99605729 -2.648618061 0)
(96.87159406 -2.676933352 0)
(96.02849001 -2.597516607 0)
(96.12200702 -2.574830582 0)
(95.99127184 -2.51546621 0)
(95.90489471 -2.535215619 0)
(95.2901717 -2.413502116 0)
(95.34754509 -2.400301262 0)
(95.24308551 -2.339531186 0)
(95.19200949 -2.350181702 0)
(94.81083266 -2.185299212 0)
(94.78698895 -2.18907562 0)
(94.72924645 -2.124406298 0)
(94.7106084 -2.12383818 0)
(94.45753257 -1.895449227 0)
(94.45175906 -1.906884046 0)
(94.33054249 -1.789929697 0)
(94.34829053 -1.771694397 0)
(94.3160734 -1.602226988 0)
(94.27387099 -1.629214584 0)
(94.17415571 -1.516313008 0)
(94.21925149 -1.478133482 0)
(94.02797407 -0.9788652092 0)
(93.92404097 -1.073139541 0)
(94.0577002 -1.263094454 0)
(94.15098971 -1.320142003 0)
(93.97150717 -0.657040947 0)
(93.85231742 -0.7823193748 0)
(93.93825516 -0.3295255767 0)
(93.80333472 -0.468704131 0)
(93.78159324 -0.1574030693 0)
(99.7082198 -2.522827735 7.610950597e-36)
(99.85708182 -2.486257596 5.479234436e-37)
(99.70160959 -2.444071496 7.610950597e-36)
(99.52218235 -2.479221654 7.611842867e-36)
(98.22513997 -2.482564743 0)
(98.40085565 -2.449307565 0)
(98.21150368 -2.404329146 0)
(98.04262218 -2.434792808 0)
(96.92267329 -2.404002706 0)
(97.06204275 -2.376971669 0)
(96.90015588 -2.328635525 0)
(96.76884961 -2.353004172 0)
(95.88907092 -2.287065001 0)
(95.99042307 -2.267142072 0)
(95.8578348 -2.216469306 0)
(95.76387341 -2.233894386 0)
(95.11343751 -2.132598537 0)
(95.17905713 -2.120483836 0)
(95.07372016 -2.068350531 0)
(95.01471889 -2.078207835 0)
(94.60840275 -1.938364533 0)
(94.57621877 -1.942474896 0)
(94.52689112 -1.885680419 0)
(94.50023634 -1.885860245 0)
(94.21233412 -1.690333971 0)
(94.22275376 -1.698729273 0)
(94.10223538 -1.596545656 0)
(94.10527209 -1.581521614 0)
(94.04548838 -1.434709679 0)
(94.0182058 -1.457149706 0)
(93.92079253 -1.357499929 0)
(93.95245526 -1.324402418 0)
(93.7468121 -0.8808313931 0)
(93.66266454 -0.9645716768 0)
(93.7950843 -1.133429104 0)
(93.87751831 -1.184680256 0)
(93.68277748 -0.5923812909 0)
(93.58133197 -0.7049832127 0)
(93.64548543 -0.2974764616 0)
(93.52630047 -0.4227559466 0)
(93.50212796 -0.1422375225 0)
(99.68079887 -2.225667235 6.542844742e-36)
(99.82855819 -2.195390378 0)
(99.67358813 -2.158435645 0)
(99.49324461 -2.187713438 0)
(98.17299752 -2.187416523 0)
(98.35348376 -2.15932864 0)
(98.1608999 -2.120658326 0)
(97.9872461 -2.146448673 0)
(96.83769115 -2.11942498 0)
(96.98270069 -2.0963422 0)
(96.81841231 -2.054968443 0)
(96.68156341 -2.075817062 0)
(95.77153274 -2.019996933 0)
(95.87928692 -2.00270924 0)
(95.74500942 -1.959323617 0)
(95.64479506 -1.974471298 0)
(94.96380362 -1.888880399 0)
(95.03634922 -1.878085523 0)
(94.92997522 -1.833270274 0)
(94.86425459 -1.842069472 0)
(94.43523295 -1.722408454 0)
(94.39581961 -1.726366432 0)
(94.35337218 -1.676793074 0)
(94.31971619 -1.677216966 0)
(93.99945982 -1.508412268 0)
(94.02423607 -1.515024292 0)
(93.90348573 -1.425783158 0)
(93.89332066 -1.412853284 0)
(93.80763516 -1.284587883 0)
(93.79390333 -1.303813772 0)
(93.69770232 -1.215982315 0)
(93.71712627 -1.186782725 0)
(93.49571081 -0.7923697477 0)
(93.42980381 -0.8675250061 0)
(93.56213811 -1.017569238 0)
(93.63516822 -1.062935644 0)
(93.42351385 -0.5337482245 0)
(93.3383832 -0.635340353 0)
(93.38174008 -0.2683298927 0)
(93.27698038 -0.3813027067 0)
(93.25005915 -0.1285121608 0)
(99.65130609 -1.971944935 0)
(99.79755564 -1.946949837 0)
(99.64369927 -1.914564007 0)
(99.46322707 -1.93885122 0)
(98.1265734 -1.935516268 0)
(98.31080643 -1.911850232 0)
(98.11574058 -1.878561569 0)
(97.93825559 -1.900316866 0)
(96.76462789 -1.876056681 0)
(96.91423469 -1.85645087 0)
(96.74794061 -1.820976415 0)
(96.60654862 -1.838684828 0)
(95.6713244 -1.790591402 0)
(95.7843651 -1.775766419 0)
(95.64856151 -1.738554972 0)
(95.54314476 -1.751532006 0)
(94.83590772 -1.678185539 0)
(94.91430575 -1.668808168 0)
(94.80682568 -1.630235325 0)
(94.73538004 -1.63784542 0)
(94.285941 -1.534606283 0)
(94.24025307 -1.53811244 0)
(94.20345551 -1.495091798 0)
(94.16368475 -1.495429912 0)
(93.81365377 -1.348468842 0)
(93.85114316 -1.354188113 0)
(93.7295169 -1.276276575 0)
(93.70754927 -1.264618654 0)
(93.59783162 -1.1515413 0)
(93.59631839 -1.168558268 0)
(93.50052074 -1.091204787 0)
(93.50888707 -1.064964162 0)
(93.271102 -0.7136025324 0)
(93.22178367 -0.7818466587 0)
(93.35491142 -0.9152527838 0)
(93.41984476 -0.9548315351 0)
(93.19055267 -0.481338503 0)
(93.12019462 -0.5734683745 0)
(93.14410497 -0.2422164104 0)
(93.0523616 -0.3444341103 0)
(93.02252132 -0.1162667651 0)
(99.62045935 -1.755579754 0)
(99.76488651 -1.735091663 0)
(99.61259915 -1.706737465 0)
(99.43259711 -1.726725218 0)
(98.08487338 -1.720788575 0)
(98.27204039 -1.700963084 0)
(98.07508849 -1.672326626 0)
(97.8945182 -1.690547834 0)
(96.70116024 -1.668299981 0)
(96.85455532 -1.651786805 0)
(96.68657233 -1.621376041 0)
(96.54141749 -1.63625945 0)
(95.58501881 -1.594109028 0)
(95.70246814 -1.581578012 0)
(95.56528945 -1.549656239 0)
(95.45550633 -1.560578112 0)
(94.72560727 -1.496847231 0)
(94.80898373 -1.488921973 0)
(94.70038124 -1.455716396 0)
(94.62402998 -1.462070845 0)
(94.1562498 -1.372279163 0)
(94.10509935 -1.375138632 0)
(94.07296377 -1.338051535 0)
(94.02784014 -1.338074103 0)
(93.65052966 -1.209015827 0)
(93.699278 -1.214484439 0)
(93.5763214 -1.146492235 0)
(93.54382202 -1.135484655 0)
(93.4119737 -1.034818836 0)
(93.42142679 -1.050398138 0)
(93.32541968 -0.9822970051 0)
(93.32385126 -0.9582554435 0)
(93.06961233 -0.6443317437 0)
(93.03523942 -0.7071345484 0)
(93.16983713 -0.8259184815 0)
(93.22783085 -0.859901638 0)
(92.98077801 -0.4351081157 0)
(92.92365018 -0.5192157341 0)
(92.92962747 -0.2191393088 0)
(92.8494918 -0.3120914095 0)
(92.8166621 -0.1054914285 0)
(99.58877091 -1.571811978 0)
(99.73115961 -1.555245337 0)
(99.58075884 -1.530501096 0)
(99.40167899 -1.546717245 0)
(98.04709547 -1.538461477 0)
(98.2365395 -1.522034328 0)
(98.03818011 -1.497474741 0)
(97.85512637 -1.512544622 0)
(96.64549744 -1.491691811 0)
(96.80204259 -1.477971425 0)
(96.63262524 -1.451964648 0)
(96.4843258 -1.464270272 0)
(95.50997284 -1.426665611 0)
(95.63113256 -1.416287072 0)
(95.49271264 -1.388950138 0)
(95.37923424 -1.397915344 0)
(94.6296463 -1.341727493 0)
(94.71728734 -1.335268126 0)
(94.60757429 -1.306718525 0)
(94.5269939 -1.311774203 0)
(94.04271431 -1.233016206 0)
(93.98678922 -1.235087108 0)
(93.95851677 -1.20339129 0)
(93.90869361 -1.202923049 0)
(93.50642738 -1.088519833 0)
(93.56515515 -1.094214436 0)
(93.44053792 -1.034915818 0)
(93.39864503 -1.024070597 0)
(93.24649735 -0.9334812343 0)
(93.26576329 -0.9482329747 0)
(93.16906414 -0.888277102 0)
(93.15860748 -0.8658000169 0)
(92.88812238 -0.5841857423 0)
(92.8670959 -0.6428547178 0)
(93.00371545 -0.748868082 0)
(93.05580392 -0.7774844773 0)
(92.7912211 -0.3948734885 0)
(92.74581045 -0.4722971752 0)
(92.73543899 -0.1990262902 0)
(92.6655232 -0.2841262554 0)
(92.62969702 -0.09614541812 0)
(99.5565717 -1.416882111 0)
(99.69678402 -1.403775029 0)
(99.54846587 -1.382280068 0)
(99.37065028 -1.395147136 0)
(98.01254878 -1.384734837 0)
(98.20372516 -1.37135468 0)
(98.00434224 -1.350395101 0)
(97.81930253 -1.362619461 0)
(96.59620169 -1.342635692 0)
(96.7553797 -1.331463199 0)
(96.58472729 -1.309318337 0)
(96.43378524 -1.319249871 0)
(95.44408188 -1.285066319 0)
(95.56838372 -1.276715061 0)
(95.42882955 -1.253382218 0)
(95.31220577 -1.260480501 0)
(94.5453949 -1.210166458 0)
(94.63670695 -1.205170353 0)
(94.5258975 -1.180684946 0)
(94.44165405 -1.184416909 0)
(93.94244792 -1.114683653 0)
(93.88234234 -1.11585077 0)
(93.85723127 -1.089078109 0)
(93.80328796 -1.087955465 0)
(93.37825544 -0.9855130377 0)
(93.44586703 -0.9918062187 0)
(93.31930413 -0.9401660889 0)
(93.26902152 -0.9290557973 0)
(93.09827526 -0.8465338392 0)
(93.12630046 -0.8609590712 0)
(93.02851015 -0.8081505782 0)
(93.01012791 -0.7866979539 0)
(92.72370267 -0.5327016083 0)
(92.71451 -0.5884431032 0)
(92.85365018 -0.6833704572 0)
(92.90075539 -0.7068711128 0)
(92.61902893 -0.3603727276 0)
(92.58391549 -0.4323594656 0)
(92.55873669 -0.1817600765 0)
(92.49773408 -0.2603468642 0)
(92.45894189 -0.0881733412 0)
(99.5240578 -1.287719468 -1.066724451e-36)
(99.66203565 -1.277698884 -1.012293883e-38)
(99.51589932 -1.259155944 -2.069524954e-36)
(99.33959046 -1.269012936 -1.066601749e-36)
(97.98061569 -1.256534074 0)
(98.17307225 -1.245925548 0)
(97.97297726 -1.228175944 0)
(97.78636539 -1.237793142 0)
(96.55207925 -1.218208693 0)
(96.71346753 -1.209393778 0)
(96.5417374 -1.190668315 0)
(96.38856292 -1.198383371 0)
(95.38562359 -1.166676354 0)
(95.51260303 -1.160254298 0)
(95.37199946 -1.140448416 0)
(95.25268288 -1.145749428 0)
(94.47069725 -1.099933442 0)
(94.56518927 -1.096395916 0)
(94.45330463 -1.075484806 0)
(94.36586874 -1.077878542 0)
(93.85309274 -1.015590714 0)
(93.78923206 -1.015832167 0)
(93.76688754 -0.9936318937 0)
(93.70917433 -0.9918017193 0)
(93.26329706 -0.8987641606 0)
(93.33888737 -0.9060187553 0)
(93.20997809 -0.861157343 0)
(93.15228609 -0.8492570607 0)
(92.96452231 -0.7729911384 0)
(93.00034971 -0.7875401924 0)
(92.90112211 -0.7409670967 0)
(92.8757087 -0.7200463348 0)
(92.57380105 -0.4894000703 0)
(92.57496513 -0.5433011043 0)
(92.71704286 -0.6286567927 0)
(92.76002454 -0.6472373154 0)
(92.4616792 -0.3313225376 0)
(92.43541763 -0.3990359138 0)
(92.39702933 -0.1672137011 0)
(92.34357883 -0.2405429827 0)
(92.30186152 -0.08150994297 0)
(99.49137445 -1.181832546 0)
(99.62713162 -1.174591488 0)
(99.48319051 -1.158754553 0)
(99.30854795 -1.165878437 0)
(97.95075681 -1.151389173 0)
(98.14411849 -1.143328359 0)
(97.94355924 -1.128463795 0)
(97.75572204 -1.135665324 0)
(96.51212284 -1.116058415 0)
(96.67537008 -1.109448055 0)
(96.50267943 -1.093770506 0)
(96.34761358 -1.099394171 0)
(95.33316041 -1.069344669 0)
(95.46242817 -1.064772479 0)
(95.32083123 -1.048088189 0)
(95.19920456 -1.05164627 0)
(94.40377487 -1.00914271 0)
(94.50101992 -1.007055003 0)
(94.38806974 -0.9892875751 0)
(94.29786196 -0.9903342359 0)
(93.77281851 -0.9340961806 0)
(93.70563895 -0.9334685451 0)
(93.68564492 -0.9154035869 0)
(93.62459829 -0.9128096186 0)
(93.15902865 -0.8271837241 0)
(93.24164068 -0.8354522539 0)
(93.11025663 -0.7966437112 0)
(93.04602053 -0.7835310927 0)
(92.84273971 -0.7119533612 0)
(92.88549774 -0.7270076695 0)
(92.78456384 -0.6858385213 0)
(92.75289456 -0.6650754706 0)
(92.43549449 -0.4537841766 0)
(92.44588371 -0.5070807613 0)
(92.59146434 -0.5842145441 0)
(92.63098449 -0.5981708513 0)
(92.31621763 -0.307421644 0)
(92.29792483 -0.3719846083 0)
(92.24731628 -0.1552324857 0)
(92.20062029 -0.2245483878 0)
(92.15603629 -0.07611216842 0)
(99.45862064 -1.097215847 0)
(99.59223349 -1.092516502 0)
(99.45042814 -1.079192687 0)
(99.277542 -1.083796367 0)
(97.92248864 -1.067303915 0)
(98.11644856 -1.061622174 0)
(97.91561686 -1.049380207 0)
(97.72684239 -1.054307696 0)
(96.475445 -1.034272987 0)
(96.64026081 -1.029757218 0)
(96.46669211 -1.016822661 0)
(96.31001653 -1.020440651 0)
(95.28542695 -0.9912992793 0)
(95.41665899 -0.9885287992 0)
(95.27409644 -0.9746286786 0)
(95.15047935 -0.9764686247 0)
(94.343013 -0.9361779586 0)
(94.44264229 -0.9355589419 0)
(94.32860599 -0.9205693475 0)
(94.23599054 -0.9202238133 0)
(93.69966975 -0.8685654976 0)
(93.62970519 -0.8668538426 0)
(93.61124946 -0.8525535321 0)
(93.54748463 -0.8489212403 0)
(93.06346452 -0.7693636462 0)
(93.1521551 -0.7787594952 0)
(93.01844698 -0.7452700653 0)
(92.94824943 -0.7308352472 0)
(92.73066929 -0.662468256 0)
(92.77955438 -0.6784252237 0)
(92.67644394 -0.6419315752 0)
(92.63944207 -0.620698626 0)
(92.30827941 -0.4255305157 0)
(92.32591932 -0.4785120999 0)
(92.47478829 -0.5488376078 0)
(92.51198978 -0.5576301361 0)
(92.18217716 -0.2884880652 0)
(92.1691873 -0.3508436334 0)
(92.10923675 -0.1457735938 0)
(92.06656179 -0.2121028999 0)
(92.01909674 -0.07187280816 0)
(99.42585668 -1.032321317 -3.815969591e-36)
(99.55746322 -1.029988537 0)
(99.41766631 -1.019034557 -3.117092293e-36)
(99.24656382 -1.021270662 0)
(97.8953677 -1.00272255 0)
(98.08967879 -0.9993037882 0)
(97.88871577 -0.9894774502 0)
(97.69924071 -0.9922233284 0)
(96.4412514 -0.971351409 0)
(96.60739786 -0.9688630781 0)
(96.43300351 -0.9584255408 0)
(96.27494837 -0.9600840434 0)
(95.24129615 -0.9311464927 0)
(95.37422769 -0.9301622953 0)
(95.23070438 -0.9187709042 0)
(95.10535796 -0.918888429 0)
(94.28694439 -0.8798149133 0)
(94.38866059 -0.8807072487 0)
(94.27350806 -0.8682017073 0)
(94.17877129 -0.8664053311 0)
(93.63182874 -0.8182083776 0)
(93.55934143 -0.8152009661 0)
(93.54210539 -0.8045476095 0)
(93.47576949 -0.799862356 0)
(92.97491519 -0.7243255146 0)