/*--------------------------------*- C++ -*----------------------------------*\
| =========                 |                                                 |
| \\      /  F ield         | OpenFOAM: The Open Source CFD Toolbox           |
|  \\    /   O peration     | Version:  v2012                                 |
|   \\  /    A nd           | Website:  www.openfoam.com                      |
|    \\/     M anipulation  |                                                 |
\*---------------------------------------------------------------------------*/
FoamFile
{
    version     2.0;
    format      ascii;
    class       volScalarField;
    location    "1.81";
    object      p;
}
// * * * * * * * * * * * * * * * * * * * * * * * * * * * * * * * * * * * * * //

dimensions      [0 2 -2 0 0 0 0];


internalField   nonuniform List<scalar> 
3019
(
780.4738094
779.5454839
777.2693803
772.5567113
765.8253013
751.5134391
728.0478527
690.537614
634.1401744
552.8047777
441.7484119
300.0546474
781.0579561
780.4617415
778.8525933
775.3496044
768.6737206
756.4959383
735.7667423
705.4553593
654.9535534
579.8722463
473.7915837
333.5295587
782.4205042
782.5601261
782.5057903
781.6139366
776.9930776
769.6426648
755.4817187
729.616161
687.7840891
620.6853651
516.1931923
364.7481423
783.9735958
785.1550767
787.3358385
789.961431
789.1650286
788.6282181
784.4718348
768.5208116
742.3300488
689.0838094
588.2844221
419.8491552
784.6461008
787.0170433
791.7702683
798.5982686
802.2953864
810.7331638
819.1674577
819.0822509
815.6194226
790.4748899
713.5121224
530.0473129
783.2639865
786.822042
794.1244199
805.3203258
814.2882267
832.3090587
855.0273266
873.6268629
904.0102047
932.7741447
927.545272
779.2912077
778.7014912
783.2999966
792.7726444
807.8269344
822.4747471
849.1018471
885.1764264
923.2456511
991.3182155
1091.850981
1235.698819
1373.267857
769.9824662
775.3422612
786.3887141
804.1592477
823.8659852
856.9072033
902.5469402
957.0113297
1053.88926
1207.804993
1469.461518
1991.490652
756.3648655
762.107174
773.9278736
793.0075167
816.4926088
852.8006077
902.9090607
966.3770002
1073.486006
1231.848221
1453.265795
1709.173354
737.4394162
743.1444739
754.8541084
773.7071019
799.4145507
835.5957112
884.878367
949.6735948
1050.617318
1186.31101
1342.001328
1477.161477
713.1829816
718.4598748
729.2236587
746.3563218
772.8293889
805.8664934
850.0467193
910.2644445
997.1121235
1106.133
1222.425308
1325.696429
683.9313365
688.4502976
697.6513813
711.5547189
738.2172222
765.3137358
801.3657978
852.9777661
921.8965769
1005.648809
1098.243643
1205.807386
1751.490011
1499.644791
1341.795164
1221.45052
1961.35158
1371.654519
1485.483007
1679.660641
1252.336474
1330.431875
1463.569272
1414.239908
1448.272786
1529.397747
1130.549254
1206.412906
1314.010678
1280.602781
1322.682961
1367.526309
1190.415253
1146.931138
1212.873265
1268.985077
2166.890344
1796.999159
2697.860581
2244.81224
1539.854785
1614.547055
1575.165521
1617.116493
1543.893135
1765.815992
1629.707796
1375.108723
1437.411742
1394.732099
1443.806422
1377.013688
1538.369229
1449.744814
1272.892962
1320.143375
1266.092192
1323.803179
1277.518607
1373.059684
1326.085153
1208.84276
1137.169799
1214.624089
1273.49837
1218.707732
1473.204565
1715.61059
1883.204407
1937.428538
2207.362791
2555.874491
1604.122424
1627.74617
1769.200755
1800.204436
2140.42874
1893.303721
1864.981901
3568.307519
2977.560205
1969.975869
2672.394587
1239.238043
1207.804485
1182.629296
2164.416182
1896.262669
1971.18986
1908.500765
2190.63288
1740.081077
1879.558525
1919.359141
2579.970511
2925.646052
3413.452884
2250.860925
2825.962939
2499.439186
2858.308712
2235.003085
1581.561679
1623.702023
1576.613223
1693.294766
1664.728861
1731.146899
1625.851722
1658.392292
1674.73152
1409.381533
1404.65359
1498.02028
1491.552824
1303.194922
1299.813055
1348.062997
1344.955098
1173.673797
1246.818163
1243.712871
2699.253915
3542.133008
1342.333383
1321.849389
1301.693957
1351.118343
1328.876291
1345.766357
1238.975529
1215.759067
1242.62061
1399.206433
1383.723576
1358.936472
1384.227693
1394.116682
1388.152491
1295.965283
1268.042856
1246.482788
1295.112687
1275.003958
1299.314231
1316.33184
1331.014008
1334.899292
1291.102951
1307.751139
1288.598337
1361.865079
1367.928021
1380.414765
1335.780321
1340.486813
1333.339882
1261.034715
1270.027731
1287.655866
1249.428557
1229.449258
1804.94478
1785.738924
3432.623679
3334.248926
2026.526742
1990.231092
2005.824492
2042.258413
1943.224042
2211.549731
2080.189821
2044.826665
1793.466593
1822.181708
1770.06255
1914.74471
1842.584802
1813.605528
2462.636592
2432.697037
2264.117816
2550.931382
2457.329105
1601.228998
1601.704782
1590.00968
1622.449645
1606.843487
1608.080555
1574.440714
1563.994574
1587.565088
1577.616621
1688.265277
1707.742742
1680.03596
1755.845555
1718.491085
1696.793929
1641.270755
1645.220285
1627.600711
1672.085687
1651.624874
1647.796135
1429.634443
1416.31209
1451.341256
1433.304434
1395.668705
1386.89976
1411.039419
1398.395084
1533.523344
1512.397643
1559.471172
1540.476272
1476.689035
1456.467082
1505.303823
1484.001942
1314.236562
1327.708053
1313.354579
1333.479886
1317.021307
1338.17108
1337.326888
1314.034617
1291.060748
1308.117449
1310.788379
1355.997764
1363.96887
1358.044737
1367.275715
1358.997357
1382.98876
1370.462577
1341.677136
1338.181434
1352.860256
1343.658702
1336.021314
1342.675218
1352.122709
1257.206592
1265.560997
1257.087823
1233.462901
1253.953041
1255.957296
1483.258469
1462.036274
1430.748011
1505.4405
1472.794275
1495.177806
1420.750379
1392.528996
1408.049207
1428.300398
1432.741208
1449.879112
1455.343589
1474.531314
1466.98073
1838.570311
2109.715319
2168.450347
1927.27403
1938.923043
1952.965386
1922.389046
1750.548166
1765.908887
1752.005401
1893.944647
1868.143833
1853.87792
2689.485615
2498.264224
2547.44168
2747.478257
2746.960612
2890.742816
2225.922498
2286.510663
2300.636038
1592.108767
1591.273297
1594.653731
1622.788062
1618.458187
1619.830018
1579.424229
1577.654224
1593.883098
1589.771611
1673.441102
1678.372862
1670.289171
1739.726695
1727.582121
1720.208722
1628.351943
1630.294793
1626.332513
1663.38318
1658.243278
1655.23733
1414.66931
1428.260768
1423.048573
1392.285775
1397.414311
1409.885873
1508.854118
1529.041771
1515.880634
1526.453366
1518.807483
1574.641485
1568.036024
1463.598514
1511.231378
1503.723549
1473.436559
1481.450709
1502.02411
1332.893791
1327.845489
1325.538031
1294.998417
1291.27337
1286.980614
1299.910773
1296.205899
1301.027106
1222.566975
1217.439436
1275.870959
1272.989043
1267.904217
1282.997526
1278.335546
1282.42992
1232.219097
1229.79407
1241.95786
1226.48
1233.63931
1820.433973
1761.869784
3878.684469
3744.10841
3186.441805
3044.500809
3571.362166
3357.755734
3477.414438
2066.058428
1957.337352
1803.797781
1782.849441
1767.535928
1832.650135
1845.328031
1824.375004
2533.996258
2628.296984
2649.425537
2909.665596
2783.22528
2373.708606
2358.853082
2443.225249
1601.859127
1597.666911
1596.852025
1614.530548
1613.279915
1607.62547
1582.333715
1580.801982
1586.262016
1584.057812
1694.793961
1686.463274
1681.190207
1707.849401
1715.435782
1704.303933
1642.221212
1635.767174
1633.774737
1652.319383
1653.628531
1648.407462
1425.794698
1427.485908
1430.3755
1417.871984
1423.337208
1421.339583
1444.439179
1442.897772
1451.882165
1432.498804
1436.011533
1438.000514
1393.101058
1395.191103
1396.907538
1389.860582
1392.924746
1390.237212
1406.09875
1406.26619
1411.790068
1398.709399
1401.733602
1401.833206
1541.951915
1534.256056
1526.560464
1530.6537
1537.917586
1515.861778
1523.255952
1519.500968
1558.561859
1549.676845
1481.783398
1475.214101
1469.512975
1472.378501
1479.248853
1457.72767
1458.620675
1461.242978
1498.216484
1501.210118
1508.517585
1486.744249
1493.9633
1491.128473
1496.417867
1489.185699
1318.136981
1314.466101
1310.610179
1322.452308
1318.59083
1322.983363
1327.085626
1321.096405
1338.333485
1338.311642
1312.555639
1304.000929
1299.196016
1299.31078
1300.23712
1306.878281
1303.837253
1308.94094
1356.30961
1360.346771
1370.179407
1361.042952
1378.714663
1380.960653
1385.663963
1373.151108
1376.849761
1374.614537
1339.94081
1338.737047
1348.255047
1345.6695
1259.352716
1257.118306
1254.545104
1263.646596
1260.125481
1262.118931
1255.516298
1248.945381
1245.85224
1252.453149
1250.745458
1255.674354
721.98487
690.7011369
670.2122068
677.3481501
628.0673921
601.9832695
607.5385917
533.234523
504.0123443
502.9404471
396.5972882
371.7996083
355.2210719
757.5660243
736.3497216
700.324606
726.7938272
687.2444285
640.5136079
669.3560828
597.4202709
546.6731757
566.4220269
449.7417675
407.1362059
402.6724518
805.6961127
799.6427367
750.6914597
795.5996925
773.4875539
706.0168163
761.455175
704.0060389
619.1464605
675.4208091
550.7495841
468.9861574
494.1243252
860.0866395
876.1333305
817.9144085
881.3230472
892.7013354
800.0303548
893.7121687
878.6555994
740.2374348
863.7066351
759.6488838
589.3205748
695.5492207
911.8890492
954.1106861
896.0654337
970.8395613
1030.236889
926.7158171
1053.300306
1129.736276
935.7050325
1155.122045
1198.956475
841.9431684
1176.497563
950.673569
1015.234963
971.6590174
1042.000471
1143.667452
1063.037644
1186.68981
1357.284953
1195.691425
1434.032234
1857.119747
1354.05491
1637.076024
1727.850734
1254.973631
966.4662013
1041.717309
1025.464203
1072.598282
1187.296946
1162.037501
1234.097654
1405.348156
1388.485607
1485.526068
1579.798429
1564.619962
1994.019506
2114.349107
2120.903864
956.1558121
1030.178778
1042.529358
1059.577642
1162.813327
1186.488321
1201.942246
1328.67919
1392.47711
1428.378415
1483.738033
1517.706572
1670.679241
1689.183425
1732.453139
921.9975814
987.5855611
1022.102326
1012.831577
1097.718361
1149.432691
1128.359731
1222.119255
1303.253157
1312.12572
1345.980516
1379.436697
1455.526863
1465.720484
1498.446646
868.7392049
922.2614135
973.0829988
942.4107197
1008.795538
1077.347901
1032.459086
1105.76418
1193.990699
1192.323771
1218.853319
1250.000233
1310.221559
1322.682663
1345.16566
903.1091469
983.6311711
1074.487858
1064.68861
1085.742087
1122.819932
1189.669606
1207.01694
1230.504936
1781.960843
1837.971832
1797.376729
1509.653645
1544.556653
1523.395386
1353.062072
1377.838227
1358.591816
1238.13934
1260.04059
1236.656684
2532.713526
1932.620933
1732.950314
1183.012023
1719.068336
1413.696251
1448.636072
1400.70274
1557.949012
1492.986125
1435.13953
1577.107552
1515.823801
1585.169346
1281.392227
1313.323578
1282.217332
1383.46039
1343.148495
1294.551112
1414.597714
1361.844425
1402.472927
1424.219782
1454.985051
1434.537877
1459.632212
1453.81137
1442.927133
1521.181792
1510.244921
1518.410552
1155.746308
1187.588805
1161.797769
1252.443732
1214.150301
1167.479509
1277.180157
1231.065662
1267.517096
1294.718259
1315.471685
1295.246932
1330.477676
1321.433444
1315.505901
1362.325182
1354.82374
1360.038061
1149.866914
1097.753801
1139.107825
1173.187555
1198.877136
1172.921816
1224.592147
1210.44177
1197.41246
1256.142828
1248.521212
1257.084982
2094.687038
2082.791477
2207.773353
1776.511444
1829.60534
1832.884167
2688.073091
2846.653815
2866.903726
2272.034608
2371.370647
2327.5734
1569.876532
1550.180167
1516.431393
1602.194584
1561.976664
1579.986011
1548.543216
1557.291797
1587.516075
1605.476081
1606.117665
1622.209005
1558.191513
1570.14196
1557.908193
1738.542058
1723.343855
1761.824732
1627.717679
1646.269907
1643.39981
1382.80855
1377.873928
1370.001695
1432.405474
1422.297466
1427.074792
1376.190889
1386.591019
1414.409173
1438.733854
1440.502634
1446.018818
1379.330827
1383.042981
1380.592612
1522.134236
1535.615422
1553.429131
1451.638476
1457.488402
1455.092883
1283.631728
1270.735941
1263.614553
1309.653799
1303.694148
1312.155642
1251.5058
1267.192182
1287.850435
1321.4811
1325.487843
1327.493725
1282.379779
1286.744483
1281.582998
1369.429745
1371.704256
1375.569943
1329.453129
1331.483417
1328.399336
1192.94314
1164.194378
1209.846755
1214.558788
1219.521093
1269.413555
1273.866736
1278.211324
1224.335947
1226.182714
1221.564051
1548.092883
1571.217068
1485.251348
1826.862746
1648.860038
1601.043899
1640.800119
1661.259331
1857.541305
2026.836823
2081.734236
1973.159625
2413.016244
2185.123321
2080.559967
2288.552736
2210.258277
2473.648946
1617.731366
1651.28711
1635.795743
1675.240738
1669.619721
1619.294475
1759.298421
1691.508204
1694.906621
1917.469503
1881.733609
1788.546381
2036.051392
1919.345951
1965.979116
1845.502609
1899.296202
1963.455955
3553.694593
3745.196957
3746.57782
3028.988176
3169.040409
3101.415173
1767.412711
2406.88528
2299.325008
2425.804556
1838.058839
3286.648389
2667.479516
2413.718039
1226.000167
1218.368431
1228.534061
1199.694341
1208.917976
1216.838394
1192.141002
1200.689355
1191.311988
1950.082994
2046.398664
2029.366135
2205.785998
2152.559788
2137.657119
1873.454825
1849.96118
1922.354197
2693.969799
2783.956793
2646.117009
3223.091361
2948.038007
2750.880165
3069.950862
3039.868027
3300.3907
2315.416976
2323.135189
2262.454555
2782.41818
2699.375868
2731.710579
2413.45707
2479.640673
2590.882351
1588.143002
1600.989822
1594.698395
1562.915984
1573.820094
1584.785983
1683.296514
1712.336419
1714.463887
1658.300663
1652.886295
1675.016297
1411.152932
1415.732175
1413.661189
1400.565962
1402.292182
1406.663859
1501.546324
1507.881132
1503.825376
1485.723979
1488.812223
1495.204626
1306.949529
1310.600205
1306.650544
1296.681338
1300.312082
1303.41006
1350.754187
1353.613509
1351.407346
1341.900873
1344.409031
1347.679649
1183.535764
1250.810502
1253.754411
1250.031528
1240.593135
1245.495412
1248.10845
3022.689295
3213.685806
1334.09848
1327.620971
1333.294075
1315.01508
1321.405896
1328.050282
1308.633191
1314.941008
1308.296112
1343.512654
1349.304123
1356.847866
1334.897253
1341.966407
1336.08528
1352.817603
1347.538823
1340.589933
1231.342882
1239.92656
1247.518227
1224.589169
1232.265155
1223.587529
1253.219458
1240.923035
1233.445354
1394.531115
1386.032573
1390.791932
1375.212932
1380.780517
1389.298426
1364.59624
1372.550893
1366.944968
1387.728375
1385.363771
1381.747714
1392.328582
1388.854502
1390.978001
1384.532146
1386.675493
1390.363263
1284.253218
1277.535135
1286.629574
1260.994649
1269.207025
1276.109668
1254.969293
1262.18421
1253.805465
1288.521894
1296.054306
1302.368513
1282.92514
1289.580821
1281.81955
1309.139557
1297.467955
1290.944795
1320.751562
1323.287777
1319.016576
1331.191499
1329.647642
1334.044847
1285.452944
1291.054892
1294.111968
1363.984371
1367.846201
1365.453955
1372.231517
1370.031443
1365.992555
1377.963712
1374.029315
1376.357676
1336.951109
1334.362163
1332.703763
1338.428941
1336.267776
1338.531305
1330.810435
1333.662743
1336.010356
1264.717684
1269.245629
1265.207278
1224.953438
1227.401061
1234.445854
3573.478911
3679.476172
3507.14465
3958.563076
3959.836225
3222.477016
3304.719223
3442.244374
2021.430687
1985.830601
1970.89793
2006.86512
1997.874793
2033.821126
1933.864615
1964.658253
1973.96594
2164.137466
2161.367814
2211.506823
2072.822612
2115.220269
2120.834476
2088.799978
2103.921611
2060.447188
1803.152782
1794.700787
1813.882706
1761.895898
1777.194792
1785.730202
1888.552547
1879.17389
1905.315691
1833.984554
1855.544919
1864.632095
2459.672522
2388.632982
2385.31246
2376.828878
2383.055831
2448.541305
2264.370219
2321.709864
2315.466966
1597.033202
1597.307537
1602.012248
1591.521571
1592.699279
1592.960603
1617.317682
1617.887135
1622.679664
1607.365075
1612.723086
1612.091901
1571.239101
1576.122713
1578.579177
1570.460935
1573.523354
1567.825745
1584.493347
1587.340158
1590.352899
1581.059324
1583.904715
1580.985408
1697.845525
1692.821783
1702.08176
1675.913142
1684.141613
1688.653672
1742.611911
1735.656572
1748.317265
1712.286923
1723.560768
1730.153554
1638.957531
1637.796291
1643.95652
1627.244453
1632.146561
1633.05538
1664.836061
1662.009745
1668.461939
1650.147434
1656.096253
1658.121508
1553.946637
1560.594347
1566.429718
1545.250573
1553.043778
1547.432013
1310.094784
1314.298124
1317.754222
1295.56757
1297.298508
1293.680435
1357.448061
1355.734504
1353.495346
1362.219034
1358.408833
1358.451427
1354.744977
1356.779685
1360.336447
1338.538222
1341.310872
1338.881559
1345.059907
1343.484588
1340.809605
1350.316903
1346.689799
1348.085234
1253.434241
1257.001377
1260.622189
1238.815009
1242.62179
1237.262174
1476.312885
1464.977764
1471.356044
1451.423331
1458.323711
1469.261274
1437.009854
1447.539753
1440.958098
1494.517528
1502.312505
1513.215206
1480.292239
1491.315774
1483.597139
1506.945962
1499.055385
1487.711502
1411.037786
1416.856121
1426.760226
1398.139393
1407.309003
1401.614269
1417.305053
1412.627831
1403.390299
1429.939393
1435.104519
1433.086805
1437.90767
1436.750111
1431.554717
1447.994899
1442.336957
1443.868112
1461.030951
1459.539472
1453.617887
1472.254406
1465.841864
1467.798545
1461.360243
1463.557329
1469.760986
2627.766217
2661.701829
2734.165836
2517.663612
2589.881193
2560.102385
2638.772134
2616.945107
2536.053632
1419.397429
1417.624388
1413.005378
1426.783185
1422.203013
1423.922191
1418.591475
1420.345373
1425.054563
1394.139848
1398.120736
1396.108807
1401.120451
1399.809461
1395.936581
1408.419601
1403.984209
1405.303809
1515.654681
1511.767873
1505.226172
1524.620007
1518.240941
1522.393572
1510.227879
1514.120304
1520.296544
1476.070737
1482.441184
1479.217333
1488.323052
1485.428732
1478.829495
1498.643044
1492.04076
1495.181129
752.8930326
742.9587693
741.2292644
730.1937814
713.6336987
711.2679243
693.2960983
668.2861807
665.0848399
637.7830112
600.9883941
596.9435106
557.1688961
505.7293386
501.1778217
446.2839207
378.8089857
374.5502544
303.7463009
222.0835857
219.2375773
772.1627628
768.023556
763.4246375
762.2191286
754.5105233
747.4336091
744.3267993
730.2638842
715.5178546
709.8981005
699.6009463
695.3143165
660.9950744
645.1004006
639.3967246
587.200706
563.8728228
557.1171896
481.5565713
449.2699456
442.2570977
339.7897528
298.2256073
293.0869276
782.8395003
781.2085657
773.9921384
778.5423697
774.593143
763.6424167
769.00692
762.6570991
737.208472
738.078284
730.2872408
721.0987365
699.4683861
686.34724
673.8580933
635.3081041
613.6353419
598.7368467
530.8121487
496.9121217
482.9632069
375.5525825
329.0993128
320.0844844
795.9035704
797.7374802
789.1630046
799.5124703
800.7732371
787.1176455
801.3915234
806.4906537
772.6159558
780.2020035
776.4242637
763.5904816
758.9888211
750.2577686
732.3069291
710.8811127
692.166586
669.1934624
613.3910637
578.0944731
553.1378006
440.2231848
383.439019
366.2632059
809.0684066
814.9857451
806.370993
821.857156
829.3966842
815.0501442
837.2050119
854.8038034
818.3167404
832.7105156
834.6420496
819.400212
836.8865235
835.7237033
812.1358609
822.0737918
812.5324186
777.8287528
757.142699
725.8950477
680.1599156
574.0813443
500.1334614
460.9820663
819.865701
829.7161836
822.785203
841.5748293
855.4558339
843.1304065
871.3872984
900.3912048
866.599721
886.9517971
895.9165657
880.8236602
926.7260122
937.9911591
911.8969371
972.8260875
983.3287236
936.9139637
998.0986762
991.5760053
911.3632997
884.1285367
795.145711
691.6828853
825.1064383
838.3167583
834.9089228
854.359028
873.3261383
865.7136039
895.7818964
933.6045542
910.0615949
933.6396586
949.8861679
937.7722145
1010.243327
1034.962936
1012.99629
1127.798731
1166.228192
1123.512085
1312.280595
1374.325093
1278.10369
822.3225617
837.7155506
839.1759111
856.4657688
878.6607632
877.7773387
905.0334672
946.5295702
938.7936182
961.7098061
982.9555023
977.3595415
1062.824024
1096.04879
1085.764775
1222.484644
1275.841925
1259.83514
810.1211368
826.2407843
833.3154352
845.8315008
868.8935666
875.7294768
896.1349536
935.9276942
945.8935064
964.5839607
987.4113684
989.279799
1071.124449
1104.798391
1107.624336
1225.287872
1272.040251
1281.294587
788.0919559
803.5472526
816.2326142
822.2038746
843.9542294
858.2440137
869.3976852
903.5792192
929.6137431
941.7822582
963.301509
971.7188144
1039.726863
1069.261818
1081.39073
1168.649762
1204.412672
1224.634946
757.0402658
770.5592447
788.2644085
786.799147
805.5391247
826.2852178
827.225652
853.3834333
892.4648436
897.4231802
915.9615868
929.6576401
980.0644189
1004.149682
1022.601335
1082.704641
1110.203967
1135.439386
750.7832881
782.0715829
838.5526725
836.4501121
851.0505497
868.6272678
900.4599533
918.6952024
941.6417572
977.7451878
998.6190963
1028.190874
2089.025386
2019.262685
1904.400732
939.5440946
1072.244128
1508.388989
1491.598181
1469.708518
1647.241129
1618.039672
1645.858833
1347.474019
1335.907698
1319.040636
1448.645618
1428.322689
1442.492637
1222.016106
1208.695549
1192.800462
1302.603514
1286.577338
1298.150137
1325.196131
1321.787991
1319.421915
1176.551574
1159.902554
1173.964537
1216.510971
1211.632557
1207.296688
1264.373134
1260.900202
1265.057723
1549.931138
1542.375882
1531.86001
1610.736857
1597.914319
1602.293442
1548.175512
1552.943196
1548.415358
1533.442051
1537.830083
1543.149604
1276.720767
1271.915549
1268.567656
1316.358722
1313.998115
1317.612396
1203.163351
1198.894473
1204.348819
1145.849092
1753.156136
1707.65536
1677.333404
1794.771245
1800.007804
1889.326235
2276.957602
2223.667061
2165.855542
2434.153276
2441.18758
2553.421515
1642.063634
1639.877533
1624.639872
1769.530058
1742.40398
1741.55601
1834.956819
1832.680078
1799.478864
2108.786204
2054.065521
2077.650886
2838.908953
2758.917407
2612.31425
1234.539378
1231.375168
1235.856633
3029.140888
2960.67512
2869.10413
3243.169668
3249.161813
3395.120869
1583.889776
1589.072287
1585.229123
1572.18546
1574.99111
1579.284738
3701.441073
3601.594854
3450.367292
1339.75746
1336.807643
1339.260479
1349.724601
1345.305633
1343.032312
1246.015949
1241.639295
1238.475262
1291.813973
1288.926229
1292.768365
1302.644935
1298.447577
1295.515829
712.8684749
705.6305093
715.2712516
682.2686309
694.4128466
702.2882659
682.8445229
688.1127666
675.2341064
662.7928462
653.1385048
668.2437059
617.256314
635.8185852
646.137546
620.9162436
627.6659442
608.2862612
585.3502463
573.6084409
596.1285389
521.2295637
548.1862777
560.2693084
531.0329677
538.7293436
511.0610667
470.5263547
459.2148988
491.0316481
387.0490382
423.9291102
434.5934289
407.8856724
415.228665
378.2229988
312.2217163
305.109969
346.713748
260.3852936
266.2273289
251.4153297
255.8916755
751.5762954
740.4579745
747.3991295
723.1406711
732.3879863
744.5363369
711.2805601
721.2983719
711.1260148
715.6607765
700.3065801
712.4742059
670.1195221
686.2579858
702.5507608
658.0230286
671.3894361
654.5543022
648.6425585
630.2093651
651.480065
578.3698837
605.8623199
624.7059552
573.9401729
589.0516856
561.6110813
531.6038064
512.9895575
547.388707
433.3121441
474.9062219
492.6929133
446.3415513
459.5902951
419.2326452
351.8370299
339.5791075
388.0618482
288.0233123
297.5590498
272.6541533
279.7923383
804.4605709
790.0313646
792.5851061
782.3921511
786.7175127
802.5016554
757.6894671
771.7771872
766.0735673
790.1182207
769.5202794
776.760882
749.0162398
760.3862958
782.8909177
720.2938495
739.5454426
726.5573334
746.2955123
717.7998762
734.9561744
672.03408
697.0092005
727.3719575
645.9724015
669.9766199
643.8895609
640.8512374
607.0946614
642.2476109
518.5998856
566.0048667
599.5061495
513.391338
537.5867186
491.6722606
429.5764012
404.1880495
464.629982
337.658448
357.3372346
308.6487895
321.7831646
865.472837
850.0252711
846.4024823
856.3711248
853.3987944
870.8186238
819.1541154
836.128786
836.8823847
886.0021735
860.5088231
858.8932315
859.7560024
860.9172591
889.9649543
807.0716978
833.0811919
828.7186644
892.3865354
850.5945135
856.4599075
827.1251928
841.1742224
887.5957696
761.3559612
799.206028
781.1373846
840.6663252
779.0092875
806.9691266
691.8306093
741.3814967
806.8806357
639.0958006
685.9391559
635.764164
611.7765089
549.3491734
628.3353868
454.4799909
506.9456035
382.3153469
413.9674534
924.5999277
910.6406804
899.7590992
935.3203281
922.5041524
938.7265674
888.2654931
905.5509097
915.8970942
989.0165664
963.8676793
949.1115659
996.068506
979.5711129
1008.827822
919.6104096
949.6163446
961.3118311
1077.798534
1030.623606
1013.264346
1062.94021
1047.562485
1103.515722
938.1484859
991.9993883
997.5410397
1178.083307
1081.270257
1074.813126
1059.870911
1078.175205
1193.609315
884.2231229
974.4874831
941.2145165
1103.900738
929.7956824
1014.698582
788.5272849
1059.768983
575.640119
667.0776897
969.8839012
960.698519
942.8469857
1002.706916
980.5846548
991.3076941
953.9200492
967.9850586
988.0023138
1071.996161
1054.927909
1027.374471
1120.534864
1085.838072
1105.710669
1036.838569
1062.528679
1093.342976
1235.702236
1204.073935
1159.68555
1312.766529
1254.57685
1291.871309
1158.130831
1209.265638
1257.807106
1525.604994
1459.439506
1379.98841
1677.586349
1557.011352
1644.069113
1319.589158
1444.32941
1517.865551
1550.023408
1560.290748
1711.63217
988.9183932
986.9640828
964.9475217
1038.835525
1011.492515
1013.917582
1000.072757
1006.662695
1033.16411
1106.901936
1103.335097
1069.322045
1183.79704
1141.352024
1145.06268
1121.625262
1133.359179
1175.240708
1285.872646
1284.302229
1231.262076
1410.614465
1343.891726
1342.759731
1319.430778
1336.502782
1405.723099
978.5896284
983.8206754
961.1321744
1036.301712
1008.816887
1003.219649
1014.564704
1012.633395
1040.468154
1091.491734
1099.33287
1066.424625
1173.740604
1135.117726
1125.934661
1145.130136
1141.647928
1181.803498
1243.005837
1259.021414
1215.109341
1352.628478
1305.03593
1285.458687
1334.837441
1321.827033
1374.307759
942.1801832
953.4262642
932.528121
1000.67277
976.1236303
964.0317703
995.8269985
986.7558871
1012.218264
1039.704274
1055.311354
1027.084019
1116.650364
1085.234959
1068.06967
1114.375731
1100.732494
1133.957359
1159.623422
1182.667412
1149.259134
1249.75208
1216.36078
1191.049361
1263.834002
1240.690552
1276.846864
1476.489508
1469.822523
1459.984933
1491.856375
1481.767269
1487.453427
885.407493
901.1637599
883.5417534
940.2975462
920.0814556
903.2481563
950.5905749
935.9143381
957.2926819
963.6246002
984.4387728
961.7755724
1032.797167
1008.166908
985.7981732
1049.414084
1029.417447
1055.68195
1056.618283
1083.934138
1058.128989
1135.965339
1109.965607
1081.10663
1164.870502
1137.856428
1165.314334
1329.975999
1323.298738
1316.637437
1338.630449
1331.644185
1337.518554
885.3420895
866.6002233
883.0752591
962.2560171
937.7089029
957.4186155
1051.159031
1019.995392
1041.972628
1214.938874
1205.962387
1198.781027
1221.720036
1214.824844
1222.838193
1361.084737
1354.614598
1347.28602
1371.34079
1363.626243
1369.377926
1245.528626
1236.950831
1230.302847
1251.720477
1245.28815
1252.900989
2334.729723
2158.707284
2250.572127
1871.214054
2024.923469
2137.663135
1826.321412
1918.394465
1800.161598
1333.869766
1230.043845
1081.642747
1642.133971
1412.900692
1508.801223
1243.816826
1468.431509
1538.388009
1514.440626
1532.48635
1452.603239
1473.238196
1452.84153
1614.395684
1590.120983
1563.580255
1371.150744
1353.269084
1365.144233
1327.545117
1340.478284
1357.893236
1306.834077
1323.438376
1309.595377
1397.650605
1413.11338
1432.513808
1375.82756
1394.178203
1378.093402
1422.139318
1408.655481
1389.616424
1434.194931
1427.575559
1418.514757
1448.304273
1438.809586
1444.513495
1239.834912
1224.355543
1237.332419
1199.593307
1211.732231
1227.402387
1179.806845
1195.882243
1182.470316
1262.540397
1274.532214
1290.519098
1243.052585
1258.706384
1245.525607
1282.696089
1270.829319
1255.299906
1301.516635
1294.265451
1288.055432
1308.557336
1302.171286
1308.487152
1327.385333
1324.876631
1327.808968
1134.312718
1146.641111
1163.424232
1111.232635
1129.33026
1116.497502
1156.880607
1142.690283
1124.797281
1182.08532
1173.29991
1163.903814
1189.627653
1182.322366
1190.688211
1219.506853
1215.878786
1220.458572
1202.509419
1207.622595
1200.136548
1261.047748
1256.643129
1253.141417
2122.439121
2122.255133
2084.619982
2200.022212
2164.746163
2164.226158
1792.793554
1797.880075
1781.74154
1834.574979
1816.045493
1810.346079
1563.489546
1552.877773
1559.871485
1538.762624
1545.771322
1556.803217
1524.043911
1534.859121
1527.489225
1589.592017
1592.984636
1606.471114
1568.107201
1580.092524
1574.884068
1590.783382
1585.836397
1574.397487
1611.40337
1610.51735
1605.516938
1621.73403
1616.34462
1616.759788
1562.466181
1557.533046
1552.969566
1565.978219
1561.842731
1566.406997
1553.604787
1557.523179
1561.962343
1735.378042
1738.776185
1726.709922
1766.060919
1752.083189
1748.035491
1633.601567
1633.724456
1627.687417
1646.926467
1640.020324
1639.680254
1395.566972
1389.009254
1380.801886
1407.816032
1399.09142
1404.880815
1526.333746
1532.209613
1527.497789
1542.031141
1536.965318
1530.887552
1548.056514
1542.725449
1548.045191
1278.86188
1275.903585
1280.3889
1314.936199
1310.818817
1308.294325
1274.127758
1266.107486
1259.84014
1280.20361
1274.039216
1281.074359
1188.93231
1193.588829
1197.87424
1154.86005
1763.750488
1737.165574
1791.00776
1879.453009
1796.108877
1784.254189
2329.872004
2279.325879
2346.503233
2157.76687
2213.672708
2252.558073
2122.169902
2169.535228
2116.94509
2291.050484
2322.478189
2218.292124
2523.129633
2416.418665
2376.317519
1675.037203
1656.643114
1657.752683
1653.010787
1654.636785
1673.326336
1621.317267
1637.184313
1633.805438
1736.221893
1739.791337
1765.984767
1693.763334
1715.724231
1710.943711
1716.927852
1717.752635
1695.341334
1909.889282
1869.375996
1873.8824
1849.400116
1860.500925
1897.900278
1794.750016
1826.252389
1816.027984
1997.458992
2026.225864
2073.559341
1937.955853
1981.025779
1955.83823
2019.424251
2002.455482
1954.251803
1948.337216
2155.03545
2209.758205
2220.37078
2404.829922
3127.589325
2928.486129
3036.91705
2595.758735
2774.594276
2911.075154
2522.710401
2640.801459
2503.132389
1232.298555
1227.285704
1223.863937
1980.314737
1983.3648
1954.212343
2047.850306
2014.526096
2011.860386
1872.253706
1877.270745
1855.643903
1926.580533
1901.371709
1896.047211
3117.756344
3047.237494
3129.861135
2810.825594
2890.949881
2802.324415
3354.74292
3221.985114
3185.830091
1591.910969
1590.374711
1585.924197
1599.845785
1595.300532
1596.263094
1566.338116
1570.689144
1567.19867
1577.555342
1574.105045
1570.04685
1581.988255
1578.116155
1581.28877
1692.409441
1694.915072
1685.549736