/*--------------------------------*- C++ -*----------------------------------*\
| =========                 |                                                 |
| \\      /  F ield         | OpenFOAM: The Open Source CFD Toolbox           |
|  \\    /   O peration     | Version:  v2012                                 |
|   \\  /    A nd           | Website:  www.openfoam.com                      |
|    \\/     M anipulation  |                                                 |
\*---------------------------------------------------------------------------*/
FoamFile
{
    version     2.0;
    format      ascii;
    class       volVectorField;
    location    "1.81";
    object      U;
}
// * * * * * * * * * * * * * * * * * * * * * * * * * * * * * * * * * * * * * //

dimensions      [0 1 -1 0 0 0 0];


internalField   nonuniform List<vector> 
3259
(
(101.3079644 -0.1825041771 6.579935207e-21)
(101.2553482 -0.5513416002 1.039461366e-19)
(101.1541135 -0.9333168872 -2.094142608e-19)
(100.9883845 -1.357580909 -5.556006016e-22)
(100.6856082 -1.66456448 -1.657034839e-21)
(100.3284871 -2.143335562 0)
(99.84902513 -2.740391522 7.201371928e-21)
(99.24048962 -3.347057812 0)
(98.28792871 -4.301043358 2.27013779e-19)
(96.91248484 -5.540512028 1.412986097e-19)
(95.16539861 -7.093909771 -2.803945341e-19)
(93.27300244 -8.661026166 -3.634253522e-19)
(101.6681666 -0.1965641852 0)
(101.6256223 -0.594937719 0)
(101.5443205 -1.005826664 0)
(101.4105887 -1.460619111 0)
(101.1463895 -1.814228854 0)
(100.8523676 -2.339413853 0)
(100.4755249 -2.989925113 -4.641601402e-20)
(99.99705336 -3.648400898 0)
(99.26317762 -4.659537664 0)
(98.20478235 -5.975630927 1.604146131e-19)
(96.91148962 -7.726610315 2.316562763e-19)
(95.60625709 -10.15613757 -1.765555543e-19)
(102.0503965 -0.2053032906 0)
(102.0187438 -0.6222830173 0)
(101.9595405 -1.050934728 0)
(101.8596038 -1.518221259 0)
(101.6340878 -1.898440495 0)
(101.4135214 -2.443369176 0)
(101.1400837 -3.095668345 -2.407099003e-20)
(100.7915911 -3.767512822 8.7368808e-20)
(100.2951363 -4.738596212 1.736910992e-19)
(99.56671054 -5.986354707 2.816674561e-21)
(98.82544286 -7.597191829 0)
(98.40069758 -9.824170724 -5.34926188e-20)
(102.4447267 -0.208918961 0)
(102.4234845 -0.6335237485 0)
(102.3854459 -1.068948518 0)
(102.3176408 -1.535169503 0)
(102.1293845 -1.927659802 0)
(101.9746294 -2.469048157 0)
(101.7912971 -3.095841964 5.016084779e-22)
(101.5530686 -3.743542827 1.577699818e-19)
(101.2481111 -4.609110271 3.712482964e-21)
(100.769635 -5.671390302 3.424458473e-20)
(100.3376645 -6.928594766 -2.516973998e-19)
(98.22045008 -8.142053567 -8.965793952e-21)
(102.8417198 -0.2080204073 0)
(102.8296243 -0.6305152589 0)
(102.8097461 -1.062889376 0)
(102.7696607 -1.517264503 0)
(102.6150353 -1.909766057 0)
(102.5153866 -2.429939557 0)
(102.4028571 -3.012443348 0)
(102.2451343 -3.613467519 0)
(102.0603368 -4.353675203 1.886516689e-19)
(101.7295969 -5.194963477 -2.245252987e-19)
(101.3672477 -6.093414476 2.131558965e-19)
(98.86054117 -6.829613182 0)
(103.2330783 -0.2033833728 0)
(103.2285864 -0.6157686897 0)
(103.2232489 -1.03698197 0)
(103.2053606 -1.470940242 0)
(103.0795521 -1.853108857 0)
(103.0217594 -2.340547166 0)
(102.9596961 -2.869360098 0)
(102.8513939 -3.412364348 0)
(102.7264385 -4.029101813 3.469706986e-20)
(102.4515775 -4.678894758 2.317406151e-20)
(102.0726975 -5.322203462 -9.39877265e-21)
(99.43023185 -5.767953621 -1.026033111e-19)
(103.6122004 -0.1958025882 0)
(103.6136963 -0.5918544331 0)
(103.6192484 -0.9956799222 0)
(103.6178157 -1.403445843 0)
(103.5147108 -1.767640849 0)
(103.4857529 -2.216191907 0)
(103.4547363 -2.688474781 0)
(103.3728694 -3.168576829 0)
(103.262251 -3.681948047 0)
(102.9877099 -4.186932373 0)
(102.5602757 -4.653491623 -1.636576485e-20)
(99.36469726 -4.872792775 2.460368153e-20)
(103.974161 -0.186069327 0)
(103.9800302 -0.5613086903 0)
(103.9929595 -0.9433648225 0)
(104.0025263 -1.321764942 0)
(103.9161098 -1.663104547 0)
(103.9044983 -2.070376829 0)
(103.8891815 -2.488901407 0)
(103.8155829 -2.906805206 0)
(103.6958724 -3.332319836 0)
(103.3933525 -3.731392867 0)
(102.9053913 -4.082203887 0)
(98.90923824 -4.155786392 0)
(104.3155832 -0.1749336526 0)
(104.3243196 -0.5265104273 0)
(104.3414452 -0.8840529344 0)
(104.3571878 -1.23199257 0)
(104.2821661 -1.547822882 0)
(104.2785083 -1.914199749 0)
(104.2667019 -2.284507221 0)
(104.1898778 -2.644147469 0)
(104.047723 -2.997199408 0)
(103.7083691 -3.31562664 0)
(103.1637548 -3.586386481 0)
(98.63138235 -3.597498624 0)
(104.6344492 -0.1630495769 0)
(104.6447524 -0.4895326176 0)
(104.6633923 -0.8212095019 0)
(104.6812656 -1.138999186 0)
(104.6134672 -1.428424526 0)
(104.6105049 -1.756207745 0)
(104.5932527 -2.083295136 0)
(104.5062371 -2.39143678 0)
(104.334902 -2.685496142 0)
(103.9570755 -2.942449863 0)
(103.3591045 -3.155454172 0)
(98.51693386 -3.142987042 0)
(104.9299175 -0.1509471011 0)
(104.9407254 -0.452051617 0)
(104.9587722 -0.7576572081 0)
(104.975566 -1.046498539 0)
(104.9117694 -1.309898874 0)
(104.9042485 -1.60227653 0)
(104.8755666 -1.890653554 0)
(104.7742283 -2.154822304 0)
(104.5710772 -2.401076351 0)
(104.1567177 -2.610915025 0)
(103.5063952 -2.780960536 0)
(98.50767444 -2.761801943 0)
(105.2020953 -0.1390358652 0)
(105.2125707 -0.4153408953 0)
(105.2284645 -0.6955417218 0)
(105.2417911 -0.9572285363 0)
(105.1794817 -1.195789941 0)
(105.1638692 -1.456292975 0)
(105.1200019 -1.709711047 0)
(105.0020183 -1.937528029 0)
(104.7669378 -2.144920537 0)
(104.3196029 -2.318323235 0)
(103.6169565 -2.455475444 0)
(98.56374426 -2.438149007 0)
(105.451776 -0.1276214743 0)
(105.4612776 -0.3803249911 0)
(105.4739175 -0.636402864 0)
(105.4821073 -0.8731039293 0)
(105.4193975 -1.088494466 0)
(105.3934364 -1.320553901 0)
(105.3326578 -1.543160444 0)
(105.1964143 -1.740632914 0)
(104.930753 -1.916486563 0)
(104.4543481 -2.061418622 0)
(103.699543 -2.172776418 0)
(98.65963891 -2.161247917 0)
(105.680227 -0.1169231474 0)
(105.6882791 -0.3476481033 0)
(105.6969243 -0.5812921641 0)
(105.6988774 -0.7953854928 0)
(105.6343926 -0.9895097434 0)
(105.59673 -1.196421594 0)
(105.5182535 -1.392432593 0)
(105.363261 -1.564272737 0)
(105.069021 -1.714482189 0)
(104.5670705 -1.836952202 0)
(103.7610105 -1.9279445 0)
(98.77938552 -1.922873315 0)
(105.8890442 -0.1070888937 0)
(105.8953074 -0.3177327027 0)
(105.8994932 -0.5308844324 0)
(105.8945401 -0.72483307 0)
(105.8272721 -0.8997169727 0)
(105.77721 -1.084612774 0)
(105.6808749 -1.257867086 0)
(105.5073495 -1.407999268 0)
(105.1868453 -1.537337189 0)
(104.6622647 -1.641909409 0)
(103.8067088 -1.716704675 0)
(98.91224489 -1.717810979 0)
(106.0800484 -0.09821023108 0)
(106.0842899 -0.2908296207 0)
(106.0837563 -0.4855686647 0)
(106.0715415 -0.6618323941 0)
(106.000767 -0.8195136799 0)
(105.9380498 -0.98531234 0)
(105.8241134 -1.139213475 0)
(105.6326744 -1.27099365 0)
(105.288278 -1.383368217 0)
(104.7433213 -1.47356433 0)
(103.8404892 -1.53530045 0)
(99.0517543 -1.541851856 0)
(106.2551553 -0.09033779235 0)
(106.2572236 -0.2670665219 0)
(106.2518579 -0.4455320856 0)
(106.2322471 -0.6065243531 0)
(106.1574429 -0.7489949793 0)
(106.0821054 -0.8983952049 0)
(105.9510199 -1.035869596 0)
(105.7425915 -1.152279774 0)
(105.3765615 -1.250937803 0)
(104.8129177 -1.329602531 0)
(103.8650772 -1.380851121 0)
(99.19493848 -1.391716509 0)
(106.4163881 -0.08349168244 0)
(106.4161843 -0.2464820055 0)
(106.4059681 -0.410819475 0)
(106.3789796 -0.5588733645 0)
(106.2997043 -0.6880604703 0)
(106.211975 -0.8235522595 0)
(106.0642233 -0.9468163243 0)
(105.8399078 -1.050862901 0)
(105.4543343 -1.138423464 0)
(104.8732916 -1.207861455 0)
(103.8825826 -1.250755666 0)
(99.33937984 -1.264860166 0)
(106.5655707 -0.07767831961 0)
(106.5630467 -0.2290687157 0)
(106.5480256 -0.3813844104 0)
(106.513781 -0.5188053097 0)
(106.4297717 -0.6364802316 0)
(106.3300101 -0.7602916194 0)
(106.1663236 -0.8714047417 0)
(105.9269122 -0.9656067169 0)
(105.5237001 -1.044226767 0)
(104.9262275 -1.10623896 0)
(103.8949895 -1.14258033 0)
(99.48103002 -1.159105937 0)
(106.7052504 -0.07287731651 0)
(106.7003315 -0.214764203 0)
(106.6805339 -0.3571190728 0)
(106.6391678 -0.486025729 0)
(106.5497502 -0.5939797173 0)
(106.4383159 -0.7080962612 0)
(106.2596348 -0.8093732302 0)
(106.0055312 -0.8954435231 0)
(105.5863281 -0.9669133422 0)
(104.9731532 -1.022966627 0)
(103.904429 -1.054527653 0)
(99.61459552 -1.072687849 0)
(106.8351494 -0.06912065179 0)
(106.8279217 -0.2035994058 0)
(106.8034741 -0.3379585514 0)
(106.7552146 -0.4608230227 0)
(106.6615872 -0.5601808122 0)
(106.5387934 -0.6665003754 0)
(106.3459509 -0.7609284163 0)
(106.0776033 -0.8393444797 0)
(105.6436457 -0.9053621904 0)
(105.0153883 -0.9568149763 0)
(103.9130423 -0.9853794426 0)
(99.73591406 -1.00445479 0)
(106.9653981 -0.0662546751 0)
(106.955454 -0.1952907452 0)
(106.9261203 -0.32367815 0)
(106.8701863 -0.4409455966 0)
(106.7677182 -0.5349976987 0)
(106.6331278 -0.6355126078 0)
(106.4263887 -0.72496913 0)
(106.1447068 -0.7969015049 0)
(105.6969444 -0.8588181505 0)
(105.0542866 -0.9070062252 0)
(103.9223781 -0.9341523634 0)
(99.84365489 -0.9535689849 0)
(107.0659804 -0.0647456943 0)
(107.0543294 -0.1906159152 0)
(107.021245 -0.3152048076 0)
(106.9606492 -0.4318492537 0)
(106.8674081 -0.5177665324 0)
(106.7227348 -0.6144920374 0)
(106.5025439 -0.7009352132 0)
(106.2081459 -0.7675796538 0)
(105.747416 -0.8266825713 0)
(105.0911667 -0.8728315181 0)
(103.9333361 -0.899800236 0)
(99.93847371 -0.919287445 0)
(107.2584246 -0.06313152377 0)
(107.2429974 -0.1868203172 0)
(107.2025584 -0.3086890978 0)
(107.128372 -0.4200823493 0)
(106.9603873 -0.5093998077 0)
(106.8048345 -0.6037111434 0)
(106.5726621 -0.6891723636 0)
(106.2691186 -0.7510047535 0)
(105.796079 -0.8084571656 0)
(105.1270762 -0.853531041 0)
(103.946374 -0.8812076448 0)
(100.0217602 -0.9008571981 0)
(93.16045174 -8.568878873 4.858644949e-19)
(95.35393193 -9.938391285 -4.112985864e-19)
(94.77050631 -6.879161844 -7.505580278e-20)
(93.26928175 -8.357036433 0)
(96.44905624 -7.635296774 2.510890964e-19)
(95.40241994 -9.643411895 -4.070277683e-19)
(93.49430788 -8.516518801 -2.858067934e-19)
(94.14802573 -9.235772254 5.112648444e-22)
(91.3055996 -10.12967534 1.318820261e-21)
(91.27592625 -9.390665347 2.375372858e-19)
(98.57938815 -9.923530331 -1.570379229e-19)
(91.24813358 -9.338654687 2.354776933e-19)
(90.50434898 -9.337472571 -2.45662953e-19)
(81.14072697 -9.614861198 -2.683530678e-19)
(91.33174557 -10.19374301 -1.67994212e-18)
(94.28683199 -9.328345926 0)
(89.87471803 -10.1063569 1.27524038e-18)
(46.53649078 -8.17262781 5.400989722e-19)
(90.51639058 -9.385584543 -7.573186391e-19)
(89.85706268 -10.04185158 -1.405835876e-19)
(87.6638756 -28.52829993 -6.901990725e-20)
(91.53481825 -9.769957428 3.936871697e-19)
(93.12425963 -9.509959409 -2.634780246e-19)
(93.49953696 -9.810021687 -3.212493676e-19)
(92.67457008 -9.126221493 -2.752967882e-19)
(93.00810261 -9.411497182 0)
(91.51313351 -9.704685156 -3.910741168e-19)
(91.17871576 -9.054134904 -9.133006173e-19)
(92.2565119 -8.762086433 -5.655929191e-19)
(92.56846181 -9.033210264 2.742758982e-19)
(92.15339153 -8.671522174 2.82368273e-19)
(91.13092124 -9.011955293 2.583802365e-19)
(90.72037918 -9.043739523 5.444910486e-19)
(90.76798503 -9.082495699 5.480851636e-19)
(93.63628907 -9.911081993 -2.506178499e-19)
(94.06436481 -10.2071786 -1.961396306e-19)
(92.27571936 -11.05876597 0)
(92.07013532 -11.22231993 0)
(89.43760772 -23.81425395 0)
(88.55596968 -26.65036658 0)
(90.73750049 -9.669298158 5.439960192e-19)
(80.26902622 -27.00274036 -3.280933175e-19)
(88.13049302 -26.90222464 2.981762716e-20)
(81.71076439 -27.13166376 0)
(90.75276115 -9.742052352 -5.526478524e-19)
(88.46040314 -28.48805819 6.76504223e-20)
(91.45796166 -27.26417562 0)
(98.37028024 -7.696015694 0)
(98.15305137 -9.431010319 -2.707636388e-21)
(95.76334722 -9.745309806 5.880699352e-21)
(96.90417529 -10.23020306 0)
(81.42383745 -8.877785085 0)
(78.78524656 -9.314338513 -2.538129134e-19)
(91.33767413 -9.997516351 2.266952182e-19)
(92.76102195 -9.886970286 0)
(92.92130972 -10.06216837 -2.087147455e-19)
(50.48285926 -8.400203099 -8.745406797e-21)
(75.25544448 -11.90401613 0)
(90.54628484 -8.820868743 0)
(90.70866378 -9.202302943 0)
(90.93983118 -10.07517946 0)
(94.07481697 -10.36390887 3.576860319e-18)
(94.49072837 -10.79342391 0)
(92.98070398 -10.12116109 -2.105190053e-19)
(93.1890336 -10.29399905 -5.64914979e-22)
(91.50536462 -10.4451286 7.439765249e-19)
(91.5439039 -26.92925429 4.237701626e-21)
(90.04654739 -10.37881206 -2.286613065e-18)
(64.46748061 -21.09685785 8.940320711e-19)
(87.62374633 -19.28664995 0)
(89.37447374 -23.30764401 -5.132216798e-19)
(86.73159139 -10.66198147 1.45793484e-17)
(90.66091836 -9.536950699 -1.03722515e-18)
(89.98427245 -9.991780083 9.576802964e-19)
(92.56332901 -9.680704033 1.161705198e-21)
(92.70748169 -9.834009594 -2.181980197e-19)
(91.43313561 -9.940046351 2.956763132e-18)
(91.44742159 -9.569791206 4.976870373e-19)
(92.37518013 -9.479280092 -4.48784875e-19)
(92.51627324 -9.621016943 0)
(90.57724794 -8.881462598 -5.260173833e-19)
(90.83085328 -9.203447627 4.008161868e-19)
(91.55229009 -10.5405884 -3.711330102e-19)
(93.26580461 -10.34281805 -2.101972486e-19)
(93.41437349 -10.43130433 1.775301115e-19)
(67.82216933 -20.60055993 1.008715962e-18)
(66.14580066 -21.06725613 0)
(90.06506399 -10.51236919 5.755133768e-19)
(69.19628097 -22.95788834 3.952715062e-19)
(73.68996596 -23.06152718 -5.325535227e-20)
(89.29266035 -25.60038621 -1.272162241e-19)
(90.71156504 -9.55036677 0)
(80.71374263 -27.32316878 0)
(86.26974417 -27.40001186 -9.538624512e-21)
(69.67996574 -23.28827895 2.299110848e-19)
(85.32031739 -27.42640236 1.936344211e-20)
(90.16164622 -9.949419598 -8.426464426e-18)
(92.18012148 -9.286507524 6.705116966e-19)
(92.32646555 -9.425601206 2.231105687e-19)
(91.40494201 -9.53815734 2.456745179e-19)
(91.27099263 -9.197235349 -2.407524054e-19)
(92.00539365 -9.097220451 -3.377050629e-19)
(92.134527 -9.23187763 2.232313839e-19)
(89.13775598 -9.230976897 0)
(89.17777424 -9.194592398 1.116109312e-18)
(90.52096743 -9.289657004 1.210089386e-19)
(89.91388002 -10.186692 0)
(90.54503808 -9.444955015 -5.100263874e-19)
(89.16243227 -9.382356756 -1.215440107e-18)
(89.13465911 -9.290580617 -7.169628723e-21)
(89.86337633 -9.975384706 0)
(91.8173352 -8.922406242 -2.299407936e-19)
(91.96128313 -9.048208685 0)
(91.27284052 -9.171578732 5.020330614e-19)
(90.99026063 -8.857438871 2.540704869e-19)
(91.62078092 -8.732353697 0)
(91.76758722 -8.871495991 7.919770923e-22)
(90.03349116 -9.049422023 -8.531330811e-19)
(89.96899964 -9.00613989 -5.618774801e-19)
(90.66766674 -8.998306868 1.078820216e-18)
(90.80704095 -9.120091292 2.75941259e-19)
(90.12488504 -9.113513051 1.46255465e-19)
(90.08565875 -9.082542988 1.007888036e-18)
(91.31137257 -10.69977908 1.740597326e-18)
(92.4849829 -10.53335289 -1.668225323e-18)
(92.51593201 -10.722726 0)
(40.20290477 -14.42728026 4.757218055e-17)
(89.59322469 -10.92620105 1.975226054e-20)
(89.38021318 -25.24800585 3.210358067e-19)
(74.88970904 -22.83234858 1.595294273e-19)
(77.09878344 -22.26451287 -1.337102735e-18)
(89.4022453 -9.57821788 0)
(89.41373228 -9.510608234 -1.226228109e-18)
(90.73446319 -9.608700629 5.35522511e-19)
(80.84731389 -27.16429906 4.278192861e-19)
(76.50803685 -26.16516623 -3.658404102e-18)
(77.23622277 -26.18030725 -2.377325719e-20)
(83.37728648 -27.35867165 1.264857293e-19)
(90.73980872 -9.818182185 7.013576775e-20)
(89.42500131 -9.72513457 -1.302353133e-18)
(89.42073455 -9.655630114 -1.333757224e-18)
(90.41586379 -28.31541867 -3.315542918e-20)
(88.57233591 -8.668828237 3.192680279e-19)
(88.56764947 -8.729025509 -1.61362176e-19)
(88.4693277 -9.081580968 0)
(90.59536381 -9.236392098 2.397459228e-19)
(89.32730367 -9.174365878 -5.580307724e-18)
(89.55402267 -9.157579762 3.55400841e-18)
(93.27012565 -10.4567838 5.299610625e-18)
(92.88262961 -10.80399458 -2.193793632e-19)
(80.36304499 -9.708222125 0)
(91.42953457 -10.35465542 1.21826606e-19)
(92.28571166 -10.35154592 6.918893588e-19)
(92.36041294 -10.42674211 -1.152587663e-19)
(89.97092729 -10.28874593 0)
(65.19608192 -21.5120638 1.013994496e-18)
(64.52952163 -21.61800953 0)
(45.98143692 -3.436995318 1.305704987e-18)
(63.59508994 -16.6054242 -1.339028351e-18)
(67.87917958 -20.05314488 0)
(89.35144143 -9.480461111 2.410104712e-18)
(89.24401889 -9.460953742 1.208005754e-18)
(90.59630988 -9.503293874 -7.741714377e-19)
(89.89186965 -9.969056332 0)
(88.72344462 -8.975955173 0)
(88.81423817 -9.013005413 0)
(88.58157937 -8.817446696 1.138238879e-18)
(88.63559577 -8.910173692 1.301373768e-18)
(90.11661566 -9.18092658 -1.165459673e-18)
(90.11616054 -9.147025988 -7.392512472e-20)
(90.82256673 -9.15533309 2.063404588e-19)
(88.93301901 -9.080652076 0)
(88.923175 -9.079584102 0)
(88.88197573 -9.038887883 -1.294545307e-18)
(88.93083304 -9.060047064 0)
(92.43187992 -10.49301077 1.163044859e-19)
(92.545427 -10.57781222 8.993191808e-19)
(91.71878274 -10.67195356 -4.745864606e-19)
(68.73877806 -21.02004242 2.731032757e-19)
(58.05052337 -18.69744334 -2.669714984e-18)
(54.92782092 -17.56457051 -2.819478719e-18)
(59.13231341 -19.5920561 0)
(59.43548027 -19.32951971 -3.10107402e-18)
(67.68380992 -21.0439637 5.381503395e-19)
(90.23529542 -10.66924278 5.81402997e-19)
(70.72257953 -22.93212416 -6.34243964e-20)
(78.66239881 -24.58364461 1.033448866e-19)
(77.58831655 -24.75604704 6.868956177e-20)
(90.73196109 -9.569695489 0)
(89.4319503 -9.47427144 1.516916264e-19)
(89.42172269 -9.46869456 1.053424997e-18)
(81.11352198 -27.35335888 -3.622479244e-20)
(73.15103113 -24.5760488 -9.42573685e-21)
(73.62562658 -24.84683542 1.233475602e-20)
(76.43283198 -24.68108143 -1.638572748e-19)
(74.60751261 -24.56417899 -5.194042852e-19)
(68.89551029 -23.35967355 1.276143572e-18)
(72.87623879 -24.86571256 5.542456526e-19)
(84.37968939 -27.50842602 4.902566181e-20)
(76.82478586 -25.94953807 -1.599368138e-19)
(78.24400334 -25.97132366 0)
(88.95994038 -9.874417027 1.744226599e-17)
(89.41586805 -9.761207086 -1.402945827e-18)
(90.740646 -9.884009035 1.043792861e-18)
(99.05758861 -3.251820061 -2.819172635e-20)
(98.346649 -3.92423055 6.907520253e-19)
(98.04993193 -4.18178694 0)
(97.00096519 -5.060729376 1.261624418e-19)
(96.60051579 -5.390125975 1.667147563e-20)
(95.26048346 -6.481935862 0)
(99.80584895 -3.589497556 -2.066623633e-19)
(99.25025135 -4.318232435 2.119713254e-19)
(98.56872577 -4.037331965 -4.586785991e-19)
(99.016412 -4.595666968 4.252190503e-19)
(98.18980152 -5.545518454 0)
(97.29320052 -5.2018234 -2.051308754e-21)
(97.8756484 -5.904961567 5.1458769e-19)
(96.82866025 -7.13225886 0)
(95.63391763 -6.670361808 0)
(95.58423095 -7.286382446 3.484227511e-19)
(95.10350394 -7.91187572 -5.109547648e-19)
(94.42693551 -7.582065734 5.815259185e-21)
(93.62888985 -8.903273656 0)
(93.20628333 -9.290233453 -2.557319689e-19)
(92.86122093 -9.012678801 5.277542357e-19)
(100.5948985 -3.752140868 0)
(100.2084198 -4.469911776 -1.833548682e-19)
(99.48105597 -4.380794415 0)
(100.0408228 -4.742308245 1.805382942e-19)
(99.45370632 -5.669375901 0)
(98.49508796 -5.613906069 -1.87222897e-19)
(99.2361178 -6.019833647 3.674296355e-19)
(98.5716911 -7.223625448 1.892294203e-19)
(97.25023737 -7.220145933 -1.280791116e-21)
(97.40178077 -7.762329102 -2.040428081e-22)
(97.14330129 -8.293457866 -4.829002856e-19)
(96.36290593 -8.376509258 -6.5682896e-19)
(96.01819391 -10.2420388 1.09080687e-19)
(95.85593085 -10.98467588 -2.016652841e-19)
(95.05208501 -10.69692191 4.087704707e-21)
(101.3682253 -3.761103366 -3.201757563e-19)
(101.130842 -4.41292353 0)
(100.4472005 -4.472118159 -3.505304485e-19)
(101.0217958 -4.656091175 0)
(100.6306688 -5.471648768 3.712717246e-19)
(99.7612806 -5.645912681 3.508838647e-19)
(100.4901073 -5.771491671 -3.187297142e-19)
(100.1005222 -6.763056512 5.625895875e-19)
(98.98732001 -7.147720531 0)
(100.0106562 -7.126437214 -2.835706755e-19)
(100.047639 -8.224565869 1.249925867e-19)
(98.82288243 -9.200611893 1.530849052e-19)
(98.16685893 -8.536515578 1.951550651e-19)
(102.0800158 -3.653862157 -7.150305009e-20)
(101.9387825 -4.222391994 6.575193669e-20)
(101.3436963 -4.376455939 1.090978259e-21)
(101.8708902 -4.426677369 6.441413003e-20)
(101.6114314 -5.086801679 6.011045647e-20)
(100.8967733 -5.387083999 -4.305383441e-19)
(101.5134725 -5.321621189 0)
(101.2254459 -6.053926546 8.366548874e-22)
(100.4217971 -6.600187353 2.673019486e-19)
(101.1451877 -6.299500685 -2.254883112e-19)
(100.9051391 -6.9033756 -4.167596247e-20)
(100.3130996 -7.875467088 -1.049738214e-19)
(98.67065993 -7.128327759 0)
(102.7078832 -3.467892284 0)
(102.6204906 -3.947204223 7.151553841e-21)
(102.1214453 -4.159114439 -2.600033574e-19)
(102.5732833 -4.113360047 -2.779402194e-20)
(102.3734339 -4.630567705 2.517285709e-20)
(101.8216804 -4.976076084 -6.037262119e-20)
(102.2905592 -4.807132916 9.723339591e-20)
(102.0132229 -5.33383476 -1.776650314e-19)
(101.4493541 -5.86912486 1.31437001e-20)
(101.9202341 -5.505964001 4.013873349e-21)
(101.4463993 -5.875166279 -1.698860242e-20)
(101.061782 -6.616538757 -1.644192419e-19)
(99.33777719 -6.016467512 -1.092901033e-19)
(103.2502107 -3.232130266 0)
(103.1802641 -3.63482378 0)
(102.7709386 -3.871662686 -7.1901531e-21)
(103.138745 -3.76982732 0)
(102.9511417 -4.173561849 5.34178617e-21)
(102.5334387 -4.514598488 -2.533219556e-20)
(102.8681853 -4.306316609 -2.570842868e-20)
(102.5674282 -4.68960056 0)
(102.1704878 -5.164603629 1.638821826e-19)
(102.4544391 -4.810757879 3.616485973e-20)
(101.7582793 -5.089194841 5.775446696e-20)
(101.5461077 -5.661106159 -1.293367374e-19)
(99.44150244 -5.081051404 -1.403213773e-21)
(103.7117439 -2.973027662 0)
(103.6397478 -3.30886138 0)
(103.3038472 -3.553664499 0)
(103.5958761 -3.418871473 0)
(103.393167 -3.739378057 0)
(103.0723558 -4.062798755 0)
(103.3015902 -3.841793354 0)
(102.9612068 -4.129291541 0)
(102.6782184 -4.542240228 1.527041543e-20)
(102.8285872 -4.217352003 0)
(101.8049724 -4.425051203 0)
(101.7966798 -4.915686819 -2.305115708e-20)
(99.01285444 -4.317361865 0)
(104.1021334 -2.709383583 0)
(104.0164661 -2.989183956 0)
(103.7410234 -3.227782022 0)
(103.9664319 -3.079022715 0)
(103.7389364 -3.335353937 0)
(103.4875386 -3.635168271 0)
(103.63664 -3.415597208 0)
(103.2559991 -3.637186508 0)
(103.0425627 -4.000216871 0)
(103.105783 -3.703907227 0)
(101.6991492 -3.83673684 0)
(101.7852733 -4.270158751 0)
(98.68295694 -3.725810228 0)
(104.4320349 -2.453509534 0)
(104.326354 -2.68717796 0)
(104.0996356 -2.911729843 0)
(104.2683692 -2.760951508 0)
(104.0129778 -2.967946729 0)
(103.8133748 -3.239957719 0)
(103.9000771 -3.031760418 0)
(103.4834285 -3.206150382 0)
(103.31832 -3.523945946 0)
(103.3152772 -3.257583478 0)
(101.5657684 -3.335853262 0)
(101.6659412 -3.703476964 0)
(98.53370572 -3.248810693 0)
(104.7112885 -2.212501842 0)
(104.582706 -2.408522343 0)
(104.3949998 -2.615192577 0)
(104.5161841 -2.469535613 0)
(104.2331744 -2.638492149 0)
(104.0724915 -2.882043906 0)
(104.1106624 -2.69002544 0)
(103.6615507 -2.829786939 0)
(103.5320413 -3.107191686 0)
(103.4734116 -2.86971494 0)
(101.4471221 -2.912604021 0)
(101.5339532 -3.223307756 0)
(98.50260415 -2.851268989 0)
(104.9484573 -1.990193199 0)
(104.7962218 -2.1554749 0)
(104.6397365 -2.342823116 0)
(104.721267 -2.206320405 0)
(104.4126433 -2.345749199 0)
(104.2814334 -2.561946493 0)
(104.2818057 -2.387993897 0)
(103.8022023 -2.501582848 0)
(103.6998547 -2.743469703 0)
(103.5922426 -2.532615334 0)
(101.3550271 -2.553986839 0)
(101.4214333 -2.817353893 0)
(98.54519193 -2.514271 0)
(105.150608 -1.788136973 0)
(104.9753213 -1.928347146 0)
(104.8439342 -2.096280738 0)
(104.8924218 -1.97105968 0)
(104.5609197 -2.087380986 0)
(104.4523272 -2.278038588 0)
(104.4229327 -2.122480158 0)
(103.9136573 -2.215638522 0)
(103.8325343 -2.426343014 0)
(103.6811182 -2.239725812 0)
(101.2919142 -2.248869564 0)
(101.3365511 -2.473087965 0)
(98.63292175 -2.226607184 0)
(105.3238571 -1.606644063 0)
(105.1267296 -1.726397173 0)
(105.0155388 -1.875541278 0)
(105.0365505 -1.762587168 0)
(104.6849593 -1.860691968 0)
(104.5939749 -2.027845431 0)
(104.5406875 -1.890194891 0)
(104.0021398 -1.967140917 0)
(103.9377177 -2.15017003 0)
(103.7473049 -1.985839216 0)
(101.255214 -1.988338641 0)
(101.2804493 -2.179847268 0)
(98.7478688 -1.979167091 0)
(105.4732314 -1.44539541 0)
(105.2557967 -1.548437522 0)
(105.1609064 -1.679711675 0)
(105.1590686 -1.579385027 0)
(104.7898779 -1.663018629 0)
(104.712813 -1.808656688 0)
(104.6399087 -1.688067984 0)
(104.0726183 -1.752050081 0)
(104.0212785 -1.910387745 0)
(103.7965279 -1.76658681 0)
(101.2399461 -1.765769957 0)
(101.24958 -1.929365935 0)
(98.87823022 -1.766194716 0)
(105.6029082 -1.303644434 0)
(105.3668284 -1.393051525 0)
(105.285097 -1.507531758 0)
(105.2642658 -1.419781329 0)
(104.8795037 -1.491828158 0)
(104.8135911 -1.617830893 0)
(104.724226 -1.513282977 0)
(104.1288836 -1.566758861 0)
(104.0878938 -1.70305828 0)
(103.8329986 -1.578028188 0)
(101.2417027 -1.57574139 0)
(101.2389408 -1.71540024 0)
(99.01644815 -1.583313882 0)
(105.7163926 -1.180431704 0)
(105.4633217 -1.258769725 0)
(105.3921954 -1.357556336 0)
(105.3555694 -1.282115173 0)
(104.9567985 -1.344875068 0)
(104.8998831 -1.452895601 0)
(104.7964632 -1.363425618 0)
(104.1737946 -1.408395497 0)
(104.1410785 -1.524738246 0)
(103.8596701 -1.417078136 0)
(101.2567851 -1.414047795 0)
(101.2443623 -1.532791269 0)
(99.15890982 -1.42697673 0)
(105.8166321 -1.074762679 0)
(105.5481346 -1.144135904 0)
(105.4855206 -1.228326928 0)
(105.4357532 -1.164773405 0)
(105.0241794 -1.220112833 0)
(104.9744884 -1.311683864 0)
(104.8589574 -1.236331208 0)
(104.2096734 -1.274475151 0)
(104.1835296 -1.372721668 0)
(103.8787646 -1.281136649 0)
(101.2817964 -1.277788312 0)
(101.2622348 -1.377688463 0)
(99.30333979 -1.294514702 0)
(105.9060185 -0.9855335497 0)
(105.6235815 -1.047671817 0)
(105.5677946 -1.118374004 0)
(105.50705 -1.066140786 0)
(105.0836032 -1.115528382 0)
(105.0397153 -1.192151584 0)
(104.9136095 -1.129863131 0)
(104.238466 -1.162527912 0)
(104.2174649 -1.244519081 0)
(103.8922493 -1.167679994 0)
(101.3136633 -1.16498635 0)
(101.2892354 -1.247452911 0)
(99.44616584 -1.183673603 0)
(105.9865698 -0.9116662131 0)
(105.6915149 -0.9679924274 0)
(105.6412048 -1.026229164 0)
(105.5712224 -0.9847270861 0)
(105.1365926 -1.029328631 0)
(105.0974009 -1.092316746 0)
(104.9619129 -1.042141761 0)
(104.2619867 -1.070546281 0)
(104.2447673 -1.137721079 0)
(103.9022281 -1.074731563 0)
(101.3494522 -1.073937589 0)
(101.3223625 -1.140257938 0)
(99.58223229 -1.092553211 0)
(106.0600995 -0.8520989722 0)
(105.753499 -0.9039359116 0)
(105.7075106 -0.9505517658 0)
(105.6297417 -0.9193173498 0)
(105.1844483 -0.9601639483 0)
(105.1489888 -1.010481356 0)
(105.0051965 -0.9717936553 0)
(104.282187 -0.9971879453 0)
(104.2672735 -1.050504728 0)
(103.9108704 -1.000953563 0)
(101.3863554 -1.002723579 0)
(101.3586707 -1.054356663 0)
(99.70684641 -1.01986196 0)
(106.128325 -0.8062969619 0)
(105.8109305 -0.8547126761 0)
(105.7682336 -0.890264641 0)
(105.6839297 -0.8690815306 0)
(105.2284385 -0.9071671661 0)
(105.1957576 -0.9454265923 0)
(105.0448 -0.9179641097 0)
(104.3008582 -0.9415784978 0)
(104.2869354 -0.9816507272 0)
(103.9199175 -0.9453320708 0)
(101.4220906 -0.9496393335 0)
(101.3954702 -0.9878081282 0)
(99.8179735 -0.9647009507 0)
(106.1925577 -0.7737348803 0)
(105.8650511 -0.819726045 0)
(105.8247246 -0.8446526404 0)
(105.7350029 -0.8333947102 0)
(105.2698354 -0.8696542839 0)
(105.2389831 -0.896363749 0)
(105.0820721 -0.8799502082 0)
(104.3194176 -0.9028437614 0)
(104.305463 -0.9303517489 0)
(103.9304167 -0.9068700607 0)
(101.4554376 -0.9133515351 0)
(101.4306814 -0.9390378643 0)
(99.91589411 -0.926345499 0)
(106.2540526 -0.754011043 0)
(105.9169911 -0.798490462 0)
(105.8781987 -0.8131443106 0)
(105.7840602 -0.8117327492 0)
(105.3097611 -0.8469486615 0)
(105.2799153 -0.8626161099 0)
(105.1181734 -0.8570094249 0)
(104.3388421 -0.8799675226 0)
(104.3241598 -0.8956766193 0)
(103.9429287 -0.8844437711 0)
(101.4861208 -0.8928417734 0)
(101.4633638 -0.9067743807 0)
(100.0020715 -0.9040377577 0)
(106.3212295 -0.7464569557 0)
(105.9736648 -0.7903908708 0)
(105.9297123 -0.7952860238 0)
(105.8375971 -0.8034102163 0)
(105.3536273 -0.8380025712 0)
(105.3195726 -0.8435006458 0)
(105.158156 -0.8479533766 0)
(104.3625457 -0.8715268009 0)
(104.3438706 -0.8765959205 0)
(103.959998 -0.8767269751 0)
(101.5179848 -0.8880824691 0)
(101.4933117 -0.8900371746 0)
(100.0872794 -0.8979912654 0)
(92.75144086 -8.921874422 -5.311860344e-19)
(92.4312775 -8.654337961 -2.676697281e-19)
(92.83328793 -8.326830146 -3.709597436e-19)
(94.82969805 -10.58683127 2.249301058e-19)
(94.3700663 -10.21686186 -3.948989597e-18)
(94.87091757 -9.715155861 -6.955177262e-18)
(91.07945438 -19.850446 0)
(94.21806631 -7.456923666 -5.566412002e-19)
(93.63458566 -7.081985473 2.913872338e-19)
(94.39468064 -6.648841718 0)
(92.64543397 -7.875429412 -2.676493555e-19)
(93.37775126 -7.266581041 2.952243317e-19)
(93.966885 -7.676207199 -2.847846903e-19)
(96.08636892 -8.316788398 2.225059369e-19)
(95.34840586 -8.012740184 0)
(96.02329729 -7.463899533 -2.501488199e-19)
(94.51465957 -9.135446431 -6.523042386e-19)
(95.12840391 -8.277362618 0)
(95.90382607 -8.619369812 -2.320764592e-19)
(94.18030384 -7.806798935 0)
(94.87408461 -8.170892635 -2.609605198e-19)
(94.23669338 -8.986619825 -1.935025997e-21)
(93.71527193 -9.673233348 -2.484385572e-19)
(93.32710557 -9.384867202 2.562995647e-19)
(93.75265608 -8.996639291 0)
(91.29260702 -10.07910005 1.442128696e-21)
(92.09793013 -10.08624084 -2.201148964e-19)
(92.1329515 -10.14340278 2.242608072e-19)
(91.70483735 -9.368617481 0)
(91.74625099 -9.419604739 6.99794387e-19)
(91.31220444 -9.444640463 -7.229715525e-19)
(81.4585167 -7.920057029 8.065423498e-21)
(81.51318655 -8.831423032 -2.718455681e-21)
(97.35464553 -10.18679386 0)
(77.79582199 -11.51593465 1.577333575e-20)
(83.44681425 -11.35874213 -5.917953598e-21)
(91.57373927 -18.97726421 0)
(92.73524327 -16.74687119 -8.858425885e-21)
(91.23735896 -9.285494417 1.022591868e-19)
(91.63951113 -9.26367965 1.433887945e-20)
(91.66797146 -9.316501714 0)
(91.57485366 -8.678261111 7.620696714e-22)
(90.95244463 -8.80218397 2.50362592e-19)