/*--------------------------------*- C++ -*----------------------------------*\
| =========                 |                                                 |
| \\      /  F ield         | OpenFOAM: The Open Source CFD Toolbox           |
|  \\    /   O peration     | Version:  v2012                                 |
|   \\  /    A nd           | Website:  www.openfoam.com                      |
|    \\/     M anipulation  |                                                 |
\*---------------------------------------------------------------------------*/
FoamFile
{
    version     2.0;
    format      ascii;
    class       pointVectorField;
    location    "0.46";
    object      pointDisplacement;
}
// * * * * * * * * * * * * * * * * * * * * * * * * * * * * * * * * * * * * * //

dimensions      [0 1 0 0 0 0 0];


internalField   nonuniform List<vector> 
7018
(
(0 0 0)
(0 0 0)
(0 0 0)
(0 0 0)
(0 0 0)
(0 0 0)
(0 0 0)
(0 0 0)
(0 0 0)
(0 0 0)
(0 0 0)
(0 0 0)
(0 0 0)
(0 0 0)
(0 0 0)
(0 0 0)
(0 0 0)
(0 0 0)
(0 0 0)
(0 0 0)
(0 0 0)
(0 0 0)
(0 0 0)
(0 0 0)
(0 0 0)
(0 0 0)
(0 0 0)
(0 0 0)
(0 0 0)
(0 0 0)
(0 0 0)
(0 0 0)
(0 0 0)
(0 0 0)
(0 0 0)
(0 0 0)
(0 0 0)
(0 0 0)
(0 0 0)
(0 0 0)
(0 0 0)
(0 0 0)
(0 0 0)
(0 0 0)
(-4.582046009e-08 1.07805445e-05 3.469446952e-16)
(2.106759841e-07 9.16422453e-06 2.775557562e-16)
(0 0 0)
(0 0 0)
(0 0 0)
(0 0 0)
(0 0 0)
(0 0 0)
(0 0 0)
(0 0 0)
(0 0 0)
(0 0 0)
(0 0 0)
(0 0 0)
(0 0 0)
(0 0 0)
(0 0 0)
(0 0 0)
(0 0 0)
(0 0 0)
(0 0 0)
(0 0 0)
(0 0 0)
(0 0 0)
(0 0 0)
(0 0 0)
(0 0 0)
(0 0 0)
(0 0 0)
(0 0 0)
(0 0 0)
(0 0 0)
(0 0 0)
(0 0 0)
(0 0 0)
(0 0 0)
(0 0 0)
(-4.563171324e-06 0.00103078858 3.520794767e-14)
(-7.340950642e-06 0.001657390231 5.821731985e-14)
(4.235391967e-05 0.001636055644 5.746791931e-14)
(2.540604816e-05 0.001013924969 3.463895837e-14)
(8.819988631e-05 0.0007772387166 2.654820808e-14)
(0.0001554123261 0.001330613703 4.674038934e-14)
(0.0001710040253 0.001162609479 4.084232952e-14)
(9.300224828e-05 0.0006506337069 2.223221607e-14)
(5.491761404e-05 0.0002373925475 8.10462808e-15)
(0.0001360677231 0.0005718386221 2.009503675e-14)
(0.0001024787104 0.0003820486838 1.341982081e-14)
(3.210201376e-05 0.0001230878189 4.218847494e-15)
(0 0 0)
(5.407561807e-06 1.505592777e-05 5.273559367e-16)
(0 0 0)
(0 0 0)
(0 0 0)
(0 0 0)
(0 0 0)
(0 0 0)
(0 0 0)
(0 0 0)
(0 0 0)
(0 0 0)
(0 0 0)
(0 0 0)
(0 0 0)
(0 0 0)
(0 0 0)
(0 0 0)
(0 0 0)
(0 0 0)
(0 0 0)
(0 0 0)
(0 0 0)
(0 0 0)
(0 0 0)
(0 0 0)
(-1.706773962e-05 0.003902440845 1.49769086e-13)
(-2.029115389e-05 0.004647957495 1.840749775e-13)
(0.0001376222127 0.004615568699 1.82798221e-13)
(0.0001113168002 0.003871535902 1.486033518e-13)
(0.0004372961786 0.003414467478 1.310757058e-13)
(0.0005467702309 0.004132645341 1.637162628e-13)
(0.0006411497966 0.003851971783 1.526001547e-13)
(0.000507938353 0.003151822354 1.210004319e-13)
(0.0005546946461 0.002130336938 8.179568134e-14)
(0.0007354265949 0.002735643865 1.083994006e-13)
(0.0006983516074 0.002305211068 9.134359935e-14)
(0.0005127252433 0.001747280538 6.708522626e-14)
(0.0002627643009 0.0006691972073 2.570166302e-14)
(0.0004198187176 0.001035835359 4.103661855e-14)
(0.0002971084128 0.0006761293987 2.678413047e-14)
(0.0001650780927 0.0003877407659 1.489086632e-14)
(0 0 0)
(1.42921061e-05 2.632771415e-05 1.054711873e-15)
(0 0 0)
(0 0 0)
(0 0 0)
(0 0 0)
(0 0 0)
(0 0 0)
(0 0 0)
(0 0 0)
(0 0 0)
(0 0 0)
(0 0 0)
(0 0 0)
(0 0 0)
(0 0 0)
(0 0 0)
(0 0 0)
(0 0 0)
(0 0 0)
(0 0 0)
(0 0 0)
(-2.894375347e-05 0.006417265384 2.810252031e-13)
(-3.145417572e-05 0.006772125305 3.073929999e-13)
(0.0002329511856 0.006744694463 3.061856324e-13)
(0.0002126176244 0.006386834919 2.797206911e-13)
(0.00086816661 0.005919649067 2.593480986e-13)
(0.0009605856496 0.006316301267 2.868677518e-13)
(0.001157081294 0.006049112129 2.747663208e-13)
(0.001039440358 0.005635779503 2.46955234e-13)
(0.001316123421 0.004420248492 1.937477956e-13)
(0.001502503086 0.004862538592 2.209621375e-13)
(0.001516009928 0.004354385726 1.978833764e-13)
(0.001313264394 0.003914485665 1.715849685e-13)
(0.001011983735 0.002249151529 9.861556016e-14)
(0.001259827684 0.002688784021 1.223188217e-13)
(0.001088179844 0.002139204322 9.739431484e-14)
(0.0008632670454 0.001764539895 7.741030039e-14)
(0.0003003126472 0.0004974184708 2.184363801e-14)
(0.0004486232149 0.0007163537287 3.261280135e-14)
(0.0002533447405 0.0003807515183 1.733335697e-14)
(0.0001448198606 0.0002257424526 9.908740495e-15)
(0 0 0)
(0 0 0)
(0 0 0)
(0 0 0)
(0 0 0)
(0 0 0)
(0 0 0)
(0 0 0)
(0 0 0)
(0 0 0)
(0 0 0)
(0 0 0)
(0 0 0)
(0 0 0)
(0 0 0)
(0 0 0)
(0 0 0)
(0 0 0)
(-3.767234103e-05 0.006971566806 3.554101458e-13)
(-3.909622118e-05 0.006754563235 3.590738817e-13)
(0.0002711850834 0.00675249854 3.590322484e-13)
(0.0002688190629 0.006960942915 3.549244232e-13)
(0.001162921428 0.006762165554 3.450018049e-13)
(0.001197506789 0.006658017703 3.542999227e-13)
(0.001480554678 0.006545976779 3.484573741e-13)
(0.001428882378 0.006600867916 3.36883299e-13)
(0.001993925083 0.005693111746 2.908923102e-13)
(0.002121210871 0.005774469252 3.081146449e-13)
(0.002232286011 0.005387124831 2.87769808e-13)
(0.002077551686 0.005246359411 2.683825384e-13)
(0.001935700228 0.003657446003 1.873501354e-13)
(0.002132756432 0.003861012591 2.063488269e-13)
(0.001957654128 0.003272445401 1.74887882e-13)
(0.001756367463 0.003064230607 1.569577801e-13)
(0.000961046805 0.001363361595 6.980527267e-14)
(0.001132504171 0.001539407959 8.225364834e-14)
(0.0008173234252 0.00104579228 5.587197371e-14)
(0.0006697960185 0.0008944538356 4.579669977e-14)
(4.428491138e-05 5.026337992e-05 2.581268532e-15)
(7.607472941e-05 8.269683977e-05 4.413136523e-15)
(1.93147318e-06 1.999164665e-06 1.110223025e-16)
(0 0 0)
(0 0 0)
(0 0 0)
(0 0 0)
(0 0 0)
(0 0 0)
(0 0 0)
(0 0 0)
(0 0 0)
(0 0 0)
(0 0 0)
(0 0 0)
(0 0 0)
(0 0 0)
(0 0 0)
(-4.234117611e-05 0.005887617861 0)
(-4.284057208e-05 0.005743101061 0)
(0.0001154834994 0.005742680619 0)
(0.0001151253867 0.005887186792 0)
(0.001230742879 0.005871374713 0)
(0.001234955125 0.005722932601 0)
(0.001240282344 0.005572187084 0)
(0.001397763045 0.005567102589 0)
(0.00155296734 0.005564886809 0)
(0.001547144146 0.005862972926 0)
(0.00237162874 0.005591831204 3.433364704e-13)
(0.002412337593 0.005404020758 3.491928968e-13)
(0.002603803065 0.005185831579 3.351902089e-13)
(0.002544117809 0.00533382979 3.275713034e-13)
(0.002591928432 0.004077321996 2.505495811e-13)
(0.002687088469 0.004011270488 2.596117765e-13)
(0.002555731432 0.003521776846 2.279842981e-13)
(0.002438644307 0.003541060874 2.176453462e-13)
(0.0015812852 0.001865452267 1.14713794e-13)
(0.001729504107 0.001937898822 1.25441324e-13)
(0.001364160588 0.00143915865 9.314771177e-14)
(0.001228616215 0.001364531091 8.390510509e-14)
(0.000274137024 0.0002589848303 1.591782262e-14)
(0.0003426447865 0.0003075275686 1.990074772e-14)
(0.0001227928028 0.0001049751471 6.786238238e-15)
(8.354959799e-05 7.51815151e-05 4.62130334e-15)
(0 0 0)
(0 0 0)
(0 0 0)
(0 0 0)
(0 0 0)
(0 0 0)
(0 0 0)
(0 0 0)
(0 0 0)
(0 0 0)
(0 0 0)
(0 0 0)
(0 0 0)
(0 0 0)
(0.001247542562 0.004685028817 0)
(0.001247922421 0.004537352863 0)
(0.001402075259 0.004536222142 0)
(0.001401856986 0.004683678949 0)
(0.002470435103 0.004651075162 3.573252805e-13)
(0.002475597049 0.004370555904 3.581995811e-13)
(0.002726858748 0.004280078669 3.509137425e-13)
(0.00271214944 0.00453999742 3.489153411e-13)
(0.002954469974 0.003712460613 2.854383396e-13)
(0.002992387906 0.003525416654 2.891575868e-13)
(0.002892102233 0.00314608899 2.580435865e-13)
(0.002849249573 0.003305905677 2.541578059e-13)
(0.002031581827 0.001917295557 1.473404732e-13)
(0.002078090106 0.001838614193 1.507266534e-13)
(0.001688539689 0.001406392178 1.152689055e-13)
(0.001644746529 0.001461389661 1.122713034e-13)
(0.0004971530665 0.0003757706339 2.885192085e-14)
(0.0005614175698 0.0003976573769 3.258504577e-14)
(0.0002678144462 0.0001807066738 1.480759959e-14)
(0.0002204693564 0.0001587368325 1.21846977e-14)
(0 0 0)
(0 0 0)
(0 0 0)
(0 0 0)
(0 0 0)
(0 0 0)
(0 0 0)
(0 0 0)
(0 0 0)
(0 0 0)
(0 0 0)
(0 0 0)
(0 0 0)
(0 0 0)
(0.001247055036 0.003506869372 0)
(0.001246592164 0.003359998705 0)
(0.001400374771 0.003359390713 0)
(0.001400864445 0.003506186889 0)
(0.002478488857 0.003501166832 3.590461262e-13)
(0.002477439881 0.003208551884 3.590738817e-13)
(0.002753765909 0.003170681804 3.549660565e-13)
(0.002750915281 0.003454928983 3.54410945e-13)
(0.003091148378 0.002912943978 2.989414272e-13)
(0.003109045731 0.002685566698 3.007732952e-13)
(0.003037460163 0.002422276833 2.712691183e-13)
(0.003014464284 0.002622646629 2.69131939e-13)
(0.002244960096 0.001588457493 1.628974733e-13)
(0.002278432556 0.001477639282 1.653677195e-13)
(0.001891327719 0.001154921891 1.291883267e-13)
(0.00185690656 0.001237088129 1.26815225e-13)
(0.00064389749 0.0003650561856 3.738676035e-14)
(0.0006701261374 0.0003482628149 3.891331701e-14)
(0.0003455935181 0.000171106131 1.910971381e-14)
(0.00032579214 0.0001759624796 1.801336857e-14)
(0 0 0)
(0 0 0)
(0 0 0)
(0 0 0)
(0 0 0)
(0 0 0)
(0 0 0)
(0 0 0)
(0 0 0)
(0 0 0)
(0 0 0)
(0 0 0)
(0 0 0)
(0 0 0)
(0.001241665519 0.00233319483 0)
(0.001240758128 0.002186880284 0)
(0.001394365705 0.002186516374 0)
(0.001395293227 0.002332783507 0)
(0.002472085175 0.002329863037 3.59060004e-13)
(0.002469657749 0.002037590025 3.58990615e-13)
(0.002740245876 0.002009212222 3.541195115e-13)
(0.002745829235 0.002300121552 3.545913563e-13)
(0.003092414448 0.001942269396 2.99538172e-13)
(0.003079730665 0.001692695267 2.984557046e-13)
(0.003004077586 0.001524239314 2.687017275e-13)
(0.003018135498 0.001749990438 2.698535839e-13)
(0.002254065777 0.001062918903 1.63702385e-13)
(0.002239296956 0.000924201946 1.626754287e-13)
(0.001852967256 0.0007201651628 1.266764471e-13)
(0.001866868662 0.0008289644329 1.275923811e-13)
(0.0006521503449 0.0002465388246 3.788636072e-14)
(0.000643670879 0.0002130214246 3.738676035e-14)
(0.0003260357482 0.0001028103423 1.804112415e-14)
(0.0003320463935 0.0001195989833 1.837419106e-14)
(0 0 0)
(0 0 0)
(0 0 0)
(0 0 0)
(0 0 0)
(0 0 0)
(0 0 0)
(0 0 0)
(0 0 0)
(0 0 0)
(0 0 0)
(0 0 0)
(0 0 0)
(0 0 0)
(0.001233269024 0.001164359688 0)
(0.001231942979 0.001018249467 0)
(0.001385402285 0.001018041623 0)
(0.00138676201 0.001164111148 0)
(0.002456908835 0.001159374874 3.581579477e-13)
(0.00244941554 0.0008665689752 3.574363028e-13)
(0.002690250158 0.0008452305303 3.488320743e-13)
(0.002708322922 0.001135244906 3.508582314e-13)
(0.002979833085 0.0009355856405 2.892408535e-13)
(0.002920033271 0.0006870653093 2.836064716e-13)
(0.002833391671 0.0006154888316 2.539218835e-13)
(0.002882524764 0.0008354925991 2.581823644e-13)
(0.002076903572 0.0004900882651 1.510180869e-13)
(0.00202515932 0.0003585730104 1.472988398e-13)
(0.001640911376 0.0002738056194 1.122851812e-13)
(0.001689364516 0.0003755393925 1.155742169e-13)
(0.0005261811135 9.973368431e-05 3.058664433e-14)
(0.0004979520999 7.093718742e-05 2.894906537e-14)
(0.0002213332624 3.005769078e-05 1.225408663e-14)
(0.0002402730304 4.340580365e-05 1.329492072e-14)
(0 0 0)
(0 0 0)
(0 0 0)
(0 0 0)
(0 0 0)
(0 0 0)
(0 0 0)
(0 0 0)
(0 0 0)
(0 0 0)
(0 0 0)
(0 0 0)
(0 0 0)
(0 0 0)
(0.001221547499 -1.684355996e-06 0)
(0.001219796974 -0.000147312924 0)
(0.001373202583 -0.0001473988417 0)
(0.001375000452 -1.770433831e-06 0)
(0.002415687343 -3.158571093e-06 3.537448112e-13)
(0.002398381075 -0.0002881890697 3.516770208e-13)
(0.0025952474 -0.0002772192444 3.378547442e-13)
(0.002625530814 -3.44609847e-06 3.414213356e-13)
(0.002750650693 -2.252350139e-06 2.676192601e-13)
(0.002706069391 -0.0002158185225 2.634559237e-13)
(0.002559843927 -0.0001878940071 2.298577995e-13)
(0.002639850705 -1.607493595e-06 2.369215935e-13)
(0.001790542054 2.969634276e-07 1.303540609e-13)
(0.001678401687 -9.877883819e-05 1.22235555e-13)
(0.001299650306 -7.159869888e-05 8.903988657e-14)
(0.001412127878 5.998322069e-07 9.672818102e-14)
(0.000353281021 3.563941451e-07 2.055300374e-14)
(0.0003085265315 -1.423944305e-05 1.794397964e-14)
(0.0001001728327 -4.388697964e-06 5.551115123e-15)
(0.0001260869879 1.380319101e-07 6.980527267e-15)
(0 0 0)
(0 0 0)
(0 0 0)
(0 0 0)
(0 0 0)
(0 0 0)
(0 0 0)
(0 0 0)
(0 0 0)
(0 0 0)
(0 0 0)
(0 0 0)
(0 0 0)
(0 0 0)
(0.001247490076 0.00365351017 0)
(0.001093695109 0.003654463149 0)
(0.001093474494 0.003581227306 0)
(0.001093293613 0.003507741074 0)
(0.001092899646 0.004687243984 0)
(0.001093649439 0.004538957443 0)
(0.00124254645 0.00247968532 0)
(0.001088999905 0.002480096368 0)
(0.001088582963 0.00240680708 0)
(0.001088145799 0.002333538151 0)
(0.001093098999 0.003434194016 0)
(0.001092890789 0.003360626713 0)
(0.001234425523 0.001310335211 0)
(0.001080986279 0.001310475351 0)
(0.001080435164 0.001237511171 0)
(0.001079850415 0.001164601214 0)
(0.001087695085 0.002260262505 0)
(0.001087251775 0.002187176215 0)
(0.001223297818 0.00014388334 0)
(0.001069952944 0.0001439284706 0)
(0.001068114379 -1.733617839e-06 0)
(0.001078544454 0.001018430052 0)
(0.001066580265 -0.0001473696813 0)
(-0.0001977112674 0.00588804184 0)
(-0.0001986459213 0.00574346564 0)
(0.001246718656 0.004833400356 0)
(0.00109207497 0.004835387659 0)
(0.001072815983 0.005874519555 0)
(0.001076463727 0.005727154769 0)
(0.0006323699985 0.004099201351 0)
(0.0006322959487 0.004136304848 0)
(0.0005934847283 0.00413645842 0)
(0.000593453182 0.004099330255 0)
(0.0006289454184 0.004694155044 0)
(0.0005514719428 0.00469551113 0)
(0.000552545558 0.004620378379 0)
(0.0006299128639 0.004619227995 0)
(0.001401353411 0.003652773395 0)
(0.002479212761 0.00379285312 3.589628594e-13)
(0.002171788928 0.003795930919 0)
(0.002170629044 0.003502954667 0)
(0.002173746356 0.004676739565 0)
(0.002173295001 0.004383274747 0)
(0.0006217545608 0.002921826514 0)
(0.0006220524022 0.00295849791 0)
(0.0005783502209 0.002958598358 0)
(0.0005780653218 0.002921953972 0)
(0.0006305137893 0.003509522548 0)
(0.0005903039638 0.003509509731 0)
(0.0005912925045 0.003472820457 0)
(0.0006309691791 0.003472780968 0)
(0.001396187571 0.002479240133 0)
(0.002474185712 0.002622564648 3.590877595e-13)
(0.002166167146 0.00262357607 0)
(0.002164277965 0.002330947229 0)
(0.002169353449 0.00320976237 0)
(0.0006245215026 0.001749010424 0)
(0.000624500529 0.001785608498 0)
(0.0005858235532 0.001785658133 0)
(0.0005860602842 0.001749059329 0)
(0.000626904321 0.002334807151 0)
(0.0005874446061 0.002335001469 0)
(0.0005861365416 0.002298407889 0)
(0.0006261304399 0.002298171182 0)
(0.001387972686 0.001310106778 0)
(0.00246245796 0.001451939407 3.58602037e-13)
(0.002157790233 0.00145453119 0)
(0.002155295512 0.001162844542 0)
(0.002162275771 0.002038900443 0)
(0.0006154124892 0.0005810840184 0)
(0.0006161723007 0.0006539595655 0)
(0.0005398156073 0.0006539472448 0)
(0.0005391355371 0.0005810511372 0)
(0.0006205375195 0.001164950601 0)
(0.0005439944494 0.001165026838 0)
(0.0005436617579 0.00112845025 0)
(0.0005434214982 0.001091805713 0)
(0.0006199630653 0.001091885045 0)
(-6.821636122e-06 -0.0005856008348 0)
(3.128093886e-05 -0.0005855403092 0)
(3.104939002e-05 -0.0005490091588 0)
(-7.423169262e-06 -0.0005489737424 0)
(0.0006011172983 -0.0005839908869 0)
(0.0006022345815 -0.0005112112395 0)
(0.0005259247069 -0.000511379282 0)
(0.0005248670344 -0.0005841320765 0)
(0.0006091645524 -1.825094577e-06 0)
(0.0005329564742 -1.892026874e-06 0)
(0.00053207172 -7.47130424e-05 0)
(0.0006083129396 -7.464622218e-05 0)
(0.0006303067592 0.00354630387 0)
(0.0005897707932 0.003546251574 0)
(0.0005934929846 0.004062299921 0)
(0.0006323706732 0.004062200909 0)
(0.001248238735 0.004094887272 0)
(0.001094228178 0.004096090558 0)
(0.001094189018 0.004022511186 0)
(0.001094182778 0.003948665891 0)
(0.001248092405 0.003947617833 0)
(0.0006324927884 0.004025310303 0)
(0.0007095829645 0.004024812871 0)
(0.0007095348155 0.004098575157 0)
(0.000669984107 0.003509463466 0)
(0.0006699327072 0.003546264553 0)
(0.0006277043741 0.002371382158 0)
(0.0005887869361 0.002371527297 0)
(0.0005782306924 0.002885253955 0)
(0.0006218636109 0.002885072578 0)
(0.001244839323 0.002919685536 0)
(0.001168018912 0.002919952092 0)
(0.001167682606 0.002846506968 0)
(0.001244489537 0.002846253984 0)
(0.0006643954916 0.002884915216 0)
(0.0006643845817 0.002921689111 0)
(0.0006659299301 0.002334648118 0)
(0.0006664054241 0.002371251278 0)
(0.0006701438379 0.003472695832 0)
(0.0006646236487 0.002958380996 0)
(0.001245168476 0.002993015702 0)
(0.001168341301 0.002993282282 0)
(0.0006210805412 0.001237921572 0)
(0.0005444805886 0.00123797771 0)
(0.0005442402245 0.001201502265 0)
(0.0005859183019 0.001712475333 0)
(0.0006243165735 0.001712413113 0)
(0.001237779649 0.001748147185 0)
(0.001084286252 0.001748273981 0)
(0.001083775398 0.001675214974 0)
(0.001083251406 0.001602270993 0)
(0.001236710894 0.001602117257 0)
(0.0006240429993 0.001675917489 0)
(0.000700678753 0.001675847702 0)
(0.0007011895383 0.001748886419 0)
(0.0006970095952 0.001164881368 0)
(0.0006975742374 0.001237845502 0)
(0.0006654677573 0.002297984041 0)
(0.0007016396804 0.001821992976 0)
(0.0006631955767 0.001822102697 0)
(0.0006245598815 0.001822158956 0)
(0.001238760707 0.001894245046 0)
(0.001085328616 0.001894500144 0)
(0.001084831061 0.001821373455 0)
(0.0006100819547 7.104991958e-05 0)
(0.0005338157099 7.0983184e-05 0)
(0.0005384723072 0.0005081346817 0)
(0.0006147756371 0.0005081674737 0)
(-4.422870192e-05 -0.0005858598578 0)
(-4.483845962e-05 -0.0006221446724 0)
(-7.018033267e-06 -0.0006219952654 0)
(-4.547567206e-05 -0.0005490479646 0)
(0.0005236688859 -0.0006568235232 0)
(0.0005999163529 -0.0006567093787 0)
(3.106993244e-05 -0.0006219346904 0)
(0.0003179632837 0.004398190358 0)
(0.0003153300133 0.004434734365 0)
(0.0002764898117 0.004432718263 0)
(0.0002885737473 0.004402928246 0)
(0.0003154714161 0.004701746747 0)
(0.0002749856143 0.00470272798 0)
(0.0002748966502 0.00466362141 0)
(0.0003156305141 0.00466319194 0)
(0.0003042691701 0.0008746564964 0)
(0.0003028993252 0.0009113944052 0)
(0.0002622820238 0.0009142913268 0)
(0.0002561821399 0.0008837606374 0)
(0.001376689762 0.0001437568867 0)
(0.002429527521 0.0002851359099 3.55326879e-13)
(0.002146842012 0.0002886821751 3.590877595e-13)
(0.00214270534 -2.68127496e-06 3.589351039e-13)
(0.002152665474 0.0008711448242 0)
(-1.97849533e-05 -0.0002832835928 0)
(2.781127172e-05 -0.0002923184376 0)
(2.778463566e-05 -0.0002557947438 0)
(-1.168194357e-05 -0.0002530302228 0)
(0.0003010500449 -0.0002936347724 0)
(0.0003019577037 -0.0002208408888 0)
(0.0002257230189 -0.0002209753674 0)
(0.000225317807 -0.0002573961463 0)
(0.0002250059779 -0.0002938037138 0)
(0.0003047040193 -2.357862641e-06 0)
(0.0002666198641 -2.411686924e-06 0)
(0.0002661910255 -3.881885866e-05 0)
(0.0003042778633 -3.877180708e-05 0)
(0.0007072265959 0.004618035859 0)
(0.0007065986805 0.004692361689 0)
(0.0007094534068 0.004172502588 0)
(0.0006323053645 0.004173289023 0)
(0.001248310416 0.00424208324 0)
(0.00109433954 0.004243019905 0)
(0.001094300902 0.004169594741 0)
(0.0003050620693 3.411718479e-05 0)
(0.0002669475695 3.409051765e-05 0)
(0.0003064439149 0.0002895274832 0)
(0.0002669703168 0.0002898165393 0)
(0.0002672774344 0.0002532310243 0)
(0.0003063746 0.0002530311685 0)
(0.001227913801 0.0005808253025 0)
(0.001074515093 0.0005809517787 0)
(0.001073055195 0.0004352613552 0)
(0.001226426986 0.0004351755518 0)
(0.0006911160751 0.0005081730857 0)
(0.0006918157596 0.000581069127 0)
(0.0006854550545 -1.785495543e-06 0)
(0.000686404876 7.107588172e-05 0)
(0.0006964380065 0.001091863148 0)
(0.0006925356661 0.0006539448091 0)
(0.00122936753 0.0007266916013 0)
(0.001075941791 0.0007268249325 0)
(-4.169397507e-05 0.005309613411 0)
(-0.0001259486368 0.005309194251 0)
(-0.0001261465185 0.005236880891 0)
(-4.199911356e-05 0.005237292297 0)
(0.0006279449822 0.004768926775 0)
(0.0005503318515 0.004770386953 0)
(0.0006124260591 0.005295393146 0)
(0.0004508327262 0.005300775621 0)
(0.000451979308 0.005227619024 0)
(0.0004571697062 0.005151815669 0)
(0.0005400629172 0.005146670937 0)
(0.0006194575128 0.005143988499 0)
(4.600986047e-05 0.005236382558 0)
(4.574132232e-05 0.005308775954 0)
(0.0003075065425 0.004350940505 0)
(0.0006316355163 0.004395615199 0)
(0.000554430571 0.004396375448 0)
(0.0005545160472 0.004359050741 0)
(0.0005546057919 0.004321788245 0)
(0.0006319770093 0.004321194496 0)
(0.0003555674842 0.004359521993 0)
(0.0003563362095 0.004397233396 0)
(0.0003557175138 0.004662885253 0)
(0.0003552618717 0.004701152201 0)
(0.0003555439953 0.004434776252 0)
(0.0006312992825 0.00446979104 0)
(0.0005541991235 0.004470336528 0)
(0.0005543041994 0.004433407427 0)
(0.0006337516103 0.003215543934 0)
(0.0005972862804 0.003215775471 0)
(0.0005967751356 0.003179030396 0)
(0.0006332688952 0.003178805526 0)
(0.0006337406546 0.003252304302 0)
(0.0005970379012 0.003252529878 0)
(0.0006265891267 0.002041604842 0)
(0.0005884802208 0.002041632265 0)
(0.0005879604206 0.002004927801 0)
(0.0006262756149 0.002004899681 0)
(0.0006265715219 0.002078399051 0)
(0.0005882950171 0.002078467622 0)
(0.0003074756077 0.0005815978422 0)
(0.0003080694312 0.0006179909287 0)
(0.0002693769679 0.0006180609069 0)
(0.000267709102 0.0005818743615 0)
(0.0002716237969 0.0008370461309 0)
(0.0003076706295 0.0008374653175 0)
(0.0006181355538 0.0008728916395 0)
(0.000541726219 0.000872913315 0)
(0.000541072664 0.0008000576994 0)
(0.00061752258 0.0008000358867 0)
(0.0003466408918 0.0008373402907 0)
(0.0003451406247 0.0008741124587 0)
(0.0003469797104 0.0005813289738 0)
(0.0003472470373 0.0006177772735 0)
(0.0003110668049 0.001166511211 0)
(0.0003047923684 0.001132565478 0)
(0.0003450561876 0.001129744152 0)
(0.0003473303194 0.001166003047 0)
(0.0003445940315 0.0009106852563 0)
(0.0006187561733 0.0009458082391 0)
(0.0005423502432 0.0009458366667 0)
(0.000542016542 0.0009093615369 0)
(0.0002968298108 -0.0005847542036 0)
(0.0002979753408 -0.0005120219972 0)
(0.0002221575784 -0.0005122728674 0)
(0.0002211100741 -0.0005850189327 0)
(0.0002245893595 -0.0003301973996 0)
(0.0002242024321 -0.0003666114767 0)
(0.0003001093361 -0.0003664014896 0)
(-7.013428774e-06 -0.0003298740876 0)
(2.966496552e-05 -0.000329382637 0)
(0.0006324068194 0.003803889628 0)
(0.0005933718099 0.003804068983 0)
(0.0005937823086 0.003767253155 0)
(0.0006325592836 0.003766973219 0)
(0.000632355534 0.003840724533 0)
(0.0005932089259 0.003840904265 0)
(0.0006318866412 0.002628074839 0)
(0.0005956986072 0.00262810253 0)
(0.000595288285 0.002591370641 0)
(0.000631660964 0.002591342326 0)
(0.0006316252968 0.002664795472 0)
(0.0005953561231 0.0026648302 0)
(0.0006689849351 0.002628010252 0)
(0.0006688994202 0.002664723526 0)
(0.0009363486869 0.002627254876 0)
(0.000936698039 0.00270055792 0)
(0.0008599925162 0.002700797033 0)
(0.0008596769361 0.002627480348 0)
(0.0009376726112 0.002920737845 0)
(0.0008608792308 0.002920997547 0)
(0.0008605833696 0.002847511704 0)
(0.0009373632457 0.002847258812 0)
(0.0009347344559 0.002333928452 0)
(0.0009351649249 0.002407217694 0)
(0.0008584998691 0.002407422852 0)
(0.0008580626137 0.002334126869 0)
(0.0008593138511 0.002554116478 0)
(0.0009359720976 0.002553897815 0)
(0.0006688269163 0.002591284274 0)
(0.0006710456126 0.003215350176 0)
(0.0006711293237 0.00325210346 0)
(0.0009388074305 0.003214302618 0)
(0.0009390490918 0.003287761589 0)
(0.0008622896665 0.003288061758 0)
(0.0008620615094 0.003214595977 0)
(0.0009396194291 0.003508409572 0)
(0.0008627924597 0.003508737024 0)
(0.0008626450306 0.003435142461 0)
(0.0009394517322 0.003434821842 0)
(0.0009379747785 0.002994088394 0)
(0.0008611746575 0.002994354882 0)
(0.0008617861217 0.003141164174 0)
(0.0009385455928 0.003140877532 0)
(0.000670704955 0.003178618052 0)
(0.0006226117634 0.001456902452 0)
(0.0005841425202 0.001456978439 0)
(0.0005839816686 0.001420414798 0)
(0.0006223785646 0.001420345819 0)
(0.0003515017454 0.00120189029 0)
(0.0003173094986 0.001201870649 0)
(0.000622741434 0.001493445908 0)
(0.0005841735116 0.00149354252 0)
(0.0003068336257 0.0005451643367 0)
(0.0003466148053 0.000544826895 0)
(0.0003453092735 0.0002893825204 0)
(0.0003454936603 0.0003259055005 0)
(0.0003064093684 0.0003261120765 0)
(0.0006125247011 0.0002895677905 0)
(0.0006133029343 0.0003624906207 0)
(0.0005370266815 0.0003624645008 0)
(0.0005362605083 0.0002895078116 0)
(0.0002665099638 0.0003264904997 0)
(0.0002662892527 0.0005456261047 0)
(-3.363958963e-05 -0.0003347282565 0)
(0.000219877706 -0.0006576291001 0)
(0.0002956629576 -0.0006573916471 0)
(0.0001544616418 0.004709487011 0)
(0.0001069002246 0.004709614524 0)
(0.0001497376171 0.004664196789 0)
(0.0001480586757 -0.0001476587496 0)
(0.0001485288406 -0.0001112314267 0)
(0.0001080955271 -0.0001107294525 0)
(0.0001076802156 -0.00014713667 0)
(0.0001515611927 -2.367524423e-06 0)
(0.0001138784036 -2.537687769e-06 0)
(0.0001130887115 -3.884894834e-05 0)
(0.00015113107 -3.875440092e-05 0)
(-0.0002450719812 0.004708318676 0)
(-0.0002486935107 0.004666035386 0)
(-0.0001999668992 0.004660254894 0)
(-0.000203642375 0.004713819612 0)
(0.0001511872073 3.424527123e-05 0)
(0.0001123393424 3.436312043e-05 0)
(0.0001514166223 0.0001438829428 0)
(0.0001154214115 0.0001433283091 0)
(0.0001146114059 0.0001070103536 0)
(0.0001519244573 0.0001072494036 0)
(-4.477469846e-05 0.005020320365 0)
(-0.0001345467922 0.005018327029 0)
(-0.0001373611385 0.004945327215 0)
(-8.912911659e-05 0.004947596981 0)
(-4.322969358e-05 0.004948143146 0)
(-0.0003111244305 0.004934462673 0)
(-0.0003017803205 0.005013108326 0)
(0.0003147455433 0.004740506677 0)
(0.000274533462 0.004741826843 0)
(0.0003026667729 0.00500782374 0)
(0.0002204038677 0.00501154936 0)
(0.0002242033786 0.004936661771 0)
(0.0003076214681 0.004931323176 0)
(6.048147026e-06 0.004947336658 0)
(5.118290113e-05 0.004945846851 0)
(4.831341365e-05 0.005018941638 0)
(0.0006270067862 0.00306850513 0)
(0.0005860446118 0.003068623366 0)
(0.0005818315686 0.003031829937 0)
(0.0006245456176 0.003031739595 0)
(0.0004732932395 0.00350953344 0)
(0.0004766226557 0.003473039159 0)
(0.0005117146053 0.003472900193 0)
(0.0005089913178 0.003509426243 0)
(0.0004849255674 0.003363203541 0)
(0.0005192003882 0.003363040285 0)
(0.0005169523596 0.0033997 0)
(0.0004825146057 0.003399884098 0)
(0.0006326319709 0.003362467298 0)
(0.0006321002445 0.003399236191 0)
(0.000593583186 0.003399373212 0)
(0.0005946405777 0.003362643123 0)
(0.0006248999149 0.001895306468 0)
(0.0005855691324 0.00189542595 0)
(0.0005853203546 0.001858862606 0)
(0.0006246388484 0.001858709347 0)
(0.0004634915236 0.00189657603 0)
(0.0004625383725 0.00186013005 0)
(0.0005041640318 0.001859603752 0)
(0.0005046148797 0.001896119068 0)
(0.0004722988982 0.001748909723 0)
(0.0005093593717 0.0017490617 0)
(0.0005080404592 0.001785860309 0)
(0.0004702026574 0.001785852997 0)
(0.000473559591 0.002335494825 0)
(0.0004706433822 0.00229897432 0)
(0.0005057997914 0.002298896009 0)
(0.0005084831967 0.00233537672 0)
(0.0004605474569 0.002192217504 0)
(0.0005011843824 0.002189523425 0)
(0.0005009807013 0.002226095063 0)
(0.0004638298773 0.002226626518 0)
(0.0006251402984 0.002188387283 0)
(0.0006250928325 0.002224951629 0)
(0.0005843829485 0.002225271921 0)
(0.0005846204244 0.002188693405 0)
(0.0006318011352 0.003656789481 0)
(0.0005927004964 0.003656962294 0)
(0.0005912054506 0.00362007851 0)
(0.0006310681687 0.00362005192 0)
(0.0004810221607 0.003657968988 0)
(0.0004626289381 0.003611308032 0)
(0.000510479136 0.003619972749 0)
(0.0005158168733 0.003657337282 0)
(0.0005068578578 0.003545963825 0)
(0.0004697833769 0.003545669859 0)
(0.0006711078008 0.003803738458 0)
(0.0006711037917 0.003840552911 0)
(0.0009402010551 0.003802395561 0)
(0.0009403209039 0.003875834653 0)
(0.0008634535819 0.003876229877 0)
(0.0008633539095 0.003802756898 0)
(0.0009403455732 0.004097129056 0)
(0.0008634444517 0.004097529805 0)
(0.0008634790187 0.004023751332 0)
(0.0009403665627 0.004023335749 0)
(0.0009397801565 0.003581936454 0)
(0.0008629397058 0.003582277478 0)
(0.000863267055 0.003729074203 0)
(0.00094010746 0.003728719652 0)
(0.0006711586974 0.003766788573 0)
(0.0006299563757 0.002481297062 0)
(0.0005924928271 0.00248135612 0)
(0.0005913356355 0.002444775557 0)
(0.0006292509208 0.00244469468 0)
(0.0004841395878 0.002481391134 0)
(0.0004817566902 0.002444970279 0)
(0.0005160027251 0.002444895047 0)
(0.0005181978933 0.002481404463 0)
(0.0005111325783 0.002371796673 0)
(0.000476459603 0.002371826004 0)
(0.0006260793793 0.00277487202 0)
(0.0006238863413 0.002811592421 0)
(0.0005812923274 0.002811777048 0)
(0.0005852330218 0.002775037209 0)
(0.000471173528 0.001712538724 0)
(0.0005090113755 0.001712559564 0)
(0.0004631788912 0.00160413124 0)
(0.000504539465 0.001603619366 0)
(0.0005059184455 0.001639982743 0)
(0.0004655975343 0.00164032201 0)
(0.0006233694868 0.001602960486 0)
(0.000623654582 0.001639462835 0)
(0.000584998802 0.001639580035 0)
(0.0005845453401 0.001603091783 0)
(0.0006991806493 0.001456859946 0)
(0.000699657411 0.001529837905 0)
(0.0006229188971 0.001529921566 0)
(0.0009288861963 0.001456603923 0)
(0.0009294033106 0.001529514109 0)
(0.0008528123336 0.001529624326 0)
(0.0008523018456 0.001456673536 0)
(0.0009309758819 0.001748521904 0)
(0.0008543714465 0.001748652458 0)
(0.0008538674018 0.001675606955 0)
(0.0009304718373 0.001675476401 0)
(0.0006648578812 0.002041644515 0)
(0.0006649617458 0.002078357149 0)
(0.0009329941649 0.002041326162 0)
(0.0009334514822 0.002114554441 0)
(0.0008567863806 0.002114746072 0)
(0.0008563696904 0.002041531183 0)
(0.0008576117625 0.002260810641 0)
(0.0009342971776 0.002260625705 0)
(0.000931507301 0.001821662005 0)
(0.000854882552 0.001821785864 0)
(0.0008558782808 0.001968221856 0)
(0.000932516534 0.001968091189 0)
(0.0006646256464 0.002004972897 0)
(0.0005354101338 0.0002166528617 0)
(0.0006117230471 0.0002167194394 0)
(0.0003450730818 0.000252940879 0)
(0.0003807494847 -2.175398701e-06 0)
(0.0003815276264 7.072037731e-05 0)
(0.0003054384724 7.061922468e-05 0)
(-1.196822458e-05 -0.0004381430528 0)
(-5.978086779e-05 -0.0004290668943 0)
(-4.659356135e-05 -0.0004757670133 0)
(-9.612434363e-06 -0.00047535775 0)
(0.0003152176531 0.004548109422 0)