/*--------------------------------*- C++ -*----------------------------------*\
| =========                 |                                                 |
| \\      /  F ield         | OpenFOAM: The Open Source CFD Toolbox           |
|  \\    /   O peration     | Version:  v2012                                 |
|   \\  /    A nd           | Website:  www.openfoam.com                      |
|    \\/     M anipulation  |                                                 |
\*---------------------------------------------------------------------------*/
FoamFile
{
    version     2.0;
    format      ascii;
    class       volVectorField;
    location    "2.06";
    object      U;
}
// * * * * * * * * * * * * * * * * * * * * * * * * * * * * * * * * * * * * * //

dimensions      [0 1 -1 0 0 0 0];


internalField   nonuniform List<vector> 
3019
(
(103.18506 -30.58379367 2.211663433e-19)
(107.4085057 -20.10768877 -4.254617549e-19)
(107.3067499 -14.21466296 2.872857091e-19)
(106.0089397 -10.04520686 2.952373143e-19)
(104.4708132 -7.139814929 -9.658160525e-19)
(103.0308238 -5.161776679 -2.662998954e-19)
(101.5662543 -3.721397626 -6.643895212e-20)
(100.7796581 -2.755997646 0)
(99.91213103 -1.898925285 0)
(99.53131079 -1.285880984 1.180761598e-20)
(99.29174527 -0.7507314144 2.17730393e-21)
(99.16836476 -0.2473378599 -7.055505894e-21)
(96.64906388 -19.91815303 1.69560419e-19)
(102.384084 -16.48139106 0)
(103.5607143 -12.86235908 3.592483831e-19)
(103.2854955 -9.723394748 2.005570748e-19)
(102.4957186 -7.277163468 9.297659525e-19)
(101.5599462 -5.4576892 -8.577967761e-20)
(100.5164164 -4.000320988 -9.211418106e-20)
(99.95035366 -3.003714055 -3.466824281e-20)
(99.26997148 -2.06178844 -1.921496037e-20)
(98.96696487 -1.401189903 1.8918841e-20)
(98.77229871 -0.8206260452 0)
(98.67107176 -0.2703095154 1.890346284e-20)
(98.25456954 -13.08916254 1.73026853e-19)
(100.3986617 -12.71298962 0)
(101.2175622 -10.91690192 -8.77226366e-22)
(101.221015 -8.829047804 0)
(100.8028458 -6.950972728 -2.049560867e-20)
(100.2094018 -5.4300594 -2.45454838e-20)
(99.48662404 -4.064470118 0)
(99.11599716 -3.10661012 0)
(98.60193355 -2.132934638 -3.568104939e-20)
(98.37041975 -1.461095203 1.76065634e-20)
(98.21959251 -0.8583764395 7.375637143e-22)
(98.14004717 -0.2827497489 -1.301460614e-20)
(99.23129506 -10.08170182 1.089735108e-20)
(99.75474563 -10.03924644 2.865130508e-20)
(99.88854806 -9.105856358 -9.27057366e-21)
(99.75317828 -7.766237619 -2.251335953e-19)
(99.44572056 -6.389344942 -7.490288555e-20)
(99.0434096 -5.171788427 0)
(98.54396485 -3.964264548 -3.002026447e-20)
(98.32321165 -3.090387049 4.572066865e-20)
(97.93803015 -2.129623727 1.10854715e-20)
(97.76794802 -1.472445887 1.891416226e-20)
(97.65536878 -0.8673187294 -2.148264109e-20)
(97.59482009 -0.2857170333 0)
(99.78604865 -8.189307245 0)
(99.44698814 -8.183983373 8.286510768e-20)
(99.06964676 -7.623070776 0)
(98.72234968 -6.73900715 -1.093909202e-19)
(98.38879636 -5.752692424 -1.896337031e-21)
(98.07503179 -4.792800611 0)
(97.71902974 -3.764196471 0)
(97.58954634 -2.983864534 0)
(97.30171594 -2.069150125 3.828547875e-20)
(97.18017567 -1.444210421 -3.581283066e-20)
(97.0976899 -0.8522527642 -2.421427935e-21)
(97.05222715 -0.2811535281 2.429562511e-21)
(99.96473469 -6.881297865 -2.443007487e-20)
(99.17478306 -6.833542192 -1.716811637e-21)
(98.48749054 -6.448871102 -2.444182561e-20)
(97.97437802 -5.840466789 3.067761057e-22)
(97.58119987 -5.118379809 0)
(97.28861293 -4.365743919 0)
(97.00489796 -3.499541563 0)
(96.92542125 -2.813672229 0)
(96.70624602 -1.965899109 0)
(96.61996232 -1.384109218 0)
(96.56009183 -0.8194829711 0)
(96.52583718 -0.2714295919 0)
(99.97506195 -5.8703688 -3.822255634e-20)
(98.93792931 -5.79651755 1.633526398e-20)
(98.07072519 -5.517028753 0)
(97.42556567 -5.075188015 0)
(96.96142113 -4.527636809 0)
(96.65237607 -3.930048856 0)
(96.39532322 -3.203868018 0)
(96.33638736 -2.609145861 0)
(96.1592939 -1.837022712 0)
(96.09581077 -1.303452139 0)
(96.05081089 -0.7737474107 0)
(96.02518842 -0.2569022511 0)
(99.99246876 -5.05249166 0)
(98.78017909 -4.979549371 0)
(97.76817178 -4.761100518 0)
(97.01076027 -4.42290586 0)
(96.47628396 -3.995896007 0)
(96.13314013 -3.513737149 0)
(95.87732602 -2.90317103 0)
(95.81881558 -2.390570641 0)
(95.66352604 -1.695570256 0)
(95.61262488 -1.211169348 0)
(95.57605123 -0.7205843467 0)
(95.55580299 -0.2397261084 0)
(99.99073811 -4.387410798 -4.371240435e-35)
(98.65034896 -4.314945588 0)
(97.53139871 -4.136224794 0)
(96.68626813 -3.867486558 0)
(96.08858442 -3.52580194 0)
(95.70546013 -3.13135599 0)
(95.43580505 -2.614294504 0)
(95.3656266 -2.172118578 0)
(95.21789551 -1.550851174 0)
(95.17167376 -1.114127745 0)
(95.13848323 -0.6641215514 0)
(95.12116849 -0.2213830645 0)
(99.96853793 -3.838475002 0)
(98.53660075 -3.765601347 0)
(97.33862535 -3.613970637 0)
(96.42484255 -3.393709733 0)
(95.77260223 -3.113980194 0)
(95.35004408 -2.786702263 0)
(95.05732178 -2.345788203 0)
(94.96894576 -1.962638031 0)
(94.81922661 -1.409331102 0)
(94.77200529 -1.017353607 0)
(94.73854451 -0.6074083594 0)
(94.72228032 -0.2028874019 0)
(99.93326486 -3.37853619 -5.927871516e-35)
(98.43426775 -3.305787418 0)
(97.17675384 -3.173717451 0)
(96.20891425 -2.988575506 0)
(95.51034245 -2.754944675 0)
(95.0508421 -2.479436197 0)
(94.73138432 -2.10080292 0)
(94.62115375 -1.767224381 0)
(94.46336312 -1.275243309 0)
(94.41133998 -0.9242635304 0)
(94.37513683 -0.5525524829 0)
(94.35855268 -0.1849339316 0)
(99.88971673 -2.989369753 0)
(98.34071409 -2.917385797 0)
(97.03755092 -2.800160803 0)
(96.02677833 -2.641351449 0)
(95.2890935 -2.442856202 0)
(94.79593551 -2.207863891 0)
(94.44895971 -1.880399014 0)
(94.31537758 -1.588500566 0)
(94.14588238 -1.151113324 0)
(94.0866826 -0.8370235841 0)
(94.04616177 -0.5009257777 0)
(94.0283021 -0.1679794348 0)
(99.84098864 -2.658058603 2.065766098e-35)
(98.25429819 -2.587356804 0)
(96.91563943 -2.481840948 0)
(95.87045626 -2.343376765 0)
(95.09978989 -2.172257118 0)
(94.57641952 -1.969470219 0)
(94.20258812 -1.684271445 0)
(94.0455711 -1.427464731 0)
(93.86242986 -1.03823953 0)
(93.79470829 -0.7568946834 0)
(93.7489508 -0.4533583357 0)
(93.72918036 -0.1523059842 0)
(99.789091 -2.375039108 0)
(98.17387506 -2.305970728 0)
(96.80732111 -2.209960889 0)
(95.73432103 -2.087612374 0)
(94.93579282 -1.938234953 0)
(94.3855127 -1.761399741 0)
(93.9862002 -1.51132732 0)
(93.80648211 -1.28410107 0)
(93.60887337 -0.9370909539 0)
(93.53200065 -0.6844951708 0)
(93.48055732 -0.4102860208 0)
(93.45848259 -0.1380676507 0)
(99.73536988 -2.133061791 0)
(98.09860003 -2.065839175 0)
(96.70996242 -1.977712083 0)
(95.6143078 -1.868382406 0)
(94.79215707 -1.736540514 0)
(94.21798073 -1.580841295 0)
(93.79486474 -1.360115788 0)
(93.59361034 -1.157829221 0)
(93.38136947 -0.84761012 0)
(93.2951908 -0.6200027459 0)
(93.23793147 -0.371865556 0)
(93.21333325 -0.1253266828 0)
(99.68074427 -1.926503961 0)
(98.02779603 -1.861202544 0)
(96.62159445 -1.779707021 0)
(95.50736108 -1.681048813 0)
(94.66507266 -1.563507963 0)
(94.06966274 -1.425147159 0)
(93.62447254 -1.229018644 0)
(93.40302816 -1.04773537 0)
(93.17637975 -0.7694154891 0)
(93.08103581 -0.5633076008 0)
(93.0180306 -0.3380682795 0)
(92.99080783 -0.114083549 0)
(99.62579422 -1.750978089 0)
(97.96089815 -1.687554329 0)
(96.54070497 -1.611683049 0)
(95.4111279 -1.521851135 0)
(94.55154783 -1.416044315 0)
(93.93720676 -1.29194333 0)
(93.47159491 -1.116441092 0)
(93.2313329 -0.9527844516 0)
(92.99069992 -0.7019698029 0)
(92.88649893 -0.5141370555 0)
(92.81793255 -0.3087576874 0)
(92.78806124 -0.1043023076 0)
(99.57087195 -1.602920336 0)
(97.89740923 -1.541278131 0)
(96.46607588 -1.470198465 0)
(95.32371885 -1.387697216 0)
(94.44914597 -1.29153313 0)
(93.81779964 -1.179121195 0)
(93.33332511 -1.020896221 0)
(93.07553652 -0.8719333774 0)
(92.82136335 -0.6446568864 0)
(92.70869724 -0.472133 0)
(92.63480562 -0.2837366439 0)
(92.60230228 -0.09592520043 0)
(99.51621445 -1.479436328 -3.476943456e-36)
(97.83689835 -1.419457288 0)
(96.39670424 -1.352467201 0)
(95.24358361 -1.276051926 0)
(94.35586224 -1.187799543 0)
(93.70908338 -1.085108167 0)
(93.20710608 -0.9411794919 0)
(92.9329838 -0.8041808175 0)
(92.66583584 -0.5969120706 0)
(92.54511899 -0.4369096655 0)
(92.46615753 -0.2627951758 0)
(92.4310752 -0.08889147271 0)
(99.46197533 -1.37821935 0)
(97.77899043 -1.319763305 0)
(96.33174539 -1.256251576 0)
(95.16941895 -1.184847829 0)
(94.27003374 -1.10301119 0)
(93.60932548 -1.008404783 0)
(93.09054241 -0.8762126517 0)
(92.80129497 -0.7486557708 0)
(92.52116402 -0.5580429626 0)
(92.39279628 -0.408088077 0)
(92.30896825 -0.2456997768 0)
(92.27131242 -0.08312341676 0)
(99.40823447 -1.297436979 0)
(97.72333977 -1.240359203 0)
(96.27044746 -1.179775344 0)
(95.10006356 -1.112414014 0)
(94.19013839 -1.035617676 0)
(93.51664915 -0.9470194954 0)
(92.9817801 -0.8245647006 0)
(92.67821549 -0.7043016413 0)
(92.38705203 -0.5280741676 0)
(92.25145106 -0.3853425153 0)
(92.16300917 -0.2323416239 0)
(92.12294616 -0.0786110864 0)
(99.35505198 -1.235699163 0)
(97.66963924 -1.179881261 0)
(96.21212331 -1.121705266 0)
(95.03446036 -1.057475707 0)
(94.11477332 -0.9844728336 0)
(93.4291153 -0.9002998236 0)
(92.87923662 -0.7854257803 0)
(92.56194636 -0.671342711 0)
(92.25456582 -0.5042996379 0)
(92.11112803 -0.3682759761 0)
(92.01793608 -0.222308793 0)
(91.9750555 -0.07514646666 0)
(99.3025137 -1.192015249 0)
(97.61759093 -1.137375836 0)
(96.15608805 -1.081063648 0)
(94.97160919 -1.019066123 0)
(94.04269978 -0.9487005196 0)
(93.34545572 -0.8675730683 0)
(92.7813244 -0.7583078387 0)
(92.45111639 -0.6487356291 0)
(92.14942925 -0.4925252451 0)
(92.00119429 -0.3577814813 0)
(91.90441739 -0.2164376815 0)
(91.85989944 -0.07325636427 0)
(99.25086905 -1.165781437 0)
(97.56690852 -1.112212802 0)
(96.10166102 -1.057120174 0)
(94.91058718 -0.9964437552 0)
(93.97281454 -0.9276269379 0)
(93.264344 -0.848468916 0)
(92.69078277 -0.7430601826 0)
(92.34970508 -0.6362741431 0)
(91.95675907 -0.4771316413 0)
(91.7948239 -0.3491053885 0)
(91.69114497 -0.2111419603 0)
(91.6429277 -0.07107915696 0)
(102.9195269 -31.36784604 -9.927311334e-19)
(103.8808905 -31.01006298 -1.960065094e-19)
(108.475077 -22.09930687 0)
(95.30920723 -21.00992723 2.035369138e-19)
(102.5831741 -31.21343569 6.219526934e-19)
(96.79419597 -21.282869 0)
(102.620837 -18.65122008 4.316548682e-19)
(107.5127532 -21.81495475 0)
(97.08579849 -13.49771212 2.177662729e-19)
(95.31081807 -20.25761953 3.893432944e-19)
(107.2989847 -26.74395041 0)
(97.39291772 -26.43692462 3.828220038e-20)
(97.88373075 -27.15634363 2.872089252e-20)
(98.8700843 -26.67963308 -2.134177634e-19)
(102.9714759 -23.84479457 4.76355266e-19)
(106.096876 -26.12216495 -2.458218339e-20)
(104.8205715 -32.51253441 0)
(100.1856898 -29.69972356 4.653080129e-19)
(104.9634515 -32.61378926 0)
(106.1061087 -32.43606571 -5.003009562e-19)
(108.4747884 -30.15563786 1.271543629e-18)
(99.56674168 -29.12406254 0)
(97.9496638 -14.14362293 1.170274174e-20)
(100.2144229 -13.93361138 0)
(101.6848753 -17.38659873 2.595927376e-19)
(105.6956877 -28.94018158 0)
(107.7565865 -29.89022915 1.724701427e-18)
(105.8296991 -32.30797646 9.419946266e-19)
(100.2455976 -20.14275104 -1.773447963e-19)
(102.1300539 -22.95201366 3.468745894e-19)
(98.3768681 -26.01117906 1.965744569e-20)
(95.8464162 -16.34836974 2.056513484e-19)
(91.14529728 -29.81710744 1.763351033e-17)
(105.0754364 -32.7064691 1.740114815e-18)
(90.98208039 -24.54377713 0)
(96.21112224 -24.16060206 -5.538780772e-20)
(94.26162859 -30.80791128 1.009887407e-18)
(96.87330911 -31.48715612 8.557601553e-19)
(104.1183824 -32.11378126 8.270779276e-19)
(91.37331703 -30.15175275 4.491271783e-19)
(88.80558348 -29.52329234 -1.962111743e-18)
(94.40707393 -30.91361204 6.490860333e-21)
(91.99755395 -30.36224524 -2.939142149e-18)
(79.56057774 -27.20306142 2.228599295e-18)
(96.31878862 -30.96168058 4.775909834e-19)
(95.09553067 -31.05807399 0)
(96.48390474 -30.24239043 5.783839028e-19)
(96.48210237 -30.84054465 0)
(80.91675403 -27.36491723 -2.064603306e-18)
(87.89811876 -29.3046442 -8.119712765e-18)
(105.1852311 -32.73082561 -5.752284432e-19)
(91.75101876 -30.02418649 3.412845295e-18)
(92.58819815 -30.34675673 3.26669465e-18)
(108.6431203 -21.14354771 5.894823091e-19)
(108.7975124 -15.73536801 -8.169102029e-20)
(103.8287755 -31.99820969 -3.837889558e-19)
(97.34855667 -31.63425971 -4.129061759e-19)
(98.41780409 -31.61467327 -3.763644735e-21)
(100.20804 -31.63993178 -2.678485333e-18)
(104.6876178 -32.60609831 1.296907081e-18)
(107.0703482 -32.77336384 -1.150521418e-18)
(109.0005728 -31.86437647 0)
(82.771661 -28.11331424 2.605205406e-18)
(81.87953284 -27.9524339 0)
(79.03907442 -27.12544679 -1.054204116e-18)
(83.99063789 -28.28106991 -1.084348161e-19)
(82.52631466 -28.04761765 -3.401909611e-19)
(95.9739964 -29.06331133 -3.766148266e-20)
(96.37301212 -30.0343604 3.440304816e-19)
(94.68206836 -30.2949177 -9.160993173e-18)
(95.64738386 -30.71329261 0)
(94.27921855 -30.37077962 1.289268277e-18)
(89.9317983 -29.7610097 0)
(85.30315672 -28.70216211 0)
(85.90156135 -28.85289826 0)
(88.57471811 -29.51963932 1.000269442e-18)
(93.48049307 -30.71467956 -1.354304634e-18)
(86.81532482 -29.06662524 2.739413643e-19)
(88.58468408 -29.51223315 -3.44665389e-19)
(85.80078002 -28.79650809 1.912671469e-18)
(85.30474667 -28.76598287 0)
(92.59048028 -30.58862051 7.034556227e-19)
(86.83079573 -29.03352122 2.506304653e-19)
(85.7320861 -28.70153103 -1.195884565e-19)
(79.85631795 -27.28249622 -1.31049588e-18)
(82.36199441 -27.65737813 -3.904445912e-19)
(88.62225681 -29.23910897 3.630570131e-19)
(87.78840791 -29.12155008 0)
(91.62101073 -30.02247336 -2.597223573e-18)
(97.50975599 -31.40830726 0)
(96.99075403 -31.16275203 8.591798426e-21)
(98.77601243 -31.80046055 -4.78671717e-19)
(98.0020253 -31.65917391 0)
(91.1253508 -30.02901729 4.269400908e-18)
(108.4568971 -14.34861914 0)
(107.2222641 -10.92155 -6.26551731e-19)
(106.7738126 -9.978310136 3.31251561e-19)
(105.4252117 -7.643631281 -1.514431975e-19)
(104.9921418 -7.006534442 7.734209636e-20)
(103.7752022 -5.440864068 -3.552959917e-20)
(101.168617 -29.13481627 -9.395040761e-19)
(103.1927743 -27.25869685 5.521024261e-19)
(105.0396669 -28.56153213 0)
(103.3133372 -17.49953 -1.5175431e-18)
(104.3093055 -14.27997393 -2.637416338e-20)
(107.5207038 -15.52104295 5.565618749e-19)
(104.3566965 -13.28962166 4.10303772e-19)
(104.0869964 -10.64609705 -4.559560042e-19)
(106.3794996 -10.95372715 3.109350506e-19)
(103.9067345 -9.87504484 -2.313749983e-19)
(103.2235847 -7.868725051 8.083392319e-19)
(104.8526113 -7.767774113 -1.443615491e-19)
(102.9672717 -7.295411747 -9.32271011e-19)
(102.1833966 -5.830315715 3.013348864e-20)
(103.3759043 -5.582501968 0)
(96.95294919 -16.59079942 1.491071685e-19)
(99.12677559 -16.671101 1.364618026e-19)
(99.85391934 -19.19887356 -1.258395708e-21)
(100.7049079 -13.55452778 0)
(101.5696372 -11.99400671 1.211994978e-19)
(103.4675798 -13.74270024 -3.005047413e-20)
(101.6889322 -11.40508591 -1.201612479e-19)
(101.7399556 -9.645559657 3.84787512e-20)
(103.4249868 -10.44458085 6.346820491e-19)
(101.6764327 -9.081411968 0)
(101.339436 -7.529959722 3.632493293e-21)
(102.7132827 -7.823134559 -1.81590843e-18)
(101.1942414 -7.062939066 1.820690753e-19)
(100.7038037 -5.826774523 0)
(101.7977087 -5.860724748 0)
(98.43519342 -10.27025002 -4.127740362e-19)
(97.18986723 -12.38256429 -4.461555664e-19)
(99.01366203 -10.69828877 1.759207294e-19)
(99.69655779 -10.74634047 -1.218059865e-20)
(99.99922563 -12.99783577 0)
(99.8603522 -10.6151246 5.227216936e-20)
(100.1301585 -9.861198205 7.521594733e-20)
(101.1140592 -11.42689723 -5.371240857e-20)
(100.1560591 -9.531220274 -1.104314945e-20)
(100.1191151 -8.42045741 4.635703493e-19)
(101.2725926 -9.343591286 0)
(100.0733734 -8.032454382 -2.407571606e-19)
(99.84972625 -6.898963056 -1.486167577e-19)
(100.9310639 -7.389832842 -8.578053615e-20)
(99.75437379 -6.541584788 1.502439291e-19)
(99.42539166 -5.552345143 0)
(100.3631936 -5.776745554 0)
(99.66201813 -8.471330445 -2.896269391e-19)
(98.79229915 -9.759870865 1.504056378e-19)
(99.68977078 -8.592822952 3.992027502e-19)
(99.56114945 -8.650891814 -3.503740603e-20)
(99.65629976 -10.14027191 0)
(99.51805093 -8.591058784 3.479914376e-20)
(99.31928406 -8.163610161 1.793061243e-19)
(99.88917132 -9.394944858 0)
(99.24592289 -7.962214315 0)
(99.02479889 -7.247500817 -1.593633585e-20)
(99.80453216 -8.1179817 2.070810971e-19)
(98.94911505 -6.986078452 4.843812777e-19)
(98.71054392 -6.180759121 0)
(99.53556982 -6.722006723 4.104199919e-19)
(98.62713633 -5.914078778 3.388435375e-20)
(98.37637638 -5.139284004 0)
(99.14229553 -5.457399186 0)
(100.2109943 -7.089120442 5.384024041e-19)
(99.86869495 -8.093105557 9.7622902e-21)
(99.94417211 -7.172636601 -2.760509575e-19)
(99.41601495 -7.185103519 0)
(99.53351737 -8.23865485 -1.503876952e-20)
(99.24285543 -7.135563779 -7.010449282e-21)
(98.75935623 -6.850315177 1.090451339e-21)
(99.16335223 -7.803508515 1.718181892e-19)
(98.61692105 -6.71720355 -1.377174394e-21)
(98.24725529 -6.233111925 -1.386399951e-19)
(98.80646851 -6.977183376 -2.593538401e-19)
(98.13983825 -6.051604703 0)
(97.85005462 -5.473392407 0)
(98.47263327 -5.999929652 1.37371229e-20)
(97.7629285 -5.273855312 0)
(97.53378036 -4.671270519 0)
(98.14788186 -5.025044881 0)
(100.2805125 -6.048183198 -3.454676458e-21)
(100.252151 -6.800266981 6.455616997e-20)
(99.97686764 -6.103063737 -4.475572627e-21)
(99.22483407 -6.076125936 -8.289782851e-21)
(99.36862413 -6.880867411 0)
(98.99034566 -6.032284461 3.398593783e-20)
(98.34574576 -5.825172583 0)
(98.642642 -6.570108101 2.032688142e-20)
(98.16073649 -5.731151349 5.297176401e-21)
(97.68391812 -5.387124104 0)
(98.08873759 -6.007010696 0)
(97.54801019 -5.25531163 0)
(97.19973528 -4.823116729 0)
(97.67045114 -5.304756886 0)
(97.10199179 -4.670121557 0)
(96.86171134 -4.196695793 0)
(97.35142818 -4.551590576 0)
(100.3047 -5.224029894 0)
(100.28123 -5.826766533 3.537294769e-20)
(99.98895492 -5.241514873 0)
(99.09601681 -5.201766991 0)
(99.18466152 -5.837999441 9.037991572e-23)
(98.81611706 -5.167721295 0)
(98.05783238 -5.0075602 0)
(98.26569245 -5.604198417 0)
(97.83650265 -4.936469362 0)
(97.26589216 -4.676565091 0)
(97.56822258 -5.197867991 0)
(97.10463986 -4.576264282 0)
(96.69846763 -4.242895826 0)
(97.06242339 -4.671277495 0)
(96.5872102 -4.123015186 0)
(96.32088225 -3.745249859 0)
(96.71555592 -4.080537455 0)
(100.329218 -4.538730136 0)
(100.31305 -5.039578389 0)
(99.99344326 -4.541430135 0)
(98.99351313 -4.49863174 0)
(99.06917776 -5.012259808 0)
(98.6810457 -4.469060441 0)
(97.83414693 -4.338351523 0)
(97.99703329 -4.827954274 0)
(97.58580392 -4.281867736 0)
(96.94272196 -4.077136054 0)
(97.17763357 -4.517113602 0)
(96.76061735 -3.998124955 0)
(96.30278761 -3.733689775 0)
(96.5909973 -4.109079922 0)
(96.1779358 -3.637670067 0)
(95.88024483 -3.33124509 0)
(96.20236149 -3.637476726 0)
(100.3273202 -3.971657101 3.768672607e-35)
(100.330886 -4.387186116 4.379421023e-35)
(99.97554785 -3.966494041 -3.761647278e-35)
(98.89998506 -3.92042622 0)
(98.96945183 -4.343709687 0)
(98.56383104 -3.893691481 0)
(97.65203275 -3.78274216 0)
(97.78533655 -4.189884826 0)
(97.38351307 -3.736143925 0)
(96.68436472 -3.569340194 0)
(96.8729396 -3.942278865 0)
(96.4853679 -3.50524855 0)
(95.98331925 -3.290246381 0)
(96.21668777 -3.616933576 0)
(95.84596256 -3.211757295 0)
(95.51694052 -2.959189101 0)
(95.7829477 -3.23387792 0)
(100.3071486 -3.495484676 0)
(100.323703 -3.844916662 0)
(99.94301013 -3.4862833 0)
(98.81263194 -3.438054637 0)
(98.8776281 -3.791756592 0)
(98.45894707 -3.413440749 0)
(97.49867181 -3.316585573 0)
(97.61136806 -3.658597307 0)
(97.21483522 -3.277005356 0)
(96.47198052 -3.137334547 0)
(96.62752661 -3.454779525 0)
(96.25934749 -3.084048391 0)
(95.72007124 -2.905437855 0)
(95.91286516 -3.188835055 0)
(95.57163901 -2.840077435 0)
(95.2133611 -2.628607713 0)
(95.43603963 -2.872353332 0)
(100.2749466 -3.092079285 -5.174982712e-35)
(100.3000371 -3.38838898 5.938898672e-35)
(99.90118811 -3.080798926 5.165399957e-35)
(98.73029887 -3.031455267 0)
(98.79160822 -3.32993965 0)
(98.3633796 -3.008569053 0)
(97.36620324 -2.922342107 0)
(97.46382971 -3.211854917 0)
(97.07055498 -2.887974357 0)
(96.29329328 -2.768447838 0)
(96.42452625 -3.039628444 0)
(96.06962782 -2.723230642 0)
(95.49918037 -2.572101275 0)
(95.66131644 -2.817546005 0)
(95.34110434 -2.516782533 0)
(94.95632724 -2.337219787 0)
(95.14517913 -2.551877929 0)
(100.2348231 -2.748460568 0)
(100.2655319 -3.000997884 0)
(99.85353189 -2.736030866 0)
(98.65235799 -2.686385516 0)
(98.71042151 -2.939883636 0)
(98.27530165 -2.664969356 0)
(97.24960174 -2.587109726 0)
(97.33572012 -2.833429267 0)
(96.94472013 -2.556761647 0)
(96.14009329 -2.452685532 0)
(96.25286125 -2.68486997 0)
(95.90745587 -2.413663288 0)
(95.31092335 -2.283780072 0)
(95.44936928 -2.496036623 0)
(95.14451743 -2.236296974 0)
(94.73609469 -2.081915116 0)
(94.89814678 -2.269856889 0)
(100.1895069 -2.454851841 -1.814814111e-35)
(100.2238982 -2.670698214 -2.069579922e-35)
(99.80228039 -2.441693043 1.811479267e-35)
(98.57836034 -2.392329124 0)
(98.63350444 -2.608437227 0)
(98.19346838 -2.372191403 0)
(97.14546392 -2.301130241 0)
(97.22250671 -2.511323935 0)
(96.83328339 -2.273975625 0)
(96.00668546 -2.18207492 0)
(96.10506768 -2.381073575 0)
(95.76670437 -2.147924931 0)
(95.14829349 -2.034812598 0)
(95.26809144 -2.218051782 0)
(94.97471187 -1.993553178 0)
(94.54534597 -1.859341657 0)
(94.68589201 -2.023084168 0)
(100.1408221 -2.203702498 0)
(100.177594 -2.388341593 0)
(99.74891442 -2.190040163 0)
(98.50795007 -2.141354781 0)
(98.56043449 -2.325813777 0)
(98.11697535 -2.122343378 0)
(97.05139145 -2.056933439 0)
(97.12108056 -2.236417386 0)
(96.73339134 -2.032374697 0)
(95.889012 -1.950276757 0)
(95.97592466 -2.120705958 0)
(95.64298066 -1.920034581 0)
(95.00614842 -1.820388182 0)
(95.11100736 -1.97814004 0)
(94.82638147 -1.784144056 0)
(94.37851917 -1.666284376 0)
(94.50158893 -1.80821368 0)
(100.0900483 -1.989090447 0)
(100.1282844 -2.146822974 0)
(99.69444989 -1.975083551 0)
(98.44080979 -1.927316066 0)
(98.49087037 -2.084589688 0)
(98.04511162 -1.909302319 0)
(96.96560522 -1.848663589 0)
(97.0292272 -2.001696594 0)
(96.64293416 -1.826251202 0)
(95.7840629 -1.752175169 0)
(95.86168163 -1.897768478 0)
(95.53301312 -1.725114307 0)
(94.88058604 -1.636419965 0)
(94.97333408 -1.771685035 0)
(94.69546952 -1.604260769 0)
(94.23126076 -1.499772179 0)
(94.34002177 -1.622086467 0)
(100.0380311 -1.806396487 0)
(100.0771347 -1.940578325 0)
(99.63954048 -1.792157529 0)
(98.37663199 -1.745404137 0)
(98.42449805 -1.8789854 0)
(97.97728487 -1.728272294 0)
(96.8867361 -1.671696839 0)
(96.94528414 -1.801640769 0)
(96.56029713 -1.651079025 0)
(95.68953547 -1.583638452 0)
(95.75952964 -1.707407784 0)
(95.43429184 -1.559192455 0)
(94.76856899 -1.479476195 0)
(94.85141282 -1.594767272 0)
(94.57879925 -1.450664482 0)
(94.10009437 -1.3571565 0)
(94.19708038 -1.461804926 0)
(99.98530478 -1.651902539 0)
(100.0248996 -1.765259718 0)
(99.58458528 -1.637528218 0)
(98.31511879 -1.591805039 0)
(98.36101556 -1.704482449 0)
(97.91298632 -1.575450897 0)
(96.81369553 -1.52235166 0)
(96.86796779 -1.631898897 0)
(96.48420401 -1.503243568 0)
(95.60361352 -1.441322044 0)
(95.66731148 -1.545718254 0)
(95.34483333 -1.419034748 0)
(94.66767064 -1.346699817 0)
(94.74238691 -1.444117597 0)
(94.47381983 -1.32063485 0)
(93.98217527 -1.236135174 0)
(94.06947632 -1.324816876 0)
(99.93224007 -1.522559679 0)
(99.97205833 -1.617314206 0)
(99.52984378 -1.508137817 0)
(98.25598494 -1.463424083 0)
(98.30012303 -1.5574527 0)
(97.85176764 -1.447755365 0)
(96.74558025 -1.397637937 0)
(96.79623697 -1.488967647 0)
(96.41360205 -1.379803137 0)
(95.52480662 -1.322477728 0)
(95.58329723 -1.409506279 0)
(95.26300944 -1.30197249 0)
(94.57589087 -1.235701764 0)
(94.64394096 -1.316992492 0)
(94.37842274 -1.211888942 0)
(93.87510182 -1.134780014 0)
(93.9544756 -1.208894932 0)
(99.87911218 -1.415943212 0)
(99.91895563 -1.493858279 3.483235186e-36)
(99.47549068 -1.40154393 0)
(98.19897392 -1.357787569 0)
(98.24154321 -1.43496792 0)
(97.79324281 -1.342721057 0)
(96.68163585 -1.29515727 0)
(96.72923057 -1.370016371 0)
(96.3476138 -1.278393293 0)
(95.45187425 -1.224875468 0)
(95.50606761 -1.296163549 0)
(95.18746575 -1.205830754 0)
(94.49157675 -1.144502168 0)
(94.55417192 -1.211116514 0)
(94.29087619 -1.122522777 0)
(93.77701058 -1.0514608 0)
(93.84980604 -1.112238396 0)
(99.82610744 -1.33012424 0)
(99.86584363 -1.392604322 0)
(99.42161932 -1.315799325 0)
(98.14383666 -1.272930456 0)
(98.18502348 -1.334691569 0)
(97.73705771 -1.258389646 0)
(96.62119605 -1.212996637 0)
(96.66622197 -1.272776687 0)
(96.28546644 -1.197123119 0)
(95.38372563 -1.146709821 0)
(95.43442893 -1.20357335 0)
(95.11701025 -1.128838117 0)
(94.41326173 -1.071437409 0)
(94.47149077 -1.124593293 0)
(94.2096357 -1.050904161 0)
(93.68619063 -0.9845663076 0)
(93.75369894 -1.033215507 0)
(99.7733676 -1.263618326 1.366013923e-35)
(99.81289308 -1.311736716 0)
(99.36829188 -1.249408909 -1.363556928e-35)
(98.0903524 -1.207367661 0)
(98.13031888 -1.254779475 0)
(97.6828977 -1.193284948 0)
(96.56366088 -1.149707819 0)
(96.60656296 -1.195452842 0)
(96.22646261 -1.134555873 0)
(95.31937516 -1.086591852 0)
(95.36731928 -1.130034697 0)
(95.0505648 -1.069627379 0)
(94.33959746 -1.015225689 0)
(94.3944596 -1.055846508 0)
(94.13325925 -0.9957868281 0)
(93.60080246 -0.9330079514 0)
(93.66439467 -0.970220775 0)
(99.7210218 -1.215328118 -4.526241912e-36)
(99.76023799 -1.249873095 0)
(99.31557981 -1.201281732 4.51811039e-36)
(98.03832376 -1.16004406 0)
(98.07721613 -1.193859339 0)
(97.63046464 -1.146355433 0)
(96.50844069 -1.104234107 0)
(96.54966242 -1.136703137 0)
(96.16992018 -1.08963262 0)
(95.25788621 -1.043473141 0)
(95.30377078 -1.074253264 0)
(94.98711644 -1.02716227 0)
(94.26936818 -0.9749012661 0)
(94.32176341 -1.003687934 0)
(94.0604731 -0.9562422451 0)
(93.5194666 -0.8960123447 0)
(93.58014136 -0.9223889314 0)
(99.66926517 -1.184535459 0)
(99.70801978 -1.206011028 0)
(99.26361598 -1.170720606 0)
(97.9875442 -1.130277077 0)
(98.02552246 -1.150977291 0)
(97.57943034 -1.116902892 0)
(96.45490354 -1.075814346 0)
(96.49492635 -1.095556033 0)
(96.11512523 -1.061575573 0)
(95.19834303 -1.016558981 0)
(95.24285476 -1.035252628 0)
(94.92569303 -1.000653889 0)
(94.20145311 -0.949720022 0)
(94.25221565 -0.9672113118 0)
(93.99011098 -0.9315481345 0)
(93.44087441 -0.8729281878 0)
(93.49960677 -0.8889187941 0)
(99.61254667 -1.170195092 -4.299901203e-37)
(99.65656759 -1.179527744 0)
(99.20663368 -1.156831733 4.294444273e-37)
(97.93176441 -1.117169918 0)
(97.97508609 -1.12552702 0)
(97.52336884 -1.10397166 0)
(96.39608022 -1.063358002 0)
(96.44175389 -1.071300467 0)
(96.05491561 -1.04927681 0)
(95.13292948 -1.004759113 0)
(95.18370072 -1.01228478 0)
(94.85822738 -0.989031765 0)
(94.12691879 -0.9386624534 0)
(94.18475493 -0.9457203652 0)
(93.9129173 -0.920681585 0)
(93.35473145 -0.8624862677 0)
(93.42154439 -0.8692645206 0)
(103.2219885 -31.62318171 -6.978834155e-19)
(102.3457566 -31.86890271 3.396846289e-19)
(102.1039931 -31.67283513 0)
(104.6197643 -30.33912506 8.744635238e-19)
(105.33378 -30.71700115 0)
(104.581917 -31.40014488 2.691808031e-19)
(111.6004234 -22.94039224 1.595375035e-18)
(111.4475458 -26.74982906 -1.237856507e-18)
(107.7499463 -25.54180548 0)
(95.93049105 -23.35164623 -4.498856948e-19)
(91.17257444 -23.53924666 0)
(98.62985506 -31.5653013 3.036632367e-19)
(98.68008023 -31.14231645 -2.216341364e-19)
(101.4753011 -30.75641777 -1.513731762e-19)
(98.1980723 -21.00849491 -1.401556127e-19)
(98.65013663 -22.24659389 3.395267971e-20)
(96.89871036 -23.17429244 3.459040366e-19)
(104.3322791 -19.831655 -3.723148325e-19)
(102.868292 -22.12193896 0)
(100.9806523 -19.65265032 0)
(106.618723 -24.9889804 -4.576771014e-19)
(103.6804689 -22.9146215 3.273947773e-19)
(105.0629049 -20.27856936 0)
(96.18020154 -15.48768036 -2.015360807e-19)
(95.13234604 -18.5027491 4.8242111e-19)
(108.5544539 -27.29102388 0)
(108.1363327 -29.18390019 5.493285106e-19)
(106.1380342 -28.2759951 -4.278646945e-19)
(108.8292079 -29.41948454 -1.216770008e-18)
(109.6254697 -27.26513712 1.243220178e-18)
(107.3271064 -32.85677444 6.37545594e-19)
(108.6486001 -32.73071087 0)
(96.15995763 -26.82652142 0)
(95.73338005 -26.04048595 1.842661174e-19)
(96.94647986 -25.70472087 -1.383868158e-19)
(98.41395917 -27.84822577 9.619872686e-21)
(97.10817834 -28.30344791 -6.444109589e-20)
(96.62207203 -27.57831238 0)
(101.009551 -25.23375666 1.640738063e-19)
(102.6103067 -26.8468484 0)
(100.5472523 -28.56824565 2.178387911e-19)
(103.9156008 -24.6834108 6.15000076e-19)
(103.0994585 -25.7238741 -2.367770567e-19)
(102.0895188 -24.78732657 -7.375630892e-19)
(105.5188007 -27.93333073 8.182923741e-19)
(104.2225507 -26.59395566 -1.034347359e-19)
(104.9605961 -25.44443249 -4.356969964e-19)
(102.9647584 -32.49635841 0)
(103.0435183 -32.46860675 4.550056469e-19)
(104.6285003 -32.40327349 -1.358937811e-18)
(89.68058336 -29.29055974 0)
(89.18742041 -29.31817388 -3.098643395e-19)
(82.94727691 -27.75383938 3.237979207e-19)
(100.8288549 -30.25014388 0)
(98.57940212 -30.95863245 0)
(98.01428933 -30.23719764 -1.339901341e-19)
(105.0877445 -32.70223532 1.047306505e-18)
(102.5324521 -32.52852274 4.965029093e-20)
(102.7658151 -32.50857498 9.966059891e-19)
(107.5228029 -31.65439373 6.663527581e-19)
(108.2609717 -31.90273233 -1.972129873e-18)
(106.8859079 -32.72208864 -1.655320861e-18)
(109.2076013 -30.39757271 -1.315203835e-18)
(108.8110439 -31.16400543 1.326223585e-18)
(108.0674755 -30.91287829 5.933778956e-19)
(109.5585325 -31.3878665 0)
(109.9458232 -30.61436699 -4.482899122e-20)
(98.14468175 -29.64067511 0)
(97.62090496 -29.00007264 -3.198161761e-19)
(98.9750213 -28.50906819 2.355473897e-19)
(90.80828487 -29.09717298 0)
(90.25048037 -29.18642518 -9.237933203e-20)
(94.67223635 -27.90586268 -1.290727092e-20)
(95.7571011 -28.77449173 0)
(98.90991771 -14.30321247 0)
(98.84164312 -15.57645975 -6.096637439e-20)
(97.12890251 -15.74971931 -5.019500109e-19)
(100.5314632 -14.9830183 2.007176282e-19)
(99.81068182 -15.38054848 5.620556709e-21)
(99.63739509 -14.2004793 -5.623166048e-21)