/*--------------------------------*- C++ -*----------------------------------*\
| =========                 |                                                 |
| \\      /  F ield         | OpenFOAM: The Open Source CFD Toolbox           |
|  \\    /   O peration     | Version:  v2012                                 |
|   \\  /    A nd           | Website:  www.openfoam.com                      |
|    \\/     M anipulation  |                                                 |
\*---------------------------------------------------------------------------*/
FoamFile
{
    version     2.0;
    format      ascii;
    class       pointVectorField;
    location    "2.39";
    object      pointDisplacement;
}
// * * * * * * * * * * * * * * * * * * * * * * * * * * * * * * * * * * * * * //

dimensions      [0 1 0 0 0 0 0];


internalField   nonuniform List<vector> 
6506
(
(0 0 0)
(0 0 0)
(0 0 0)
(0 0 0)
(0 0 0)
(0 0 0)
(0 0 0)
(0 0 0)
(0 0 0)
(0 0 0)
(0 0 0)
(0 0 0)
(0 0 0)
(0 0 0)
(0 0 0)
(0 0 0)
(0 0 0)
(0 0 0)
(0 0 0)
(0 0 0)
(0 0 0)
(0 0 0)
(0 0 0)
(0 0 0)
(0 0 0)
(0 0 0)
(0 0 0)
(0 0 0)
(0 0 0)
(0 0 0)
(0 0 0)
(0 0 0)
(0 0 0)
(0 0 0)
(0 0 0)
(0 0 0)
(0 0 0)
(0 0 0)
(0 0 0)
(0 0 0)
(0 0 0)
(0 0 0)
(0 0 0)
(0 0 0)
(0 0 0)
(0 0 0)
(0 0 0)
(0 0 0)
(0 0 0)
(0 0 0)
(0 0 0)
(0 0 0)
(0 0 0)
(0 0 0)
(0 0 0)
(0 0 0)
(0 0 0)
(0 0 0)
(0 0 0)
(0 0 0)
(0 0 0)
(0 0 0)
(0 0 0)
(0 0 0)
(0 0 0)
(0 0 0)
(0 0 0)
(0 0 0)
(0 0 0)
(0 0 0)
(0 0 0)
(0 0 0)
(0 0 0)
(0 0 0)
(0 0 0)
(0 0 0)
(0 0 0)
(0 0 0)
(-6.661141139e-07 2.382655218e-08 2.775557562e-17)
(0 0 0)
(0 0 0)
(0 0 0)
(0 0 0)
(0 0 0)
(0 0 0)
(0 0 0)
(0 0 0)
(0 0 0)
(0 0 0)
(0 0 0)
(0 0 0)
(0 0 0)
(0 0 0)
(0 0 0)
(0 0 0)
(0 0 0)
(0 0 0)
(0 0 0)
(0 0 0)
(0 0 0)
(0 0 0)
(0 0 0)
(0 0 0)
(0 0 0)
(0 0 0)
(0 0 0)
(0 0 0)
(-4.149788483e-05 -1.237226726e-05 4.996003611e-16)
(-0.0002387861063 -7.753029756e-05 3.080868893e-15)
(-3.122953249e-06 -7.529807542e-07 2.775557562e-17)
(-0.000453173813 -0.0001493232249 8.007483565e-15)
(-0.001124291935 -0.0004994829492 1.992850329e-14)
(-0.001333039686 -0.0006758934784 2.700617507e-14)
(-0.0006224880894 -0.0002338450707 1.257327575e-14)
(-0.0007554925761 -0.0004922238195 2.647881914e-14)
(-0.001320251057 -0.001167163326 4.664324482e-14)
(-0.001097932315 -0.001290290758 5.154210392e-14)
(-0.0006491707092 -0.0005602522378 3.012867733e-14)
(0 0 0)
(0 0 0)
(0 0 0)
(0 0 0)
(0 0 0)
(0 0 0)
(0 0 0)
(0 0 0)
(0 0 0)
(0 0 0)
(0 0 0)
(0 0 0)
(0 0 0)
(0 0 0)
(0 0 0)
(0 0 0)
(0 0 0)
(0 0 0)
(0 0 0)
(0 0 0)
(0 0 0)
(0 0 0)
(-0.0001158963564 -5.283029072e-05 1.026956298e-15)
(-0.0006329778562 -0.0003074099108 6.022959909e-15)
(-0.000149965718 -6.360842808e-05 1.415534356e-15)
(-0.002136884733 -0.001128876925 2.539635169e-14)
(-0.003415074594 -0.002066795696 4.064804049e-14)
(-0.004352015996 -0.002872441233 5.659361868e-14)
(-0.002935205772 -0.001690276399 3.808064974e-14)
(-0.004543497412 -0.003602943933 8.144873664e-14)
(-0.005999385107 -0.005464879818 1.079969447e-13)
(-0.006018254818 -0.006284929842 1.242339565e-13)
(-0.004657984019 -0.004230219786 9.567346915e-14)
(-0.003597712657 -0.005796518089 1.309230502e-13)
(-0.004450579926 -0.008289229856 1.635636071e-13)
(-0.0034799652 -0.008752105153 1.724592691e-13)
(-0.002843705315 -0.006163737651 1.390693116e-13)
(0 0 0)
(0 0 0)
(0 0 0)
(0 0 0)
(0 0 0)
(0 0 0)
(0 0 0)
(0 0 0)
(0 0 0)
(0 0 0)
(0 0 0)
(0 0 0)
(0 0 0)
(0 0 0)
(0 0 0)
(0 0 0)
(0 0 0)
(0 0 0)
(0 0 0)
(-4.986414377e-05 -2.894113309e-05 3.747002708e-16)
(0 0 0)
(-0.002121114545 -0.001333557817 1.892930257e-14)
(-0.003151774408 -0.002161343859 2.808864252e-14)
(-0.004928724392 -0.003602416064 4.693467837e-14)
(-0.003620265792 -0.002425522167 3.44863027e-14)
(-0.008247197891 -0.006901709916 9.869882689e-14)
(-0.01000184102 -0.009144100653 1.198485755e-13)
(-0.01116502198 -0.01115070678 1.463551502e-13)
(-0.009400259162 -0.00859059226 1.230127111e-13)
(-0.01062196044 -0.01346705419 1.932343174e-13)
(-0.01209592086 -0.01677726811 2.205735594e-13)
(-0.01151758392 -0.01836284606 2.4133473e-13)
(-0.01021566545 -0.01488248057 2.135097654e-13)
(-0.006900353156 -0.01812348172 2.592093207e-13)
(-0.007605172057 -0.02189026787 2.867567295e-13)
(-0.005773968354 -0.02263667703 2.960409695e-13)
(-0.005268790464 -0.01883073922 2.688960166e-13)
(0 0 0)
(0 0 0)
(0 0 0)
(0 0 0)
(0 0 0)
(0 0 0)
(0 0 0)
(0 0 0)
(0 0 0)
(0 0 0)
(0 0 0)
(0 0 0)
(0 0 0)
(0 0 0)
(0 0 0)
(0 0 0)
(0 0 0)
(-0.0002304633116 -0.0001591892458 1.637578961e-15)
(-0.0005240904091 -0.0003862128816 3.73312492e-15)
(-0.001861162257 -0.001441830522 1.393329896e-14)
(-0.001251335574 -0.000908754994 9.36750677e-15)
(-0.007345262459 -0.00630781806 6.537825836e-14)
(-0.008688281968 -0.007958447566 7.734091145e-14)
(-0.01119205999 -0.0109236413 1.063593658e-13)
(-0.00970477162 -0.00887979632 9.221789998e-14)
(-0.01527614213 -0.01745242644 1.82340254e-13)
(-0.01686780278 -0.02056714532 2.012001676e-13)
(-0.01775561985 -0.02363612216 2.314953784e-13)
(-0.01623214618 -0.02025065735 2.11969331e-13)
(-0.01595401655 -0.02768043903 2.905453655e-13)
(-0.01694317655 -0.03127959222 3.073374888e-13)
(-0.01560389199 -0.03311427168 3.253231018e-13)
(-0.01474399674 -0.02940379011 3.084754674e-13)
(-0.009158158411 -0.03296315818 3.445993491e-13)
(-0.009477887335 -0.03616608012 3.541333893e-13)
(-0.007055215404 -0.03656589256 3.575056917e-13)
(-0.006857503367 -0.03355115476 3.501782198e-13)
(0 0 0)
(0 0 0)
(0 0 0)
(0 0 0)
(0 0 0)
(0 0 0)
(0 0 0)
(0 0 0)
(0 0 0)
(0 0 0)
(0 0 0)
(0 0 0)
(0 0 0)
(0 0 0)
(-2.193626313e-05 -1.934379663e-05 1.387778781e-16)
(-5.985809423e-07 -5.025540128e-07 0)
(0 0 0)
(-0.001645210778 -0.001440223525 1.171285291e-14)
(-0.002076484465 -0.00191348584 1.476596623e-14)
(-0.004307089201 -0.004171467236 3.225197887e-14)
(-0.003674740533 -0.003381190279 2.751965322e-14)
(-0.01191959586 -0.01296349935 1.060679322e-13)
(-0.01297414508 -0.01485063839 1.154076834e-13)
(-0.01575046379 -0.01920624198 1.495192858e-13)
(-0.01492189767 -0.0172886623 1.417477247e-13)
(-0.02057583628 -0.02976442375 2.449429548e-13)
(-0.02142875814 -0.03260832431 2.547961842e-13)
(-0.02197288153 -0.03648232993 2.85216295e-13)
(-0.02120065877 -0.03347110837 2.755851103e-13)
(-0.01905182857 -0.04147250772 3.412964356e-13)
(-0.01946017718 -0.04449083707 3.474442956e-13)
(-0.0174818895 -0.04568349191 3.564648576e-13)
(-0.01722616332 -0.04290367892 3.529398995e-13)
(-0.009952890654 -0.04374777339 0)
(-0.0101182462 -0.04616611558 0)
(-0.008860029704 -0.04617870217 0)
(-0.007532732339 -0.04613843572 0)
(-0.007439743414 -0.04494160871 0)
(-0.007396416367 -0.04377251199 0)
(0 0 0)
(0 0 0)
(0 0 0)
(0 0 0)
(0 0 0)
(0 0 0)
(0 0 0)
(0 0 0)
(0 0 0)
(0 0 0)
(0 0 0)
(0 0 0)
(0 0 0)
(0 0 0)
(-0.0001976566248 -0.0002077389641 1.276756478e-15)
(-0.0001126390004 -0.0001136146425 7.21644966e-16)
(-9.214852296e-05 -8.905306028e-05 5.967448757e-16)
(-0.002983599638 -0.003163656744 2.121913756e-14)
(-0.003094334413 -0.003424158987 2.199629368e-14)
(-0.005728643266 -0.006661347582 4.285460875e-14)
(-0.005577189743 -0.006214490658 4.173050794e-14)
(-0.01499150093 -0.01972898456 1.331296184e-13)
(-0.01523254833 -0.02091520611 1.351974088e-13)
(-0.01813057244 -0.02650969243 1.715988462e-13)
(-0.01787270306 -0.02504870746 1.692812557e-13)
(-0.0231674553 -0.04045590153 2.741695759e-13)
(-0.02341407777 -0.04263150994 2.766814555e-13)
(-0.02371166407 -0.04705381134 3.054362319e-13)
(-0.02348730711 -0.04471328883 3.031047635e-13)
(-0.0201181485 -0.05252825399 3.555766792e-13)
(-0.02023193243 -0.05500051449 3.564648576e-13)
(-0.01791454594 -0.05551919203 0)
(-0.01784673467 -0.05315183966 3.594208264e-13)
(-0.0103971801 -0.05332738969 0)
(-0.01043681932 -0.05452705825 0)
(-0.009195921817 -0.05455364918 0)
(-0.009156442916 -0.05335586773 0)
(0 0 0)
(0 0 0)
(0 0 0)
(0 0 0)
(0 0 0)
(0 0 0)
(0 0 0)
(0 0 0)
(0 0 0)
(0 0 0)
(0 0 0)
(0 0 0)
(0 0 0)
(0 0 0)
(-0.0003244665319 -0.0003958386934 2.095545959e-15)
(-0.0002930576754 -0.0003451564759 1.90125693e-15)
(-0.0002570944957 -0.0002919437644 1.665334537e-15)
(-0.003676810201 -0.004579528637 2.614575223e-14)
(-0.003802052161 -0.004911578094 2.702005286e-14)
(-0.006630179716 -0.008998973774 4.957145805e-14)
(-0.0064733092 -0.008471549094 4.840572387e-14)
(-0.01618981187 -0.02500222483 1.434546926e-13)
(-0.01638772676 -0.02623986889 1.451200271e-13)
(-0.01926681505 -0.03283243292 1.818128981e-13)
(-0.01907130975 -0.03134981891 1.801059302e-13)
(-0.02412759269 -0.04929253762 2.838146385e-13)
(-0.02428324923 -0.05139478442 2.852024172e-13)
(-0.02445003798 -0.05633200169 3.126249259e-13)
(-0.02431431175 -0.05409046442 3.114591918e-13)
(-0.02049558899 -0.06224573211 3.578387586e-13)
(-0.02056838084 -0.06462264501 3.580608032e-13)
(-0.01816463177 -0.06493507973 0)
(-0.01810373922 -0.06258692627 0)
(-0.01066666147 -0.06278753867 0)
(-0.01069783746 -0.06396241246 0)
(-0.009460224558 -0.06399562366 0)
(-0.009428885312 -0.06282075432 0)
(0 0 0)
(0 0 0)
(0 0 0)
(0 0 0)
(0 0 0)
(0 0 0)
(0 0 0)
(0 0 0)
(0 0 0)
(0 0 0)
(0 0 0)
(0 0 0)
(0 0 0)
(0 0 0)
(-0.0004786385197 -0.0006646431594 3.094746681e-15)
(-0.0004315227292 -0.000581017097 2.789435349e-15)
(-0.0003895734483 -0.0005081211866 2.525757381e-15)
(-0.004113965119 -0.005885060628 2.922662112e-14)
(-0.004240316047 -0.006261548364 3.012867733e-14)
(-0.007173977507 -0.01112775447 5.359601651e-14)
(-0.007018250078 -0.01054658519 5.244416013e-14)
(-0.01687717064 -0.0298916369 1.492000967e-13)
(-0.0170700237 -0.03119620757 1.508237979e-13)
(-0.01994294828 -0.03876334485 1.875999356e-13)
(-0.01975284236 -0.03721489171 1.859623566e-13)
(-0.02468273587 -0.05763794112 2.885608419e-13)
(-0.02483336014 -0.0597857404 2.898653539e-13)
(-0.02493533207 -0.06527336027 3.16482951e-13)
(-0.02480433919 -0.06299769931 3.154143613e-13)
(-0.02077388939 -0.07171964697 3.585187702e-13)
(-0.02084228703 -0.07408832016 3.586853037e-13)
(-0.01840407218 -0.07430803638 0)
(-0.01834460027 -0.07196605289 0)
(-0.01091236011 -0.07216631571 0)
(-0.01094270413 -0.07333663736 0)
(-0.009706770888 -0.07336953051 0)
(-0.009691488554 -0.07278431822 0)
(-0.009676219558 -0.07219959574 0)
(0 0 0)
(0 0 0)
(0 0 0)
(0 0 0)
(0 0 0)
(0 0 0)
(0 0 0)
(0 0 0)
(0 0 0)
(0 0 0)
(0 0 0)
(0 0 0)
(0 0 0)
(0 0 0)
(-0.0006854662082 -0.00106752137 4.440892099e-15)
(-0.0006294370379 -0.0009537167299 4.080069615e-15)
(-0.0005752465684 -0.0008473403253 3.719247132e-15)
(-0.004635504566 -0.007486725149 3.291811268e-14)
(-0.004774779196 -0.007931720251 3.39173134e-14)
(-0.00782586226 -0.01365153824 5.842548667e-14)
(-0.007657049097 -0.01298751716 5.717648577e-14)
(-0.01766112982 -0.03525608951 1.557504126e-13)
(-0.01786521844 -0.03666434269 1.574435027e-13)
(-0.02072416762 -0.04520363059 1.942890293e-13)
(-0.0205241312 -0.04355306017 1.925820614e-13)
(-0.02529000751 -0.0663351832 2.937927679e-13)
(-0.02544537419 -0.06855683301 2.951250355e-13)
(-0.02546416854 -0.07451624415 3.207711874e-13)
(-0.02533055052 -0.07218325404 3.196887199e-13)
(-0.02104204297 -0.08119124493 3.590738817e-13)
(-0.02110668964 -0.0835556852 3.591710263e-13)
(-0.01863960462 -0.08368148068 0)
(-0.01858112967 -0.08133810849 0)
(-0.01115345202 -0.0815379203 0)
(-0.0111831182 -0.08270934964 0)
(-0.009949308882 -0.08274223942 0)
(-0.00993433974 -0.08215652845 0)
(-0.009919319139 -0.08157092781 0)
(0 0 0)
(0 0 0)
(0 0 0)
(0 0 0)
(0 0 0)
(0 0 0)
(0 0 0)
(0 0 0)
(0 0 0)
(0 0 0)
(0 0 0)
(0 0 0)
(0 0 0)
(0 0 0)
(-0.0008663765018 -0.001495363767 5.606626274e-15)
(-0.0008959719081 -0.001508626216 5.800915304e-15)
(-0.0008178824938 -0.001342684644 5.287437155e-15)
(-0.005230197801 -0.009410147624 3.713696017e-14)
(-0.00540831223 -0.009978967669 3.839983886e-14)
(-0.008584992642 -0.01662812879 6.404599073e-14)
(-0.008372961188 -0.0158153522 6.247780071e-14)
(-0.01851674431 -0.04109868275 1.628419621e-13)
(-0.0187645562 -0.04268939414 1.648958747e-13)
(-0.0216005885 -0.0521902476 2.017552792e-13)
(-0.02136018355 -0.0503606331 1.997013666e-13)
(-0.02593103106 -0.07536449424 2.992606163e-13)
(-0.02610925868 -0.07771139403 3.008149285e-13)
(-0.02602742488 -0.08405230234 3.253508574e-13)
(-0.02587798713 -0.08162362235 3.241018565e-13)
(-0.02129459295 -0.09063110278 3.593930709e-13)
(-0.02135532831 -0.09298269156 3.594208264e-13)
(-0.01887163292 -0.09305224285 0)
(-0.01881366259 -0.09070940154 0)
(-0.01138721293 -0.09090830852 0)
(-0.01141584213 -0.09207965717 0)
(-0.01018436553 -0.09211221112 0)
(-0.01016993615 -0.09152632207 0)
(-0.01015546421 -0.09094086987 0)
(-0.009397223572 -0.06164404205 0)
(-0.01063516448 -0.06161087638 0)
(-0.009660950561 -0.07161487325 0)
(-0.009645663781 -0.0710294977 0)
(-0.01088201461 -0.07099593964 0)
(-0.009904302985 -0.08098549043 0)
(-0.009889279421 -0.08039978095 0)
(-0.01112367997 -0.08036660277 0)
(-0.01014099524 -0.09035552652 0)
(-0.01012646888 -0.0897700758 0)
(-0.01135848377 -0.08973728935 0)
(-0.009113607461 -0.05215682375 0)
(-0.01035465848 -0.05212787043 0)
(-0.001040168498 -0.04389897919 0)
(-0.001075433006 -0.04506219573 0)
(-0.01828495917 -0.06962385615 0)
(-0.02070638719 -0.06935603816 3.583799923e-13)
(-0.01211918917 -0.07096263146 0)
(-0.01214937289 -0.07213306639 0)
(-0.01190492743 -0.06275430969 0)
(-0.0119359916 -0.0639290776 0)
(-0.01852237817 -0.07899458045 0)
(-0.02097663698 -0.07882553658 3.589628594e-13)
(-0.01235927927 -0.0803334464 0)
(-0.01238888954 -0.0815048228 0)
(-0.0121795007 -0.07330344839 0)
(-0.01103355299 -0.076850875 0)
(-0.009798384617 -0.07688385624 0)
(-0.009783081536 -0.07629788206 0)
(-0.009767838804 -0.07571212408 0)
(-0.01100333223 -0.07567907952 0)
(-0.006094739224 -0.07698269487 0)
(-0.006087876054 -0.07668965908 0)
(-0.006081972185 -0.07639665163 0)
(-0.006698970102 -0.07638023144 0)
(-0.00671378339 -0.07696621896 0)
(-0.005971867656 -0.0722988893 0)
(-0.00658939594 -0.07228234574 0)
(-0.006605148803 -0.0728668372 0)
(-0.005988049963 -0.07288315122 0)
(-0.005979816828 -0.07259080628 0)
(-0.01875575556 -0.08836688527 0)
(-0.0212313127 -0.08827036684 3.592959263e-13)
(-0.01259261962 -0.08970439069 0)
(-0.01262118699 -0.09087546872 0)
(-0.01241833804 -0.08267625807 0)
(-0.01127147998 -0.08622425409 0)
(-0.01003855029 -0.08625744668 0)
(-0.01002379736 -0.08567167537 0)
(-0.01000898555 -0.08508574227 0)
(-0.01124219327 -0.08505275995 0)
(-0.00634741592 -0.08635572678 0)
(-0.006338042922 -0.08606292272 0)
(-0.006648437487 -0.08605452485 0)
(-0.006656903127 -0.08634740808 0)
(-0.006228166471 -0.0816689361 0)
(-0.006841295505 -0.0816528391 0)
(-0.006856914742 -0.08223842344 0)
(-0.006244276984 -0.08225456152 0)
(-0.006236682087 -0.08196165458 0)
(-0.01264970884 -0.09204687476 0)
(-0.01150090305 -0.09559334442 0)
(-0.01088511032 -0.09560962287 0)
(-0.01087094861 -0.09502356315 0)
(-0.01148679724 -0.09500733764 0)
(-0.006556903905 -0.09572514211 0)
(-0.006555394841 -0.09543152483 0)
(-0.006879069275 -0.09542200287 0)
(-0.006883406291 -0.09571527084 0)
(-0.00645274746 -0.0910394109 0)
(-0.006771678306 -0.09103029042 0)
(-0.006781108714 -0.09132260276 0)
(-0.00646426469 -0.09133155749 0)
(-0.005587339039 -0.05820586682 0)
(-0.005603953356 -0.05879599342 0)
(-0.00498468509 -0.05881203974 0)
(-0.004976369303 -0.05851685959 0)
(-0.004968431964 -0.05822237713 0)
(-0.005717416048 -0.06292067739 0)
(-0.005095787831 -0.06293765937 0)
(-0.00508804454 -0.06264410292 0)
(-0.005081911664 -0.0623496857 0)
(-0.005702006677 -0.06233279993 0)
(-0.005428434829 -0.05342003655 0)
(-0.005452104176 -0.05402384465 0)
(-0.004828569872 -0.05402782947 0)
(-0.004804922806 -0.05342523962 0)
(-0.004951253435 -0.057630131 0)
(-0.005570194728 -0.05761407724 0)
(-0.005963649341 -0.07200708857 0)
(-0.005955795674 -0.07171467884 0)
(-0.006573643078 -0.07169785428 0)
(-0.005847615314 -0.06761397763 0)
(-0.006464271372 -0.06759740336 0)
(-0.006480052392 -0.06818292883 0)
(-0.005863558116 -0.06819944424 0)
(-0.01079032571 -0.06748085349 0)
(-0.01082098185 -0.0686526371 0)
(-0.00958418824 -0.06868593491 0)
(-0.009553370319 -0.06751421016 0)
(-0.005248755864 -0.06821569572 0)
(-0.005240878947 -0.06792323215 0)
(-0.005232143166 -0.06763062859 0)
(-0.005661522071 -0.07230728584 0)
(-0.005653135049 -0.07201548971 0)
(-0.005733348886 -0.06350777812 0)
(-0.005111811219 -0.06352448532 0)
(-0.005102828599 -0.06323101709 0)
(-0.005223868001 -0.06733774017 0)
(-0.00521511988 -0.0670444834 0)
(-0.005831384103 -0.0670279198 0)
(-0.006219818566 -0.08137637643 0)
(-0.006211201516 -0.08108393302 0)
(-0.006825358631 -0.08106759018 0)
(-0.006729099809 -0.07755268293 0)
(-0.006109299669 -0.07756939728 0)
(-0.006100978514 -0.07727601996 0)
(-0.01106373119 -0.07802310733 0)
(-0.009828787913 -0.07805635475 0)
(-0.009813589229 -0.07747021434 0)
(-0.005786203503 -0.07728475496 0)
(-0.005780506946 -0.07699136063 0)
(-0.005923375355 -0.08167690907 0)
(-0.005914136418 -0.08138442813 0)
(-0.005669916017 -0.07259913625 0)
(-0.005775980938 -0.07669815228 0)
(-0.006441856077 -0.09074724727 0)
(-0.006762521487 -0.0907380251 0)
(-0.00666525696 -0.08664018543 0)
(-0.006356781993 -0.08664847657 0)
(-0.01130057971 -0.08739488193 0)
(-0.01006791176 -0.08742768616 0)
(-0.01005329286 -0.08684283705 0)
(-0.006046277104 -0.08665682298 0)
(-0.006035065145 -0.08636428685 0)
(-0.006125670684 -0.0910491889 0)
(-0.006111768796 -0.09075727063 0)
(-0.005932348112 -0.08196961511 0)
(-0.006023854182 -0.0860715873 0)
(-0.006891060054 -0.09600833956 0)
(-0.006565327491 -0.09601808095 0)
(-0.01151500441 -0.09617918794 0)
(-0.01089921169 -0.0961954664 0)
(-0.006233700567 -0.09602836408 0)
(-0.006222848786 -0.09573565475 0)
(-0.006140572447 -0.09134102548 0)
(-0.006224192405 -0.09544179641 0)
(-0.01804205621 -0.06023574447 0)
(-0.02041669928 -0.05985273014 3.575195695e-13)
(-0.01187359667 -0.0615777518 0)
(-0.01163801474 -0.05329849019 0)
(-0.01167706353 -0.0544964767 0)
(-0.01053944125 -0.05807963777 0)
(-0.009300701099 -0.05811145277 0)
(-0.009267035087 -0.05692713774 0)
(-0.01050588171 -0.05689523271 0)
(-0.006188870795 -0.05759788365 0)
(-0.006206018326 -0.05818959146 0)
(-0.006048771736 -0.05340703387 0)
(-0.006072885605 -0.0540125661 0)
(-0.009522421326 -0.06634167205 0)
(-0.01075959737 -0.06630841829 0)
(-0.006448421112 -0.06701133515 0)
(-0.006336631399 -0.06290408788 0)
(-0.006352564238 -0.06349118862 0)
(-0.006320786656 -0.06231622229 0)
(-0.006222578962 -0.05877974675 0)
(-0.01057144079 -0.05925675475 0)
(-0.009333048203 -0.05928933364 0)
(-0.003188288257 -0.06063025991 0)
(-0.003216924912 -0.06092428218 0)
(-0.002942789432 -0.06093142037 0)
(-0.002911435687 -0.06063681855 0)
(-0.002927252235 -0.05343004889 0)
(-0.002945576115 -0.0537419557 0)
(-0.0026321482 -0.05374236002 0)
(-0.002611579143 -0.0534262037 0)
(-0.003023768855 -0.05588582325 0)
(-0.002712530232 -0.05589022482 0)
(-0.002701517167 -0.05558919266 0)
(-0.003017281708 -0.05558519612 0)
(-0.005118238305 -0.04853270713 0)
(-0.005245715306 -0.04978123784 0)
(-0.004611197985 -0.04978109398 0)
(-0.003956673606 -0.04976443204 0)
(-0.003892031483 -0.04914558302 0)
(-0.003828999837 -0.04853627543 0)
(-0.004775701935 -0.05281436324 0)
(-0.005405823009 -0.05282146394 0)
(-0.006547118425 -0.09337979052 0)
(-0.006848575471 -0.09337218065 0)
(-0.006857747109 -0.09366499019 0)
(-0.006558191852 -0.09367243935 0)
(-0.008985179186 -0.09331655864 0)
(-0.008999649643 -0.09390195642 0)
(-0.008387333968 -0.09391792234 0)
(-0.008372647307 -0.09333258491 0)
(-0.009042946244 -0.09565793502 0)
(-0.008430848255 -0.09567389501 0)
(-0.008416361496 -0.0950878986 0)
(-0.00902856981 -0.09507199006 0)
(-0.003088920271 -0.05827077499 0)
(-0.003053145146 -0.05857400708 0)
(-0.002668441528 -0.05865655775 0)
(-0.002807029028 -0.05827469873 0)
(-0.00287850957 -0.06034427463 0)
(-0.003157910064 -0.06033748322 0)
(-0.005654153989 -0.06056550841 0)
(-0.005036121577 -0.06058173893 0)
(-0.005027395299 -0.06028668432 0)
(-0.005018828786 -0.05999249675 0)
(-0.005637448465 -0.05997603239 0)
(-0.003469046243 -0.06032911962 0)
(-0.00349373836 -0.06062248684 0)
(-0.003397384288 -0.05826288172 0)
(-0.003381800788 -0.05856300972 0)
(-0.003128562184 -0.06299994265 0)
(-0.003106410851 -0.0627232805 0)
(-0.003435444638 -0.06269416971 0)
(-0.003431077636 -0.06298860055 0)
(-0.003516787893 -0.06091693356 0)
(-0.005670655164 -0.06115548014 0)
(-0.005053070466 -0.06117235201 0)
(-0.005044782524 -0.06087739439 0)
(-0.005515348368 -0.05582715748 0)
(-0.004895998182 -0.05584179547 0)
(-0.004874844798 -0.05523798096 0)
(-0.005494168299 -0.05522376305 0)
(-0.003331710231 -0.05557813709 0)
(-0.003338664003 -0.05587910006 0)
(-0.003246005606 -0.05344041099 0)
(-0.003259348169 -0.05374278918 0)
(-0.003102894121 -0.0579709359 0)
(-0.003404113506 -0.05796419844 0)
(-0.00334222641 -0.05617932211 0)
(-0.003023191374 -0.05618601643 0)
(-0.005534472351 -0.05642564643 0)
(-0.004915062384 -0.05644068907 0)
(-0.002710076764 -0.05619232624 0)
(-0.002817247283 -0.05797534314 0)
(-0.005908499628 -0.06995782883 0)
(-0.005597360971 -0.06996630143 0)
(-0.005590728339 -0.06967353167 0)
(-0.00590091066 -0.06966513957 0)
(-0.003461597333 -0.06767617357 0)
(-0.00373499268 -0.06766905553 0)
(-0.00375298607 -0.06796102577 0)
(-0.0034806465 -0.06796811506 0)
(-0.005915765031 -0.07025063582 0)
(-0.005604327056 -0.07025911657 0)
(-0.005782510905 -0.06526915211 0)
(-0.005163711124 -0.06528600261 0)
(-0.005154725055 -0.0649922077 0)
(-0.005146362355 -0.06469850474 0)
(-0.005766083826 -0.06468190145 0)
(-0.003304993888 -0.06533743414 0)
(-0.003284917687 -0.06504437692 0)
(-0.003566920549 -0.06503675218 0)
(-0.003586211599 -0.06532977632 0)
(-0.003444872624 -0.06328139312 0)
(-0.003152098237 -0.06328985579 0)
(-0.003442681255 -0.06738411954 0)
(-0.00371698792 -0.06737686776 0)
(-0.003605119731 -0.06562253858 0)
(-0.003324874683 -0.06563011545 0)
(-0.005798862814 -0.06585564235 0)
(-0.005180888759 -0.0658724159 0)
(-0.005172131721 -0.06557943168 0)
(-0.00615979174 -0.07932621472 0)
(-0.005848248881 -0.07933464386 0)
(-0.00583875912 -0.07904195191 0)
(-0.006150752195 -0.07903345604 0)
(-0.006168062945 -0.07961915771 0)
(-0.00585766838 -0.07962755558 0)
(-0.006036859437 -0.07463957879 0)
(-0.005729486263 -0.074647731 0)
(-0.005720976089 -0.07435501237 0)
(-0.00602872329 -0.07434679551 0)
(-0.006045051488 -0.074932415 0)
(-0.005737961306 -0.07494055951 0)
(-0.006417988895 -0.08869577413 0)
(-0.006117135928 -0.08870336755 0)
(-0.006111249381 -0.08841019625 0)
(-0.006411476501 -0.08840261986 0)
(-0.006421576375 -0.08898911697 0)
(-0.006117023231 -0.088997029 0)
(-0.006276234034 -0.08401291846 0)
(-0.005953219097 -0.08402225908 0)
(-0.005949850784 -0.08372896473 0)
(-0.006270370738 -0.08371980098 0)
(-0.006283487557 -0.08430588916 0)
(-0.005959961057 -0.08431524371 0)
(-0.009057374135 -0.09624376965 0)
(-0.008445493832 -0.09625972371 0)
(-0.006248084133 -0.09338717104 0)
(-0.006233024573 -0.09309473968 0)
(-0.006535519588 -0.09308704707 0)
(-0.006262373386 -0.09367951445 0)
(-0.002721177244 -0.05093876863 0)
(-0.00279018195 -0.05156562456 0)
(-0.002135784106 -0.05155060937 0)
(-0.002045500938 -0.05091954567 0)
(-0.002587882407 -0.05310918981 0)
(-0.002904594087 -0.05311317501 0)
(-0.006591079793 -0.08400418153 0)
(-0.006598621749 -0.08429714438 0)
(-0.008747294106 -0.08394671843 0)
(-0.008762432441 -0.08453264263 0)
(-0.008147239836 -0.08454895921 0)
(-0.00813199414 -0.08396309239 0)
(-0.008807570892 -0.0862902594 0)
(-0.00819286808 -0.08630656263 0)
(-0.008177678288 -0.08572074875 0)
(-0.008792544364 -0.08570444107 0)
(-0.008686707093 -0.08160378498 0)
(-0.008701890957 -0.08218938118 0)
(-0.008086264462 -0.08220576403 0)
(-0.008070971754 -0.0816201708 0)
(-0.008116802865 -0.08337722408 0)
(-0.008732211675 -0.08336084716 0)
(-0.006583918787 -0.08371120831 0)
(-0.008926270348 -0.09097325273 0)
(-0.008941014394 -0.09155869751 0)
(-0.008327558831 -0.0915748034 0)
(-0.008312544159 -0.09098942045 0)
(-0.008357670755 -0.09274660184 0)
(-0.008970529163 -0.09273056668 0)
(-0.00683907434 -0.09307927115 0)
(-0.006777057805 -0.07930984168 0)
(-0.006793180173 -0.07989590248 0)
(-0.006176976809 -0.07991230104 0)
(-0.008625621394 -0.07926053835 0)
(-0.008640981861 -0.07984661989 0)
(-0.008024867054 -0.0798630705 0)
(-0.008009397744 -0.07927699192 0)
(-0.008055632035 -0.08103485116 0)
(-0.008671474734 -0.08101840796 0)
(-0.005026002824 -0.08169954812 0)
(-0.005008828721 -0.0814076645 0)
(-0.005308642237 -0.08140009938 0)
(-0.005322287348 -0.08169218802 0)
(-0.004957315327 -0.08053174107 0)
(-0.00526719833 -0.08052335713 0)
(-0.005281022521 -0.08081582213 0)
(-0.004974458745 -0.08082389784 0)
(-0.006194115863 -0.08049849754 0)
(-0.006202634443 -0.08079132486 0)
(-0.005895402764 -0.08079947322 0)
(-0.005886014922 -0.08050672403 0)
(-0.006721997824 -0.08868787691 0)
(-0.006727857159 -0.08898104896 0)
(-0.008867182354 -0.0886313677 0)
(-0.008881770546 -0.08921708904 0)
(-0.00826793996 -0.08923342299 0)
(-0.0082531326 -0.08864765316 0)
(-0.008297588354 -0.09040419927 0)
(-0.008911532229 -0.09038802563 0)
(-0.008822531143 -0.08687564384 0)
(-0.008207991596 -0.08689194263 0)
(-0.008238106072 -0.08806183483 0)
(-0.008852320572 -0.08804559935 0)
(-0.006714889757 -0.08839484779 0)
(-0.006384867437 -0.08752465672 0)
(-0.006080065436 -0.08753262999 0)
(-0.006068755979 -0.08724091344 0)
(-0.006375493904 -0.08723283299 0)
(-0.005171806611 -0.08755589226 0)
(-0.005150140715 -0.0872650568 0)
(-0.005455280129 -0.08725707434 0)
(-0.005473512513 -0.08754822114 0)
(-0.005088085825 -0.08639061859 0)
(-0.005402138512 -0.08638195772 0)
(-0.005419759357 -0.08667404703 0)
(-0.005108691448 -0.0866825177 0)
(-0.005184080016 -0.09107700777 0)
(-0.005159804877 -0.0907857532 0)
(-0.005445159619 -0.09077781934 0)
(-0.005467477066 -0.09106918168 0)
(-0.005088588129 -0.08992926459 0)
(-0.005413993968 -0.0899005249 0)
(-0.005410254831 -0.09019401279 0)
(-0.005111507341 -0.09020492552 0)
(-0.006421558426 -0.08986905781 0)
(-0.006425161262 -0.09016196453 0)
(-0.006092715051 -0.09017216105 0)
(-0.006092519998 -0.08987899814 0)
(-0.006256941618 -0.08284044416 0)
(-0.005950132945 -0.08284852654 0)
(-0.005946763637 -0.08255539561 0)
(-0.006251435026 -0.0825474259 0)
(-0.005060619391 -0.08287057035 0)
(-0.005065755193 -0.08257677212 0)
(-0.005351670913 -0.08257023899 0)
(-0.005347034307 -0.08286396917 0)
(-0.00533520666 -0.0819846232 0)
(-0.005042551566 -0.08199166662 0)
(-0.005067478721 -0.08609866507 0)
(-0.005384536471 -0.08608975898 0)
(-0.005005578254 -0.08522269772 0)
(-0.005331799615 -0.08521310641 0)
(-0.005349330908 -0.08550530708 0)
(-0.005026218011 -0.08551465036 0)
(-0.006309980829 -0.08518440007 0)
(-0.006319306329 -0.08547725988 0)
(-0.006001464909 -0.08548618731 0)
(-0.005990341021 -0.08519348539 0)
(-0.006499897836 -0.09220911151 0)
(-0.006186813853 -0.092217746 0)
(-0.006171331287 -0.09192538062 0)
(-0.006487964549 -0.09191648609 0)
(-0.005284828295 -0.09224198114 0)
(-0.00525964235 -0.09195047907 0)
(-0.005537924749 -0.09194322795 0)
(-0.005561528511 -0.09223482757 0)
(-0.005490751845 -0.09136030009 0)
(-0.00520923433 -0.09136774823 0)
(-0.005485431546 -0.09456732296 0)
(-0.005726916858 -0.09456657451 0)
(-0.005698786922 -0.09486236044 0)
(-0.005510111862 -0.09483525681 0)
(-0.006575137699 -0.0945491407 0)
(-0.00656968477 -0.0948428931 0)
(-0.0062639017 -0.09485083863 0)
(-0.006279943597 -0.09455614433 0)
(-0.00327269936 -0.06180368406 0)
(-0.003025994514 -0.06180495587 0)
(-0.002998288752 -0.06151591874 0)
(-0.003263727139 -0.06150999769 0)
(-0.003243617458 -0.06210151099 0)
(-0.003051317414 -0.06207488731 0)
(-0.002988345196 -0.05466556224 0)
(-0.002677402985 -0.05467084891 0)
(-0.002662769042 -0.05436084745 0)
(-0.002974501418 -0.05435637798 0)
(-0.002034960854 -0.05436408271 0)
(-0.00205925894 -0.05466977994 0)
(-0.001974593488 -0.05340721534 0)
(-0.002001219687 -0.05373180772 0)
(-0.002082280368 -0.05497499454 0)
(-0.001856311197 -0.05494274138 0)
(-0.003000412518 -0.05497570983 0)
(-0.002687968538 -0.05497944711 0)
(-0.003065255516 -0.05946213549 0)
(-0.002776198118 -0.05947049695 0)
(-0.0027394881 -0.05918099701 0)
(-0.003039573899 -0.05916923091 0)
(-0.00309577127 -0.05975436381 0)
(-0.002811288754 -0.05976232839 0)
(-0.003395689637 -0.05945144914 0)
(-0.003418884677 -0.05974463928 0)
(-0.004375861782 -0.05942045565 0)
(-0.004386070803 -0.05971536096 0)
(-0.00406832931 -0.05972455798 0)
(-0.004055733152 -0.05942998998 0)
(-0.004418184646 -0.06059807577 0)
(-0.004109352975 -0.06060626769 0)
(-0.004095684713 -0.0603117289 0)
(-0.004407447736 -0.06030318484 0)
(-0.004346170071 -0.05823848864 0)
(-0.004352267642 -0.05853360938 0)
(-0.004034339255 -0.05854234311 0)
(-0.004031590246 -0.05824579142 0)
(-0.004045278263 -0.05913465568 0)
(-0.00436659576 -0.05912498005 0)
(-0.003377952614 -0.05915729345 0)
(-0.003548723677 -0.06179850952 0)
(-0.003519050062 -0.06209640703 0)
(-0.004449488125 -0.06177643164 0)
(-0.0044508304 -0.06207152394 0)
(-0.004135896085 -0.06208020882 0)
(-0.004141654846 -0.06178448746 0)
(-0.004455059607 -0.06295603284 0)
(-0.004119726578 -0.0629664169 0)
(-0.004119483081 -0.062672275 0)
(-0.004451251987 -0.06266220584 0)
(-0.004428538102 -0.06089368515 0)
(-0.004122244951 -0.06090169902 0)
(-0.004140480256 -0.06149015307 0)
(-0.004445123438 -0.0614823475 0)
(-0.00354969033 -0.06150400789 0)
(-0.003036552379 -0.05708407186 0)
(-0.003362594619 -0.05707390268 0)
(-0.00338039534 -0.05737099758 0)
(-0.003063583146 -0.05737952119 0)
(-0.004312995526 -0.05705082172 0)
(-0.004322325017 -0.05734882807 0)
(-0.004010987881 -0.05735701198 0)
(-0.004000551115 -0.05705894319 0)
(-0.00402752021 -0.05794972774 0)
(-0.004339123878 -0.05794233172 0)
(-0.002708980886 -0.05709568235 0)
(-0.002683948252 -0.05680081037 0)
(-0.00301931732 -0.05678754975 0)
(-0.002749488849 -0.057388254 0)
(-0.003539462774 -0.06884362177 0)
(-0.003801733344 -0.06883756914 0)
(-0.003802604655 -0.06913196625 0)
(-0.003558612914 -0.06913447127 0)
(-0.004657798902 -0.06881741646 0)
(-0.004656619519 -0.06911170603 0)
(-0.004358831965 -0.06911927045 0)
(-0.004364850417 -0.06882468572 0)
(-0.00462824592 -0.06999394396 0)
(-0.00428780915 -0.0700043036 0)
(-0.004309425778 -0.06970972982 0)