/*--------------------------------*- C++ -*----------------------------------*\
| =========                 |                                                 |
| \\      /  F ield         | OpenFOAM: The Open Source CFD Toolbox           |
|  \\    /   O peration     | Version:  v2012                                 |
|   \\  /    A nd           | Website:  www.openfoam.com                      |
|    \\/     M anipulation  |                                                 |
\*---------------------------------------------------------------------------*/
FoamFile
{
    version     2.0;
    format      ascii;
    class       surfaceScalarField;
    location    "1.23";
    object      meshPhi;
}
// * * * * * * * * * * * * * * * * * * * * * * * * * * * * * * * * * * * * * //

dimensions      [0 3 -1 0 0 0 0];
oriented        oriented;


internalField   nonuniform List<scalar> 
6464
(
0
0
0
0
0
0
0
0
0
0
0
0
0
0
0
0
0
0
0
0
0
0
0
0
0
0
0
0
0
0
0
0
1.016844614e-07
0
-1.1045057e-08
-8.642179269e-08
0
0
0
0
0
0
0
0
0
0
0
0
0
0
0
0
0
0
0
0
0
0
0
0
0
0
0
0
0
0
0
0
0
0
0
0
0
1.687319734e-06
1.114544568e-05
-3.162848648e-06
-1.001810625e-05
1.171168523e-05
5.97645306e-06
-2.102722918e-05
-4.759310709e-06
5.583074018e-06
2.000794767e-06
-1.499552416e-05
-1.311087819e-06
0
5.156992058e-08
-3.56087336e-07
0
0
0
0
0
0
0
0
0
0
0
0
0
0
0
0
0
0
0
0
0
0
0
0
0
0
1.193714004e-05
-2.648868214e-05
-1.642547158e-05
3.15003319e-05
6.127008204e-05
-4.096354481e-05
-7.758070736e-05
4.141539449e-05
6.351808481e-05
-3.347205251e-05
-8.410284108e-05
2.827540527e-05
2.593451524e-05
-1.095543986e-05
-4.225368977e-05
6.338737931e-06
0
-1.316135146e-07
-9.627075802e-07
0
0
0
0
0
0
0
0
0
0
0
0
0
0
0
0
0
0
0
0
0
0
3.272461793e-05
-0.0001630706981
-3.811658805e-05
0.0001695139621
0.0001294274463
-0.0001791525244
-0.000146319857
0.0001782258406
0.0001506568342
-0.0001576610645
-0.0001730416428
0.0001438771965
0.0001096189592
-9.797666621e-05
-0.0001307747001
7.394784393e-05
2.664018697e-05
-1.992175313e-05
-4.078093998e-05
9.428140151e-06
0
0
0
0
0
0
0
0
0
0
0
0
0
0
0
0
0
0
0
0
0
4.923278299e-05
-0.0003359614728
-5.035316465e-05
0.0003371707038
0.000193508747
-0.0003453142248
-0.0002044871883
0.0003456085839
0.0002547310486
-0.0003418347816
-0.0002738488746
0.0003229582949
0.0001907056162
-0.0002316613881
-0.0002098389969
0.0001960211252
8.757241468e-05
-8.755620454e-05
-0.0001025434363
5.737326925e-05
-3.605186013e-06
2.871398986e-06
-4.985229167e-06
5.541911716e-08
0
0
0
0
0
0
0
0
0
0
0
0
0
0
0
0
0
-0.0002354101071
2.018933375e-05
-2.029968759e-05
0.000235520461
-0.0002456752237
0.0002352629733
0.0005030399473
-0.0002597848656
-0.0001183481926
-0.0001144946387
-0.0004865151975
0.000312590104
-0.0003255744953
0.0004734156494
0.0002590856436
-0.0003806334604
-0.0002743948459
0.0003379794225
0.0001418007037
-0.0001839518807
-0.0001537351859
0.0001342771168
-2.591485298e-05
2.147611684e-05
-2.750633872e-05
8.102958775e-06
0
0
0
0
0
0
0
0
0
0
0
0
0
0
0
0
0
-0.0003167125327
0.000106777325
-0.0001062965653
0.000316231773
-0.0006362607737
0.0003536499011
-0.0003587553455
0.0006261811858
0.0003050250959
-0.0005210338158
-0.0003102389561
0.0004657934795
0.0001783743573
-0.0002716599811
-0.0001825012766
0.0002073730133
-5.7003813e-05
4.10951571e-05
-4.699525619e-05
2.481361897e-05
0
0
0
0
0
0
0
0
0
0
0
0
0
0
0
0
0
-0.0003882454082
0.0001053222261
-0.0001051162835
0.0003880394657
-0.0007834864858
0.0003672621589
-0.0003686011032
0.0007749945499
0.0003277588045
-0.0006596010771
-0.000331303777
0.0005957347401
0.0001973419641
-0.0003636030288
-0.0002005165082
0.0002836322461
-8.416257707e-05
5.416294725e-05
-5.65060392e-05
4.08283568e-05
0
0
0
0
0
0
0
0
0
0
0
0
0
0
0
0
0
-0.0004597384672
0.0001043377631
-0.0001041391559
0.00045953986
-0.0009252841038
0.0003666528306
-0.0003650247003
0.0009118119288
0.0003291005744
-0.0007666518907
-0.0003276084318
0.0006898897848
0.0001984177471
-0.0004174031268
-0.0001973235266
0.00032526779
-9.646131794e-05
5.489008633e-05
-5.416349611e-05
4.669367531e-05
0
0
0
0
0
0
0
0
0
0
0
0
0
0
0
0
0
-0.0005316871738
0.0001033099988
-0.0001030655038
0.0005314426787
-0.001064265377
0.0003552920235
-0.0003501993492
0.001036553501
0.0003117970127
-0.0008352744446
-0.0003099945539
0.0007494061448
0.0001826180562
-0.0004354136531
-0.0001784920008
0.0003328982459
-8.750756367e-05
4.363001095e-05
-4.118439846e-05
3.768435866e-05
0
0
0
0
0
0
0
0
0
0
0
0
0
0
0
0
0
-0.0006021029172
0.0001019703365
-0.0001018275468
0.0006019601275
-0.001184609439
0.0003345574722
-0.0003278150708
0.001136017492
0.0002873141382
-0.0008841511979
-0.0002728441768
0.0007684745516
0.0001577182518
-0.0004112594515
-0.0001469815787
0.0003021778955
-6.396243829e-05
2.820508589e-05
-2.428229241e-05
2.092358572e-05
0
0
0
0
0
0
0
0
0
0
-9.569600226e-05
0.0003784737019
9.589664321e-05
-0.0001908199466
-0.0001878543963
9.863231772e-05
-0.0003180877761
-9.725707427e-05
-9.399486324e-05
0.0004511586978
9.425319051e-05
-0.0002268168482
-0.0002246001769
-9.503351592e-05
-0.000195631011
-0.0001932768835
-9.319075968e-05
0.0005222078653
9.290313131e-05
-0.0002619883
-0.0002599319369
-9.379864767e-05
-0.0002308140584
-0.0002291206243
-9.135646413e-05
0.000592807353
9.180644582e-05
-0.0005932573347
-0.000531994334
-9.288359945e-05
-0.000602373752
-9.108562927e-05
9.549924466e-06
-9.454657952e-06
0.0003091174724
9.797167544e-05
-0.0003084568301
9.97552369e-05
-0.0002430757591
-0.0001023547015
-1.469585e-05
8.735162756e-05
1.471226868e-05
-8.736804623e-05
0.0001594785521
3.075702633e-05
-0.0001598797562
-3.035582215e-05
0.0003783112265
0.0001054847015
-0.0003422680065
0.0007457565633
0.0003431486
-0.0007468597454
0.0003406447289
-0.000638591277
-0.0003410069088
-1.627896076e-05
0.0001046191217
1.621018563e-05
-0.0001045503466
1.479318464e-05
9.646583159e-05
-9.651290608e-05
-1.474611016e-05
0.0004510138535
0.0001044826073
-0.0003406163311
0.0008909712616
0.0003411676323
-0.0008915644969
-0.0007839530224
-0.0003418850337
-1.426244992e-05
0.0001228417789
1.434108903e-05
-0.000122920418
1.510076987e-05
0.0001140866618
-0.0001137724892
-1.541494243e-05
0.0005221810711
0.0001033367931
-0.0003357471312
0.001029492825
0.0003378420412
-0.001033493309
-0.0009260967355
-0.0003399524088
-2.692051858e-05
0.0002800581742
2.705204355e-05
-0.0002801896992
2.758036416e-05
0.0002649309974
-2.699650747e-05
-0.0001331823748
-0.0001323324792
-0.0001594759141
-4.061846282e-06
0.0001590229817
4.514778748e-06
-2.595794096e-05
0.0003157407632
2.590227213e-05
-0.0003156850943
2.65459126e-05
0.0003001903973
-0.000300208588
-2.652772185e-05
9.589935988e-05
1.48047044e-05
-9.591087965e-05
8.766623288e-05
-8.774939086e-05
-1.461269202e-05
9.648174719e-05
0.0003525701819
-9.611316471e-05
-0.0001779562411
-0.0001749825233
3.192514846e-05
-8.803339298e-05
-3.161009844e-05
0.0001753845758
-1.537925986e-05
9.589377546e-05
1.538484428e-05
0.0001133150447
1.47639341e-05
-0.000112978209
0.0001055825455
-0.000105443257
-1.641824925e-05
4.86238703e-05
0.0002112824204
-0.000211333015
-4.85732757e-05
1.670658736e-05
-1.672974687e-05
0.000105605705
-1.548480275e-05
0.0001135188907
1.528095683e-05
-1.533977212e-05
9.642634385e-05
0.0001046972442
1.662846488e-05
0.0002087078126
4.863048747e-05
-0.0002087144298
0.000262326157
2.754310343e-05
-0.000131427316
-0.0001308615803
0.0001233259902
-0.0001233061427
-1.428229739e-05
9.308254677e-05
0.0004951823201
-9.309342966e-05
-0.0002485235505
-0.0002466478868
3.040266701e-05
-0.000123526457
-3.019364701e-05
0.0002466434272
-3.002584043e-05
0.0002622773294
3.007466804e-05
-1.56846188e-05
0.0001142864778
-0.000122081532
0.0002446182059
1.498542705e-05
1.572234493e-05
0.0004863641414
9.352752141e-05
-0.0002444860578
-0.0002423230583
0.0002981232899
2.659817154e-05
-0.0002981755489
0.0002825293974
-0.0002825418806
-2.690803531e-05
2.514862813e-06
0.000158946186
-0.0001584367904
3.369665179e-06
-0.0001603307165
-0.0003176277809
0.0001589400614
-1.756481788e-05
8.199065599e-05
4.637082231e-06
-6.906292034e-05
8.148905431e-05
1.154911018e-05
-8.258421226e-05
-1.045395222e-05
-4.496304687e-05
0.000137332257
2.007523229e-05
-0.0001124444424
0.0005925770724
0.0001022006171
-0.0003233450361
0.001157569063
0.000327666129
-0.001175954227
-0.001069704403
-0.0003339285545
-4.348187983e-05
0.00015439657
1.607329077e-05
-0.000126987981
-1.605428601e-05
0.0003069777301
1.627289172e-05
-0.0001538627213
-0.0001533336145
8.545094792e-06
0.0001498898127
-0.0001498690279
-8.565879562e-06
3.431407411e-05
-3.29774784e-05
0.0001581419563
-8.64547399e-05
0.0001734618006
3.226971536e-05
0.0003431960315
9.577483592e-05
-0.0001724781561
-0.0001700109641
0.0001495905328
8.669721614e-06
-0.0001497151596
1.025619412e-05
0.0001457698682
-0.000146207201
-9.818861294e-06
9.244472439e-05
0.0005661564235
-0.0005664207309
-9.218041697e-05
2.963822824e-05
-2.951277012e-05
0.0002824039392
-2.916906414e-05
0.000298023556
2.926879804e-05
-2.983790468e-05
0.0002647430616
0.0002800505
2.964590242e-05
0.0005579488109
9.257337989e-05
-0.0005580774664
0.0001345224834
5.339303333e-06
-0.000134537681
-5.324105794e-06
0.0001567730272
3.094461932e-05
-0.0001569606202
0.0002877633899
6.411087045e-05
-0.0001453054537
-0.0001367383416
-3.337441505e-05
-3.645604995e-05
1.109100416e-05
-1.131440652e-05
0.0001347458858
0.000103498544
-0.0001210633618
2.959466687e-05
0.0001676384694
-2.931005128e-05
-8.418895954e-05
-8.373412541e-05
1.181369617e-05
7.323686503e-06
8.436116128e-05
1.125414664e-05
-1.073318271e-05
8.096809037e-05
8.378665896e-05
1.001769319e-05
0.0001647340493
2.905028107e-05
-8.25043671e-05
-8.168529636e-05
1.415949477e-05
0.0001007106548
-0.00010072258
-1.414756959e-05
0.0001003815139
1.422566764e-05
-0.0001004476868
1.409409904e-05
0.0001190676068
-0.0001189959053
-1.416580061e-05
0.0001189042252
1.428625087e-05
-0.000119096377
0.0001401310944
-1.025433057e-05
9.226119452e-06
-0.0001391028833
0.0001400957947
-0.0001782733737
-6.78546783e-06
2.726209238e-05
0.0002732306566
-0.0002732356843
-2.725706469e-05
1.212197766e-05
-1.012945782e-05
0.0001381032749
-1.08322012e-05
0.0001404214071
1.054188852e-05
1.08567207e-05
-2.017747812e-05
0.0001306955647
-0.0001213748073
0.000136540118
1.291411667e-05
0.0002711886383
2.730552152e-05
-0.0001358569347
-0.0001353751327
-1.54130643e-05
0.0003156975005
1.553818748e-05
-0.0003158226237
0.0003091150754
-1.581542059e-05
-0.0001550060756
-0.0001543478652
-0.0001989046037
-2.060797516e-06
0.0001574835214
1.48809159e-05
9.217497337e-05
-9.201114715e-05
-1.504474213e-05
9.135382741e-05
1.491850985e-05
-9.139142136e-05
1.347872144e-05
0.0001099983326
-0.0001099326059
-1.354444818e-05
0.000109571378
1.352457868e-05
-0.0001096172352
-1.450593114e-05
0.0001094854318
1.459187727e-05
-3.835315127e-05
0.0002178093807
3.841392872e-05
-0.0002178701581
3.852411241e-05
0.000211453321
-0.000211481452
-3.849598137e-05
-3.824434875e-05
0.0002268992892
3.826978789e-05
-0.0002269247283
0.0002202512243
-0.000220283468
-3.832090753e-05
-1.4510369e-05
0.0001100027705
-1.495021202e-05
0.0001003280818
1.500364411e-05
-3.859835413e-05
0.0001999269329
3.862193959e-05
-0.0001999505183
3.871583979e-05
0.0001933899449
-0.0001934128848
-3.869289985e-05
0.0002087894884
3.85483164e-05
-0.0002088136924
0.0002021250308
-0.0002021365742
-3.858681073e-05
-1.498429466e-05
0.0001007447375
1.433455682e-05
0.000127733918
-0.0001277869793
-1.428149556e-05
0.0001283062072
8.510920782e-06
-0.0001259604072
0.0001271567014
1.444241542e-05
-0.00012726456
-0.0001408415149
-1.116244421e-05
0.0001411717579
-0.0001455769957
-1.019095253e-05
0.0001452791779
1.048877034e-05
-2.671012041e-05
0.000289302921
2.687531147e-05
-0.000289468112
1.070055278e-05
-0.0001460213543
-0.0001399570454
-1.113880008e-05
1.798720547e-05
-0.0002168918092
0.0003175338623
-0.0003174467527
9.477685828e-05
8.071040186e-06
-0.0001028478985
-8.754960335e-06
0.0001516578906
8.679828977e-06
-0.0001515827593
5.515580576e-06
0.000149805416
-0.0001494465933
-5.874403217e-06
-8.923142376e-05
-1.10323698e-05
-1.287362062e-05
0.0001131374142
0.0001503048727
6.874156328e-06
-0.0001516634485
3.701853357e-06
0.000148699821
-0.0001472103907
-5.191283642e-06
0.0001433267762
2.364716616e-06
-0.000144753644
-2.583506322e-06
1.645657565e-06
8.142069784e-05
1.216612327e-05
-8.203771093e-05
0.0001534253775
2.543949051e-05
-0.0001496608081
-2.92040599e-05
1.286712573e-05
0.0001454377574
-8.419098955e-06
-6.559007966e-06
1.536742497e-05
0.0001023508354
-0.0001018452936
-1.587296684e-05
1.162672413e-05
-1.15645513e-05
9.661682992e-05
-9.667900275e-05
-1.149071263e-05
9.853679239e-05
1.156191586e-05
-9.860799562e-05
-1.453143699e-05
9.829685429e-05
1.460695733e-05
-9.837237463e-05
1.481021031e-05
0.0001210200685
-0.0001209149382
-1.491534063e-05
1.445520525e-05
-0.0001203052973
-1.483795901e-05
0.0001206880511
-1.126343288e-05
-0.0001246398771
0.0001239336885
1.196962153e-05
1.146641801e-05
-1.137571131e-05
0.0001130113138
-0.0001131020205
-2.129355032e-05
0.0001159378017
1.334952627e-05
-0.0001079937777
-1.581785036e-05
0.0001158846749
1.592500494e-05
-0.0001159918294
1.488910778e-05
9.369836784e-05
-9.380818188e-05
-1.477929375e-05
1.277823678e-05
-0.0001137399964
7.13318874e-06
9.382857092e-05
9.588306938e-05
1.097589019e-05
-9.523223543e-05
-1.532905717e-05
9.128784415e-05
1.539504043e-05
-3.878775671e-05
0.0001815091175
3.887322673e-05
-0.0001815945875
3.886588526e-05
0.0001754952447
-0.0001754529045
-3.890822542e-05
0.0001909260734
3.875230432e-05
-0.0001909625379
0.0001844201067
-0.0001844321274
-3.877573597e-05
-1.537766467e-05
9.222358087e-05
1.400730027e-05
0.0001117187527
-0.0001114992448
-1.422680824e-05
1.093042502e-05
-1.12288837e-05
0.0001109757875
-0.0001106773288
0.0001122633131
1.11509213e-05
-0.0001119478164
-1.546197514e-05
0.0001079944741
1.610110698e-05
-0.0001086336059
-0.0001222910995
-1.193936342e-05
0.0001229670301
-0.0001229658387
-1.477160995e-05
0.0001238570056
1.388044301e-05
-1.465874294e-05
0.0001246811204
1.455308881e-05
-0.0001245754662
-3.003100785e-05
-0.000126334664
0.0002532713574
3.025101585e-05
0.0002529778951
-3.763665213e-05
3.779490875e-05
-0.0002531361517
3.79107767e-05
0.0002466311601
-0.0002466435648
-3.7898372e-05
-1.455900362e-05
0.0001185933152
1.486991359e-05
-3.821114612e-05
0.0002358394307
3.819598668e-05
-0.0002358242712
0.0002292299846
-0.0002292740558
-3.820027752e-05
0.0002446561467
3.791136529e-05
-0.0002446567353
0.00023813891
-0.0002383847718
-3.79652843e-05
-1.447593154e-05
0.0001189845348
0.0002912640141
-0.0002913020684
-2.667206607e-05
-9.930588061e-06
0.0001455095037
-1.860572069e-05
-0.0001491286258
0.0002983460481
1.89788311e-05
4.343150707e-05
0.000160459342
-0.0002020939924
-1.796856615e-06
1.016821801e-05
8.385986431e-05
-8.305338249e-05
-1.097469984e-05
1.433836959e-05
-3.023198908e-06
8.34616876e-05
8.285139798e-05
9.500100082e-06
-8.218328005e-05
4.307157559e-06
0.0001306153267
-7.735762655e-06
-0.0001271867216
0.0001337000313
-1.093670879e-05
-0.000118456165
-7.871786556e-06
0.0001541300797
8.029714643e-06
-0.0001542880078
0.0001527227288
-0.0001533778157
-8.09987338e-06
1.704025948e-05
0.0001960401805
-0.00021308044
-2.778150626e-06
1.761307323e-05
6.744606846e-05
-8.543693575e-06
4.650588915e-06
6.944676487e-05
-0.0001453470022
5.211849348e-06
-6.713980092e-06
0.0001468491329
-0.0001502503719
-6.973559271e-06
0.0001487075006
8.516430604e-06
-9.130116646e-06
0.0001474124621
9.433316886e-06
-0.0001477156623
4.367561238e-05
-0.0001902241309
-1.426907658e-05
-4.086639706e-06
-0.0001269912859
0.0001058898998
1.766755643e-05
-0.0001235574562
-1.192355027e-05
8.531215185e-05
1.198967366e-05
-8.537827523e-05
1.1934023e-05
8.363163348e-05
-8.374476769e-05
-1.18208888e-05
-1.174069941e-05
8.714374265e-05
1.241774746e-05
-8.78207907e-05
8.550143739e-05
-8.563319773e-05
-1.179178993e-05
8.275655334e-05
1.254656201e-05
-8.336909235e-05
1.239725576e-05
8.097082445e-05
-8.118598225e-05
-1.218209797e-05
1.189534259e-05
-1.082139135e-05
8.278591307e-05
1.14247716e-05
-1.109469238e-05
0.0001011952762
-0.0001015253554
0.0001211490832
1.791379827e-05
-0.0001390628815
0.0001018736641
1.47562507e-05
-0.0001012624898
9.866560412e-05
-9.876316259e-05
-1.443387851e-05
-1.154805574e-05
9.894224144e-05
-9.888489833e-05
0.0001007037081
1.144685066e-05
-0.0001007257872
-0.0001170643439
1.089765388e-05
-1.183408346e-05
0.0001180007734
-0.0001181558923
0.0001190911747
1.351992284e-05
0.0001201522633
1.471527503e-05
-0.000120057328
-1.281096789e-05
1.102794294e-05
-0.0001163728674
9.430087561e-06
-1.001569469e-05
-0.0001164787367
-9.323941612e-06
9.035112092e-06
-0.0001243510476
-2.120606311e-05
-0.0001119102021
0.0001181180484
7.472371842e-06
-0.0001161603327
0.0001168035689
-0.0001172648463
-1.535657288e-05
-4.369509881e-05
0.0001189061922
-9.650464375e-05
0.0001188845307
1.013117154e-05
1.163060026e-05
0.0001395007159
-0.0001399868151
-1.114450115e-05
0.0001377050114
9.978204014e-06
-0.0001360526151
-1.154888527e-05
0.0001386750491
1.057884748e-05
-1.173126787e-05
0.0001388949683
1.183088921e-05
-0.0001389945896
1.243965641e-05
0.000136348176
-0.0001366777173
-1.211011515e-05
-7.748468885e-06
0.0001344833632
6.965137051e-06
-1.206546315e-05
0.0001338533234
1.21624209e-05
-0.0001339502811
1.224269035e-05
0.0001323361342
-0.0001322123679
-1.236645673e-05
0.0001359035246
1.255533987e-05
-0.0001360192081
0.0001340698933
-0.000133960779
-1.21745774e-05
-9.715750267e-06
0.0001325826081
-0.0001567162625
-6.914676193e-06
0.0001568215801
6.809358573e-06
-6.813232041e-06
0.0001562754558
7.020466191e-06
-0.0001564826899
0.0001548780804
-0.0001552425093
-7.507357711e-06
-9.158269148e-05
1.257943434e-05
-1.279195548e-05
9.179521261e-05
-9.318292569e-05
9.319010794e-05
1.277105453e-05
9.297426973e-05
1.500618372e-05
-9.309134566e-05
-1.893430653e-05
1.178195906e-05
-8.603057821e-05
1.034370577e-05
-1.125654581e-05
-9.066985144e-05
-0.000132674303
-1.277444074e-05
8.859727581e-05
1.236059289e-05
-8.818342795e-05
8.764924347e-05
-8.784924995e-05
-1.154069293e-05
9.111583714e-05
5.816451722e-06
-8.658858309e-05
8.977203631e-05
-8.972929826e-05
-1.281717879e-05
1.47222938e-05
9.008306046e-05
-8.999871096e-05
-1.48066433e-05
1.351314924e-05
-1.332477412e-05
8.958366119e-05
9.11822264e-05
1.251304509e-05
1.098971156e-05
-1.078632961e-05
0.0001097766735
-0.0001099800554
0.0001108496828
1.105760579e-05
-0.0001109768636
0.0001114090047
1.380206294e-05
-0.0001112037674
0.0001086627036
-0.0001095735367
-1.455114201e-05
2.79741286e-06
0.00014166908
-0.0001444664929
0.0001092200574
1.074509204e-05
-0.0001089754378
-1.306795523e-05
0.000129883678
1.367131152e-05
-0.0001304870343
1.15313164e-05
0.0001275699701
-0.0001267578416
-1.234344489e-05
0.0001312463556
1.198884092e-05
-0.0001309925061
0.0001306836072
-0.000131751389
-1.200017336e-05
9.857855773e-06
0.0001705207803
-0.0001803786361
-1.431602806e-05
1.310339735e-05
-0.000121753208
-0.0001209106377
-1.070440343e-05
0.0001283813478
1.206034715e-05
-0.0001289103785
0.0001247083558
-0.0001241054917
-1.491889217e-05
0.0001879043507
-0.0002021734273
1.01212387e-05
0.000143086186
-0.0001427341465
-1.047327825e-05
2.743397736e-06
-8.142919836e-06
0.0001392070866
-0.0001338075645
0.0001484081266
4.470807345e-05
0.000141882293
-1.365540902e-05
-0.0001254834862
0.0001428982646
1.035134263e-05
-0.0001431283686
1.563743679e-05
-0.0001289221922
0.0003095584501
0.0001063363472
0.0006044185036
0.0003369551996
-0.0006060952324
0.0003063205548
-0.0004918592961
-0.0003167918145
3.132937921e-07
-6.136487429e-06
0.0001449412723
-0.0001391180786
-1.656457082e-05
0.0001479873352
-0.0001311094706
-0.001208825722
-0.0003183803196
0.0001923047061
-0.0002088692769
-2.91247219e-05
0.0003001460551
0.000628592778
6.056137666e-05
-0.0003132980867
0.0006281897991
9.09221836e-05
-0.0006282444816
7.342639101e-05
2.272407357e-06
-7.530915626e-05
-3.89642109e-07
-9.310671894e-06
-7.770594052e-05
1.031198099e-05
7.670463142e-05
-8.588976329e-05
8.302536251e-05
-8.167969024e-06
8.290373029e-05
1.610800512e-05
-9.094069522e-05
7.773508168e-05
1.197441608e-05
-7.628430736e-05
-1.34251904e-05
7.392074619e-06
-8.317454813e-06
7.435177121e-05
0.0001015147464
0.0002783414917
-0.0002808793336
-9.897690448e-05
7.570841054e-05
-7.324698248e-05
0.0002853019618
0.0001571380274
3.394907392e-05
8.495130756e-05
1.489828851e-05
-8.483496954e-05
-1.501462652e-05
1.240483492e-05
-1.228731632e-05
8.538391879e-05
-1.290433164e-05
8.733177837e-05
1.271629592e-05
-5.652371034e-06
0.0001582062388
5.800431035e-06
-0.0001583542988
0.0001568600732
-0.0001572433889
-6.429916267e-06
-5.155591228e-06
0.000158700257
-0.0001504234952
-1.85783425e-05
0.0003002859297
-1.84983866e-05
0.0003068381894
1.863792732e-05
-2.622699215e-05
0.0003065293903
2.630401844e-05
-0.0003066064166
-1.297384564e-05
8.771875748e-05
8.882963369e-05
1.328079136e-05
8.932953644e-05
1.466076488e-05
-8.926800752e-05
-8.019542785e-07
-0.0001563287869
-0.0001590174238
3.14289894e-06
0.0001592441901
-4.070005869e-05
1.038813768e-05
-0.0001287055028
-0.0002018327295
0.0001585808737
-0.000158596112
-8.728719337e-06
8.147721371e-05
-6.811141214e-05
1.049463281e-05
0.0001329726372
-0.0001233920378
7.392968074e-06
-7.374249774e-06
0.0001543778517
-0.0001501282928
4.947226532e-06
0.0001525740344
2.052980007e-06
-0.0001361079821
7.019339879e-06
-7.16538973e-06
0.0001499514658
-8.554448452e-06
0.0001517418365
8.470502568e-06
-8.414227644e-06
0.0001516642789
8.362058326e-06
-0.0001516121096
0.0001731116369
3.893723396e-05
-0.0001731829856
3.935841619e-05
0.0001664202053
-0.0001661760393
-3.96025822e-05
3.226979217e-05
-3.176712044e-05
0.0001671357976
0.0001477061688
-0.0001480120544
-8.824231054e-06
-6.900765825e-06
0.0001486270275
0.0001500327191
7.291493502e-06
3.424363425e-05
0.0001483583283
-0.0001510398787
-3.15620839e-05
2.90853606e-05
-2.789247008e-05
0.000152232487
8.02676742e-05
1.240717029e-05
8.378995749e-05
-5.708799766e-06
-7.075747122e-05
1.094776853e-05
-1.126687931e-05
8.410906826e-05
1.11010475e-05
8.420788232e-05
1.885445963e-05
0.0001075641316
-0.0001264185912
8.575103949e-05
1.053513425e-05
-7.743171411e-05
-0.0001405765608
9.34787678e-06
0.0001404548034
-7.037015188e-06
5.931815472e-06
-0.000139471361
-0.0001366485053
-9.491393215e-06
1.160066837e-05
-0.0001898740421
0.0001377211219
-3.928260763e-06
-0.0001221921927
-7.677028617e-06
0.0001386126826
0.0001404102199
-1.150268311e-05
1.153645284e-05
-0.0001404439896
0.0001391586109
-0.0001392190057
-1.167087309e-05
-1.14740785e-05
0.0001394259092
0.0001346055354
-4.441412555e-05
-0.0001103688879
1.286511231e-05
-1.202362104e-05
0.0001337640441
1.184626167e-05
0.0001317144153
0.0001555011263
-0.0001534661582
-4.095765552e-06
5.775568253e-06
-6.277003227e-06
0.0001560025612
0.0001558848399
8.99203932e-06
-1.16035922e-05
0.000124834469
-0.0001222229161
5.652420902e-06
0.0001249947808
-0.0001216551623
1.016250424e-05
0.0001299899646
-0.0001278651862
8.338593985e-06
0.0001296890965
4.979615143e-06
-0.0001243338806
-8.626770461e-06
0.0001282985807
-0.0001140193894
0.0001666307494
-0.0001752575199
0.0001253505751
-0.0001253881727
-1.462114539e-05
-1.510854626e-05
0.0001250452921
-1.275903151e-05
0.0001277876107
1.33527686e-05
-1.342710704e-06
-0.000134136242
1.721747083e-05
-4.404374285e-05
0.0001518733506
-0.0001250470785
0.0001468198803
-0.0001357388969
-3.649867421e-06
2.190609307e-06
0.000147943174
-6.651769145e-06
-7.399892975e-06
0.0001494686638
6.983541426e-06
-8.403662814e-05
6.417946609e-05
1.83049733e-06
0.0001113069169
-0.0001063116126
0.000113295154
-0.0001498612321
7.128311502e-06
0.0001496070769
-4.283186696e-05
1.636280447e-05
-0.0001233921696
-3.17537094e-06
-1.528396039e-05
-0.0001287510594
0.0001461929775
-0.0001330055439
0.0001481300053
1.416985388e-05
7.780174658e-05
-7.890848747e-05
-1.3063113e-05
1.601548482e-05
-1.711869538e-05
7.883829224e-05
8.217420162e-05
1.506789826e-05
7.02367892e-06
-1.181208797e-05
0.0001025592619
-9.777085284e-05
-8.579014083e-06
0.0001012616979
-8.565900493e-05
1.247895134e-05
-1.221723031e-05
0.0001045978148
-0.0001048595358
0.0001035430256
-0.0001028761623
9.725090329e-05
-1.16423237e-05
-9.71731309e-05
1.342901314e-05
-1.342128644e-05
9.724317659e-05
1.348158482e-05
9.656425824e-05
1.333699254e-05
-1.32751873e-05
9.847498715e-05
-9.802505553e-05
9.794076163e-05
-9.810546337e-05
0.0001133483173
-1.172912827e-05
-0.0001129949003
1.39663736e-05
-1.457681576e-05
0.0001139587594
1.364841669e-05
0.0001133292707
1.514895267e-05
-1.528877725e-05
0.0001160776263
-0.0001140560069
0.0001146281438
-0.0001124356089
9.467710198e-05
-6.363295724e-06
-8.118061751e-05
1.335701485e-05
-1.334025888e-05
9.4660346e-05
1.337712279e-05
9.380846298e-05
1.345954853e-05
9.590510566e-05
-9.521158975e-05
9.53308794e-05
-9.059899529e-05
0.0001117224973
-1.114687614e-05
-0.0001118045048
1.281292197e-05
-1.300570301e-05
0.0001119152783
1.257384531e-05
0.0001112148642
1.330449788e-05
0.0001126072319
-0.0001120310753
0.0001123298701
-0.0001120270301
1.262078534e-05
-1.360165968e-05
0.0001062734841
-0.0001052926098
0.0001051376079
-0.0001047340529
2.069394677e-05
-4.211185118e-05
0.0001092975011
-8.787959667e-05
0.0001075691428
-0.0001004768557
-1.988937545e-05
-0.0001367700737
1.695546024e-05
-0.0002190494527
0.0001583076042
-0.0001309640063
0.0001596536466
-0.0002217221049
-1.252933079e-05
-6.953936761e-06
-6.357011493e-05
0.0001031492588
-0.0001156785896
8.344583963e-05
0.0001054910557
-0.0001085142546
1.235062416e-05
7.96784176e-06
8.517258982e-05
8.394158034e-05
1.187073141e-05
1.221795352e-05
9.947280891e-05
-0.0001116907624
8.012708162e-05
-5.994128634e-05
0.0001305948931
-0.0001278360229
0.000173941724
-0.0001848784328
0.0001514333687
-0.0001323401292
3.094913903e-06
0.0001532856813
0.0001550913516
-4.930691657e-06
1.724708053e-05
0.000147844237
-0.0001214157051
-0.0002055080913
0.0001441284322
-0.0001309679914
1.171436979e-05
7.974666497e-06
8.620086349e-05
-8.413476584e-05
8.458225633e-05
-7.217600918e-05
-8.618683829e-05
1.206912475e-05
8.6535461e-05
-1.22637502e-05
1.182795141e-05
7.479590661e-06
4.512402268e-06
8.477851058e-05
-7.87557786e-05
8.566833754e-05
-7.318126877e-05
0.0001010591219
-1.159839975e-05
-0.0001005554145
1.251157973e-05
-1.219296183e-05
0.000100740504
1.284572295e-05
0.0001008611329
1.211910194e-05
0.0001004509672
-0.0001003839531
0.0001003100932
-9.406855454e-05
9.954612096e-05
-1.159528357e-05
-9.949889313e-05
1.320085739e-05
-1.312755789e-05
9.947282146e-05
9.886791153e-05
1.296306286e-05
0.0001005863682
-0.0001002695012
0.0001001050061
-0.0001004179341
0.0001175194856
-0.0001166616206
-1.269194848e-05
1.276952748e-05
0.00011828355
-1.353359184e-05
1.209888499e-05
0.0001186714159
1.06345484e-05
0.0001171727817
-0.0001167793871
-0.0001160427669
-0.0001613827525
4.428187731e-05
0.0001261359873
7.427240788e-06
-0.0001688099933
-6.096188602e-06
-0.0001108276182
0.0001237502547
-0.0001006744405
-5.802520242e-06
0.0001198890949
-0.0001066142028
0.0001546434013
-0.0001604459215
0.0001209034398
-9.955137361e-06
1.43494694e-05
-1.261505222e-05
0.0001191690227
0.0001179668844
1.185284961e-05
0.0001191305661
-0.0001200651291
0.0001193029264
-4.46021844e-05
1.930427637e-05
-0.000114688907
0.000142432015
-0.0001811023839
0.0001406353906
1.273640607e-05
-0.00019383879
3.320633541e-06
-8.635821526e-06
-0.0001313333173
-0.0001234143214
-0.0001348479984
0.0001371491738
-9.076364524e-06
-0.0001296998947
-0.0001258247033
1.020276154e-05
0.0001342072236
-9.92662192e-06
-0.0001364927355
0.000134671876
9.26933633e-05
-1.285365883e-05
-9.263165995e-05
1.359151559e-05
-1.34909753e-05
9.259282301e-05
9.190295629e-05
1.348377191e-05
1.339282032e-05
9.317441041e-05
-9.319466634e-05
9.309651137e-05
-9.327727065e-05
1.120231565e-05
-9.269762724e-05
-9.268589011e-05
-8.752740988e-05
1.190355979e-05
8.798444297e-05
-1.060832824e-05
9.614881975e-06
-8.653396361e-05
-1.201246961e-05
-8.677928659e-05
-4.988374692e-06
-7.53812846e-05
8.74074751e-05
-8.278096781e-05
8.777034195e-05
-7.262552965e-06
9.112728196e-05
-7.804827727e-05
-1.913762558e-05
-8.260414229e-05
0.0001112443887
-0.0001303820143
9.116465696e-05
0.0001097690247
-1.107735857e-05
-0.0001094779958
1.206709139e-05
-1.228272282e-05
0.0001099846561
1.200808961e-05
0.0001098356752
1.243253523e-05
0.0001109909929
-0.0001104170899
0.0001105669024
-0.0001104368427
0.0001106600919
-8.575458189e-06
-9.928722087e-05
1.136792229e-05
-1.126927808e-05
0.0001105614477
0.0001109251511
1.168923064e-05
0.0001095389163
-0.0001091353493
0.0001095553018
-0.0001069657154
2.071346498e-05
-4.450881899e-05
0.0001314708307
-0.0001076754767
0.0001272519479
-0.0001181420752
0.0001308649637
-0.0001160274928
7.616751572e-06
0.0001315868062
0.0001336287129
-0.0001208131508
1.196103369e-05
0.0001219555145
-1.04601058e-05
9.978056327e-06
-0.0001203311014
-1.246396392e-05
-0.0001197493499
-9.094156362e-06
-0.00011791267
0.0001202502288
-0.0001193663288
0.0001215068591
-0.0001305032738
1.396696231e-05
0.0001285966587
-8.780270768e-06
4.490774635e-05
-9.392068598e-06
-2.122907254e-05
-0.0001153403831
0.0001279473914
-0.0001042687176
0.0001269954616
0.0001409410899
-1.875430068e-05
-0.0001303297091
9.099852384e-06
-1.093123655e-05
0.0001427724741
6.61120134e-06
0.0001416957377
1.054112603e-05
0.0001466591008
-8.792100154e-06
-0.0001455773395
0.000145187229
-0.0001196235668
1.894912986e-05
-4.455038e-05
0.0001425650108
-0.0001169637606
0.0001382976081
-0.0001279842997
5.365558139e-06
0.0001431279362
-0.0001842750718
0.0001450902499
-0.0001979304808
0.0001520555876
-0.0001377608615
-8.805679571e-06
2.274540876e-06
-1.207973171e-06
2.209205927e-08
-8.222849715e-06
7.501437291e-07
-5.293189692e-06
-1.06211312e-05
4.800201929e-06
6.381497287e-06
0
9.665885996e-09
-5.237567121e-09
-4.186971765e-06
4.959108146e-06
-1.261905989e-06
-8.291541407e-06
1.953602957e-06
2.126869292e-06
0
0
0
-5.91718438e-07
6.991289248e-07
0
-3.097151259e-08
0
7.506805437e-09
0
0
0
0
0
0
0
0
0
0
0
0
0
0
0
0
0
0
0
0
0
7.79401119e-06
4.964633945e-06
-4.942251319e-06
3.403013235e-06
1.174259137e-05
8.217441236e-06
1.990717748e-05
-5.28140392e-05