/*--------------------------------*- C++ -*----------------------------------*\
| =========                 |                                                 |
| \\      /  F ield         | OpenFOAM: The Open Source CFD Toolbox           |
|  \\    /   O peration     | Version:  v2012                                 |
|   \\  /    A nd           | Website:  www.openfoam.com                      |
|    \\/     M anipulation  |                                                 |
\*---------------------------------------------------------------------------*/
FoamFile
{
    version     2.0;
    format      ascii;
    class       surfaceVectorField;
    location    "1.84";
    object      Uf;
}
// * * * * * * * * * * * * * * * * * * * * * * * * * * * * * * * * * * * * * //

dimensions      [0 1 -1 0 0 0 0];


internalField   nonuniform List<vector> 
6464
(
(99.99088028 0.8483631598 1.601846707e-22)
(99.99946306 0.428659412 0)
(100.0012388 0.4277682963 5.506812727e-22)
(100.0105017 0.8453414519 -9.937100003e-24)
(100.0027423 0.416555459 1.08334505e-21)
(100.0039985 0.3965952526 -3.14929422e-22)
(100.0251612 0.7680309521 -6.706959235e-22)
(100.0049529 0.3696680762 -1.210504506e-21)
(100.0054896 0.3380617884 8.665096262e-23)
(100.0319614 0.6427274991 1.842402892e-21)
(100.005716 0.303889854 4.766060261e-22)
(100.0056601 0.2689855925 0)
(100.03181 0.5038838223 0)
(100.0053988 0.234971733 0)
(100.0051406 0.2028540671 7.741229829e-22)
(100.0272831 0.376396578 1.608419467e-21)
(100.0052133 0.1736869379 -3.920486957e-21)
(100.0050412 0.1456372395 -1.46047454e-21)
(100.0227166 0.265897208 3.178501688e-21)
(100.004328 0.1213582003 3.178264504e-21)
(100.0032354 0.1009668844 -8.897996978e-22)
(100.0136486 0.1824807396 -4.928719993e-23)
(100.0009115 0.08638607994 1.735626751e-21)
(100.0084764 0.08355680279 -7.730311864e-21)
(100.0486059 0.2055241139 4.396985563e-22)
(100.0173879 0.1851267471 -2.750909843e-21)
(100.00289 0.08574526449 -1.599481613e-21)
(100.0059388 0.04848472812 -9.701668894e-22)
(100.0327994 0.1261018575 1.538209267e-20)
(100.0049322 0.02280732937 -7.794392257e-21)
(100.0241257 0.06729994691 -1.640128691e-20)
(100.0214933 0.02116459176 1.398410385e-21)
(99.93036819 1.88921584 9.540788947e-22)
(99.96330355 1.700868747 -7.93381518e-22)
(99.92371715 2.134800419 -1.38547626e-21)
(99.95530234 1.931375054 2.874051062e-22)
(100.0285298 1.928042153 2.840465396e-22)
(100.0407511 1.707688082 -2.098832647e-22)
(100.0437053 2.150478367 1.411390967e-21)
(100.0516211 1.924615798 -7.983798261e-22)
(100.1141656 1.793129869 -2.720271497e-22)
(100.0926124 1.560977605 -2.3394527e-22)
(100.1407343 1.96822429 -8.379980851e-23)
(100.1292607 1.741410154 2.180862801e-21)
(100.1625097 1.528451231 2.44919319e-21)
(100.1185558 1.311124578 4.255097359e-21)
(100.1922197 1.654412415 4.256934875e-21)
(100.1664722 1.449485137 5.483105985e-22)
(100.169991 1.212483685 -6.808532465e-21)
(100.1180931 1.028832365 -6.342430161e-21)
(100.1959453 1.296459706 -2.294531205e-21)
(100.1658241 1.129088815 -2.255446926e-21)
(100.1494954 0.9142060823 -5.36897343e-21)
(100.0981385 0.7699547338 4.905138952e-22)
(100.1661287 0.9658542748 -1.434758046e-21)
(100.1410557 0.8414180106 5.841368e-21)
(100.0915474 0.5264440423 -1.346826295e-20)
(100.1463999 0.7182811595 -1.346721649e-20)
(100.2050232 0.7755756061 1.362456151e-20)
(100.126179 0.5968326701 -2.754214695e-20)
(100.1065216 0.4926180569 1.191843859e-20)
(100.147585 0.5248169155 -1.680932386e-20)
(100.0867366 0.4045851687 2.413611617e-20)
(100.0652377 0.3582506172 2.681355043e-20)
(100.0803589 0.2431815272 2.287606057e-20)
(100.1835127 0.3832661958 -1.91789031e-22)
(100.1404525 0.4320747795 4.811298075e-20)
(100.0827661 0.3415268477 2.605177039e-21)
(100.0573992 0.141670568 -6.890055777e-22)
(100.1280456 0.2336058303 3.282200915e-20)
(100.0459891 0.0649317544 -7.641093012e-21)
(100.096472 0.1249687211 -1.740004938e-20)
(100.0827399 0.03918244043 7.789615712e-21)
(99.80626703 3.515472213 1.508256676e-20)
(99.74069222 3.721769109 3.471091982e-21)
(99.7574391 4.011346823 1.066682572e-19)
(99.83097388 3.780418474 4.900421305e-20)
(100.1342378 3.545637545 6.528855184e-22)
(100.1137536 3.80737715 4.667675465e-22)
(100.1834691 4.044174213 -1.48628266e-21)
(100.2028286 3.760123805 2.342354466e-21)
(100.3952303 3.214986299 -2.057097241e-20)
(100.4243163 3.489873781 5.666027023e-20)
(100.5180468 3.648659368 2.994713826e-21)
(100.4792749 3.361303895 -2.431551058e-21)
(100.5235505 2.669353435 1.070684918e-21)
(100.5857222 2.91830253 3.849597036e-21)
(100.6745172 3.008140431 -8.412712389e-21)
(100.6029793 2.756902746 4.4267107e-21)
(100.5296868 2.066852106 -6.308549396e-21)
(100.6066618 2.273765048 -1.47044821e-20)
(100.679231 2.317011334 -5.111393136e-21)
(100.5938017 2.113868415 5.662842129e-21)
(100.5315722 1.670423768 -1.781002054e-20)
(100.4583303 1.512559234 -1.200097364e-20)
(100.5853013 1.684678477 -1.201715744e-20)
(100.5087622 1.534481448 6.409060459e-21)
(100.361878 1.007692357 -5.327127251e-20)
(100.4838471 1.231976905 -2.788472252e-20)
(100.5630824 1.217543342 -8.076315369e-20)
(100.4196465 1.017742479 -3.810843136e-20)
(100.2641957 0.6774880192 -6.095928018e-20)
(100.3587944 0.8340379585 2.421536306e-20)
(100.4104935 0.8103468326 -2.89345972e-20)
(100.3019004 0.6782603234 -2.530289338e-20)
(100.223514 0.3707244393 9.903880348e-21)
(100.3848044 0.5068607848 -2.616922359e-20)
(100.3626532 0.6141003606 -1.562822786e-22)
(100.2702443 0.5564009663 -1.494115826e-20)
(100.1619316 0.2141506686 1.539018425e-20)
(100.2753455 0.3059977284 2.735525048e-20)
(100.1287601 0.09773068709 -1.956924712e-21)
(100.2063067 0.1626724897 -3.950480806e-21)
(100.1749081 0.05063693496 0)
(99.55840677 5.671392131 8.650517669e-20)
(99.39535866 5.903084354 3.983025008e-20)
(99.46804808 6.302422071 8.461149299e-20)
(99.62823772 6.022273782 5.549764214e-20)
(100.4133614 5.695552074 -2.304219144e-20)
(100.3522764 6.034518239 6.813806394e-21)
(100.529714 6.314641112 -3.396020547e-20)
(100.5722049 5.931931494 -9.130860902e-20)
(101.0411173 5.025697573 -9.170337369e-21)
(101.0877461 5.381349296 8.285047507e-20)
(101.2824009 5.514153131 1.057079005e-19)
(101.2040837 5.139993237 -1.5509466e-20)
(101.2837224 4.030255788 -1.794253537e-20)
(101.3944596 4.338454128 0)
(101.549474 4.369259745 8.513654254e-20)
(101.4127867 4.062608512 0)
(101.2442421 3.020169771 -3.618733536e-22)
(101.3720326 3.259789955 -4.620398818e-20)
(101.4790164 3.233506509 9.459330063e-20)
(101.3350486 3.007254391 1.682700528e-19)
(101.185861 2.329842461 0)
(101.0649795 2.154955807 4.791430743e-20)
(101.2558355 2.291086995 0)
(101.1254915 2.126862208 0)
(100.8064098 1.3970588 2.943889824e-20)
(101.0099783 1.63885894 1.899570448e-20)
(101.0883903 1.537746773 -1.683438636e-20)
(100.8700145 1.338157066 3.691001272e-20)
(100.5870686 0.9188221132 -3.370612718e-20)
(100.7418327 1.083543861 -1.504737466e-20)
(100.7881868 0.9993131639 -1.520030729e-20)
(100.6273723 0.8691669267 -7.357170226e-21)
(100.4240443 0.4403487535 -9.40535569e-21)
(100.6387846 0.551753404 -1.961757224e-20)
(100.6672277 0.7259320956 -2.592597565e-21)
(100.5476517 0.694895697 5.458077347e-21)
(100.3079118 0.2520110465 7.872696434e-21)
(100.4529055 0.3286483737 1.196633426e-20)
(100.242844 0.1139803939 -1.993203367e-21)
(100.3364847 0.1712368663 -3.519728764e-21)
(100.2824002 0.05268534769 -5.060989044e-22)
(99.10152802 8.551602638 -3.63177538e-20)
(98.76554926 8.84835189 -4.518802781e-21)
(98.92981171 9.466722639 -6.819489552e-20)
(99.30343302 9.068339449 -2.229442364e-20)
(101.071212 8.472770385 -1.331319109e-20)
(100.9468585 8.983630546 1.911038822e-20)
(101.3443978 9.323187476 -2.87505762e-21)
(101.4157199 8.730767549 -1.420296695e-20)
(102.2927602 7.075571181 -1.330007941e-19)
(102.3988395 7.570083708 2.164624199e-20)
(102.7536105 7.619481446 -1.255827032e-19)
(102.5831548 7.113808039 -3.021148459e-19)
(102.5874118 5.328595762 0)
(102.7945215 5.708048997 3.595650997e-19)
(103.0327346 5.622714177 0)
(102.7787211 5.261212357 1.997760982e-19)
(102.3439251 3.798697924 -1.12346256e-19)
(102.5595018 4.061747041 1.699758855e-19)
(102.6852006 3.947941452 -1.161551105e-19)
(102.4509345 3.707060559 -1.710063446e-19)
(102.0918831 2.778970104 1.402561744e-20)
(101.9109272 2.600776128 -3.861796386e-21)
(102.1591461 2.670070236 1.867165469e-20)
(101.9707632 2.514252727 2.277091827e-20)
(101.4037182 1.632034747 -9.505560024e-20)
(101.6966341 1.866068639 -6.019282316e-20)
(101.7469431 1.670510525 -3.369448721e-20)
(101.4507291 1.500403973 -1.722864048e-20)
(101.0087458 1.045444391 1.168870896e-20)
(101.2279072 1.19583246 3.52654776e-20)
(101.2449876 1.052560836 -3.948486697e-21)
(101.0328223 0.9441446448 -3.860413545e-21)
(100.6542722 0.4410270296 2.032546785e-21)
(100.9124582 0.4985941196 0)
(101.0160906 0.7262329609 -9.543827127e-23)
(100.8842296 0.7368739785 -1.052272697e-20)
(100.4701311 0.2453390499 4.471969637e-22)
(100.6374347 0.2894727355 2.032363543e-21)
(100.3662242 0.1087628823 -2.037616149e-21)
(100.4653012 0.1444811093 -2.039499538e-21)
(100.3849832 0.04352178533 -2.045840333e-21)
(98.09765331 13.05300667 6.58920673e-20)
(97.27420646 13.47156178 2.545257119e-20)
(97.63874468 14.67822933 2.545751082e-20)
(98.59194521 13.98317215 -2.997485698e-20)
(102.693363 12.43254036 0)
(102.4933598 13.36375958 3.629060535e-20)
(103.4206081 13.70800468 -8.120799862e-21)
(103.4372721 12.63222758 7.570754744e-20)
(104.6973027 9.251752355 2.195331301e-19)
(104.9845582 9.965846749 1.305838528e-19)
(105.5866255 9.770749502 2.188303179e-19)
(105.164794 9.084585969 3.371400797e-19)
(104.6628412 6.343060649 -3.460794558e-22)
(105.0487398 6.77321479 -3.428312591e-20)
(105.3137683 6.498643177 -7.01323364e-20)
(104.8790409 6.119205911 6.886149164e-20)
(103.8695047 4.224054984 1.4398629e-19)
(104.2082596 4.480128043 4.252528262e-19)
(104.312879 4.242319799 1.522052161e-19)
(103.9618628 4.028505068 1.470456242e-19)
(103.2367244 2.903124465 -1.932617426e-20)
(102.9745976 2.748114975 4.623455748e-20)
(103.2701304 2.720999042 3.327170073e-20)
(103.0102043 2.591890577 -1.716817554e-20)
(102.1062578 1.64314817 2.759514877e-20)
(102.4814795 1.822889208 -2.483622563e-22)
(102.4664009 1.542915495 1.678663439e-20)
(102.1051826 1.439011746 1.250326081e-20)
(101.4843536 1.015253182 -1.642076584e-20)
(101.7649959 1.12392665 -8.372038178e-21)
(101.7251135 0.9294690579 -8.373660143e-21)
(101.4688435 0.8679104442 1.274656223e-20)
(100.8811918 0.3532105329 0)
(101.1700367 0.3394806397 1.349862899e-21)
(101.3586443 0.5886057034 -1.126302995e-20)
(101.2360827 0.6641061178 2.793107015e-20)
(100.6203943 0.1865592738 -5.132901087e-22)
(100.7945511 0.1807273419 -1.595968911e-21)
(100.4743692 0.07916195895 -2.057151499e-21)
(100.5665671 0.07968976385 -2.327972079e-21)
(100.4596398 0.02247454715 2.626982782e-21)
(92.78926607 22.30981536 0)
(94.10760724 22.02388524 0)
(93.14890138 24.04984086 0)
(94.78569697 23.36784777 0)
(107.3190216 19.94434954 -3.693082169e-19)
(107.4936509 18.28272783 -9.003612889e-20)
(109.0877173 17.90938947 -1.79808988e-19)
(108.1257053 20.7626723 -6.052555405e-20)
(110.1015889 19.55992016 4.27419073e-19)
(109.7165873 20.31407254 -5.963261538e-20)
(109.8533436 11.81584978 -1.013124848e-19)
(109.061094 10.91502411 -9.71831597e-20)
(110.5167507 11.02521731 -9.75576712e-20)
(109.5754337 10.31164159 -4.575457074e-21)
(107.5761164 6.548855016 -1.3181141e-19)
(108.238362 6.935113983 -4.811977778e-20)
(108.4142166 6.37610358 2.427022851e-20)
(107.7297574 6.098419818 -1.422080139e-19)
(105.7469767 4.00105089 -1.760612484e-19)
(106.2293787 4.179560529 -2.639811631e-19)
(106.2347063 3.808350699 -4.463619961e-20)
(105.7616359 3.690163665 -4.291604137e-19)
(104.5012536 2.532459648 -2.768658446e-19)
(104.1592673 2.446681099 -3.921326371e-20)
(104.4566112 2.285980855 -7.519723036e-20)
(104.1287476 2.223329432 -1.520089882e-19)
(102.8143862 1.363259656 4.411979885e-21)
(103.2691554 1.438357961 0)
(103.134098 1.101440871 -2.554233473e-21)
(102.7342598 1.09874365 -4.596072385e-21)
(101.951226 0.7907542426 4.570381297e-21)
(102.2748757 0.8289381949 -2.228581526e-23)
(102.1601744 0.6029878505 -7.444075641e-21)
(101.8750895 0.6072413897 9.24660736e-21)
(101.0637273 0.1731023466 -1.908575521e-22)
(101.3467556 0.0768066308 -2.960628674e-22)
(101.6512593 0.3068658261 8.509377142e-22)
(101.5504044 0.4143759592 6.756504645e-21)
(100.7282056 0.0736354822 -3.417974383e-21)
(100.8882574 0.004723345088 -2.501785036e-22)
(100.5421968 0.02386650645 2.552245799e-21)
(100.6134558 -0.02077337466 -2.285125709e-21)
(100.4821367 -0.009849722287 4.308233971e-22)
(123.6295628 23.72976958 -7.346809349e-19)
(121.8576954 22.62454582 1.231222575e-20)
(124.3493594 21.81970566 -7.349885929e-19)
(122.6121184 21.12131437 3.393393825e-20)
(117.090824 10.28000526 6.233944394e-19)
(115.4883907 9.796262356 2.568145847e-19)
(117.0884874 8.749031071 5.338845518e-21)
(115.5825045 8.615721494 -5.784314428e-19)
(110.9171305 5.14842645 -6.148002019e-20)
(111.8480993 5.263201738 -6.166517424e-20)
(111.6789362 4.487200417 -2.300630227e-21)
(110.8155063 4.507427581 -2.855445218e-19)
(107.621134 2.865198346 2.398716888e-20)
(108.212979 2.875569295 0)
(108.0283502 2.428121829 0)
(107.4863014 2.480217441 -1.950515008e-19)
(105.6495653 1.575894294 -1.937226836e-19)
(105.257149 1.594353513 -1.720297338e-19)
(105.4930661 1.297137003 2.219141652e-23)
(105.1336399 1.339016058 -2.426834386e-19)
(103.4073719 0.763882169 -4.984789275e-21)
(103.9058857 0.7071466106 -2.019991069e-20)
(103.619025 0.3607417936 7.940086918e-21)
(103.2207889 0.482184855 1.190482789e-21)
(102.3254699 0.3687705959 -2.027345991e-21)
(102.6564938 0.3140282301 1.395214352e-20)
(102.4501849 0.09368859054 5.153650871e-21)
(102.1767796 0.1815902598 1.020906644e-20)
(101.158185 -0.0870187689 -3.561189246e-22)
(101.4082528 -0.270845036 -1.081272849e-21)
(101.8191599 -0.1004428105 -1.096997147e-21)
(101.7713703 0.05724989275 -1.220342722e-21)
(100.7631911 -0.08754460982 1.10007271e-21)
(100.8886424 -0.2239849003 1.346159795e-21)
(100.5451736 -0.05310802054 -4.360087448e-21)
(100.580917 -0.1491701157 1.694563173e-21)
(100.4320225 -0.05127408912 -2.156099305e-21)
(137.3905103 7.676855133 5.87424482e-19)
(135.6754351 8.549600952 1.593214024e-20)
(136.1709033 6.262473142 -2.59385646e-21)
(134.7386982 7.161909085 1.650835581e-18)
(122.2944897 3.381154937 -7.42301973e-19)
(120.6142356 3.979238052 -7.844787597e-19)
(121.196778 2.069088793 -3.696018084e-19)
(119.8607082 2.787399677 -7.392984401e-19)
(113.3928852 1.847735965 1.178400352e-21)
(114.3363345 1.511203834 -6.805102509e-20)
(113.7123291 0.8181172716 1.980218926e-21)
(112.9187837 1.216396798 -1.93551167e-19)
(108.9360422 0.8051563606 6.915055298e-21)
(109.5191051 0.5863667038 -6.609325372e-19)
(109.1093637 0.1891909891 -4.339020705e-19)
(108.6074098 0.43770335 -8.511752873e-19)
(106.3638374 0.1057535004 3.799646171e-19)
(105.9830193 0.2520198414 -2.317151581e-20)
(106.0797337 -0.1376706203 -1.37340934e-19)
(105.7478596 0.01734653597 0)
(103.7547429 -0.0949575127 7.906365599e-21)
(104.2349914 -0.299810958 -2.484967177e-21)
(103.8009312 -0.5878382884 -2.486501232e-21)
(103.4504011 -0.3478033345 -1.251579853e-21)
(102.5140773 -0.2151774122 5.707611044e-22)
(102.8174832 -0.36989425 7.07116763e-21)
(102.5223586 -0.5472549261 5.804574571e-21)
(102.2901453 -0.3788561722 1.298989972e-21)
(101.1309147 -0.4023048344 5.654702288e-22)
(101.3191849 -0.6667063038 1.201920866e-23)
(101.8111351 -0.5917873213 3.771222282e-22)
(101.831701 -0.4013469436 -5.779684748e-21)
(100.7005593 -0.2812565383 2.071086039e-21)
(100.774326 -0.482850192 -2.288692899e-21)
(100.4630505 -0.1452785465 4.11716134e-21)
(100.4525627 -0.2936053258 2.326064696e-21)
(100.2949484 -0.09802333595 2.046101541e-21)
(134.6704809 -8.994842422 9.30797165e-20)
(134.0983235 -7.722682025 2.213619371e-18)
(133.2509966 -9.295468652 1.571267483e-18)
(132.775741 -8.092114111 5.246252785e-19)
(122.0849818 -4.887254024 -3.77365514e-19)
(121.1038521 -3.653539034 -7.621646402e-21)
(120.5472077 -5.380414304 -3.772915325e-19)
(119.8312208 -4.276221596 -1.04777281e-18)
(113.8255577 -2.379701892 5.617113939e-19)
(114.4873353 -3.050192213 -2.376679341e-19)
(113.5950072 -3.402716708 6.966338805e-20)
(113.0741887 -2.76956069 4.543748946e-19)
(109.1922517 -1.733860598 3.314268117e-19)
(109.6362925 -2.136483265 1.09470231e-21)
(109.072153 -2.366007139 -1.133933606e-19)
(108.7058673 -1.97778738 -1.162163415e-19)
(106.4051369 -1.609391815 -2.309371826e-19)
(106.0992017 -1.355613806 -2.299497075e-19)
(106.0268631 -1.761867263 -3.243122293e-21)
(105.7691629 -1.519118972 1.218184292e-19)
(103.7526524 -1.097218577 2.106185818e-20)
(104.150393 -1.428910703 1.546054274e-20)
(103.6085227 -1.602125295 5.973156761e-20)
(103.3481268 -1.27361232 1.439099517e-21)
(102.4602717 -0.8905587114 0)
(102.7033552 -1.130955993 -2.033256715e-20)
(102.339298 -1.23305645 0)
(102.1727155 -1.002084814 0)
(100.9620775 -0.7404808316 -2.840722454e-21)
(101.0678136 -1.065957654 -7.454204691e-21)
(101.6047749 -1.107105048 2.253164965e-21)
(101.6983622 -0.9070423956 -3.685593992e-22)
(100.5258682 -0.4887297509 -2.05406444e-21)
(100.5368415 -0.7442310222 -1.625133468e-21)
(100.2839345 -0.2438499791 2.554736493e-22)
(100.2215588 -0.4397801718 -1.393955654e-21)
(100.0649119 -0.1455140496 2.417212637e-22)
(125.6986299 -18.10036277 1.256471022e-21)
(125.7851056 -17.07962955 1.361360377e-21)
(124.6266906 -17.79297531 4.050523824e-19)
(124.7063284 -16.86999462 -4.009064869e-19)
(118.0608191 -10.88217322 1.708873899e-21)
(117.8032842 -9.629014553 -2.313862179e-20)
(116.6486159 -10.69814256 -3.232936902e-19)
(116.5077329 -9.63745029 -1.805544462e-19)
(112.2496259 -6.103278766 5.657032127e-20)
(112.5426037 -6.862805747 4.637879719e-20)
(111.6313624 -6.84663757 -4.890651193e-19)
(111.423317 -6.175442899 -4.263284865e-19)
(108.3295196 -4.109791682 -4.252757571e-19)
(108.579925 -4.589415894 0)
(107.9720513 -4.617637177 -2.937442813e-19)
(107.7809685 -4.183358349 -9.624053735e-20)
(105.7532284 -3.225711665 -1.827839061e-19)
(105.5582523 -2.914393091 -2.223583684e-19)
(105.3340011 -3.261981336 4.194901141e-20)
(105.1778837 -2.976407231 0)
(103.3732901 -2.084455231 3.872022162e-20)
(103.6430645 -2.495727689 -5.254621828e-21)
(103.0558438 -2.527929215 -1.919513631e-20)
(102.9073082 -2.155901402 1.92849932e-20)
(102.1528207 -1.563991206 -1.372483076e-20)
(102.3128329 -1.862194235 5.901750808e-21)
(101.9121752 -1.873668175 -5.949495193e-22)
(101.8221731 -1.604847629 -1.424385675e-20)
(100.6496197 -1.063036296 -6.294467778e-21)
(100.6638595 -1.430543661 -1.025190163e-21)
(101.2089875 -1.585074382 -1.879937342e-21)
(101.3672634 -1.397722307 -5.43606254e-21)
(100.237598 -0.6884756667 -1.167093397e-21)
(100.1836149 -0.9810271758 5.224987599e-22)
(100.0061038 -0.3390702533 -1.414174452e-21)
(99.8920243 -0.5739181987 4.270341483e-22)
(99.74508202 -0.1893072503 2.417249723e-22)
(116.2454277 -21.36802577 -5.50109334e-19)
(116.6180988 -20.6705957 -2.839590023e-19)
(115.5032902 -20.80004684 0)
(115.8763735 -20.18381878 0)
(112.6642715 -13.83197612 9.564354942e-19)
(112.8802414 -12.86224566 -5.263530009e-19)
(111.6000213 -13.25671211 -4.47620895e-19)
(111.8305333 -12.45104538 -1.476390327e-20)
(109.4732815 -8.529997857 2.202493499e-19)
(109.4654019 -9.193159056 0)
(108.6975023 -8.909612838 1.879554628e-19)
(108.7317996 -8.34306035 -1.91031792e-19)
(106.6714359 -5.858422707 -3.788370225e-19)
(106.7395387 -6.31112794 -9.985094823e-20)
(106.1863873 -6.171216335 -2.745166763e-21)
(106.147276 -5.773279058 -9.021816234e-20)
(104.5748164 -4.469434301 -4.931445836e-21)
(104.4924663 -4.156771177 1.943900788e-19)
(104.1693702 -4.399984148 3.909596646e-20)
(104.1102943 -4.117806712 2.718096672e-19)
(102.66936 -2.918970211 -1.809140838e-20)
(102.7993475 -3.350136053 -8.42981658e-21)
(102.1885659 -2.878986839 1.805964575e-20)
(101.6207573 -2.152678695 -3.508186399e-21)
(101.6893977 -2.472990968 3.860761722e-22)
(101.2760683 -2.1167099 -1.873815674e-20)
(100.2126436 -1.33806257 4.087410621e-21)
(100.870602 -1.824235739 -1.420650947e-24)
(99.84715313 -0.8617748057 1.899988609e-21)
(99.63776079 -0.4223106327 1.899773136e-21)
(138.4729534 9.24788457 -6.195349552e-19)
(136.7701566 10.12285897 -1.18961366e-18)
(137.704633 11.84666859 -6.067675777e-19)
(139.7992051 10.43229497 -4.124607485e-19)
(139.5559429 11.4340927 -4.125214089e-19)
(122.6872206 25.42797419 -1.827818881e-19)
(124.6921421 26.84627406 8.587145591e-19)
(125.6636527 24.55311642 4.77277904e-19)
(136.105413 -8.564026394 -5.785983934e-19)
(135.5292197 -7.29293149 1.540102702e-18)
(137.0212724 -6.733823812 -2.971963467e-19)
(137.4388127 -8.621118258 1.335918963e-18)
(137.7738473 -7.906139442 1.386223018e-18)
(138.9365074 6.67887946 -1.565014939e-19)
(140.3223342 7.664335267 0)
(140.187049 8.661067508 0)
(126.8114221 -18.37117812 3.216610065e-19)
(126.9010899 -17.33523523 3.25382747e-19)
(128.0609493 -17.54921661 3.213765907e-19)
(127.765292 -18.81964448 -3.231575105e-19)
(128.1724633 -18.50216788 1.290528093e-18)
(135.1110864 -10.25065262 -4.371988066e-19)
(136.4093713 -10.38207693 -9.742848706e-19)
(136.7784116 -9.717646491 -1.011765007e-18)
(117.0201704 -21.89499042 -2.658982772e-19)
(117.3907847 -21.21045188 5.845303712e-23)
(118.2113527 -21.70553701 2.839526805e-19)
(117.8161153 -22.47559308 -6.410784276e-21)
(126.6472283 -19.41987954 0)
(125.5656819 -19.09123099 -3.967667187e-19)
(116.6003199 -22.61997334 2.361962166e-20)
(115.8397177 -22.01968855 -8.020853642e-19)
(92.48074953 20.81225993 0)
(91.12686002 22.56086486 0)
(120.8345251 24.30837191 5.484938801e-19)
(119.6789051 25.74946743 -7.636068214e-19)
(121.3230509 27.44942025 -7.822216282e-19)
(105.9738179 20.24515946 -2.127359688e-19)
(106.0840021 21.1292984 -2.167502338e-19)
(107.1313107 21.16035671 -2.336269731e-19)
(146.545219 29.02071555 -5.380786817e-19)
(145.4789408 29.41037376 -6.108041474e-19)
(145.888188 30.23245441 -5.449368033e-19)
(146.9478666 30.09940025 -5.496392784e-19)
(126.2489806 41.82844977 1.383764039e-19)
(124.6025203 43.67122283 1.505279645e-18)
(126.6010697 45.73023595 1.970361564e-18)
(128.3761127 43.30815959 2.691375566e-19)
(134.1164503 9.320557896 -1.109950105e-18)
(134.9080302 10.82896781 5.44891618e-19)
(123.1673428 4.787827046 3.509945185e-19)
(121.4797786 5.441447011 3.502529657e-19)
(122.0932443 6.946009493 -3.578721044e-19)
(124.2066598 6.562003168 9.244040683e-19)
(116.8852382 11.67764696 7.596967412e-20)
(118.7652634 12.36109141 2.875100191e-19)
(118.8676996 10.48683713 6.693715969e-19)
(149.3780757 -3.163229951 -5.18299688e-19)
(149.1371409 -2.622202308 1.040584985e-18)
(149.627189 -2.395331381 1.079530558e-18)
(149.9010069 -2.919613676 0)
(151.7775845 10.88608055 -7.21490809e-19)
(151.2497038 10.37508465 -7.177980001e-19)
(152.2730807 10.36266214 5.982674908e-19)
(151.7459015 9.877812843 -1.470857252e-19)
(133.5118821 -6.506573053 1.668397189e-18)
(134.8360525 -6.032963409 1.118337824e-18)
(123.5647309 -4.218748102 -4.396309554e-19)
(122.6015132 -2.954003543 -6.316375595e-20)
(123.999868 -2.073748679 -3.961711005e-20)
(125.3245808 -3.433139365 2.263408025e-21)
(125.1597677 4.070805372 1.106636186e-19)
(123.8359243 2.502372195 4.316311512e-19)
(136.5397421 -20.17698444 4.1395782e-19)
(136.7590912 -19.76467609 -2.584287729e-19)
(137.0154079 -19.88161972 -2.130550743e-19)
(136.8607687 -20.26048358 -4.293054068e-19)
(143.6647844 -13.48751986 1.017244233e-18)
(143.2506553 -13.54961263 0)
(143.666705 -14.0056602 2.591790335e-18)
(143.2494134 -14.02509269 -1.307067452e-20)
(125.814775 -16.1154164 1.050627799e-22)
(126.932817 -16.27805171 -8.737550103e-19)
(119.5233281 -10.93277053 3.254076878e-19)
(119.2773327 -9.67206856 3.046485463e-19)
(120.7828794 -9.567611553 -7.562319669e-19)
(121.1738117 -11.02674584 7.738324907e-19)
(124.6356509 -5.66195298 0)
(122.851265 -6.198013578 0)
(123.9031166 -26.15853988 0)
(124.1997318 -25.67697424 1.029268013e-20)
(124.6522035 -25.96106927 -7.386495763e-19)
(124.308856 -26.46057017 -4.504562741e-19)
(130.0266143 -23.98807673 -1.069601309e-19)
(129.5198419 -23.76985808 -9.752249377e-19)
(129.2429375 -24.33842566 -8.573828546e-19)
(129.5741851 -24.66371851 -8.255219771e-19)
(129.8355583 -24.51173479 1.023995529e-18)
(107.1034489 -31.89382674 -8.769972023e-20)
(108.527264 -32.02502453 5.735955046e-22)
(109.2471583 -31.96340123 -1.661451335e-19)
(108.4778056 -32.02418623 -5.526243925e-21)
(112.4300346 -26.91714647 -5.853039174e-19)
(112.9058431 -26.60751904 -2.690486109e-19)
(113.1222786 -27.0185324 2.112842573e-19)
(112.7321686 -27.32916749 1.827318576e-19)
(118.0763794 -27.1101577 1.348367499e-18)
(117.6875237 -26.75944288 5.125345944e-19)
(117.7094721 -27.50937095 2.577679113e-19)
(117.3600211 -27.14927428 1.398288147e-22)
(151.2375841 11.37812236 -5.692555995e-19)
(151.7676892 11.91307644 7.722991328e-21)
(152.3087932 11.4000661 -2.833402793e-19)
(146.4597292 27.86497214 9.202567766e-21)
(147.6941778 28.75942295 3.180708789e-20)
(147.3910013 27.79700809 -5.865350193e-19)
(133.2707875 19.30893213 5.505799861e-19)
(133.0231583 17.24277109 6.552160181e-19)
(135.123564 16.94607647 8.792335222e-19)
(136.0704797 18.74831205 1.200886975e-18)
(135.3953642 19.63260403 -2.240873625e-19)
(144.6783244 27.87736973 1.738199778e-19)
(146.9082592 27.02553446 -7.799876712e-19)
(145.9985764 25.62969543 1.806202305e-19)
(144.235138 26.04853583 0)
(150.7066903 10.86356065 -5.680000368e-19)
(150.1275798 11.33519938 -5.741471679e-19)
(150.6707384 11.85622894 7.642189508e-21)
(143.6545177 -13.01022521 9.919043949e-19)
(144.0706695 -12.93356831 1.01285383e-18)
(144.0851208 -13.4522677 4.881763462e-19)
(148.8799486 -3.374290124 -5.074174251e-19)
(149.6294525 -3.68548686 -5.142001768e-19)
(149.1085153 -3.919506031 -5.185308929e-19)
(138.1313821 -0.5317226201 -5.414913061e-19)
(137.475637 -1.108519384 1.380490076e-18)
(138.7962143 -1.176922882 -5.364637205e-19)
(138.0721754 -1.609133257 -5.173456475e-19)
(148.6468602 -2.847708757 1.033871004e-18)
(148.3867035 -3.585993171 -2.049407793e-18)
(148.1794473 -3.080435847 1.643488251e-20)
(143.2426984 -13.06388962 -1.662525611e-20)
(143.2401995 -12.5871119 -1.972124156e-18)
(143.6393612 -12.52117982 4.756040094e-19)
(150.7375587 9.885851176 -5.665390127e-19)
(150.1752311 10.33185627 -5.479930708e-19)
(148.4177361 -2.343056992 4.878684763e-19)
(148.8877101 -2.096154813 2.074579439e-18)
(137.6655923 0.2370325928 -1.037938075e-18)
(138.3725335 0.55889487 -1.1026555e-18)
(138.9692289 -0.02087407724 3.652977971e-21)
(130.2986324 -23.40957179 1.297479061e-18)
(130.8139594 -23.61430355 4.401569406e-19)
(130.36279 -24.31341336 7.746239319e-19)
(130.6253917 -24.1522657 2.993953391e-19)
(136.170082 -20.11466756 2.128439262e-19)
(136.4076634 -20.55006406 8.363530428e-19)
(136.1245986 -20.46601716 8.273105888e-19)
(131.7314687 -14.46972244 6.288912052e-19)
(130.4375459 -14.46739307 1.631298593e-21)
(130.5235634 -15.60947108 1.428240377e-19)
(131.5830018 -15.98196363 9.150448188e-19)
(132.0179251 -15.51725561 -2.903806603e-19)
(136.2804706 -19.45629261 -8.986615391e-19)
(135.875446 -20.35251684 2.130693197e-19)
(135.4234806 -20.04548114 1.269769893e-19)
(135.5943645 -19.33634134 -2.390952198e-20)
(129.7944234 -23.18819666 4.309885917e-19)
(129.9932973 -22.59569475 8.502241471e-19)
(130.5705929 -22.81822005 -3.263101839e-20)
(142.8448408 -13.59216875 -4.721014413e-19)
(142.8488193 -13.12330092 4.758333103e-19)
(137.0512783 -19.51199712 -5.431914282e-19)
(136.4418116 -18.73063187 1.276835586e-19)
(137.2372291 -18.99342817 -8.215615799e-19)
(137.0574093 -18.65707307 -2.535529597e-19)
(131.5720147 -13.289241 6.415266676e-19)
(132.9098647 -13.20096795 -3.91943375e-19)
(132.849763 -14.7960503 8.999296371e-20)
(133.2783272 -14.28124152 9.398059133e-20)
(118.3967752 -26.71035516 1.180440534e-20)
(118.79493 -27.05300682 5.214146144e-19)
(118.432016 -27.46224019 5.393830038e-19)
(123.457945 -25.8684319 6.779018864e-19)
(123.5581854 -26.64754213 3.577082044e-19)
(123.1577599 -26.33731212 7.771421011e-21)
(105.963524 -31.81944842 -1.756568565e-19)
(107.3079976 -31.94273111 -8.699406546e-20)
(104.0744454 -31.54885288 -8.556506887e-19)
(105.3496153 -31.70158959 1.05206269e-19)
(103.4595 -31.28263233 -9.189705643e-20)
(112.0375069 -27.19948667 3.793199313e-19)
(109.1084556 -31.92949572 1.680947994e-19)
(150.7606721 51.73589034 0)
(149.5505463 53.76603613 0)
(149.1731453 54.57992793 -9.756499988e-18)
(149.9296929 55.90875296 0)
(124.4480581 63.93084263 0)
(121.9280649 65.6951842 1.363997565e-18)
(124.0347243 69.06070093 0)
(126.8584126 66.36996726 0)
(122.8340184 -27.63679478 -2.384973651e-19)
(124.2607934 -27.67236828 -2.005354148e-18)
(122.9180058 -27.5107209 -2.742344273e-18)
(116.2850333 -26.34920274 -4.253707743e-18)
(116.9604824 -20.02381117 2.945918455e-19)
(117.7342799 -20.47799894 -5.837551462e-19)
(113.8173646 -14.32702945 9.557529399e-19)
(114.0424752 -13.36483608 -5.325598882e-19)
(115.2875992 -13.77304641 8.630952968e-19)
(115.0725401 -14.94192555 -3.130913237e-19)
(119.7304344 -12.3406524 -4.904001737e-19)
(118.1641982 -12.08583089 -3.086404932e-19)
(104.8473181 -30.70305089 -8.194136371e-19)
(107.111559 -31.10631492 -2.78482507e-18)
(104.707928 -30.56662991 -2.126026271e-18)
(97.20939976 -28.71548261 1.737937533e-18)
(114.6330001 -30.21278211 3.916598642e-19)
(115.1323986 -29.81694938 -2.514396451e-19)
(115.3731343 -30.22962688 1.789911154e-19)
(114.6960832 -30.55175617 -7.573334166e-21)
(114.9353498 -30.61106887 2.656035378e-19)
(117.6743218 -30.00011952 6.82465898e-19)
(117.4940932 -29.8186402 6.283163498e-19)
(117.4150886 -30.17259052 2.191546952e-19)
(117.3330869 -30.02205821 -4.319006179e-19)
(124.4473505 40.06449558 2.041167544e-19)
(127.6775665 39.71612781 -1.821645099e-18)
(125.850524 38.46843007 -8.1841501e-19)
(144.9028796 30.22665629 1.164708616e-19)
(142.8071928 28.1589152 1.737931205e-19)
(143.1077681 30.08409418 3.415450575e-19)
(131.096043 19.33919005 -6.46727906e-19)
(131.0634743 21.41661849 -7.459088709e-19)
(133.9679988 21.2820449 -9.251889098e-20)
(133.1192872 22.0362753 5.495294458e-19)
(117.9915326 -29.74457542 4.861236413e-20)