/*--------------------------------*- C++ -*----------------------------------*\
| =========                 |                                                 |
| \\      /  F ield         | OpenFOAM: The Open Source CFD Toolbox           |
|  \\    /   O peration     | Version:  v2012                                 |
|   \\  /    A nd           | Website:  www.openfoam.com                      |
|    \\/     M anipulation  |                                                 |
\*---------------------------------------------------------------------------*/
FoamFile
{
    version     2.0;
    format      ascii;
    class       volScalarField;
    location    "2.8";
    object      p;
}
// * * * * * * * * * * * * * * * * * * * * * * * * * * * * * * * * * * * * * //

dimensions      [0 2 -2 0 0 0 0];


internalField   nonuniform List<scalar> 
3259
(
98.74750283
-101.1076682
-285.8909211
-442.5074123
-566.7524442
-660.0729185
-727.0945622
-772.9074976
-810.307957
-826.7583074
-836.0931487
-840.3271889
127.7295279
-81.95781148
-277.4691545
-442.0488689
-570.0126977
-664.6208879
-738.4552843
-780.8998004
-817.2538918
-831.3514622
-839.414011
-843.0534372
132.6176406
-104.9941984
-317.7407659
-488.1590679
-613.6820761
-700.3465288
-769.4526316
-803.3712847
-833.1387603
-842.2655061
-847.4740509
-849.7133871
144.1692035
-156.1618668
-405.1202636
-579.1475921
-692.9770234
-764.5261607
-816.961725
-837.0565939
-855.4472457
-858.1136561
-859.0392689
-859.227424
172.6080232
-259.8303646
-568.062735
-736.6228942
-816.1250812
-853.2579354
-878.0475308
-879.1103867
-881.1558567
-875.7689085
-871.5156139
-869.2884417
232.4115776
-509.3647424
-876.7745765
-978.857798
-981.9643106
-963.0764898
-947.6151817
-924.3338767
-906.5029625
-892.1323774
-882.2528373
-877.4925159
441.874256
-1259.657794
-1421.408267
-1308.595868
-1179.235356
-1081.07914
-1016.125347
-966.1711373
-927.558876
-903.7755367
-888.6280352
-881.5204474
-3154.29819
-2176.059016
-1667.348355
-1366.96318
-1186.09275
-1069.885857
-996.756921
-938.2577688
-907.2176561
-888.1195209
-879.0493519
-4544.556655
-2681.724408
-1903.450731
-1486.623101
-1249.517893
-1096.19539
-1007.874255
-934.9479635
-899.8065675
-878.4931482
-868.3107121
-4103.674826
-2626.58143
-1904.897157
-1491.974224
-1250.884598
-1086.466138
-995.1026756
-915.5197744
-880.0305998
-858.531689
-848.2288427
-3039.449399
-2189.292226
-1701.960816
-1388.355512
-1190.004595
-1040.330502
-958.0329156
-879.9866101
-847.8667658
-828.1831341
-818.6881601
-1965.632937
-1621.48507
-1393.02765
-1213.92375
-1082.130151
-964.7595292
-900.3470634
-830.3153014
-804.8300802
-788.468471
-780.5206134
-4889.123131
-3363.248972
-4476.840021
-4926.803563
-3307.518358
-4350.627618
-2140.696282
-3155.022385
-2003.508624
697.7110566
-2982.997696
-1059.900631
-6669.240064
-4480.297576
-4498.287986
-2890.045088
-2357.607901
-6390.185069
-6863.087392
-4210.828646
-2960.036599
-2976.491581
-4608.506413
-5513.437637
-3178.43195
-2500.271258
-2880.042857
-3001.222591
-3677.748147
-1636.681114
-1608.265996
-2197.195859
-6885.708492
-6717.127028
-4528.661493
-6411.707805
-6709.185424
-5569.090395
-6349.002197
-4722.683158
-6213.563877
-5476.297495
-6690.267872
-6253.175854
-4765.533037
-3778.646684
-4545.43283
-3766.014535
-4437.045968
-3705.834192
-5421.76834
-4552.155658
-3917.763618
-2283.92022
-2908.556549
-1588.711571
-1631.117216
-1527.670135
-1584.694948
-8702.878914
-5808.407336
-3589.286204
-2094.716891
-1850.746227
-2345.271089
-2057.524728
-2010.352924
-2320.205428
-4237.144254
-6284.151568
-4309.349004
-2371.159989
-2706.322392
-2565.021778
-2864.383377
-2258.502842
-3608.71839
-2954.260259
-2710.01328
1063.864577
-3966.188859
-1336.940216
704.4871831
-8789.684676
-6122.901203
-8425.802671
-5503.521616
-8277.339359
-5788.34261
-6610.077256
-6644.137406
-5034.20433
-5095.673401
-3164.434199
-3509.88822
-3284.316455
-3491.10676
-3136.279317
-3938.200701
-3544.948178
-3381.164644
-1634.009971
-1916.307885
-1973.208074
-6922.811498
-6919.187878
-5931.735771
-5980.695036
-5878.577472
-5265.486
-5457.807474
-4957.505518
-5193.389295
-5830.541618
-6507.296493
-5682.129186
-5734.409435
-5512.766895
-5648.87889
-6475.008895
-4094.816233
-3982.221954
-4150.234434
-3082.164797
-2734.262569
-2636.228898
-2753.550581
-3103.645248
-1979.685931
-1541.143538
-7481.11078
-2217.885178
-2380.711214
4799.976942
-2414.392781
-2594.386941
1607.798206
-5129.115104
-1737.032711
633.7709766
-6494.868969
-7415.654361
-7269.887829
-6778.099035
-4788.52262
-4985.99125
-4775.301956
-5787.80064
-5601.753907
-5340.121367
-6913.280472
-7465.43416
-7472.832725
-6721.779278
-5607.500013
-5346.34417
-5733.103271
-5659.165347
-6720.314792
-5730.512049
-6018.760457
-5850.388759
-6203.851554
-4709.576157
-4512.965143
-4371.983708
-4110.547168
-3858.380433
-4136.185762
-5021.908147
-4604.728479
-4872.543021
-4230.116374
-4512.168588
-4963.063622
-2547.358636
-2686.814249
-2366.084876
-1770.308966
-8023.402675
-7194.950754
-7655.657764
-3737.740168
-3807.165559
-2023.80704
-2168.674039
-2175.740889
4475.689994
4557.102032
4317.417369
-2781.926968
-2599.391717
-2559.118907
-2599.723385
-2799.819961
-8675.340597
-7528.180742
-7093.394892
-7802.921045
-7625.209045
-6910.158302
-6183.079858
-7462.02031
-7006.572448
-6887.392639
-6521.973987
-6746.288365
-7215.390146
-7057.184346
-5254.917048
-5055.499823
-4850.38918
-5113.635411
-5323.141939
-4839.069037
-5050.898455
-5391.093706
-5279.880347
-5544.014813
-5325.59829
-3309.570833
-3375.767793
-3344.800494
-3262.051233
-3409.69308
-3780.358269
-3668.658789
-3827.096389
-3458.988372
-3616.466383
-3721.885878
-1842.252113
-1823.391511
-1971.417567
-7578.612852
-7481.300571
-6918.733019
-7670.312432
-7820.416047
-7620.645263
-7836.035688
-7863.238582
-7884.097725
-7818.818305
-6870.349296
-7577.767865
-7616.614059
-6228.197801
-6073.779637
-5782.431361
-6146.0925
-6458.33661
-6272.205918
-4091.889978
-4268.240253
-3882.264577
-4040.756857
-4134.14373
-4564.304417
-4766.156468
-4323.703399
-4503.653807
-2802.118123
-2906.369501
-2972.048318
-2790.529055
-3026.347216
-2952.979369
-1859.172971
-2841.561095
-2117.564894
-1428.598709
-2363.716868
-2420.073945
-1685.283298
-2425.059628
-2174.198655
-1638.533713
-1604.489874
1746.871543
3343.231752
4478.976519
-6153.194637
-2249.788554
609.2886793
-1952.47706
-1631.249077
-3807.607065
-6428.361522
-7272.547413
-7482.4847
-1625.932802
-1773.259385
-1778.533431
-2272.299783
-1993.082566
-1940.080424
-7531.758027
-7577.894155
-6856.272637
-1601.141813
-1704.832197
-1715.367374
-1612.675811
-1576.28729
-8613.089311
-3626.793589
-2039.447904
-2112.039932
-2117.181687
-2363.032223
-2209.663355
-2177.716917
-5216.974529
-4696.082683
-5668.762657
-2512.247813
-2565.687851
-2408.167438
-2562.567526
-2088.730989
-4942.643319
-8586.017982
-8114.588055
-7963.879155
-8404.770883
-8419.88595
-3213.418623
-3246.981959
-3195.347191
-3525.565625
-3524.219299
-3496.376444
-3063.340432
-3209.767488
-3285.558746
-3900.348931
-3844.389247
-3899.45161
-1968.578624
-1946.363255
-1979.169896
-4271.683962
-4343.692182
-3955.345851
-4021.267088
-4045.724751
-4412.596634
-4427.284351
-4313.070001
-4453.096464
-4279.251325
-1980.97441
-2253.025937
-2298.964666
-2405.815259
-2356.541177
-2335.331904
4929.477475
5053.126132
4840.99058
-2473.762412
-2499.357435
-2413.621568
-2612.321661
-2554.779376
-2543.981068
-3377.852187
-2652.034969
-5812.597529
-6757.228357
-6769.371818
-6671.447866
-6718.479828
-7364.333163
-7183.738365
-7226.236945
-7100.834055
-7143.013601
-7317.843768
-5730.541087
-5644.486954
-5703.62704
-5517.42182
-5583.71343
-5669.780001
-7513.735332
-7305.436665
-7294.230247
-7268.470903
-7298.765264
-7515.141182
-5961.099507
-5873.644111
-5928.417972
-5762.46388
-5819.151724
-5907.867235
-6588.938032
-6629.984896
-6473.422407
-6532.969486
-1609.678951
-1775.119548
-1771.448045
-1761.781356
-1612.497056
-8479.912595
-8780.772001
-8348.266607
-8016.585826
-7574.306634
-6704.412248
-8381.26825
-8048.598162
-3674.565509
-3827.4023
-2176.251397
-2164.936825
-2171.402742
4570.097483
-2684.777974
-2611.94881
-2740.40364
-8322.562673
-8228.607247
-8640.319691
-7748.231583
-8091.596079
-8125.745286
-8448.896472
-8431.971863
-6953.996329
-6836.219396
-6875.766048
-6785.515694
-6800.826855
-6906.670403
-7158.06459
-7008.045821
-7055.5272
-6918.607582
-6962.180511
-7106.467296
-5189.815542
-5114.151458
-5178.773539
-5178.267117
-5253.340934
-4888.897244
-4918.573921
-4887.849625
-4987.63633
-5465.724345
-5506.769529
-5461.73238
-5376.335039
-5447.761386
-5246.117308
-5313.214815
-5399.592147
-3349.38157
-3259.132021
-3251.309979
-3273.275438
-3208.09833
-3267.189985
-3445.210738
-3470.354761
-3403.368746
-3738.622998
-3783.659448
-3808.832122
-7537.744155
-7330.170107
-7351.235882
-7300.04494
-7311.626593
-7505.701538
-7716.30485
-7761.758609
-7868.546419
-8179.255832
-8113.319104
-8226.059493
-8237.213928
-7886.029052
-7896.495691
-8068.60134
-8065.538817
-7830.465485
-6180.783788
-6086.27428
-6133.415185
-5982.569798
-6034.890491
-6126.249412
-6396.861133
-6304.968032
-6393.462427
-6179.820092
-6234.257725
-6327.992352
-4182.302051
-4218.47092
-4115.211191
-4081.418549
-4109.372304
-4622.117501
-4653.65468
-4603.621964
-4805.354844
-4719.145226
-4688.073687
-4371.650743
-4405.395636
-4375.1909
-4549.395867
-4495.400437
-4437.465496
-2912.290298
-2895.709041
-2961.174169
-2784.645157
-2836.660654
-2872.003121
-3096.985964
-3143.322175
-3008.844959
-3014.178657
-3025.804319
-1921.396361
188.3565843
178.2582199
130.8531784
-40.65958344
-31.69609736
-97.14260863
-255.0013658
-231.6591272
-303.9911189
-434.3740126
-404.2585155
-473.1242609
-571.3748961
-540.8110283
-599.451849
-669.0533112
-643.042427
210.6158824
192.342456
140.2225657
-71.98609801
-46.57540707
-139.8957703
-324.0887704
-267.9983144
-377.6964694
-513.5775814
-449.5741743
-551.1455097
-643.9785674
-586.2344495
-669.2324673
-730.1652945
-681.6071112
261.3238928
219.6814108
163.1398836
-134.3333354
-83.72576302
-226.1375364
-456.9780166
-349.8595864
-517.5564111
-655.1176991
-542.1829015
-689.1537606
-763.8965046
-668.7452628
-781.477178
-819.6137517
-750.1386
377.7570979
281.9693615
213.9131254
-282.4651839
-159.0235344
-421.9505856
-717.1824587
-505.984403
-780.1972524
-892.3609277
-704.2270069
-910.1804664
-934.6086287
-801.8660084
-936.5121325
-935.6377982
-846.2618533
628.0977973
426.4155753
418.9839929
-777.981935
-353.5727518
-982.0007338
-1241.840619
-816.4752656
-1260.397573
-1238.93326
-967.8601894
-1218.94642
-1150.967242
-985.3879301
-1128.629853
-1069.130222
-968.0242024
507.7693832
-953.8470281
-353.9365536
-1732.258241
-1671.233322
-1364.405363
-1986.3326
-1667.572332
-1342.409029
-1582.535156
-1377.891973
-1209.240923
-1324.0223
-1196.211832
-1102.609518
-3951.94196
-3199.94314
-2677.951509
-2607.016101
-2007.275642
-1769.793632
-1864.707965
-1545.723965
-1428.376995
-1466.550559
-1285.174064
-1223.378802
-4524.290882
-3709.131506
-3655.730133
-2687.083107
-2077.160852
-2053.14627
-1927.110625
-1585.497174
-1569.313797
-1500.092646
-1305.3031
-1297.535434
-3727.864846
-3227.081215
-3468.770108
-2319.163152
-1881.669144
-2049.121837
-1766.643003
-1493.878813
-1575.132809
-1422.844449
-1254.61329
-1300.046542
-2626.167812
-2391.209122
-2712.074635
-1765.438278
-1539.826886
-1804.911619
-1474.643313
-1307.99096
-1453.8427
-1261.450568
-1144.658848
-1231.566723
-1589.700125
-1604.723048
-1812.712415
-1445.707056
-1253.983231
-1111.205189
-4813.185151
-5384.277828
-5477.145257
-3606.107817
-4053.615587
-3720.273568
-4592.817802
-5020.770741
-4804.937495
-5482.575029
-5453.692027
-4932.084027
-3460.106555
-3690.100999
-3432.257417
-4725.946809
-4477.946003
-4212.419965
-2279.851353
-2336.143979
-2188.734647
-3277.770875
-3113.480125
-3004.689857
-2043.076172
-1898.829488
-1867.865379
2027.179328
3450.138307
4247.380756
1039.855043
-2529.586545
-215.8203623
-2610.003867
-2679.625266
-3135.004272
-574.0363848
-1245.36036
-1676.227916
-6575.734676
-6830.294257
-6908.527788
-4769.969225
-5366.073086
-4966.797826
-3618.445149
-3322.479976
-4147.180952
-2754.56702
-3079.380082
-3243.301537
-2575.729393
-2853.186525
-2574.006314
-6429.237793
-6579.525422
-6535.228924
-7042.956786
-7009.593471
-6836.418204
-3549.80009
-3676.529373
-4469.605762
-3006.807893
-3353.353958
-3284.005155
-3340.820314
-3375.151515
-3014.185693
-4665.171259
-4725.104874
-4662.058052
-5604.773933
-5546.551946
-5456.607008
-2823.703904
-3123.919796
-3593.142681
-2644.347048
-2878.533048
-2702.841836
-3176.963805
-3039.08092
-2772.892958
-3094.816388
-3144.991726
-3048.212135
-3791.491776
-3634.895631
-3577.772339
-1634.062833
-1687.181695
-1695.581315
-1858.003525
-1901.021186
-1626.523488
-2222.008663
-2132.979244
-2111.032177
-6900.513995
-7090.938016
-7072.215405
-6968.866619
-7019.072538
-6782.176829
-5063.966636
-5331.006957
-4694.381838
-6505.162404
-6112.8775
-6010.803787
-6306.534078
-6311.078293
-6732.269597
-5623.781933
-5717.410064
-5661.7813
-6492.167848
-6447.966294
-6305.659128
-5261.280014
-5086.529686
-4626.37898
-6078.944357
-5755.881164
-5845.67079
-5281.173119
-5377.698282
-5633.889735
-6623.289711
-6263.197306
-6290.476826
-5888.183125
-5954.823851
-6354.496465
-4797.861294
-5424.682704
-5309.021922
-3881.252145
-4002.475845
-3844.579227
-4600.378459
-4538.367259
-4488.333366
-4039.451351
-3776.308988
-3613.075471
-4325.566729
-4228.807976
-4333.322808
-3498.783194
-3767.655121
-4006.691139
-5254.340935
-5080.025786
-5181.786093
-4439.824454
-4547.846836
-4727.073708
-4067.035423
-4391.489748
-4127.763034
-2371.147278
-2401.642898
-2311.559729
-2952.59053
-2858.279192
-2816.856052
-1536.186637
-1581.456461
-6198.5417
-7090.57224
-6498.195786
-2031.773015
-2280.150515
-2490.787099
-2017.396708
-2132.228076
-1938.63752
-2517.271363
-2325.973334
-2183.154594
-2105.249413
-2159.595168
-2012.759919
-2332.543824
-2284.351701
-2275.29359
-5371.680797
-4488.887836
-3705.558091
-5881.054738
-5719.316677
-6117.108849
-4033.937828
-4470.852441
-4939.728867
-2417.14991
-2431.657625
-2381.295276
-2727.198318
-2679.788076
-2658.600186
-2639.610841
-2486.353266
-2421.813563
-2600.807022
-2553.414379
-2741.1153
-2233.894564
-2391.414102
-2514.56316
-3322.653635
-3157.537054
-3412.511741
-2825.665997
-3071.214136
-3229.263579
-2856.64591
-2953.245596
-2795.28911
1410.110757
-3462.624303
-3523.014973
-4135.011113
-690.5319306
-1569.97691
-2170.186605
699.3759484
-1208.57313
-444.4625933
-6740.937837
-7176.706467
-6388.777611
-7028.896629
-5902.803186
-5111.383672
-7780.454419
-7552.461683
-8096.997638
-5408.081152
-5892.688551
-6575.797424
-6744.934908
-6710.37202
-6577.700357
-6678.561485
-6821.802659
-6782.800256
-5106.918383
-5043.578673
-4972.902715
-5157.131769
-5235.216017
-5171.261144
-3341.758853
-3242.903002
-3189.121888
-3454.396449
-3420.966697
-3467.677857
-3109.691239
-3159.553295
-3185.750357
-3516.445848
-3568.601926
-3599.417065
-3478.944924
-3584.041923
-3430.474683
-1727.513866
-1737.796989
-1641.393892
-1962.565527
-1816.984084
-1821.504335
-7135.621278
-7125.836742
-6925.338136
-6917.042562
-7130.986919
-7136.365012
-6030.497677
-5981.898661
-5883.250757
-6032.628624
-6132.382536
-6079.185735
-5645.405368
-5729.214541
-6028.471329
-5333.899282
-5524.64228
-5450.063343
-5667.240956
-5598.750205
-5397.958236
-5039.818393
-5204.982668
-5115.834337
-5372.484318
-5290.656845
-5118.419272
-5685.112496
-5470.986063
-5560.37795
-6183.28372
-6226.816366
-6595.273215
-5707.989063
-5959.579383
-5925.499083
-6002.716295
-5985.710528
-5725.811135
-5562.83757
-5782.796438
-5730.237725
-5884.212643
-5836.093251
-5608.611258
-6385.662572
-6079.660152
-6133.600056
-4223.704441
-4055.036748
-3943.111963
-4202.391608
-4247.373406
-4191.754953
-2930.54891
-2900.040348
-3012.621319
-2710.057231
-2804.305098
-2883.014016
-2725.768584
-2765.515801
-2673.847158
-2802.455915
-2818.875399
-2771.372663
-3126.596924
-3064.474689
-3046.412531
-1545.957404
-2275.720966
-2290.118146
-2227.604439
2268.195632
3027.246715
1603.532379
3194.147628
2638.643457
4356.771198
3474.198162
-4457.361622
-4556.001212
-5344.20478
-1204.934414
-2032.927216
-2478.27559
763.1487322
-1627.675112
-412.3435338
-6642.64856
-6618.108269
-6464.32846
-6808.008602
-6975.355854
-6939.552069
-4853.174345
-4789.234255
-4726.058242
-4912.109534
-4849.29607
-4916.168422
-4718.529541
-4782.734258
-4836.145739
-5399.045997
-5487.301111
-5425.69077
-7102.842774
-7097.172697
-6907.714223
-6244.457082
-6189.603892
-6572.601657
-5539.333105
-5848.690826
-5912.531313
-5658.433902
-5764.669361
-5453.330448
-5720.591062
-6003.911291
-6008.912929
-5958.566065
-5987.759575
-5696.694381
-6736.844323
-6305.848005
-6287.354381
-5825.884798
-5772.054588
-5677.566699
-6257.693998
-6395.063707
-6331.953525
-4639.625515
-4590.14897
-4655.002479
-4466.647878
-4527.001728
-4573.865117
-4427.241783
-4477.876348
-4418.432842
-4024.67956
-4125.891321
-4216.815291
-3950.145259
-4037.602103
-3941.122206
-4234.370541
-4135.379346
-4042.678044
-4870.779551
-4976.286448
-5196.765241
-4695.979274
-4833.399128
-4735.390678
-5023.866429
-4929.563274
-4785.164685
-4324.435708
-4434.766915
-4334.327377
-4635.884752
-4535.429249
-4418.439816
-4786.234931
-4656.010857
-4763.832389
-2582.615564
-2491.857032
-2458.963156
-2542.657365
-2523.148074
-2616.332568
-2339.301002
-2431.064764
-2460.959423
-7139.81954
-7696.729175
-8129.849039
-2077.170746
-2092.853504
-2032.159055
-2173.990893
-2140.81273
-2124.683192
4630.429946
-2728.535439
-2701.940199
-2750.121033
-2590.481186
-2642.972161
-2657.822482
-2608.98902
-2627.593006
-2576.429428
-7406.417717
-7802.511977
-7924.394414
-7493.582336
-7659.837168
-7261.243425
-8021.172075
-8073.93885
-7696.47805
-6702.54324
-7080.947638
-7305.605425
-6525.263941
-6823.968089
-6474.309624
-7831.223489
-7267.793567
-6937.932597
-6547.771081
-6680.005331
-6661.946999
-6901.577658
-6861.761124
-6712.901867
-4982.921165
-5049.176571
-5122.974718
-4911.856508
-4980.570833
-4917.033995
-5362.281786
-5298.565482
-5218.597381
-3317.043625
-3371.636643
-3405.782276
-3310.858323
-3340.031183
-3287.884551
-3439.289986
-3389.572318
-3362.214989
-3721.304205
-3755.105601
-3703.481936
-3861.018855
-3807.621763
-3773.856835
-3510.873838
-3541.232157
-3489.477706
-3650.953175
-3595.723284
-3563.652818
-3656.386161
-3625.797813
-3685.866888
-1836.87463
-1899.004818
-1916.471509
-1874.260021
-1885.545442
-1831.382254
-1978.32295
-1932.980336
-1922.588619
-6923.305171
-7115.606302
-7108.748735
-7099.496137
-7120.018118
-6909.413565
-7595.106102
-7353.040617
-7337.047933
-7365.232619
-7365.367827
-7623.248187
-5833.578979
-5931.165882
-5878.900463
-6261.424064
-6193.893141
-6088.225354
-4145.925977
-4184.933628
-4130.052761
-4314.903032
-4245.370435
-4205.536189
-3938.070118
-3978.541623
-3918.165564
-4075.152516
-4032.043978
-3990.551561
-2932.066832
-2874.001062
-2854.449733
-2997.530469
-3012.026374
-2977.764185
-2500.676336
-2030.037216
-1974.487405
-1874.001863
-1957.000049
-2265.148577
-1414.275621
-1666.901242
-1640.215988
-1749.754719
-1566.628593
-1523.477774
-1925.215931
-1926.042964
-2079.133084
-1628.508152
-1776.041792
-1795.397644
2556.258821
2975.072137
1954.57957
3710.087742
3465.944282
3057.338108
4506.987822
3967.629746
4107.126979
-4393.560277
-4379.484751
-5923.07922
-1562.008404
-2507.577465
-3133.812917
358.1741127
-1264.034532
-564.7893647
-2151.709542
-2230.812524
-1800.522922
-3436.11595
-2734.732749
-2616.052039
-6706.840197
-6769.822507
-6508.464781
-7355.019829
-7045.541828
-6967.224754
-7183.725392
-7117.299984
-7423.494084
-1675.115792
-1679.721264
-1628.781609
-1777.538299
-1727.458286
-1724.349373
-1743.085305
-1734.273653
-1780.415212
-2178.505799
-2156.550077
-2247.883379
-1974.564854
-2065.433153
-2085.521251
-7564.140136
-7281.25113
-7239.147309
-7324.527659
-7307.899895
-7574.988168
-6807.907992
-7051.415586
-7080.552486
-1578.451194
-2316.470052
-2299.328295
-2347.1072
-2197.759878
-2249.018083
-2263.290821
-2223.997713
-2235.385113
-2186.287094
-5063.331469
-5371.128584
-5527.939512
-5916.246873
-5523.577404
-5292.124454
-2528.318208
-2480.975324
-2467.984449
-2519.918208
-2499.517192
-2545.487498
-2395.762631
-2447.584291
-2461.286162
-2478.100971
-2968.546768
-2996.228186
-2759.220059
-2895.928384
-2324.917464
-4309.601132
-3557.601055
-3593.192169
-3110.279956
-3134.437311
-3084.802285
-3235.719314
-3184.131595
-3161.563942
-3233.517806
-3209.764444
-3262.025914
-4360.821867
-4303.414641
-4259.451883
-4393.056914
-4349.652309
-4408.007762
-4235.148725
-4291.846916
-4334.72748
-3172.109857
-3839.643166
-3870.54904
-3447.71491
-3706.454823
-2956.695206
-5577.097484
-4582.906679
-4415.705625
99.26949298
-2.658065622
-1.958650843
-102.8798742
-199.3018387
-196.4424022
-289.7652972
-372.5876918
-368.1149064
-447.2052519
-513.3836633
-508.7059615
-571.2209933
-621.160794
-617.0157897
-663.9081552
-700.3131145
-696.6696997
-730.2288008
-754.8474901
-752.2219921
128.6618836
73.86434128
73.17686898
-85.45917943
-138.0576978
-134.1040861
-283.6314188
-329.1290618
-322.2747002
-449.5048649
-485.1696337
-477.031969
-577.0368356
-603.4606791
-595.9280289
-688.504172
-725.0594972
-709.8602118
-751.758552
-773.2077393
-761.8540834
-790.5487446
-803.9421096
-796.5024015
134.6522607
71.69113763
72.75106709
-114.6158547
-173.3995951
-161.342046
-334.395133
-381.8810103
-364.3763537
-505.8890441
-541.1182845
-523.5725487
-629.9630136
-654.106432
-638.4302778
-746.1205095
-771.1950319
-745.5551387
-791.2788822
-806.8206007
-788.3421226
-818.8621801
-827.3541189
-815.1943336
149.1602861
66.15744721
67.62534334
-175.4534256
-248.9120302
-225.0430572
-437.0822629
-488.3693675
-455.4523251
-611.0886371
-643.0281081
-612.2561742
-719.7560043
-739.6757535
-714.5088469
-828.6115919
-836.875598
-801.8048615
-846.0895996
-852.813291
-828.4177569
-857.3963638
-860.2669053
-843.4003244
184.0710539
56.88880922
60.30672469
-301.5003684
-401.5307299
-351.8114278
-627.5714998
-680.3005183
-620.9934688
-789.6175371
-811.9921152
-763.198482
-853.5726403
-862.1437742
-827.9363509
-934.3196975
-916.3706764
-875.056545
-912.2572152
-907.3416498
-879.3686952
-901.8337062
-896.9825936
-878.2464342
253.4101218
2.789865701
28.47737254
-623.4233844
-758.2578983
-636.5417859
-989.1110648
-1022.402568
-920.4461397
-1053.651118
-1051.912975
-984.139308
-1029.200209
-1019.926724
-977.7567532
-1052.115039
-1003.926812
-959.8124753
-982.7570696
-963.2779068
-935.6663883
-946.2653422
-932.1474602
-914.865744
472.1045405
131.8600559
168.0830424
-1599.223876
-1552.008192
-1401.808701
-1400.748881
-1353.235894
-1274.514482
-1229.266414
-1194.731513
-1151.413529
-1163.122036
-1086.287303
-1047.250012
-1045.738506
-1011.639768
-989.0204665
-983.7259827
-961.1069863
-946.2280252
-3450.123796
-3224.593923
-2974.957301
-2348.980517
-2160.456036
-2020.951797
-1744.515339
-1641.683612
-1577.313675
-1405.711726
-1345.935488
-1312.937884
-1239.476403
-1142.06023
-1118.4269
-1087.121181
-1042.033
-1029.689109
-1005.308054
-976.3413223
-968.9817044
-4560.399767
-4237.442148
-4212.56025
-2718.555395
-2469.827356
-2435.669458
-1927.030376
-1795.532029
-1775.126899
-1499.594777
-1425.83054
-1414.766112
-1256.236097
-1157.571885
-1155.59551
-1096.039618
-1045.82617
-1047.595649
-1004.843658
-972.403668
-975.0012113
-3985.246986
-3775.240744
-3877.860679
-2541.902291
-2338.988536
-2406.101528
-1870.082143
-1751.163882
-1779.517586
-1476.116874
-1405.896601
-1419.334377
-1210.677784
-1126.169582
-1147.572066
-1067.67041
-1019.551638
-1036.434411
-979.5639747
-947.7549876
-960.8456667
-2900.762324
-2798.682517
-2926.506868
-2051.653018
-1930.844871
-2047.559087
-1630.503387
-1548.924959
-1609.620931
-1349.704827
-1296.358572
-1330.003858
-1112.279704
-1053.34812
-1094.216694
-1005.55356
-965.4713872
-995.6362303
-931.4273031
-903.9309341
-926.5226741
-1837.512563
-1816.881024
-1931.252126
-1480.068031
-1436.793993
-1560.260164
-1310.764612
-1271.418109
-1343.512878
-1164.691941
-1133.202154
-1176.927176
-1005.387606
-930.130474
-875.1883339
786.2373425
-4162.054707
-4082.591616
-4418.536617
-3970.997513
-4053.352725
-4307.307642
-3053.871757
-3180.639086
-3317.460364
-1691.516907
-1697.685238
-1611.783783
-6547.007838
-6545.424489
-6720.157937
-6171.538017
-6043.545657
-6083.124349
-5389.61017
-5436.000671
-5529.485138
-6670.952754
-6517.596676
-6523.163778
-6120.071546
-6154.36068
-6289.592284
-3635.959341
-3731.140168
-3804.334245
-5366.796031
-5283.535483
-5331.719337
-1529.128958
-2059.475842
-2172.968327
-2225.09231
-4648.874786
-4391.729592
-4037.879815
-2775.542569
-2735.276663
-2822.182177
-2241.917869
-2318.718559
-2343.329141
-3512.426633
-3448.913989
-3541.718587
-2909.383446
-2997.357083
-3045.099496
1376.501594
1512.928202
1135.097697
707.1083729
224.1269837
262.5268683
-6050.058107
-5716.30865
-5254.760589
-5780.679205
-5820.619192
-5927.186466
-5783.611761
-5688.499536
-5728.365373
-6375.521631
-6393.980603
-6536.889949
-6445.260468
-6317.771627
-6337.73289
-4137.754908
-4083.722702
-4044.020657
-3028.606646
-3006.485561
-3058.286079
-2719.279455
-2764.975764
-2783.286448
-6526.969143
-6492.815483
-6723.109638
-6732.3238
-6560.573909
-6535.619212
-4951.977011
-5003.991097
-5080.391015
-4904.115113
-4838.352064
-4891.203793
-2639.192682
-2624.589535
-2669.371092
-2713.638114
-2446.784388
-2528.527529
-2090.390815
-2077.235423
-2154.577068
-1734.779699
-1756.912664
-1617.419202
-1899.044949
-2265.099223
-2262.062152
-3669.406667
-3294.590466
-3383.054117
-2025.431595
-2044.508502
-1956.680397
-4970.535175
-5184.889318
-4889.737413
-4778.674092
-4352.057947
-4377.969039
184.9140169
181.1303692
73.82269299
74.61046127
129.3177955
-36.01326694
18.39453018
15.84265834
22.55025479
20.95104738
-33.50265764
-151.295653
-143.2650719
-90.86696794
-244.5237294
-195.3977564
-204.6164789
-182.672089
-187.751682
-237.2819377
-349.7301834
-337.7689247
-292.8119657
-421.6784112
-381.5190516
-393.7605173
-364.4124792
-371.3874476
-412.0958015
-508.3421966
-495.2364636
-460.2904707
-558.625284
-528.5897439
-541.4952462
-510.5040753
-517.8944346
-548.8017328
-624.6069941
-612.6950614
-587.1885275
-658.1816642
-636.8119165
-648.1283343
-621.0983504
-627.4882392
-649.7594631
203.2417669
197.2354406
69.0500207
70.41577509
137.1164704
-62.0431345
3.637238877
-2.101294752
12.57663175
8.51968821
-53.64279727
-204.8579654
-187.7857194
-126.1639939
-302.1515933
-246.6650269
-266.4532734
-216.0532913
-229.9818085
-283.5882895
-427.0421961
-402.6490757
-354.2639078
-488.7993211
-447.5383214
-472.329833
-408.5652297
-426.3812531
-467.5655794
-585.1718094
-561.5233619
-526.7989064
-622.236811
-593.3643098
-616.0575007
-556.467994
-573.6259181
-603.1022682
-691.8139959
-671.8296369
-648.4076733
-711.9786271
-692.9756783
-712.1023303
-661.1961116
-676.0661595
-695.7869868
244.515409
230.8259837
62.7068919
64.56758494
155.4066811
-114.2413221
-26.00798051
-37.33472962
-8.801305484
-16.66134033
-97.63131934
-311.0649932
-277.2386059
-198.4586176
-415.4363398
-349.7433694
-388.1770631
-289.7981183
-317.2970783
-380.055242
-570.2716605
-526.397361
-474.2743122
-612.3713555
-572.2540181
-615.8233076
-501.0870464
-534.2257889
-574.9641497
-718.1543589
-677.9772058
-647.4222803
-728.7444646
-704.9664712
-742.7667499
-641.9884846
-671.4670887
-696.9746951
-796.182209
-766.8559388
-749.3837544
-794.717481
-781.8115738
-808.7864009
-733.4710644
-756.7873288
-771.6183912
338.7484982
307.3785316
43.03724655
51.62697418
197.7605838
-229.748328
-92.9498423
-125.3779862
-51.39162256
-69.32284523
-189.9653498
-540.4796139
-463.280098
-354.167945
-634.2488985
-556.4916073
-638.1553704
-434.0096874
-489.2569564
-564.3858585
-829.4499402
-749.618002
-697.8658294
-823.3410849
-791.091158
-866.3558554
-665.9307566
-724.1459618
-760.3252517
-922.0666898
-864.7174895
-847.3425707
-887.0696469
-877.5784545
-929.943658
-784.4038084
-829.1785313
-842.8258353
-937.2650104
-898.6485078
-893.7816926
-904.3943552
-902.0804855
-936.9323423
-837.8717949
-869.0268998
-874.6023922
568.2607584
488.8213477
-254.6019921
-41.50403001
274.9513288
-585.4814842
-339.0345747
-494.3434791
-171.5608679
-238.9399985
-450.4545424
-1114.337673
-915.0900378
-775.6345347
-1078.230307
-1013.249002
-1197.241838
-737.4500809
-860.5168037
-936.1664569
-1262.753038
-1136.071381
-1116.711936
-1142.263475
-1142.389773
-1254.381327
-949.5187843
-1041.233016
-1050.719361
-1196.918445
-1122.335497
-1133.93022
-1093.479071
-1108.434465
-1173.979894
-986.1730013
-1045.760714
-1037.949968
-1107.400656
-1063.344014
-1078.333771
-1035.236591
-1048.879144
-1087.506271
-972.9730446
-1010.513949
-1001.427019
-61.77946373
65.47795601
498.2298992
-687.1018723
-344.0312266
-564.1697919
-106.3815059
-203.1068775
-497.2222899
-1868.425419
-1709.694241
-1790.382911
-1560.059089
-1632.586078
-1762.583036
-1374.432296
-1501.653285
-1450.567086
-1506.422374
-1431.103095
-1492.83941
-1323.832451
-1374.821634
-1438.463386
-1241.141164
-1308.56943
-1267.199374
-1276.209104
-1236.608471
-1277.874322
-1166.696118
-1199.661353
-1233.779126
-1125.872843
-1163.473003
-1135.374132
-3656.644155
-3453.045698
-3717.680777
-3032.54949
-3228.531553
-3409.113665
-2371.828192
-2279.193325
-2495.062363
-1943.249181
-2097.51284
-2174.395284
-1886.816633
-2000.318944
-1863.006225
-1742.366884
-1697.508724
-1811.225889
-1513.775123
-1599.152492
-1636.937683
-1498.110767
-1552.167154
-1474.037101
-1397.672132
-1374.621473
-1439.441913
-1268.43453
-1317.989619
-1337.619355
-1265.372389
-1293.69713
-1247.737031
-4217.731751
-4238.302882
-4550.300825
-3700.348585
-3956.19526
-3947.053732
-3919.047313
-3950.878694
-3701.157734
-2452.342046
-2474.232523
-2719.098665
-2087.978954
-2266.210601
-2250.922309
-2228.597872
-2259.248134
-2080.197693
-1797.153629
-1802.875441
-1934.821806
-1590.56471
-1689.115026
-1683.883466
-1664.712958
-1682.331857
-1584.460317
-1426.033109
-1430.443993
-1504.949087
-1308.667414
-1365.422424
-1361.542774
-1352.18453
-1361.560208
-1305.471249
-3549.185258
-3665.117907
-3859.036529
-3308.801833
-3482.255312
-3380.716428
-3666.537147
-3578.849638