/*--------------------------------*- C++ -*----------------------------------*\
| =========                 |                                                 |
| \\      /  F ield         | OpenFOAM: The Open Source CFD Toolbox           |
|  \\    /   O peration     | Version:  v2012                                 |
|   \\  /    A nd           | Website:  www.openfoam.com                      |
|    \\/     M anipulation  |                                                 |
\*---------------------------------------------------------------------------*/
FoamFile
{
    version     2.0;
    format      ascii;
    class       surfaceVectorField;
    location    "1.73";
    object      Uf;
}
// * * * * * * * * * * * * * * * * * * * * * * * * * * * * * * * * * * * * * //

dimensions      [0 1 -1 0 0 0 0];


internalField   nonuniform List<vector> 
6464
(
(99.98246884 0.7662867474 2.464824814e-22)
(99.99796444 0.3913700592 0)
(99.99933423 0.4014546936 1.70589467e-22)
(99.99926762 0.8061586939 -2.648840219e-24)
(100.0008937 0.402286234 7.201490857e-22)
(100.0023861 0.3933372945 4.343072354e-23)
(100.0163275 0.7719379701 -4.693547537e-22)
(100.0035559 0.375879564 -7.908671532e-22)
(100.0044311 0.3518053573 9.302338611e-23)
(100.0269396 0.6764447421 1.562510521e-21)
(100.0050035 0.323018167 3.936413856e-22)
(100.0052552 0.2914797173 0)
(100.0302973 0.5510575815 0)
(100.0052453 0.2590915991 0)
(100.0051989 0.2272150915 7.303046465e-22)
(100.0280007 0.4246611133 1.517416988e-21)
(100.0054319 0.1972852698 -3.704341529e-21)
(100.0053685 0.1678246417 -1.371365877e-21)
(100.0244864 0.3085244447 3.017691883e-21)
(100.0047123 0.1416565131 3.017466698e-21)
(100.0035433 0.1192710441 -8.697487544e-22)
(100.0150483 0.2167890561 -5.944553995e-23)
(100.0008104 0.103196856 1.684530644e-21)
(100.0100342 0.1030884459 -7.624933189e-21)
(100.0561883 0.2518695007 6.060251826e-22)
(100.0195298 0.2223388623 -2.732328753e-21)
(100.0031561 0.1037580878 -1.613419725e-21)
(100.0073073 0.06068745455 -9.669331e-22)
(100.0396551 0.1569440415 1.530999398e-20)
(100.0062033 0.02866862064 -7.774995167e-21)
(100.030085 0.08496387419 -1.632567464e-20)
(100.0270176 0.02709720928 1.539124652e-21)
(99.88993381 1.689163742 2.090589561e-21)
(99.92191504 1.530475755 -5.026639586e-21)
(99.87284665 1.917052535 -3.377550185e-21)
(99.91026173 1.741550878 -5.41363414e-21)
(99.97475673 1.815550274 1.708254563e-22)
(100.0004686 1.6236774 -4.571064195e-22)
(99.97797853 2.041148063 -1.811696522e-22)
(99.99695064 1.839418447 -3.941871925e-22)
(100.0638152 1.781133953 -1.755933371e-22)
(100.0619013 1.565599353 -2.016919913e-22)
(100.0841971 1.973477995 -9.433871354e-23)
(100.0834311 1.757094162 1.541404861e-21)
(100.1312439 1.594044357 2.018330655e-21)
(100.101012 1.378534311 3.50311827e-21)
(100.1586022 1.740191286 3.519662923e-21)
(100.140705 1.532292077 4.930483035e-22)
(100.1583164 1.31685966 -6.002007797e-21)
(100.1130429 1.124775654 -5.622888724e-21)
(100.1846932 1.418524487 -2.016110409e-21)
(100.1582716 1.240100646 -2.005979121e-21)
(100.1511001 1.026401127 -4.924078024e-21)
(100.1007519 0.8688704378 4.564103258e-22)
(100.1687314 1.091031958 -1.337322578e-21)
(100.1449132 0.9536208902 5.46540585e-21)
(100.0988321 0.6121522411 -1.295518107e-20)
(100.1561498 0.8304201576 -1.295417448e-20)
(100.2220882 0.9051747002 1.312487534e-20)
(100.1377006 0.6985224829 -2.666051535e-20)
(100.1183953 0.5832131754 1.154712622e-20)
(100.165525 0.6265542534 -1.666448574e-20)
(100.0978948 0.484688994 2.338908434e-20)
(100.073333 0.426349902 2.601182866e-20)
(100.0950046 0.3010362914 2.270339611e-20)
(100.2133728 0.4728648255 -2.429299592e-22)
(100.1611337 0.5222567049 4.714251709e-20)
(100.0948436 0.414421634 2.589449041e-21)
(100.0704693 0.1777577952 -7.123551143e-22)
(100.1553426 0.2936762146 3.266554567e-20)
(100.0577236 0.08236769098 -7.583188455e-21)
(100.1200205 0.1588817573 -1.732512104e-20)
(100.1047111 0.05046723662 7.775129467e-21)
(99.69272655 3.155615096 -8.283409054e-21)
(99.59634373 3.32166259 -8.324394561e-21)
(99.62013165 3.606887334 7.580634134e-21)
(99.6652375 3.413889186 -1.804877357e-20)
(99.95829559 3.373404319 3.23197561e-20)
(99.91771892 3.59575135 -1.751809384e-22)
(99.9626975 3.855260534 4.498087182e-23)
(100.0052882 3.606090219 -1.742189099e-22)
(100.244288 3.242226986 1.495020164e-19)
(100.2476756 3.496727044 -1.571940129e-21)
(100.3290079 3.686810899 -3.938032944e-20)
(100.3175607 3.415873047 9.466471545e-20)
(100.4367907 2.829508493 2.470543809e-21)
(100.4796393 3.081222951 4.465955377e-21)
(100.5665605 3.201696878 1.606073814e-21)
(100.515487 2.942805935 5.299118437e-21)
(100.5045622 2.28064605 -5.618539648e-21)
(100.5711966 2.50038009 -1.296563588e-20)
(100.6488288 2.564864333 -4.56737952e-21)
(100.5731076 2.346150749 5.20480879e-21)
(100.5430248 1.898162173 -1.665182043e-20)
(100.4711919 1.722323629 -1.126242765e-20)
(100.6039787 1.925162851 -1.127761548e-20)
(100.5278536 1.75602228 6.078454323e-21)
(100.3935282 1.182238192 -5.119964072e-20)
(100.5212475 1.439533673 -2.677208069e-20)
(100.6157308 1.438270416 -7.757938978e-20)
(100.4614709 1.2031662 -3.602265826e-20)
(100.2979879 0.8127278707 -5.961647497e-20)
(100.4016215 0.9970344565 2.346668015e-20)
(100.4646053 0.9788985249 -2.827934979e-20)
(100.3441157 0.819682359 -2.475509044e-20)
(100.2664773 0.461257656 1.044905742e-20)
(100.4569367 0.6356054774 -2.564626689e-20)
(100.4197844 0.7631508956 -1.914042194e-22)
(100.3135397 0.6783863246 -1.475662979e-20)
(100.1989294 0.2712772022 1.527544161e-20)
(100.3341015 0.3909820365 2.728695904e-20)
(100.1620395 0.1252794432 -1.954428785e-21)
(100.2577658 0.2103594906 -3.955413364e-21)
(100.2228615 0.0663845563 0)
(99.3431889 5.174528338 -2.027326406e-23)
(99.14624654 5.362921691 -3.799559123e-21)
(99.24337025 5.78180981 -6.381938366e-19)
(99.34719708 5.531364645 4.483066056e-21)
(100.0740097 5.464533478 -3.616143553e-21)
(100.0033919 5.754155557 -4.253805247e-21)
(100.1603855 6.068165802 1.048730482e-19)
(100.2151581 5.728936523 -7.488444197e-21)
(100.7381719 5.098106112 3.745079426e-19)
(100.7568819 5.417868432 6.086272925e-19)
(100.9470625 5.595540736 -6.095634476e-20)
(100.8975379 5.252530951 -1.053912033e-20)
(101.111765 4.335227477 5.406907778e-19)
(101.1923799 4.637694846 -5.820342311e-21)
(101.3601477 4.711026463 9.089541594e-19)
(101.2506923 4.404489061 -5.568153432e-20)
(101.2085663 3.392645546 -5.890944258e-22)
(101.3222459 3.656978006 -3.673378202e-20)
(101.448728 3.655882688 4.323931505e-23)
(101.3146823 3.400735308 1.564336837e-19)
(101.2297975 2.691343429 0)
(101.112111 2.494842452 4.470296696e-20)
(101.3151429 2.663738781 0)
(101.184857 2.475585961 0)
(100.8880015 1.664215792 2.872302326e-20)
(101.1042293 1.948190591 1.85319419e-20)
(101.2071274 1.85014292 -1.693752548e-20)
(100.968206 1.607996442 3.606310261e-20)
(100.6664265 1.118862192 -3.319314049e-20)
(100.8380484 1.316161717 -1.482708722e-20)
(100.9002232 1.227326924 -1.497819507e-20)
(100.7175125 1.067021678 -7.153889924e-21)
(100.5092601 0.5603007073 -9.000619097e-21)
(100.7613072 0.7111751139 -1.957273982e-20)
(100.7777914 0.9038071565 -2.571185926e-21)
(100.6361958 0.8638888434 4.798212813e-21)
(100.3801302 0.3266719342 7.872040952e-21)
(100.5543883 0.4316290199 1.200212172e-20)
(100.307736 0.1496291904 -2.000630639e-21)
(100.424746 0.2291155361 -3.541680755e-21)
(100.3639757 0.07161971304 -5.113953172e-22)
(98.92143625 7.971646652 3.918529476e-19)
(98.53736749 8.240019278 6.863453641e-20)
(98.79590151 8.861475582 7.056374654e-19)
(99.03383255 8.488209457 3.601324334e-19)
(100.6624647 8.154983092 -9.2979389e-20)
(100.5524132 8.599985251 0)
(100.9389588 8.966974014 0)
(100.9954778 8.437117263 0)
(101.8914578 7.158177811 6.360556583e-19)
(101.9793923 7.591059535 1.673901679e-19)
(102.3406374 7.688281894 5.906032411e-20)
(102.190971 7.243220392 -1.299189174e-18)
(102.3757391 5.765594089 -1.678410032e-18)
(102.5518584 6.119789074 -1.585171497e-18)
(102.8249761 6.082133667 -1.571473557e-18)
(102.5980853 5.740558255 -7.464445993e-19)
(102.35518 4.367818271 1.286753984e-20)
(102.5552882 4.649274155 0)
(102.7205389 4.559054382 -6.297566055e-19)
(102.4942422 4.297161146 -1.708081626e-19)
(102.2231263 3.295623362 -7.046028756e-20)
(102.0348043 3.081719233 -3.842891001e-21)
(102.3161119 3.186674912 2.578145741e-20)
(102.1136333 2.995739712 2.240906659e-20)
(101.5676683 1.984580242 -9.43311224e-20)
(101.8816747 2.263732278 -5.986442962e-20)
(101.9619967 2.055820843 -3.365691893e-20)
(101.636712 1.843881581 -1.739172426e-20)
(101.1604821 1.298487758 1.162954495e-20)
(101.4061518 1.486646832 3.497053905e-20)
(101.4416334 1.327374675 -3.951746456e-21)
(101.1987236 1.187232362 -3.841547691e-21)
(100.7926333 0.5813245215 2.052365334e-21)
(101.0996757 0.6730592034 0)
(101.2009484 0.9413914576 -1.372154547e-22)
(101.0410044 0.9395234004 -1.051401204e-20)
(100.5863584 0.3313296046 4.517358671e-22)
(100.7901601 0.4017047956 2.052180306e-21)
(100.4698229 0.1495883359 -2.059959578e-21)
(100.5961766 0.2074253883 -2.062284353e-21)
(100.5050683 0.06388998667 -2.081011793e-21)
(98.01919801 12.27701053 -3.694257855e-20)
(97.25875088 12.65542604 6.164995757e-20)
(97.57432935 13.8094802 0)
(98.48571269 13.17997201 -7.337306113e-22)
(102.3089551 11.89860106 2.318554633e-19)
(102.1388434 12.74617863 0)
(103.0186045 13.09999705 0)
(103.0268231 12.11645417 -3.616139077e-19)
(104.2637731 9.237635748 1.782535957e-18)
(104.5330961 9.856502672 4.586386761e-19)
(105.1389899 9.715236604 9.458799959e-19)
(104.7481392 9.122557794 9.300059447e-19)
(104.4880128 6.826485434 -1.317648218e-18)
(104.8377648 7.200116069 -1.321797714e-18)
(105.1554229 6.977425035 -1.311862541e-18)
(104.75524 6.646439561 9.564304622e-20)
(104.0103187 4.930710353 1.094622819e-18)
(104.3352135 5.186335214 6.17951376e-19)
(104.4981528 4.966910851 2.833559799e-19)
(104.154795 4.752476197 9.640536014e-19)
(103.5492457 3.564103668 0)
(103.2660086 3.364377682 1.297610357e-19)
(103.6198478 3.363038821 0)
(103.3322766 3.197988673 -4.98747045e-20)
(102.3824764 2.052948508 2.735956202e-20)
(102.8024622 2.286274874 -2.740898286e-22)
(102.8155165 1.965826551 1.685694655e-20)
(102.4060188 1.824933489 1.254278273e-20)
(101.7296246 1.305720732 -1.655249772e-20)
(102.0467782 1.448558974 -8.46827731e-21)
(102.022391 1.226141487 -8.46991792e-21)
(101.7265295 1.13733763 1.30041345e-20)
(101.0807479 0.4999988197 0)
(101.4288341 0.5103626348 1.384325562e-21)
(101.6255199 0.8118594396 -1.144994152e-20)
(101.4726602 0.8860847737 2.831342327e-20)
(100.7857615 0.2756875979 -5.215515471e-22)
(101.0016817 0.2907572286 -1.634153679e-21)
(100.6201841 0.1213151099 -2.093720698e-21)
(100.7417562 0.1410929298 -2.38069164e-21)
(100.619486 0.04217620847 2.653099186e-21)
(92.7634997 20.89154802 -1.894759667e-19)
(94.02163271 20.65793355 -8.380871037e-20)
(93.0483158 22.55635682 -9.770009209e-20)
(94.63211735 21.96503165 1.722054962e-20)
(106.6374374 19.08734735 4.746426886e-19)
(106.8309798 17.51983428 6.300297158e-20)
(108.3718621 17.22056609 1.679078818e-19)
(107.3828392 19.9367155 -2.231820686e-19)
(109.2954273 18.80761306 1.681661313e-19)
(108.905522 19.5119191 1.686916682e-19)
(109.2454733 11.54908743 2.697291537e-19)
(108.5199831 10.74197662 -2.020344567e-19)
(109.9045631 10.84001485 -1.912392733e-19)
(109.0460475 10.2336584 -2.980666025e-19)
(107.4717791 6.999745711 6.155057327e-20)
(108.0732541 7.314481794 -4.493116275e-19)
(108.3314287 6.817315327 -5.351988512e-20)
(107.7041104 6.600811844 4.449859814e-21)
(106.1048663 4.74529936 -7.948546685e-19)
(106.567814 4.902208895 1.344773897e-18)
(106.6498522 4.536413632 0)
(106.188731 4.437202964 0)
(105.0639912 3.230405153 -1.758524262e-19)
(104.6927678 3.121641213 -1.739239079e-19)
(105.0537514 2.954518272 -1.742593057e-19)
(104.6939151 2.874908903 -1.778557162e-19)
(103.2456474 1.786326373 4.485621946e-21)
(103.774685 1.910202082 1.026987643e-20)
(103.6513462 1.507949482 -2.672326571e-21)
(103.1774697 1.479467282 -4.749367581e-21)
(102.3003253 1.081317571 4.72458189e-21)
(102.6690225 1.142887987 -2.12665526e-23)
(102.5606876 0.8762092995 -7.570995971e-21)
(102.2306415 0.866736709 9.581953419e-21)
(101.3259454 0.3088779348 -1.727865663e-22)
(101.6718079 0.2242137402 -3.152800265e-22)
(102.0018927 0.5095615066 8.358951988e-22)
(101.8718354 0.6237010072 6.929944421e-21)
(100.9425344 0.1562006164 -3.504306253e-21)
(101.1455763 0.09965230241 -2.468778577e-22)
(100.7296111 0.06298011453 2.597870219e-21)
(100.8296273 0.03211867635 -2.394721894e-21)
(100.6788777 0.007083332763 4.607995411e-22)
(122.1455655 23.16981988 7.308334736e-19)
(120.4767301 22.06468331 2.565287128e-20)
(122.8933597 21.36247187 0)
(121.2430758 20.64072006 0)
(116.212791 10.1347074 -8.36827404e-21)
(114.713494 9.691254002 -3.200725781e-19)
(116.2730926 8.701648608 -3.596521195e-19)
(114.8571903 8.573360395 -5.108959706e-19)
(110.8807179 5.5326341 -2.854181976e-19)
(111.7141762 5.581177059 -1.201667991e-19)
(111.6677485 4.856034522 -4.272858649e-21)
(110.8836265 4.926087686 -7.529274587e-20)
(108.2180353 3.506719563 3.903318342e-19)
(108.781678 3.483941309 1.294878942e-19)
(108.6902624 3.024131895 -1.430555905e-19)
(108.1687766 3.111971763 1.275790461e-19)
(106.479381 2.168620182 -4.177899664e-19)
(106.0554859 2.184173955 -1.004006615e-19)
(106.3460615 1.842019354 -1.968507386e-19)
(105.9542283 1.89651561 -1.05022886e-19)
(104.0060602 1.13350534 -5.216371659e-21)
(104.6015121 1.095757481 -2.533446596e-21)
(104.2894256 0.6744670249 8.442924886e-21)
(103.8074002 0.7947254279 1.223064137e-21)
(102.7710892 0.614905592 -2.024899645e-21)
(103.1584008 0.5677205902 1.45214518e-20)
(102.9367372 0.3036311575 5.335867549e-21)
(102.6190904 0.3918639182 1.05483776e-20)
(101.4746005 0.0189215881 -3.31236737e-22)
(101.7843018 -0.1656334746 -1.111363065e-21)
(102.2358406 0.0493385038 -1.132776967e-21)
(102.1675385 0.2274856393 -1.339842399e-21)
(101.0197712 -0.02244228654 1.122559443e-21)
(101.184485 -0.1555622386 1.387657892e-21)
(100.7687058 -0.02227993439 -4.480522821e-21)
(100.8294212 -0.1105731898 1.711114388e-21)
(100.6578453 -0.03887075892 -2.223612544e-21)
(135.8586825 8.051655189 -7.145677722e-19)
(134.1732807 8.855346399 1.362659472e-20)
(134.7109468 6.651850113 4.491970692e-20)
(133.3046313 7.492379748 5.617854942e-20)
(121.357836 3.593796018 -3.675634842e-19)
(119.7560556 4.152585726 -2.909618157e-20)
(120.3529369 2.317292587 3.676216133e-19)
(119.0739987 2.995237423 -3.726289828e-19)
(113.4251803 2.156958109 3.340458929e-19)
(114.2407363 1.791226124 7.548055289e-20)
(113.7558917 1.107887768 7.141979059e-20)
(113.0635025 1.525599643 4.440935256e-19)
(109.7245176 1.21555908 -2.667582777e-20)
(110.2501297 0.9567606862 -2.903945169e-19)
(109.9239073 0.528937125 -6.624251061e-19)
(109.4686919 0.8146510384 -3.611947556e-19)
(107.3897007 0.4579986024 0)
(106.98344 0.6270913069 0)
(107.1127904 0.1687241009 0)
(106.7584833 0.3478699568 -2.017401201e-21)
(104.4826268 0.1476150067 8.38031077e-21)
(105.0631603 -0.07342605805 -2.605913705e-21)
(104.5679598 -0.4273184849 -2.630160091e-21)
(104.1398791 -0.1626909363 -1.333283842e-21)
(103.0321626 -0.04994079947 6.114131416e-22)
(103.3970343 -0.2171385972 7.430824755e-21)
(103.0629007 -0.4329035264 6.081114664e-21)
(102.7912382 -0.2498698663 1.335186455e-21)
(101.4842582 -0.3358267282 5.890934225e-22)
(101.7208499 -0.6165626888 1.025966487e-23)
(102.2647725 -0.5112295334 3.928769593e-22)
(102.276938 -0.29474026 -6.010374314e-21)
(100.9871572 -0.2394542043 2.130625871e-21)
(101.0934706 -0.4479313085 -2.370938121e-21)
(100.7128547 -0.1251784245 4.232719966e-21)
(100.7215519 -0.2728399831 2.394385551e-21)
(100.5397359 -0.09128768704 2.102121466e-21)
(133.5830196 -8.190680002 1.145560029e-18)
(133.0006504 -6.963981477 -5.460437511e-19)
(132.2054065 -8.507217191 -5.579425614e-19)
(131.7255544 -7.342904144 -5.257252043e-20)
(121.3082241 -4.394505066 3.905482348e-19)
(120.3667596 -3.220532978 8.251043602e-21)
(119.858284 -4.902999785 1.100298172e-18)
(119.1712686 -3.847692321 3.759399956e-19)
(113.9248614 -2.156012309 5.866521541e-19)
(114.4598005 -2.810560445 -6.522632263e-20)
(113.7047808 -3.206958596 -5.757838693e-19)
(113.2802133 -2.577769062 -4.138973383e-19)
(110.0661801 -1.61218488 -3.038891371e-20)
(110.4220081 -2.042383108 3.054947885e-19)
(109.9408089 -2.31735641 5.754055079e-21)
(109.6235508 -1.900178154 4.359855137e-19)
(107.4962342 -1.558081413 4.652662906e-19)
(107.1809058 -1.268316423 5.610196007e-19)
(107.1084061 -1.74669224 2.313462326e-21)
(106.8433646 -1.47243391 2.276103981e-19)
(104.5367307 -1.024046406 2.237842949e-20)
(105.0164401 -1.402872923 -7.221608302e-20)
(104.3878872 -1.615164059 6.358697358e-20)
(104.0705176 -1.24217488 1.7859024e-21)
(103.0102005 -0.8297002784 0)
(103.3081463 -1.097627492 -2.160131256e-20)
(102.8881592 -1.224791633 0)
(102.6917893 -0.9675149091 0)
(101.3295074 -0.720439541 -2.948294042e-21)
(101.4680101 -1.072212327 -7.754262929e-21)
(102.0608304 -1.10226192 2.360464362e-21)
(102.1583636 -0.8749843636 -3.854633703e-22)
(100.8270229 -0.4739345341 -2.130929717e-21)
(100.86095 -0.7436300138 -1.666015573e-21)
(100.5476273 -0.2361778978 2.642685645e-22)
(100.4972747 -0.437533534 -1.438075903e-21)
(100.3169386 -0.1446918378 2.495801559e-22)
(125.0043704 -17.17110073 0)
(125.0745553 -16.17730911 0)
(123.9594332 -16.88462083 3.834269258e-19)
(124.0262761 -15.98647916 4.015006436e-19)
(117.5122777 -10.25779854 -3.216301572e-19)
(117.2767129 -9.069841794 4.912936934e-20)
(116.1792263 -10.12974471 -6.474000904e-19)
(116.0562973 -9.117389378 1.701008564e-19)
(112.4101218 -5.992066792 1.578370295e-19)
(112.6053761 -6.709831629 7.681784743e-20)
(111.8045938 -6.771617719 -6.124057607e-19)
(111.6767234 -6.124073693 8.380927281e-19)
(109.1685646 -4.270069487 -2.86775059e-19)
(109.3422536 -4.759712465 -1.26507129e-20)
(108.7823397 -4.838179785 2.194325941e-19)
(108.660682 -4.391152655 -8.000466267e-19)
(106.7796512 -3.454932535 -2.264853965e-19)
(106.5911205 -3.103736441 -1.07160318e-19)
(106.3335618 -3.510087933 0)
(106.1859171 -3.190449908 9.458854846e-20)
(104.1278758 -2.176946457 4.126794252e-20)
(104.4483258 -2.650623976 5.646523237e-20)
(103.7687669 -2.68885514 -2.0397506e-20)
(103.5881621 -2.266100688 2.035102532e-20)
(102.6880364 -1.604864445 -1.449646113e-20)
(102.8878769 -1.939599145 6.445735581e-21)
(102.4247424 -1.958357573 -6.864270971e-22)
(102.3182029 -1.657930321 -1.503883458e-20)
(101.0084633 -1.086500108 -6.524831258e-21)
(101.0404866 -1.482411009 -1.046860433e-21)
(101.636148 -1.645330257 -1.941584221e-21)
(101.8090771 -1.434433451 -5.661785957e-21)
(100.5371502 -0.6993306283 -1.209597422e-21)
(100.4958529 -1.010382785 5.394363948e-22)
(100.2707351 -0.3433405836 -1.460239855e-21)
(100.1615377 -0.5879940603 4.707512013e-22)
(99.99308298 -0.1937310813 2.495839851e-22)
(115.8676308 -20.45110599 2.740949524e-19)
(116.222902 -19.77033136 1.414748899e-18)
(115.1428977 -19.90603668 5.114974875e-19)
(115.4997704 -19.30373018 7.831768555e-19)
(112.339099 -13.21227488 -5.111035043e-19)
(112.5656753 -12.3095583 -2.917745055e-19)
(111.3305587 -12.72139369 1.997991925e-19)
(111.575205 -11.96697219 -3.879909271e-19)
(109.6574944 -8.555213455 -6.867199865e-19)
(109.5736757 -9.161806902 4.273886992e-19)
(108.8752342 -8.967283311 -1.502268429e-20)
(108.9812378 -8.441050445 -6.710279112e-19)
(107.3808076 -6.23558966 1.181018853e-18)
(107.3812785 -6.685418326 2.061015837e-19)
(106.8609135 -6.590819126 4.585334478e-19)
(106.8832914 -6.19228984 -4.126685374e-19)
(105.4296998 -4.89164885 1.848355674e-19)
(105.3659831 -4.544649892 3.734531502e-19)
(104.9929067 -4.82000668 1.832765793e-19)
(104.9510303 -4.509562574 1.059462059e-19)
(103.3280948 -3.134195589 -1.923614295e-20)
(103.4775586 -3.625306267 8.58191963e-22)
(102.7746765 -3.088399177 1.895451117e-20)
(102.102411 -2.274249721 -3.63346859e-21)
(102.1930535 -2.631883807 5.907624992e-22)
(101.7161249 -2.237072159 -1.965547595e-20)
(100.5442257 -1.395205031 4.250544183e-21)
(101.2668992 -1.913162165 -1.454584749e-23)
(100.1311917 -0.8930873825 1.962157074e-21)
(99.89190582 -0.4363068692 1.961934551e-21)
(136.8670723 9.598982271 -1.698192859e-19)
(135.1930879 10.40529097 5.578226479e-19)
(136.0514116 12.09553469 1.746484737e-19)
(138.1251013 10.78524687 1.162886482e-18)
(137.8617666 11.74446865 3.917094614e-19)
(121.1925741 24.77451252 -7.129846909e-19)
(123.0683101 26.19153818 7.315960946e-19)
(124.0800238 24.02473046 1.18541349e-18)
(134.9727599 -7.744360548 5.553149076e-19)
(134.3867894 -6.519858414 -1.138087972e-18)
(135.8311422 -5.945433456 -1.731788686e-18)
(136.2746298 -7.779788214 -7.103595797e-20)
(136.5890833 -7.080715963 -1.497465625e-18)
(137.3851334 7.119916386 -5.999390348e-19)
(138.7080731 8.114671366 -5.436037313e-19)
(138.5509822 9.073862098 -1.277238086e-18)
(126.0887315 -17.42116656 4.537663462e-19)
(126.1620949 -16.41260041 4.536200571e-19)
(127.2919382 -16.60646766 -1.181985258e-19)
(127.0233547 -17.84638266 8.265505239e-19)
(127.4156374 -17.53253482 3.021067771e-19)
(134.0349428 -9.403799525 1.277968075e-18)
(135.3038189 -9.511871665 4.165429897e-19)
(135.6531199 -8.860777786 1.132237011e-18)
(116.623849 -20.95577532 -2.665654585e-19)
(116.9769462 -20.28658179 8.815942036e-19)
(117.7779967 -20.75989592 3.644425494e-19)
(117.4029941 -21.51261276 -2.784261434e-19)
(125.9449488 -18.44326351 -1.073369723e-21)
(124.8880009 -18.13623118 0)
(116.224155 -21.66508119 -2.64376002e-19)
(115.4793759 -21.08791128 -2.330543298e-19)
(92.52227583 19.46305871 -9.463059368e-20)
(91.19012439 21.07719081 -1.104586579e-19)
(119.4446204 23.64470169 -1.380525032e-18)
(118.2945862 24.99208669 -1.412757675e-18)
(119.8170027 26.66871182 -9.762642348e-19)
(105.3542934 19.34400539 3.029818117e-19)
(105.4369065 20.19418001 2.427814662e-19)
(106.4380327 20.2509709 -1.620840327e-19)
(144.0684082 28.9720821 -1.078936305e-18)
(143.0231475 29.31326977 -4.176883542e-19)
(143.389512 30.11514493 0)
(144.4168374 30.02494774 -5.338774496e-19)
(124.0783771 40.60311989 7.500542257e-19)
(122.4360846 42.29728585 -9.21360325e-19)
(124.2663277 44.35458243 1.6393999e-18)
(126.0686796 42.09388555 2.620445871e-20)
(132.6477429 9.566558968 -5.483560417e-19)
(133.3712482 11.04219887 -2.400375196e-20)
(122.1739853 4.965504896 2.026308377e-20)
(120.5308367 5.563718997 3.574351913e-19)
(121.0934598 7.024755667 -3.523785257e-19)
(123.1394715 6.691209127 4.475896541e-19)
(115.9822045 11.4707311 3.268391108e-19)
(117.7644583 12.15244324 -4.638515654e-19)
(117.915362 10.36817395 -3.341665444e-20)
(147.7768713 -2.205018772 -1.544534527e-18)
(147.5628548 -1.683842928 -1.531341223e-18)
(148.0069743 -1.444931362 4.985126299e-19)
(148.2333064 -1.956052596 5.821123294e-19)
(149.7883918 11.55968745 5.589407242e-19)
(149.2788368 11.04484979 5.576459307e-19)
(150.2785717 11.06969991 5.817898436e-19)
(149.791663 10.57809372 -5.748515896e-19)
(132.4115237 -5.788247959 -4.947914444e-19)
(133.6864322 -5.308370352 1.157044766e-18)
(122.72947 -3.72472972 4.360525179e-19)
(121.773838 -2.513994915 4.228444329e-20)
(123.1112394 -1.644023674 4.368323113e-19)
(124.4187298 -2.936610448 -3.386576033e-19)
(124.1130416 4.308295214 -1.210424623e-18)
(122.8657458 2.773105162 8.722461451e-19)
(135.5871419 -19.05383309 4.165135246e-19)
(135.8004431 -18.6509085 4.66671664e-19)
(136.0474565 -18.76033543 4.149153899e-19)
(135.8869384 -19.13031921 4.230888428e-19)
(142.4235475 -12.41599467 -4.522132367e-19)
(142.0409836 -12.48674972 -1.919133014e-18)
(142.3992111 -12.91923092 -2.477303571e-18)
(142.0272414 -12.94880287 -1.467884315e-18)
(125.0920477 -15.2396302 1.603968897e-20)
(126.177962 -15.38392332 4.356594325e-19)
(118.9231927 -10.28456006 -1.014764508e-18)
(118.6696359 -9.066255212 -6.308602797e-19)
(120.1223915 -8.944270928 -3.033070985e-19)
(120.5211203 -10.35356922 -9.625894141e-19)
(123.7923084 -5.109710031 3.361883911e-19)
(122.0720812 -5.65111777 -3.838593398e-19)
(123.3761823 -25.03220406 0)
(123.6580991 -24.55961505 -3.447395297e-19)
(124.1023537 -24.83158289 0)
(123.7690979 -25.31919161 0)
(129.300046 -22.84533671 -4.388259269e-19)
(128.8091555 -22.64077636 -4.257027027e-19)
(128.5436597 -23.19666858 2.02027966e-19)
(128.8570768 -23.50514025 4.529937568e-19)
(129.1087581 -23.35426568 -4.546051879e-19)
(107.3586147 -30.79871575 -1.780026885e-19)
(108.6157724 -30.8954742 -3.066974087e-19)
(109.2709661 -30.82142485 1.223293706e-19)
(108.609355 -30.89878345 2.163111347e-19)
(112.2220613 -25.88939169 -4.107703472e-19)
(112.6822786 -25.57960563 -4.730644848e-19)
(112.8996176 -25.98137279 2.078908404e-19)
(112.5237721 -26.28620468 3.797687244e-19)
(117.7217711 -26.02105191 -8.018215455e-19)
(117.3374109 -25.68345105 -5.303822376e-19)
(117.3701241 -26.41308288 2.081030234e-21)
(117.025015 -26.06623242 -5.303321899e-19)
(149.2331431 12.01946034 -7.85557261e-21)
(149.7433551 12.55893781 5.538604299e-19)
(150.2836 12.07953322 8.530055728e-19)
(144.0238711 27.84875072 -1.432272658e-18)
(145.1811922 28.75507325 -1.086181655e-18)
(144.9255608 27.81421205 -5.459628325e-19)
(131.554765 19.18515624 -3.552739864e-19)
(131.3728743 17.18727377 1.454138318e-19)
(133.4112208 16.95578217 2.976539186e-19)
(134.2748981 18.72414426 -1.284588116e-18)
(133.5948351 19.55178598 7.620075592e-19)
(142.3003837 27.80406496 -6.243552117e-19)
(144.4856588 27.05800137 7.104428294e-19)
(143.6544329 25.67686064 -6.858768993e-19)
(141.9328225 26.02237753 -1.865930157e-18)
(148.7203585 11.50008459 -1.742723339e-21)
(148.1345819 11.941669 -5.52216217e-19)
(148.6514989 12.4632929 -5.639678522e-19)
(142.4267456 -11.95249471 1.48560101e-18)
(142.8102056 -11.86717752 4.921016791e-19)
(142.7977038 -12.37090129 4.821121896e-19)
(147.3269677 -2.425990402 5.125177618e-19)
(147.9837052 -2.711632521 -2.113044747e-18)
(147.5275944 -2.954327563 -1.516870461e-21)
(136.7758885 0.1050024321 1.100556676e-18)
(136.1533083 -0.4703144155 1.324770871e-18)
(137.4385278 -0.5113380167 9.980922838e-21)
(136.7426699 -0.9453841045 -5.016066503e-19)
(147.1194147 -1.919023439 4.985217881e-19)
(146.8822466 -2.646877272 2.257937491e-18)
(146.6703455 -2.159309441 1.465786003e-18)
(142.046136 -12.0139216 2.322249835e-20)
(142.0379483 -11.54851365 -4.742767746e-19)
(142.4256883 -11.47680025 4.829695928e-19)
(148.7851036 10.55049644 5.527838995e-19)
(148.2129128 10.96595566 5.414755875e-19)
(146.8846407 -1.432416095 -4.750740073e-19)
(147.3372048 -1.177860767 -2.028223122e-18)
(136.3053818 0.8416637585 3.366918219e-19)
(136.9849612 1.167611034 -9.857981822e-21)
(137.5811706 0.6173332405 5.427769412e-19)
(129.5609725 -22.28027068 4.241160869e-19)
(130.0596282 -22.4715833 -8.850303665e-19)
(129.6166786 -23.15372109 -1.230429009e-18)
(129.8693358 -22.99426498 1.765290678e-19)
(135.2315141 -19.00006006 3.383678863e-19)
(135.4505516 -19.41864083 8.423948292e-19)
(135.1875849 -19.34101477 0)
(130.8157367 -13.56225575 5.07366778e-19)
(129.5572414 -13.57800094 4.871577665e-19)
(129.6581834 -14.68776558 4.72157916e-19)
(130.6956493 -15.03582128 -5.954846271e-19)
(131.1132288 -14.57855832 1.213886507e-20)
(135.339895 -18.35981871 3.744221791e-19)
(134.9471464 -19.23460034 3.385531541e-19)
(134.5118382 -18.94477838 4.568438572e-23)
(134.6643931 -18.25045067 1.01549569e-20)
(129.0725872 -22.07283687 4.367139706e-19)
(129.2539609 -21.49408432 1.289910331e-18)
(129.8222938 -21.70334613 1.755615501e-18)
(141.6656641 -12.53686316 -9.272795437e-19)
(141.6634551 -12.07991723 4.91087273e-19)
(136.082445 -18.40147765 -8.656662989e-20)
(135.482551 -17.64912669 3.88022066e-19)
(136.2667183 -17.8950186 4.658345343e-19)
(136.0884995 -17.57007942 4.604211978e-19)
(130.6419072 -12.41620319 1.616808011e-20)
(131.9422314 -12.31055854 5.080384849e-19)
(131.9104024 -13.86410277 -2.799894024e-19)
(132.3209872 -13.35794283 -9.492269104e-19)
(118.0266808 -25.62807125 2.562745735e-21)
(118.420354 -25.95774348 -2.615756802e-19)
(118.0718212 -26.35926056 2.801046486e-19)
(122.9387256 -24.75419724 0)
(123.0422232 -25.5093727 8.815623863e-20)
(122.6537083 -25.21444022 0)
(106.3264328 -30.74916632 5.739717462e-19)
(107.5099844 -30.83934682 4.493341214e-19)
(104.5791054 -30.51669366 1.96189322e-19)
(105.7935617 -30.64482156 -2.311527499e-19)
(104.0327826 -30.26908671 -2.283343447e-18)
(111.8461866 -26.16771003 -5.905881493e-19)
(109.1105643 -30.78804738 -6.755986979e-21)
(147.2210664 50.83318509 0)
(145.9677774 52.90161036 -1.691518065e-18)
(145.4880881 53.55895589 0)
(146.2196544 55.18349622 0)
(121.5545403 61.73082875 -8.91917296e-19)
(119.0764147 63.30107801 4.104402176e-20)
(120.9509119 66.60513487 -1.411944268e-18)
(123.764751 64.14230508 4.515961981e-19)
(122.683773 -26.47846249 1.445283141e-18)
(123.9355385 -26.47635846 5.266711929e-18)
(122.7930753 -26.35961963 5.444111482e-18)
(116.7405905 -25.31011181 5.187290633e-19)
(116.5479051 -19.13819374 5.71174763e-19)
(117.3029521 -19.57141959 5.432115395e-19)
(113.4464422 -13.65610187 -8.08918724e-19)
(113.6648724 -12.73173294 -5.761100559e-19)
(114.8624826 -13.09672164 -5.666083447e-19)
(114.6581553 -14.21693628 -4.054801031e-20)
(119.1402547 -11.64469236 -3.292524352e-19)
(117.6245689 -11.4210964 6.26990864e-19)
(105.4782074 -29.690269 -2.51309463e-18)
(107.5685953 -30.04548085 6.42031279e-19)
(105.3678865 -29.5626829 2.177581899e-18)
(98.14119717 -27.77398218 4.094774824e-18)
(114.3778189 -29.06412602 4.160290028e-19)
(114.8664053 -28.67553482 2.44383739e-19)
(115.0935386 -29.07081116 3.76380083e-19)
(114.4338493 -29.38570557 -1.02989436e-19)
(114.6654251 -29.44270319 4.305857831e-19)
(117.3215508 -28.81895776 1.146663825e-20)
(117.1513773 -28.64697061 -2.011044516e-19)
(117.0672853 -28.98868944 -6.784093454e-19)
(116.9917449 -28.84524904 -6.588625363e-19)
(122.414007 38.85281216 8.598454382e-19)
(125.5247726 38.63034088 6.511204839e-21)
(123.8175683 37.37083632 2.845357141e-20)
(142.4399513 30.0751383 -4.173121293e-19)
(140.4800998 28.01249841 6.264726455e-19)
(140.7071707 29.8805051 -6.228304756e-19)
(129.455173 19.15482222 -5.001887649e-19)
(129.3640655 21.15615885 -4.562786342e-19)
(132.1705006 21.1082553 -1.006328787e-18)
(131.3295463 21.80506008 -3.334058094e-19)