/*--------------------------------*- C++ -*----------------------------------*\
| =========                 |                                                 |
| \\      /  F ield         | OpenFOAM: The Open Source CFD Toolbox           |
|  \\    /   O peration     | Version:  v2012                                 |
|   \\  /    A nd           | Website:  www.openfoam.com                      |
|    \\/     M anipulation  |                                                 |
\*---------------------------------------------------------------------------*/
FoamFile
{
    version     2.0;
    format      ascii;
    class       volScalarField;
    location    "1.26";
    object      k;
}
// * * * * * * * * * * * * * * * * * * * * * * * * * * * * * * * * * * * * * //

dimensions      [0 2 -2 0 0 0 0];


internalField   nonuniform List<scalar> 
3259
(
36.99512898
37.00045891
36.99483685
36.98566102
36.97513712
36.96630395
36.96072753
36.95718704
36.91083837
36.90944717
36.90878855
36.90842405
36.99500625
37.01155056
36.99856218
36.95649714
36.9045404
36.860834
36.81020388
36.79020222
36.73551309
36.73088369
36.72865225
36.72760683
37.03460569
37.06218156
37.04075196
36.97385689
36.87381529
36.77452741
36.68102633
36.63629399
36.56787289
36.5574646
36.55248921
36.5505005
37.17890815
37.19955359
37.15312895
37.05365738
36.91145129
36.75678939
36.59338372
36.50619492
36.41082108
36.39098759
36.38126792
36.37746684
37.51922
37.51228595
37.3986053
37.22702476
37.02429399
36.80259412
36.5723009
36.40961271
36.26975626
36.23164967
36.21406185
36.2072353
38.2854253
38.19619671
37.87543141
37.5483588
37.23415048
36.92012333
36.59724753
36.3544135
36.14507638
36.07861043
36.04942055
36.0379117
40.08094042
39.88839986
38.75154982
38.074348
37.56227028
37.11173826
36.66453898
36.34406681
36.0371034
35.93219446
35.8862511
35.86819172
42.6974326
40.19313894
38.82566328
38.01455474
37.37602721
36.77272262
36.35821084
35.94694329
35.79318617
35.72511372
35.69859948
47.2856299
41.98913708
39.74003429
38.55103556
37.69265624
36.90904186
36.38843963
35.87369926
35.66402946
35.56914589
35.53250533
50.51959323
43.63943971
40.67759973
39.12762642
38.03217507
37.05947608
36.42895363
35.81735764
35.54850559
35.42370138
35.37539283
52.1218176
44.89347407
41.53720504
39.68179169
38.36402224
37.20702909
36.47566402
35.77450711
35.44955224
35.29404681
35.23315511
52.80291873
45.76696017
42.24697339
40.16257386
38.65254303
37.33846672
36.52226644
35.74590966
35.36776877
35.18312936
35.10945763
47.80277695
43.06895433
51.38943117
48.25395695
53.07681615
51.69018707
53.75122074
53.18976317
53.79042538
40.03533251
42.58015737
39.81598891
51.34716954
44.67516138
46.77094526
42.39560277
40.73571557
55.5826602
57.19489308
50.22085925
44.44360498
42.9509957
54.56932483
54.02881798
51.99219871
45.93644286
44.88063637
55.95619659
55.15135952
39.337323
56.74089901
56.51714257
57.08629874
51.67755064
45.73860312
50.71910729
55.75074028
54.10699243
55.38708287
50.0121323
56.37126444
55.5687701
55.96540131
56.46033402
49.76881038
54.99959938
54.65313433
52.61380211
56.07986727
56.30807422
55.52787326
56.03814427
52.4267824
56.47713369
56.04241641
40.33403903
41.21670963
56.76703625
39.23687522
62.25144463
47.37000787
47.19494795
52.76374951
46.89715247
46.2327728
54.77548418
49.27331772
47.76568616
44.28811872
49.77775736
45.11776115
47.33240309
43.46212909
53.55048964
56.50864413
56.62017882
56.3349804
56.49582568
53.48182392
41.64566531
44.10975908
41.72771747
41.68533747
66.77501704
48.39437835
61.87190653
46.46611409
58.42689757
47.55005555
56.97315527
57.09143903
54.22648948
54.19195073
40.66498491
44.64848001
55.65904319
41.09637864
42.21427152
46.17327825
41.26108581
55.55715622
52.13500727
50.10800063
49.31855488
55.10993805
54.71978666
54.84535267
54.96055697
55.97960669
53.99809125
53.39366107
54.59992936
54.16663607
55.91716354
56.80583206
52.0422701
51.00589745
53.16214125
52.34814172
56.82981954
55.17116593
46.76935994
55.10656197
42.66596231
46.55011725
56.26588563
42.79390806
40.67095064
56.09574777
52.70787375
61.39166971
39.54126893
40.06887201
54.03866484
40.47817317
43.86093088
43.37166321
46.47203291
43.11461685
43.43027086
56.25209254
59.19190149
58.05546512
57.31804417
54.34838476
44.95853846
45.28091129
48.1428893
47.42518704
53.91986398
56.45077602
60.39755161
59.47879138
53.19913034
48.89325486
47.43436502
50.61966527
49.35158425
53.56537217
54.38502699
49.33388871
48.4826244
55.0690548
45.5066435
45.82053751
54.84273841
56.18944858
55.38526506
55.29387528
55.56127812
55.00374782
54.71473368
55.25455504
55.07585395
55.57386338
56.32084898
47.15538084
51.07227803
50.07901611
55.83466332
55.02260608
54.72477513
47.33171197
47.2609686
39.76559761
39.51329596
55.06090306
58.43024479
48.8088804
58.92326208
43.47758479
40.49179533
45.22184476
46.8344584
51.20992145
67.19746589
55.37705159
51.74292805
59.20861758
56.1908176
51.04358778
48.0185051
53.24274539
55.9748585
55.23391209
56.51250095
57.29702743
57.6884189
56.44009558
45.91991064
45.14365728
54.28847125
46.73506638
46.99432566
44.98956117
46.46830206
47.08325611
53.96887324
47.30882692
46.20956644
41.15232563
41.47412769
41.10611646
50.91557776
50.02759008
42.983281
48.13967792
46.68716035
49.6790954
48.61515596
42.30529602
41.85977317
41.28576041
40.1106055
60.09480551
59.59843407
56.13442117
61.26087414
62.09018411
62.25924163
61.01837061
60.13501865
62.33072832
60.8738859
53.4317516
59.04224132
60.1577753
50.49739425
49.51354562
54.4954204
55.08297108
52.03050045
50.87721263
44.39365488
43.74396269
46.26664487
44.85845483
47.19379026
43.680154
44.57984253
43.57376296
43.41380859
51.18802786
41.45493045
50.25535667
46.18105772
49.97656657
41.09218872
55.83625687
42.25310793
40.22102086
38.96986545
53.86293574
53.44259078
47.09135939
53.79223203
56.6302215
56.6145866
53.92078152
45.33911854
44.77102551
47.81709513
53.20396108
45.25128274
45.3870461
41.18845911
41.52888641
43.90673722
49.98052934
53.56058072
56.28847454
43.62773429
41.88690535
40.60823577
51.72305497
53.2811105
56.65549423
57.09107986
58.7636006
53.03446521
46.75539052
42.95804218
57.11713999
51.13976117
44.17854732
62.79111783
47.03988693
41.58366147
42.97919956
54.03697107
39.84391612
40.28094992
49.56684729
46.92813751
45.36355952
47.34107238
45.7922914
40.20739943
39.8127216
42.84867869
43.10881164
45.84577811
63.8811687
59.25482128
56.76884588
66.78481598
64.07646515
40.76923428
42.97522561
42.10524806
48.42161579
47.80429729
42.80516197
52.00036472
51.22202603
41.20921525
46.40644751
41.8213919
42.06558252
45.40000109
39.91321728
40.48741877
46.70356632
46.49859769
42.4398963
42.79935095
46.63792105
46.50314341
46.9868022
54.90769294
45.99737532
47.36298344
56.27070796
53.74956626
53.06247654
44.3566209
43.0142652
39.83265032
55.46516407
55.25343973
59.3730432
41.29212276
52.05377298
47.60610303
52.32147364
51.35465005
42.35955666
44.32835811
45.06323892
49.31993632
53.9174272
54.2902339
53.3415841
53.63257436
58.86134339
58.05002253
58.32625928
57.47961567
57.7681507
58.43106311
47.87848032
47.90149936
48.14743829
47.51227111
47.66467162
47.79066712
60.02841318
58.93645502
58.9478214
58.58262808
58.80606033
59.75437663
48.90455968
48.97332859
49.25300228
48.41890223
48.68562182
48.6677046
52.61681521
52.80277907
51.90262306
52.10093041
58.87864663
58.19396736
56.27319951
45.45745878
58.77810097
59.93943137
65.4569601
60.21476903
62.23083433
58.17562712
50.2909471
64.19414273
58.94930503
47.68534932
47.61101597
55.16053592
44.81838937
48.5581557
55.39598429
50.99682247
52.27828062
50.33670133
63.13157617
59.71198334
63.54655872
58.06998576
60.7426032
63.25952364
64.56870875
63.93650768
55.43002744
55.65110171
55.95770758
54.96150093
55.16927277
55.15261964
57.24941234
56.8907837
57.18971612
56.2792988
56.58293496
56.84342212
45.65053497
48.26991602
48.2529659
46.78550708
47.00779477
45.50082395
46.86025042
46.58746807
46.2845673
47.48276654
47.85430881
46.78162169
47.61875296
47.45682641
48.17537619
47.94761093
46.46090643
47.90106076
45.01496419
40.89284713
49.21667875
49.16337674
48.90834251
42.08868709
48.04777678
47.60081929
41.71242733
41.7042066
44.34500997
59.95153546
58.73149598
58.64084141
58.82164174
58.82737553
59.76995523
61.65083819
61.81740842
60.8452053
63.80229031
63.73988551
63.65087575
63.78619909
60.68588544
62.47481367
63.22989837
65.06971841
62.49978162
50.24576374
50.14598207
50.44786268
49.54724986
49.84411248
49.8379256
51.58109747
51.2612974
51.47084501
50.75105634
51.02732217
51.29118883
46.05576216
46.08259484
46.72209544
43.34515738
44.42707738
43.92507224
46.50362978
46.66932701
46.55811825
46.60662839
44.27951271
43.40102958
44.78152826
43.95368436
46.149133
46.12380705
43.34619169
49.53220948
41.49140734
42.24190492
40.46750467
40.85820211
50.05925279
49.01826124
48.647078
43.24574157
45.63936651
50.31807395
55.12889636
37.00661957
36.98227882
37.01787162
37.04137326
37.00985009
37.04367286
37.03378471
37.00608323
37.02543447
36.98285843
36.97084764
36.96454244
36.89710043
36.91772749
36.87334826
36.80802148
36.87106381
37.11270645
37.02199888
37.12947983
37.15463131
37.06052847
37.1523437
37.12995503
37.05021319
37.11543365
37.05286648
36.99425103
37.02638835
36.93121872
36.89965279
36.89584781
36.78820419
36.79520566
37.38834331
37.16036086
37.40676948
37.42042626
37.20197748
37.40345432
37.34789595
37.1703026
37.31944579
37.21435451
37.08276172
37.17314026
37.03644314
36.95052531
36.98773933
36.83645426
36.79356961
37.99378941
37.48505052
38.02017337
38.026137
37.51455992
37.94583917
37.78927622
37.43393438
37.72533796
37.52125651
37.27484916
37.45110781
37.24107354
37.07736727
37.17031127
36.95870949
36.85920145
39.7183418
38.21395337
39.75701486
39.52153249
38.20819886
39.17643612
38.65406405
37.95789485
38.48369621
38.04810241
37.62881798
37.91985347
37.57679735
37.31153789
37.46801063
37.15912935
37.00009639
41.2139613
41.28423682
40.08858758
40.68337014
40.0016124
39.53988661
39.78078399
38.85453071
38.22049539
38.62299619
38.04896705
37.68239919
37.88467586
37.44304802
37.22098166
44.44447135
43.09216928
41.81005586
41.53499838
39.89474323
39.08979808
39.52416759
38.65332347
38.19389925
38.41606937
37.79580048
37.52408063
48.72200716
46.10331363
45.00643349
43.25649434
40.98780313
40.15298323
40.48324741
39.30415384
38.80390474
38.98988508
38.18349976
37.88910186
51.27818303
48.25632441
47.5738825
44.60864629
41.96303927
41.22456764
41.35606325
39.93925143
39.45507157
39.55296771
38.56943674
38.27944517
52.46725839
49.47073841
49.13426898
45.55717164
42.7770002
42.17239481
42.09998326
40.4913548
40.0717748
40.05246209
38.91813109
38.66136738
52.95112507
50.54222704
50.42764182
42.93671879
40.61242832
38.99385364
47.06223852
48.42261062
49.58695399
43.34452205
44.14227819
43.696518
51.0493792
53.05124139
53.5138583
49.94806709
50.92968591
48.95371074
52.93321109
54.5749776
54.79856023
53.63773615
53.98109064
51.96555887
53.68409206
54.68471827
54.73029854
54.38980138
54.45963902
53.30125692
54.76139119
54.80365926
53.84421072
51.41913263
52.48065169
52.60296891
41.24180664
53.16204357
50.63654117
42.04219667
42.19668954
42.81445946
39.98152441
41.20028098
40.89426518
50.80585563
51.53124172
52.11672045
45.27209857
46.00815196
45.47544519
44.67047726
43.41527708
45.0128805
41.8382048
42.81706183
43.50061093
41.44636235
42.12314429
41.27543764
55.78289504
54.21405814
53.89170498
57.98608742
57.87998088
57.26605235
47.30771861
46.41448571
49.12800153
43.9826112
45.37630115
45.90480973
44.16713859
44.78980593
43.47563918
54.47861136
52.56344174
52.74695227
51.46016325
51.33384543
53.96527863
48.96426503
48.46898298
51.47935241
45.62826709
47.19823686
47.5211192
46.39081609
46.81164662
45.26504057
55.86037525
54.10920523
54.40234327
50.6179495
51.41749088
55.29583098
39.33163158
39.26632167
39.52180698
56.66541057
53.72138142
54.78595758
55.98774123
56.10912585
56.56591769
56.93875033
58.07339625
58.0563299
52.6943926
53.27647128
52.18229133
46.69275969
48.00344349
46.5134414
51.27762742
49.9246239
49.27862359
53.27035833
52.78666583
54.92444764
54.19132239
51.76232607
51.60715532
53.56538041
53.27734524
55.23051324
52.25596996
52.87869912
50.43302832
56.15441554
55.81830076
55.71584739
56.48757062
56.4471639
55.69327722
56.45385835
54.10565822
53.6886218
55.62851962
55.41676333
56.70467827
49.1310034
51.22008014
52.02827444
54.83244135
49.3072545
50.33974484
52.87233512
52.97548704
54.72118073
54.37359751
54.53700997
52.78894794
56.11700367
56.62606863
56.62991839
55.45592118
55.40150749
56.21588668
55.47842187
56.5450228
56.52082985
56.63389175
56.63541814
55.65996233
52.20575004
54.06900907
54.31415207
56.42557925
55.72958408
55.86753094
54.62185737
54.84330393
56.12673136
55.07625689
39.50728702
48.4914911
52.50237029
49.79446089
50.27944907
49.62381667
52.54096358
46.71194584
48.28778586
48.46677207
47.81854002
48.05972577
46.4734465
48.41830919
40.64569719
42.04375397
44.67392761
45.08492484
48.27542372
46.40213997
44.82660331
43.5480291
48.56317358
47.90758112
49.09718885
44.34226593
44.85206868
46.22735212
46.82726145
43.45987427
44.00227956
40.59546613
40.86959942
43.98504974
54.60746638
54.65351285
53.63359323
56.55465182
55.79108271
55.49424685
55.79583683
55.79171833
56.56458145
56.41630778
55.48652366
55.46768191
55.49865947
55.49349836
56.4381092
53.38743223
54.51090319
54.56500936
42.75219417
43.62446538
43.85867235
44.31441947
41.65184809
42.63736862
42.45193268
42.7599383
42.75614318
41.65071039
49.93257115
52.74196221
49.60664067
51.39001515
47.51313442
45.83623477
55.52537036
53.99687427
57.89993423
46.24589929
47.66690961
49.33761281
56.5896749
56.42588835
56.87339523
57.16325826
57.03597379
56.88444234
52.11814328
52.12728479
54.24319982
54.13421076
51.90710279
52.0662903
53.46026839
53.8118671
55.76248362
41.05221043
42.84266269
42.39740997
46.06328527
45.57341274
41.82190415
42.02199322
41.84298841
41.52195001
55.43052449
51.69647007
52.04915173
51.50453654
46.6885174
47.69046746
42.70611515
43.92117058
50.81371708
56.77500371
57.07332168
55.46538026
54.31117746
55.96110481
56.39996136
52.79123885
52.61943397
54.72754242
55.04552235
53.04150433
52.94402076
56.2548836
56.16337631
56.11020848
53.81010736
55.03951027
55.19735953
54.64428781
54.86300692
53.61318007
54.4661059
55.58793525
55.69266793
55.34061806
55.47151722
54.32641164
55.75091384
56.39571933
56.33187988
54.80153884
54.44572963
56.57516085
51.717365
52.95515298
53.28916922
52.20008916
52.59009915
51.37117159
52.90637742
54.16725508
54.42609923
53.61040235
53.89177757
52.63880098
56.76822525
55.37490215
55.06373084
47.81317838
48.88318249
55.50605986
55.04329448
53.48153532
53.60571906
44.33913067
51.83381601
52.21037081
52.84225787
52.38112798
44.92299604
56.19579092
55.0508781
55.24508425
42.30227673
40.30727927
40.38655338
41.45597594
40.95474748
40.70629474
48.63808271
39.67413378
41.99902768
41.03054181
43.20051434
44.0446
44.56445618
44.08275733
43.07525816
46.83534081
44.45786477
45.42716903
45.8510602
47.13252548
43.27668535
44.27998462
43.93761082
44.55067703
44.45976219
43.37432453
55.03977309
54.59065047
56.01452934
57.31871015
57.73436556
57.598025
52.23803205
52.39187186
54.38965703
44.92094654
48.6794314
48.40388794
49.53083538
49.09312972
45.04825294
53.92279895
51.23653199
51.22955871
57.85164407
58.02780066
56.72442355
51.18694966
50.54458422
52.21378222
48.41981099
49.32726734
49.8696554
48.20158115
48.78139576
47.93480174
50.21568761
51.3420315
51.78632956
50.38210592
50.87815662
49.79205508
54.59477534
52.29243729
51.74817227
52.09197607
51.9278198
54.28795004
55.09615185
53.01813305
52.88557965
45.63347379
50.02279133
49.83304909
50.29659282
50.16054155
45.72652474
54.78412828
53.04927864
53.13544997
56.61476926
56.61933947
56.14819189
55.35860502
56.22607636
56.2315524
56.19835436
56.21570461
55.33184457
56.58241755
56.56701418
55.4890537
54.91545498
55.93874342
56.00134028
55.78544982
55.86741477
54.82445188
55.20108746
56.14264557
56.17484956
56.05624976
56.10381566
55.14662109
55.62695089
56.61198432
56.60212844
55.42123736
55.58615831
56.37915035
48.16217305
53.65254453
53.31099003
54.33715287
54.0070391
50.38900776
51.15836581
53.99706367
60.1850586
39.61728405
39.61939253
39.46607289
40.24364781
39.81198404
39.5382465
50.30754413
42.12673687
40.10806627
40.26846129
40.07332194
40.05398671
41.18855303
44.71032703
41.28795945
41.75274687
53.93607092
56.43287143
58.29905569
53.79887661
55.6228522
53.1760902
59.22465699
60.67700845
57.45191413
49.71870486
51.31633132
52.91819688
49.0773012
50.31397532
49.07515494
54.88014824
52.11887608
50.97938165
56.70893014
55.99219901
55.58841832
57.41354422
57.26622477
57.25073224
48.30577462
48.2657205
45.37242547
54.27072687
52.13429526
52.16711612
51.36463298
51.63500101
54.0516045
43.79012853
43.35010239
41.07191365
50.65974275
47.43661621
47.88213543
46.35760462
46.91117782
50.32235718
47.66838432
43.49491055
43.96965322
42.84915465
43.07791309
47.13260735
49.36670218
45.29350773
45.78995271
44.44543244
44.85037706
48.95066246
41.91904317
41.78099991
41.74205358
39.42117778
39.58966497
43.42102473
40.96828762
39.40475374
39.49263631
39.38268586
39.36409506
40.38219445
55.8073161
57.36066185
57.60982119
54.9117203
55.45111365
53.87182145
59.62705221
57.60300825
57.05925335
58.43591403
58.09427136
60.0802473
54.6066243
52.44286956
52.26735777
52.94605151
53.04142516
55.09010667
44.08375392
42.80576481
42.59778778
43.47775475
43.1420303
43.89824004
45.86768049
42.66989024
42.73288802
42.52972314
42.58958628
45.38826771
40.36709914
40.29292728
41.80010241
40.84623332
40.67919893
40.48754773
41.5631606
40.78669335
40.97579005
39.75552517
40.16903517
40.79205944
39.2151698
39.6693899
39.33520356
48.63411918
48.7698502
47.23050688
56.70980527
55.80759308
55.79853263
55.83674296
55.81679841
56.58431188
44.99435857
45.97390342
46.40102163
45.37619282
45.90694393
44.7715113
50.75886887
46.97730694
46.98531101
47.97361678
50.77877993
57.96703301
45.33281264
46.36973147
46.05227636
46.69503088
46.64426581
45.36144089
42.17965821
41.96029365
41.45552007
43.23850861
42.47163478
42.65230679
50.42736099
50.96974084
50.50594301
54.54560852
52.54826156
51.80305998
54.02340278
53.24768487
55.36364065
43.03707258
40.40271375
40.81160315
39.70490712
39.97690631
42.42099748
39.90871486
39.24815704
39.31406909
52.26084587
54.89910672
54.62684215
55.36274928
55.14005325
52.79459898
57.82931838
55.41526212
54.71374436
56.54286704
55.96882594
58.24149243
52.54462239
53.82586276
54.37181813
41.40101253
39.90851958
41.82441681
41.48007746
42.90714959
42.49095596
40.05868464
48.60326484
45.92138358
45.81293442
46.40801254
47.02655292
47.62007627
48.08663349
47.13551966
46.49577212
42.30170301
42.85022132
46.31642467
39.98884668
40.31147211
40.15561984
40.92428243
40.64136111
39.87210951
42.8889024
43.25003718
43.13953004
43.54980141
43.49477906
42.999728
44.92476511
44.0079172
44.50517901
51.74933389
49.24925777
49.52276195
48.36511301
48.76218301
51.46435409
41.42852445
44.90309462
44.36423325
53.22734312
53.3480049
54.96825743
46.32050739
50.74129131
50.48409045
51.34107924
51.06374821
46.82949637
44.47289651
45.24253003
44.94951645
45.83998986
45.6179258
44.73424991
48.07656046
46.41188205
46.97810082
36.99379727
37.00259512
36.99949385
37.00465819
37.00225896
36.99925727
36.9927086
36.97858525
36.99043718
36.96118812
36.9441694
36.98034408
36.92827916
36.9143506
36.97042166
36.90314676
36.89218642
36.96331935
36.88406495
36.87794729
36.95877797
36.99864231
37.00673116
36.99991654
37.01868607
37.01882414
37.0115074
37.00497897
36.99684804
36.99379595
36.95681078
36.9384899
36.94405463
36.89013972
36.87387973
36.8931226
36.792052
36.76330112
36.82296511
36.74172264
36.7251661
36.7990865
36.71302976
36.7068596
36.78399944
37.0586641
37.07112151
37.04607893
37.08569941
37.08347583
37.06081533
37.06025552
37.0461834
37.02809178
36.9870939
36.96145591
36.94998366
36.87698445
36.84674312
36.84530353
36.75456203
36.67566896
36.71340577
36.62995694
36.59571019
36.6560929
36.57024074
36.55490267
36.62236026
37.23954421
37.25616602
37.19257137
37.25360411
37.24492399
37.19357766
37.19865126
37.17510547
37.1326539
37.08681425
37.05174976
37.02169261
36.93159997
36.88840486
36.87128704
36.78685667
36.66212894
36.65824822
36.57116814
36.50519191
36.54434097
36.45586407
36.42252297
36.47910274
37.65383636
37.66200929
37.53185487
37.62353717
37.59076093
37.49701262
37.48885836
37.44353274
37.36028567
37.29132615
37.23758636
37.17868125
37.06645711
37.00761447
36.97009435
36.8868793
36.69944913
36.67407452
36.57998254
36.4669509
36.47878134
36.3785519
36.31611714
36.36002015
38.61342563
38.61650914
38.30818472
38.42842902
38.32401447
38.1421511
38.04908461
37.94897794
37.7918769
37.65795731
37.56773035
37.46840664
37.3020478
37.21771909
37.15605873
37.0608705
36.79469275
36.73906219
36.62597311
36.47824349
36.46961213
36.34376178
36.23999012
36.26819361
40.39376654
40.43737049
40.18159178
39.0558811
38.81863021
38.55438348
38.24517295
38.08499924
37.93684315
37.66088067
37.53352904
37.44673661
37.30796022
36.94261479
36.86167985
36.71482446
36.52092193
36.49616935
36.34875109
36.19579831
36.20926508
43.24969087
42.94080435
42.46005569
40.6311776
40.1212553
39.75446661
39.06021404
38.79586464
38.5938128
38.14201884
37.95592584
37.84547667
37.61199745
37.1360835
37.03279324
36.83878348
36.58749876
36.55127005
36.37208062
36.17545825
36.18012618
47.7985279
46.90194314
46.44677748
42.42772635
41.61377488
41.23913407
40.00132091
39.61734528
39.38807229
38.69855356
38.4448429
38.31659823
37.94787194
37.35737455
37.24317761
36.98412224
36.67147819
36.62724698
36.40827062
36.17524386
36.17325231
50.7976231
49.71559489
49.43666456
43.98651392
42.97437388
42.65818205
40.94068985
40.44884829
40.21613685
39.27128601
38.9491238
38.82495916
38.28457215
37.58051433
37.46837684
37.13491821
36.76397957
36.71648398
36.45314971
36.18490878
36.17925155
52.25503747
51.21600268
51.07107715
45.13116217
44.04454592
43.80492531
41.75731775
41.19044481
40.98499347
39.80904329
39.42781548
39.31795932
38.58821721
37.78394362
37.68499454
37.27591513
36.85456268
36.80878085
36.50190228
36.19810006
36.19189634
52.86624897
51.89593045
51.84884118
45.90782028
44.80856943
44.65918919
42.40671207
41.79783377
41.64090031
40.28183188
39.85294981
39.74582845
37.87274882
36.89445212
36.20623223
40.40591561
45.97894694
45.48657491
46.1924453
49.14662787
48.82656747
49.89236996
50.93875492
50.76891643
51.83389789
56.70940668
56.53129943
56.60060035
54.72701214
54.46893949
55.51018072
56.28946706
56.51406676
56.51991505
56.26217992
56.272472
55.60184311
56.14499001
55.152901
54.92693082
56.52902843
56.53218082
56.54572549
56.59101102
56.5952732
56.28421505
55.50469922
56.2394696
56.24576923
56.65137681
51.77514181
51.71729588
52.68871047
44.9575386
44.5279833
44.07867764
56.53043758
56.54611088
56.53932129
56.48157319
56.49208464
56.59742954
56.36462518
56.57757233
56.58204506
56.54535503
56.54839721
56.47678053
41.62404139
41.92453171
41.95817366
41.94154156
41.96027816
41.73103416
48.12251456
46.79078571
46.02813264
56.42010033
56.44072616
56.0290358
55.86213694
56.37389443
56.39692637
56.09778504
55.9634907
56.75322151
56.8252993
56.31808382
56.20576667
53.73826631
53.81749532
55.22271193
43.16728548
47.12386349
46.67381641
49.64080152
49.27210703
46.04114932
52.66544313
52.38457623
52.82753124
53.91421817
53.20066089
52.89049069
56.25816751
56.24538323
55.53483159
55.59327461
56.2815235
56.2660437
47.52631365
50.37203384
49.99969425
42.03545002
41.60990169
41.76939988
56.65121999
56.46197923
56.4711982
53.87807722
54.83572814
54.87019735
41.29374742
41.81038932
41.66948034
43.62553035
43.220576
43.3495309
56.59549359
56.20756563
56.31333619
45.83200448
46.41605464
45.88502402
45.58302333
44.92231513
45.04929246
36.99501396
36.98691895
37.02754143
37.0153707
37.00659268
37.02695073
37.0215203
37.0353792
37.0065611
37.01254085
37.01671383
37.04293374
37.0291201
37.02931917
37.0211571
37.02685393
37.04012528
37.00970469
37.01688469
37.01189425
37.0139789
37.00345464
37.01367503
36.97535404
36.99089545
37.00015327
36.98080292
36.98461015
36.97178161
36.94264344
36.93919314
36.95918582
36.89740963
36.92010243
36.92173557
36.93019303
36.92254291
36.9051449
36.84909441
36.85908135
36.87930176
36.82459602
36.84234543
36.82860717
36.88131268
36.8602775
36.8460805
37.07335486
37.04375323
37.14349193
37.1022757
37.08981776
37.11646343
37.11206679
37.15264492
37.05479243
37.07984741
37.08523382
37.14786771
37.1127029
37.11586599
37.09745188
37.10715566
37.14101003
37.05735913
37.07922878
37.07106897
37.09753988
37.06908537
37.08489979
37.02870685
37.05052358
37.07678885
37.0128976
37.02945858
37.00937485
36.9968694
36.97702625
37.00446696
36.9162116
36.94787551
36.96534664
36.92607427
36.93479775
36.90566623
36.85944911
36.85114281
36.88407249
36.78616875
36.81905036
36.82339824
36.81944682
36.81713086
36.7879783
37.29256434
37.22230428
37.42038433
37.32877242
37.31608406
37.32888458
37.33003963
37.42722614
37.20035639
37.2626278
37.26033928
37.38658827
37.31570398
37.32570493
37.27823893
37.29911998
37.3709272
37.18417652
37.23427288
37.21866651
37.28734092
37.22649589
37.25399009
37.1627753
37.19611885
37.25216263
37.10926302
37.14854571
37.11901014
37.12899427
37.08833873
37.12687144
37.00221278
37.0465777
37.08350855
36.98750148
37.01438686
36.97396604
36.9378193
36.91069826
36.95701474
36.81725545
36.8639824
36.88718005
36.83201084
36.84565853
36.80375651
37.76354782
37.62730607
38.02981458
37.839509
37.81775961
37.78858275
37.8124088
38.04530175
37.52242282
37.67316124
37.66298839
37.88568839
37.75997749
37.78634946
37.65122454
37.70401883
37.84564435
37.46658494
37.56673775
37.5307791
37.65953484
37.54181748
37.59761655
37.42638284
37.48494855
37.59142139
37.31943023
37.39511362
37.34403527
37.38221311
37.30456175
37.36574968
37.17927686
37.2425313
37.31235119
37.12911658
37.18226504
37.12464717
37.10010531
37.05107946
37.11564725
36.92029571
36.98600352
37.02975089
36.91507348
36.94811236
36.88805852
38.97153347
38.58016316
39.79691498
39.08847855
39.07765326
38.87926579
38.97362814
39.65093749
38.25741973
38.63745971
38.58586793
38.99002709
38.70400596
38.83656448
38.38517994
38.52619004
38.83566519
38.04358726
38.2490732
38.15132538
38.32845846
38.1232098
38.25199866
37.88974147
38.00265803
38.18465916
37.70952114
37.85021769
37.75240705
37.80128591
37.67646443
37.78191044
37.47832663
37.57499244
37.68830587
37.38944603
37.47930403
37.38995391
37.36350012
37.28915346
37.38361345
37.10075229
37.19485271
37.2607004
37.07794291
37.13408169
37.04928407
41.26127702
40.8867576
40.84746403
40.80634926
40.85100056
41.34774683
40.15469146
40.51163444
40.48299829
39.42013844
39.1024387
39.40204441
38.62162561
38.84562762
39.11576143
38.37820122
38.60822237
38.41915937
38.41473083
38.24015286
38.42079309
37.91925353
38.074548
38.22477289
37.80682693
37.93585469
37.79493594
37.73034644
37.63173773
37.77193058
37.36248791
37.49511058
37.58406834
37.33304651
37.41032169
37.29008967
43.96408482
43.4379169
43.79460099
42.600006
43.00314408
43.46799794
40.86535423
40.48387559
41.08112089
39.60577028
40.00347623
40.33184536
39.39373183
39.70547309
39.3591433
39.20038251
38.97487415
39.26691941
38.48385932
38.71725959
38.91275621
38.38567673
38.55842351
38.34185608
38.19648871
38.06885557
38.26898597
37.6998758
37.87970326
37.99039426
37.68163427
37.77965098
37.61195363
47.74333113
47.32768844
48.26489012
45.73943716
46.4830677
46.86357252
45.68130824
46.09452217
45.41229697
42.32795457
41.9737842
42.85581216
40.69559136
41.27202735
41.5890729
40.64277733
40.96842874
40.44285544
40.04156368
39.80202989
40.21116424
39.12766482
39.44647832
39.65114961
39.0805089
39.27807373
38.97438644
38.70164839
38.56956064
38.83762538
38.08373188
38.31905824
38.4339586
38.09654504
38.20838959
37.98657858
50.20013817
49.96133249
51.04607982
48.05317361
48.9586801
49.19394759
48.45311197
48.72293147
47.81297951
43.54430589
43.27111096
44.31938361
41.72499761
42.42403451
42.68119406
41.87246525
42.1621972
41.49850407
40.83066904
40.61848735
41.13100054
39.77243392
40.17042016
40.36303932
39.81521927
40.01182352
39.62367069
39.20025145
39.07681324
39.41130962
38.47406485
38.76521227
38.87363604
38.54298871
38.65134701
38.37452804
51.44339061
51.31618315
52.35377206
44.45959432
44.26126101
45.36969437
42.5687526
43.34221632
43.5510359
42.91434633
43.15457487
42.40511832
41.50110334
41.33767094
41.91010019
40.36233618
40.82573693
40.97092026
40.50087897
40.68829962
40.22934129
39.64684895
39.54572477
39.93832933
38.83754611
39.1798738
39.26942831
38.9786795
39.07462538
38.74634449
43.72780092
43.88569684
43.09356893
41.10208792
41.24644463
40.74394028
39.35744025
39.45186334
39.07373181
48.82272921
48.10847134
47.68871527
48.78776038
48.40870398
49.21357932
53.22065688
52.22632332
52.04609659
52.55076707
52.39211737
53.36574697
50.29156334
49.42757196
49.08168254
50.01863171
49.71076057
50.61989636
54.61905693
53.90357888
53.86058001
53.76635101
52.83562238
52.69829045
53.08599567
52.9661385
53.8701831
40.77407069
40.41442621
40.36649816
39.97404936
41.0803814
40.64483787
40.67351728
40.46208029
40.54177291
40.98585605
44.22592047
44.82074404
45.26167333
43.91871955
44.37872623
43.89064509
45.64262384
44.99018724
44.47140769
47.02751898
47.87234526
48.17837721
47.2150122
47.55885132
46.73680504
49.53778032
48.49399045
48.12654136
48.8280207
49.75705204
49.92971003
49.3906556
49.59366027
48.63925488
51.67184679
50.60447589
50.401992
50.88419758
53.13904628
53.0000931
53.45322339
53.31354101
51.17768312
56.39234286
56.47403632
56.6868222
54.11709216
55.75144371
55.56118327
56.06710399
55.91433028
54.47312141
47.13571595
46.6310299
46.14493018
47.38342527
46.93472832
47.57933694
55.22942883
54.24584613
53.96046099
52.48055192
51.46740597
51.24388756
51.86093724
51.65317587
52.67820619
56.49434491
56.49585245
56.20884438
55.86062579
56.22287575
56.33820265
56.10203255
56.18281258
55.76390778
55.65268629
56.29299312
56.30740985
55.52361339
55.32702194
56.30985716
55.56391614
55.92235136
56.02531943
55.65925661
55.8057687
55.48266002
56.62840858
56.53331061