/*--------------------------------*- C++ -*----------------------------------*\
| =========                 |                                                 |
| \\      /  F ield         | OpenFOAM: The Open Source CFD Toolbox           |
|  \\    /   O peration     | Version:  v2012                                 |
|   \\  /    A nd           | Website:  www.openfoam.com                      |
|    \\/     M anipulation  |                                                 |
\*---------------------------------------------------------------------------*/
FoamFile
{
    version     2.0;
    format      ascii;
    class       surfaceVectorField;
    location    "1.63";
    object      Uf;
}
// * * * * * * * * * * * * * * * * * * * * * * * * * * * * * * * * * * * * * //

dimensions      [0 1 -1 0 0 0 0];


internalField   nonuniform List<vector> 
6430
(
(101.4937585 -0.4160602362 5.882974919e-20)
(101.7306844 -0.2152378909 3.507478153e-21)
(101.4040507 -0.8429779221 -5.37234324e-20)
(101.6749616 -0.6504082263 5.536877884e-20)
(101.2471279 -1.290935143 -1.034158731e-19)
(101.5667919 -1.0988266 -1.115427657e-19)
(100.9187852 -1.744239537 -1.520655723e-21)
(101.3868656 -1.592369741 -2.157718597e-22)
(101.0854573 -1.798117282 3.202133431e-19)
(100.6910948 -1.811033692 -8.779909808e-22)
(100.9205556 -1.91009304 2.234935918e-19)
(100.7075915 -1.985707531 -8.810802538e-22)
(100.2486605 -2.340380305 0)
(100.5008242 -2.264200485 0)
(100.5347623 -2.471972066 0)
(100.2627425 -2.564646304 0)
(99.69687008 -2.98408715 6.417132784e-20)
(100.0017868 -2.892493576 0)
(100.0410783 -3.153538539 -3.461879451e-19)
(99.64300073 -3.224382123 -3.028096683e-19)
(99.76761523 -3.284579523 3.115180241e-19)
(99.02778597 -3.661716601 4.548187573e-20)
(99.23602262 -3.610127468 -7.466119061e-21)
(99.229303 -3.760360724 -1.488945555e-20)
(99.00346702 -3.823144625 1.512107675e-20)
(97.83373661 -4.60991815 5.282305021e-19)
(98.12942499 -4.543270786 -5.004778311e-19)
(98.0953967 -4.731900611 -4.944021181e-19)
(97.78353992 -4.815762682 -2.637959398e-19)
(96.21374145 -5.845208299 2.885237787e-19)
(96.59921247 -5.753031988 2.688486201e-19)
(96.56036366 -5.99371309 2.665447956e-19)
(96.15804945 -6.109974732 -2.861996222e-19)
(94.24092129 -7.462384048 6.971314159e-19)
(94.71382893 -7.327202141 6.237528826e-19)
(94.6857615 -7.660741521 3.208543853e-19)
(94.10791793 -7.756521415 7.829440047e-19)
(94.26669696 -7.808067444 4.026742395e-19)
(92.32280184 -9.257807543 -7.208682096e-21)
(92.46684795 -9.238079414 1.917878723e-19)
(92.447349 -9.337619175 -4.986645164e-19)
(92.32002169 -9.366053155 -2.566327262e-19)
(101.9078328 -0.4487267449 0)
(102.1522178 -0.2284194362 0)
(101.8338021 -0.90942909 0)
(102.1077212 -0.6913705018 0)
(101.704192 -1.394754577 0)
(102.0227062 -1.166922824 0)
(101.4177307 -1.896070676 0)
(101.8794783 -1.685054212 0)
(101.597857 -1.942221251 0)
(101.1899538 -1.994630439 2.236749484e-19)
(101.4470562 -2.059772966 0)
(101.2348504 -2.169773796 0)
(100.8202369 -2.582622731 0)
(101.0627621 -2.474012561 0)
(101.1272799 -2.667593387 0)
(100.870033 -2.800845165 0)
(100.3777584 -3.293675994 -2.40691943e-19)
(100.663532 -3.156049545 1.111409898e-19)
(100.7423024 -3.391645759 1.129456791e-19)
(100.373465 -3.526557438 -2.079830122e-19)
(100.5055456 -3.556799124 3.305342628e-19)
(99.84626339 -4.01414023 7.293559856e-20)
(100.0426143 -3.936170427 -3.745590533e-19)
(100.0660613 -4.073037673 -3.875531555e-19)
(99.85439884 -4.163848972 -3.315390909e-19)
(98.88177297 -5.030499606 -2.15942259e-19)
(99.15278314 -4.927694638 -7.855222597e-19)
(99.16239931 -5.092226693 6.589854402e-19)
(98.8777875 -5.214754757 -4.458689045e-19)
(97.60065831 -6.342659214 -6.42123138e-20)
(97.94909918 -6.199163544 -5.974736058e-20)
(97.9699306 -6.403439791 2.529851834e-19)
(97.60881434 -6.576192948 5.620658762e-21)
(96.08063076 -8.117561287 -6.105486703e-20)
(96.51783528 -7.898646108 -6.150047212e-20)
(96.58760675 -8.175465538 -6.149033414e-20)
(96.04926619 -8.407810271 -3.536961657e-20)
(96.24124114 -8.433847987 2.503352391e-19)
(94.73585341 -10.44391893 4.694804069e-19)
(94.96979459 -10.3707244 -5.90795088e-19)
(95.07705548 -10.5993033 -1.780266529e-19)
(94.64720455 -10.58334019 4.818597415e-19)
(94.66673466 -10.75860462 -3.620051612e-19)
(94.80682861 -10.78748657 -7.358375542e-20)
(102.3477977 -0.4700073126 0)
(102.5937421 -0.2358895698 0)
(102.2910989 -0.9518225089 0)
(102.5603132 -0.7145961094 0)
(102.1907913 -1.457547726 0)
(102.4977839 -1.205150473 0)
(101.9489594 -1.984097245 0)
(102.3888123 -1.730842732 0)
(102.1342146 -2.015380998 0)
(101.7244286 -2.108936937 0)
(101.9985585 -2.142263 0)
(101.7974958 -2.275927274 0)
(101.4393219 -2.72857577 0)
(101.6656445 -2.591245976 0)
(101.7538759 -2.767277007 0)
(101.5208206 -2.926073777 0)
(101.1077655 -3.454065625 1.657942501e-21)
(101.367962 -3.286186814 0)
(101.4722605 -3.486288629 -3.548450876e-22)
(101.1441413 -3.660984934 2.51641669e-19)
(101.2745871 -3.683614798 -2.509623925e-19)
(100.7285446 -4.179134518 -2.394018594e-20)
(100.9018556 -4.080039705 -1.791266768e-20)
(100.9467618 -4.194697456 -2.975053816e-20)
(100.7641108 -4.304102862 -4.669941174e-23)
(100.0029942 -5.176935463 6.666723091e-20)
(100.2409854 -5.051045305 4.267074325e-19)
(100.2788718 -5.175338174 9.260273657e-20)
(100.0371304 -5.328426955 5.764034919e-19)
(99.05965025 -6.432475083 2.40872998e-19)
(99.35644308 -6.251745089 2.352435878e-20)
(99.40819891 -6.398850974 4.451339697e-20)
(99.11614905 -6.60125669 -6.874155576e-20)
(98.07498061 -8.077257302 1.862484255e-19)
(98.41695577 -7.805408922 1.92245154e-19)
(98.53348665 -7.96860291 2.059691618e-19)
(98.22951681 -8.273916956 3.791600691e-19)
(97.82795184 -10.36837829 0)
(97.92286209 -9.907715892 3.391026986e-19)
(97.67601213 -10.12892049 0)
(92.48289889 -9.532982076 3.629267563e-20)
(97.61017004 -10.59851757 0)
(102.8020775 -0.4798142421 0)
(103.0445053 -0.2380933437 0)
(102.7619224 -0.9703538313 0)
(103.0211272 -0.7212139159 0)
(102.689557 -1.482209722 0)
(102.9786487 -1.215348381 0)
(102.4904827 -2.020581259 0)
(102.9005524 -1.735490479 0)
(102.6743572 -2.033279578 0)
(102.2758427 -2.161409612 0)
(102.5531868 -2.167382395 0)
(102.3685503 -2.315833028 0)
(102.0666906 -2.785441108 0)
(102.272677 -2.629553315 0)
(102.3760841 -2.784905123 0)
(102.1695596 -2.958887961 0)
(101.8315219 -3.490703993 3.579717094e-24)
(102.062593 -3.309287861 3.551487633e-22)
(102.1810052 -3.470393045 3.551630685e-22)
(101.8934613 -3.6858496 -5.718717081e-20)
(102.0158674 -3.676780572 3.599041335e-21)
(101.5792937 -4.191558134 1.901607196e-19)
(101.7233506 -4.083580336 1.744402348e-19)
(101.7800754 -4.175013332 2.012403581e-20)
(101.6300236 -4.290956875 1.845020016e-19)
(101.0587365 -5.104427611 -2.015988289e-19)
(101.2560354 -4.964659255 1.306718685e-21)
(101.3034345 -5.060220556 -6.135205852e-22)
(101.1059792 -5.209680239 5.185289322e-21)
(100.3765961 -6.195293039 -1.237839112e-19)
(100.6129092 -6.009668741 -7.649464787e-20)
(100.6695218 -6.102506916 -1.825831882e-19)
(100.442752 -6.299891705 8.851481814e-20)
(99.72344663 -7.493683535 1.558065796e-19)
(99.96775152 -7.237992616 -1.477338615e-19)
(100.0543159 -7.301851099 -1.434866535e-19)
(99.84546785 -7.566515644 -1.433005814e-19)
(97.38734927 -8.771693932 1.199601445e-19)
(98.5044742 -8.451123904 3.512934461e-19)
(97.17881197 -8.319272595 2.598476262e-19)
(93.37615843 -8.012176191 -1.596073231e-19)
(103.2599222 -0.4793529393 0)
(103.4948089 -0.2357837649 0)
(103.2339675 -0.9679155547 0)
(103.4800573 -0.7136160063 0)
(103.1855227 -1.47430319 0)
(103.4543486 -1.201475949 0)
(103.0246106 -2.01213482 0)
(103.4020519 -1.705528729 0)
(103.202084 -2.004174542 0)
(102.8242361 -2.160768244 0)
(103.0943923 -2.143417582 0)
(102.9285048 -2.299734679 0)
(102.6784252 -2.767495346 0)
(102.8623235 -2.60190745 0)
(102.9729187 -2.735237801 0)
(102.7924443 -2.915381835 0)
(102.5188812 -3.429127305 0)
(102.7207051 -3.244338482 0)
(102.8427176 -3.370141671 0)
(102.5910414 -3.605150937 0)
(102.7025616 -3.573021763 0)
(102.3493442 -4.082374999 4.705029959e-21)
(102.4683279 -3.969305417 0)
(102.5268816 -4.03919013 0)
(102.4040427 -4.157322068 1.081840373e-19)
(101.9744918 -4.883098782 -4.50181708e-19)
(102.1323957 -4.746928848 -2.352502372e-19)
(102.1764093 -4.810697803 -7.105066963e-20)
(102.0184118 -4.952960856 -2.676240163e-19)
(101.4420574 -5.769173229 9.574126256e-20)
(101.6269939 -5.598486087 -6.212922811e-20)
(101.6636832 -5.647058137 5.570036363e-21)
(101.4855076 -5.821063679 3.365548873e-20)
(100.8879614 -6.710575445 1.22997197e-19)
(101.0694965 -6.499195276 7.836007479e-20)
(101.1199182 -6.516872173 1.383350217e-19)
(100.9748938 -6.729837618 2.816130028e-20)
(96.2032075 -7.078995125 -9.015640843e-20)
(98.00634594 -7.065087015 -4.179297927e-20)
(95.80417198 -6.710758832 0)
(93.66598528 -6.700854425 -5.605606752e-20)
(103.7120962 -0.4703603803 0)
(103.9366649 -0.2298105628 0)
(103.6975388 -0.9481633731 0)
(103.9288805 -0.6945618183 0)
(103.6680739 -1.439734533 0)
(103.91613 -1.168255562 0)
(103.5388539 -1.96492279 0)
(103.883723 -1.648418973 0)
(103.7065978 -1.940034329 0)
(103.3546109 -2.115599245 0)
(103.6112217 -2.079928256 0)
(103.4635202 -2.238102538 0)
(103.2569874 -2.690303248 0)
(103.4195985 -2.522350754 0)
(103.5307013 -2.634794378 0)
(103.3734534 -2.813706165 0)
(103.150961 -3.296522261 0)
(103.3256663 -3.114961214 0)
(103.4427558 -3.211222821 0)
(103.2229918 -3.448604742 0)
(103.3219798 -3.402594359 0)
(103.0232254 -3.88186589 0)
(103.1246725 -3.771423642 0)
(103.1773159 -3.822448376 0)
(103.0731869 -3.935479005 0)
(102.7185498 -4.565680795 -5.891585553e-20)
(102.8477484 -4.437738247 -7.283770231e-20)
(102.8794333 -4.477488197 -5.756381421e-20)
(102.7482092 -4.60780544 -2.934422581e-20)
(102.2331141 -5.268101916 -1.031700757e-19)
(102.3846548 -5.119529945 -2.589782397e-20)
(102.3949072 -5.140390316 2.351620232e-20)
(102.2456986 -5.288817285 -7.055785326e-20)
(101.7032545 -5.960731053 8.435768514e-20)
(101.8407923 -5.789688423 -1.257717121e-20)
(101.8635084 -5.784753104 -1.326765518e-21)
(101.7352224 -5.955950314 -7.531956258e-20)
(94.77288819 -5.801154321 1.185242343e-19)
(96.77596147 -5.886714756 5.601300164e-20)
(94.57751092 -5.568844794 3.50842167e-20)
(94.22444293 -5.813814992 4.825691756e-22)
(104.1513201 -0.4546618953 0)
(104.3637738 -0.2210305583 0)
(104.1453145 -0.9148895463 0)
(104.3611942 -0.6668155812 0)
(104.1297729 -1.384725121 0)
(104.3574931 -1.120478363 0)
(104.024761 -1.887743822 0)
(104.3389652 -1.571898452 0)
(104.1808893 -1.85092657 0)
(103.8563689 -2.036338709 0)
(104.0961769 -1.987760421 0)
(103.964674 -2.143035903 0)
(103.7922608 -2.570721615 0)
(103.9357307 -2.405993054 0)
(104.0423881 -2.4998935 0)
(103.9044376 -2.672241669 0)
(103.7179113 -3.117054009 0)
(103.8700264 -2.943680801 0)
(103.9768508 -3.016706947 0)
(103.7825451 -3.245957782 0)
(103.8687478 -3.192715295 0)
(103.6054966 -3.630421361 0)
(103.6941066 -3.526959175 0)
(103.7375308 -3.563199701 0)
(103.6458563 -3.667499142 0)
(103.3131472 -4.20335438 0)
(103.4264209 -4.08748578 0)
(103.4434024 -4.11070052 0)
(103.3269116 -4.226129281 0)
(102.8158668 -4.760925119 1.114955784e-20)
(102.9510307 -4.632509019 0)
(102.9390748 -4.637315855 0)
(102.8039742 -4.763659311 5.089449246e-21)
(102.2465035 -5.28234468 -1.015085737e-19)
(102.3677872 -5.142994338 -2.427283794e-20)
(102.3447965 -5.122878715 -3.594903477e-20)
(102.133349 -5.251156795 -2.745355173e-20)
(94.5508948 -5.04061241 -4.940738977e-20)
(96.05075967 -5.054991618 -6.685379801e-20)
(94.67893095 -4.897862123 -1.963276566e-20)
(95.42293319 -5.208649358 4.299611548e-20)
(104.5721757 -0.4340686856 0)
(104.7715375 -0.2102769259 0)
(104.5719554 -0.8719118145 0)
(104.7724812 -0.6330389282 0)
(104.5655191 -1.315518449 0)
(104.7742166 -1.062692062 0)
(104.4774742 -1.790280089 0)
(104.7641297 -1.483039035 0)
(104.6211447 -1.745940931 0)
(104.3237813 -1.93368632 0)
(104.5451813 -1.877060687 0)
(104.4275202 -2.02597565 0)
(104.2798808 -2.423994959 0)
(104.4071413 -2.266394014 0)
(104.5058692 -2.344524371 0)
(104.3832006 -2.506947897 0)
(104.2197961 -2.912516989 0)
(104.353918 -2.748769205 0)
(104.447095 -2.806195481 0)
(104.2716986 -3.016159146 0)
(104.3464892 -2.965323886 0)
(104.1029212 -3.356678042 0)
(104.1826225 -3.261858972 0)
(104.2154412 -3.287171023 0)
(104.1319806 -3.381627676 0)
(103.7963348 -3.834516863 0)
(103.9001422 -3.731902452 0)
(103.9025539 -3.743924082 0)
(103.7941728 -3.844961882 0)
(103.2665732 -4.279546526 0)
(103.3926233 -4.169534943 0)
(103.3633579 -4.165285783 0)
(103.2365685 -4.272552409 0)
(102.5789097 -4.671372719 0)
(102.7211598 -4.558129235 0)
(102.6379213 -4.529617175 0)
(102.3194002 -4.620942492 0)
(95.18464972 -4.493204138 0)
(96.13250501 -4.439187184 0)
(95.36784907 -4.367684502 0)
(96.46222373 -4.6341843 0)
(104.9709812 -0.410279756 0)
(105.1569762 -0.1983065264 0)
(104.9740218 -0.8227511484 0)
(105.1599577 -0.595639548 0)
(104.9723886 -1.237656315 0)
(105.1640007 -0.998950369 0)
(104.8949616 -1.680253731 0)
(105.1575684 -1.387711603 0)
(105.0263146 -1.632646799 0)
(104.7542255 -1.816992226 0)
(104.9573751 -1.756283814 0)
(104.8508181 -1.896495314 0)
(104.7195903 -2.262838552 0)
(104.833762 -2.114712584 0)
(104.9224429 -2.180050354 0)
(104.8111648 -2.33061455 0)
(104.6595925 -2.699019917 0)
(104.7804166 -2.544958493 0)
(104.8581574 -2.59204091 0)
(104.6973141 -2.778566192 0)
(104.7620669 -2.734073491 0)
(104.5265993 -3.079831418 0)
(104.6006509 -2.994145053 0)
(104.6224823 -3.011684401 0)
(104.544004 -3.096204945 0)
(104.1912876 -3.479421277 0)
(104.2896906 -3.389277939 0)
(104.2785524 -3.39411515 0)
(104.1746078 -3.482162427 0)
(103.6224827 -3.838969014 0)
(103.7433408 -3.744827032 0)
(103.6997228 -3.73577779 0)
(103.5769272 -3.827041315 0)
(102.7701788 -4.132603446 0)
(102.9495143 -4.042514573 0)
(102.8015468 -4.009116388 0)
(102.3776242 -4.075903362 0)
(95.93399914 -4.014639881 0)
(96.40829138 -3.921045772 0)
(96.12345986 -3.905208095 0)
(97.29303321 -4.122707485 0)
(105.3455733 -0.3847692381 0)
(105.518428 -0.1857579452 0)
(105.3497418 -0.7703980824 0)
(105.5221973 -0.5566430193 0)
(105.3493013 -1.155781255 0)
(105.5260293 -0.9326680716 0)
(105.2773873 -1.565030898 0)
(105.5193794 -1.290520789 0)
(105.3968936 -1.516834746 0)
(105.1479387 -1.69378163 0)
(105.3333588 -1.63205638 0)
(105.2356222 -1.762423358 0)
(105.1138581 -2.097133798 0)
(105.2178233 -1.959617606 0)
(105.2953018 -2.014839965 0)
(105.1922605 -2.15275583 0)
(105.043653 -2.486164696 0)
(105.155339 -2.342417158 0)
(105.2169739 -2.382077414 0)
(105.0668434 -2.545878404 0)
(105.12295 -2.507984247 0)
(104.8878738 -2.811983498 0)
(104.9586127 -2.735221309 0)
(104.969809 -2.747345644 0)
(104.8940245 -2.822455158 0)
(104.5169676 -3.148151687 0)
(104.6125988 -3.069231059 0)
(104.5894069 -3.069682189 0)
(104.4876466 -3.146353267 0)
(103.9083565 -3.443026104 0)
(104.0266866 -3.362228544 0)
(103.9710699 -3.35098135 0)
(103.8490133 -3.428996108 0)
(102.8645993 -3.663509213 0)
(103.0896656 -3.591965711 0)
(102.8766729 -3.556163128 0)
(102.352336 -3.604820059 0)
(96.67864698 -3.599379438 0)
(96.76280965 -3.485904457 0)
(96.85662547 -3.504214271 0)
(97.97306487 -3.675388498 0)
(105.6950745 -0.3587336186 0)
(105.855422 -0.173136373 0)
(105.6986866 -0.7172489689 0)
(105.8589678 -0.5176305215 0)
(105.6966072 -1.07347394 0)
(105.8606666 -0.8665176282 0)
(105.6261384 -1.449801754 0)
(105.8508386 -1.194934801 0)
(105.7346053 -1.402829883 0)
(105.5063567 -1.569786467 0)
(105.6750773 -1.509276682 0)
(105.5841506 -1.629416409 0)
(105.4664055 -1.933826748 0)
(105.562695 -1.807260274 0)
(105.6285914 -1.854587348 0)
(105.5312055 -1.979899434 0)
(105.3789302 -2.280286446 0)
(105.4849503 -2.147855507 0)
(105.530487 -2.181225441 0)
(105.3881267 -2.325784993 0)
(105.4369292 -2.292614921 0)
(105.1970937 -2.560176318 0)
(105.2661968 -2.491796274 0)
(105.2674508 -2.500226589 0)
(105.1927965 -2.566703293 0)
(104.7885193 -2.845216167 0)
(104.8830159 -2.776155533 0)
(104.8493914 -2.774109187 0)
(104.7484819 -2.84096271 0)
(104.1417842 -3.090831165 0)
(104.2594669 -3.021189771 0)
(104.1934507 -3.009300851 0)
(104.0695152 -3.076196334 0)
(102.8910394 -3.255813705 0)
(103.165737 -3.198975373 0)
(102.8895728 -3.162558952 0)
(102.2742843 -3.197414017 0)
(97.36171434 -3.236462216 0)
(97.14919407 -3.11610998 0)
(97.51921321 -3.152676167 0)
(98.51756954 -3.283790479 0)
(106.0196231 -0.3330896872 0)
(106.1683261 -0.1608283344 0)
(106.0214102 -0.6651185512 0)
(106.1708583 -0.4797828159 0)
(106.015602 -0.9933671423 0)
(106.169023 -0.8024789003 0)
(105.9434747 -1.338196389 0)
(106.1538621 -1.10346338 0)
(106.0418508 -1.293681325 0)
(105.8318338 -1.44914206 0)
(105.9851486 -1.391410623 0)
(105.899372 -1.50141046 0)
(105.7815725 -1.777526017 0)
(105.8722801 -1.661781578 0)
(105.9266756 -1.702925245 0)
(105.8329904 -1.816236868 0)
(105.6726065 -2.085372758 0)
(105.7756238 -1.965311208 0)
(105.8059508 -1.993146254 0)
(105.6681891 -2.122631562 0)
(105.7106785 -2.091895683 0)
(105.4630586 -2.32805061 0)
(105.5315999 -2.267349196 0)
(105.523816 -2.273267644 0)
(105.4493025 -2.332020664 0)
(105.0177486 -2.571856763 0)
(105.1120585 -2.511369091 0)
(105.069567 -2.508098929 0)
(104.968763 -2.566524488 0)
(104.3348366 -2.779411711 0)
(104.4533728 -2.719171731 0)
(104.3778351 -2.707501433 0)
(104.2499158 -2.764939232 0)
(102.8701826 -2.901715319 0)
(103.1954158 -2.856533802 0)
(102.8595078 -2.820744297 0)
(102.1652496 -2.84517129 0)
(97.95638926 -2.916139461 0)
(97.53639928 -2.79844898 0)
(98.09003902 -2.841978099 0)
(98.9459772 -2.940705589 0)
(106.3200789 -0.308509422 0)
(106.4581563 -0.1491178976 0)
(106.3191192 -0.6153217345 0)
(106.4590785 -0.4439442151 0)
(106.3081146 -0.9173210424 0)
(106.4527373 -0.7419437323 0)
(106.2320426 -1.232688357 0)
(106.4307575 -1.017819106 0)
(106.3213208 -1.191437848 0)
(106.1271573 -1.334697611 0)
(106.2664708 -1.280772912 0)
(106.184493 -1.380997152 0)
(106.0636481 -1.631047707 0)
(106.1504746 -1.525759262 0)
(106.1937191 -1.562069938 0)
(106.1021915 -1.664213657 0)
(105.9312091 -1.904817709 0)
(106.0329251 -1.796848409 0)
(106.0489947 -1.820550142 0)
(105.9136132 -1.936221072 0)
(105.9508849 -1.908254327 0)
(105.6932879 -2.116954534 0)
(105.7620441 -2.063156235 0)
(105.7461427 -2.067513748 0)
(105.6711238 -2.119416065 0)
(105.2137737 -2.32760578 0)
(105.3084096 -2.274553264 0)
(105.2584592 -2.270942879 0)
(105.1573334 -2.322116516 0)
(104.4959178 -2.505209092 0)
(104.6165623 -2.453019938 0)
(104.5319678 -2.442060179 0)
(104.398443 -2.491391508 0)
(102.8176287 -2.59448429 0)
(103.1920738 -2.558752039 0)
(102.8009312 -2.524297058 0)
(102.0404533 -2.54097889 0)
(98.45470934 -2.632619589 0)
(97.90512532 -2.523754055 0)
(98.56444371 -2.56699121 0)
(99.27826699 -2.640555154 0)
(106.5977939 -0.2854655392 0)
(106.7263223 -0.1382065335 0)
(106.5934443 -0.5687700256 0)
(106.7251999 -0.4106980089 0)
(106.5762637 -0.8465872636 0)
(106.7137185 -0.6858544087 0)
(106.494626 -1.134850929 0)
(106.6839575 -0.9391092758 0)
(106.575783 -1.097391803 0)
(106.3952661 -1.228289899 0)
(106.522024 -1.178799525 0)
(106.4427196 -1.26979345 0)
(106.3166794 -1.496141423 0)
(106.4009878 -1.400743483 0)
(106.4336279 -1.433356041 0)
(106.3430089 -1.525229616 0)
(106.1599155 -1.740423076 0)
(106.2615287 -1.643700382 0)
(106.2644746 -1.664492135 0)
(106.1299716 -1.767552536 0)
(106.1628847 -1.742471747 0)
(105.8941627 -1.927198095 0)
(105.9636515 -1.879559037 0)
(105.9405131 -1.883065684 0)
(105.8645992 -1.928906896 0)
(105.383615 -2.111146107 0)
(105.4788566 -2.064548797 0)
(105.4226293 -2.061189757 0)
(105.320878 -2.106085189 0)
(104.6313207 -2.264787532 0)
(104.7550953 -2.219553364 0)
(104.6617471 -2.209595345 0)
(104.5213992 -2.25194668 0)
(102.7445905 -2.328334065 0)
(103.1655812 -2.300388791 0)
(102.7241233 -2.267629854 0)
(101.9101234 -2.278597984 0)
(98.85977049 -2.381935418 0)
(98.24410142 -2.285367536 0)
(98.94744224 -2.324051969 0)
(99.532722 -2.378706894 0)
(106.8544614 -0.2642719754 0)
(106.9745791 -0.1282255035 0)
(106.8462976 -0.5260568744 0)
(106.9711069 -0.3804123987 0)
(106.8223325 -0.7819516762 0)
(106.9541058 -0.6347921831 0)
(106.7339932 -1.045630488 0)
(106.91599 -0.8679630814 0)
(106.8079876 -1.012274947 0)
(106.6390582 -1.131035476 0)
(106.7546898 -1.086322883 0)
(106.6771202 -1.168728246 0)
(106.5443713 -1.373779244 0)
(106.6272526 -1.287564365 0)
(106.6499394 -1.317425047 0)
(106.5592758 -1.399936635 0)
(106.3632054 -1.592746093 0)
(106.4656238 -1.506277001 0)
(106.4565678 -1.525153118 0)
(106.3219011 -1.616763824 0)
(106.3511741 -1.594573972 0)
(106.0709112 -1.758418598 0)
(106.1414621 -1.716241059 0)
(106.1119346 -1.719414881 0)
(106.0349037 -1.759917368 0)
(105.5325648 -1.920804929 0)
(105.6285965 -1.879822943 0)
(105.5670319 -1.877089966 0)
(105.4643882 -1.916518193 0)
(104.7458805 -2.05501941 0)
(104.8735982 -2.015824609 0)
(104.7717235 -2.007031406 0)
(104.6236418 -2.043338228 0)
(102.6590469 -2.09834896 0)
(103.1230931 -2.076864932 0)
(102.6364197 -2.0460044 0)
(101.7812552 -2.052774454 0)
(99.18081471 -2.161218621 0)
(98.54769696 -2.078242621 0)
(99.24938028 -2.110451404 0)
(99.72514065 -2.151240665 0)
(107.0920083 -0.2451197652 0)
(107.2048443 -0.1192549146 0)
(107.079771 -0.4875316949 0)
(107.198816 -0.353301 0)
(107.0486845 -0.7238461214 0)
(107.1760993 -0.5890832878 0)
(106.9528732 -0.9654955857 0)
(107.1293355 -0.8046890493 0)
(107.0206082 -0.936413635 0)
(106.8613861 -1.043501468 0)
(106.9672657 -1.003707576 0)
(106.890644 -1.078211743 0)
(106.7501351 -1.26431193 0)
(106.8324666 -1.186513911 0)
(106.8458988 -1.214414621 0)
(106.7544554 -1.288449819 0)
(106.545012 -1.461657985 0)
(106.6489041 -1.384447706 0)
(106.6289299 -1.402183059 0)
(106.4933671 -1.483470843 0)
(106.519614 -1.464095137 0)
(106.2278934 -1.609813853 0)
(106.2996908 -1.572464493 0)
(106.2645666 -1.5756932 0)
(106.1863108 -1.611500255 0)
(105.66468 -1.754742546 0)
(105.7616507 -1.718669787 0)
(105.6954667 -1.716802192 0)
(105.5916865 -1.751439148 0)
(104.8433737 -1.873053246 0)
(104.9756849 -1.839137381 0)
(104.8654424 -1.831595323 0)
(104.7089405 -1.86262733 0)
(102.566755 -1.900373331 0)
(103.0698369 -1.884270331 0)
(102.5431535 -1.855458287 0)
(101.6585747 -1.859148361 0)
(99.4304454 -1.968214342 0)
(98.81440055 -1.898568455 0)
(99.48329395 -1.924068263 0)
(99.86894693 -1.95482037 0)
(107.3124515 -0.2281128345 0)
(107.4191333 -0.1113368685 0)
(107.2960013 -0.4533730461 0)
(107.4104137 -0.3294647163 0)
(107.2576482 -0.6724633809 0)
(107.3819125 -0.5488712925 0)
(107.1538546 -0.8946041801 0)
(107.3263959 -0.7493714679 0)
(107.2161799 -0.8698683088 0)
(107.0649435 -0.9658959623 0)
(107.1623769 -0.9310342735 0)
(107.0860335 -0.9983286871 0)
(106.9370426 -1.167719808 0)
(107.0195397 -1.097558746 0)
(107.024431 -1.124182274 0)
(106.9316196 -1.190579572 0)
(106.7086854 -1.346617409 0)
(106.8145399 -1.277814469 0)
(106.7845793 -1.29481477 0)
(106.6477709 -1.367042284 0)
(106.6715737 -1.350173203 0)
(106.3687358 -1.480386973 0)
(106.4418735 -1.44730788 0)
(106.4018568 -1.450902575 0)
(106.3223317 -1.482562627 0)
(105.7831076 -1.611147654 0)
(105.88115 -1.579396962 0)
(105.8108819 -1.578552048 0)
(105.7057452 -1.608959919 0)
(104.9267436 -1.716334327 0)
(105.06418 -1.687069276 0)
(104.945667 -1.680822394 0)
(104.7802205 -1.707211298 0)
(102.4719768 -1.730969387 0)
(103.0097689 -1.719393623 0)
(102.4482787 -1.692734862 0)
(101.5452817 -1.6941688 0)
(99.62216182 -1.801062067 0)
(99.04543667 -1.743580198 0)
(99.66254863 -1.763097055 0)
(99.97519931 -1.786567858 0)
(107.5179296 -0.2132910709 0)
(107.6195103 -0.1044903027 0)
(107.4972017 -0.4236382585 0)
(107.6080143 -0.308933033 0)
(107.451563 -0.6278249576 0)
(107.5737364 -0.5141748046 0)
(107.3394106 -0.8329450265 0)
(107.5095149 -0.7019825093 0)
(107.3971081 -0.8125453344 0)
(107.2522724 -0.8981971149 0)
(107.3424736 -0.8681903233 0)
(107.2658447 -0.9289592462 0)
(107.1078873 -1.083762413 0)
(107.1911439 -1.020463914 0)
(107.1882153 -1.046382569 0)
(107.0935727 -1.105959254 0)
(106.8570485 -1.24666065 0)
(106.9653756 -1.185917368 0)
(106.9264131 -1.202091044 0)
(106.7879937 -1.267677308 0)
(106.8097067 -1.251827081 0)
(106.4964009 -1.36912293 0)
(106.5708952 -1.339848058 0)
(106.5265975 -1.344004261 0)
(106.4458076 -1.371989995 0)
(105.8903267 -1.488305247 0)
(105.9895714 -1.460377757 0)
(105.9156238 -1.460645848 0)
(105.8089245 -1.487303931 0)
(104.9983384 -1.58258891 0)
(105.141347 -1.557441213 0)
(105.0146337 -1.55250287 0)
(104.8398477 -1.574785948 0)
(102.3778696 -1.587348536 0)
(102.945982 -1.57954653 0)
(102.3547365 -1.55518856 0)
(101.4433277 -1.554923207 0)
(99.76846043 -1.657962012 0)
(99.24369824 -1.611074146 0)
(99.79923255 -1.625737303 0)
(100.0527284 -1.643827943 0)
(107.7103197 -0.2006669355 0)
(107.8080166 -0.09871274725 0)
(107.68531 -0.398321836 0)
(107.793681 -0.2916840277 0)
(107.632452 -0.5898622799 0)
(107.7536693 -0.4849378526 0)
(107.5117731 -0.7802054961 0)
(107.6808002 -0.6623473542 0)
(107.5655972 -0.7641890531 0)
(107.4257086 -0.8402220486 0)
(107.5098674 -0.8149705115 0)
(107.4324354 -0.8697983097 0)
(107.2652209 -1.011991425 0)
(107.3497192 -0.9548404857 0)
(107.3396452 -0.9805145097 0)
(107.2428461 -1.034061572 0)
(106.9929785 -1.161075716 0)
(107.1041003 -1.108010092 0)
(107.0570659 -1.123605217 0)
(106.9165075 -1.183925978 0)
(106.9364996 -1.168546834 0)
(106.6132679 -1.274891836 0)
(106.6891035 -1.249002771 0)
(106.6410711 -1.253867694 0)
(106.559027 -1.278603959 0)
(105.9883291 -1.384637149 0)
(106.0889037 -1.360109243 0)
(106.0115863 -1.361554844 0)
(105.9031291 -1.384869932 0)
(105.0601106 -1.469869033 0)
(105.2090619 -1.448393628 0)
(105.0742212 -1.444788111 0)
(104.8898218 -1.463416358 0)
(102.2867554 -1.46722288 0)
(102.8809496 -1.462562867 0)
(102.2646377 -1.440649518 0)
(101.353411 -1.439014894 0)
(99.87995607 -1.537185928 0)
(99.4127992 -1.49929398 0)
(99.90341957 -1.510294061 0)
(100.108423 -1.524274293 0)
(107.8924442 -0.1901966683 0)
(107.9866872 -0.09402069324 0)
(107.8631103 -0.3773498469 0)
(107.9694829 -0.2777255958 0)
(107.803086 -0.5584024242 0)
(107.9237499 -0.4610964092 0)
(107.6733297 -0.7364128044 0)
(107.842558 -0.6305571456 0)
(107.7238647 -0.7247777925 0)
(107.5875238 -0.7917445084 0)
(107.6665929 -0.7710586757 0)
(107.5879966 -0.8205873038 0)
(107.4113059 -0.9518912264 0)
(107.497464 -0.9002587655 0)
(107.4808752 -0.9260615818 0)
(107.3816463 -0.9743119292 0)
(107.1191039 -1.089753705 0)
(107.2331011 -1.043285556 0)
(107.1791102 -1.059535228 0)
(107.0355043 -1.114000273 0)
(107.0540646 -1.100334038 0)
(106.721343 -1.19657802 0)
(106.7985079 -1.173662312 0)
(106.7472577 -1.179355754 0)
(106.6639388 -1.201252918 0)
(106.078788 -1.298773262 0)
(106.1808359 -1.27726879 0)
(106.1004032 -1.279948737 0)
(105.9899859 -1.300281308 0)
(105.1137832 -1.376608335 0)
(105.2689868 -1.358413219 0)
(105.1261258 -1.356176494 0)
(104.931943 -1.371553772 0)
(102.2001074 -1.368751417 0)
(102.8164969 -1.366644615 0)
(102.1792526 -1.34731062 0)
(101.2753892 -1.344441148 0)
(99.96503702 -1.437147209 0)
(99.55633126 -1.406851634 0)
(99.98296479 -1.415208648 0)
(100.1475069 -1.425938356 0)
(108.0634428 -0.1819601915 0)
(108.1576204 -0.09034406357 0)
(108.0299038 -0.3607708337 0)
(108.1374482 -0.2669261095 0)
(107.9628881 -0.5334996369 0)
(108.0860111 -0.4425132146 0)
(107.8252511 -0.6997252153 0)
(107.9956858 -0.605358512 0)
(107.8736913 -0.6932862852 0)
(107.7393876 -0.7523860456 0)
(107.8153893 -0.7362989844 0)
(107.7345959 -0.78063427 0)
(107.5481891 -0.9030080362 0)
(107.6364414 -0.8562795596 0)
(107.6139002 -0.882766039 0)
(107.5118554 -0.9262259416 0)
(107.2372026 -1.032794236 0)
(107.35403 -0.9912013222 0)
(107.293665 -1.009361551 0)
(107.1472477 -1.056356483 0)
(107.1648375 -1.046261078 0)
(106.8226317 -1.133205458 0)
(106.9012339 -1.112908131 0)
(106.8471234 -1.119633686 0)
(106.7624498 -1.138977618 0)
(106.1632203 -1.229550231 0)
(106.2669004 -1.210749421 0)
(106.1835486 -1.214731817 0)
(106.0709705 -1.232386842 0)
(105.1609611 -1.301493731 0)
(105.3226602 -1.286235127 0)
(105.1719144 -1.285418276 0)
(104.9678739 -1.297893825 0)
(102.1187566 -1.290182897 0)
(102.75386 -1.290198518 0)
(102.0993045 -1.273467445 0)
(101.2087859 -1.269493257 0)
(100.0301012 -1.356434547 0)
(99.67760944 -1.33254365 0)
(100.0438376 -1.339138319 0)
(100.173943 -1.347164714 0)
(108.2361463 -0.1756202352 0)
(108.3226074 -0.08790132691 0)
(108.1979607 -0.3481853842 0)
(108.2995563 -0.2596525333 0)
(108.1231993 -0.5147212176 0)
(108.2424638 -0.4297352157 0)
(107.9729516 -0.6745088498 0)
(108.1440779 -0.5890460523 0)
(108.0193848 -0.6708453656 0)
(107.8850295 -0.7221752511 0)
(107.9571265 -0.7099774166 0)
(107.8744734 -0.7512611266 0)
(107.6777611 -0.8653295027 0)
(107.7683795 -0.8230462655 0)
(107.7403314 -0.8505381239 0)
(107.6353024 -0.8896494502 0)
(107.3487065 -0.9891371744 0)
(107.4685501 -0.9515641633 0)
(107.4025065 -0.9720380504 0)
(107.2531956 -1.012316267 0)
(107.2699889 -1.005358706 0)
(106.9187129 -1.084203445 0)
(106.998773 -1.066254395 0)
(106.9421046 -1.07411781 0)
(106.8560316 -1.091153048 0)
(106.2429525 -1.176048399 0)
(106.3484115 -1.159685778 0)
(106.2622929 -1.165033084 0)
(106.1473758 -1.180271721 0)
(105.2030854 -1.243451665 0)
(105.3714637 -1.230834966 0)
(105.2129827 -1.231499254 0)
(104.9990719 -1.241369678 0)
(102.0431635 -1.230064287 0)
(102.6939073 -1.231928651 0)
(102.0251958 -1.217783753 0)
(101.1529515 -1.212803494 0)
(100.0799862 -1.293965055 0)
(99.77970417 -1.275524409 0)
(100.0905316 -1.281106988 0)
(100.1907675 -1.286748903 0)
(108.3702966 -0.1723170753 0)
(108.4844819 -0.08604850706 0)
(108.3288212 -0.3407929673 0)
(108.4578137 -0.2546112884 0)
(108.2489946 -0.5035600306 0)
(108.395367 -0.4208532936 0)
(108.1045033 -0.6596092098 0)
(108.2882214 -0.5762488026 0)
(108.1494092 -0.6543955718 0)
(108.0239981 -0.7000226833 0)
(108.0903837 -0.6942323546 0)
(108.0073952 -0.7302812061 0)
(107.8015879 -0.8383389585 0)
(107.8945503 -0.7997996065 0)
(107.8620234 -0.828766169 0)
(107.7533624 -0.8641303688 0)
(107.4553192 -0.9580474637 0)
(107.5780946 -0.9238389456 0)
(107.5071197 -0.9468974197 0)
(107.3546765 -0.9808827479 0)