/*--------------------------------*- C++ -*----------------------------------*\
| =========                 |                                                 |
| \\      /  F ield         | OpenFOAM: The Open Source CFD Toolbox           |
|  \\    /   O peration     | Version:  v2012                                 |
|   \\  /    A nd           | Website:  www.openfoam.com                      |
|    \\/     M anipulation  |                                                 |
\*---------------------------------------------------------------------------*/
FoamFile
{
    version     2.0;
    format      ascii;
    class       volScalarField;
    location    "0.14";
    object      p;
}
// * * * * * * * * * * * * * * * * * * * * * * * * * * * * * * * * * * * * * //

dimensions      [0 2 -2 0 0 0 0];


internalField   nonuniform List<scalar> 
3019
(
922.4728711
921.2596001
918.3186613
912.2810932
903.7487819
885.6867319
856.2993697
809.6951581
740.2487937
641.2542549
508.0889948
341.2134368
923.2374448
922.4391664
920.3288641
915.7835579
907.3026587
891.8611838
865.7720087
827.9397742
765.3083977
673.1943907
544.870106
377.7417358
925.0246574
925.1440521
924.9757409
923.6685506
917.6952395
908.1976654
890.072384
857.3644834
804.6162769
720.7156162
590.9000351
408.1903361
927.1016106
928.5195868
931.1366231
934.2298351
932.9936444
931.9279789
926.0898074
905.19054
870.6179215
799.743694
669.7481629
462.0246944
928.1272007
931.0327849
936.874575
945.1829909
949.7276894
959.7564076
969.5955121
968.0979837
959.564322
917.9367848
809.0831606
575.7235922
926.632952
931.0258485
940.0718849
953.9242357
964.8718279
987.1429866
1014.976421
1036.809478
1067.588549
1086.338654
1054.044692
844.9240211
921.2051815
926.9021453
938.665727
957.3852338
975.5300729
1008.707039
1053.654834
1100.157752
1175.961785
1279.561164
1420.765836
1516.961526
910.6184111
917.2596349
930.9696359
953.0762665
977.5990488
1018.933966
1076.188379
1143.822495
1255.603827
1428.048687
1726.317567
2319.011964
893.9469082
901.0416808
915.6668684
939.3336132
968.5518308
1013.923
1077.036652
1156.961043
1283.451052
1466.582033
1735.951458
2078.392729
870.6938087
877.6988243
892.0941357
915.3224947
947.177363
992.1098589
1053.981182
1135.034913
1254.136837
1412.935543
1604.666618
1785.939131
840.8596369
847.2714248
860.3616637
881.2247048
913.7735687
954.2666998
1009.161568
1083.929728
1185.540681
1311.143379
1448.813128
1576.105045
804.9070519
810.3084313
821.3098929
837.9182968
870.3180533
902.7794993
946.6214169
1009.996212
1089.289117
1182.271126
1282.473559
1399.711971
2126.437353
1816.156923
1599.3333
1422.570243
2264.491971
1641.62816
1795.718782
2034.948613
1488.493845
1586.05468
1766.820578
1700.793627
1742.437451
1853.142321
1325.744369
1407.234766
1562.89467
1509.916879
1556.772468
1627.680256
1384.190604
1316.343408
1386.121435
1471.927151
2651.05712
2232.039908
3081.946098
2731.024122
1868.319044
1980.226432
1914.874892
1986.379084
1872.837366
2192.394993
2004.993177
1638.942201
1727.672277
1674.097228
1736.414026
1641.153744
1864.846296
1744.436837
1477.682856
1552.42579
1488.404572
1556.664212
1482.875753
1635.258294
1560.781859
1379.951272
1302.697013
1386.210895
1476.990979
1392.449481
1755.223376
2074.869325
2196.878237
2310.747361
2674.82256
2930.308865
1951.594992
1999.532595
2189.747202
2227.926726
2606.893106
2272.057732
2370.473136
3956.867798
3562.901167
2114.068894
3021.414243
1426.761103
1391.100697
1353.872117
2726.812952
2408.394431
2437.285574
2414.527999
2744.602716
2199.885878
2379.023283
2378.080756
3040.768043
3490.338287
3807.915695
2809.658647
3397.740188
2973.914001
3450.428634
2805.224968
1931.449777
2004.896838
1923.627713
2096.231719
2083.099798
2185.096422
2010.811129
2072.267708
2070.130546
1688.585344
1681.852462
1808.953342
1800.24558
1523.297793
1518.106883
1597.365071
1592.448629
1340.722383
1436.820676
1431.738735
2784.973808
3883.369878
1589.171177
1563.465003
1532.68894
1606.939601
1574.031313
1594.388192
1437.516528
1402.940607
1432.092679
1674.211065
1653.829175
1618.32434
1650.22049
1665.840089
1657.799158
1513.709761
1481.20858
1448.721377
1522.562558
1491.76348
1518.858281
1543.703541
1559.938495
1569.454758
1498.011136
1520.001352
1499.507633
1618.666527
1626.54914
1644.528868
1572.248197
1582.552804
1573.538649
1458.822873
1469.216686
1492.777265
1430.850954
1409.568264
2289.942355
2264.59089
3940.805588
3871.904398
2569.571768
2525.01104
2532.878604
2545.846948
2431.082048
2732.796085
2588.596237
2579.494651
2267.878834
2283.24471
2216.589939
2397.232127
2308.788414
2294.017365
3036.161436
2960.886268
2789.647792
3147.21567
3049.513318
1968.774171
1965.905366
1945.232541
1999.662106
1974.161788
1978.845317
1915.162721
1896.68106
1939.741267
1921.139877
2120.91611
2131.604007
2091.147412
2197.804383
2146.757599
2134.424868
2037.816373
2036.724556
2008.288621
2079.10762
2046.898484
2048.449337
1717.666623
1698.403535
1747.434
1723.407067
1668.042858
1653.449035
1691.208739
1672.732334
1854.283287
1826.533971
1889.630864
1863.516489
1780.390017
1754.666123
1817.294176
1789.728045
1535.881918
1554.791469
1538.907488
1561.045499
1538.927894
1573.19606
1566.722457
1534.231346
1503.85289
1522.012491
1530.638822
1607.35311
1620.755094
1612.894947
1624.436108
1610.648879
1647.649141
1629.562086
1584.264425
1575.144924
1602.961064
1588.159266
1578.051603
1586.630455
1601.650729
1448.737069
1462.830918
1452.949805
1415.550483
1437.410194
1445.483121
1789.444764
1762.748494
1719.303277
1823.605517
1777.735639
1805.550809
1705.444522
1666.258108
1686.825809
1715.170861
1722.003343
1745.021978
1752.568372
1777.555645
1767.497294
2337.880162
2666.852689
2741.731017
2446.426367
2451.714406
2458.972785
2421.953712
2215.159678
2227.186413
2207.98394
2387.230362
2355.361285
2346.647382
3207.597543
3026.932584
3124.136367
3343.082459
3359.338926
3503.536462
2805.15674
2872.188218
2878.062535
1953.742125
1951.332948
1951.495427
2002.803907
1994.915555
1997.380787
1915.994628
1911.473082
1947.902313
1940.921318
2096.409181
2099.053398
2086.453314
2190.065013
2172.518575
2168.350443
2017.178108
2017.741596
2010.053362
2075.176456
2065.635974
2064.59164
1696.082765
1715.529406
1707.88415
1663.919741
1671.078746
1689.368008
1822.244005
1849.03191
1833.175724
1844.107749
1834.291122
1905.885797
1896.861972
1765.087551
1824.571288
1814.934733
1776.083727
1786.470607
1813.274861
1563.665157
1558.123241
1553.973699
1503.636269
1499.626437
1493.568453
1512.104299
1506.388511
1511.611911
1395.30259
1388.175884
1477.026334
1473.81499
1466.845974
1487.687662
1481.067884
1485.608122
1408.564841
1404.270532
1422.738436
1405.588026
1413.434994
2312.589812
2236.10934
4366.396843
4287.639355
3818.936274
3681.644366
4148.838042
3967.578528
4107.036961
2617.064708
2484.190867
2274.233956
2248.713373
2236.221767
2319.461069
2326.755814
2300.132234
3143.818259
3242.495455
3246.254745
3544.337338
3414.136978
2958.130864
2951.678019
3044.715629
1968.377463
1960.867936
1961.293438
1988.605204
1986.320419
1977.360913
1924.627167
1920.213793
1934.452808
1929.279719
2124.988369
2111.838508
2108.955294
2150.622472
2155.320376
2139.339578
2037.208406
2026.978474
2026.468069
2057.227481
2056.700228
2047.276226
1711.796468
1714.240872
1719.15292
1700.665553
1708.092705
1705.367498
1738.511261
1737.727898
1748.493325
1723.334034
1728.882974
1730.111059
1663.513085
1666.209139
1669.857881
1656.979734
1661.995304
1658.704355
1684.335503
1685.159868
1692.629867
1673.602801
1678.604621
1678.113185
1864.001537
1854.100597
1845.07561
1849.936331
1859.459128
1830.734672
1840.317568
1835.810258
1885.073487
1873.94576
1786.73778
1778.201856
1771.270924
1774.673826
1783.610184
1756.082542
1759.133936
1761.308234
1808.090559
1811.785097
1821.224762
1793.131676
1802.433892
1798.914703
1805.518726
1796.191101
1541.605925
1537.430803
1531.741411
1549.061726
1543.380907
1548.249746
1552.693932
1544.793896
1571.472207
1569.493363
1531.048746
1521.083983
1515.521136
1515.220626
1514.169977
1526.220564
1521.351859
1526.817353
1611.935341
1616.745901
1627.858745
1614.365115
1641.505823
1644.232306
1650.861249
1632.658199
1638.204494
1635.524306
1580.597558
1577.562387
1596.593769
1592.088225
1452.871833
1450.161373
1445.567449
1460.658329
1455.169669
1457.533899
1440.906481
1433.874597
1428.778429
1441.460828
1437.725457
1443.150388
848.0394496
808.7743186
784.1142063
792.0829873
730.7553729
700.1200151
705.3649436
613.8862303
581.0481335
576.6556928
448.0499608
422.8266652
398.8980667
891.673609
864.1440122
820.3879178
851.775954
800.2294196
745.4108288
776.8998128
684.805872
628.564534
645.7876706
501.8982922
458.7720348
445.0688177
951.3851277
941.5627251
881.6755593
935.1844794
901.5451507
822.1633513
884.0005938
804.3129261
709.0233349
766.333106
607.6175673
521.6290232
537.9135922
1019.729436
1035.75861
964.0117225
1039.730477
1043.332753
932.9133544
1039.788745
1004.561436
845.4227118
980.1788078
835.9290182
649.1189407
753.5900368
1085.608112
1132.646791
1060.386782
1150.27428
1209.839916
1084.077973
1232.075917
1302.075919
1071.16733
1322.917329
1332.634144
927.5781914
1288.641085
1135.567151
1210.111704
1154.79634
1240.161624
1352.580114
1250.419591
1399.959881
1588.899613
1382.502629
1674.798271
2151.191956
1515.939912
1834.700131
1871.882096
1332.401916
1156.342889
1244.887249
1223.379075
1280.631127
1412.8233
1376.787348
1467.316673
1671.429979
1632.912261
1754.943455
1867.581355
1837.23588
2341.634483
2482.18653
2463.860241
1143.367131
1230.998758
1247.416104
1265.340201
1385.853187
1414.148868
1432.098151
1586.751324
1659.676138
1708.839546
1780.810697
1818.672759
2033.056963
2065.030401
2117.305142
1099.128628
1176.365961
1220.813829
1205.707018
1303.934111
1369.440118
1339.611066
1451.345133
1555.346584
1566.520691
1610.193586
1653.588709
1756.724758
1769.936149
1815.398697
1030.230928
1092.363011
1157.702561
1115.393804
1190.150354
1277.903456
1216.527227
1298.07745
1414.497327
1408.603367
1440.096559
1482.405024
1553.581497
1566.365657
1599.399718
1067.934813
1158.126148
1256.902029
1237.656356
1256.935605
1308.988127
1376.21557
1393.257602
1428.063711
2174.268311
2235.994712
2176.288918
1830.930177
1879.275104
1847.75545
1610.811464
1646.305333
1623.376455
1439.329389
1472.111461
1444.898772
2878.761254
2103.614162
1955.073549
1230.639438
1819.516772
1696.643614
1739.44643
1676.751499
1889.043099
1797.843662
1725.848812
1894.773244
1825.28266
1922.954784
1524.682216
1567.204986
1527.744787
1659.204016
1606.152234
1540.392154
1699.305199
1630.881772
1685.0055
1711.930222
1755.11224
1728.346826
1757.740106
1750.087209
1735.311685
1842.523571
1827.108361
1837.571449
1353.868387
1397.410161
1367.671957
1474.001607
1430.009465
1364.673355
1517.020741
1453.007531
1495.919263
1524.420447
1555.698798
1531.576126
1570.052795
1558.531235
1548.996258
1621.110723
1609.982774
1616.530934
1340.875488
1269.022435
1310.914777
1343.644098
1381.302158
1351.882182
1404.149215
1387.622108
1369.180718
1456.772155
1445.376988
1454.318636
2573.965691
2582.83887
2718.501094
2218.818666
2286.213866
2275.873716
3103.455081
3278.199441
3259.666261
2779.732127
2882.177885
2813.935154
1913.334299
1887.329523
1839.197251
1959.241653
1904.110945
1928.772724
1880.612153
1896.514341
1936.024951
1968.848556
1972.029745
1997.785202
1890.049668
1909.8786
1894.262648
2156.866597
2147.857242
2199.677165
2006.736905
2035.758559
2025.022181
1650.336619
1643.962752
1632.431781
1720.936597
1707.019602
1713.471152
1648.285343
1658.802821
1698.096173
1729.491994
1732.016236
1739.505874
1644.055301
1649.642432
1646.496585
1841.721598
1857.876383
1882.793473
1747.098681
1754.92741
1751.639614
1494.016956
1478.807295
1467.977631
1539.534506
1529.968508
1538.961445
1466.802615
1482.792025
1514.079086
1552.50605
1557.081995
1560.937339
1488.288433
1494.478853
1488.786891
1629.886487
1632.724661
1638.443497
1564.748666
1568.627001
1564.931582
1362.607352
1330.499685
1379.348593
1384.713429
1391.781643
1471.017618
1476.000823
1482.242729
1398.730877
1402.845712
1397.564595
1849.673776
1868.650578
1762.973372
2186.139473
1962.069469
1919.611196
1924.823897
1969.69476
2211.032378
2423.326139
2467.688816
2336.340724
2865.401311
2585.836426
2498.533691
2649.393987
2602.00742
2913.25938
1975.258995
2017.921632
1990.865892
2067.158316
2046.410423
1981.024672
2155.620821
2073.169154
2093.783327
2366.012074
2295.786527
2189.814335
2455.908085
2337.197244
2420.596738
2225.880741
2300.501769
2364.525982
3984.133079
4170.637605
4124.7895
3638.674008
3770.752683
3675.528537
1766.280225
2445.976007
2508.115794
2537.715557
1877.173471
3620.499044
2813.711856
2653.942205
1411.231813
1399.617836
1410.077537
1379.046189
1389.188892
1401.072434
1364.285317
1376.928311
1366.659179
2431.598233
2541.79511
2502.261353
2747.835774
2690.126722
2685.887743
2324.358295
2311.545882
2398.906935
3178.056738
3246.53483
3087.150388
3741.863735
3435.801411
3261.755288
3472.863334
3489.065723
3794.008201
2879.237672
2873.784002
2808.510228
3334.058843
3255.511596
3307.238347
2896.366086
2988.214082
3090.587748
1942.010894
1963.825745
1952.195511
1901.931284
1916.298443
1935.736983
2091.637058
2132.802155
2125.0278
2046.585651
2046.0835
2079.445148
1691.034319
1697.536402
1694.664568
1675.975815
1678.355136
1684.639046
1813.269168
1821.756232
1816.762081
1792.457788
1796.322109
1804.808674
1527.582626
1533.048457
1528.568946
1513.15809
1517.361804
1522.249937
1600.73618
1605.474394
1602.570242
1587.582502
1590.758737
1595.833459
1351.442665
1441.29578
1446.210586
1442.001534
1426.631849
1432.009052
1436.612509
3163.338526
3428.995328
1578.425554
1568.324914
1574.671839
1553.091053
1560.792719
1571.010446
1540.875694
1550.756679
1542.834798
1595.768155
1603.023435
1614.165516
1581.445377
1592.097297
1584.788204
1605.67882
1599.090646
1588.559578
1426.14269
1435.733255
1447.082978
1412.734147
1424.265337
1414.606109
1448.554846
1433.956066
1422.605156
1668.006208
1655.802672
1662.045836
1641.731457
1648.967634
1661.144024
1625.525014
1637.099651
1629.896254
1655.613482
1652.622512
1647.124093
1663.38433
1658.005879
1660.773244
1652.412296
1655.150171
1660.730822
1499.663243
1489.289908
1498.855569
1470.542057
1479.84758
1490.387494
1458.255127
1469.160016
1459.714371
1512.419392
1521.139068
1531.031995
1500.822066
1511.077963
1502.158208
1534.149148
1520.133764
1509.990596
1548.669702
1553.038705
1548.212745
1565.19396
1561.782613
1566.704664
1494.498006
1500.617168
1505.592239
1621.341382
1627.033275
1623.975384
1632.632055
1629.844144
1623.994946
1641.471506
1635.681717
1638.609323
1575.299584
1572.103359
1568.579171
1579.884892
1575.866552
1578.726057
1569.175082
1572.653462
1576.847972
1463.041958
1469.48313
1464.911278
1403.114627
1406.310586
1415.053929
4098.991599
4160.538779
3978.673893
4321.613953
4379.904265
3781.226388
3891.415845
4002.015481
2540.337445
2498.247203
2490.708158
2505.243051
2503.419114
2545.18318
2427.450252
2464.259245
2467.152851
2680.733003
2688.44722
2742.964033
2590.007895
2637.653877
2633.439602
2630.667336
2635.907293
2586.031956
2259.174532
2255.573731
2279.514814
2213.125154
2233.32652
2236.922689
2365.485367
2361.135702
2393.044777
2304.816655
2331.86939
2336.134499
3017.289718
2943.243266
2954.466918
2902.554505
2923.864926
2991.255335
2800.143449
2860.539788
2841.982657
1958.235105
1959.635927
1967.418613
1948.066401
1952.203867
1951.203033
1991.142209
1993.097477
2001.363471
1975.94709
1984.571744
1982.619979
1909.213394
1914.934054
1920.209876
1903.869737
1909.585975
1903.118547
1933.719377
1937.702278
1943.755509
1925.566302
1931.322771
1927.34317
2117.383123
2115.351572
2129.182822
2089.645967
2102.212032
2103.936264
2179.985571
2177.000093
2194.580013
2144.05625
2160.070938
2162.941337
2026.78298
2027.402042
2037.376959
2009.510285
2018.052073
2017.275955
2067.856221
2067.314598
2077.949537
2047.444059
2057.317403
2057.219048
1881.661604
1889.006905
1897.292753
1869.067557
1879.132119
1872.783661
1533.82831
1538.567951
1543.846619
1508.978736
1512.59761
1508.336024
1610.735625
1608.308799
1604.118486
1618.423848
1612.881496
1613.630346
1607.85123
1610.494813
1615.87288
1581.224388
1585.838493
1582.741959
1590.909299
1588.655148
1584.126967
1599.093146
1593.674379
1595.783528
1447.354466
1451.422898
1457.002901
1421.377827
1427.137353
1421.318111
1780.500233
1765.178308
1773.464309
1748.014506
1756.391853
1771.295681
1727.389933
1741.743365
1733.496382
1808.200114
1817.082923
1832.475613
1786.435409
1801.716993
1792.884549
1821.648999
1811.563339
1795.991312
1692.025725
1699.753077
1713.370018
1673.666961
1686.517793
1678.956574
1699.87622
1693.577876
1680.593737
1717.546212
1724.666578
1721.787341
1729.137706
1727.154515
1720.000252
1742.30623
1734.690583
1737.03632
1760.383864
1757.850569
1749.917723
1774.491172
1766.104297
1768.908465
1760.00461
1762.966824
1771.164845
3151.78457
3200.607039
3268.044668
3060.963001
3131.313326
3085.001919
3215.909417
3175.487935
3095.15495
1702.744212
1700.20852
1693.657906
1713.265155
1706.72843
1709.216541
1701.611741
1704.07026
1710.722055
1666.397655
1672.284118
1669.52144
1676.725976
1674.695872
1668.904291
1687.148199
1680.790904
1682.85051
1831.211214
1826.502329
1817.802878
1843.769308
1835.165909
1840.150216
1825.41436
1830.1646
1838.564003
1779.482475
1787.892824
1783.774799
1795.386195
1791.708346
1783.070842
1809.090867
1800.389871
1804.32307
887.3950658
874.913545
872.7803591
858.9306947
838.2797939
835.4005583
813.0362591
782.1048856
778.2660059
744.5702916
699.5496098
694.8143276
646.2836631
584.205797
579.0698997
513.066589
433.0507486
428.5850543
344.6418442
249.4678248
247.2701198
911.6553997
906.3521978
900.6269885
898.9639009
889.1865206
880.4384175
876.3066356
858.4632065
840.5400642
833.3170001
820.4677807
815.2579944
772.5172092
752.852377
746.0647033
681.6948503
653.1866803
645.3516102
553.4858064
514.5531442
506.8962681
383.8023553
334.8146217
329.7811433
924.9885101
922.8227436
913.7980814
919.3000024
914.1187427
900.5023677
906.8152904
898.306844
866.982189
867.7244172
857.8025916
846.5908127
818.6917708
802.0913855
787.1285216
737.6982826
710.3028938
693.3797734
606.8157206
565.2182414
550.2522171
418.6508089
363.471136
355.2515065
941.5427117
943.6319959
932.8247705
945.6042425
946.869545
929.7585892
947.2451977
952.8088426
910.6118399
919.6502256
914.524414
898.6732122
890.7828516
878.7546268
857.2698945
825.0777753
800.061979
773.6780503
697.3901574
652.5746871
625.5413933
482.4296557
414.0282691
397.9132806
958.1858196
965.4323676
954.5445276
973.8410425
982.9818946
964.8402603
992.3790877
1013.734112
967.6414799
985.2957918
986.9711152
968.1252079
985.4418276
981.6635978
953.1986493
955.0318397
939.2593914
898.8991568
858.4090015
816.114609
764.994553
622.5857686
532.1749825
491.7122017
972.0511266
984.2869317
975.382394
999.006362
1016.217883
1000.440134
1035.930942
1071.794005
1028.684406
1053.693538
1063.937092
1044.874173
1095.552925
1106.044116
1074.137592
1134.492135
1141.113533
1085.796292
1136.368605
1119.78112
1026.958866
960.2692314
843.9398719
733.6834184
978.9984242
995.4864734
991.0237624
1015.544521
1039.301806
1029.421238
1067.324623
1115.037491
1084.228843
1113.528296
1132.496974
1117.072185
1199.767345
1226.466598
1198.78325
1324.477804
1364.621928
1311.345624
1515.733412
1578.489705
1459.390107
975.7702645
995.0150241
996.7300279
1018.49662
1046.370876
1045.143351
1079.573476
1132.186305
1121.809775
1150.05379
1175.251094
1167.865622
1267.477668
1305.21627
1291.449922
1448.578959
1509.600244
1486.573374
960.5853102
980.6644177
989.5503949
1005.113246
1033.951659
1042.667936
1068.428997
1118.813949
1131.644315
1154.294998
1181.605915
1184.496674
1279.878451
1318.968126
1322.989186
1459.648839
1515.235917
1524.845556
932.9264344
952.0023735
968.0376646
975.0642331
1002.033595
1020.330976
1034.066573
1076.947409
1110.698108
1124.802513
1150.476346
1161.383277
1240.233083
1274.602508
1289.991917
1390.835982
1433.420846
1458.720249
893.8989678
910.315124
932.6803448
930.0272594
952.8817068
979.4104802
979.8156507
1012.00337
1062.569968
1067.302172
1089.164748
1106.882033
1163.654787
1191.290404
1214.92772
1281.050862
1312.632865
1345.22803
885.3821272
922.9469076
992.94767
988.6898514
1005.660438
1028.215054
1062.063985
1082.432915
1111.515219
1146.790733
1169.005244
1206.828818
2401.474967
2298.544707
2180.896241
911.2583107
1040.77479
1825.627017
1801.771537
1773.581823
1989.235975
1956.174641
1996.007673
1609.778552
1594.743006
1571.458215
1746.091265
1719.381454
1738.795094
1429.804151
1415.403714
1392.767318
1548.608503
1526.119674
1540.227504
1561.126682
1557.094971
1552.931709
1369.711899
1346.124446
1360.559348
1391.930442
1386.507974
1380.019524
1466.751346
1461.406008
1466.095761
1883.254042
1873.026865
1857.793969
1973.623379
1954.867399
1962.172432
1878.110806
1885.37429
1879.738591
1857.623783
1862.956157
1870.671176
1483.387868
1478.01931
1472.820515
1548.034244
1543.875786
1548.053394
1373.759323
1367.361738
1373.345704
1311.05584
2114.762621
2053.520097
2022.000466
2097.349216
2116.220202
2219.814938
2742.96116
2671.019574
2615.585792
2798.948289
2830.478918
2954.43633
2020.377187
2015.089823
1993.622634
2182.294799
2148.854596
2154.876756
2269.82372
2257.953741
2218.580999
2558.661212
2502.458124
2541.38929
3187.742824
3062.659263
2924.973652
1421.535286
1416.395003
1421.37613
3582.689212
3493.46059
3413.251476
3646.70853
3674.14719
3823.672224
1934.994668
1942.979442
1937.561069
1916.606497
1920.54641
1927.600169
4023.212973
3863.844496
3737.756665
1585.980876
1581.222073
1584.269145
1600.138449
1595.094759
1591.094968
1437.470924
1432.557654
1427.441758
1508.981148
1504.282962
1508.670511
1524.024284
1519.252145
1514.517545
836.5735796
827.7850485
839.8495736
798.6242635
813.7722944
823.2963972
799.815426
806.1697002
790.1594569
773.9166578
762.421012
781.177586
718.0574966
740.9817459
753.1931577
723.4126564
731.3626087
707.5197628
677.9989271
664.4459305
692.0667742
600.5405995
633.3985557
647.1626288
613.8481279
622.6126207
589.0466267
537.0560852
525.1989929
563.8432151
438.3378956
482.5511038
493.5959569
466.0563239
473.6840471
429.352156
348.1177575
341.525704
390.5048771
289.336971
294.1770838
281.514588
285.5871727
883.8866976
870.2456112
879.1640211
848.050239
859.8951859
874.7506299
834.1984816
846.3763565
833.4621559
837.3214098
818.8672613
834.4124665
780.2404847
800.912379
820.2355379
767.2968054
783.2053753
761.9721106
750.0994633
729.0701866
756.3209624
663.5676274
698.1372954
719.4502358
662.4950848
679.2908034
644.9469981
602.3753115
582.4395851
624.9612064
485.2112188
535.7471239
554.3461561
505.9195204
519.7790268
470.9952289
384.5214033
373.1590079
430.7924135
312.0131125
320.4305864
299.3577191
305.0220063
949.3922398
931.403273
935.0378855
920.4504949
926.6804084
946.1547909
890.8903685
908.2366745
900.4981727
926.6619625
901.8697137
912.2940345
872.6916189
888.7874025
915.5857019
841.2148539
864.0184818
846.2669349
862.3964809
829.5374026
853.1002211
768.2456278
801.4316026
836.0633241
743.5306439
770.7245851
736.6649733
721.3819356
684.232505
729.3514018
573.4246889
632.3488338
668.6601031
576.1446599
601.8547644
545.1528226
459.621791
434.1381849
507.3101268
354.6885215
373.1172944
330.2329352
341.1713475
1025.554268
1006.18979
1002.512697
1011.309569
1009.248871
1030.99878
966.6521392
987.6322365
987.4909339
1042.531938
1011.722303
1012.249039
1003.875909
1008.976674
1043.899544
944.450212
975.5755983
966.9286533
1032.970366
983.7748841
995.5939616
944.9381732
967.272725
1021.434925
875.0090324
918.6104913
892.1238229
945.9394941
875.9661663
915.1191717
761.0079277
825.3080591
898.8272396
711.9774259
763.6596585
699.5790273
649.0873512
583.4861164
680.8475948
468.8579579
521.4407745
397.402042
428.6345164
1100.346837
1082.58495
1070.050437
1109.124685
1095.621775
1116.042803
1052.770476
1074.3784
1084.944779
1168.901966
1137.812619
1123.234523
1168.020211
1152.803142
1188.791229
1079.809894
1116.242179
1125.823768
1255.2419
1198.022098
1183.328047
1221.638647
1211.260976
1278.903358
1080.855142
1144.564496
1144.067185
1339.282999
1224.867047
1226.62331
1173.528461
1209.611417
1345.72115
986.3818083
1089.589174
1039.089911
1177.088848
988.4756451
1105.586185
807.1047035
1099.585895
590.8307694
683.5349849
1158.145218
1146.315562
1125.413118
1194.047106
1169.105063
1182.894808
1135.230677
1153.050452
1175.399755
1273.510151
1251.681756
1221.431511
1322.84021
1285.315774
1310.763703
1223.574537
1255.895467
1288.429367
1454.011824
1412.832245
1365.056626
1529.780215
1467.091018
1516.154426
1345.700002
1409.337498
1459.633355
1777.776476
1687.740132
1602.385897
1905.622615
1790.899198
1909.132844
1494.539047
1647.965208
1716.718431
1663.925242
1698.486064
1877.962937
1183.092795
1180.413672
1154.288481
1240.904135
1209.186306
1212.498701
1194.270786
1202.968458
1233.563299
1320.172228
1314.944794
1275.99269
1406.956895
1358.366204
1364.043423
1331.590149
1347.43233
1394.89326
1527.990116
1523.198864
1461.60817
1672.475835
1592.831235
1596.066892
1554.022801
1579.498649
1660.41003
1170.176665
1176.802433
1149.715862
1238.605659
1206.364502
1199.333251
1214.53348
1211.482464
1244.147404
1302.518649
1312.026704
1273.749014
1398.912359
1353.675146
1342.661448
1366.426749
1361.748128
1408.55594
1481.243792
1500.35809
1447.845042
1615.433005
1556.268956
1532.934105
1589.147297
1575.375679
1640.257436
1123.085593
1137.656676
1112.784475
1193.223364
1164.452395
1148.824397
1189.934058
1178.220749
1208.1174
1236.811066
1256.770947
1223.99753
1328.058317
1291.494402
1269.597034
1328.430139
1311.221478
1350.018048
1376.347942
1405.835004
1366.266922
1487.219151
1446.327157
1413.747354
1506.367981
1477.324907
1521.998185
1784.90855
1776.372249
1762.712135
1806.477484
1792.390419
1800.080435
1049.720235
1070.091184
1049.385337
1115.573258
1092.167473
1070.447954
1131.474072
1112.529851
1137.375657
1139.447094
1166.101171
1140.246599
1220.874262
1193.023658
1164.409561
1245.763924
1220.173149
1250.156248
1243.395657
1278.674187
1249.48601
1337.957065
1308.237355
1270.622358
1379.81161
1344.627012
1376.722007
1577.187325
1569.202134
1559.1023
1591.619322
1581.196177
1588.211523
1047.549309
1023.599728
1042.420338
1134.500848
1103.415978
1124.901956
1231.72476
1191.517784
1214.384833
1405.031798
1395.14706
1384.166344
1418.305597
1407.710546
1416.640237
1622.366609
1614.855896
1604.122804
1639.046558
1627.901449
1634.217545
1450.400199
1440.787983
1430.525208
1462.701377
1452.713002
1461.344248
2590.013964
2439.257744
2572.612105
2071.210302
2263.955689
2357.058719
2075.403034
2164.258982
2014.307311
1394.334048
1248.00326
1093.739095
1682.974517
1439.726926
1585.742689
1209.693254
1433.694238
1860.768412
1830.818734
1856.719737
1750.051837
1776.178652
1748.240805
1958.619098
1923.531205
1891.670034
1642.855055
1618.52408
1634.141327
1585.067977
1601.851815
1625.371365
1555.937955
1578.719438
1561.126181
1678.256756
1698.811341
1723.896078
1649.3899
1673.830337
1652.495567
1711.539063
1693.297311
1667.777578
1726.045411
1718.604132
1705.802419
1747.093508
1733.844118
1740.500613
1459.817926
1437.720659
1452.021863
1409.276704
1423.210535
1445.333791
1378.336834
1400.991405
1386.002456
1496.528933
1511.261505
1533.499212
1467.2499
1489.248919
1473.480498
1517.940906
1503.893918
1481.83421
1534.755223
1526.25688
1516.607301
1547.493351
1537.684222
1545.188334
1566.323299
1562.019575
1565.545051
1318.868754
1331.924491
1355.467368
1282.848635
1307.89379
1294.401339
1336.156644
1321.860024
1296.733127
1356.616239
1346.957809
1333.567352
1371.203788
1359.932319
1369.150626
1398.503144
1392.834342
1397.959733
1374.693289
1381.958986
1373.965545
1460.209738
1455.250892
1449.851461
2625.847019
2617.048257
2578.494508
2697.355527
2660.950606
2671.206881
2239.78956
2241.472235
2220.662138
2287.857762
2263.894883
2261.897289
1903.977937
1888.375053
1898.187535
1871.077098
1879.330911
1895.395523
1847.929452
1863.517387
1854.998489
1941.643283
1947.971825
1967.150511
1911.981362
1929.552399
1922.263589
1945.024812
1937.061216
1920.108705
1980.463207
1977.98983
1970.083932
1995.605005
1987.332425
1989.059584
1896.885565
1890.982775
1883.899784
1904.639338
1897.871103
1903.45556
1887.496891
1892.472871
1899.507531
2164.291869
2164.87686
2148.183712
2200.989793
2182.400752
2181.301399
2016.005194
2014.270135
2005.49658
2034.324599
2024.785361
2025.690695
1671.538709
1664.45494
1652.736343
1691.015806
1678.740887
1684.687482
1846.834864
1855.01585
1849.299994
1866.603395
1860.679404
1852.297902
1876.527418
1868.791779
1874.98288
1488.680321
1483.875132
1488.894138
1543.575421
1538.867751
1534.549537
1493.312511
1484.14863
1474.376689
1505.236322
1495.608648
1503.75116
1356.446239
1361.537614
1367.974981
1320.457388
2105.909224
2082.343232
2152.788706
2223.374743
2123.562963
2120.562404
2762.730583
2720.944556
2807.632173
2567.524163
2638.700303
2668.124322
2555.606423
2600.045729
2531.710262
2697.040198
2718.763955
2597.346059
2945.550636
2824.210983
2797.804139
2062.795966
2038.130805
2042.835671
2024.554875
2031.831778
2056.021656
1987.485378
2008.985692
2000.585278
2128.246666
2139.429619
2171.15441
2081.914185
2109.71156
2098.159498
2122.982736
2117.997247
2089.346382
2346.669088
2300.612722
2315.761705
2260.06398
2281.489416
2323.361101
2205.428403
2242.074891
2222.30678
2418.420644
2460.533868
2508.157696
2367.435759
2413.315366
2375.048256
2479.358894
2447.829508
2395.900297
1954.400301
2172.365545
2287.346148
2342.465048
2558.633918
3383.11949
3216.290076
3383.441165
2786.490482
3011.135289
3108.302096
2798.887804
2901.581981
2723.189705
1415.854956
1410.312215
1404.89283
2466.361641
2463.054417
2430.917457
2535.738312
2500.895269
2502.968269
2339.032479
2339.647221
2313.247694
2397.80506
2368.464485
2367.778006
3619.83943
3567.250932
3668.535361
3337.516197
3403.867512
3301.617734
3815.553352
3671.27922
3666.600971
1948.747999
1945.788471
1938.399756
1961.164955
1953.820834
1956.085629
1906.492536
1913.529464
1908.767001
1922.817404
1918.179997
1911.39053
1931.636048
1924.96504
1929.374079
2104.754909