/*--------------------------------*- C++ -*----------------------------------*\
| =========                 |                                                 |
| \\      /  F ield         | OpenFOAM: The Open Source CFD Toolbox           |
|  \\    /   O peration     | Version:  v2012                                 |
|   \\  /    A nd           | Website:  www.openfoam.com                      |
|    \\/     M anipulation  |                                                 |
\*---------------------------------------------------------------------------*/
FoamFile
{
    version     2.0;
    format      ascii;
    class       surfaceScalarField;
    location    "0.14";
    object      phi;
}
// * * * * * * * * * * * * * * * * * * * * * * * * * * * * * * * * * * * * * //

dimensions      [0 3 -1 0 0 0 0];
oriented        oriented;


internalField   nonuniform List<scalar> 
5999
(
0.0004521154613
0.9161978845
0.0005780071726
0.9165741083
0.0007066005761
0.9165214066
0.0003487127692
0.9165281516
0.0004797362044
0.4583361793
0.0003625335176
0.4582932913
0.0004598594122
-0.0004531507574
-0.000580841457
0.4582623667
0.0006684747567
-0.0007546693575
0.458205761
0.0008839083248
-0.001024955969
0.4581775208
0.001177435177
-0.001348663665
0.4581540056
0.001529658073
-0.001709186224
0.4581615746
0.001882611664
-0.002045953475
0.4582050813
0.002172372204
0.001243548254
0.9149543363
0.002005723321
0.9158119332
0.002364798099
0.9161623318
0.0007830749774
0.91687771
0.001232164761
0.4579909179
0.0009476409906
-0.4581554839
-0.4581207821
-0.001173106634
0.4578389823
0.001454906439
-0.4579468777
-0.001802071186
0.4575309885
0.001040673909
0.001177286542
-0.2288996399
-0.001260317941
0.2287914338
0.001368524077
-0.001823982199
-0.2288267836
0.2286841248
0.001966640969
-0.00252886649
-0.228773682
0.2285942844
0.002708264005
-0.003326950289
-0.228781833
0.2285903621
0.003518421214
-0.004062629445
-0.2288754516
0.228745341
0.004192670524
0.001579163293
0.913375173
0.004212105211
0.9131789913
0.007161854596
0.9132125824
0.003061984814
0.9144302244
0.00654735535
-0.4578841622
0.4576262151
0.003319931943
-0.4575566747
-0.003404273884
0.4580818652
0.002879083372
-0.4569635042
-0.00311103427
0.4565532417
0.001702781476
0.001818515314
-0.228264475
-0.002107365867
0.2280349459
0.002336894951
-0.2279792308
-0.003153917663
0.227665234
0.003467914476
-0.2277874097
-0.004035862264
0.2299705056
0.001849816108
-0.2324444651
0.005628792649
0.2344160031
-0.007611741157
-0.2317874735
0.01176016367
0.2325668032
-0.01254742775
0.0005728252773
0.9128023477
0.001275261072
0.9124765555
0.002647580069
0.9118402634
0.003447909414
0.911216744
0.002413151023
-0.4567786754
0.4562461135
0.003980471335
-0.4594844774
-0.005314811119
0.4562834292
0.008515859283
-0.457815472
-0.009961529946
0.4591435114
0.002633124764
0.006000365796
-0.2271905147
-0.002752587777
0.2269093789
0.003033723531
-0.2277899481
-0.003300624234
0.2303775897
0.0007065690206
-0.237405232
0.006268520379
0.2392177848
-0.008109441388
-0.2385459191
0.01176481949
0.2391038965
-0.01235205146
-0.2335261627
0.01260218745
0.2332578932
-0.01234878219
0.0001500815096
0.9126522662
0.0003902227528
0.9122364143
0.0008661071775
0.911364379
0.001526913174
0.9098938403
0.0006620976997
-0.4558727699
0.4549770077
0.002422675407
-0.4546912337
-0.002979721023
0.4538919778
0.003778976891
-0.4527997891
-0.004858085506
0.4517586915
0.003093431869
0.002805751246
-0.2272853646
-0.005104163322
0.2255949899
0.006794423674
-0.2372254816
-0.00449332999
0.2407398946
0.000944180494
-0.2419202818
0.005006954217
0.241917375
-0.005054089576
-0.2377287082
0.002654198307
0.2361948683
-0.001159248211
-0.2301742856
-0.004436816648
0.2282810137
0.006314016173
-0.0001978893536
0.9128501556
-0.0002622571027
0.912300782
-1.563716846e-05
0.9111177591
0.0003373958672
0.9092802097
0.0002605975659
-0.4540091715
0.4535951543
0.0007514130697
-0.4532151141
-0.001835440982
0.4522921784
0.002758376699
-0.4506608979
-0.003515439409
0.4493713168
0.002393826162
0.002411194386
-0.2286262944
-0.001891395096
0.2294704721
0.001030167606
-0.2386093543
9.541460479e-05
0.2383407463
0.0001206073123
-0.2399236392
-0.004946020287
0.2365577254
0.008255409039
-0.229285399
-0.01784873636
0.228743908
0.01835717322
-0.2199784358
-0.02944416492
0.2174787693
0.03193597787
-0.0007102516441
0.9135604072
-0.001261084971
0.9128516154
-0.001602397309
0.9114590714
-0.0002200179342
0.9089568791
-0.001059048745
-0.4534099742
0.4530377131
0.0001522432077
-0.4511077655
-0.0004650727149
0.4506291594
0.0009436787981
-0.4487516691
-0.002064315525
0.4482054754
0.00131227137
0.001298541458
-0.2300642584
-0.0008386883936
0.2299782742
0.0008951315774
-0.2369825658
-0.002615466284
0.234416074
0.005116238087
-0.2295317161
-0.009653695411
0.2274026418
0.01172525984
-0.2145484379
-0.02065017409
0.2097749694
0.02540398786
-0.2063764832
-0.04443009905
0.1045774888
0.0987538968
0.02156408628
0.02591111034
-0.00126411532
0.9148245225
-0.002456273001
0.914043773
-0.003419472131
0.9124222706
-0.001781997167
0.9097908543
-0.00247145012
-0.4530110867
0.4530093246
-0.001780235083
-0.4503944844
0.00182796656
0.450273914
-0.00170739618
-0.446929093
0.001499225869
0.4467393205
-0.0005086785455
-0.0008015806674
-0.2285413135
-0.000611359931
0.227795838
0.00131948717
-0.2303281017
-0.004430418813
0.2291240608
0.005569093968
-0.2214940663
-0.009737742682
0.2199573728
0.01122268259
-0.2018544961
-0.01535802887
0.200688116
0.01651829855
-0.09017726808
-0.01063038481
0.08995439861
0.01085325429
-0.001823591357
0.9166481139
-0.003570670976
0.9157908527
-0.005383038116
0.9142346377
-0.003170223474
0.9114420629
-0.0038640233
-0.45328464
0.4535506783
-0.003436261689
-0.4503829578
0.003748382995
0.4506797372
-0.004045162385
-0.446662717
0.004333247273
0.4469095978
-0.002144681646
-0.002439034338
-0.2260901293
0.001750198412
0.2254340051
-0.001122707228
-0.2251840355
-0.001715091511
0.224020603
0.00283077598
-0.2164893209
-0.005886305857
0.2157425738
0.006596544836
-0.2006409588
-0.00701907094
0.2012964961
0.006361585439
-0.09371399437
-0.001132255043
0.09439031377
0.0004559356383
-0.002345280466
0.9189933944
-0.004810418102
0.9182559903
-0.0072348367
0.9166590563
-0.004558944673
0.9140257424
-0.00525957147
-0.4540991831
0.4546457902
-0.005105551771
-0.4511164037
0.005739367636
0.4518364265
-0.0064593904
-0.4473563777
0.007189908802
0.448093691
-0.003744818891
-0.004184972654
-0.2236410755
0.003504103807
0.223097655
-0.002978137663
-0.2209701733
0.0006490693988
0.2200829764
0.0002097827514
-0.214249972
-0.002232379007
0.2139396479
0.002521502108
-0.2039561678
-0.001592811787
0.2049403822
0.000607978428
-0.09791009575
0.00153771386
0.0982976954
-0.0009426864673
-0.000982627041
-0.00293802041
0.9219314148
-0.005886075871
0.9212040458
-0.009019232948
0.9197922134
-0.005882360511
0.9174426504
-0.006553780455
-0.4554525927
0.4562594982
-0.006689266028
-0.4526806821
0.007664547483
0.4536354752
-0.008619340616
-0.4491760828
0.00973354372
0.4504649775
-0.005384671562
-0.005637593174
-0.2216022371
0.004989486653
0.2211341513
-0.004526489493
-0.2177040152
0.002514386003
0.216988888
-0.001807841952
-0.2133993398
0.0003961027152
0.2133283557
-0.0003317280875
-0.2079860565
0.001856213987
0.2090230727
-0.002893269314
-0.1006039377
0.003018179641
0.1008775733
-0.001630306194
-0.001661509032
-0.003464537658
-0.006976512637
-0.01067181586
-0.007051215998
-0.4572713608
-0.008053188577
-0.4548310034
0.0092201412
-0.01049113784
-0.4516532799
0.01189951895
-0.006464471796
-0.006849725735
-0.219771513
0.00603274365
0.2193187055
-0.005570915038
-0.2150263035
0.00367089356
0.2144244989
-0.003057138275
-0.213395993
0.002035638199
0.2135103479
-0.002142704417
-0.2122568353
0.004250122193
0.213395565
-0.005388824332
-0.1027015852
0.004353764728
0.1029729842
-0.002292912298
-0.002332251426
-0.001726398432
0.001009109856
-0.09299670579
0.001307109411
-0.09750407499
-0.0008361955175
-0.00087693465
0.002857068454
-0.1003157963
-0.001560234757
-0.001584975144
0.004180073006
-0.102436394
-0.002204255842
-0.002241008385
-0.01249812665
0.01315190616
-0.0908310476
-0.002706603056
0.00174985079
-0.2030003062
0.09839430793
-0.09800082517
0.0009136266554
-0.09458445138
-0.001705237714
0.09515743405
0.001114152041
-0.002137617373
-0.2069627146
0.1010363878
-0.100744042
0.002564722707
0.001164827649
0.09876719415
0.0993675779
0.002159210628
-0.09903030705
-0.001235022718
-0.001261458764
0.04926947321
-0.0009888928246
-0.04900599315
0.001786470889
-0.001061058128
-0.04828739482
-0.0007551284188
0.00142610449
0.04836128272
-0.0007448639686
0.003709039462
-0.004839279288
-0.2111265422
0.1031873227
-0.1029155982
0.003908348427
0.002739334095
0.1013152333
0.1016678364
0.003502358942
-0.1014075273
-0.001864885418
-0.001897782572
0.02521276791
-0.0009875616849
-0.02527327786
0.001048071633
-0.04946937977
-0.000954827766
0.001956320795
0.04950274771
-0.001034860976
0.004072099562
0.1034689879
0.05198926612
0.002459676687
-0.002543078811
-0.051905864
0.02711783724
-0.002013388493
-0.02686505237
0.001760603627
-0.02623147025
-0.0009969816072
0.00115184348
0.02607660837
-0.04212284146
0.000151321529
0.04277196453
-0.0003925849444
-0.0004078596595
0.04603085048
0.001124639711
-0.04559965442
-0.0008388636147
-0.0007169721559
-0.006548859434
-0.03882401496
0.03873483725
0.006638037138
-0.0002231345424
-0.0004251223627
-0.04147458455
-0.0007188800421
-0.04820651241
0.001378490991
-0.0007404933579
-0.001227941381
-0.04730003873
0.001108545634
0.04741943448
-0.09611696151
0.000477462294
0.09661044402
-0.0009709448056
-0.04711167936
0.04718710182
-0.0006192502876
-0.0006841135592
0.02421956362
-0.000733648267
-0.02420479539
0.001112104763
0.04630336699
-0.000764905792
-0.0006197154852
0.001187352508
-0.0470351215
-0.0006155932195
-0.0006483171419
-0.0009594582746
-0.04947919568
0.001901667972
-0.0009323937862
-0.001049051673
0.001777537101
0.04942810535
-0.0008871175618
0.00234255918
0.0997008605
-0.001324223733
-0.001351618045
-0.02497107706
0.02503817354
-0.001116148151
0.02454660966
-0.0009060116907
-0.02460005624
0.02421040574
-0.0007459705364
-0.001202044523
-0.02475792536
-0.00103707011
-0.02635706663
0.0011626665
-0.0009971358142
0.001065980446
0.02514392328
0.003667885937
0.1019245674
-0.001943697354
-0.00198091965
-0.02540410653
0.02526548439
-0.0008585136657
0.02683803523
-0.0008064447322
-0.0270686606
0.0245266206
-0.0009348387121
-0.0008504208786
-0.02554124734
-0.001451335982
0.001498426194
0.02707074702
-0.002587050419
-0.02763947429
0.02745268318
-0.001264544869
0.02657645219
-0.0007353985727
-0.002262685817
-0.02739017697
-0.008833959018
0.008434233716
-0.200243734
-0.09399934335
-0.00231150646
-0.09216331561
-0.01031978327
0.09185271407
0.09086094064
-0.005567897106
0.004992049982
-0.09028509351
0.04255956873
-0.04201855132
-0.000764151953
-0.03986876783
-0.006479326528
0.03979923493
0.000151749254
-0.0006817720741
-0.09558693869
-0.04718887022
0.001076183997
-0.04590734586
0.0008373564619
0.04618209416
-0.04557315721
0.0007904510652
-0.0003656759798
0.04307656624
-0.004261447669
0.0915286024
0.003593785919
-0.01972409203
-9.562329341e-05
0.01964383447
0.0001758808497
-0.004345408981
-0.01537124099
0.0151332751
0.00458337487
0.0008144015043
0.01760726902
-0.001075687425
-0.0173459831
-0.03248855704
-0.09368018675
0.04568261779
0.044205561
0.01807997372
0.01820059127
-0.00763696025
0.008569537889
-0.03975659259
-0.00112038421
-0.02491377555
0.001264177245
0.02476998252
-0.05108485089
0.002612353068
0.05114129328
-0.002668795453
0.05135800495
0.002762771251
-0.00283410741
-0.05128666879
0.004680011924
-0.01878907673
0.02657000005
-0.01246093524
-0.0001670428195
-0.01977942722
0.0002223780149
0.04426735935
0.0007542161587
-0.04383065798
-0.0005952734167
-0.0005956441117
0.02180891077
-0.02208566586
0.0001097122723
-0.02061071102
0.003054260607
0.02223646233
0.02225967959
-0.02425359878
0.001973885575
2.003361021e-05
0.0001887228525
0.02152456462
0.000878728816
0.04467191735
-0.0006260254805
-0.0006572613283
0.03952395168
-0.003073001364
0.00252086248
-0.0389718128
0.01815269924
-0.01770145244
0.0003631547049
-0.01658076323
-0.003823314544
0.0160586688
-0.003159358138
-0.01985440842
0.002403055544
-0.001521019723
0.0008654195761
0.01880829938
-0.002068989104
0.04015948645
0.001433454333
0.01821272415
-0.00212647485
-0.003152626483
-0.01879580838
0.02407043704
0.0006871103656
-0.00079121787
-0.02396632954
-0.02065312988
5.5271344e-05
0.02059506126
2.797277957e-06
0.0007242160029
0.02411929
-0.0007730689658
0.04674995878
0.001122678504
-0.04662734265
-0.0006469084837
-0.0005983861468
0.02103385022
-0.02105822955
4.131684511e-05
-1.693751128e-05
0.0006079736265
0.02158254344
6.91625269e-05
-0.02070338382
5.558981686e-05
-5.335879803e-06
4.777524923e-05
0.02098663635
-5.613828127e-07
0.001135536443
0.04686004551
-0.0006376803969
-0.0006079427777
0.02493930414
0.0008590920039
-0.0008450766545
-0.02495331949
0.0009290175546
0.02486684133
-0.0008565547436
0.02420971973
0.0008224724334
-0.000822202912
-0.02420998925
0.0008305000339
0.02421422828
-0.0008350085887
0.02457352874
0.001308290123
-0.001373462855
-0.02450835601
0.001558910804
0.02489018055
-0.001875562618
0.02615880153
0.001215408788
-0.001433685762
-0.02594052456
0.001109197285
0.02621603003
-0.001166425785
0.002805475507
-0.002869088207
0.02464599214
0.001066244487
-0.0007922751747
-0.02491996145
0.02439154307
-0.000865935142
-0.04217332736
-0.02005623787
0.03799664158
-0.005594174679
0.005821409922
-0.01559847623
-0.02553122392
0.001069747897
0.02557067331
-0.05019555969
0.001903342506
0.05025662398
-0.001964406795
0.05042122026
0.002018822891
-0.002073019009
-0.05036702414
-0.049935313
0.001765218896
0.05000278842
-0.001832694309
0.001873535828
-0.001936234207
-0.05013286131
-0.02541046402
0.001094648881
-0.05089256831
0.002411721174
0.05094189458
-0.002461047437
0.002555724967
-0.002602532445
-0.05103804342
-0.02507344195
0.001225910879
-0.04949175763
-0.0008818436161
0.001813681262
0.04948893754
-0.04965166269
0.001624151949
0.04972668914
-0.001699178398
0.001727662898
-0.001796734101
-0.0498662418
0.02370950285
-0.0003167480708
-0.02397687973
0.0005841249549
-0.0003043157183
-0.02473970479
0.0005555912464
0.02448842926
-0.0247417559
0.0009303512719
0.02468903607
-0.0008776314353
-0.02488061471
0.001357609464
0.02508191605
-0.05063911159
0.002254248094
0.05069047079
-0.002305607295
0.002367122538
-0.002420513328
-0.05083917752
0.002059930256
0.0504751342
-0.002113844195
0.002190165869
-0.002245610443
-0.05058366701
-0.02481613094
0.001243806359
0.02483931761
0.001022605284
-0.00087829591
-0.02498362699
0.02430008732
-7.315665248e-05
-0.02456625742
0.0003393267469
-0.02526684293
-0.0001220866569
0.0003572090211
0.02503172057
0.02274990267
-0.02289491425
0.0001505872966
-5.57570994e-06
-0.02622850375
0.002230028979
0.02397108138
2.739338515e-05
-0.02693592771
0.001601345766
0.02722960915
-0.001895027208
0.02477917186
0.001216615512
-0.00140720649
-0.02458858088
0.02297159512
-0.002134173835
-0.02292056634
0.002083145057
-0.0003744814222
0.0006504665788
0.02343351769
-0.0001143550357
-0.0255033678
0.0003508799096
-9.862745017e-05
-0.0262171241
0.0003396055191
0.02597614604
-0.02594529203
0.0009676767814
0.02581263452
-0.0008350192679
0.02575273545
0.0009976311641
-0.0007212178574
-0.02602914875
0.02228182809
-0.02239324617
8.687988115e-05
2.453820251e-05
8.465120603e-05
0.02261447483
5.077663052e-05
-0.01944483863
0.004413704035
0.01497526143
5.587317107e-05
-0.02437458988
0.002547738724
0.025264565
-0.00343771384
0.01786763959
0.001165591872
-0.01917410283
0.0001408713646
0.003927702452
0.01381021043
0.0001297267118
0.01564343603
-0.001617282104
0.001307333669
-0.01533348759
-0.000864562412
0.01615392457
0.0003540738727
0.0200529535
0.000391750861
-0.02067274043
0.0002280360644
-9.719514749e-06
0.01988002171
0.0001826513102
-0.02299032986
0.0003369130971
0.02264369725
-0.02228080445
0.0007297784938
0.02228061536
-0.0007295894067
0.02208218225
0.0007140995404
-0.0006385827856
-0.02215769901
-0.02112053204
0.0008733764373
0.02156267352
-0.001315517908
0.0007799757201
-0.0008752273174
-0.02218555285
-0.02335622863
0.0007576496295
-0.02005927616
0.00389756233
0.02008941629
-0.0224451087
0.001371211355
0.02305262811
-0.001978730761
0.02478933601
0.001154941353
-0.001491895822
-0.02445238155
0.0007432240512
0.02202427823
-0.0006853200258
0.001152967304
-0.001478542247
-0.02211953376
-0.02070190817
0.001808223875
-0.0004180421244
-0.02048106721
0.0006446284276
0.02025448091
-0.0200302226
0.0003354555879
0.02019626443
-0.0005014974128
0.000733189421
-0.001171006435
-0.02068271503
0.02049008139
0.0009909824884
-0.0009545036341
-0.02052656024
0.02003208433
3.995493405e-05
-0.0199052138
0.001369429893
0.01851886198
1.692192806e-05
-0.02243215903
0.001457132659
0.02282811607
-0.001853089699
0.02616924136
0.002052727974
-0.003061884028
-0.0251600853
-0.02272565928
0.0005539823013
0.02258540061
-0.0004137236342
0.0009810605975
-0.001036992601
-0.02237622703
-0.0203491632
0.0003865151183
5.743427745e-05
-0.02620390343
0.0004615358541
0.02600828266
-0.0002659150785
0.02541185472
0.0004408469087
-0.0002377611642
-0.02561494047
0.001511128015
0.02656533256
-0.001907219221
0.0005187037445
-0.0003275323507
-0.02639507482
-0.0212164234
2.326062354e-05
0.02118487378
8.288993331e-06
-0.02450758861
0.0005465059643
0.02435388403
-0.0003928013849
0.02389521515
0.0005330293028
-0.0003849232715
-0.02404332119
0.0008943971358
0.02485959848
-0.0009646595976
0.0005644743902
-0.0004162743216
-0.02465578868
-0.02126608464
2.393750438e-05
2.572373326e-05
-0.02084971674
4.404230978e-06
0.02078211883
6.319367766e-05
-0.02330901905
0.0005245273514
0.02315881604
-0.0003743243462
0.0005385997831
-0.0003959629764
-0.02286829609
0.0005337697271
0.02374963754
-0.0003881921079
0.0005254447708
-0.0003759904576
-0.02345847336
-0.02091073443
1.057638445e-05
5.044130633e-05
-0.02621688316
0.0003183750296
0.02599494401
-9.643588515e-05
0.02534517007
0.0002698000324
-5.165434575e-05
-0.02556331576
-0.02704137637
0.002019541121
0.02714101099
-0.002119175737
0.0003893785527
-0.0001328962144
-0.0264733655
-0.02448576068
0.02427437936
-9.293439319e-05
0.02359983771
-7.547998527e-05
-0.02384110579
0.000270950645
0.02512624497
-5.202554679e-05
0.0003000260292
-8.979896428e-05
-0.02469598775
-0.02450161612
0.0004527296826
0.02426663381
-0.0002177473707
0.02354838421
0.0004814189739
-0.0002386272639
-0.02379117592
0.0004336583729
0.02518993368
-0.0002117373347
0.000445156186
-0.0002130787185
-0.02473369359
-0.02256904448
0.001992170385
0.02263349285
-0.002056618748
0.003225803463
-0.004486574773
-0.02578060506
0.00050758702
0.02330164326
-0.0002608460715
0.001165837344
-0.0009495582295
-0.0227853236
-0.0004778645575
0.02271581879
-0.0233070869
0.00106913267
-7.059754493e-05
0.0003496053777
0.02402107949
0.001038712935
0.02469959138
-0.0008989867013
-0.02184912681
0.02173755482
4.097445209e-05
0.02089925774
-0.02139340133
1.627902895e-05
-0.0222266916
0.02213119261
-2.658766804e-05
-0.02196803411
4.575064508e-05
0.001479615265
0.01941726801
2.374464371e-06
0.001859639906
-0.002493767225
-0.02630180039
-0.03089750353
0.004679142729
-1.014294744e-05
0.002209331692
0.02198610236
-0.002190059634
0.02747980734
-0.02739232521
0.002102577504
-0.004419509414
0.003271908731
0.02411919581
0.001351351751
0.02508340748
-0.001655587373
-0.02172350502
0.02173541007
-0.004431414462
0.02387717511
-0.02607737821
1.014347234e-05
0.023325222
-9.986571519e-05
-0.001446086194
-0.02241159266
-0.02260369518
0.02250789968
-2.831950642e-06
-0.02232126564
-1.978099413e-05
0.0007536386182
0.02311724667
6.289820337e-06
0.0001050021041
-0.02270753142
-1.165859145e-06
0.0009683715355
-0.0008452333872
-0.02606843018
-0.02647046917
0.0003583471716
0.001120046645
0.02711339931
0.02180930734
-0.02193583296
0.0001366650945
-1.013946423e-05
9.77789222e-05
0.02217188077
1.216839615e-05
0.001009124989
0.02547483202
-0.0007312215577
0.002000952032
-0.002261611387
-0.02411393053
-0.0209595098
0.001432978189
8.169297874e-05
0.0001747941694
0.02166151384
-2.70006699e-05
-0.04858982918
-0.0008585959097
0.001605840771
0.04867308436
-0.0489568413
0.001324438841
0.04905020525
-0.001417802789
0.04933119739
0.001446364609
-0.001537987289
-0.04923957471
0.001132921487
-0.04856412635
0.048665381
-0.001234176133
0.00127572434
-0.001374890112
-0.04885767553
-0.000814554997
-0.04851388044
0.001561078692
0.001484456662
0.04942048872
-0.001573747988
0.001593986451
-0.00166709182
-0.04957855733
-0.0009314771152
-0.04948821042
0.001787021903
0.02511665941
0.0008355339055
-0.0008632107754
-0.02508898254
0.02675988615
-0.02699998054
0.0006294729401
-0.02691793491
0.001666110322
0.02727136571
-0.02592952773
0.002237396289
-0.02327782136
0.001632092279
0.02363789947
-0.02429390279
0.0009553387026
0.02440823401
-0.001069669919
6.810341401e-05
0.01956879727
6.933783169e-06
0.02257967158
0.003751302742
0.0002390257263
-0.01294600656
0.000485071319
-0.0001787504303
-0.01984600186
0.0002453250729
0.0001030374322
-0.02236745372
0.02227785338
-0.02259658648
0.0004217705385
0.02196178342
0.0004257822305
0.004199606272
-0.02847593508
2.273003299e-05
0.0252656491
-0.0240463883
0.002980345467
0.02539497016
0.001844564515
0.02165800631
0.0004924999617
-0.0003836233463
0.0213756667
0.00066596296
0.02120904469
-0.01889130961
-0.0003597278444
0.01915684686
9.419059916e-05
0.0001206988169
-0.000402232533
-0.01974868888
-0.02034914902
0.0008590642991
-0.00342872865
0.01955627008
0.002085182716
-0.01670382079
0.0235534705
-0.01027837836
-0.002101264656
-0.01672903098
-0.0164603711
0.0003617380611
0.0006599739453
-0.01752734037
0.0004069953237
-0.01944972706
0.001313892619
0.01429478063
-0.01425710534
-3.767529407e-05
0.02947624758
-0.02077339145
0.0055919245
0.02512678811
0.004343674822
5.784649285e-06
0.02227431837
-0.02244314262
0.0002240955939
-7.112687425e-05
0.02207317224
0.0002722730111
0.02052482355
-8.891601752e-07
0.02184039631
-0.0218937466
8.481340841e-05
-3.14631124e-05
0.02180524685
7.592021727e-05
-4.077075692e-05
0.02306409385
0.002060742844
1.951415807e-06
0.02237083072
0.0006957609712
-2.497840656e-06
-8.117851829e-06
-0.02113063943
8.052773398e-05
0.02384948423
-0.02403041394
0.0001728118607
0.02369728007
0.0001935210054
0.02508614546
0.0009167983304
-0.0001474339522
0.02478556632
0.0004480130866
0.02136085689
7.425260451e-05
5.77174984e-05
-0.02074210024
-1.900108016e-05
0.0225980069
-0.02274605554
0.0002057661389
0.0002104540923
0.02354434223
0.0002007130926
-5.200901004e-05
0.02339424573
0.0002021055052
0.0209464397
-1.181235603e-05
0.02575538264
-0.02601164782
0.0005260652079
0.0005639696911
0.02651429149
0.0009410244732
0.02503338252
-0.0008577475886
0.0009075383114
-0.0008700358118
-0.0247792584
-0.02499008112
0.0005504023573
0.0005280012399
0.02549833205
0.02374326638
-0.0239334341
0.0006715866941
-0.02449817233
0.0006392752709
0.02431162675
-0.02421763925
0.0007968824834
0.02421064644
-0.0007898896755
0.02134626571
-0.02141019312
3.05855084e-05
3.334190231e-05
0.02127661155
3.343835045e-05
3.621580359e-05
0.0217149627
1.422195379e-05
7.606219022e-05
0.02165274461
1.501938075e-05
4.719870996e-05
-0.01466801816
0.0146194277
4.859046759e-05
0.02120197563
4.365819343e-05
3.09777363e-05
7.043472178e-05
0.02110543025
2.611065209e-05
0.0009144545738
-0.0009664235708
-0.02424193379
-0.02326038966
0.001148405642
0.0006944957113
0.02355635769
0.0003573826507
-0.0001251655848
-0.02479847448
0.02482271633
0.0006411362327
-0.02510646992
0.02452272481
0.0006393182734
0.0002852833958
-0.02318298034
2.782686574e-06
0.0268521271
-0.02725289765
0.0006860539517
0.02652309695
0.0004796174466
0.02766950242
-0.02763445545
0.002194982018
-0.0007741929279
0.001190797692
1.390811962e-05
0.02307463733
-0.02389284255
0.0008020985112
1.610671144e-05
0.0003203698464
-6.237693459e-06
7.959167592e-05
-0.02250235445
2.951661058e-05
0.02562424566
-0.02591610474
0.0003714507592
0.02533315713
0.0003779684078
0.02621249132
0.0003952568296
-7.644012659e-05
0.0003728267067
3.568025346e-05
0.026177952
-0.03089434045
0.004697210964
1.917748338e-05
0.002263730599
2.13788481e-05
0.02193336186
-0.02199339287
0.004473735049
-0.0149247135
0.00596373492
5.054792693e-05
0.0002921781948
0.0001025162541
0.01371971219
9.049823375e-05
0.01346595074
-0.001902141407
-0.01296061465
0.01383650199
-0.0009248947641
0.0166633336
-0.01953034652
0.00151499981
0.01469087763
0.0008909921719
0.001081463796
0.01400908151
0.0001563340599
-0.006983215543
0.001461950539
0.001658014365
0.0002489167895
-0.0001045649185
0.0001385847646
0.02217949985
-0.02115483167
0.00287289415
-0.005333193394
0.003466304946
0.0007993147169
0.02113508816
0.001039893254
0.00178848037
-0.02014393321
0.01842603537
0.0007633942103
0.002824163672
0.0005853736117
0.001853873515
0.01159742044
0.0009921925348
0.001319042083
8.672782318e-05
0.0004956294498
-0.01786809507
0.0004274825194
0.0005978952348
0.02068135327
-0.02128209977
0.001970176394
-0.004289314615
0.004197276436
-2.755797208e-05
0.0001190075326
5.665281631e-05
0.02176745659
0.0004247231773
0.0008718719447
0.02195733406
-0.02202979525
8.352473514e-05
-1.10635444e-05
8.093639417e-05
-1.734893551e-05
0.02213729525
0.0002307474595
2.788004943e-06
0.0001111632207
-3.66321954e-06
0.02420645275
-0.02437246965
0.0001892775256
1.744064561e-06
0.000174294746
5.597841819e-05
3.671442554e-05
5.805782206e-05
0.02455661158
0.0002656691653
0.000208079434
0.02290007285
-0.02307322633
0.0001775577096
-3.893985648e-05
0.0001929571717
1.078741126e-06
4.377959396e-05
-8.074329133e-06
0.0232427493
0.0001952760237
0.0001800993545
-7.819456154e-05
0.02578290133
0.0002902372473
-0.02242254884
0.02234924711
-4.892831396e-06
-0.02250867997
-1.03047561e-05
-0.02226351658
0.0221852894
2.657283358e-05
5.41320848e-05
3.159844305e-05
0.0002737176513
-0.0007140243
0.02679605081
0.001058984483
-0.02361726486
0.02287496621
2.827433807e-05
-0.02577941221
4.29716191e-05
-0.0226321593
-9.416884913e-06
0.0002590189452
-1.621203678e-05
0.0005817042562
-9.386115027e-05
0.02406152136
0.0003067191424
-0.02179225444
0.02171593171
-1.75384253e-05
-0.02187240342
-1.278540933e-05
-0.02163469855
0.02153472684
2.449172819e-05
8.596859506e-05
-4.735434117e-06
0.0003063841665
-5.743954065e-05
0.0249059589
0.0002777256077
-0.02210738123
0.02202114396
2.879773097e-05
2.588262811e-05
-0.02195016078
-1.204160202e-05
8.165343527e-05
-1.067026088e-05
0.0002916245927
0.02147074312
2.263438323e-05
-0.02153356575
4.018824865e-05
2.887189072e-05
3.167810723e-05
-0.0002242390428
0.02403030996
0.0004605628863
-0.02402496697
0.02382959981
-0.02422007995
-0.02363023014
0.02342504122
0.000229955186
0.0004690892289
0.02159756212
2.128426392e-05
3.389822496e-05
1.81586343e-05
4.583774105e-05
0.0190412217
0.001394284399
-0.02046684091
3.133481719e-05
0.004341717671
3.148586936e-05
-0.004310636565
0.0237791875
0.003164941915
-0.02142180067
0.02145288178
-0.02208413502
-0.03029895552
3.296853734e-05
0.00577335396
0.003771936397
-0.0003212562396
0.02304655007
0.0005763494283
-0.02320785335
0.02295703183
-0.02261232683
-0.0004213664183
0.0004915451087
-0.0001468401103
0.0007527715845
0.02092205397
3.653617359e-05
3.384663478e-05
0.0005922877683
-0.02371005079
-0.0001893238784
0.02357062476
-0.0238932565
0.0009149195139
0.0232948716
0.001344885823
0.02421224453
0.0006600856597
-0.0004114056732
0.000730393698
-0.0001003769735
0.0216080346
2.914324226e-05
2.530939484e-05
0.02204088401
0.0001276722187
-3.736362107e-05
-5.231568386e-05
0.01492764597
0.004488218976
1.403071084e-06
0.01495705854
-2.941257245e-05
0.006017786026
-0.02195823101
0.02640845412
-0.0244166304
0.004025962306
0.003453141396
0.02330556645
0.00219863684
-0.004516090327
0.00340502638
-0.01483021892
0.03067401718
0.005891611812
-0.01483857291
8.353989905e-06
-0.01928895564
1.896826818e-05
0.004589104423
7.534543967e-06
-0.0001845370955
0.02296167846
0.0005480806335
-0.02141932754
0.02122235338
1.243706441e-05
1.553358592e-05
-0.02074964862
1.460678694e-05
0.0004632014857
9.503266393e-06
0.001013287291
0.02241457473
0.0001011627541
-7.837802945e-06
0.0001088758584
-1.556676722e-05
0.02284749618
0.0002678323503
1.918142036e-06
0.0001393212289
6.435239387e-07
0.000114967505
-0.02205689402
6.093546419e-06
0.02445058149
-0.024749249
0.0004136350102
0.02414340089
0.0004438456996
0.02504244179
0.0003884942696
-0.000105318204
0.0003985109952
9.668548942e-06
0.0005278822171
-0.02143715173
-5.024028546e-05
0.02277384007
-0.02338124696
0.001135289109
0.002213425384
0.02380518479
0.0005130102664
-0.0002624805513
0.0006864183822
-3.811844519e-05
-0.001907185001
0.002114066494
-0.2284713564
0.002843141918
0.2280656589
-0.2283304181
-0.002578382653
-0.2289288176
-0.001647577672
0.228752413
0.003117375723
-0.2282534646
0.004050758967
0.2278105085
-0.2281471141
-0.00371415337
-0.2288692463
-0.002327266855
0.2286676466
0.004337174162
-0.2280738848
-0.001454242483
0.2317584559
-0.2293709317
-0.0009383471841
-0.2288508816
-0.003112770665
0.2286367019
-0.003616392707
-0.2302888811
-0.008285171093
0.2324290235
-0.231190742
0.007040108401
-0.2288967148
-0.003894726736
0.2287288121
-0.009228535724
-0.2308498052
-0.00257657666
0.002880318237
-0.2274942563
0.003975452405
0.2266864549
-0.2270785811
-0.003583326182
-0.002861635325
0.2277733765
0.00311563351
-0.2269314453
-0.004718042239
0.2357796235
-0.2333486513
0.002269144965
-0.004154781155
0.2279287665
-0.006937579261
-0.2352075642
-0.01185805863
0.2390182986
-0.2377150233
0.0105286025
0.003369140165
0.2340076963
-0.01289333089
-0.2375359441
-0.01435671885
0.235121609
-0.2348937242
0.01411141295
0.01068583637
0.2334936243
-0.01441666823
-0.2334797704
-0.009936049853
0.01124655727
-0.228595872
3.796145089e-05
0.2361294783
-0.2320078876
-0.004178852745
-0.00376981615
0.2271548393
-0.002392299832
-0.2348229558
-0.006339146857
0.2415997103
-0.2407979166
0.005493692631
0.004155750129
0.2378675689
-0.006797601816
-0.2415073042
-0.005945043459
0.2394262442
-0.2401122414
0.006589621588
0.01086487679
0.239887389
-0.004994708758