/*--------------------------------*- C++ -*----------------------------------*\
| =========                 |                                                 |
| \\      /  F ield         | OpenFOAM: The Open Source CFD Toolbox           |
|  \\    /   O peration     | Version:  v2012                                 |
|   \\  /    A nd           | Website:  www.openfoam.com                      |
|    \\/     M anipulation  |                                                 |
\*---------------------------------------------------------------------------*/
FoamFile
{
    version     2.0;
    format      ascii;
    class       surfaceScalarField;
    location    "2.75";
    object      phi;
}
// * * * * * * * * * * * * * * * * * * * * * * * * * * * * * * * * * * * * * //

dimensions      [0 3 -1 0 0 0 0];
oriented        oriented;


internalField   nonuniform List<scalar> 
6464
(
0.4582869104
0.002199105023
-0.002195553173
0.4583850389
0.002145514255
-0.002056141008
0.4584561783
0.00192996268
-0.001787797342
0.4584898589
0.001632938396
-0.001463693708
0.4584908442
0.00130784948
-0.001154927138
0.4584901259
0.0009798012095
-0.0009044168758
0.4584586969
0.0007957199781
-0.0006542848372
0.4584654013
0.0005388835537
-0.001695793692
0.9186656539
0.0001665937867
-0.0004864540366
-0.001062153
0.9187163593
6.057474426e-06
0.9157817895
0.9138060575
-0.004007230716
-0.2290547184
0.2289166182
0.004145190179
-0.004413036775
-0.229247769
0.2292512975
0.00440950824
-0.004123121023
-0.2293724042
0.229484128
0.004011397236
-0.003545151617
-0.2294402991
0.2296169653
0.003368485402
-0.00283941976
-0.2294418723
0.22963096
0.002650332027
-0.002166485492
-0.2294003301
0.2295670852
0.001999730417
-0.4588882503
-0.003028922527
0.460333528
0.001583644844
-0.0002663604771
0.4609553614
-0.001425550815
-0.4592634501
-0.001651750017
0.9182118348
0.0004480267241
0.001657542469
-0.001018493241
0.9180831025
0.0003380950671
0.9144252012
0.9141441525
-0.2281865358
0.00936955486
0.2279292439
-0.009117003167
-0.2258437265
0.00707533537
0.2247394722
-0.006005357713
-0.226846997
0.001568474473
0.2249547834
0.000288504836
-0.2304057003
-0.006219093793
0.2303373818
0.006285731825
-0.2304376101
-0.005216085886
0.2307960543
0.004857641687
-0.003571908262
-0.2303199018
0.2310060126
0.002885797487
-0.4629780022
-8.628944728e-06
0.4618373058
0.001149325357
-0.4600634288
-0.001267036594
0.4600702771
0.001260188218
0.000144505513
0.9199975133
-0.001120574897
-0.00080960919
0.001588880309
0.9166387277
0.0007348405855
0.9152792409
0.9148789931
-0.2270626876
0.008163934655
0.2267591123
-0.007871362772
-0.2223296585
0.007095765911
0.2219735755
-0.006812713092
-0.2204184724
0.005327980036
0.2194855922
-0.004502233623
-0.2240303304
0.0007811638142
0.2223232834
0.0008420384598
-0.2344578962
-0.001813898032
0.2376827452
-0.001414611996
-0.00377789317
-0.2319231665
0.2319574007
0.003743659056
-0.4618656769
-0.005638587681
0.4631211275
0.004383137015
-0.4608195671
-0.003138045618
0.4618347875
0.002122825164
0.002937081289
0.9200286344
-0.001580430922
-0.001387771409
0.002032751743
0.9175430573
0.0009323725309
0.9163796202
0.9158113657
-0.2256856035
-0.009485032104
0.2252559657
0.009902193857
-0.2227713528
-0.008437092244
0.2239406335
0.007181977502
-0.2191533479
-0.002391437521
0.2201221507
0.001268699008
-0.2281702287
0.009516713097
0.2229963443
-0.00450790066
-0.226287345
-0.001627682736
0.2249741697
0.002848610692
-0.005474423804
-0.2334066389
0.233978778
0.004902284692
-0.464827693
-0.00651454773
0.4664643757
0.004877865036
-0.4627947774
-0.003700464181
0.4637839262
0.00271131541
0.003645796312
0.9219507393
-0.003138933011
-0.00242896826
0.001973704971
0.9192151486
0.0008860285166
0.9174672966
0.9166973942
-0.2236249941
-0.03669930774
0.2229411942
0.03738057257
-0.2319253077
-0.02994134176
0.2344642889
0.02735331243
-0.2322260161
-0.01167333653
0.2321508395
0.01159443402
-0.220752559
-0.007881335038
0.2220842224
0.006338543608
-0.2231518357
-0.00373772413
0.2232788618
0.003439702918
-0.004041355581
-0.2345959918
0.2342362027
0.004377949049
-0.4678934533
-0.006611637208
0.4693247216
0.005180368885
-0.4643788083
-0.00412064418
0.4649209692
0.003578483267
0.00290231705
0.9242252601
-0.002470398305
-0.002706439527
0.001542560912
0.9205749048
0.0006186656694
0.9183911919
0.9173160598
-0.02916522126
-0.1088477459
0.1082664378
0.02974652931
-0.02362976015
-0.2497481625
0.04481848504
-0.02404035763
0.1258754511
0.1267243442
-0.03123862556
-0.2401653253
0.2447788849
0.02652293772
-0.2283470652
-0.01564456115
0.2313852455
0.01238357134
-0.2254990156
-0.006059370064
0.2263241812
0.005016777791
-0.003477272272
-0.2325374837
0.2324953246
0.003435742563
-0.4707410727
-0.005427164078
0.4716058523
0.004562384562
-0.4658983222
-0.003397309593
0.4668479712
0.002447660545
0.001421868242
0.9257684046
-0.001339985806
-0.001625026932
0.0005718595204
0.9214249135
0.0001694622084
0.9187935892
0.9174855221
-0.03083295934
-0.1390383214
0.1418593334
0.02801194731
-0.03208105062
-0.2595174147
0.2638722986
0.02767186133
-0.2386882867
-0.01782368726
0.2410405724
0.01525629956
-0.2301248895
-0.009022221659
0.2315513575
0.007352925056
-0.002643099716
-0.2334889481
0.2338330776
0.002177243749
-0.4728182806
-0.002917097926
0.4737847526
0.001950625933
-0.467582053
-0.0012992402
0.4681689807
0.0007123125272
-0.0008806608159
0.9263527256
0.000454673396
-0.0001583335731
-0.0008338715648
0.9213781242
-0.0004751970083
0.9184349146
0.917010325
-0.01376075936
-0.1549206829
0.1554960414
0.01318540081
-0.01796129962
-0.2735371194
0.2752056146
0.0162618245
-0.2472447422
-0.01124150764
0.2486476054
0.009628413004
-0.235201396
-0.005093342879
0.2361717795
0.003866515254
-0.001033091856
-0.2353325853
0.2357547278
0.0004717007365
-0.4749508078
0.0005675977911
0.4758378587
-0.001454648627
-0.4684114142
0.001804650808
0.4684897242
-0.001882960848
-0.00362908999
0.9254836589
0.002527248553
0.001970908116
-0.002532212023
0.9202812463
-0.001306418865
0.9172091215
0.9157039062
0.004168099826
-0.1531076963
0.152129903
-0.003190306553
-0.000407893532
-0.2752410425
0.2739734649
0.001641891986
-0.2504789721
-0.002667575801
0.2505506201
0.002381863378
-0.2384431931
-0.0006216475965
0.2388887107
-8.344803259e-05
0.00187440265
-0.2370103527
0.2372626916
-0.00226670936
-0.4756952538
0.005311818977
0.4750383858
-0.00465495089
-0.468178409
0.00436730056
0.4683545712
-0.004543462738
-0.006622608536
0.9231084802
0.004846414729
0.004151372593
-0.004348334053
0.9180069718
-0.002192901544
0.9150536889
0.9135110046
0.01387863823
-0.1435163176
0.1421572214
-0.01251954201
0.01221466349
-0.2675308396
0.2647278722
-0.009470111329
-0.2490536682
0.004617529827
0.2486461182
-0.004432141891
-0.2395110072
0.004389984861
0.2394583159
-0.004596149034
0.005315532124
-0.2378196643
0.2378236616
-0.00544445137
-0.473992756
0.009764163688
0.4726090424
-0.008380450103
-0.4683674897
0.007151608124
0.4672481829
-0.006032301311
-0.009368924242
0.9194693065
0.006749560111
0.006258537755
-0.006090156026
0.9147282036
-0.002996773059
0.911960306
0.9105142316
0.01721447977
-0.1329589897
0.131637054
-0.01589254407
0.01818446161
-0.2562898425
0.2535476707
-0.01554074966
-0.2455887746
0.0108742884
0.2440719185
-0.009599585673
-0.2386033114
0.008224027087
0.2380789503
-0.00794789028
0.008170430422
-0.237248498
0.2368901335
-0.007909267512
-0.4709459534
0.01337507981
-0.01145433738
-0.4660464718
0.00977671485
-0.008323654233
-0.01178087949
0.007156821398
-0.007591000262
-0.003691225197
0.1580893153
0.01640359526
-0.1571994363
-0.008363565916
-0.008929908403
-0.1400846128
-0.03412543059
0.1433770841
0.1553205199
-0.002321635448
-0.1563800996
0.001877488764
0.00150372641
0.1586095442
-0.006872514222
-0.007408474053
0.144651388
-0.01316443057
-0.1460864325
0.007369160958
0.007230314069
0.1541808574
0.002837085312
0.002470677016
0.1334153935
-0.01700804735
-0.1347181544
0.01831080827
0.01532675086
0.1432032754
0.01875801603
0.1318718572
-0.1054711074
0.1041507058
0.03122772876
-0.136602462
-0.03470987958
-0.1229404626
-0.02522971779
0.1245404203
0.04237777326
0.009358050475
-0.04206358947
-0.009672234257
0.0252119022
-0.07107272912
-0.02740867721
0.07326950412
0.01554044365
-0.1540575312
0.2813331025
0.02236744065
-0.2788093284
-0.02489188785
-0.2660495631
-0.0369796989
0.2709388622
0.04854636103
0.0008303821656
-0.04863951267
-0.0007372305242
-0.04537833629
0.003565202196
-0.002947758606
0.0447608927
-0.001478107102
-0.1539512247
0.2823869193
0.004580066617
-0.2833590171
-0.003608109421
-0.01954787908
0.2829194486
0.03907428975
-0.004235219638
-0.03943041328
0.004591343166
-0.04218745836
-0.001676536463
0.001224724975
0.04263926985
-0.01180473401
-0.1448760141
0.2729450792
-0.009581352754
-0.2759666028
0.01259772643
0.00120254899
0.2807760186
0.0702828871
-0.0109759315
-0.07078680962
0.01147985402
-0.0740460064
-0.01008570832
0.07357341577
0.005350323414
0.005207975533
0.00809130312
0.0306944123
-0.007801599874
-0.03098411554
0.06370257973
-0.01129125176
-0.06414121315
0.01172988519
-0.06689481692
-0.01154666373
0.0119254528
0.06651602785
0.004125930799
-0.04574959558
-0.003754671516
0.008979794764
-0.009193529766
0.04259150826
-0.1521505462
0.02405833354
0.15425642
-0.01284229829
-0.01332190906
-0.08285035187
-0.008585271762
0.08357518517
0.01684023323
0.04422428446
0.004293116396
-0.04439147006
-0.001493892516
-0.04172072403
0.001027158185
0.0001738167717
-2.552248996e-05
0.04839806675
-0.07884611101
0.002158890952
-0.002116740594
0.07880396066
-0.04711236596
0.04692306473
0.0003631180093
0.04158532959
-0.001728808519
-0.04135041359
0.04389793588
0.00389155078
0.0008404519434
-0.04712243574
0.00287563526
-0.07898638215
-0.002735364122
-0.009898317697
-0.07454844038
0.005220331025
0.005180420646
-0.004103490294
0.004284774992
0.03889300505
-0.1503210061
-0.0100537959
0.1489147429
0.005847503498
0.005612555639
-0.07772629211
0.004088407997
0.07719926119
-0.007664867369
0.07383218613
-0.009434473768
-0.07429603005
0.04180428045
-0.001895487323
0.004077973607
-0.007395106211
-0.0394446507
-0.03919972844
-0.008836110815
-0.1516093217
0.005180489421
0.004943936989
-0.01146302152
-0.06735522012
0.01192342472
-0.01120789622
0.01160836956
0.06988241376
-0.02930672077
-0.007422895892
0.006980894674
-0.02965489459
0.008439476944
0.01154038283
-0.007405670722
0.03098635527
0.0131112236
-0.04404236494
-5.521393258e-05
0.01976435495
-0.03607501957
-0.02180804531
0.03811870993
0.04539225509
-0.007705737124
-0.03751464252
-0.0001718754403
-0.01577337944
-0.1341936576
0.2594559225
-0.01725999103
-0.2629656839
0.02073618394
0.01540384156
0.2697464436
0.03864924653
-0.007395626807
-0.03105400416
-0.0001996155665
0.06481495121
-0.01319293527
-0.06540938684
0.006925199947
0.006862170959
-0.03333606779
-0.006612000027
0.006706075103
0.03324199272
-0.07103728156
0.0728238269
0.02342535686
-0.009647682207
0.01802280357
-0.08186742276
0.02629381504
-0.1495704945
-0.01425197449
-0.01462189226
-0.006659645296
-0.03348255411
0.00680613161
-0.0354761382
-0.006840784536
0.007295103602
0.03502181914
-0.1389553138
-0.01619680363
0.01762832845
0.137523789
-0.0703182563
0.06983882837
-0.01072846829
0.06693211172
-0.0110280463
-0.06736708694
0.07338833962
-0.009641861814
-0.01059221891
-0.07070196889
-0.01574818311
-0.1403905523
0.01718342158
0.02047963141
-0.0522683582
-0.01918956721
0.050978294
0.02518821908
-0.06898012824
-0.02728081995
0.03822972012
-0.1223957207
-0.01990376253
-0.02113912973
0.06202814493
0.06318074794
-0.05594703942
0.05497135712
0.02145531371
0.03155365547
-0.0005673002074
-0.079276195
0.02263578841
0.08109178538
-0.01209915254
-0.01235222625
-0.04224319822
0.05765852134
0.01613833236
-0.03586038481
0.03750394781
0.01812079194
0.01494755977
-0.04407953439
0.02364095881
-0.07739673772
-0.01264786577
-0.01287255032
-0.0408887886
0.002591633484
-0.002579346314
0.04087650143
0.002276966927
-0.04120033809
-0.001965417441
-0.03974465041
-0.003211454171
0.003125544406
0.03983056017
-0.003447025056
-0.04005207138
0.003754446028
-0.006165164421
0.0364266035
-0.0354804014
0.005218962322
-0.009694102027
0.02204990768
0.03303644943
-0.07213766618
-0.01070830739
0.01110356841
0.07174240516
-0.0383278063
0.03648132005
-0.007847615777
0.0364004778
-0.006369559085
-0.03619608313
-0.03414669507
0.03818588038
-0.003807777467
-0.0002314078437
-0.006884848273
-0.03914869515
-0.01055569623
-0.07257372601
0.005529753525
0.005462002534
0.06283249361
-0.01286937893
-0.06333923788
0.01337612321
-0.01315024226
0.06426676622
0.006857259635
0.006841167617
0.01888677301
0.02875910901
-0.00899663548
-0.04366992165
0.00624154844
-0.00601656263
0.04344493584
0.006662944307
-0.04370574725
-0.006627118703
-0.03948203242
-0.0009596717336
0.0008508730332
0.03959083112
-0.001313688775
-0.03966336453
0.001495020886
0.04032043013
-0.00103057697
-0.04060354193
0.08093183786
-0.0002815534358
-0.08122732677
0.0005770423465
-0.0819536595
0.001672248956
-0.001473323022
0.08175473357
0.07968840258
-0.002543757306
-0.08002061084
0.002875965569
-0.0008793490682
0.001173097181
0.08063808975
0.04030438079
-0.0009436224001
0.0416115437
0.002424217428
-0.0417587942
0.0823385306
0.005348306127
-0.08237399043
-0.005312846299
-0.082235635
0.007764513384
-0.007862630405
0.08233375202
0.002370848205
-0.08211620475
-0.002208302955
0.004583969907
-0.004537122107
0.0822916828
0.04173237046
0.002470806723
-0.03811173515
-0.004631604243
0.004814058851
0.03792928054
-0.001872720584
-0.03220055509
-7.34193913e-05
-0.00465948771
-0.03833542676
0.004883179328
0.006156529897
0.03655994503
-0.006315997131
0.006935347485
0.03495528041
-0.006621718975
-0.03526890892
0.06858791825
-0.01135891427
-0.06901974364
0.01179073966
-0.03597430845
0.007433517732
0.005487589568
0.03709554383
0.01912373172
-0.0002369587143
-0.01277611516
0.01313945046
0.03624474558
-0.03892732899
0.002682583407
0.03443931018
-0.006986016544
-0.03450797317
0.007054679535
-0.03208009843
-0.006953676276
0.006617603776
0.03241617093
-0.00495285051
-0.01177671862
0.01218279603
0.004546773112
-0.007664022938
-0.03303352365
0.008617448159
-0.03023814409
-0.007675811788
0.006405686123
0.03150826975
0.02691959893
-0.04780497452
-0.02518470623
0.02264122791
0.02342885391
0.01915273964
-0.03428301747
-0.02094474174
0.02805494861
-0.05832077399
-0.02977478918
0.06004061457
-0.05237691024
0.02955759819
0.02414562226
0.02559328873
-0.04575598828
0.003888012677
-0.005799704697
0.0476676803
-0.04111409173
0.04036993898
0.0008922834329
-0.0001481306825
0.03926782095
0.0006040862811
-0.03951492212
-0.0003569851074
0.04277325916
0.002684713881
-0.04340017931
-0.002057793728
-0.04049611739
-0.003679849109
0.003823833832
0.04035213267
-0.04251900051
0.003516976182
0.04290207191
-0.003900047585
0.03776318283
0.006932301405
-0.005988686504
-0.03870679773
-0.03741208239
0.03753434721
2.946685338e-06
-0.0001252115072
0.04317514075
-0.003539997481
-0.03941212663
-0.0002230166408
0.04282123702
-0.002963030552
-0.0431539269
0.003295720435
-0.04400444352
0.006023790662
-0.006947213234
0.04492786609
-0.03994170406
-0.02791366382
0.05636588108
0.0114894868
0.001864774104
-0.04278407816
-0.0001947876708
0.042961845
0.006592396484
-0.04289129718
0.08118898844
0.01211229351
-0.08076994639
-0.01253133556
-0.07898985993
0.01468621775
-0.0153642774
0.07966791959
0.008615176231
-0.08207600162
-0.008774809614
0.0112208415
-0.01157964915
0.0815477961
0.04293314044
0.006270253005
-0.04047982029
-0.001119470272
0.0007366389834
0.04086265158
-0.03696384552
0.03705209843
0.0001719638242
-0.000260216737
0.000137893611
-0.03726878229
-0.0002811937114
0.04500504654
-0.002715647475
-0.04704569939
0.004756300329
0.003665801283
0.03843329522
-0.00433591368
0.002566539881
0.04165518143
-0.003500530385
-0.04072119092
0.03894926557
-0.004228860247
-0.03890883198
0.004188426655
0.07571781932
0.004549608869
-0.008573086687
-0.07635382921
-0.007230578679
0.07479814055
-0.07521983437
0.007652272495
-0.07647868152
-0.006347849158
0.00676374571
0.07606278497
0.03981574337
-0.003189137797
-0.04007363063
0.07814139064
-0.004475894274
-0.07857414433
0.004908647956
-0.003063396758
0.003406314168
0.07934548517
-0.005988364128
-0.0769127723
0.006422454911
-0.004887180203
0.005280972523
0.07774759832
0.03977267207
-0.003168382871
-0.01139826922
0.01176847351
0.06821771396
0.03468938289
-0.00657488701
0.06663523442
0.0066547467
-0.0128349705
-0.06711465592
-0.03792727329
-0.009428641922
0.01899986671
0.0283560485
-0.04157152657
0.01932135758
-0.01975834078
0.04200850977
-0.03182210753
0.04168198116
0.02638487194
0.01961509405
-0.04078206455
-0.02040455607
-0.02896923781
-0.00228038134
0.0314334654
-0.0001838462496
-0.006144540247
-0.02260042125
-0.0002242763121
0.03347799829
-0.00729096416
-0.03365173762
0.007464703487
-0.007480460661
0.008030451935
0.03388931891
0.01963508281
-0.01936705106
-0.000268031755
0.01384333825
-0.01652983833
0.002607212299
-0.01321859539
0.0124983196
0.002200237126
0.006634916167
-0.03150560344
0.03280158901
-0.007930901739
0.009299366609
0.0332700289
-0.008155899706
-0.0344134958
0.03413862413
-0.006759544761
-0.03446074689
0.007081667514
-0.04116216115
0.02022338368
-0.02107109418
0.02787680553
-0.0001707951897
0.03161147053
-0.0309818566
-0.0006296139344
0.04575362775
0.01282765059
-0.04468310677
-0.01389817157
-0.04231388672
0.01362719318
-0.01441161456
0.0430983081
0.0474317355
0.01177961123
-0.04543446828
-0.01377687845
0.01201001092
-0.01230304352
0.04604666035
0.0138545698
-0.04163415175
-0.01453430477
-0.03904074777
0.01475551866
-0.01562579931
0.03991102842
-0.04182433119
0.04307573013
0.01806995864
-0.03786382027
0.03699411197
0.001188893936
-0.0003191856335
0.02638560226
-0.02629828722
-8.731503462e-05
0.004416752653
-0.04335096141
-0.006821779518
0.00249895741
-0.001912978449
0.04218728019
0.03896193503
0.0005338980546
-0.0002280121305
0.0006519063578
-0.03834426221
-0.0001714644149
0.0004175405845
-0.03774069662
0.03913476986
-0.001811613818
0.001061658769
-0.00218830567
-0.04139235361
-0.003435915498
-0.0403510148
0.003290812906
0.03775950745
-0.0363443292
-0.0003535194767
-0.03432087823
0.03529631611
-0.0005578972951
0.03569986702
-0.03529168836
0.006524122744
0.04166847308
-0.0003919894524
-0.002164243903
-0.03202154173
-0.0001350925976
-0.003516573108
0.004391159756
0.04194665037
0.05105876895
-0.007668438321
-0.0002151898718
-0.003579279203
-0.03632566132
-0.03771734504
-0.007022869099
0.007601807976
0.03713840616
-0.005462547312
-0.03628474895
0.004029951228
0.03772958515
-0.006069921538
-0.03712221092
0.03601942706
-0.005973242877
-0.03612378056
0.006077596379
-0.03701405929
-0.005847420053
0.006278780414
0.03658269893
0.03401517412
-0.006918757032
-0.03324095733
0.0371164227
-0.005850947002
-0.0374653388
0.006199863105
-0.03821863504
-0.00534956456
0.005209976534
0.03835822307
-0.005799510457
-0.03725231764
0.006037768812
-0.005651205866
0.005648054793
0.03711957377
0.03608367666
-0.004348883887
0.007372402219
0.0323481242
-0.007585034171
-0.03213549224
0.03241446456
-0.007095489562
-0.03266577711
0.007346802113
-0.00733262978
0.007685641137
0.03312498694
-0.002264633882
-0.04637106138
0.04448136633
0.004154328931
-0.008322770607
0.008775211416
-0.04039414487
0.006128554235
-0.04338360571
-0.006749392048
0.02786485752
-0.03594409119
-0.0002435369393
-0.04248863268
0.04037960278
-0.0001556039847
-4.880629247e-05
0.04137935509
0.006216489092
-0.04407050774
-0.003525336439
0.01013686424
-0.0109299259
0.04822479716
0.005100865535
-0.04739059144
-0.0001989067747
0.009215212876
-0.008277679645
0.04044182186
-0.0428070272
0.007773884229
-0.008048675299
0.04308181827
-0.04307839993
0.04343595682
0.00885765598
0.005990249093
-0.04726044494
-0.03636927496
0.03667284273
2.149602485e-05
-0.0003250637935
0.0002429198189
-0.03678795399
-0.0004188113502
-0.00100068729
-0.04013429631
0.0006551633164
-0.003213683204
0.005758839217
0.04245989052
0.02561314445
-0.02529723589
-0.0003159085566
-0.0005658683942
-0.03573921433
-6.419223879e-05
0.03932388466
-0.005880568825
-0.04005142246
0.00660810662
-0.03796496285
-0.005151386762
0.004364060646
0.03875228897
-0.005181674743
-0.03780920452
0.004772244228
-0.00626407503
0.007416217625
0.03817174207
0.02310510784
-0.0227195364
-0.0003855714381
0.04173217405
-0.04036210185
0.00119646768
0.001971779939
0.03739388836
-0.006569968137
-0.03865788818
0.00726289346
-0.00426710068
0.003654285489
0.04234498924
-0.02078495139
-0.0002861427832
-0.03576543929
-0.006531439761
0.006281198132
0.03601568092
-0.02741011825
0.03054722127
-0.003018583552
-0.0001185194649
-0.009627089385
-0.04266346545
-0.006020053007
-0.02123717277
-0.0001528924717
-0.006926896811
-0.03605329162
0.007214749143
-0.03033025794
-0.0002246131339
0.02829686345
-0.1361074561
0.03304233955
-0.2603817096
-0.03872947877
-0.2434759364
-0.036478797
0.24865379
-0.02535676592
0.02827747704
-0.002694152834
-0.0002265582823
-0.01975518479
-0.005421552462
-0.000180028671
0.02148485598
0.2561105201
-0.01944633625
-0.0003088485362
0.06655439133
-0.01116894334
-0.02111682709
-0.129247712
0.01129330665
-0.01710895073
-0.1292383217
0.01839417227
0.01827769087
-0.0201379329
-0.01731871075
0.01917895278
-0.01977198355
-0.01042578055
0.01798356332
0.01221420078
-0.007349762061
0.008371467152
-0.01279842371
0.02520640832
-0.02956908005
-0.03456465726
0.01993577098
-0.02698844088
-0.02077851848
0.02783118839
-0.0227819362
0.0213696108
0.01969001628
-0.1286303033
0.03021074672
-0.03232263714
0.1307421938
-0.1253087192
0.1270041166
0.03653432269
0.02336001933
-0.06920908181
0.01026499049
-0.04112713519
-0.01056397047
0.04142611518
-0.04425647405
0.04473586838
0.01153061658
0.04648418185
0.01073363112
-0.04543820174
0.03126704504
-0.006983215722
-0.03148445897
0.007200629651
-0.007037418304
0.007433507092
0.03201837577
0.03142405398
-0.008504571703
0.006586447415
0.06614681518
-0.0127100282
0.06487803009
-0.01270744947
-0.06536351589
0.06529531534
-0.01147499893
-0.06572606466
0.01190574825
0.04691121821
0.009709827878
0.007554412014
-0.04441632285
0.008004257729
-0.04272489353
-0.008086391393
-0.02639426127
0.0054880545
0.007930415927
-0.02937232148
-0.008212989036
0.03560886233
-0.02740856588
-0.000269880521
0.017654078
-0.006904042021
0.007034951073
-0.05845215198
0.01508666906
-0.0006768820196
-0.03346355912
-0.003814580877
-0.0002365025246
-0.03278748891
0.03292399018
-0.007532128075
0.004822375862
-0.03099246187
-0.006617402906
-0.02597642617
-0.0002552021337
-0.03327017179
0.03327691382
-0.006960418299
0.03404033532
-0.006915002631
-0.03411134923
0.03294851691
-0.006584826649
-0.03305083903
0.006687148768
0.01550680241
-0.0782101687
-0.01628649365
-0.0753425865
0.01768269146
-0.0187336208
0.07639351584
-0.07799281798
0.07947946641
0.02114913997
-0.00666956747
0.006983907587
0.03382428402
0.03328732783
-0.007693110723
-0.007257779172
-0.03367641556
-0.06436257483
0.02349938873
-0.02454214276
0.06540532887
-0.06078644708
0.06173287792
0.02710851777
0.01778512824
-0.03449277341
0.01420963848
0.0440322185
-0.0005833356535
-0.04465412781
0.04436310226
0.01450066403
-0.04371256777
0.01519677231
-0.02969163106
0.02986217856
-0.000170547491
0.009829233745
-0.03930600479
-0.0002148600183
0.007182263725
-0.03553379476
-0.00712887037
0.03330302667
-0.03222821588
0.006107452937
0.002985385915
0.03553660308
0.02218937073
-0.0001394630517
-0.006402988975
0.02865459478
-6.223507087e-05
0.03404558648
-0.007412126016
-0.006025164292
0.03531380163
-0.03544122344
0.0061525861
-0.005925825395
0.00612755457
0.03581769789
0.03733859348
-0.006631877435
-0.007560495248
0.04609391272
-0.0003475370949
-0.03936993711
0.0384141802
-0.006604738337
-0.03842324443
-0.004754470152
-0.007424412669
0.005900462125
0.03028305955
-0.03208340922
0.0323709234
-0.007711926844
-0.008156054519
-0.0331513872
0.03518423946
-0.001801112967
-0.0002317392894
-0.03049618634
-0.002340426638
-0.0003147742214
-0.03657994403
-0.003716020981
0.002383395283
-0.03458702102
-0.004376318293
-0.02966717078
-0.0001499890243
-0.02363849024
-0.006573604479
-0.0002840916261
-0.02343275889
-0.0002057313455
-0.004276123246
0.004421868014
0.0388035208
0.04186258171
-0.00447450096
0.03888508564
-0.005856467417
-0.03959858636
0.02533180352
-0.0003076096716
-0.03237119389
0.0398124629
-0.007201474342
-0.0002397946664
-0.003784360714
-0.0003093561394
0.03027201652
-0.0290759652
-0.004953006871
0.03253087055
0.03361637339
-0.006153209332
0.009507779534
-0.002108485638
0.004783502144
-0.008853241574
0.01340001469
0.00332461899
0.006183160545
0.007414646345
-0.03313560081
-0.007312569182
0.0399048533
-0.03220569038
-0.0002845165698
0.027051133
-0.02048688615
-0.0001585607248
-0.004992831038
-0.0001617263432
-0.006620162096
-0.03099443158
0.01704041783
-0.01775669586
0.03171070962
-0.02913458729
0.02992520578
0.0191451525
0.02457461275
-0.03119031195
-0.04618405914
0.04239442297
0.003973586528
-0.0001839503536
-0.05410628901
0.008250430482
-0.0003282006138
-0.04115607902
0.04078515988
0.0004513622301
-8.044308816e-05
0.001418261002
-0.0001799170532
0.0006442302352
0.03993211603
-0.0002064072905
-0.0452912453
0.04437394937
0.001561526171
-0.04640775028
0.002008788404
-0.04356195304
0.04289113918
0.001274900138
-0.0005438766197
0.001355872949
-0.00012668271
-8.751526837e-05
0.03807624285
-0.0004543803736
-0.0428475422
0.0436790696
-0.0009190426624
-0.04226092875
-0.0005836667714
-0.04453364645
0.04459180351
-0.003598154546
0.0009678498841
-0.001822426733
-0.0003680338962
0.009190811915
0.04719238952
-1.732036154e-05
-0.04619565299
0.04794325892
0.007443205982
-0.04330041183
0.008594245638
-0.0475850202
0.003042044028
-0.004657344792
0.005015583516
-0.0002490334279
9.6036017e-05
0.0370511933
-9.513089003e-05
-0.04078402482
0.04118057127
-0.0003005104395
-0.04037401828
-0.0002380427145
-0.04171885965
-0.0004041754834
-0.0002329638239
-0.0003053245571
-0.0004505528069
-0.04088021457
0.04200383334
-0.0007513038226
-0.0003723149452
2.812085958e-05
-0.0001231755492
-0.04542167725
0.05302513738
-0.007288699857
-0.0003147602764
-0.003268516817
-0.0001493270926
-0.01798966394
-0.0002178045906
0.01940018568
-0.0004003189657
-0.0077162634
-0.0002921168008
-0.00873253638
-0.0003355859354
0.03479451082
-0.05400057298
-0.0005522786201
0.03573472391
-0.0009402130886
0.0192910817
0.04166402696
1.795420616e-05
-0.03657078566
0.05412037088
0.02411444174
0.02420119302
-0.03438710674
-0.03440154286
0.0343687983
3.274456192e-05
0.02002801922
-0.000309191206
-0.001773203944
-0.00025688978
-0.02220001904
-0.0004004022104
-0.0060930759
-0.0002482674519
-0.02955405161
-0.007531486161
-0.009108639761
-0.01271122324
-0.03320784349
-0.007697389563
-0.0002569281008
-0.0002635024744
-0.00514857763
-0.0001824603283
-0.04302347136
0.05900760661
0.01562733529
-0.01321098127
0.01455061218
-0.0001606193685
-0.01160086374
-0.04537230322
0.01153869869
0.04268178308
-0.04445341308
0.05876708318
-0.04714375298
0.008215128152
-0.000377379969
0.01238496533
-0.0005211117
0.002878424535
0.03428629559
-0.0001706081575
-0.03927296848
0.03807937526
0.00407201775
-0.04025095073
0.00216687619
-0.03820561091
0.01048492416
-0.008197363575
0.008071127931
-0.000209355209
0.000487653855
0.03863409007
-0.0001598088992
-0.04224299098
0.04160882138
0.001121823457
0.001182046258
-0.04099396
0.001394915623
-0.0005476644861
0.001162525867
-0.0002578366287
-0.001260379914
0.0001129253095
0.04028222446
-0.03956618149
-0.002272841404
0.04057864298
-0.03865031376
-0.002727481545
-0.0357932479
-0.0002902108691
-0.0002608704309
-0.0003840064854
0.02387510168
-0.04958083704
-0.009585952999
0.02412607753
-0.0002509758491
0.03108806572
-0.0004378654462
-0.007650481677
-0.0002618822788
-0.02489738837
-0.00700812617
-0.000116027187
-0.0245345025
-0.0003628858685
-0.009682696586
0.03620696303
-0.04267970406
0.03969571377
-0.006698706291
-0.005756338873
-0.03829513672
-0.003934456242
0.007126824459
-0.005726247413
0.04422667013
-0.03636075969
-0.0002641024632
-0.009401539665
0.02139999391
-0.007796928265
0.02171182364
-0.0003118297349
-0.02800291223
0.03118934284
-0.0002010446948
-0.0001836356468
0.003028229363
-0.005267391839
0.03197033141
-0.0002875072645
-0.0003604770548
-0.03649933272
-0.006614073785
0.03619464948
0.009347063648
-0.007432216169
0.003825499273
0.04234730558
-0.001691438521
-0.04437565195
0.04300554924
0.005195601989
0.005392121148
-0.04561344417
-0.04222118524
0.007695984824
-0.005275930578
0.006060294574
-0.003322769865
-0.03869443535
-0.0005724257013
-6.271090479e-06
-0.003107290309
-0.04667042152
0.005707204089
0.03988018983
-0.04259702929
-0.0003904508532
0.03653682705
-0.0001819736583
0.04808797749
-0.000250820208
0.005827491333
-0.0003365431294
0.007381866965
-0.05704939461
0.009952806581
-0.0002940034108
0.02832964132
-7.049391011e-05
0.02870258755
-0.0003729462305
0.0120950148
0.0001377910933
0.0368033074
-0.0002682557592
-0.03923636273
0.03962837499
-0.0002542211671
-0.0387099831
-0.000504883608
-0.03994668535
-0.0001844131041
-0.0001045524111
-0.00021375795
-8.919899917e-05
-0.007447958477
0.03327033406
-0.0002092311301
-0.03729584731
0.0369972895
-0.007149400666
-0.009567945821
-0.0379730778
-0.001302773689
0.002221205488
-0.003196993793
-0.0002476747835
-0.039218316
0.04708682142
-0.007773537973
-9.496745076e-05
-0.003878975242
-0.0001551012943
-0.006359814161
-0.0002022487842
-0.03388242837
-0.007064406815
-0.009515143346
0.0005216596335
-0.03895299494
-0.001930766545
0.03512514472
-0.03439257522
-0.0002109098681
0.03665980255
-0.0003381901504
0.03345278594
-0.0003929402841
-0.0006432357276
-0.0002965535448
-0.002202342302
0.009868256375
-0.0410416644
-0.007484480151
0.0350475425
-0.04861204501
0.03573683148
0.0406187844
-0.0003046963614
-0.007780704886
-0.0002125557257
-0.006477380045
-0.004070552359
0.0348317013
-0.000213927678
-0.0350644238
0.03658858374
-0.005594712306
-0.03280186697
-0.005281140374
-0.03625174538
-0.008206248103
0.0348309041
0.007568153708
-0.007231315348
-0.0002636104337
-0.03551483434
0.0432986115
-0.007556616033
-0.0002271611289
-0.004022936516
-0.0003025549864
-0.03166186951
-0.007160050475
0.02098996507