/*--------------------------------*- C++ -*----------------------------------*\
| =========                 |                                                 |
| \\      /  F ield         | OpenFOAM: The Open Source CFD Toolbox           |
|  \\    /   O peration     | Version:  v2012                                 |
|   \\  /    A nd           | Website:  www.openfoam.com                      |
|    \\/     M anipulation  |                                                 |
\*---------------------------------------------------------------------------*/
FoamFile
{
    version     2.0;
    format      ascii;
    class       volScalarField;
    location    "0.87";
    object      omega;
}
// * * * * * * * * * * * * * * * * * * * * * * * * * * * * * * * * * * * * * //

dimensions      [0 0 -1 0 0 0 0];


internalField   nonuniform List<scalar> 
3019
(
31.93083153
31.93167585
31.93258995
31.93340342
31.96669606
31.96720216
31.9676005
31.96837608
31.96993339
31.97268926
31.97688268
31.98194135
31.7941349
31.79669617
31.79932616
31.80163674
31.83553721
31.83728099
31.83943354
31.85863746
31.86576125
31.87853454
31.89820099
31.92220941
31.65912591
31.66355793
31.66809283
31.67169002
31.70608229
31.70945522
31.7144022
31.73797368
31.75514804
31.78540125
31.83156683
31.88517979
31.5255231
31.53144987
31.537457
31.54243278
31.57781467
31.58379106
31.59407377
31.62673655
31.66263757
31.72806965
31.82569284
31.93991326
31.3940284
31.40160721
31.40926305
31.41566063
31.45207194
31.46161819
31.47975924
31.52722522
31.60078811
31.73411536
31.96059596
32.26097424
31.26373227
31.27262417
31.28169662
31.28995579
31.32909832
31.34457593
31.37645841
31.44690022
31.57685113
31.85593639
32.42908752
33.46690864
31.13551225
31.14604193
31.15704201
31.16755397
31.20905101
31.23250713
31.28356933
31.38775705
31.60418147
32.15777042
33.59281638
38.27915483
31.00903282
31.02088719
31.0336867
31.0470098
31.09300208
31.12653394
31.20172435
31.3434679
31.68014516
32.61174887
35.4989415
50.19270191
30.88543006
30.8993202
30.91475327
30.93169326
30.98201846
31.02752794
31.12992085
31.31088924
31.78437951
33.08393116
37.08598178
59.26242141
30.76457772
30.77997104
30.79792735
30.81902004
30.8765794
30.93519759
31.06580838
31.28716987
31.89312781
33.48421203
38.13132474
66.83288131
30.64823949
30.6660181
30.68722775
30.71374613
30.7760547
30.84913883
31.00758199
31.2714485
32.00417246
33.84630963
39.12515877
75.9287099
30.53528039
30.55477704
30.57882092
30.61099097
30.68016273
30.76852479
30.95369424
31.26298226
32.11878846
34.21152059
40.33927655
87.61968337
58.63293465
65.72941742
74.7221046
86.20336576
48.30833654
37.89885156
56.42080686
52.2674923
38.89239708
63.19345955
57.1844232
70.17739748
204.8798213
179.474053
40.07404415
71.13265121
64.08285934
79.90950109
313.5200391
243.2378879
72.18569226
90.15644465
503.9672672
393.968229
136.2808249
166.3454124
88.00603448
131.3546769
176.3235248
155.5103767
62.31903662
206.260186
224.7166737
171.9592115
202.7600572
239.5719879
209.051809
71.29050252
272.1218986
320.4225573
227.069996
268.6192526
389.2476847
317.1995801
81.33848034
393.2966355
503.1022838
323.6164295
388.851843
514.4539407
90.59647747
710.7989532
508.8111296
693.048732
36.76672829
51.7559601
45.33741806
54.95647563
108.5149066
77.49451846
61.63384444
152.9914819
132.3677881
128.6911827
111.3362835
56.0595395
1252.582809
185.7228213
441.2251965
54.73669845
81.25577477
434.0898071
159.8083322
168.1727835
1063.572576
1251.950286
147.5394082
764.0803526
589.8060816
1247.280923
767.0559015
151.1331639
109.2792842
309.4584885
151.6477311
510.7299439
336.6636764
116.3029091
465.8327762
751.1347148
209.6639854
1451.620712
210.3550072
185.2932088
1363.420193
1271.572675
1440.925125
1375.170284
189.5207706
294.121903
297.2476444
244.7838009
247.3528778
426.8511037
434.2060442
355.2095576
359.6948527
171.1710372
550.4139458
555.6081265
90.0399275
171.0724983
284.9056803
126.4324798
131.7162472
119.9181076
124.7493299
278.8778126
150.0446495
157.3355045
428.9497215
225.6643446
113.9373843
118.3913193
685.6424041
669.648359
310.1364475
348.9596884
141.3536783
147.8041377
133.5524662
139.3197164
344.1897405
406.6534841
1028.639478
1016.586559
1669.286487
1617.160452
480.0504499
335.8143096
727.0531329
688.3540477
1011.283868
1002.146195
376.1696766
526.0633034
1706.501153
1677.407706
1718.266975
603.0101033
1327.050421
1260.693194
284.5217199
309.3934078
1181.385771
1199.084169
743.0508576
252.5911103
276.4411616
225.8222388
245.8127076
734.4881774
826.8906506
318.0725706
351.7899068
284.7687576
309.3987727
831.9980781
444.857774
202.3731478
220.097639
656.6009626
690.3484894
1506.161414
472.3299705
539.109474
444.5244637
460.7158505
1462.933295
594.4613023
608.4018529
561.4861706
589.5177481
1329.939945
384.7013654
400.0399188
360.6241324
379.3568594
1316.417347
1413.480376
424.7574398
439.0610228
405.0797425
419.8442694
1407.164455
950.5858599
958.1680462
919.73451
948.1251078
975.1312078
990.9674499
960.8181881
971.7481496
630.2785148
643.5133228
612.7793867
625.7083618
690.0098477
873.1406791
649.7904915
665.1644112
1045.235961
1035.749943
411.4904887
1695.568296
1701.530781
1657.146659
1684.277521
1752.292187
468.2194909
1577.827113
1103.849406
966.4168622
749.4195828
340.295359
1046.194908
1545.348921
992.1908144
1056.852029
1614.861099
1643.030123
1567.52381
1602.968383
372.04316
999.167177
986.7004245
1745.33159
1712.317156
531.4432906
585.5569311
1818.245274
1748.742241
193.182735
103.2145002
107.0620694
98.38638766
101.9774875
189.6038836
108.3898687
112.5181208
221.4975193
281.6928385
628.7496381
600.1321961
576.8812851
507.8179351
258.5457511
1283.777961
1110.928626
1492.504938
1232.329607
755.7874346
507.1548883
515.3081279
1206.742164
727.5429567
770.0916702
520.8434235
532.8842458
783.7371765
177.7026581
197.3065938
417.3779593
532.6704808
964.0938887
684.3934152
1155.18983
1204.18332
752.8721462
1826.609943
1307.322589
1363.006929
879.7166426
882.7889849
1457.499049
1482.355817
1498.093893
1397.68059
1421.882312
1350.20005
819.4948042
825.0314506
788.7212458
796.1117765
1288.464005
1432.670199
866.3415605
871.3697925
830.9143716
836.8099494
1386.168016
647.1606676
633.754834
284.8128453
306.9825268
665.2551338
651.4857438
474.3572138
460.8738822
236.979334
1543.259234
1546.16119
1504.681749
1510.585834
1924.881741
1555.337553
1556.672691
255.6343508
495.8998057
479.7737749
1026.490208
703.9895102
708.0285074
1653.294261
1040.796093
1045.44975
1011.625291
1033.677877
1641.058849
1697.903944
1713.909962
1695.326494
1052.666543
1056.872757
1047.588763
1050.699148
1688.180538
1631.47598
1675.63752
1136.940642
1566.678195
2172.802666
1283.560234
1623.154858
443.7285598
614.4019526
980.6126914
1093.161032
643.0330353
952.7882874
1266.319019
1152.803463
1223.016383
582.1247552
655.696962
1158.67904
783.6026176
537.892411
562.1190441
1080.167535
1040.802592
615.4455703
1047.931201
1381.42782
696.3864841
1142.535734
1122.195552
945.8811627
938.3491386
1425.782993
1470.454018
896.2064152
893.3225006
1460.060462
1473.64585
1435.879102
1449.630725
810.1720446
815.184562
1343.643731
1302.34763
800.8784847
805.4294012
854.0228815
859.307982
1421.427015
1398.188031
843.0393963
848.5594397
953.2750789
1542.492351
1531.143898
1558.379833
1550.946214
955.5851284
938.3223583
1493.489977
1474.880026
1520.626651
1508.075923
944.746627
980.9263736
1608.257931
1597.252846
1624.558093
1613.878748
983.7963908
963.9776737
1572.973075
1566.398938
1590.590837
1580.475479
967.1095226
1530.651731
1535.193542
634.5474099
929.9400671
926.726311
937.6774435
935.0403226
639.5926585
1518.347396
1523.628403
1604.247177
1517.437108
711.6646103
998.0416544
1007.821846
1438.11824
1382.785975
791.5499877
652.5383799
945.905904
944.4489063
954.5604663
958.1661136
663.2503711
1569.045803
1561.58673
1049.526952
729.6167711
731.6003413
715.0493716
717.8446531
1036.554668
1696.045538
1710.993349
1663.381381
1681.359094
1653.305341
2105.700021
1510.372122
868.320478
959.6718373
758.9566985
782.3870223
1092.489004
1446.876422
2013.832295
1585.318316
1507.5454
1004.966929
1639.915086
1625.425591
1678.3363
1632.00995
1001.094667
1622.970402
1635.675335
1580.77399
1593.450882
1729.577634
1067.07543
1075.532683
1059.067956
1065.0717
1725.534637
1768.815164
1090.013815
1149.428642
1077.339031
1092.948436
1772.12852
31.76745408
31.77725692
31.86329885
31.78139944
31.79924572
31.87427741
31.80618709
31.83404252
31.89203764
31.84381769
31.87830269
31.9153711
31.88787339
31.65354899
31.67418878
31.7499853
31.68346583
31.72178086
31.77674288
31.73792243
31.79687873
31.81916397
31.81917912
31.88878725
31.87166066
31.90954199
31.55116408
31.59332757
31.65141445
31.61281217
31.69141344
31.7088576
31.72511259
31.8539957
31.79955237
31.90572231
32.08106809
31.90908206
32.12005567
31.46487845
31.54187276
31.57743423
31.57688119
31.73529038
31.69425366
31.8107912
32.12795655
31.8951968
32.26499666
32.80926596
32.1663239
32.93653939
31.40082076
31.52812902
31.53485002
31.59265772
31.90652025
31.76438285
32.06507438
32.82281922
32.24929143
33.213319
35.3084064
33.09656642
36.13509274
31.35379474
31.55182036
31.53052384
31.66000542
32.20213194
31.96839898
32.49431517
34.05758268
33.08574769
35.00614593
43.99179719
36.24833887
41.33004233
47.41591078
39.96795662
31.31809625
31.60127585
31.56058344
31.75752135
32.54362702
32.28352014
32.97227034
35.31681712
34.40193272
35.97355286
37.80406934
37.13629733
51.98472864
58.76650885
56.2256222
31.29235027
31.66395893
31.61639052
31.86554982
32.85859644
32.6264998
33.38959392
36.20519117
35.56597138
37.38078503
39.74041867
39.34856396
60.06039571
70.96135595
69.72569973
31.27449744
31.73224262
31.68082017
31.97529858
33.14428997
32.9320142
33.75678804
36.94716514
36.38890511
38.38762791
41.1265601
40.76382837
67.95301939
88.9388589
86.21197041
31.26361167
31.80550756
31.7510241
32.08850551
33.42657481
33.21473808
34.11934035
37.74463071
37.1248915
39.44686224
42.80511224
42.26277421
77.19775532
106.0522181
102.4428836
31.82628744
33.49799007
37.95215978
40.7734648
46.2609264
44.2150592
90.08888662
130.1313056
124.8143713
68.76777872
67.59416109
57.83139452
85.28954193
82.32191473
64.63877738
101.2953529
97.95318776
73.55766973
123.1600965
118.4086051
84.39171646
72.77465611
50.79485505
42.89120795
41.16012802
50.0374901
40.43782483
40.08875313
37.639532
54.39042198
43.02673395
43.69077333
42.12249164
42.81765441
53.84819055
41.89182507
41.46661177
38.614518
60.55283904
44.96148692
45.92713101
43.91664011
44.68649655
59.67417826
92.78665905
89.8752617
69.06587724
200.7350929
154.7997637
157.3934745
140.7658378
142.9533504
182.7443541
43.9220675
43.18535902
39.69130284
67.85526591
47.88011613
49.27540967
46.27352664
47.46826243
66.87618806
111.2319672
107.2995146
78.51704146
302.4033106
203.2040626
206.6345246
182.6906714
186.3835237
250.045314
49.71593848
51.09105846
76.16179219
137.808939
131.9514074
90.68581035
464.9100889
278.7207662
274.7872173
245.4618617
250.8279522
408.430472
140.3404368
195.7881343
178.8429803
269.9007987
250.949863
160.0799947
94.40998462
110.3008114
100.3853336
168.3914362
161.2119874
127.3115146
167.5356255
93.89515101
97.22500392
90.4319271
92.89929835
164.6077141
63.53809386
81.07161854
74.50254286
212.4698843
356.9874543
343.7138013
438.5088749
425.0473885
217.7578388
176.7982249
289.6307964
275.4636587
339.5374278
327.3882384
198.003592
234.377108
176.7120303
179.9503343
160.0290195
162.7073756
213.1731859
72.41392406
96.88816138
93.78256964
275.3883766
339.7190256
334.8342972
396.5886766
392.1356367
316.7703543
234.5091365
456.2557022
442.9713012
329.3044695
323.6016946
265.1525425
373.5294402
235.8011248
240.7267295
210.2258988
213.966881
328.2991383
82.88611876
116.8987067
112.5979418
397.6399087
513.4170751
508.684486
695.7415262
688.5256178
496.729472
327.350889
405.5499011
400.6306493
503.459678
498.7139145
384.5939053
275.4989053
139.8439479
721.4947912
1084.709974
1076.453342
514.6152004
707.0427786
701.3956586
1052.99454
998.1176669
665.6250255
38.91463877
38.40012369
36.39370617
49.75275846
40.90886787
41.87342205
39.11036969
40.5433008
48.88942451
63.25523021
61.16439336
53.57354119
97.83146762
70.36723532
74.6628503
64.49507597
68.77787164
92.99585377
74.01075073
71.93344028
60.64658893
144.7411179
85.58168945
89.51403752
81.91556572
84.53907317
142.1295772
121.0380223
79.07583985
81.24878759
75.66445342
78.39986405
118.7346724
57.04982816
66.41550657
64.93824592
217.0733352
268.7219929
217.8303203
684.4464517
583.2966441
388.2905911
60.34354874
81.73349842
62.59513942
74.84540058
58.37747116
129.0247158
81.97413835
66.65386787
266.4994004
274.5326913
454.6252583
162.5978139
205.6439301
201.1213281
214.1967097
208.9996183
165.2468392
217.2349732
200.8888794
144.0325227
387.7441614
422.7353421
666.6214484
155.0326461
244.2139234
223.2022367
133.1400742
121.7700081
102.0433406
234.6993961
158.9546028
171.7658607
121.643786
133.1399979
210.8787082
487.113111
345.0211756
361.5172013
262.7262793
275.4416473
358.7012084
121.7096706
152.9994056
143.7792343
391.8218511
363.2396405
213.8482597
215.6309794
420.4128911
401.6888402
306.7761353
294.0139348
180.9994258
193.9108574
323.3216878
310.9586162
363.9511251
360.0276535
290.981366
300.4656823
371.8755252
367.8798682
295.1002965
291.7896632
242.1118915
250.1004236
301.8572792
298.4683092
547.6085805
541.7357742
421.3568519
443.6017472
576.9563783
560.7103714
459.223581
448.5073445
350.6229832
363.90806
473.9217452
467.5459795
218.6560605
742.7606459
734.3544828
543.167069
564.5007665
759.8758655
746.3615353
108.5696517
122.1042798
196.6298957
199.8918746
298.5080176
128.1600949
156.545101
154.139365
161.4452984
158.9767232
129.9191221
121.508167
147.2539401
144.9827173
151.7541459
149.410748
123.1029602
252.7299052
189.0736821
193.1857939
152.4224067
190.6844882
187.2105889
197.8278017
193.9398592
154.7697573
413.2335758
255.6695474
261.8991122
170.9472356
173.9105653
230.2462086
115.3978507
138.7775009
136.7551856
142.9222749
140.7852021
116.8712958
679.0398246
503.6082452
509.2709399
494.1854598
499.3328006
675.0912043
313.5618796
388.1683024
383.9207555
226.2732002
231.0257602
367.1971966
143.4454412
177.8221673
174.8184484
184.0676381
180.8631952
145.5785136
135.4304676
166.5584032
163.9710279
171.9680328
169.2234925
137.3521562
332.1028191
217.8614219
221.9361365
523.5657902
519.0295509
402.2681137
693.3132805
697.9516809
1019.543127
489.4302571
678.8697496
662.7560671
417.2865031
410.4380061
330.9969485
701.3021464
525.7781772
538.0200124
513.2834265
520.4001637
699.4403156
1008.473007
683.2089979
687.9136888
673.5171378
678.1996315
1004.494626
380.3146353
493.7602915
489.0480367
718.0757734
712.1819937
520.0539788
630.7148884
904.2415816
815.9934569
389.9478583
306.3358818
238.1431145
282.8590424
360.6880697
361.7487512
528.2411739
428.0586378
486.8013554
498.4412227
750.9634606
260.134995
348.8397651
337.1369093
369.3751267
359.1556968
267.6578215
232.3111354
297.1282104
282.8367662
324.6844146
311.5911784
238.9231526
712.9221348
451.7472803
472.1803088
328.8247707
444.8612421
420.7241775
495.940891
473.4521338
340.8240155
293.3860098
386.805208
377.6395566
406.6587753
393.8141315
301.0051911
319.399422
329.377052
453.8892694
208.5103572
250.843091
241.89915
270.7660523
260.0766642
213.4758628
486.1841605
665.8165559
644.3300629
822.1969261
743.6216468
510.131577
448.765855
606.5431498
603.2720299
619.7870215
617.5097774
455.4970744
599.2026486
902.1578746
898.6975925
909.6540612
905.3667058
603.7509546
575.2465181
885.4039718
866.7389206
895.8575152
892.1035001
583.5615369
389.9095207
543.0702033
537.6356144
553.6379759
548.2937289
394.9945421
367.6983238
519.3712907
510.2324913
532.0682685
526.1582964
373.7744274
429.4560033
585.5898819
580.6742948
596.175439
591.630768
434.5339281
410.0469433
564.5043649
559.1231453
575.2301762
570.0494954
415.0117404
617.0414507
915.7776897
912.8319315
922.6126524
919.4354658
621.4216983
415.9906393
534.0176839
529.7084339
636.8818505
603.6248557
455.1388086
917.4737545
609.4403751
633.6175479
553.0701205
578.3062634
831.613859
346.6639233
436.5533083
425.8132001
484.2045519
479.3110069
367.9978038
996.9137235
663.4960663
668.6013771
648.4168505
657.2090048
993.3182159
537.9223638
729.7899765
723.0750442
791.8044384
762.8159466
571.4157052
149.870263
152.2990041
196.8663695
104.4751176
123.7891769
122.0826877
127.3208735
125.5355077
105.7569418
99.56669156
117.1823761
115.6207432
120.4126905
118.7780312
100.7611792
186.123452
145.1985761
147.505289
109.7432493
130.9987205
129.1420304
134.811033
132.8795946
111.1153897
217.2484481
165.3947577
168.1823235
348.2302117
344.1600088
278.6304773
622.7240456
446.9358941
452.2876925
432.4079436
440.5727632
614.2108862
546.8767224
410.2248134
421.8804869
391.612816
399.8613323
522.2008631
261.7708707
318.1608666
313.3312506
185.0225604
212.2627237
201.1545846
232.6835214
222.6964212
190.670767
396.2828364
292.4060789
304.7605162
642.7795202
466.5051991
471.1205312
457.1844375
461.8973296
638.3797219
287.8687226
356.1137798
352.2165815
379.9426659
375.8288743
303.6211955
660.3578681
484.8466057
489.7085976
475.6559247
480.3209901
655.9559938
470.1299672
363.1483888
367.1159408
355.0839764
359.0349202
465.2507189
239.5918327
288.5005027
285.2422228
309.1210192
305.4037614
252.7506413
490.6489497
380.1962428
385.0177931
371.4044081
375.4376658
483.7835864
31.90207367
31.90258144
31.96738449
31.90330968
31.90472238
31.96772292
31.90566811
31.90761014
31.96904381
31.9103559
31.91405542
31.97113116
31.91884585
31.92477924
31.97461854
31.93174948
31.93935962
31.97939679
31.94695905
31.95414975
31.98404336
31.77153435
31.77212396
31.83645591
31.77313874
31.77454004
31.83821448
31.77639587
31.76556546
31.85749697
31.82777991
31.82953031
31.85985789
31.83675559
31.84012618
31.86801642
31.85289133
31.85849561
31.88228198
31.87762288
31.88526749
31.9032507
31.90772986
31.91528976
31.92722145
31.64291807
31.64420491
31.70774833
31.64644581
31.64956791
31.71158676
31.65358211
31.64899731
31.73529663
31.70923492
31.71326022
31.74140582
31.72995928
31.7376437
31.76159428
31.76678771
31.77951818
31.79595671
31.82191007
31.83788581
31.8452892
31.88732135
31.90275588
31.89919051
31.51570334
31.51816131
31.58043858
31.52215802
31.52803204
31.58826729
31.53577562
31.54161583
31.62078411
31.60096166
31.60906263
31.63366134
31.64374653
31.65980827
31.67597497
31.72141785
31.74912461
31.7489315
31.84053448
31.87651442
31.85325444
31.97718265
32.0147619
31.96265681
31.3915256
31.39581557
31.45619444
31.40262478
31.41252867
31.46927838
31.42687479
31.44816646
31.51597181
31.50503084
31.52078238
31.54093102
31.58980443
31.62066967
31.62728164
31.75159406
31.81034665
31.78170473
32.03619272
32.12788413
32.02893139
32.39855797
32.5211997
32.3047215
31.27014216
31.2770968
31.33559757
31.28822668
31.30450358
31.35736229
31.32879666
31.37227471
31.4272582
31.43035383
31.4582184
31.47137132
31.5788265
31.63821752
31.62672049
31.91383287
32.04858339
31.96596217
32.63878403
32.91486657
32.63521524
33.98593218
34.54312681
33.6673958
31.1519816
31.16236606
31.2186036
31.17908481
31.20410375
31.25292308
31.24153675
31.31196785
31.35571633
31.37576499
31.41766727
31.4258777
31.62073461
31.72932054
31.69861409
32.26179823
32.54557364
32.39604935
34.02506803
34.8991364
34.24789478
31.03842718
31.05331856
31.10635477
31.07697981
31.11253678
31.15664918
31.16526797
31.26300487
31.29851931
31.3345814
31.39413822
31.39800314
31.70640154
31.87598373
31.83362856
32.73731943
33.2166308
33.04316735
30.92980916
30.95014207
30.99981155
30.98182376
31.02916403
31.06886114
31.09806555
31.22256558
31.25221597
31.30420708
31.38454082
31.3859458
31.81123162
32.03993605
31.99898742
33.19017134
33.82295593
33.6840853
30.82615477
30.85309428
30.89907637
30.89348452
30.95316071
30.98852778
31.03806067
31.18894263
31.21346979
31.28253511
31.38490957
31.38405337
31.92033088
32.2008904
32.1613292
33.57664297
34.31564776
34.19842658
30.72783687
30.76193828
30.80411653
30.81148484
30.8836109
30.91455894
30.98411429
31.16151569
31.18151058
31.26812896
31.39251882
31.39064243
32.03084593
32.35879272
32.32045233
33.93593143
34.77103294
34.65586096
30.71432048
30.84572513
31.15618053
31.26045799
31.40658911
31.40442159
32.14698811
32.52238313
32.48163467
34.30957301
35.25300724
35.12471271
52.9210848
49.81890391
46.38476254
43.44510627
46.0792001
55.68821946
50.00542549
50.46588074
47.67056394
48.05681387
52.80670498
62.3061668
54.54627991
55.25175284
50.9503046
51.47229966
57.98479998
69.9420562
60.4399958
61.28672887
55.96026957
56.67791395
64.99044455
309.8643435
260.0656156
262.7364573
62.10942623
63.02430868
73.5863485
491.3058014
385.4606657
391.3843076
319.8843332
323.6322548
398.7422239
173.2913916
136.5580365
138.6373296
124.6424868
126.6218027
158.7654693
269.271629
266.0903371
222.31289
229.5487186
275.6129942
272.4344212
384.3752013
312.5100296
316.1991007
265.3664677
268.2010372
320.8681843
397.2662799
402.7194484
522.4622819
100.7176851
51.15562537
46.84067505
47.2802799
42.89453677
43.71011951
46.66975404
105.4481489
91.03095953
93.2364571
71.93900085
75.72869127
82.36523779
150.0955635
120.9461441
122.8327841
108.186661
110.3253265
135.9145112
125.8515812
104.7781681
106.3837412
95.18162606
97.0063394
113.9474918
90.76925627
82.92190306
75.7949738
351.6903285
356.4132138
440.2532402
286.4025099
233.3901815
246.5085417
142.7126976
155.6107848
170.6032617
239.2857722
232.634065
209.614941
211.7512801
248.9688798
244.5731159
194.6232393
162.0273044
147.5188351
248.0826407
249.141927
289.9510393
271.4647214
248.0218027
247.5996852
423.3696661
343.1910186
347.7000374
289.3105899
293.0094562
354.4985798
339.9451462
282.7460875
286.0168023
31.770245
31.79962087
31.79728202
31.80529943
31.80204498
31.77326834
31.86163828
31.83152638
31.83400906
31.78677514
31.81300627
31.80860706
31.82314094
31.81738069
31.79224245
31.87131426
31.84377766
31.84820757
31.81496404
31.83597042
31.82872352
31.85144167
31.84276059
31.82345658
31.88754222
31.86423636
31.87097254
31.85570549
31.86920324
31.85937645
31.88804658
31.8776451
31.86641855
31.90994242
31.89256338
31.90058967
31.8990994
31.90623409
31.89665974
31.91319073
31.90879078
31.93329228
31.9219672
31.65929622
31.68583449
31.68092364
31.69831106
31.69147523
31.6660674
31.74518703
31.71788912
31.72362163
31.69448225
31.71517965
31.70600956
31.73753056
31.72540683
31.70704909
31.76838376
31.74598502
31.75601891
31.75587669
31.76612113
31.75086445
31.79878633
31.78207095
31.7742294
31.80663259
31.79266634
31.8077907
31.84240103
31.83815944
31.817515
31.87680085
31.85716845
31.86494496
31.8573595
31.85479306
31.87220267
31.93272322
31.91239488
31.89452323
31.92916938
31.94910453
31.91007985
31.91557361
31.56279451
31.58551519
31.57579721
31.61077091
31.59699771
31.57677053
31.64176502
31.61869706
31.63019054
31.63519632
31.64642624
31.62716473
31.69198302
31.6680159
31.66060044
31.69127953
31.67827453
31.69905406
31.76248871
31.75289744
31.72158686
31.82495691
31.78674174
31.80585967
31.77406736
31.7774496
31.80776451
31.96211524
31.90843632
31.86607181
31.99431944
31.9502777
32.02379932
31.8807896
31.91385654
31.9493916
32.18604802
32.07639913
32.0467498
32.11914681
32.21711447
31.98924584
32.03560221
31.48619261
31.50256497
31.48417293
31.5514395
31.52492549
31.51192089
31.55748563
31.54001541
31.56316167
31.62104338
31.61907464
31.58192599
31.71480255
31.66249695
31.67225974
31.65776377
31.6589982
31.70165318
31.90089829
31.85069557
31.77790359
32.02884883
31.93367093
32.00668551
31.83521723
31.87782116
31.9533814
32.42147925
32.25239741
32.1360561
32.49301818
32.36288806
32.61764611
32.09413411
32.23481734
32.33486859
33.1811407
32.75496141
32.67161494
32.89663627
33.30735528
32.37885821
32.57903678
31.43536342
31.44603991
31.41494127
31.52785301
31.482978
31.47649258
31.50066278
31.49104821
31.53005725
31.67542865
31.65337944
31.58364132
31.84949993
31.7407066
31.77853199
31.68843263
31.71252197
31.80349082
32.26457673
32.14703812
31.98308224
32.59366128
32.34753181
32.5133338
32.09586682
32.21131691
32.40600121
33.70970261
33.26638812
32.89646198
34.20593843
33.66970882
34.4123114
32.84003828
33.28354368
33.6826542
37.61567426
35.65013946
35.04705967
36.51177906
39.76412704
33.98683811
34.88117976
31.40406508
31.41004848
31.36422324
31.54182056
31.46775771
31.46815369
31.47201169
31.46920701
31.53545554
31.79849547
31.76092227
31.63795458
32.11663973
31.91719783
31.97528962
31.81750571
31.86672342
32.04097193
32.87541751
32.70219293
32.3717636
33.71049109
33.13525123
33.3793541
32.69864173
32.91153217
33.38716728
36.43122833
35.61259504
34.5066215
39.88818363
37.1393685
38.69494002
35.05087232
36.22915136
38.10096967
44.27497274
43.25916369
44.85130526
31.38771172
31.39039041
31.32591914
31.58690993
31.47519849
31.48000488
31.46869007
31.47184281
31.57417909
31.95742363
31.91590402
31.73111985
32.45859359
32.1528899
32.21353961
32.03025278
32.09338421
32.37355796
33.53644479
33.37962018
32.85586692
35.03779069
34.08073239
34.29057207
33.61881784
33.85809517
34.73495102
31.38367978
31.38366333
31.29798727
31.64786425
31.49855851
31.50566033
31.48569282
31.4917889
31.63179167
32.12100194
32.08095492
31.838587
32.78383562
32.38939149
32.44520544
32.27349023
32.33182264
32.70622674
34.07880995
33.95391473
33.29203072
36.00422007
34.82815855
34.98626967
34.48331859
34.66271857
35.79704251
31.38791343
31.38643178
31.27837106
31.71531642
31.53046545
31.53894581
31.5135259
31.52156877
31.69761282
32.27982232
32.24105613
31.94836796
33.07475428
32.60930676
32.66214133
32.50066992
32.55493291
33.00371014
34.54334734
34.42946696
33.66728332
36.75431065
35.42425177
35.56979322
35.13496135
35.28287424
36.57887153
88.01015743
78.67592008
79.41503034
77.27976013
77.99247508
87.10699574
31.39916184
31.39685372
31.26653233
31.78828308
31.56937097
31.57834259
31.54901876
31.55763271
31.76785783
32.43997963
32.40077727
32.06123181
33.35529511
32.82428282
32.87795544
32.71648591
32.76881587
33.28391796
35.00594599
34.8856431
34.02660945
37.51909045
36.00627133
36.16570351
35.71075201
35.86065546
37.33090036
104.8206624
91.60062959
92.56823044
89.77325603
90.70167003
103.6274657
31.59075636
31.59962355
31.84369131
32.93305793
32.98921022
33.57312431
36.32014494
36.4935992
38.20020473
128.269944
109.545758
111.0614841
106.9097326
108.2172933
126.5391542
100.1575772
88.01374322
88.90844023
86.3136305
87.17816524
99.05106095
121.5215292
104.4066474
105.7000966
102.0209451
103.2209694
119.9498179
60.6950536
55.37796922
58.62333041
48.23798387
50.5975724
55.61891065
44.49334933
47.06299423
44.50518784
43.6944181
44.7241666
42.44803473
52.58244673
48.47920588
46.23485046
50.14777213
55.92531676
49.17815493
49.58204217
55.00700372
46.47825043
46.16390875
43.46044515
53.28898809
48.42015916
48.79832786
53.22204109
53.87532421
61.4311141
45.26753912
48.75510325
48.31979977
49.71164348
49.22450849
45.57879562
44.16360702
47.15135979
46.80720813
47.90402975
47.51880928
44.41138495
58.80791072
52.01909329
52.60633346
91.79947014
81.59025115
82.360816
80.11702247
80.87603542
90.83445981
58.87822967
59.6608368
68.90844222
48.32359409
53.06058336
52.47028732
54.30340645
53.67379849
48.77113069
46.65436101
50.76268992
50.23329463
51.88282071
51.3210401
47.04195457
65.91257262
57.39523179
58.13455031
109.8885039
95.49101874
96.54686763
93.5045562
94.5116407
108.5842034
255.1381248
257.5853897
306.156309
50.26663417
55.61684004
54.94927289
56.97805866
56.29331131
50.64449967
74.63141405
63.92077732
64.8853491
135.8301609
114.7663697
116.0551706
112.2696916
113.8313515
133.9235527
372.3946231
379.9853787
477.2379777
306.7837682
298.2870115
274.7498319
403.4683695
327.3713117
331.3571835
190.2983936
171.6868304
173.7539574
169.0104366
170.2338475
184.7930611
263.7791097
214.8296156
219.3664437
204.9127911
210.3336253
257.575876
132.5026333
134.5191153
170.3787106
94.9667313
111.17398
109.7764663
114.099586
112.6162022
96.0838238
91.56136854
105.8238685
104.4382441
108.4239811
107.1195274
92.07141072
161.1306478
128.4907165
130.4895326
352.2468284
282.5573472
286.5481219
275.9326617
279.2315719
347.7219034
434.0328282
331.5987327
335.4687315
323.9130361
327.7520458
429.5590493
220.0428095
262.9062827
259.6669422
285.1489756
229.9984888
233.4653493
222.987167
226.5357066
280.4701289
335.5165246
269.4611069
272.8685347
263.0057468
266.3080632
331.4317637
95.83085144
84.67511342
85.50761296
83.10193553
83.89791438
94.80177885
282.0123015
278.7980007
231.9633407
451.8508451
347.1588138
351.0807007
339.3493844
343.2297027
447.3649069
304.8976644
308.7163386
379.2089066
324.5790899
270.9261605
273.8867008
115.4297138
99.7425053
100.9002338
97.56929017
98.6690303
114.0014895
277.011963
320.2764032
313.9983225
117.5166176
45.81840867
46.36826982
50.51898921
47.85854385
44.49909013
45.20813567
85.90060558
88.62509205
101.8332192
72.03083049
77.47340009
75.06545376
81.45271682
79.47440049
73.31683339
72.57285659
69.43341993
66.53651972
87.65573024
79.52134978
82.88496085
117.2780581
119.1641895
147.4711692
86.92594987
100.3177433
98.6650225
103.1567686
101.7853786
88.19290932
82.72755067
93.87625869
92.65851994
96.90949992
95.24857471
83.50728618
139.2381935
112.7866197
115.1624708
101.7357141
103.2642201
123.3490466
79.84821044
89.43738102
88.3095757
91.56950995
90.4770179
80.48722658
76.72843189
84.63089038
83.05578065
87.20588179
85.919787
77.52313761
116.3968708
98.6421507
100.2410099
66.33872784
71.19808045
67.70495387
65.23902577
68.82646814
106.6330245
95.34947372
103.6169374
76.5388497
82.4197872
94.53757817
70.51552859
75.75112136
69.68211763
446.483624
360.939604
366.8095928
211.4328642
180.5333254
183.6528432
175.6406191
178.1725694
206.2221247
237.1180755
194.5888579
199.8002709
186.6177743
190.5902562
230.0889407
200.2087037
216.2567289
261.2997059
190.1477658
177.820385
164.1073779
188.6983257
169.6491036
183.2226819
380.8740888
298.1932329
302.6802348
289.9524518
295.0540021
371.1676679
256.3366534
252.8193759
213.5767126
415.3654241
316.1201903
320.0635091
307.4624603
311.9647099
409.3952854
302.5587695
243.4482203
246.8059159