/*--------------------------------*- C++ -*----------------------------------*\
| =========                 |                                                 |
| \\      /  F ield         | OpenFOAM: The Open Source CFD Toolbox           |
|  \\    /   O peration     | Version:  v2012                                 |
|   \\  /    A nd           | Website:  www.openfoam.com                      |
|    \\/     M anipulation  |                                                 |
\*---------------------------------------------------------------------------*/
FoamFile
{
    version     2.0;
    format      ascii;
    class       surfaceVectorField;
    location    "0.6";
    object      Uf;
}
// * * * * * * * * * * * * * * * * * * * * * * * * * * * * * * * * * * * * * //

dimensions      [0 1 -1 0 0 0 0];


internalField   nonuniform List<vector> 
6464
(
(99.99433555 0.9377018416 1.730697756e-22)
(100.0001666 0.4714280656 0)
(100.0026385 0.4659017886 5.546205166e-22)
(100.0150771 0.916407301 -1.099542279e-23)
(100.0045211 0.4497865135 1.121083542e-21)
(100.0055305 0.4242919924 -3.103564846e-22)
(100.030111 0.817350361 -6.928921094e-22)
(100.0059003 0.3920622188 -1.234320143e-21)
(100.0061531 0.3560914847 8.783183683e-23)
(100.0355685 0.6743547085 1.867862356e-21)
(100.0063013 0.3180582015 4.862317982e-22)
(100.006149 0.2798932357 0)
(100.0342848 0.5224276454 0)
(100.0057948 0.2432307492 0)
(100.0054562 0.2090201541 7.831683793e-22)
(100.0287781 0.3866306584 1.631501528e-21)
(100.0054815 0.1782534915 -3.967013989e-21)
(100.0052627 0.148887046 -1.474800762e-21)
(100.023603 0.2710262366 3.213659947e-21)
(100.0044881 0.1236599857 3.213420139e-21)
(100.0033481 0.102588299 -8.966695613e-22)
(100.0140884 0.1849028621 -4.969984141e-23)
(100.0009617 0.08753732266 1.749837128e-21)
(100.0086081 0.08408126105 -7.775995982e-21)
(100.049398 0.2064002102 4.370508456e-22)
(100.0178095 0.1868821747 -2.763403274e-21)
(100.0029555 0.08673463257 -1.601164746e-21)
(100.0060024 0.04865208868 -9.745903875e-22)
(100.0331329 0.1261696707 1.545464952e-20)
(100.0049646 0.02283767415 -7.82882732e-21)
(100.024254 0.06716447911 -1.647849337e-20)
(100.0215217 0.02108598011 1.398515509e-21)
(99.94478858 2.096410253 -6.646363685e-22)
(99.97834457 1.882239575 -1.594608962e-21)
(99.94253892 2.364020409 4.767521924e-23)
(99.97271207 2.134496711 -5.765894519e-22)
(100.0521929 2.098697799 1.960674055e-22)
(100.0579993 1.852500625 -2.214913917e-22)
(100.0718708 2.333408482 1.168843178e-22)
(100.0767252 2.083544544 -8.266073044e-22)
(100.1400499 1.913276525 -2.800446323e-22)
(100.1110535 1.660565495 -2.43929553e-22)
(100.1703969 2.093626474 -9.114044335e-23)
(100.1534314 1.849521352 2.238271942e-21)
(100.1827527 1.606863858 2.506712335e-21)
(100.132146 1.375295401 4.358673936e-21)
(100.2151852 1.734165727 4.358924481e-21)
(100.1852481 1.517852667 5.510093971e-22)
(100.1842949 1.258424683 -6.935370976e-21)
(100.1275355 1.065936618 -6.464035677e-21)
(100.2118752 1.342225957 -2.33884834e-21)
(100.1785132 1.168082625 -2.292885591e-21)
(100.1582064 0.9391414627 -5.455900596e-21)
(100.1038429 0.790059346 4.969078767e-22)
(100.1756606 0.9901971232 -1.456288878e-21)
(100.148519 0.8622568301 5.924902552e-21)
(100.0950175 0.5355551068 -1.359793822e-20)
(100.1524696 0.7314609208 -1.359688169e-20)
(100.212456 0.7869551483 1.375959537e-20)
(100.1305304 0.6057660926 -2.777534687e-20)
(100.1096339 0.4984925732 1.204868416e-20)
(100.1513785 0.5294205969 -1.691053197e-20)
(100.0888748 0.4082831796 2.434709366e-20)
(100.067004 0.3622980695 2.7045416e-20)
(100.0813442 0.2435390697 2.299251695e-20)
(100.1858673 0.3829042913 -1.859967636e-22)
(100.1431287 0.4339688301 4.846426652e-20)
(100.0843638 0.3436910175 2.616579216e-21)
(100.0577697 0.1414425879 -6.872606917e-22)
(100.1289252 0.2324729978 3.297735775e-20)
(100.0460704 0.06469037291 -7.679715642e-21)
(100.0966112 0.1240352699 -1.748127515e-20)
(100.0825404 0.03882390842 7.823775782e-21)
(99.86984392 3.896613867 5.019655875e-21)
(99.79400519 4.140353933 3.753753506e-20)
(99.84324542 4.449165352 6.153025744e-20)
(99.89781955 4.178968176 5.772040701e-21)
(100.2180723 3.847700972 -6.729676705e-20)
(100.2082813 4.144161833 -2.890036687e-20)
(100.2950112 4.38968926 -2.967544807e-20)
(100.3020549 4.069622825 2.484174308e-21)
(100.4783438 3.413594498 -8.727976977e-21)
(100.5222122 3.715269769 -4.871451222e-20)
(100.6271374 3.872287845 -1.359833038e-19)
(100.5715933 3.559367653 5.905002997e-22)
(100.5830627 2.783251214 5.019416247e-21)
(100.6568525 3.047017498 -1.703755962e-21)
(100.7512325 3.131331624 3.989954972e-21)
(100.6672359 2.867168592 8.476226266e-21)
(100.5704907 2.129849441 -6.440717998e-21)
(100.6547015 2.343667518 -1.503295722e-20)
(100.7296966 2.382122276 -5.21710418e-21)
(100.6368748 2.173431964 5.766026783e-21)
(100.5605404 1.705002317 -1.808381059e-20)
(100.4823938 1.54343527 -1.217910648e-20)
(100.6151954 1.71582466 -1.219553049e-20)
(100.5338789 1.562807763 6.510543376e-21)
(100.3742021 1.019228302 -5.379859553e-20)
(100.5016302 1.246557397 -2.816425227e-20)
(100.5808509 1.226822668 -8.158096851e-20)
(100.432431 1.026456125 -3.857589073e-20)
(100.2704244 0.6813026592 -6.143872833e-20)
(100.3678626 0.838750992 2.441833232e-20)
(100.4192683 0.8118606982 -2.916428835e-20)
(100.3081102 0.6802449985 -2.549764449e-20)
(100.2253475 0.3686806728 1.001482134e-20)
(100.3877654 0.5021957383 -2.627762457e-20)
(100.368062 0.6112090839 -1.490398808e-22)
(100.2744541 0.5565307624 -1.503308943e-20)
(100.1623742 0.2123446106 1.546568498e-20)
(100.2759937 0.3020540488 2.747673374e-20)
(100.1284958 0.09668729663 -1.965311178e-21)
(100.2057245 0.160076527 -3.966094519e-21)
(100.1737241 0.04973478119 0)
(99.72491404 6.305148884 -4.895607001e-20)
(99.53876748 6.583501413 -8.220429685e-20)
(99.66650721 7.01041964 5.064237546e-20)
(99.80477122 6.678243218 -3.283715157e-20)
(100.6422615 6.185481349 -2.835468658e-20)
(100.598979 6.57441579 -7.925132946e-21)
(100.8109788 6.858335194 -6.117113657e-20)
(100.8292958 6.423118425 -2.32050485e-20)
(101.2598216 5.326201582 1.079686421e-19)
(101.3358261 5.719853308 8.52681831e-20)
(101.5500158 5.840310039 -9.508700785e-20)
(101.437354 5.429996682 3.207219607e-20)
(101.4306936 4.176222492 7.632993581e-20)
(101.5671105 4.50483298 9.897576954e-23)
(101.7273493 4.520498607 7.670297145e-20)
(101.5641225 4.19689683 1.626472177e-19)
(101.328052 3.080880131 9.038386907e-20)
(101.4694637 3.326655126 -9.615632315e-20)
(101.5757386 3.289337352 -6.081893568e-21)
(101.4189194 3.059790409 2.625942089e-19)
(101.240738 2.355180473 0)
(101.1130178 2.179397007 4.871126855e-20)
(101.3094729 2.310065031 0)
(101.1726449 2.146187305 0)
(100.8294359 1.401402773 2.968839692e-20)
(101.040805 1.642976706 1.924331993e-20)
(101.1156687 1.534389715 -1.690453528e-20)
(100.8915209 1.337700381 3.721610301e-20)
(100.598193 0.916561806 -3.393985532e-20)
(100.7566769 1.080193652 -1.515173762e-20)
(100.8008007 0.9919638508 -1.530998869e-20)
(100.6375527 0.86420641 -7.422855426e-21)
(100.4256344 0.4338261799 -9.494800391e-21)
(100.6408701 0.5399116617 -1.970446728e-20)
(100.6738542 0.7172897816 -2.600165681e-21)
(100.5541818 0.6886869972 5.523886775e-21)
(100.3073589 0.2473324521 7.905603883e-21)
(100.4518071 0.3202958918 1.201085612e-20)
(100.241209 0.1115696107 -2.000429322e-21)
(100.333761 0.1661437969 -3.531288153e-21)
(100.2789419 0.05099235481 -5.075238677e-22)
(99.40235358 9.532598346 4.124805739e-20)
(99.04904599 9.897619797 4.488731456e-20)
(99.27539047 10.56083281 -1.005878001e-19)
(99.6633751 10.07992251 5.619951748e-20)
(101.5584367 9.199776241 1.00057156e-20)
(101.4607704 9.78645736 0)
(101.9197907 10.11954924 0)
(101.9516194 9.446621392 0)
(102.7508751 7.47423489 3.617892283e-21)
(102.9093118 8.021037787 1.132562423e-19)
(103.2910797 8.038156898 -5.728947e-20)
(103.0603359 7.48468573 -7.425428742e-20)
(102.8812785 5.480926778 0)
(103.1355197 5.884330595 -1.851409989e-19)
(103.3742504 5.769521872 0)
(103.0721213 5.390240898 0)
(102.4870483 3.831064094 2.321187435e-19)
(102.7287902 4.098642981 4.275863073e-21)
(102.8460534 3.969016024 2.440595924e-19)
(102.5885082 3.726573846 3.500384339e-19)
(102.1687333 2.772473388 -1.508879049e-20)
(101.9791133 2.596240092 -3.893676575e-21)
(102.2310112 2.65626254 1.890164583e-20)
(102.0359098 2.503788257 2.304993843e-20)
(101.433587 1.618551718 -9.563621368e-20)
(101.7342092 1.847830681 -6.054986026e-20)
(101.7771922 1.644707119 -3.389648249e-20)
(101.4762129 1.481666574 -1.733859272e-20)
(101.0215498 1.031511772 1.175286083e-20)
(101.2443414 1.177674417 3.548332281e-20)
(101.2566517 1.030728731 -3.962941964e-21)
(101.0427617 0.927163144 -3.880905254e-21)
(100.6532423 0.4275860215 2.038287682e-21)
(100.9098955 0.4778963042 0)
(101.0196027 0.7057682514 -8.906618541e-23)
(100.8892737 0.7206337244 -1.057332022e-20)
(100.466644 0.2366306675 4.500881359e-22)
(100.6318637 0.2755184784 2.038103923e-21)
(100.3615645 0.1044647214 -2.042884629e-21)
(100.458414 0.1363183059 -2.044898802e-21)
(100.37747 0.04087423636 -2.050027198e-21)
(98.6108967 14.5946641 -7.945162984e-20)
(97.73088868 15.13289328 -1.397486565e-19)
(98.23279099 16.42911455 -8.523079685e-20)
(99.22932441 15.57114137 -1.189393985e-19)
(103.6265124 13.45499946 3.531160055e-20)
(103.4771931 14.50937435 6.116702832e-21)
(104.5199691 14.80362345 -1.239704989e-19)
(104.4525874 13.60561391 -2.919301784e-19)
(105.5276011 9.697193951 -3.59491203e-21)
(105.9046947 10.47556404 -4.797561594e-19)
(106.5352871 10.20670185 -3.576265773e-21)
(106.0108002 9.4700706 -3.571338233e-21)
(105.1659797 6.447388183 2.292545897e-19)
(105.6264194 6.898827946 2.769262596e-19)
(105.8784206 6.578536099 -3.086943249e-19)
(105.3674509 6.185040962 0)
(104.0879323 4.196163543 2.251554012e-19)
(104.4661588 4.448433186 -1.723214971e-20)
(104.546105 4.19245807 1.996521333e-20)
(104.1608203 3.984996152 2.152825459e-21)
(103.3215862 2.846397736 1.660829363e-19)
(103.0490608 2.69868105 6.283575071e-20)
(103.3429409 2.658584593 6.703360331e-20)
(103.0764276 2.537056073 -1.064450372e-21)
(102.1335524 1.60333882 2.775284285e-20)
(102.5141494 1.77230803 -2.487926736e-22)
(102.487388 1.488511104 1.685723797e-20)
(102.1247744 1.395064353 1.256237482e-20)
(101.49302 0.9846743055 -1.647925187e-20)
(101.7754452 1.086057792 -8.397284536e-21)
(101.7287843 0.8898710613 -8.398911391e-21)
(101.4728641 0.8353197061 1.277985989e-20)
(100.873972 0.331891358 0)
(101.1583105 0.3094907608 1.350451696e-21)
(101.3540958 0.5554222555 -1.128771698e-20)
(101.2350128 0.6352709234 2.800481098e-20)
(100.6113743 0.1732259416 -5.143570605e-22)
(100.7814381 0.1608885111 -1.597251547e-21)
(100.4645888 0.07271572833 -2.061295905e-21)
(100.5531806 0.0683507352 -2.331092624e-21)
(100.4460454 0.01883935737 2.631457236e-21)
(93.5798331 25.32631344 -1.320368829e-20)
(95.00921611 24.86623899 -1.005779686e-19)
(94.15229208 27.19396345 2.73684315e-19)
(95.87940133 26.28286645 -1.847260824e-20)
(109.2794969 21.33105859 -1.64927827e-19)
(109.358591 19.47492666 1.254505033e-19)
(111.0368669 18.88988455 -2.454446162e-19)
(110.2329885 22.04065325 2.272734949e-19)
(112.3049368 20.63339325 9.143262287e-19)
(111.942883 21.50633318 3.612173997e-19)
(111.3476529 12.16617794 -1.199692053e-18)
(110.4070685 11.22559042 -7.845268895e-19)
(111.9944063 11.24253996 -8.442255665e-19)
(110.9003951 10.52386403 -5.897824591e-19)
(108.3017935 6.501836681 -3.455321662e-19)
(109.06449 6.888416402 0)
(109.1849484 6.269558792 0)
(108.4078267 6.008202943 -3.649273301e-19)
(106.0199967 3.873716208 7.571776525e-19)
(106.5537272 4.039663592 7.550122245e-19)
(106.5171906 3.651784086 -1.762592148e-19)
(106.0008187 3.551103395 4.057861631e-20)
(104.5771241 2.417098311 -2.994087503e-19)
(104.2217153 2.343504317 -3.00740305e-19)
(104.5135299 2.169467516 3.105646287e-19)
(104.17701 2.117524837 -3.137309634e-19)
(102.8255321 1.294637424 4.422975826e-21)
(103.2808345 1.355275388 0)
(103.1319848 1.020098072 -2.546674853e-21)
(102.735721 1.029654235 -4.593679719e-21)
(101.9476844 0.7424301166 4.567005106e-21)
(102.2697812 0.7712098385 -2.327127585e-23)
(102.147384 0.5467036901 -7.456073779e-21)
(101.8658065 0.5592809378 9.237216135e-21)
(101.0464577 0.1442831719 -1.961926204e-22)
(101.3221054 0.03880897403 -2.944671137e-22)
(101.6325301 0.2620246058 8.553666478e-22)
(101.537449 0.3741991358 6.760935337e-21)
(100.7108801 0.0557802845 -3.420619517e-21)
(100.8647973 -0.02028641556 -2.516320699e-22)
(100.5250459 0.01524023458 2.558035664e-21)
(100.5913623 -0.03491559092 -2.282886088e-21)
(100.4604046 -0.01438845517 4.284547811e-22)
(127.2627702 23.91003821 -1.659855895e-19)
(125.2501869 22.87744385 0)
(127.8522906 21.77877732 0)
(125.9213666 21.19111494 0)
(119.0454017 9.959349542 -2.739801283e-18)
(117.2695521 9.543742061 6.061149133e-19)
(118.9066774 8.300003551 1.344409011e-18)
(117.2646637 8.267316609 1.141553272e-19)
(111.782686 4.822896409 7.499757922e-19)
(112.822953 4.895675626 -5.403809322e-19)
(112.5472899 4.080377618 1.21660462e-18)
(111.595871 4.153330053 1.050021784e-19)
(107.9028879 2.615477326 2.281747243e-19)
(108.5461411 2.596050356 1.558113708e-18)
(108.2976429 2.14927431 9.922879182e-19)
(107.7154255 2.230213464 8.636806398e-19)
(105.6885008 1.40739384 1.068842302e-18)
(105.2842437 1.442868976 3.1122579e-19)
(105.5087123 1.135864707 -1.850890545e-20)
(105.1417982 1.191968258 3.238228938e-19)
(103.38946 0.6724485652 -4.96978287e-21)
(103.8813472 0.6008890756 -2.586791992e-21)
(103.5832674 0.2624702524 7.888173687e-21)
(103.1937664 0.3948193629 1.184963227e-21)
(102.3021798 0.3058051182 -2.039149241e-21)
(102.6281676 0.2413761649 1.392715461e-20)
(102.4150067 0.02561072331 5.150453232e-21)
(102.1476726 0.1215365285 1.020274982e-20)
(101.127761 -0.1212248694 -3.594925414e-22)
(101.3678077 -0.3142819418 -1.081504045e-21)
(101.7820814 -0.1526196078 -1.09632563e-21)
(101.7412603 0.007547987597 -1.203818561e-21)
(100.7352286 -0.1087764471 1.101237959e-21)
(100.8529376 -0.2527599789 1.345988644e-21)
(100.5186716 -0.06325832801 -4.364618617e-21)
(100.5483672 -0.1654303504 1.699638322e-21)
(100.4007144 -0.05653553629 -2.157864041e-21)
(140.4276285 5.566457053 -1.257782875e-18)
(138.701124 6.636214263 -9.899342175e-20)
(139.019959 4.182608643 -2.527602729e-18)
(137.5821967 5.246437304 -5.965998459e-18)
(124.071944 2.191852085 1.557725988e-18)
(122.3131161 2.946681855 2.195976293e-18)
(122.790145 0.8746095991 -8.154466521e-20)
(121.410512 1.732630199 6.950850386e-19)
(114.2027015 1.201995928 -8.391164876e-19)
(115.230867 0.782510904 1.199598705e-18)
(114.479111 0.1037330747 5.168071232e-19)
(113.6245836 0.5804744821 -5.349895277e-19)
(109.1569661 0.4465736344 -1.927430737e-19)
(109.7853001 0.182960581 4.351295351e-20)
(109.3076668 -0.1901401775 -1.856034491e-19)
(108.7711903 0.09710214666 -8.102553961e-19)
(106.3424315 -0.09311581531 6.888619546e-19)
(105.9543401 0.07199787864 8.682558289e-20)
(106.0363835 -0.3204976831 8.005844258e-20)
(105.6992803 -0.1507005339 -5.85336015e-19)
(103.7005109 -0.1967686726 7.859976467e-21)
(104.1678977 -0.4135287417 -9.289913734e-20)
(103.728372 -0.6900448096 -2.473411709e-21)
(103.3898441 -0.442131887 -1.245611869e-21)
(102.4663224 -0.2864978085 5.719900478e-22)
(102.7617467 -0.448980911 7.046005165e-21)
(102.4626006 -0.6199176758 5.78812752e-21)
(102.2380929 -0.4452539263 1.295374038e-21)
(101.0854826 -0.4402100118 5.642304775e-22)
(101.2618575 -0.7127824516 1.196834806e-23)
(101.7544143 -0.6477972376 3.762954158e-22)
(101.7819541 -0.4568713084 -5.769472237e-21)
(100.6604026 -0.3049021362 2.072631763e-21)
(100.7251547 -0.5137344757 -2.289701739e-21)
(100.4257799 -0.1566340579 4.120986015e-21)
(100.4084119 -0.3111874345 2.32772686e-21)
(100.2529261 -0.1037571866 2.048380411e-21)
(136.2164187 -11.68844944 1.383103078e-18)
(135.7154662 -10.3154819 2.190483313e-18)
(134.7158552 -11.89982344 1.081218846e-18)
(134.2987721 -10.61645695 -1.058548836e-18)
(123.2578698 -6.54773391 -7.370316548e-19)
(122.2876359 -5.180058148 -5.628494567e-21)
(121.5819341 -6.96360937 -6.871583478e-19)
(120.8864946 -5.746479469 -1.110055935e-19)
(114.404692 -3.24574686 -3.810020243e-19)
(115.1083931 -4.008889657 -1.24377341e-21)
(114.1055484 -4.295176533 -5.012517617e-19)
(113.5524764 -3.582469957 4.819244529e-19)
(109.3033671 -2.141171611 -5.079412911e-19)
(109.7569394 -2.593714696 -2.485852531e-18)
(109.1528873 -2.776780122 1.535966094e-19)
(108.7437959 -2.347143604 -1.621733372e-18)
(106.311759 -1.79808582 7.653047718e-19)
(106.0052509 -1.529974992 -7.015201003e-19)
(105.9199603 -1.929083934 -4.256006517e-20)
(105.6607394 -1.673807155 -6.387808956e-19)
(103.6629682 -1.19677802 2.093600794e-20)
(104.0447653 -1.535087689 2.095858317e-20)
(103.504328 -1.696931647 5.935273891e-20)
(103.2567563 -1.364413948 1.384981413e-21)
(102.3889548 -0.9629478315 0)
(102.6223367 -1.208770915 -2.021374417e-20)
(102.2574007 -1.303989527 0)
(102.0989144 -1.068690364 0)
(100.9012373 -0.7796836929 -2.840543506e-21)
(100.9944433 -1.112513726 -7.457147212e-21)
(101.5295252 -1.16288937 2.250310996e-21)
(101.6293061 -0.9636580362 -3.67767691e-22)
(100.4727907 -0.5135393749 -2.054793538e-21)
(100.4740868 -0.775861202 -1.628578517e-21)
(100.2350683 -0.2558449937 2.555904759e-22)
(100.165317 -0.4579965183 -1.397695695e-21)
(100.0115736 -0.1514902733 2.421470874e-22)
(126.2317902 -20.59631666 -1.709873352e-18)
(126.3869997 -19.53872687 -8.805811438e-19)
(125.1313314 -20.21065046 1.573871313e-18)
(125.2677729 -19.25426581 7.422121662e-19)
(118.6327513 -12.59707061 5.720611462e-19)
(118.4177885 -11.25459132 2.55782975e-18)
(117.1372699 -12.3028114 6.800494203e-19)
(117.0375008 -11.16896676 1.218659251e-18)
(112.5456293 -7.00549305 -1.648796709e-20)
(112.8499154 -7.845316678 6.835384679e-19)
(111.8609864 -7.731837742 9.016100856e-19)
(111.646562 -6.998417099 2.469928012e-19)
(108.313453 -4.497259394 -9.812639101e-20)
(108.5784112 -5.022825832 -6.8388535e-20)
(107.9305887 -4.992603776 9.958870003e-20)
(107.7254856 -4.522734811 -1.164296462e-18)
(105.6108908 -3.384028154 1.719334534e-18)
(105.4175171 -3.059430321 3.061774355e-19)
(105.1846633 -3.398488305 -3.522254398e-22)
(105.0290004 -3.103348348 -2.54623884e-20)
(103.2571308 -2.173688214 3.84664163e-20)
(103.5120297 -2.587131976 5.247317414e-21)
(102.9302158 -2.611607328 -1.909979318e-20)
(102.7934174 -2.23730711 1.922182251e-20)
(102.0615422 -1.632821213 -1.367661197e-20)
(102.2118987 -1.934393744 5.868027049e-21)
(101.8127037 -1.940212097 -5.715953421e-22)
(101.7300969 -1.668365323 -1.41952582e-20)
(100.5741694 -1.102146118 -6.299693901e-21)
(100.5759005 -1.476527797 -1.104613085e-21)
(101.1179098 -1.638921151 -1.882702596e-21)
(101.2812006 -1.452988522 -5.437229435e-21)
(100.1715955 -0.7135799595 -1.170370401e-21)
(100.1076428 -1.012736703 5.225716091e-22)
(99.94534036 -0.3513058777 -1.417504676e-21)
(99.82364271 -0.5923675009 4.230093826e-22)
(99.68020163 -0.1953837846 2.421508026e-22)
(116.1664937 -23.43006091 -2.164381711e-18)
(116.5914589 -22.7243231 -1.056243649e-18)
(115.4207585 -22.79761959 -1.510715329e-18)
(115.8387994 -22.17779852 -6.721501391e-20)
(112.7956488 -15.35892755 8.023388698e-21)
(113.056958 -14.33396739 5.232863415e-19)
(111.6958417 -14.66755417 5.448429678e-21)
(111.9653994 -13.81694654 6.528144659e-19)
(109.5377164 -9.331931638 -3.678209267e-19)
(109.5274155 -10.05893702 3.258109667e-21)
(108.7192386 -9.675738931 1.292811405e-19)
(108.7540095 -9.059604861 -3.099207142e-19)
(106.5660291 -6.178590684 -6.978913378e-21)
(106.6405378 -6.665866172 -1.601718782e-20)
(106.0639584 -6.469032705 -5.670712486e-20)
(106.0182714 -6.043191401 2.997831715e-20)
(104.4044262 -4.587764866 -6.189868497e-19)
(104.3248699 -4.266513897 -2.665241327e-22)
(103.9982831 -4.502575458 -2.895201148e-19)
(103.9401276 -4.213589078 -1.532949784e-19)
(102.5366612 -2.997854861 -1.799750413e-20)
(102.6545144 -3.428990878 -3.734421726e-21)
(102.060378 -2.952122646 1.80458359e-20)
(101.5141412 -2.217158209 -3.524583464e-21)
(101.5741788 -2.539843443 3.703983486e-22)
(101.1696008 -2.176963556 -1.872672382e-20)
(100.123606 -1.376749856 4.086905468e-21)
(100.7701582 -1.877511765 -1.763631799e-24)
(99.76855359 -0.8868605948 1.904012128e-21)
(99.5651129 -0.4346184927 1.903796199e-21)
(141.7090624 7.131020485 1.612051683e-18)
(139.9969722 8.200508436 2.775355206e-18)
(141.1426927 9.942711608 3.443174592e-19)
(143.2075299 8.248364129 -1.379327911e-18)
(143.0467051 9.338606294 1.91433233e-18)
(126.409401 25.82117853 -1.924832713e-18)
(128.7119685 27.16114032 1.751536834e-18)
(129.5168935 24.59406739 8.676779472e-19)
(137.7447568 -11.3448052 6.155294838e-19)
(137.2407637 -9.976653906 1.422484338e-18)
(138.831595 -9.503068144 1.515260283e-18)
(139.1294737 -11.49113233 2.092405287e-19)
(139.5307837 -10.77341075 -4.347557745e-18)
(141.9613138 4.38734271 1.938682245e-18)
(143.497774 5.290753842 8.458670053e-19)
(143.4470966 6.360496629 4.159843804e-18)
(127.3771499 -20.9472491 -1.703347513e-18)
(127.5360987 -19.8739373 -8.802563274e-19)
(128.733632 -20.16941523 9.159558697e-19)
(128.3411412 -21.47184863 1.080580686e-18)
(128.7856282 -21.16731661 0)
(136.5863228 -13.03182662 1.421110777e-18)
(137.9255456 -13.25465481 -4.10340994e-18)
(138.3548378 -12.58774437 1.649669126e-18)
(116.9484199 -24.02229822 6.750919814e-19)
(117.3714988 -23.3325644 1.783039495e-18)
(118.2015576 -23.89411304 1.097525114e-18)
(117.7453414 -24.67153272 1.784235831e-18)
(127.1369547 -22.02796608 -2.099925146e-19)
(126.0314219 -21.61961076 -1.702634304e-18)
(116.4700152 -24.750531 -1.108536942e-18)
(115.7109711 -24.08531136 -6.512385535e-19)
(93.08933605 23.7125172 1.889862135e-19)
(91.76361778 25.7785093 -7.055905919e-19)
(124.3155166 24.79545708 -1.688815908e-18)
(123.2075742 26.45904541 -2.991751689e-18)
(125.15026 28.13624561 -1.691524288e-18)
(107.8311045 21.76180241 -9.252675353e-20)
(108.0213272 22.70576603 -4.642450913e-19)
(109.15747 22.64999478 3.094637224e-19)
(152.2989055 27.26901704 -3.7290245e-20)
(151.2052804 27.79729361 3.219698275e-18)
(151.7347366 28.64419123 1.199065245e-18)
(152.8524449 28.38231855 2.419279837e-18)
(131.9031144 43.17047468 -2.062268463e-18)
(130.3064369 45.3258168 0)
(132.6927056 47.35278147 -1.121457701e-18)
(134.3427717 44.53642737 0)
(137.1165276 7.579297151 2.432402334e-18)
(138.0966646 9.111512642 3.57304219e-18)
(125.1114982 3.623197611 2.181502364e-20)
(123.3631531 4.445329141 6.499916221e-19)
(124.136634 6.001118342 4.230419792e-20)
(126.3606236 5.443084628 -2.431464427e-18)
(118.9402501 11.47674642 -1.943426864e-18)
(121.0258815 12.07186541 -3.545994434e-18)
(120.9670033 10.03567906 -2.709612674e-18)
(152.083425 -6.786011133 1.790874416e-20)
(151.7495334 -6.197053481 -3.190794714e-18)
(152.3918157 -6.01971033 -4.35398577e-18)
(152.8357773 -6.580706133 -5.472280965e-18)
(155.612556 7.559041172 -6.021564038e-19)
(155.0386978 7.082741349 -5.811557049e-19)
(156.1412888 6.958698556 -1.606351627e-19)
(155.4758712 6.516115874 6.211870644e-19)
(135.1860509 -9.010958718 2.655812374e-20)
(136.615181 -8.600504691 -9.552541065e-20)
(124.8747899 -5.93633753 0)
(123.9358639 -4.537935084 7.330593536e-19)
(125.4838493 -3.704179648 0)
(126.7862288 -5.219042194 0)
(127.1751003 2.722095937 2.956950564e-18)
(125.6462537 1.147959177 8.125764205e-19)
(137.3574888 -23.44664021 -8.639733817e-19)
(137.5902258 -23.02631572 -2.833391495e-18)
(137.8731311 -23.1698874 -3.485424117e-18)
(137.7401281 -23.56041876 -1.736948431e-18)
(145.2922471 -17.00810962 -1.110517765e-19)
(144.7916853 -17.03591509 8.172726406e-18)
(145.374404 -17.56183391 -2.166773805e-18)
(144.821575 -17.53445385 1.726339762e-19)
(126.4746928 -18.53620014 -8.802746643e-19)
(127.6378203 -18.77463099 -9.191791385e-19)
(120.1767532 -12.73855762 -6.519535335e-19)
(119.9871896 -11.40261958 1.305336112e-18)
(121.5868424 -11.38432975 -1.528668908e-18)
(121.9093976 -12.93750882 -7.539614707e-19)
(125.9052738 -7.527458078 -4.836032824e-19)
(123.984845 -7.974207002 8.368786358e-19)
(123.7835521 -28.85021878 0)
(124.1271196 -28.37236886 6.848989144e-19)
(124.5743955 -28.69264096 7.385759248e-19)
(124.202137 -29.1966532 0)
(130.3032972 -26.9874805 -1.771658149e-18)
(129.7795578 -26.72496482 2.348371319e-18)
(129.4615271 -27.30194397 -1.98960439e-19)
(129.8287154 -27.67085974 7.88245342e-19)
(130.1145065 -27.52936262 -1.332123521e-19)
(104.9158825 -33.57350819 -1.794937548e-19)
(106.8631863 -33.90331143 6.511994063e-19)
(107.7980323 -33.92473318 -6.574112334e-21)
(106.6486421 -33.86817158 3.261602325e-19)
(111.8670621 -28.94535491 -4.147663583e-19)
(112.3787672 -28.66717129 -3.707713427e-19)
(112.5661754 -29.09087372 -3.97878734e-19)
(112.1387883 -29.39189348 -3.773248712e-19)
(117.6761643 -29.48195741 1.623894515e-18)
(117.3084971 -29.09888378 5.30194041e-19)
(117.2687451 -29.87380255 5.296702258e-19)
(116.933901 -29.47985958 4.116892825e-20)
(155.1407583 8.127071811 -1.216640175e-18)
(155.7132836 8.626997382 -2.415070271e-18)
(156.2769627 8.029455786 -3.1247535e-18)
(152.0826403 26.05272588 -5.219125963e-18)
(153.5042431 26.87076138 -3.661695836e-18)
(153.0704338 25.87932832 -3.674186825e-18)
(137.1553963 18.2757709 -2.458102468e-18)
(136.6981851 16.09122609 -2.459890588e-18)
(138.8980433 15.58638727 3.580494017e-19)
(140.0771247 17.40563072 -3.109091e-18)
(139.4513429 18.42752188 1.419400374e-18)
(150.1828902 26.25026968 -2.983563335e-18)
(152.4676972 25.0962961 -3.662902677e-18)
(151.3406437 23.71127799 1.860962489e-18)
(149.5164836 24.34920167 -2.975897682e-18)
(154.5623909 7.652679407 -1.191534608e-18)
(154.0571932 8.209186828 2.412723003e-18)
(154.6455405 8.694898089 -1.210581468e-18)
(145.2489377 -16.507511 -6.272108317e-18)
(145.7532751 -16.46423785 -5.319519311e-18)
(145.8506845 -17.01915346 9.61019074e-20)
(151.4293754 -6.950822572 2.128446904e-18)
(152.4978278 -7.351224978 3.169616345e-18)
(151.748492 -7.540350116 6.526396684e-18)
(140.4908168 -3.10773254 -1.24199191e-20)
(139.7561444 -3.652370881 -4.99971813e-18)
(141.1297366 -3.829456347 -3.333413958e-18)
(140.3349818 -4.223349279 -1.172320573e-18)
(151.1063052 -6.382798367 -1.071219155e-18)
(150.7819181 -7.123376641 -7.848634695e-21)
(150.5819667 -6.580310518 -5.396191441e-18)
(144.7522601 -16.52798767 1.964320196e-18)
(144.7555567 -16.02899498 -2.49247766e-20)
(145.1999223 -15.99533914 -4.1151898e-18)
(154.4762021 6.631565571 -2.387200386e-18)
(153.9920519 7.161604694 2.444593965e-18)
(150.8885007 -5.83937758 -1.127544323e-18)
(151.4116531 -5.628823335 1.086368094e-18)
(140.0692985 -2.269124907 6.083633647e-18)
(140.8335745 -1.981843589 2.228068067e-18)
(141.4076292 -2.639010062 3.354175444e-18)
(130.613814 -26.39956341 -1.56979988e-18)
(131.1518763 -26.64898999 -4.354987575e-19)
(130.6844868 -27.35961847 -7.902625348e-20)
(130.9729366 -27.20790269 -2.016331456e-18)
(136.9514261 -23.35047129 1.151321431e-18)
(137.2433007 -23.83127452 -1.366308251e-20)
(136.9010549 -23.71926392 -8.459587853e-19)
(132.7670761 -17.19727795 5.64688901e-20)
(131.4171141 -17.10965662 6.911615833e-19)
(131.4304924 -18.30583831 6.96912274e-19)
(132.509316 -18.76150762 1.013973157e-18)
(132.9911827 -18.30488709 -2.700310792e-18)
(137.0653833 -22.6625964 -7.844313456e-19)
(136.6281274 -23.58068489 -2.272762901e-18)
(136.135933 -23.2192704 -4.909406296e-19)
(136.3727031 -22.49750788 0)
(130.092603 -26.13387144 2.543306533e-18)
(130.3553348 -25.53467957 -8.449082564e-19)
(130.9208938 -25.79789383 0)
(144.30212 -17.04546924 7.974403581e-18)
(144.3128693 -16.55267671 -1.989566299e-18)
(137.9114052 -22.78151192 -2.867374202e-18)
(137.2903532 -21.92244646 -7.800194764e-19)
(138.099339 -22.24922181 -1.686849334e-18)
(137.9152363 -21.88218078 -1.661056573e-18)
(132.681433 -15.95572814 1.349286373e-18)
(134.0827784 -15.95401838 -1.876178275e-18)
(133.9096519 -17.60946953 1.527336416e-18)
(134.3884139 -17.1008471 -1.08010361e-18)
(118.0459793 -29.09058071 1.738483746e-20)
(118.4227395 -29.46586174 5.43188546e-19)
(118.0204782 -29.86950704 5.467829716e-19)
(123.3459749 -28.52579885 -6.845208098e-19)
(123.4071333 -29.34393776 0)
(122.9980352 -28.98949477 0)
(103.446406 -33.3535257 -8.498489666e-19)
(105.3019717 -33.6705545 -2.941087213e-20)
(101.1838188 -32.8970886 -6.595981085e-19)
(102.5919792 -33.15505711 -1.733205028e-19)
(100.3777462 -32.55288115 -3.2376105e-19)
(111.4313464 -29.20959009 3.549473046e-19)
(107.7615398 -33.89976419 3.340575483e-19)
(159.7073434 52.17354301 -1.320028535e-17)
(158.3882575 53.60077111 -5.346958763e-19)
(158.250835 55.30297129 5.155879974e-18)
(160.1199112 55.93753045 1.204503578e-17)
(132.3632173 67.18672057 -9.433204629e-19)
(129.8363118 69.37697804 0)
(132.5065038 72.80487494 -2.164142354e-18)
(135.2415045 69.56453337 0)
(121.1873004 -30.16076769 4.273163444e-18)
(123.1669724 -30.39764757 7.896250933e-18)
(121.173405 -30.01091793 4.8725899e-18)
(113.1996258 -28.29141388 -1.054606581e-18)
(116.9853898 -22.07089498 -5.503605031e-19)
(117.7703204 -22.59057032 -1.171112184e-18)
(113.987489 -15.95391063 2.166099131e-20)
(114.2662107 -14.95398117 5.438717272e-19)
(115.5597475 -15.46031675 -1.702603864e-18)
(115.2777963 -16.67939529 5.711523435e-19)
(120.3129846 -14.22703073 -5.961413683e-19)
(118.6778581 -13.86443248 -6.519517114e-19)
(101.4950349 -32.02016653 1.599196569e-18)
(104.2247737 -32.65461613 1.871221035e-18)
(101.2732364 -31.85881513 3.583671797e-18)
(93.34958286 -29.61253783 -1.413035215e-18)
(114.0086961 -32.51663304 -9.316258183e-19)
(114.5261889 -32.13364486 0)
(114.7881191 -32.5865297 1.144502051e-18)
(114.0815931 -32.89802827 0)
(114.3307159 -32.9658502 5.43537715e-19)
(117.2140668 -32.50744044 -9.122646546e-19)
(117.0147311 -32.29925598 -2.506400032e-18)
(116.9464389 -32.67262729 1.169072936e-20)
(116.8530882 -32.50462859 8.693365972e-19)
(129.7841854 41.44761925 -1.263716903e-18)
(133.2296807 40.74007558 -1.191683821e-20)
(131.1258276 39.58135244 -1.889719251e-18)
(150.6760982 28.74614856 -1.618956378e-18)
(148.2281496 26.75416189 0)
(148.7490089 28.77851221 0)
(134.8452109 18.50684095 2.05497015e-18)
(135.0077884 20.73307949 0)
(138.0909401 20.30687722 0)
(137.2626243 21.20658943 0)