/*--------------------------------*- C++ -*----------------------------------*\
| =========                 |                                                 |
| \\      /  F ield         | OpenFOAM: The Open Source CFD Toolbox           |
|  \\    /   O peration     | Version:  v2012                                 |
|   \\  /    A nd           | Website:  www.openfoam.com                      |
|    \\/     M anipulation  |                                                 |
\*---------------------------------------------------------------------------*/
FoamFile
{
    version     2.0;
    format      ascii;
    class       volVectorField;
    location    "3.05";
    object      U;
}
// * * * * * * * * * * * * * * * * * * * * * * * * * * * * * * * * * * * * * //

dimensions      [0 1 -1 0 0 0 0];


internalField   nonuniform List<vector> 
3019
(
(103.5961912 -28.93611882 -6.100830465e-19)
(107.3222787 -18.58575093 6.995685728e-19)
(107.1265387 -13.10501449 1.372464129e-18)
(106.0105159 -9.586341891 3.453169789e-19)
(104.7510681 -7.140389388 -6.984667504e-19)
(103.4277338 -5.272129302 -2.880893861e-19)
(101.9056153 -3.754652873 -6.798829178e-20)
(101.0663715 -2.755252444 0)
(100.1692949 -1.88045767 0)
(99.76557223 -1.268749242 1.197318395e-20)
(99.50875252 -0.738527028 2.210126943e-21)
(99.37638811 -0.2431190333 -7.149028424e-21)
(96.84043658 -18.69667518 -2.900821079e-19)
(102.3707899 -15.26287289 -2.785825841e-19)
(103.4534948 -11.96924349 7.291176044e-19)
(103.3001904 -9.37484975 -7.576249928e-19)
(102.7163491 -7.300404759 1.781529555e-20)
(101.8744834 -5.545737014 4.469843339e-20)
(100.812132 -4.023661758 -9.32477594e-20)
(100.2153494 -2.999131239 -3.515044811e-20)
(99.52301808 -2.043521408 -1.946535893e-20)
(99.20359373 -1.384521843 1.912657163e-20)
(98.99485498 -0.808990613 0)
(98.88613872 -0.2663297598 1.912342354e-20)
(98.34914764 -12.0798819 2.39127547e-19)
(100.3535879 -11.72266685 2.207028242e-19)
(101.144399 -10.18732229 0)
(101.2542625 -8.52414581 3.635318067e-19)
(100.9951972 -6.937736077 0)
(100.4781017 -5.45736475 -2.440000288e-20)
(99.75585574 -4.058830074 0)
(99.3682025 -3.088321558 0)
(98.85407929 -2.108138146 -3.595542591e-20)
(98.6106282 -1.441227676 1.774214398e-20)
(98.44826746 -0.8452942356 7.444942081e-22)
(98.3624654 -0.2783343663 -1.315416217e-20)
(99.17126628 -9.251175344 -8.716799464e-20)
(99.66097651 -9.226910059 0)
(99.86754285 -8.516514619 -6.877758705e-19)
(99.84947651 -7.486008939 -2.556435942e-19)
(99.65604825 -6.312827606 2.244213904e-19)
(99.30505653 -5.131525875 0)
(98.80749203 -3.923749316 -2.970748294e-20)
(98.575092 -3.053112008 4.564098695e-20)
(98.19414633 -2.094930134 1.113211717e-20)
(98.01457678 -1.446998823 1.902534427e-20)
(97.89208175 -0.8513443862 -2.160234085e-20)
(97.82604506 -0.2803919384 0)
(99.65993385 -7.452651783 0)
(99.43722223 -7.50638006 -1.097938574e-21)
(99.17529079 -7.138720344 2.915991207e-20)
(98.92522321 -6.469353208 -5.046193322e-20)
(98.65170634 -5.607879158 0)
(98.35829382 -4.696687403 0)
(97.99382885 -3.690720588 0)
(97.85094092 -2.926062426 0)
(97.5672257 -2.02336059 3.828556454e-20)
(97.43686452 -1.412191456 -3.580518922e-20)
(97.34504878 -0.8327126851 -2.428926408e-21)
(97.29437258 -0.2746987474 2.436972611e-21)
(99.93493163 -6.208228984 -3.360347523e-20)
(99.37731048 -6.256532415 2.365833683e-20)
(98.77068859 -6.03073715 7.490298723e-20)
(98.29097731 -5.560409956 0)
(97.90893944 -4.925218052 0)
(97.60916653 -4.227231957 0)
(97.30249206 -3.397845785 0)
(97.20488366 -2.737473159 0)
(96.98598467 -1.909929107 0)
(96.89020929 -1.345737095 0)
(96.82077659 -0.7963845621 0)
(96.78122446 -0.2638348905 0)
(100.1012136 -5.286247228 1.980150513e-20)
(99.33815769 -5.301290295 1.727722944e-22)
(98.48715797 -5.131427358 0)
(97.83204063 -4.784904112 0)
(97.35174625 -4.311514349 0)
(97.01447388 -3.766600302 0)
(96.72322152 -3.082440568 0)
(96.63954764 -2.518842168 0)
(96.45707121 -1.773037321 0)
(96.38256288 -1.259698633 0)
(96.32720429 -0.7476025939 0)
(96.29593606 -0.2483349525 0)
(100.2161966 -4.55211678 0)
(99.27747981 -4.543710195 0)
(98.26891866 -4.404293626 0)
(97.4888585 -4.139067608 0)
(96.92233454 -3.773628441 0)
(96.53672138 -3.340101819 0)
(96.23726995 -2.771398698 0)
(96.14833345 -2.291208762 0)
(95.98187148 -1.626031086 0)
(95.91798122 -1.163470702 0)
(95.86999312 -0.692172303 0)
(95.84362872 -0.2304252799 0)
(100.2722805 -3.961697773 -5.446017627e-35)
(99.21263643 -3.932275828 0)
(98.09469204 -3.811442251 0)
(97.22118507 -3.598755645 0)
(96.58248581 -3.307447935 0)
(96.14880833 -2.956139518 0)
(95.82683696 -2.479141206 0)
(95.72216381 -2.068104541 0)
(95.55803107 -1.478146729 0)
(95.49684637 -1.064028582 0)
(95.45118597 -0.6342903743 0)
(95.42725734 -0.2116117657 0)
(100.2945305 -3.472037107 0)
(99.14620033 -3.428814298 0)
(97.9490586 -3.320685718 0)
(97.00477405 -3.143880486 0)
(96.306737 -2.905151034 0)
(95.82860151 -2.614944639 0)
(95.47829618 -2.211216921 0)
(95.35197385 -1.857448876 0)
(95.18138232 -1.335573456 0)
(95.11747179 -0.9662481767 0)
(95.07062176 -0.5769400283 0)
(95.04728558 -0.1928944006 0)
(100.2937919 -3.060217748 -6.98100719e-35)
(99.07941003 -3.008554207 0)
(97.82335339 -2.90984658 0)
(96.82465037 -2.758787986 0)
(96.0780465 -2.558575499 0)
(95.56021069 -2.314670327 0)
(95.1801276 -1.969806544 0)
(95.02945236 -1.663489768 0)
(94.84713899 -1.202139945 0)
(94.77703197 -0.8733028624 0)
(94.72669926 -0.522110697 0)
(94.70265771 -0.1749344617 0)
(100.2772061 -2.710676986 0)
(99.01309596 -2.654319102 0)
(97.71235431 -2.563105969 0)
(96.67119316 -2.431343685 0)
(95.88479449 -2.260211717 0)
(95.3320985 -2.052133997 0)
(94.92293979 -1.754957039 0)
(94.7473193 -1.488053316 0)
(94.55047137 -1.079929275 0)
(94.47212879 -0.7871009357 0)
(94.41692741 -0.471039807 0)
(94.39131256 -0.1581468923 0)
(100.2495622 -2.412247383 2.316909202e-35)
(98.94790171 -2.353841039 0)
(97.61275302 -2.268928856 0)
(96.53802732 -2.152166807 0)
(95.71889967 -2.003579686 0)
(95.135856 -1.823751234 0)
(94.69931586 -1.565550331 0)
(94.49937217 -1.33148837 0)
(94.2867661 -0.9698380887 0)
(94.19915199 -0.708654608 0)
(94.13834817 -0.4244191633 0)
(94.11061551 -0.1427693541 0)
(100.2146416 -2.157019108 0)
(98.88426495 -2.098139991 0)
(97.52230698 -2.018657437 0)
(96.42073698 -1.913881643 0)
(95.57454711 -1.78315677 0)
(94.96517272 -1.625955134 0)
(94.50334245 -1.399881969 0)
(94.28034522 -1.193268231 0)
(94.05175522 -0.8719988643 0)
(93.95450709 -0.6383587421 0)
(93.88781826 -0.3825549435 0)
(93.85765859 -0.1289139285 0)
(100.1750303 -1.939141519 0)
(98.82236868 -1.88050315 0)
(97.43938967 -1.805704583 0)
(96.31614987 -1.710678352 0)
(95.44745257 -1.594334102 0)
(94.81523841 -1.455469298 0)
(94.33029926 -1.256061087 0)
(94.08581049 -1.072425799 0)
(93.84155493 -0.7860858843 0)
(93.7347367 -0.5762041795 0)
(93.66217184 -0.3454927683 0)
(93.6294385 -0.1166067914 0)
(100.1322201 -1.753847249 0)
(98.76219777 -1.695675558 0)
(97.36272285 -1.624896579 0)
(96.22186545 -1.537882948 0)
(95.33433332 -1.433238529 0)
(94.68226581 -1.309348262 0)
(94.17630439 -1.13216455 0)
(93.91196346 -0.9677636823 0)
(93.65265056 -0.7115119052 0)
(93.53657612 -0.5219329466 0)
(93.45831597 -0.3131145924 0)
(93.42296763 -0.1058192918 0)
(100.0872197 -1.597074902 0)
(98.70365182 -1.539473117 0)
(97.29127837 -1.472135034 0)
(96.13601637 -1.39173848 0)
(95.23261942 -1.296660348 0)
(94.56322741 -1.185033279 0)
(94.03814925 -1.026391975 0)
(93.7555462 -0.8780440852 0)
(93.48190033 -0.6475873326 0)
(93.35701129 -0.4751590047 0)
(93.27332555 -0.285214569 0)
(93.23538597 -0.09649277584 0)
(100.0409222 -1.465460148 0)
(98.64660859 -1.408513527 0)
(97.22419781 -1.344113427 0)
(96.05708771 -1.269182188 0)
(95.14022019 -1.181924875 0)
(94.4556108 -1.080306396 0)
(93.91313056 -0.9371171546 0)
(93.61372518 -0.8020832724 0)
(93.32642812 -0.5935892134 0)
(93.19321736 -0.4354406667 0)
(93.10440524 -0.2615439131 0)
(93.06392868 -0.08855246835 0)
(99.99400792 -1.356362527 -3.521101541e-36)
(98.59093018 -1.300088678 0)
(97.16075074 -1.23817206 0)
(95.98382441 -1.167729677 0)
(95.05540726 -1.086841043 0)
(94.35725425 -0.993409855 0)
(93.79892763 -0.8629877348 0)
(93.48400212 -0.7387892351 0)
(93.18379468 -0.5488777289 0)
(93.04274999 -0.4023322085 0)
(92.94911171 -0.2418548653 0)
(92.9061793 -0.08192484627 0)
(99.94693792 -1.267660377 0)
(98.53646212 -1.212039268 0)
(97.10030114 -1.152183785 0)
(95.9151651 -1.085374435 0)
(94.97675631 -1.009610139 0)
(94.26657721 -0.9230107921 0)
(93.69334044 -0.8029665353 0)
(93.36414749 -0.687251248 0)
(93.05119504 -0.5127211443 0)
(92.9027667 -0.3754162526 0)
(92.80453959 -0.2258899758 0)
(92.75918205 -0.07652440836 0)
(99.90003028 -1.197644061 0)
(98.48303187 -1.142644158 0)
(97.04226491 -1.084448548 0)
(95.85016021 -1.020492064 0)
(94.90298948 -0.9487052758 0)
(94.18211376 -0.8672752083 0)
(93.59454055 -0.755757087 0)
(93.25204075 -0.6463930263 0)
(92.92829199 -0.4850724423 0)
(92.77293711 -0.3543395047 0)
(92.67039517 -0.2135157285 0)
(92.6227863 -0.07233119826 0)
(99.85350712 -1.145020048 0)
(98.43045973 -1.090586364 0)
(96.98610144 -1.033655171 0)
(95.78794544 -0.9718259013 0)
(94.83289645 -0.9029716552 0)
(94.1019643 -0.8251668025 0)
(93.5011989 -0.720313381 0)
(93.1460012 -0.6163394459 0)
(92.80678014 -0.4633914372 0)
(92.64398603 -0.3386969359 0)
(92.53702937 -0.2043305113 0)
(92.48680541 -0.06914670614 0)
(99.80747733 -1.108857235 0)
(98.37853355 -1.054885534 0)
(96.93128541 -0.9988158169 0)
(95.72772146 -0.9384302358 0)
(94.76542358 -0.8715696592 0)
(94.02503172 -0.7962102569 0)
(93.41186869 -0.6961981201 0)
(93.0447633 -0.5960838216 0)
(92.71032208 -0.4529477557 0)
(92.54300432 -0.3292431464 0)
(92.43273211 -0.1990594941 0)
(92.38099037 -0.0674417656 0)
(99.76201148 -1.088523293 0)
(98.32708355 -1.034855705 0)
(96.87735303 -0.9792315946 0)
(95.66878653 -0.9196278895 0)
(94.69965185 -0.8538810443 0)
(93.95015555 -0.7800076669 0)
(93.32905728 -0.6832265022 0)
(92.95194668 -0.5854214252 0)
(92.53316361 -0.4397232846 0)
(92.35292605 -0.3218433064 0)
(92.23623445 -0.1945912367 0)
(92.18108142 -0.06556033196 0)
(103.4246224 -29.70355662 5.400121559e-19)
(104.2929789 -29.30659658 4.786952519e-19)
(108.4146981 -20.46103356 -2.940741221e-19)
(95.53750636 -19.79159173 9.34464923e-20)
(103.0759286 -29.57219352 1.026923758e-20)
(96.99389657 -20.04793164 -1.563121141e-20)
(102.6350208 -17.34504411 -1.532902919e-19)
(107.4725572 -20.22681811 -2.746539494e-19)
(97.26007665 -12.45648573 0)
(95.53725357 -19.03934788 -1.728067975e-19)
(107.4754939 -25.02190648 -4.213504831e-19)
(97.70323769 -25.16022323 2.483917244e-20)
(98.21829857 -25.85425788 -4.67667196e-20)
(99.19414691 -25.34731366 4.021485811e-20)
(103.1303278 -22.38985978 5.729091831e-19)
(106.2798225 -24.47614532 -1.155286451e-19)
(105.5744772 -30.71238905 -2.574332816e-19)
(100.6351346 -28.23445218 5.906110066e-20)
(105.8002213 -30.80974772 -2.775585768e-19)
(106.6206673 -30.54251651 2.606486098e-19)
(108.7895467 -28.25617616 2.193145624e-20)
(99.98513935 -27.70807192 3.229982907e-19)
(98.06344692 -13.09734496 -1.446513978e-19)
(100.20505 -12.87499246 -1.068254855e-19)
(101.6988783 -16.14979017 4.138588037e-20)
(106.0576134 -27.24005939 -9.41219654e-19)
(108.0902926 -28.04095307 3.086600999e-19)
(106.3177363 -30.43499423 2.508827992e-19)
(100.3470852 -18.85625949 2.714968672e-19)
(102.2735117 -21.54761265 -1.986527668e-19)
(98.68027042 -24.70616901 1.132787422e-19)
(96.08140556 -15.21260399 0)
(95.15050347 -29.16767803 -2.378887302e-17)
(106.4005259 -30.96012773 0)
(91.81066628 -23.52021329 0)
(96.45987469 -22.92790982 0)
(97.65734667 -30.00382193 1.35345124e-19)
(99.50689961 -30.44118945 2.249756317e-19)
(104.7170521 -30.35406783 2.147455577e-19)
(95.06696378 -29.56508472 0)
(92.97879957 -29.07086471 3.879086448e-20)
(97.23547393 -30.06172869 0)
(95.53711851 -29.72175199 4.38732848e-19)
(84.4345348 -27.41500088 2.024044666e-18)
(98.14846022 -29.86483353 1.38657082e-19)
(97.65292599 -30.12763651 4.877212661e-19)
(97.66777487 -29.05928147 2.573398882e-19)
(98.1153779 -29.70954645 -1.155547975e-19)
(85.64592916 -27.53793434 -1.875750533e-18)
(92.13895895 -28.86519248 -2.1539855e-18)
(106.3529312 -30.95853508 -1.176571752e-18)
(95.70723259 -29.37399709 3.60534879e-18)
(96.31208663 -29.65908687 0)
(108.5413783 -19.52943786 -6.410762081e-19)
(108.5637967 -14.39185767 -7.456740559e-19)
(104.3979514 -30.25667061 -2.146830318e-19)
(99.76845821 -30.52367777 -2.217312394e-19)
(100.1792625 -30.3549245 3.59621878e-19)
(102.9669647 -30.39828695 3.587841979e-19)
(106.364362 -30.93322301 -9.899088032e-19)
(107.7703752 -30.83174237 0)
(109.2779812 -29.84125557 -1.167610773e-18)
(87.42194918 -28.08137425 9.924865202e-19)
(86.58316871 -27.92299971 -1.499356747e-18)
(83.95941335 -27.30076967 0)
(88.45702967 -28.22273296 -3.080277216e-20)
(87.16140458 -28.03883914 3.50962997e-19)
(96.77524522 -27.86818951 0)
(97.44406318 -28.84163957 -1.767444869e-20)
(98.37932232 -29.45565389 1.783253581e-18)
(99.12528877 -29.81495669 -1.30100378e-19)
(97.97236242 -29.545579 -1.31859647e-18)
(93.887046 -29.26649992 0)
(89.73075897 -28.43554271 0)
(90.30157106 -28.59092294 0)
(92.72151742 -29.08616788 8.08361284e-19)
(96.59546404 -29.94843276 5.573980864e-19)
(91.04245862 -28.79700472 8.046339182e-20)
(92.51171475 -29.13807142 -9.52208428e-20)
(90.20128346 -28.57062245 2.061878232e-18)
(89.71986074 -28.56291777 1.61820583e-18)
(95.95944165 -29.89116967 -1.198338573e-18)
(90.80900518 -28.81176944 1.283733108e-19)
(89.92567549 -28.55317061 3.880456877e-20)
(84.74021767 -27.46319926 0)
(86.87607381 -27.76662309 -4.730562986e-19)
(92.12906227 -28.8899134 4.32812416e-19)
(91.53050965 -28.83757266 1.038675238e-19)
(95.56498746 -29.40358392 0)
(100.5210626 -30.36371665 -3.128561318e-19)
(100.1758155 -30.16817784 -3.441579573e-19)
(101.348927 -30.61849871 2.588484351e-19)
(100.8341968 -30.5524717 0)
(95.06843176 -29.42348442 2.237961388e-18)
(108.2356023 -13.16083383 7.534650117e-19)
(107.1401796 -10.26117012 2.028848926e-19)
(106.76845 -9.484947451 1.735567985e-19)
(105.6566642 -7.543937214 7.412889869e-19)
(105.2897514 -6.993287363 -2.48645375e-20)
(104.1880347 -5.548750915 -3.117279692e-19)
(101.5577411 -27.64033858 -2.788130405e-19)
(103.5333841 -25.72547994 -3.462380751e-19)
(105.4011429 -26.90643158 0)
(103.2957656 -16.2145969 0)
(104.1958549 -13.20690102 -6.535731456e-19)
(107.333168 -14.24901217 -3.122849017e-19)
(104.2385768 -12.34764851 1.24211663e-18)
(104.0504939 -10.14556865 0)
(106.3143737 -10.33563495 -1.271188256e-18)
(103.9202411 -9.50756415 2.942567989e-19)
(103.4086086 -7.825724637 6.035607865e-19)
(105.07161 -7.686168654 -6.779745155e-19)
(103.2035041 -7.321033144 -8.191672489e-19)
(102.5069234 -5.937507963 2.571389191e-19)
(103.7650141 -5.695260509 3.08375289e-19)
(97.1224898 -15.45102949 0)
(99.1979026 -15.50914518 -2.391374698e-20)
(99.94412602 -17.94493314 2.725830654e-20)
(100.6715294 -12.51067437 -5.037365673e-20)
(101.4866496 -11.1272309 3.229485969e-19)
(103.3659497 -12.72914794 -6.13010216e-19)
(101.6064875 -10.63847039 -4.027605207e-20)
(101.7242671 -9.224511687 -3.886532361e-19)
(103.3910427 -9.965688026 5.125718119e-19)
(101.7019912 -8.771554648 1.011854326e-21)
(101.4968639 -7.478702192 -4.249252172e-19)
(102.8883084 -7.785200466 3.939215781e-20)
(101.3887366 -7.062346261 2.032694928e-19)
(100.9702932 -5.878788357 -4.877404368e-20)
(102.1033677 -5.957722467 -2.712989185e-21)
(98.50117156 -9.35642848 -2.529045715e-20)
(97.37208926 -11.44808993 -2.204114197e-19)
(99.0069605 -9.82499219 1.352359329e-19)
(99.61589642 -9.869245591 8.972129254e-20)
(99.97607597 -11.98936548 -8.577374176e-20)
(99.7714309 -9.76318693 1.07748873e-19)
(100.0701659 -9.165731452 0)
(101.0342027 -10.60512581 -5.573515569e-20)
(100.116416 -8.909665983 -4.194835139e-19)
(100.1608273 -8.053271109 -1.258466229e-19)
(101.267803 -8.934865893 -1.658431339e-19)
(100.1488733 -7.74672752 -1.071171777e-20)
(100.0250465 -6.801159104 1.596565378e-19)
(101.087606 -7.327701722 -1.910744846e-19)
(99.95618735 -6.480926289 -1.521420325e-19)
(99.67756756 -5.526848072 0)
(100.6220615 -5.809976498 0)
(99.03845571 -7.517720912 2.200045606e-19)
(98.72227686 -8.824438522 1.162680347e-19)
(99.55788966 -7.84230224 -1.735840946e-19)
(99.50469109 -7.910741066 -5.301583951e-20)
(99.56284088 -9.304260233 -8.121143734e-21)
(99.46985811 -7.882913246 3.566303845e-20)
(99.35718629 -7.598474523 0)
(99.84413174 -8.736099431 3.199114042e-19)
(99.31245708 -7.455376137 2.614160866e-19)
(99.17330939 -6.921361993 0)
(99.86993214 -7.761588149 3.538626912e-19)
(99.12284501 -6.714803894 -1.100057484e-19)
(98.94535791 -6.030792126 0)
(99.72216669 -6.612809682 1.400855574e-19)
(98.87526449 -5.786143072 0)
(98.64874729 -5.047598053 0)
(99.39683113 -5.413704371 0)
(99.12143977 -6.255242275 1.152389978e-19)
(99.07628113 -7.159100375 -4.759081155e-20)
(99.88247014 -6.478937084 -2.085740168e-20)
(99.53447782 -6.545757321 -2.439641283e-20)
(99.50576366 -7.526307137 0)
(99.38615347 -6.536366025 5.255669971e-20)
(98.97947835 -6.37580095 -9.395283918e-21)
(99.2413008 -7.264465105 -1.691391323e-19)
(98.85577339 -6.285994519 -2.234708271e-20)
(98.52816207 -5.924264772 -8.125278259e-20)
(98.98739763 -6.658373762 2.011905227e-19)
(98.43032451 -5.77626164 0)
(98.15833085 -5.271201508 0)
(98.72474567 -5.83539394 6.491510487e-21)
(98.07440258 -5.090073283 0)
(97.84640092 -4.530854181 0)
(98.42912942 -4.919323783 0)
(99.3281014 -5.354511758 5.745848725e-21)
(99.1481543 -6.001918066 -5.129925201e-20)
(100.0636832 -5.49803249 -4.141253282e-20)
(99.57351508 -5.524364562 2.055736219e-21)
(99.5470256 -6.265090666 2.396112877e-20)
(99.3504321 -5.519366414 7.279364206e-21)
(98.7359596 -5.404059131 1.543661498e-20)
(98.9113675 -6.11248917 -8.536529097e-21)
(98.55140145 -5.339097396 -6.472746126e-21)
(98.07116125 -5.074140355 0)
(98.40012945 -5.697636965 -1.975922984e-20)
(97.93389645 -4.965655212 0)
(97.57873353 -4.593838477 0)
(97.99701723 -5.093360924 0)
(97.47721269 -4.457852546 0)
(97.22043342 -4.027165868 0)
(97.67541109 -4.401974593 0)
(99.69460899 -4.651374874 0)
(99.41335243 -5.167536458 -1.841970527e-21)
(100.1940696 -4.719516627 0)
(99.56366136 -4.726681479 0)
(99.57487491 -5.307090761 -2.057899648e-23)
(99.29323867 -4.717479466 0)
(98.54283582 -4.622085148 0)
(98.68316171 -5.192104094 0)
(98.31852905 -4.571942081 0)
(97.733357 -4.371640046 0)
(97.97745609 -4.885568482 0)
(97.56634179 -4.289746505 0)
(97.13954305 -4.006226084 0)
(97.457842 -4.438674774 0)
(97.02006088 -3.901111445 0)
(96.72497562 -3.562369974 0)
(97.08585046 -3.906257762 0)
(99.94912982 -4.05129823 0)
(99.77304307 -4.491459183 0)
(100.2619298 -4.09870506 0)
(99.53096156 -4.086486028 0)
(99.55688708 -4.553936401 0)
(99.22905734 -4.073816506 0)
(98.38738985 -3.98999419 0)
(98.50111406 -4.451730424 0)
(98.13511711 -3.94903023 0)
(97.47269017 -3.789666026 0)
(97.66221764 -4.215942364 0)
(97.28254834 -3.725118435 0)
(96.79634559 -3.501224719 0)
(97.04607823 -3.872626039 0)
(96.66061449 -3.417678461 0)
(96.32678567 -3.145570247 0)
(96.6174035 -3.453157725 0)
(100.0939912 -3.550015405 4.596709776e-35)
(99.99320416 -3.917380466 5.460137924e-35)
(100.2914729 -3.58642393 -4.585224097e-35)
(99.48725513 -3.560517931 0)
(99.52085993 -3.945520787 0)
(99.16288189 -3.546068105 0)
(98.25597485 -3.470042729 0)
(98.35265224 -3.850668053 0)
(97.98333519 -3.435144003 0)
(97.26310806 -3.303212793 0)
(97.41624849 -3.659928707 0)
(97.05500217 -3.250510688 0)
(96.52045842 -3.068299698 0)
(96.72193294 -3.386656996 0)
(96.37070671 -3.000187594 0)
(96.00115616 -2.776960961 0)
(96.23938893 -3.048564463 0)
(100.1767924 -3.129250904 0)
(100.1193247 -3.437975198 0)
(100.295687 -3.156811719 0)
(99.43687146 -3.122142633 0)
(99.47515726 -3.443535813 0)
(99.09609084 -3.106857369 0)
(98.14110118 -3.036603094 0)
(98.22591439 -3.354376791 0)
(97.85323785 -3.006014789 0)
(97.0890202 -2.893494925 0)
(97.21671584 -3.194211577 0)
(96.86687315 -2.849235096 0)
(96.29314037 -2.697182191 0)
(96.4596498 -2.970103854 0)
(96.1315149 -2.640422846 0)
(95.73027435 -2.453852201 0)
(95.92888373 -2.691711211 0)
(100.220854 -2.77362757 -5.980867511e-35)
(100.1908273 -3.034736409 6.997695972e-35)
(100.2825546 -2.792895299 5.966924234e-35)
(99.38256696 -2.753077897 0)
(99.42357872 -3.023964971 0)
(99.0295918 -2.737422452 0)
(98.0384057 -2.671809901 0)
(98.11441259 -2.939542144 0)
(97.73892871 -2.64446808 0)
(96.9406723 -2.546353845 0)
(97.0498131 -2.801313616 0)
(96.70744615 -2.508350234 0)
(96.10187962 -2.37883199 0)
(96.24233361 -2.612969134 0)
(95.93027222 -2.330652792 0)
(95.5013983 -2.172182533 0)
(95.66953355 -2.379409637 0)
(100.23902 -2.471306216 0)
(100.2274296 -2.693470919 0)
(100.2572866 -2.482540971 0)
(99.32622256 -2.440205272 0)
(99.368612 -2.670019357 0)
(98.96406666 -2.424457537 0)
(97.94520059 -2.362837092 0)
(98.01429576 -2.589753395 0)
(97.63672042 -2.338059227 0)
(96.81174333 -2.251074326 0)
(96.90681478 -2.468032163 0)
(96.56968337 -2.217868923 0)
(95.93813954 -2.105679074 0)
(96.05863531 -2.3065738 0)
(95.75815723 -2.064143708 0)
(95.30538225 -1.927657412 0)
(95.44961723 -2.107465721 0)
(100.2404084 -2.212873411 -2.003416152e-35)
(100.2406395 -2.402881813 -2.322158118e-35)
(100.2238893 -2.217117577 1.998955581e-35)
(99.26913271 -2.1739308 0)
(99.31198208 -2.369581119 0)
(98.90001367 -2.158262532 0)
(97.85971142 -2.100179574 0)
(97.92316139 -2.293144809 0)
(97.54415592 -2.077496018 0)
(96.69793677 -1.999379121 0)
(96.78201029 -2.184344086 0)
(96.44875993 -1.969957732 0)
(95.79588771 -1.871417087 0)
(95.90075675 -2.043688416 0)
(95.60886937 -1.835132581 0)
(95.13548381 -1.716145681 0)
(95.26068601 -1.871602922 0)
(100.23101 -1.991735725 0)
(100.2389174 -2.154307961 0)
(100.1852781 -1.990383898 0)
(99.21206993 -1.947147639 0)
(99.25484409 -2.113771737 0)
(98.83767797 -1.931651785 0)
(97.78065942 -1.876690706 0)
(97.8393886 -2.04087595 0)
(97.45948781 -1.855747575 0)
(96.59621035 -1.784840035 0)
(96.67147251 -1.942480777 0)
(96.34124749 -1.758462957 0)
(95.67074998 -1.670869838 0)
(95.76314334 -1.818301429 0)
(95.47780174 -1.638801128 0)
(94.98664435 -1.533930665 0)
(95.09647342 -1.667777197 0)
(100.2139036 -1.802932506 0)
(100.2273676 -1.941672915 0)
(100.1431657 -1.797352364 0)
(99.1554285 -1.754331516 0)
(99.19786067 -1.895947212 0)
(98.77708495 -1.739054337 0)
(97.7070207 -1.686814657 0)
(97.76177798 -1.826259121 0)
(97.38136487 -1.667328142 0)
(96.50428533 -1.602349672 0)
(96.57238651 -1.736387783 0)
(96.24458195 -1.578453397 0)
(95.55942403 -1.499748925 0)
(95.64173428 -1.625480527 0)
(95.36145555 -1.471102026 0)
(94.85494053 -1.377723709 0)
(94.95224801 -1.492381286 0)
(100.1911657 -1.64237275 0)
(100.2086724 -1.760287223 0)
(100.098624 -1.633792152 0)
(99.09938586 -1.591074836 0)
(99.14135572 -1.710894289 0)
(98.71814258 -1.57603783 0)
(97.63794549 -1.526153087 0)
(97.68935229 -1.644057147 0)
(97.30869944 -1.50788914 0)
(96.42038966 -1.447815241 0)
(96.48261716 -1.561232269 0)
(96.15677583 -1.425954478 0)
(95.45934246 -1.354515027 0)
(95.53343463 -1.461133386 0)
(95.25709997 -1.328661609 0)
(94.73726117 -1.244680766 0)
(94.82431269 -1.342235624 0)
(100.1645835 -1.506698109 0)
(100.1848182 -1.606233343 0)
(100.0525763 -1.496159494 0)
(99.04404914 -1.453829569 0)
(99.08548247 -1.554447718 0)
(98.66073552 -1.439044939 0)
(97.57272544 -1.39119233 0)
(97.62130461 -1.490125262 0)
(97.24060044 -1.373954475 0)
(96.3431054 -1.317942341 0)
(96.4004986 -1.413149715 0)
(96.07624331 -1.297754344 0)
(95.36845417 -1.232260335 0)
(95.43583037 -1.32189922 0)
(95.16254662 -1.208688413 0)
(94.63107847 -1.132382844 0)
(94.70972931 -1.214615403 0)
(100.135506 -1.393347468 0)
(100.1575074 -1.476354415 0)
(100.0057659 -1.381648652 0)
(98.98947081 -1.3397426 0)
(99.03033295 -1.423234855 0)
(98.60472961 -1.325207779 0)
(97.51074588 -1.279092423 0)
(97.5569492 -1.361122116 0)
(97.17630743 -1.262710984 0)
(96.27125213 -1.210048622 0)
(96.32467484 -1.289001285 0)
(96.00166922 -1.191230469 0)
(95.28506233 -1.130586663 0)
(95.34696317 -1.204995829 0)
(95.07598082 -1.108872309 0)
(94.53424782 -1.038807747 0)
(94.60607284 -1.107188767 0)
(100.104809 -1.300297367 0)
(100.1279573 -1.368252609 3.528448747e-36)
(99.95870073 -1.288024429 0)
(98.93565215 -1.246542519 0)
(98.97594615 -1.314563025 0)
(98.54997491 -1.232242715 0)
(97.45146934 -1.18758651 0)
(97.49569349 -1.254363613 0)
(97.11516521 -1.171910163 0)
(96.20383614 -1.121976929 0)
(96.25401829 -1.186247373 0)
(95.93195169 -1.104268064 0)
(95.20776469 -1.047543736 0)
(95.26521664 -1.108148211 0)
(94.99591219 -1.027332507 0)
(94.44507462 -0.9623512535 0)
(94.51129587 -1.018063952 0)
(100.0730743 -1.225906412 0)
(100.0969546 -1.280005983 0)
(99.91172776 -1.213473359 0)
(98.8825516 -1.172409207 0)
(98.922312 -1.226283542 0)
(98.49630126 -1.158321866 0)
(97.39439853 -1.11485891 0)
(97.43701367 -1.167705974 0)
(97.05657734 -1.09974834 0)
(96.13997525 -1.051982483 0)
(96.18757039 -1.102843339 0)
(95.86611689 -1.035148715 0)
(95.13533347 -0.9815039959 0)
(95.18924674 -1.029496545 0)
(94.92104112 -0.9624714704 0)
(94.36214203 -0.901468729 0)
(94.42381417 -0.9456845499 0)
(100.0407147 -1.168927417 1.35110598e-35)
(100.0650303 -1.210069906 0)
(99.86509385 -1.156601892 -1.348361052e-35)
(98.83010726 -1.115940444 0)
(98.86938238 -1.156682877 0)
(98.4435334 -1.102034321 0)
(97.33907152 -1.059501582 0)
(97.38042127 -1.099438562 0)
(96.9999957 -1.044824428 0)
(96.0788703 -0.9987031754 0)
(96.12447086 -1.037141512 0)
(95.80328237 -0.9825287522 0)
(95.06662917 -0.93118916 0)
(95.11785095 -0.967492678 0)
(94.85013494 -0.9130320667 0)
(94.28381681 -0.8549438088 0)
(94.34219007 -0.8884733777 0)
(100.0080092 -1.128469784 -4.457824423e-36)
(100.0325635 -1.157292311 0)
(99.81893563 -1.116392731 4.448848613e-36)
(98.77821123 -1.076086594 0)
(98.81708716 -1.104453426 0)
(98.39146687 -1.062318657 0)
(97.2850335 -1.020444814 0)
(97.32545897 -1.048244175 0)
(96.94489064 -1.006072282 0)
(96.01977562 -0.9611024139 0)
(96.06393626 -0.987867113 0)
(95.74263148 -0.9453884321 0)
(95.00062513 -0.8956581746 0)
(95.0499125 -0.9209516686 0)
(94.78209919 -0.8781138354 0)
(94.20883966 -0.8220859894 0)
(94.26480391 -0.845447582 0)
(99.97509509 -1.10393726 0)
(99.99980322 -1.12086241 0)
(99.77325586 -1.092144293 0)
(98.726697 -1.05210495 0)
(98.76530623 -1.068627196 0)
(98.3398574 -1.038422091 0)
(97.23182669 -0.9969236306 0)
(97.2716734 -1.013132291 0)
(96.89074145 -0.9827266955 0)
(95.96199165 -0.9384306382 0)
(96.00523462 -0.9540588157 0)
(95.68340694 -0.9229890601 0)
(94.93639702 -0.8742194055 0)
(94.98443741 -0.8889995433 0)
(94.71595643 -0.8570441566 0)
(94.13607747 -0.8022645456 0)
(94.19048119 -0.8158950138 0)
(99.93805423 -1.09398057 -2.04648927e-37)
(99.96691986 -1.100270397 0)
(99.72267227 -1.082764917 2.043555538e-37)
(98.66928572 -1.043303673 0)
(98.71395351 -1.048525483 0)
(98.28230173 -1.029664707 0)
(97.172658 -0.9881937578 0)
(97.21866618 -0.9934052736 0)
(96.83060777 -0.9740232698 0)
(95.89806054 -0.9299041041 0)
(95.94772147 -0.935029835 0)
(95.61794805 -0.9145512908 0)
(94.86557239 -0.866104193 0)
(94.92055889 -0.8710006195 0)
(94.64306439 -0.8490423025 0)
(94.05599139 -0.7944723351 0)
(94.11813461 -0.7992813575 0)
(103.7465174 -29.93051547 7.47013055e-19)
(103.0704638 -30.22468212 -3.633490878e-19)
(102.7790786 -30.04736 -1.720377926e-19)
(104.9994532 -28.62284204 -9.27325878e-19)
(105.7042377 -28.94694221 -5.138535727e-19)
(104.9945201 -29.64043761 -1.181014778e-19)
(111.4487775 -21.13260174 0)
(111.471216 -24.82415185 3.970730545e-19)
(107.8444692 -23.82452099 -3.184171655e-19)
(96.1662369 -22.12421351 -1.734117814e-19)
(91.79043956 -22.47393507 4.402193718e-19)
(100.1911066 -30.26590635 0)
(99.79192614 -29.79182299 1.278055127e-19)
(101.982588 -29.19184011 8.8860021e-20)
(98.37366962 -19.75105672 0)
(98.84980803 -20.96369337 4.366242433e-20)
(97.1269668 -21.92814882 1.61175891e-19)
(104.3287217 -18.43202713 6.910795843e-19)
(102.9594507 -20.70534041 0)
(101.0470945 -18.35975986 -2.171489304e-19)
(106.7234425 -23.33928008 -1.863667777e-20)
(103.7794763 -21.44771857 3.494821691e-20)
(105.0496733 -18.83917294 -2.109874622e-19)
(96.40629644 -14.37871384 0)
(95.39023664 -17.31247698 -3.283865691e-20)
(108.7192012 -25.48829703 -7.61355316e-19)
(108.449171 -27.34940307 2.882437651e-19)
(106.4598627 -26.56917024 2.239295678e-19)
(109.1295248 -27.5415836 -6.566667976e-19)
(109.7480127 -25.40900377 3.110749481e-19)
(108.2011099 -30.91798003 9.625047181e-19)
(109.1137754 -30.67857464 -3.132178507e-19)
(96.52665873 -25.59353869 1.931808313e-20)
(96.06205721 -24.82197437 -1.721477876e-19)
(97.2338109 -24.44773848 3.210866313e-20)
(98.77451742 -26.51333883 -1.780255555e-19)
(97.57967805 -27.01938382 -1.178068727e-19)
(97.03553294 -26.32393364 -2.527544108e-20)
(101.2920981 -23.82963695 -1.473313101e-19)
(102.9391574 -25.34830513 -2.885345636e-19)
(100.9227938 -27.12126597 -4.496674343e-19)
(104.0884531 -23.17082914 -1.960191507e-19)
(103.3560606 -24.21620139 7.107051043e-21)
(102.3230321 -23.34166024 -2.241080019e-19)
(105.8366116 -26.2640258 4.418768325e-19)
(104.4969117 -25.01749308 9.254495356e-20)
(105.1428374 -23.86778278 1.962831016e-19)
(104.2917775 -30.87858157 -4.87457922e-19)
(104.2124651 -30.82411078 7.321048368e-19)
(105.3176908 -30.61247562 -4.773696376e-19)
(92.75883011 -28.82354214 -4.739111019e-19)
(92.48551034 -28.9095876 -2.004158659e-19)
(87.33667597 -27.8337912 9.745484063e-19)
(101.3065797 -28.73441612 -2.367141153e-19)
(99.58464063 -29.60574258 -1.28005517e-19)
(98.79542071 -28.9014397 -8.067092256e-20)
(106.0197518 -30.89764031 5.26347456e-19)
(104.2422255 -30.98152056 5.295955566e-19)
(104.2807155 -30.92488556 -5.241899649e-19)
(107.8492323 -29.72389635 -3.135622129e-19)
(108.5669628 -29.9178003 9.0112442e-20)
(107.521559 -30.78602351 8.626136796e-19)
(109.5014447 -28.44575548 2.214985568e-20)
(109.1059589 -29.1938016 0)
(108.3839745 -28.99738441 0)
(109.8265862 -29.36823228 0)
(110.2175009 -28.61271034 -7.285673612e-19)
(98.7571041 -28.29190234 -1.787021348e-19)
(98.15720224 -27.68259148 1.163918222e-19)
(99.36336306 -27.13571132 -1.595928311e-19)
(93.36352941 -28.49836379 0)