/*--------------------------------*- C++ -*----------------------------------*\
| =========                 |                                                 |
| \\      /  F ield         | OpenFOAM: The Open Source CFD Toolbox           |
|  \\    /   O peration     | Version:  v2012                                 |
|   \\  /    A nd           | Website:  www.openfoam.com                      |
|    \\/     M anipulation  |                                                 |
\*---------------------------------------------------------------------------*/
FoamFile
{
    version     2.0;
    format      ascii;
    class       pointVectorField;
    location    "3.12";
    object      pointDisplacement;
}
// * * * * * * * * * * * * * * * * * * * * * * * * * * * * * * * * * * * * * //

dimensions      [0 1 0 0 0 0 0];


internalField   nonuniform List<vector> 
7018
(
(0 0 0)
(0 0 0)
(0 0 0)
(0 0 0)
(0 0 0)
(0 0 0)
(0 0 0)
(0 0 0)
(0 0 0)
(0 0 0)
(0 0 0)
(0 0 0)
(0 0 0)
(0 0 0)
(0 0 0)
(0 0 0)
(0 0 0)
(0 0 0)
(0 0 0)
(0 0 0)
(0 0 0)
(0 0 0)
(0 0 0)
(0 0 0)
(0 0 0)
(0 0 0)
(0 0 0)
(0 0 0)
(0 0 0)
(0 0 0)
(0 0 0)
(0 0 0)
(0 0 0)
(0 0 0)
(0 0 0)
(0 0 0)
(0 0 0)
(0 0 0)
(0 0 0)
(0 0 0)
(0 0 0)
(0 0 0)
(0 0 0)
(0 0 0)
(-1.62282374e-07 0.000119866641 3.330669074e-16)
(7.473707692e-07 0.0001018939583 2.775557562e-16)
(0 0 0)
(0 0 0)
(0 0 0)
(0 0 0)
(0 0 0)
(0 0 0)
(0 0 0)
(0 0 0)
(0 0 0)
(0 0 0)
(0 0 0)
(0 0 0)
(0 0 0)
(0 0 0)
(0 0 0)
(0 0 0)
(0 0 0)
(0 0 0)
(0 0 0)
(0 0 0)
(0 0 0)
(0 0 0)
(0 0 0)
(0 0 0)
(0 0 0)
(0 0 0)
(0 0 0)
(0 0 0)
(0 0 0)
(0 0 0)
(0 0 0)
(0 0 0)
(0 0 0)
(0 0 0)
(0 0 0)
(-1.398311133e-05 0.01210498538 3.522182546e-14)
(-2.025137487e-05 0.0198475453 5.823119764e-14)
(0.0001558533688 0.01959195251 5.746791931e-14)
(9.22373235e-05 0.01190687126 3.463895837e-14)
(0.0003140701809 0.009127591556 2.656208586e-14)
(0.0005549295512 0.0159346528 4.675426712e-14)
(0.0006093466461 0.01392280729 4.084232952e-14)
(0.0003307282599 0.00764081111 2.223221607e-14)
(0.0001948932147 0.002787985275 8.10462808e-15)
(0.0004832804092 0.006848417239 2.009503675e-14)
(0.0003637689331 0.004575529423 1.341982081e-14)
(0.0001138876967 0.001445581564 4.204969706e-15)
(0 0 0)
(1.917949335e-05 0.0001803270236 5.273559367e-16)
(0 0 0)
(0 0 0)
(0 0 0)
(0 0 0)
(0 0 0)
(0 0 0)
(0 0 0)
(0 0 0)
(0 0 0)
(0 0 0)
(0 0 0)
(0 0 0)
(0 0 0)
(0 0 0)
(0 0 0)
(0 0 0)
(0 0 0)
(0 0 0)
(0 0 0)
(0 0 0)
(0 0 0)
(0 0 0)
(0 0 0)
(0 0 0)
(-2.685086515e-05 0.04978092368 1.497968416e-13)
(-2.340942973e-05 0.06065559808 1.841027331e-13)
(0.0005359808129 0.06023299136 1.828259766e-13)
(0.0004279557304 0.04938661975 1.486311074e-13)
(0.001576736243 0.04355798967 1.310895836e-13)
(0.001977599477 0.05393377107 1.637440183e-13)
(0.00230729868 0.05027194099 1.526279103e-13)
(0.001823468937 0.04020815075 1.210143097e-13)
(0.001977370945 0.02717931644 8.180955913e-14)
(0.002625150621 0.03570646217 1.084132784e-13)
(0.002488783411 0.03008933025 9.135747714e-14)
(0.001825234392 0.02229280243 6.709910405e-14)
(0.0009329373948 0.008538910844 2.570166302e-14)
(0.001491383513 0.01352212003 4.106437412e-14)
(0.001054782788 0.008826717872 2.679800826e-14)
(0.0005858155222 0.004947698562 1.489086632e-14)
(0 0 0)
(5.069141476e-05 0.0003437624071 1.054711873e-15)
(0 0 0)
(0 0 0)
(0 0 0)
(0 0 0)
(0 0 0)
(0 0 0)
(0 0 0)
(0 0 0)
(0 0 0)
(0 0 0)
(0 0 0)
(0 0 0)
(0 0 0)
(0 0 0)
(0 0 0)
(0 0 0)
(0 0 0)
(0 0 0)
(0 0 0)
(0 0 0)
(-5.703950782e-06 0.09019405703 2.810668365e-13)
(-2.024833028e-06 0.09778172982 3.074485111e-13)
(0.0009348215318 0.09738746108 3.062411436e-13)
(0.0008500986247 0.08976752623 2.797623244e-13)
(0.003161545824 0.08321015087 2.593897319e-13)
(0.003502084552 0.09121405923 2.869093851e-13)
(0.004191095477 0.08736050921 2.748079542e-13)
(0.003761275031 0.07922362113 2.469829896e-13)
(0.004713833791 0.0621472774 1.937755512e-13)
(0.005385305279 0.07023803903 2.209898931e-13)
(0.005422044161 0.06290211013 1.979250097e-13)
(0.004693784676 0.05503953804 1.716266018e-13)
(0.003601105075 0.03163224043 9.862943795e-14)
(0.004485485405 0.03887662974 1.223465773e-13)
(0.003870376011 0.03094961496 9.742207041e-14)
(0.003069079255 0.02482969198 7.742417818e-14)
(0.001065702719 0.007005277827 2.184363801e-14)
(0.001592359629 0.01036697806 3.262667914e-14)
(0.000898885092 0.005510276328 1.734723476e-14)
(0.0005137531274 0.003179299663 9.908740495e-15)
(0 0 0)
(0 0 0)
(0 0 0)
(0 0 0)
(0 0 0)
(0 0 0)
(0 0 0)
(0 0 0)
(0 0 0)
(0 0 0)
(0 0 0)
(0 0 0)
(0 0 0)
(0 0 0)
(0 0 0)
(0 0 0)
(0 0 0)
(0 0 0)
(-1.31382477e-05 0.1100098835 3.554656569e-13)
(-2.451388858e-05 0.1101216733 3.591293929e-13)
(0.001075830608 0.1100930415 3.590877595e-13)
(0.001073470845 0.1098465861 3.549938121e-13)
(0.004237673249 0.10673688 3.450711938e-13)
(0.004357878418 0.1085939587 3.543554339e-13)
(0.0053580228 0.1067873796 3.485128852e-13)
(0.005175583881 0.1042076141 3.369249324e-13)
(0.007151967231 0.08994496814 2.909478214e-13)
(0.007606456833 0.09436029531 3.081701561e-13)
(0.007989625472 0.08810321442 2.878114413e-13)
(0.007436496701 0.08296116642 2.684241718e-13)
(0.006898439159 0.05789586323 1.873640132e-13)
(0.007601438855 0.06317063124 2.063765825e-13)
(0.006969938858 0.05354256094 1.749156375e-13)
(0.006252544098 0.04850678862 1.569855357e-13)
(0.003413152408 0.02158311471 6.981915046e-14)
(0.004022578003 0.02518896525 8.226752612e-14)
(0.002901538136 0.01711270765 5.58858515e-14)
(0.002377550528 0.01416009289 4.581057755e-14)
(0.0001570716989 0.000795870153 2.581268532e-15)
(0.0002698315994 0.001353870592 4.427014311e-15)
(6.850371832e-06 3.273369634e-05 1.110223025e-16)
(0 0 0)
(0 0 0)
(0 0 0)
(0 0 0)
(0 0 0)
(0 0 0)
(0 0 0)
(0 0 0)
(0 0 0)
(0 0 0)
(0 0 0)
(0 0 0)
(0 0 0)
(0 0 0)
(0 0 0)
(-6.250204987e-05 0.1070498188 0)
(-6.868738041e-05 0.1065373062 0)
(0.000492795027 0.1065309791 0)
(0.0004959388842 0.1070434802 0)
(0.004451985807 0.1069533266 0)
(0.004462390385 0.1064267489 0)
(0.00447667885 0.1058919683 0)
(0.005035027787 0.1058691259 0)
(0.00558539109 0.105856527 0)
(0.005573844134 0.1069138653 0)
(0.00849005116 0.1021502868 3.433919815e-13)
(0.008628717699 0.102885586 3.49248408e-13)
(0.009301984365 0.09874948363 3.352457201e-13)
(0.009094702954 0.09744834334 3.276268146e-13)
(0.009234558952 0.07452726383 2.505773367e-13)
(0.009570412947 0.07646320279 2.596534099e-13)
(0.00909534681 0.06714757633 2.280259315e-13)
(0.008680655048 0.06473900769 2.176731018e-13)
(0.005617111309 0.03412785917 1.147415496e-13)
(0.00614342295 0.03695629649 1.254690796e-13)
(0.004843454073 0.02744403108 9.316158955e-14)
(0.004362229262 0.0249639681 8.391898287e-14)
(0.0009724520533 0.004737795546 1.591782262e-14)
(0.001215496591 0.005863650636 1.988686993e-14)
(0.0004355372737 0.002001527253 6.786238238e-15)
(0.0002963398991 0.00137533289 4.62130334e-15)
(0 0 0)
(0 0 0)
(0 0 0)
(0 0 0)
(0 0 0)
(0 0 0)
(0 0 0)
(0 0 0)
(0 0 0)
(0 0 0)
(0 0 0)
(0 0 0)
(0 0 0)
(0 0 0)
(0.004475329158 0.1027454457 0)
(0.004472165602 0.1022217023 0)
(0.005018833064 0.1022129837 0)
(0.00502256299 0.1027359449 0)
(0.008811482684 0.1021649622 3.573807916e-13)
(0.00882113975 0.1013774676 3.582550923e-13)
(0.009710543627 0.09930426587 3.509692537e-13)
(0.009666369976 0.09974669597 3.489708522e-13)
(0.01051013345 0.0815877103 2.854938508e-13)
(0.01063964677 0.08181744596 2.892130979e-13)
(0.01027857194 0.07301439665 2.580852199e-13)
(0.01013043708 0.07265360086 2.542133171e-13)
(0.00721385694 0.04213019353 1.473682287e-13)
(0.007377624672 0.04266341728 1.507682867e-13)
(0.005993003641 0.0326340078 1.152966611e-13)
(0.005838339432 0.03211032247 1.122990589e-13)
(0.001763580771 0.008255478857 2.886579864e-14)
(0.001991523657 0.009227774158 3.258504577e-14)
(0.0009499291128 0.004192985562 1.480759959e-14)
(0.0007819976722 0.003487179589 1.219857548e-14)
(0 0 0)
(0 0 0)
(0 0 0)
(0 0 0)
(0 0 0)
(0 0 0)
(0 0 0)
(0 0 0)
(0 0 0)
(0 0 0)
(0 0 0)
(0 0 0)
(0 0 0)
(0 0 0)
(0.004437613594 0.09856712609 0)
(0.004431485898 0.0980462644 0)
(0.004976856301 0.09803941091 0)
(0.004983076778 0.0985600076 0)
(0.008804722563 0.09849674974 3.591016373e-13)
(0.008792055488 0.09746921734 3.591293929e-13)
(0.009771893534 0.0963373977 3.550215677e-13)
(0.00977048343 0.09721552404 3.54480334e-13)
(0.01097312535 0.08198703474 2.989830605e-13)
(0.01103044457 0.0816197886 3.008288063e-13)
(0.01077589552 0.07361544933 2.713107516e-13)
(0.01069931638 0.07381487873 2.691874501e-13)
(0.007965151531 0.04469164569 1.629252289e-13)
(0.00808206061 0.04488741643 1.653815973e-13)
(0.006708687311 0.03507598573 1.292160823e-13)
(0.006587695859 0.03479910438 1.268429806e-13)
(0.002283873618 0.01026280431 3.738676035e-14)
(0.002376807226 0.0105693798 3.891331701e-14)
(0.00122573447 0.005191876961 1.91235916e-14)
(0.001155525475 0.004946060235 1.801336857e-14)
(0 0 0)
(0 0 0)
(0 0 0)
(0 0 0)
(0 0 0)
(0 0 0)
(0 0 0)
(0 0 0)
(0 0 0)
(0 0 0)
(0 0 0)
(0 0 0)
(0 0 0)
(0 0 0)
(0.004382650138 0.09440486187 0)
(0.004374962945 0.09388598604 0)
(0.004919720065 0.09388000354 0)
(0.004927477203 0.0943987106 0)
(0.008746234434 0.0943471174 3.591155151e-13)
(0.00872872064 0.09329554952 3.590461262e-13)
(0.009689158403 0.09201940582 3.541889004e-13)
(0.009717574735 0.09316381671 3.546607452e-13)
(0.01095277263 0.0786887434 2.995936832e-13)
(0.01090174096 0.07754353769 2.985112157e-13)
(0.01063744365 0.06981620588 2.687572387e-13)
(0.01069218755 0.07089123702 2.698952173e-13)
(0.00799004735 0.04302160991 1.637301406e-13)
(0.007935896216 0.0422828979 1.627031843e-13)
(0.006568165074 0.03293186425 1.267042027e-13)
(0.006618538003 0.03353861314 1.276201367e-13)
(0.002312750765 0.009961940665 3.788636072e-14)
(0.002282586056 0.009726254467 3.738676035e-14)
(0.001156276988 0.004692288499 1.804112415e-14)
(0.001177615478 0.004831041157 1.837419106e-14)
(0 0 0)
(0 0 0)
(0 0 0)
(0 0 0)
(0 0 0)
(0 0 0)
(0 0 0)
(0 0 0)
(0 0 0)
(0 0 0)
(0 0 0)
(0 0 0)
(0 0 0)
(0 0 0)
(0.004317170277 0.09025985241 0)
(0.004308004571 0.089741714 0)
(0.004852240612 0.08973628951 0)
(0.004861524523 0.09025428256 0)
(0.008657038784 0.08998027825 3.582134589e-13)
(0.008621862507 0.08876850217 3.574918139e-13)
(0.009479083628 0.08662315988 3.488875855e-13)
(0.009550959817 0.08813704266 3.509137425e-13)
(0.01053139304 0.07265088226 2.892824869e-13)
(0.01031518844 0.07041988763 2.83648105e-13)
(0.01001610623 0.06305223023 2.539635169e-13)
(0.01019384358 0.06485496089 2.582378755e-13)
(0.00735607661 0.037948549 1.510458425e-13)
(0.00717155046 0.03659159324 1.473265954e-13)
(0.005813392866 0.0279015482 1.123129367e-13)
(0.005985780439 0.02904948417 1.156019724e-13)
(0.001865798202 0.00769105289 3.058664433e-14)
(0.001765663218 0.007196563487 2.894906537e-14)
(0.0007849273246 0.003046329236 1.225408663e-14)
(0.0008520997039 0.003344745449 1.330879851e-14)
(0 0 0)
(0 0 0)
(0 0 0)
(0 0 0)
(0 0 0)
(0 0 0)
(0 0 0)
(0 0 0)
(0 0 0)
(0 0 0)
(0 0 0)
(0 0 0)
(0 0 0)
(0 0 0)
(0.004239983471 0.08612484312 0)
(0.004229327062 0.08560842585 0)
(0.004773376392 0.08560343541 0)
(0.004784200704 0.08611985066 0)
(0.00847768774 0.08480138208 3.538142002e-13)
(0.008408835647 0.0832943146 3.517464098e-13)
(0.009114530076 0.08001322635 3.379102553e-13)
(0.009228048743 0.08184154891 3.414907246e-13)
(0.009704171224 0.06414823181 2.676747712e-13)
(0.009542865383 0.0623933326 2.634975571e-13)
(0.00903734233 0.05444141163 2.298994328e-13)
(0.009322367632 0.05679284157 2.369632268e-13)
(0.006338327377 0.03126158579 1.303818165e-13)
(0.005941044261 0.02896287641 1.222494328e-13)
(0.004603246498 0.02110351247 8.906764215e-14)
(0.00500169418 0.02319984306 9.674205881e-14)
(0.001252681397 0.004931616779 2.053912596e-14)
(0.001093999772 0.004256198997 1.795785742e-14)
(0.0003552592024 0.001315972934 5.551115123e-15)
(0.0004471583158 0.00167614671 6.980527267e-15)
(0 0 0)
(0 0 0)
(0 0 0)
(0 0 0)
(0 0 0)
(0 0 0)
(0 0 0)
(0 0 0)
(0 0 0)
(0 0 0)
(0 0 0)
(0 0 0)
(0 0 0)
(0 0 0)
(0.004443635564 0.0990871734 0)
(0.003898231861 0.09909525075 0)
(0.00389521248 0.09883552707 0)
(0.00389232637 0.09857491417 0)
(0.003926956764 0.1027580253 0)
(0.003925086529 0.1022321052 0)
(0.004390248867 0.0949243625 0)
(0.003845709637 0.09493051032 0)
(0.003841992354 0.09467060309 0)
(0.003838203976 0.09441076868 0)
(0.003889389699 0.09831408597 0)
(0.003886404192 0.09805318639 0)
(0.004325730574 0.09077751829 0)
(0.003781563615 0.09078270206 0)
(0.003777380418 0.09052395192 0)
(0.003773079592 0.09026539511 0)
(0.003834367337 0.09415091086 0)
(0.003830562741 0.09389172437 0)
(0.004250637291 0.0866410445 0)
(0.00370680211 0.08664588844 0)
(0.003695832442 0.08612935498 0)
(0.003763983255 0.08974703996 0)
(0.003685943303 0.08561290453 0)
(-0.0006135080786 0.1070560681 0)
(-0.0006212388626 0.1065433582 0)
(0.00447693915 0.1032716695 0)
(0.003928557063 0.103283441 0)
(0.003891995195 0.1069693035 0)
(0.003900430679 0.1064465639 0)
(0.002275729879 0.1006866028 0)
(0.002276600578 0.1008181924 0)
(0.002138961538 0.1008199225 0)
(0.002137715589 0.1006882487 0)
(0.002281757327 0.1027967067 0)
(0.00200703959 0.1028038824 0)
(0.00200855225 0.1025373919 0)
(0.002282899739 0.1025309489 0)
(0.004989288335 0.09907986072 0)
(0.00881621363 0.09951190967 3.590183706e-13)
(0.007726005398 0.09956403516 0)
(0.007712943 0.09852503229 0)
(0.007759851461 0.1026877573 0)
(0.007749286933 0.1016470001 0)
(0.002202119708 0.09651137517 0)
(0.002204296119 0.09664142094 0)
(0.002049309696 0.09664311204 0)
(0.002047180011 0.09651316168 0)
(0.002251135268 0.09859536764 0)
(0.002108531002 0.09859655038 0)
(0.002110916191 0.09846640192 0)
(0.002251628043 0.09846504997 0)
(0.004935122465 0.09491809072 0)
(0.008762615441 0.09539179119 3.591432707e-13)
(0.007670258529 0.09540645833 0)
(0.007654620294 0.09436870983 0)
(0.007699463629 0.09748526676 0)
(0.002176109302 0.09235190632 0)
(0.002177152797 0.09248170178 0)
(0.00203998668 0.09248305919 0)
(0.002039708345 0.09235325455 0)
(0.002202452952 0.09442935767 0)
(0.002062515275 0.09443125211 0)
(0.002056758492 0.09430151318 0)
(0.002198589352 0.09429945209 0)
(0.004870277573 0.0907720181 0)
(0.008685458499 0.0911237131 3.586575481e-13)
(0.007604841708 0.09126070443 0)
(0.007587084707 0.09022631591 0)
(0.007638599037 0.09333302903 0)
(0.002108130255 0.08821014145 0)
(0.002113050885 0.08846857087 0)
(0.001842252011 0.08847085947 0)
(0.001837613555 0.08821235469 0)
(0.002144140186 0.09028066379 0)
(0.001872683033 0.09028327215 0)
(0.001870385923 0.09015356369 0)
(0.001868414546 0.09002361143 0)
(0.00213987112 0.09002155484 0)
(-0.000134254936 0.08409150747 0)
(8.774374198e-07 0.08409055829 0)
(1.172085027e-06 0.08422012284 0)
(-0.0001352695047 0.08422142358 0)
(0.002021845563 0.08407864781 0)
(0.002028031034 0.08433672621 0)
(0.001757393447 0.08433846111 0)
(0.001751420204 0.08408047613 0)
(0.00206816719 0.08614304906 0)
(0.001797893711 0.08614513944 0)
(0.001792531638 0.08588690722 0)
(0.002062922649 0.08588481543 0)
(0.002251524512 0.09872581867 0)
(0.002107762385 0.09872687136 0)
(0.002136725668 0.1005569196 0)
(0.002274602103 0.100555381 0)
(0.004459772418 0.1006524914 0)
(0.003913611774 0.1006614631 0)
(0.003911225433 0.1004005155 0)
(0.003908947716 0.1001386239 0)
(0.004454755156 0.1001302058 0)
(0.00227390837 0.100424545 0)
(0.002547292965 0.1004204261 0)
(0.002549375254 0.1006820251 0)
(0.002391114678 0.0985939525 0)
(0.002392056468 0.09872446887 0)
(0.002206407509 0.09455904625 0)
(0.002068391511 0.09456074971 0)
(0.002046645504 0.09638300027 0)
(0.002201383815 0.09638102426 0)
(0.004411820213 0.09648475026 0)
(0.004139385284 0.09648804205 0)
(0.004135949218 0.09622757969 0)
(0.00440833675 0.09622433644 0)
(0.002352218036 0.09637916705 0)
(0.002353302592 0.09650958575 0)
(0.002340852154 0.09442760164 0)
(0.002343656523 0.09455739997 0)
(0.002390558106 0.09846355145 0)
(0.002355271186 0.09663970598 0)
(0.004415227401 0.09674480514 0)
(0.004142768486 0.09674809723 0)
(0.002148294886 0.09053943826 0)
(0.001876635387 0.09054197708 0)
(0.001874668805 0.0904126245 0)
(0.002038087357 0.09222351399 0)
(0.002174264668 0.09222212046 0)
(0.004350998809 0.09233011305 0)
(0.003806639384 0.09233525114 0)
(0.003802596077 0.09207616347 0)
(0.003798509688 0.09181748414 0)
(0.004342748031 0.09181225154 0)
(0.00217217969 0.09209269734 0)
(0.002443965741 0.09209010902 0)
(0.002448008185 0.09234912473 0)
(0.00241534577 0.09027808244 0)
(0.00241957694 0.090536832 0)
(0.002338093167 0.09429758685 0)
(0.002451837631 0.0926083829 0)
(0.002315499228 0.09260994628 0)
(0.002178479715 0.09261132592 0)
(0.004358940643 0.09284821816 0)
(0.003814802561 0.0928538094 0)
(0.003810804349 0.09259448129 0)
(0.002073646698 0.08640147178 0)
(0.001803166938 0.08640356464 0)
(0.001833034202 0.08795377723 0)
(0.002103644448 0.08795156287 0)
(-0.0002669267539 0.08409173143 0)
(-0.0002701975652 0.08396306621 0)
(-0.0001360631151 0.08396244087 0)
(-0.0002702247159 0.08422232265 0)
(0.001744950639 0.083822713 0)
(0.002015365251 0.08382078885 0)
(-9.825518364e-07 0.08396149231 0)
(0.001169821127 0.1017565688 0)
(0.001161598478 0.1018862523 0)
(0.001023790384 0.1018802886 0)
(0.001065736052 0.1017742694 0)
(0.001170255782 0.1028332056 0)
(0.001026703131 0.1028379222 0)
(0.001025193121 0.1026992337 0)
(0.001169642376 0.1026964664 0)
(0.001013629667 0.08926079804 0)
(0.001009893671 0.08939113063 0)
(0.0008659331716 0.08940264519 0)
(0.000843367423 0.08929455462 0)
(0.004794636922 0.08663591072 0)
(0.008534679647 0.08620228553 3.553823902e-13)
(0.00753040658 0.08712479169 3.591571485e-13)
(0.007506918639 0.08605340282 3.589767372e-13)
(0.007568847407 0.08919188516 0)
(-0.0001709950553 0.08516406949 0)
(-2.471331775e-06 0.08513057366 0)
(-1.450190132e-06 0.0852601055 0)
(-0.0001413337052 0.08527111535 0)
(0.0009665279239 0.08511755928 0)
(0.000971970399 0.08537569457 0)
(0.0007016004969 0.08537754621 0)
(0.000699050953 0.08524839254 0)
(0.000696832994 0.08511928288 0)
(0.0009883836931 0.08615045926 0)
(0.0008533168498 0.08615143165 0)
(0.0008506839296 0.08602232696 0)
(0.0009857600797 0.08602133047 0)
(0.002557055954 0.1025243594 0)
(0.002557099318 0.1027879747 0)
(0.002551344632 0.1009442107 0)
(0.002277763642 0.1009493562 0)
(0.004464522697 0.1011745188 0)
(0.003918494634 0.1011825436 0)
(0.003916114852 0.100922143 0)
(0.0009907676353 0.08627980684 0)
(0.000855594005 0.08628087646 0)
(0.001003469779 0.08718557553 0)
(0.0008634857593 0.08718780637 0)
(0.0008634574555 0.08705804671 0)
(0.001002109184 0.08705614371 0)
(0.004280354117 0.08819051523 0)
(0.003736330499 0.0881956493 0)
(0.003726702907 0.08767900379 0)
(0.004270632306 0.08767401479 0)
(0.002374385466 0.08794925097 0)
(0.002379093482 0.08820775492 0)
(0.00233873215 0.08614085922 0)
(0.002344326216 0.08639923259 0)
(0.002411088313 0.09001914128 0)
(0.002383872594 0.08846618604 0)
(0.004289965203 0.08870778467 0)
(0.003745845928 0.08871294387 0)
(-7.786174359e-05 0.1049999101 0)
(-0.0003766831353 0.1050009971 0)
(-0.0003795937132 0.1047445443 0)
(-8.115294385e-05 0.1047434331 0)
(0.002280493168 0.1030619147 0)
(0.002005283325 0.1030694639 0)
(0.002241536184 0.1049294981 0)
(0.001668610927 0.1049535229 0)
(0.001670442723 0.1046940385 0)
(0.001686535043 0.1044250438 0)
(0.001980358111 0.1044042661 0)
(0.002261848573 0.1043923278 0)
(0.0002309425002 0.1047375185 0)
(0.0002322013679 0.1049942694 0)
(0.001131293131 0.1015893169 0)
(0.002282178923 0.101737855 0)
(0.002008395327 0.1017429094 0)
(0.002007558395 0.101610535 0)
(0.002006738502 0.101478381 0)
(0.002281116865 0.101473912 0)
(0.001302003055 0.1016182831 0)
(0.001305881219 0.1017520028 0)
(0.001311801282 0.1026941543 0)
(0.001311354204 0.1028298816 0)
(0.001304218373 0.1018851725 0)
(0.002283252153 0.1020009294 0)
(0.002009833621 0.1020052189 0)
(0.002009078283 0.1018742469 0)
(0.002253638681 0.09755267557 0)
(0.002124321708 0.09755461054 0)
(0.002121386568 0.09742431 0)
(0.002250804571 0.0974223978 0)
(0.002254722663 0.0976830463 0)
(0.002124563486 0.09768496739 0)
(0.002192379334 0.09338952729 0)
(0.002057227194 0.09339078857 0)
(0.002054262598 0.09326063232 0)
(0.002190146317 0.09325936226 0)
(0.002193440767 0.09352001824 0)
(0.002057695496 0.09352143058 0)
(0.00101604988 0.08822136957 0)
(0.001019267488 0.08835041926 0)
(0.0008820470657 0.08835184929 0)
(0.0008750266824 0.0882235649 0)
(0.0008967042731 0.08912841028 0)
(0.001024556926 0.08912879588 0)
(0.002126700769 0.08924495203 0)
(0.001855716242 0.0892473628 0)
(0.001851173058 0.08898900082 0)
(0.002122301503 0.08898658832 0)
(0.001162760879 0.08912716214 0)
(0.001158563387 0.08925762021 0)
(0.001156142701 0.08821920939 0)
(0.001158204077 0.08834846487 0)
(0.001046652055 0.09029565118 0)
(0.001023362946 0.09017545452 0)
(0.001166072132 0.09016421886 0)
(0.001175244843 0.09029274133 0)
(0.001157742004 0.08938734209 0)
(0.00213112901 0.0895035313 0)
(0.001860156763 0.08950596592 0)
(0.001857859171 0.08937661731 0)
(0.0009426687288 0.08408523509 0)
(0.0009489529287 0.08434314438 0)
(0.0006800580838 0.0843445705 0)
(0.0006741211084 0.08408660907 0)
(0.0006942438243 0.08499022564 0)
(0.0006917593308 0.08486109518 0)
(0.0009609690673 0.08485952134 0)
(-0.0001271240238 0.08499844651 0)
(2.970664935e-06 0.0849990691 0)
(0.002266840248 0.09963928068 0)
(0.002128408329 0.09964110907 0)
(0.002128739631 0.09951052945 0)
(0.00226625336 0.09950835222 0)
(0.002267783477 0.09976991699 0)
(0.002128955786 0.09977175013 0)
(0.002229080499 0.09546927736 0)
(0.002100740726 0.09547048092 0)
(0.002098163556 0.09534022406 0)
(0.002227158151 0.09533901265 0)
(0.002229275264 0.09559951482 0)
(0.002100647945 0.09560074582 0)
(0.002360647374 0.09546791515 0)
(0.002361465493 0.09559812114 0)
(0.003308828041 0.09545706966 0)
(0.003312306037 0.09571702774 0)
(0.003040277723 0.0957202187 0)
(0.003036919082 0.09546021121 0)
(0.003322487686 0.09649786459 0)
(0.003050148414 0.09650113125 0)
(0.00304685454 0.09624052324 0)
(0.003319146127 0.09623728114 0)
(0.003294143606 0.09441683878 0)
(0.003297908861 0.09467674544 0)
(0.003026023026 0.09467981474 0)
(0.003022233496 0.09441988439 0)
(0.003033390524 0.09520003783 0)
(0.003305251798 0.09519692084 0)
(0.002358965177 0.09533767154 0)
(0.00238589569 0.09755084928 0)
(0.002387315191 0.09768119199 0)
(0.003335479171 0.09753895541 0)
(0.003338580006 0.09779946977 0)
(0.003066362391 0.09780287891 0)
(0.003063309241 0.09754233999 0)
(0.003347342335 0.09858197893 0)
(0.003074886009 0.09858548689 0)
(0.003072115227 0.09832448878 0)
(0.003344499882 0.09832100566 0)
(0.003325799793 0.09675799258 0)
(0.003053436823 0.09676128352 0)
(0.003060089626 0.097281923 0)
(0.003332307816 0.09727856184 0)
(0.002383565578 0.09742058945 0)
(0.002160414067 0.0913160057 0)
(0.002023985477 0.09131745022 0)
(0.002022298191 0.09118778243 0)
(0.002158470417 0.09118636498 0)
(0.001191134943 0.09041988778 0)
(0.001069871771 0.09042086251 0)
(0.002161990153 0.09144560286 0)
(0.002025212227 0.09144712354 0)
(0.001012660244 0.088092178 0)
(0.001153733621 0.08808976616 0)
(0.001141301083 0.08718387428 0)
(0.001143070594 0.08731339715 0)
(0.001004464727 0.08731532359 0)
(0.002088984451 0.08717636932 0)
(0.002093971857 0.08743496587 0)
(0.001823457844 0.08743720308 0)
(0.001818512174 0.08717848608 0)
(0.0008629733168 0.08731788439 0)
(0.0008688840032 0.08809505407 0)
(-0.0002217017927 0.08498204452 0)
(0.0006675326654 0.08382913524 0)
(0.0009363118011 0.08382766253 0)
(0.0005994721294 0.1028655744 0)
(0.0004307997797 0.1028674794 0)
(0.0005813350302 0.1027050972 0)
(0.0004284038648 0.08563993534 0)
(0.0004311839639 0.08576911023 0)
(0.0002878028233 0.0857721255 0)
(0.0002852178755 0.08564302024 0)
(0.000445263398 0.0861551027 0)
(0.0003116164437 0.08615565023 0)
(0.0003077066886 0.08602689671 0)
(0.0004426265437 0.08602607003 0)
(-0.0008175068513 0.1028736345 0)
(-0.0008316421128 0.1027237878 0)
(-0.000659010078 0.1027017989 0)
(-0.0006704090084 0.1028918781 0)
(0.0004450553894 0.08628496116 0)
(0.0003072852987 0.08628656571 0)
(0.0004492178606 0.08667378341 0)
(0.0003215441477 0.08667291587 0)
(0.0003175621463 0.08654413923 0)
(0.0004498999328 0.0865438473 0)
(-9.762388528e-05 0.1039740284 0)
(-0.0004160608952 0.1039697011 0)
(-0.0004282717145 0.1037108937 0)
(-0.0002571478453 0.1037174702 0)
(-9.434916931e-05 0.1037180052 0)
(-0.00104485391 0.1036776702 0)
(-0.001009312877 0.1039563011 0)
(0.00116886539 0.1029706896 0)
(0.00102629384 0.1029765998 0)
(0.001134193239 0.1039190967 0)
(0.0008425621998 0.1039348223 0)
(0.0008537497189 0.1036691179 0)
(0.001149428343 0.1036476366 0)
(8.038972549e-05 0.1037136398 0)
(0.0002404143202 0.1037069776 0)
(0.0002324703626 0.1039662954 0)
(0.002225226949 0.09703140947 0)
(0.002079958485 0.09703307997 0)
(0.002063893111 0.09690272101 0)
(0.002215375437 0.09690109592 0)
(0.001693553983 0.09860020853 0)
(0.001704247027 0.09847068011 0)
(0.001828696144 0.09846911539 0)
(0.001820153702 0.09859873797 0)
(0.001730338348 0.09808089522 0)
(0.001851888782 0.09807926932 0)
(0.001845035925 0.09820935142 0)
(0.001722908287 0.09821105621 0)
(0.002254155622 0.09807377249 0)
(0.002253392954 0.09820418936 0)
(0.002116796651 0.0982058518 0)
(0.002119424773 0.09807555649 0)
(0.002181919912 0.09287073269 0)
(0.002042437206 0.09287235778 0)
(0.0020404381 0.09274269373 0)
(0.002179876192 0.09274094922 0)
(0.001609524921 0.09288016536 0)
(0.001605031344 0.09275093905 0)
(0.001752640388 0.0927478011 0)
(0.001755354667 0.09287728865 0)
(0.001636249788 0.09235619878 0)
(0.001767689149 0.09235560576 0)
(0.001764135638 0.09248615207 0)
(0.001629943907 0.09248728188 0)
(0.001658637908 0.09443648038 0)
(0.001647180085 0.09430704973 0)
(0.00177185966 0.09430569816 0)
(0.001782490632 0.09443499479 0)
(0.001608114096 0.09392874578 0)
(0.001752150388 0.09391795 0)
(0.001752545105 0.09404765729 0)
(0.001620806192 0.09405067685 0)
(0.002191724503 0.09391013448 0)
(0.002192673014 0.09403981114 0)
(0.002048305468 0.09404219052 0)
(0.002048030394 0.09391245781 0)
(0.002260199059 0.0991176095 0)
(0.002121534187 0.0991194167 0)
(0.002115105412 0.09898865428 0)
(0.00225647746 0.09898734238 0)
(0.001725498473 0.09912639812 0)
(0.001658841787 0.09896147717 0)
(0.001828806852 0.09899074496 0)
(0.001848878391 0.09912309498 0)
(0.001813703431 0.09872838342 0)
(0.001682210056 0.0987284733 0)
(0.0024040884 0.09963756244 0)
(0.002405198669 0.09976812478 0)
(0.00335838479 0.09962458049 0)
(0.003361053009 0.09988502807 0)
(0.003088455643 0.09988877762 0)
(0.003085857944 0.09962820924 0)
(0.003367899876 0.1006698464 0)
(0.003095182809 0.1006736166 0)
(0.003093051857 0.1004119607 0)
(0.003365720319 0.1004081383 0)
(0.003350158212 0.09884273661 0)
(0.003077654489 0.09884629312 0)
(0.003083299297 0.09936689672 0)
(0.003355802445 0.09936329224 0)
(0.00240314028 0.09950651837 0)
(0.002217751538 0.09494878993 0)
(0.00208488912 0.09495014369 0)
(0.002079667804 0.09482044632 0)
(0.002214131637 0.09481900138 0)
(0.001700616158 0.09495357749 0)
(0.001691052763 0.09482448396 0)
(0.001812503796 0.09482317111 0)
(0.001821404116 0.09495258446 0)
(0.001792999084 0.09456407698 0)
(0.001670032507 0.09456524008 0)
(0.002212968963 0.09599006995 0)
(0.002206312983 0.0961203656 0)
(0.00205525924 0.0961223214 0)
(0.002068112678 0.09599190344 0)
(0.001631147728 0.09222724366 0)
(0.001765340035 0.09222616182 0)
(0.001599483526 0.09184302144 0)
(0.001746152886 0.09183994273 0)
(0.001752154141 0.09196886308 0)
(0.001609166665 0.09197129788 0)
(0.002167562631 0.09183397639 0)
(0.002169688673 0.09196342302 0)
(0.00203259979 0.09196501939 0)
(0.002029877067 0.09183562791 0)
(0.002431963805 0.09131351618 0)
(0.002435883729 0.09157231746 0)
(0.002163733663 0.09157495812 0)
(0.003246605155 0.0913055919 0)
(0.003250666119 0.09156415159 0)
(0.002979040103 0.09156688193 0)
(0.002975001399 0.09130817803 0)
(0.003262932766 0.09234081322 0)
(0.002991259641 0.09234361609 0)
(0.002987240895 0.09208457611 0)
(0.00325891402 0.09208177324 0)
(0.002328100425 0.09338849908 0)
(0.002329590157 0.09351869702 0)
(0.003279034219 0.0933791799 0)
(0.003282892829 0.09363886953 0)
(0.003011006418 0.09364189086 0)
(0.0030072923 0.09338224748 0)
(0.003018395132 0.09415988266 0)
(0.003290353789 0.09415688445 0)
(0.003267051485 0.09260018787 0)
(0.002995306113 0.09260296761 0)
(0.003003310306 0.09312227145 0)
(0.003275103362 0.09311946715 0)
(0.002326156681 0.09325845053 0)
(0.001813270992 0.08692013246 0)
(0.002083916257 0.08691803762 0)
(0.001139350331 0.08705464146 0)
(0.001258083996 0.08614878358 0)
(0.001263070252 0.08640728419 0)
(0.0009932174911 0.08640924958 0)
(-0.0001480032196 0.0846146227 0)
(-0.0003172932069 0.08464827166 0)
(-0.0002719509561 0.0844822472 0)
(-0.0001407851383 0.08448256907 0)
(0.001164663003 0.1022883396 0)
(0.001022086007 0.1022907959 0)
(0.001021325462 0.1021555897 0)
(0.001162071062 0.1021516513 0)
(0.0007357711162 0.102711925 0)
(0.0007396603003 0.1028523635 0)
(0.001166942494 0.1024243791 0)
(0.001023612568 0.1024256641 0)
(0.001053788262 0.08977139179 0)
(0.0009413693919 0.08976930972 0)
(0.0009163922481 0.08964558284 0)
(0.001038079879 0.08964479493 0)
(0.001055132739 0.08990067987 0)
(0.0009647318266 0.08988501944 0)
(0.0004232706198 0.08512218037 0)
(0.0004248960228 0.08525148907 0)
(0.0002842486394 0.08525401574 0)
(0.0002830007797 0.08512458258 0)
(0.0002864408849 0.08551298168 0)
(0.0004275698154 0.08551040125 0)
(-7.847123931e-05 0.08549857484 0)
(1.615224808e-05 0.08551480836 0)
(-2.904128536e-05 0.08568025528 0)
(-0.0008571311841 0.1022977819 0)
(-0.0008117765081 0.1024079693 0)
(-0.0009815553484 0.1024388269 0)
(-0.0009902089273 0.1023039841 0)
(-0.0009613804378 0.1028607949 0)
(-0.000970932911 0.102717612 0)
(-0.0009983032932 0.1021693625 0)
(-0.0008989654509 0.1021850885 0)
(0.000452000646 0.08719238222 0)
(0.0004493749216 0.08706327744 0)
(0.0005843596365 0.08706225807 0)
(0.0005822685176 0.08719252294 0)
(0.0005851648065 0.08667258457 0)
(0.0005825927159 0.08680295117 0)
(0.0004418719353 0.08680535878 0)
(0.0009974865597 0.08666775879 0)
(0.000999343381 0.08679716066 0)
(0.0008620293157 0.08679878373 0)
(0.0008609998274 0.08666915603 0)
(0.0002740874682 0.0868384859 0)
(0.0003581290277 0.0871765715 0)