/*--------------------------------*- C++ -*----------------------------------*\
| =========                 |                                                 |
| \\      /  F ield         | OpenFOAM: The Open Source CFD Toolbox           |
|  \\    /   O peration     | Version:  v2012                                 |
|   \\  /    A nd           | Website:  www.openfoam.com                      |
|    \\/     M anipulation  |                                                 |
\*---------------------------------------------------------------------------*/
FoamFile
{
    version     2.0;
    format      ascii;
    class       volScalarField;
    location    "1.84";
    object      k;
}
// * * * * * * * * * * * * * * * * * * * * * * * * * * * * * * * * * * * * * //

dimensions      [0 2 -2 0 0 0 0];


internalField   nonuniform List<scalar> 
3019
(
46.44071923
52.85176866
46.35083904
42.40123079
39.95102545
38.33154436
37.07376534
36.29984608
35.55078146
35.21188531
35.04734684
34.98172881
55.96507237
52.8341323
46.58563098
42.64191991
40.13783243
38.45707398
37.13489008
36.3147597
35.51205498
35.14276188
34.95802876
34.88374864
55.8204069
52.28901363
46.50562228
42.70926689
40.22712587
38.53122276
37.16960438
36.31705659
35.472216
35.07861621
34.87678269
34.7952771
53.82297619
51.24435515
46.18470956
42.63758734
40.23077653
38.55092534
37.17564956
36.29810847
35.42303727
35.01214322
34.79814349
34.71070985
52.07253726
50.04705583
45.62332109
42.43013919
40.17512923
38.53120466
37.14988715
36.25553346
35.364009
34.94225408
34.71807597
34.62583167
50.54385988
48.88483948
45.01101458
42.13792403
40.03519558
38.44876634
37.0781731
36.18480474
35.28824408
34.86087959
34.63210449
34.53627753
49.12363313
47.87254203
44.46729521
41.82915326
39.84228416
38.31754076
36.97515279
36.09164437
35.19859422
34.76996229
34.53868716
34.44084943
47.72052754
47.02205605
43.97799985
41.51178042
39.62383244
38.15634296
36.84904364
35.97982605
35.0952757
34.66806725
34.43587421
34.33676894
46.39531982
46.23104966
43.51823635
41.19944632
39.39504701
37.97802726
36.70616793
35.85326757
34.98126135
34.55788185
34.3259638
34.22617445
45.14667842
45.48851598
43.08326288
40.89817196
39.16437631
37.79097487
36.55175341
35.71561545
34.85699626
34.43804162
34.20682693
34.10669586
43.96934806
44.78678601
42.66846266
40.60926813
38.93651656
37.60041008
36.39004583
35.56998337
34.72667166
34.31338489
34.0833251
33.9830887
42.85488585
44.11961166
42.27073845
40.33157331
38.71376267
37.40960631
36.22426421
35.41898562
34.58914083
34.18066749
33.95153649
33.85124507
41.79040919
43.48135008
41.88762192
40.06343895
38.49689592
37.22056531
36.05670925
35.26460884
34.44990702
34.0473198
33.81934659
33.71906039
40.76866103
42.86720013
41.51668242
39.80335711
38.28584592
37.03436938
35.8889432
35.1084364
34.30475307
33.90610542
33.67873481
33.57835459
39.7867645
42.27264034
41.15568221
39.55009237
38.08023332
36.85154807
35.72202971
34.95153972
34.16218764
33.76917785
33.54270924
33.44224097
38.84101769
41.69394526
40.80265886
39.3025592
37.87954428
36.67226711
35.55663213
34.79484846
34.0125851
33.62208417
33.39576645
33.29504649
37.92719163
41.12933378
40.45605016
39.05983217
37.68325653
36.49650595
35.39316269
34.63879089
33.87103903
33.48603005
33.26034485
33.15939115
37.04287236
40.57857482
40.11456277
38.82107275
37.49081824
36.32409192
35.2318373
34.48399281
33.71772099
33.33354105
33.10761592
33.00624035
36.18573218
40.03901315
39.77717506
38.58552799
37.30166857
36.15476966
35.07275298
34.33041612
33.58155593
33.20296453
32.97742719
32.87569614
35.35424462
39.50811647
39.44321051
38.35254989
37.11524982
35.98820116
34.91592235
34.1787069
33.42237648
33.04304762
32.81704421
32.71474322
34.54831781
38.98473468
39.11217906
38.12151126
36.93097424
35.8239767
34.76137067
34.02841203
33.29788095
32.92397417
32.69807733
32.59536566
33.76992009
38.46929896
38.78365424
37.89180478
36.74830312
35.66181405
34.60942152
33.88090178
33.12601766
32.75123751
32.5248591
32.42143971
33.02144125
37.96245416
38.45722057
37.66283711
36.56675745
35.50138099
34.46131749
33.73617673
33.02469309
32.65240011
32.42579948
32.32197853
32.30690603
37.46883639
38.13500192
37.43511348
36.38644282
35.34264909
34.32115812
33.59996918
32.80317247
32.43056976
32.20323033
32.09843625
42.06022637
45.43523159
54.29190968
52.34665181
42.43521601
55.55634896
54.77767957
54.31608763
54.11568087
52.71876719
57.27474798
48.9746682
48.24044535
51.97759353
57.58405167
57.36559751
39.51576823
44.62306806
39.40228908
40.31562004
54.36850631
45.58113452
56.32318611
54.18974021
54.70881247
55.69542377
54.75913541
40.93499403
57.72865846
57.64526778
52.51970499
53.1513744
61.7122224
39.626579
41.35091218
50.96204841
48.48938837
41.59438732
40.17468874
50.35898747
61.92843812
41.65878658
47.6325938
68.60178979
39.70046332
40.78688708
39.62815979
39.61845155
60.49197577
64.1129848
39.51568936
61.75799766
54.26458043
53.47460018
47.63906894
40.60090206
40.81773344
39.62216505
45.29388803
40.23032833
39.51398053
46.5220229
65.38715979
67.96364321
69.68653505
58.40771587
66.61132865
40.31972628
39.71945416
58.80517148
53.08740807
59.79665898
55.69208822
65.04852547
65.14863733
62.99142369
43.04072744
56.90674112
50.68584819
63.61719806
64.79967711
45.26882889
48.39141636
52.30936177
67.23136833
55.09031368
43.70412888
45.460395
60.41129854
45.8194511
48.27978451
41.91287658
43.79432884
61.4406093
46.24899797
43.11411595
42.31315914
40.40048365
39.88908279
38.63551695
49.17589267
56.54790915
55.97229216
52.89898378
47.88160917
47.73518218
46.53370343
43.41009239
43.20586109
42.59702553
40.63008279
40.46864086
40.10049252
38.79349941
38.67954252
56.26876405
57.37862238
57.69695379
52.4854492
47.82293803
47.91039461
46.54553795
43.51022535
43.45107636
42.71020173
40.74815071
40.67048653
40.21575075
38.89228987
38.82257806
51.01551176
50.96666593
54.30299343
52.95310219
53.91573178
51.53035998
47.45518276
47.76171826
46.29692746
43.43803603
43.50577375
42.66451589
40.75843535
40.75938115
40.23534106
38.9231063
38.90431059
50.06919247
50.85139708
52.48558843
51.55871003
52.60859297
50.34865976
46.79928718
47.30841218
45.77440055
43.20715134
43.40154301
42.49507191
40.69884733
40.7492526
40.19690847
38.90976079
38.92257133
48.97960131
49.791715
50.91174055
50.1997625
51.21086435
49.16498113
46.06807754
46.61713929
45.16132637
42.85968232
43.12551101
42.21258361
40.55280474
40.66986494
40.07660341
38.83373957
38.89737087
47.83807221
48.70576075
49.47583276
48.98411333
49.87882492
48.10759929
45.40171957
45.89101317
44.59439039
42.5067226
42.7699331
41.90792959
40.34671155
40.50543957
39.89371899
38.70129196
38.80472162
46.42221111
47.51188669
48.06552316
47.95746134
48.71023184
47.22843204
44.83815709
45.25643531
44.09745918
42.15400147
42.41837171
41.59102265
40.11208328
40.28982705
39.67986038
38.53518722
38.66221424
44.97441932
46.05201408
46.71953598
47.0209873
47.71699962
46.42391839
44.31198444
44.7034799
43.63063326
41.80972084
42.06679061
41.27663205
39.86700705
40.05131727
39.45266988
38.34998266
38.49026797
43.60130363
44.62455106
45.451788
46.1450142
46.79676333
45.67005072
43.81522136
44.18529289
43.18996584
41.47992797
41.72582903
40.97231992
39.62112243
39.80535993
39.22191452
38.15511676
38.30190455
42.29624544
43.26870018
44.25744945
45.32000398
45.9342978
44.95875124
43.34276308
43.69498704
42.77045896
41.16511264
41.39988858
40.68037954
39.37950166
39.56019594
38.9930604
37.95674885
38.10569952
41.05611867
41.98009969
43.12798259
44.53867681
45.12084656
44.2834728
42.8911576
43.22803428
42.36870437
40.86324329
41.08852884
40.40003641
39.14436809
39.32007426
38.76890945
37.7586062
37.90710935
39.87400269
40.7547786
42.05241482
43.79313712
44.34912805
43.63848347
42.45744247
42.78117484
41.98216641
40.57219918
40.78954806
40.12966397
38.91621797
39.08668644
38.55055653
37.56285458
37.70940824
38.74905542
39.58761557
41.02026869
43.07963319
43.61192886
43.01871105
42.03863326
42.35146492
41.60840079
40.29021147
40.50092087
39.86769278
38.69466985
38.86023999
38.33808001
37.37057316
37.51445276
37.67375766
38.475822
40.02859177
42.39378261
42.90573862
42.41974917
41.63193353
41.93593241
41.24511476
40.01583325
40.22096136
39.61283202
38.47910312
38.64024819
38.13115439
37.18221296
37.32312511
36.64175051
37.41183728
39.07433253
41.73382838
42.2266454
41.83722043
41.23490311
41.53185755
40.89026644
39.74779821
39.94827954
39.36396351
38.26884143
38.42606996
37.92928824
36.99784531
37.135764
35.64915325
36.38998773
38.15274488
41.09288504
41.57199847
41.26936068
40.84559475
41.13691074
40.54217726
39.48500657
39.6816458
39.1201113
38.06322863
38.21702568
37.7319467
36.81734068
36.95237404
34.69320998
35.40691056
37.26120482
40.46605427
40.93513782
40.71506095
40.46252121
40.74929708
40.19951526
39.2265235
39.42002043
38.88043351
37.86164977
38.01248352
37.5385978
36.640463
36.77280573
33.77087136
34.4598423
36.39733719
39.85059558
40.31111785
40.17300636
40.08446208
40.36757737
39.8611781
38.97150481
39.16247792
38.64414842
37.663483
37.81181552
37.34867732
36.46687892
36.59678376
32.87944219
33.5458016
35.55920512
39.2456874
39.69841177
39.64015844
39.71065898
39.99063447
39.52640891
38.71926151
38.90821183
38.41058861
37.46813769
37.61440867
37.16163148
36.29619837
36.42396312
32.01754452
32.6625956
34.74595401
38.65118673
39.09610137
39.11475459
39.34060731
39.61780949
39.1946817
38.46917126
38.65656308
38.17912087
37.2749995
37.41967301
36.97687217
36.12795444
36.25393553
31.18680412
31.81005147
33.95819501
38.06777129
38.50438038
38.59713031
38.97401523
39.24865234
38.86555784
38.22064452
38.40691962
37.9491406
37.08349069
37.22699469
36.79384896
35.96176995
36.08623629
30.38852778
30.99171802
33.19574918
37.49520599
37.92444923
38.08668965
38.61022369
38.8829143
38.5384264
37.97302694
38.15868666
37.7200055
36.89305742
37.03580406
36.61205204
35.79728505
35.92050863
29.61938808
30.21108811
32.45447266
36.9293684
37.3572572
37.58015863
38.24702264
38.5201903
38.21137628
37.72524786
37.91127406
37.49080811
36.7031167
36.84558098
36.43097492
35.63416596
35.75639845
28.83066511
29.47113101
31.68663788
36.33205275
36.80749796
37.04329702
37.85922659
38.16332829
37.86160876
37.46034879
37.66542905
37.2461351
36.50177195
36.65647611
36.23956084
35.46311744
35.59393724
41.48651157
39.80765367
40.04158584
50.17079206
49.34175085
44.37369045
54.19319611
56.91620679
57.01699907
51.32480956
42.0081596
39.53318629
39.48389963
42.67410897
57.40480534
57.27263662
54.18497398
54.33772991
57.10921096
57.09116668
57.04300913
57.10274178
54.3442583
53.40921952
52.23336847
57.19106216
56.22992875
56.71897175
56.03602672
57.15700909
39.48232591
39.9583319
44.82634044
45.61343944
49.72917382
47.39679448
43.09983339
43.94123606
57.21896848
56.72522399
50.00044025
57.516328
57.38913236
57.52168385
56.84950032
57.25816635
57.44182951
39.47808695
39.37555875
39.59920915
41.77656417
42.63271481
52.01998051
43.67505722
39.54306435
39.80523236
39.38391401
39.83055285
39.56672702
46.5015843
45.41218604
39.59171175
53.93762372
50.45628713
51.20778969
49.6299487
53.44926345
41.44534735
42.24075
46.502668
40.64478747
41.12273365
40.83111997
40.53558565
56.95346648
57.33977806
56.20538389
54.41927699
56.16104927
55.84972731
57.00735267
56.38592499
54.5713668
55.42591452
53.1247985
53.62704246
51.9105735
52.53169943
55.10418022
43.32807532
48.43754359
47.48326846
57.72244186
57.76632484
57.81998983
57.61880288
57.69963547
57.69095625
53.7374687
57.12804334
56.9116336
52.83081279
46.43367356
46.82171612
39.86611945
43.38215342
41.698617
42.04386289
41.53006992
43.37998451
42.88293057
41.10983814
50.26943787
46.50216633
47.08260178
45.24637976
40.17791756
40.83898614
39.55645453
39.7946578
42.92593309
39.87005545
39.35353765
39.37290192
39.89771791
42.50965628
41.4261015
47.02820481
44.1644615
40.2259393
39.62426336
40.05759013
39.89846216
40.74189044
40.29019346
39.59306462
40.78300492
40.19066514
39.39509802
50.95842313
50.87113348
53.22129302
47.53710469
49.11166537
49.21238804
39.43398238
39.55669092
41.03842009
40.2420995
39.38155714
39.46253346
39.39391513
39.379546
39.87727566
40.59872646
40.36959866
39.48737412
45.3559525
42.78356937
42.68696733
41.94922792
44.93541476
40.21812158
40.39074234
40.05242581
39.86840257
39.9207319
39.83482323
39.84297786
39.85954513
38.29355939
37.521168
37.03604289
36.63249842
36.29226163
35.98991237
47.39751354
51.65111986
50.94584266
52.88586165
51.06793717
51.01511617
46.42454484
45.23947407
45.15390591
42.47594703
41.75483074
41.68534754
40.00764131
39.53518504
39.48376755
38.43128313
37.62418701
37.57681222
37.10707472
36.67559585
36.65486275
36.31041679
35.98545053
35.98905793
56.18068748
57.52694381
57.51326519
52.74036971
51.02352305
51.08481485
46.58237678
45.42501801
45.40089843
42.67697647
41.94348436
41.91409318
40.16983471
39.68612255
39.65537631
38.51781402
37.69150979
37.66094894
37.15606244
36.70281958
36.69149544
36.31933767
35.97241674
35.98140595
55.30705685
56.04538314
56.51370672
52.05880474
50.5306846
50.70445357
46.45412957
45.35115944
45.3875859
42.70185635
41.98987488
41.99233561
40.23573411
39.75400604
39.74544547
38.55035878
37.72261834
37.71002235
37.17749232
36.71207404
36.7110726
36.31170737
35.94806823
35.9636915
53.3600369
54.09426207
54.57879828
50.94995385
49.62711497
49.87344972
46.05799979
45.06731478
45.16526018
42.60232614
41.92189385
41.94524177
40.22215031
39.75283157
39.75728156
38.54215179
37.71581301
37.72162602
37.16879515
36.69826718
36.7079207
36.2853154
35.90815194
35.93132112
51.67401735
52.27054155
52.70666835
49.74787662
48.59887356
48.8570432
45.46936217
44.58697995
44.71501569
42.36024385
41.73651419
41.79225945
40.14733282
39.69409754
39.71730978
38.47550356
37.66878379
37.70025243
37.11858085
36.64463621
36.67505591
36.22667189
35.84800966
35.88196112
50.18372717
50.66192399
51.04414965
48.61435306
47.61768204
47.8516215
44.86547159
44.07720756
44.20097095
42.06267538
41.48758701
41.55317784
39.99058701
39.5569481
39.59661038
38.35413768
37.57277069
37.62556793
37.03004148
36.56037219
36.60535976
36.14355054
35.76715196
35.8107858
48.77352057
49.24503692
49.5837895
47.65265773
46.79428883
46.98235033
44.34213876
43.6223277
43.73337168
41.74991467
41.20898818
41.28025303
39.78931689
39.37477729
39.42313551
38.19881624
37.4449406
37.51208831
36.91456522
36.45171711
36.50828924
36.03991793
35.66858457
35.7208524
47.38222682
47.95555236
48.26940831
46.81928286
46.07719603
46.25189152
43.86042972
43.19168068
43.29713786
41.4328922
40.92054053
40.99275935
39.56719159
39.16971524
39.22232211
38.0237506
37.29605717
37.37258817
36.77936723
36.32456739
36.38979856
35.91972956
35.55482632
35.61442071
46.07595111
46.77112938
47.05787169
46.04118953
45.40547512
45.56957555
43.40737667
42.78468438
42.88429999
41.12297121
40.63457954
40.70544429
39.33731921
38.95447436
39.00877575
37.83823967
37.13378887
37.21621933
36.63011906
36.18406027
36.25547856
35.78678518
35.42890212
35.49425454
44.84598282
45.67342503
45.94114384
45.30952655
44.77215265
44.92721503
42.97781669
42.39881952
42.49353587
40.82481229
40.35691452
40.42540334
39.10702661
38.73652504
38.79099072
37.64815735
36.96351492
37.04938379
36.47159118
36.03428055
36.1099513
35.64447035
35.29352678
35.36332235
43.68511049
44.641373
44.89395779
44.61697488
44.17147651
44.31886579
42.56753714
42.03016095
42.12088553
40.53886313
40.08933886
40.15528966
38.88030184
38.52023102
38.5739963
37.4571674
36.78910119
36.87663215
36.30750336
35.87840865
35.9568195
35.49562938
35.15147201
35.2243004
42.58461516
43.66238488
43.90304816
43.95754698
43.59847878
43.73938137
42.17368968
41.67585292
41.76320582
40.26370991
39.83140326
39.8950428
38.6589896
38.30791758
38.36055255
37.26754773
36.61327032
36.70123291
36.14059679
35.71891022
35.79890338
35.34254426
35.00452644
35.07959965
41.53108021
42.72638772
42.95651282
43.32572553
43.04860919
43.18414905
41.79384299
41.33371985
41.41822496
39.9977201
39.58193514
39.64357777
38.44360306
38.1005583
38.1519176
37.08056901
36.43781628
36.52541593
35.97277602
35.55759841
35.63833163
35.1869757
34.85479501
34.93100233
40.51941103
41.82916497
42.05019202
42.7169487
42.517609
42.64879616
41.42558685
41.00173641
41.08388135
39.73944958
39.33971532
39.39964865
38.23395408
37.89831669
37.94840354
36.89687701
36.2638683
36.35060224
35.8053315
35.39579285
35.47665044
35.03022416
34.70295828
34.78011397
39.54711421
40.96232741
41.17659122
42.12652976
42.00178314
42.1295082
41.06675044
40.67809773
40.7583168
39.48771394
39.10370875
39.16218089
38.02962281
37.70100941
37.74989317
36.71671125
36.09209793
36.1776843
35.63910881
35.23441048
35.31497516
34.87327598
34.55083905
34.62788657
38.60962466
40.12070882
40.32885964
41.55157165
41.4981199
41.62300407
40.71546321
40.36121498
40.43987501
39.24146348
38.87298567
38.9302155
37.83008322
37.50826923
37.55604774
36.54007844
35.92286097
36.00715101
35.47463547
35.07409024
35.15407267
34.71678533
34.39797221
34.47541233
37.70333745
39.30343928
39.50549314
40.9903407
41.00468188
41.12722211
40.37024427
40.04979375
40.1272015
38.99980301
38.64674219
38.70292554
37.6348094
37.31967882
37.3664639
36.36685031
35.75630398
35.83924893
35.31221472
34.91522959
34.99444907
34.56128131
34.24654517
34.32296452
36.82592538
38.50922133
38.70582727
40.44274736
40.51948591
40.64005152
40.02985728
39.74272353
39.81914102
38.76190835
38.42422394
38.47954752
37.44324174
37.13475689
37.18067441
36.19678595
35.59239211
35.67403536
35.15197896
34.75808997
34.83644971
34.40700595
34.09457983
34.17147136
35.97511611
37.73566864
37.92729947
39.90553308
40.04197055
40.16065686
39.69338455
39.43914938
39.51475462
38.52706933
38.20475754
38.25937438
37.25483303
36.9530127
36.99818043
36.02956796
35.43101076
35.51143124
34.99394827
34.60277206
34.68025511
34.25426498
33.9456549
34.02059452
35.1494489
36.9818374
37.168731
39.37649895
39.57204926
39.68872322
39.36019578
39.13842475
39.2133671
38.29463468
37.98770031
38.04177276
37.06900492
36.77390495
36.81846478
35.86478491
35.27201243
35.351351
34.83799011
34.44928339
34.52602653
34.10295373
33.79517453
33.87150332
34.34880453
36.24782045
36.43026255
38.85501081
39.10985016
39.22479835
39.02982566
38.84002487
38.91443516
38.06398564
37.77242805
37.82611087
36.88517774
36.59688797
36.64097225
35.70213361
35.11504399
35.19376942
34.68379036
34.29734149
34.37383254
33.95315264
33.64981174
33.72312588
33.57394261
35.53386644
35.71316537
38.34109506
38.65388221
38.76758642
38.70180857
38.54340915
38.61744496
37.83450976
37.5583353
37.61178263
36.70282776
36.42148711
36.46521131
35.54127563
34.9592056
35.03872951
34.53055845
34.14629632
34.22414311
33.80391805
33.49949356
33.57772996
32.82290472
34.83780003
35.01920295
37.83341728
38.20195295
38.31630622
38.37519216
38.24773442
38.32189513
37.60553988
37.34480337
37.39820848
36.52148095
36.24727656
36.29074614
35.38186016
34.80184182
34.88728858
34.37586119
33.99376087
34.07809264
33.65336792
33.35561609
33.43395907
32.08878872
34.15169698
34.35310908
37.32400975
37.74639368
37.87479327
38.04412244
37.9480773
38.02932957
37.37423498
37.12943695
37.18572582
36.33961963
36.07292525
36.11765724
35.21507466
34.6318106
34.74459201
34.2089177
33.82912155
33.93983176
33.490186
33.18725888
33.29963032
54.25037598
55.19250072
55.22585473
51.8734148
48.35156892
48.8323238
40.56950188
40.46284827
43.4971204
55.23358688
55.25497374
54.32478003
56.98589818
57.07865278
54.60697007
54.33039307
51.41161291
42.6962089
42.06660741
40.04256308
40.30218316
40.22041793
40.79685768
44.27310736
43.12019137
52.97509769
55.27495606
55.00753778
40.587165
40.42026656
45.05600037
44.93970842
46.13873524
43.00788847
43.90849404
44.02211842
41.60279655
41.51240277
42.21494499
40.32465842
40.88607989
40.96912241
39.42771284
39.36594269
39.82037293
38.58534554
38.95578121
39.01125963
52.86913559
52.30125297
48.33455777
56.38060708
54.91467868
55.27661214
54.12369885
54.53137921
56.14496588
51.11547263
51.08634667
52.88280673
47.8589522
49.40638712
49.43336115
49.29623285
49.35986429
47.7970134
45.36272909
45.30665449
46.49567376
43.35248808
44.2663984
44.32821239
44.11618225
44.20268294
43.28638547
41.86858708
41.81811585
42.54254688
40.5830632
41.16764374
41.21609659
41.04426392
41.10966748
40.52985553
39.62076091
39.58002316
40.05624711
38.75863174
39.1493812
39.18677817
39.06163643
39.10806912
38.72196096
57.42659681
57.50025145
56.28218087
57.83750362
57.82452277
57.65852311
50.83702347
50.9381236
52.62594372
47.86911978
49.33747863
49.26143802
49.43149053
49.39414985
47.89868612
45.41155891
45.42294527
46.57217338
43.50837854
44.4086705
44.40585324
44.35998773
44.40325441
43.49328913
41.98800613
41.9758397
42.69923829
40.73381146
41.32454096
41.33550286
41.2594148
41.29010785
40.70185884
39.73274167
39.70929302
40.19611091
38.8708449
39.27102413
39.29382604
39.21894346
39.24794028
38.84988147
51.1177763
51.16101709
55.06960362
55.56105986
54.79899901
53.28923447
54.70001215
54.28882518
55.49027106
55.10314151
53.61231303
50.10924549
50.33012233
51.80365113
47.58408064
48.90496104
48.73304409
49.17558551
49.05533485
47.69034236
45.24843313
45.307884
46.39097302
43.46852546
44.33665329
44.29744158
44.39326637
44.36990566
43.49147442
41.96614655
41.98116915
42.68684741
40.76324342
41.34256175
41.3330851
41.34681161
41.34666028
40.76458282
39.75923729
39.75961871
40.2371584
38.91960839
39.32233545
39.32436494
39.30686151
39.31630086
38.91422575
50.34525756
50.61457643
53.15652191
53.61939346
52.9142109
51.90902441
53.04995572
52.64325874
53.87471618
53.4609936
52.25962003
49.11611881
49.37370725
50.65048458
46.9771068
48.1338721
47.91842685
48.54447553
48.34355417
47.14784334
44.83937523
44.95770942
45.92020566
43.28192233
44.08096961
43.98619355
44.24051562
44.16662361
43.3475142
41.8428886
41.88669964
42.55311384
40.72167382
41.27817437
41.24589208
41.3185292
41.30086652
40.73609436
39.7347302
39.74554224
40.21233826
38.91624537
39.31482562
39.30664128
39.32346881
39.32069766
38.92078115
49.24762533
49.51927522
51.43957995
51.84810324
51.28737333
50.52971208
51.46426684
51.0891673
52.24252172
51.84913969
50.86730791
48.09415585
48.34391461
49.45322741
46.2493693
47.2634446
47.04979714
47.69994481
47.48085442
46.43308685
44.32812561
44.45738626
45.31469597
42.94996097
43.67129694
43.56297155
43.88484403
43.77920303
43.03913216
41.61626292
41.67740265
42.28716551
40.59642927
41.11579369
41.06480311
41.2071079
41.16337199
40.63560479
39.63306222
39.6657749
40.11422006
38.85897204
39.24812019
39.21943627
39.29229853
39.27263447
38.88061977
48.13786429
48.42959816
49.93276101
50.29134008
49.82729104
49.26967396
50.0307601
49.70270253
50.72461677
50.37185198
49.56861153
47.18165328
47.39434655
48.35480103
45.55621617
46.45001424
46.26808484
46.84190201
46.64132477
45.72003928
43.84550873
43.95898539
44.72571957
42.5947288
43.25074852
43.15112396
43.45572971
43.35136926
42.68213521
41.3506848
41.41992917
41.98589844
40.40188566
40.89306915
40.83138115
41.0103056
40.95287063
40.45494983
39.46982877
39.51455821
39.94328112
38.73820484
39.11345482
39.07290097
39.18710751
39.15163614
38.77289961
46.79775587
47.17419408
48.58803359
48.9134842
48.4167238
48.20242392
48.78913155
48.5018755
49.38604953
49.08286725
48.45224605
46.42953685
46.61027741
47.43854887
44.97514571
45.77759401
45.6211668
46.09922072
45.93682724
45.11453708
43.40410269
43.51252923
44.21883974
42.24178766
42.8546113
42.75725159
43.05173994
42.95283156
42.3299772
41.06502381
41.13716726
41.67046269
40.17224136
40.63872939
40.57297524
40.76820009
40.70388629
40.23157177
39.27415052
39.32504649
39.73509478
38.57896646
38.94022203
38.89313378
39.03033874
38.98600358
38.62138752
45.32870788
45.68780086
47.3503504
47.64926431
47.04861244
47.24897713
47.67417701
47.40791397
48.22043886
47.94493954
47.48090837
45.7361504
45.90532218
46.6199474
44.44050981
45.1670698
45.02032768
45.46736742
45.31604368
44.57096648
42.98529515
43.08774142
43.7446669
41.89455437
42.47148519
42.3785742
42.66088013
42.56559961
41.98026944
40.77677718
40.84850874
41.35447444
39.92863089
40.37403846
40.30767891
40.5068271
40.44046325
39.99011152
39.0628143
39.11650792
39.5100926
38.39751946
38.74619746
38.69578967
38.84501871
38.79596132
38.44430525
43.93805903
44.27915568
46.21314399
46.48969833
45.76151084
46.35890609
46.63583068
46.38701163
47.14616559
46.88882373
46.5760991
45.08439748
45.24378848
45.85423537
43.93697538
44.59248192
44.45374514
44.87570755
44.73310517
44.06030192
42.58937679
42.68640499
43.29798134
41.56092163
42.10701653
42.01881137
42.28686996
42.19635152
41.64288233
40.4945253
40.56426193
41.04725661
39.68233397
40.10994602
40.04474499
40.24148611
40.1755437
39.74376694
38.84550969
38.90003323
39.27958548
38.20437319
38.54213947
38.49040513
38.64492941
38.59365411
38.25330114
42.61615836
42.94042351
45.14999289
45.40978723
44.54965313
45.52190234
45.66408879
45.43053529
46.14221032
45.90130582
45.72663022
44.4680569
44.61912852
45.13296999
43.45880335
44.04814473
43.91627867
44.31681851
44.18163673
43.57619317
42.21254248
42.30517309
42.87356286
41.24251209
41.76044591
41.67624867
41.93168041
41.84557342
41.32075772
40.22186208
40.2890687
40.75222043
39.43934876
39.85191487
39.78865447
39.97998271
39.91569608
39.49958942
38.62798654
38.68217972
39.04990868
38.00645498
38.33480624
38.28297589
38.43857864
38.3866753
38.05609499
41.360578
41.66872128
44.14638644
44.3922977
43.40475081
44.73028786
44.74979926
44.52926156
45.2003096
44.97356646
44.92428561
43.88179755
44.02580015
44.44921621
43.00226573
43.52979435
43.40382691
43.78597216
43.65716618
43.11454999
41.85135116
41.94032219
42.46762107
40.93761895
41.42877168
41.34787346
41.59293052
41.51045188
41.01270852
39.95923098
40.02398796
40.46912206
39.20249469
39.60202021
39.54085952
39.725918
39.66370858
39.26106883
38.41348852
38.46672106
38.82442422
37.80799854
38.12827888
38.07706828
38.23126754
38.1796795
37.8574881
40.16384354
40.45746343
43.18916261
43.42443531
42.31714569
43.97637598
43.88943788
43.68223055
44.31263744
44.09947886
44.16169317
43.32093075
43.45901902
43.79719309
42.56435889
43.03365474
42.91265649
43.27918485
43.15581139
42.67225308
41.50339492
41.58926109
42.07751005
40.64404883
41.10946609
41.03133512
41.26770848
41.18824748
40.71648924
39.70569098
39.76829362
40.196414
38.97261481
39.36036698
39.30116143
39.48020399
39.42004298
39.02943493
38.20359664
38.2556001
38.6045878
37.61151239
37.92485609
37.87462397
38.0260928
37.97534001
37.66034612
39.02531301
39.3048434
42.2733222
42.49870839
41.27441001
43.25528028
43.07549903
42.87763389
43.47763185
43.27544845
43.43265934
42.78098584
42.91424675
43.17153899
42.14210648
42.55602278
42.43907745
42.79275393
42.67389269
42.24636409
41.16657318
41.24985018
41.70078343
40.35994968
40.80054259
40.72472362
40.95382039
40.87689661
40.43017567
39.45998459
39.52074654
39.9324798
38.74947611
39.1261994
39.06871525
39.24240661
39.18408947
38.80466044
37.99880145
38.04952466
38.39066844
37.4183049
37.72559409
37.67646936
37.8246734
37.77498696
37.4662451
37.93831174
38.20567983
41.39243951
41.60994818
40.27280001
42.56261867
42.29536564
42.10432205
42.68172717
42.48769619
42.73341369
42.25802444
42.38737489
42.56785915
41.73261659
42.09338701
41.97971089
42.32302716
42.20781048
41.83393634
40.83898028
40.92011251
41.33507342
40.08378804
40.50028795
40.4264046
40.64942684
40.57462104
40.15215726
39.22099679
39.28017073
39.67594631
38.53247224
38.89860022
38.84262969
39.01163163
38.95492975
38.58618361
37.79906748
37.84854183
38.18239281
37.22894072
37.5308219
37.48283058
37.62764125
37.57908556
37.27589429
36.89592452
37.15261257
40.5384982
40.74965376
39.30971061
41.89679885
41.53917893
41.35342356
41.91460746
41.7262385
42.06103783
41.74856954
41.87481514
41.98139952
41.33336921
41.64274187
41.53165695
41.86673587
41.75442365
41.43234366
40.5189033
40.59830147
40.97828581
39.81427532
40.20721992
40.13492067
40.35294437
40.27988798
39.88109671
38.98774283
39.045568
39.4256752
38.32094627
38.67672804
38.62206329
38.78700101
38.7317033
38.37335231
37.60409669
37.65241459
37.97931048
37.04357906
37.34050807
37.2935994
37.43512111
37.38767581
37.08953591
35.89380922
36.14068389
39.70899981
39.91406618
38.38028109
41.25161699
40.80360262
40.62256158
41.16890379
40.98565589
41.41128957
41.25024201
41.37387647
41.41003601
40.94228335
41.20167003
41.0926871
41.42112303
41.31113937
41.03938047
40.20489671
40.28289586
40.62864191
39.55026529
39.92002735
39.84901823
40.06295866
39.99133507
39.61580651
38.75935332
38.81603646
39.18065105
38.11422921
38.45979269
38.40624976
38.56768686
38.51360125
38.16549153
37.4134852
37.46075239
37.78088676
36.86212527
37.15441022
37.10850835
37.246949
37.20055139
36.90712149
34.92908665
35.16677269
38.90364346
39.1028655
37.48147938
40.62170877
40.08564893
39.90862523
40.44258448
40.26362468
40.7780792
40.76109305
40.88263625
40.85229059
40.55777808
40.76843485
40.66116458
40.98417419
40.87609812
40.65336355
39.89577834
39.97265841
40.28473734
39.2907892
39.63761814
39.56764993
39.77828914
39.70782648
39.35528372
38.53506498
38.59079334
38.94000685
37.91170129
38.24709111
38.19449852
38.35295724
38.29990682
37.96197574
37.22679243
37.27312568
37.58659266
36.68436914
36.9722058
36.92721613
37.06284689
37.01741073
36.72846958
33.99888349
34.22801781
38.1199633
38.31402324
36.61101299
40.00339466
39.38320975
39.2098826
39.73256275
39.55740706
40.15688864
40.27981277
40.39941505
40.30757825
40.17855358
40.34155638
40.2357246
40.55427169
40.44773116
40.27291786
39.5905456
39.66653218
39.94540223
39.03497341
39.35903562
39.28989794
39.49790548
39.42836505
39.09862485
38.31415125
38.36909816
38.70293889
37.71273686
38.03794003
37.9861358
38.14211541
38.08992768
37.76217561
37.04352138
37.08904499
37.39586626
36.50999201
36.7934868
36.74930283
36.88244027
36.8378595
36.55328027
33.10046996
33.32142497
37.35630243
37.54553151
35.7668252
39.3959609
38.69592002
38.52641792
39.03760765
38.86624533
39.54684932
39.8058974
39.92364954
39.77264211
39.80373988
39.92022376
39.81566159
40.13022842
40.0250585
39.8970608
39.28846361