/*--------------------------------*- C++ -*----------------------------------*\
| =========                 |                                                 |
| \\      /  F ield         | OpenFOAM: The Open Source CFD Toolbox           |
|  \\    /   O peration     | Version:  v2012                                 |
|   \\  /    A nd           | Website:  www.openfoam.com                      |
|    \\/     M anipulation  |                                                 |
\*---------------------------------------------------------------------------*/
FoamFile
{
    version     2.0;
    format      ascii;
    class       surfaceScalarField;
    location    "2.61";
    object      meshPhi;
}
// * * * * * * * * * * * * * * * * * * * * * * * * * * * * * * * * * * * * * //

dimensions      [0 3 -1 0 0 0 0];
oriented        oriented;


internalField   nonuniform List<scalar> 
6430
(
0
0
0
0
0
0
0
0
0
0
0
0
0
0
0
0
-1.189722157e-05
0
1.570182042e-05
3.075551657e-05
3.552736702e-05
-8.988198621e-05
-0.0001594845422
9.633935292e-05
0.0002552277724
-0.0002608450031
-0.0006295406644
0.000263809332
0.0007637226683
-0.0002793583524
-0.001120102955
0.0002821634899
0.00120549893
-0.0001515228332
-0.001316529529
0.00015194599
0.0006554603661
0.0006606460063
-1.665828357e-05
-0.0003267354796
1.674806355e-05
0.0003266456996
0
0
0
0
0
0
0
0
0
0
0
0
0
0
0
0
-1.772401205e-05
0
1.454220311e-05
4.336141903e-05
4.017469688e-05
-0.0001061071739
-0.0001955793592
0.000102769388
0.0003058091145
-0.0002741989154
-0.0007153967923
0.0002698723591
0.0008587053093
-0.0002779383837
-0.001224881709
0.0002771606307
0.00130848602
-0.0001489655679
-0.00140084198
0.0001489655679
0.0006979670092
0.0007028749705
-1.573706498e-05
-0.0006979670092
2.999122962e-05
-1.425416465e-05
0.000348166939
0.0003498000702
0
0
0
0
0
0
0
0
0
0
0
0
0
0
0
0
-9.004445598e-06
0
3.279789502e-06
2.077957892e-05
1.31316996e-05
-7.947549725e-05
-0.000146602082
6.84664215e-05
0.0002473815022
-0.0002370139713
-0.0006483805309
0.0002198295321
0.0007957633336
-0.0002666814187
-0.001194464985
0.0002586904673
0.001296009998
-0.0001553141591
-0.001468546219
0.0001595793033
0.001483309295
-2.999122963e-05
-0.001484932755
5.405177839e-05
0.001484932755
-2.406054877e-05
0
0
0
0
0
0
0
0
0
0
0
0
0
0
0
0
-7.970621745e-08
0
0
1.181632119e-07
0
-3.299810543e-05
-5.162237568e-05
2.239381869e-05
0.0001164102456
-0.0001543293859
-0.0004323367008
0.0001298743162
0.0005631215075
-0.0002159606824
-0.0009588627342
0.000195587312
0.00107606107
-0.0001571488457
-0.001340805521
0.0001502607184
0.00139729291
-5.571310472e-05
-0.001486056785
5.519349654e-05
0.001494977612
0
0
0
0
0
0
0
0
0
0
0
0
0
0
0
0
0
0
0
0
0
-2.234577909e-06
-1.201297737e-07
3.622227658e-07
9.075424697e-06
-6.002658174e-05
-0.0001583764685
4.076895748e-05
0.0002416911518
-0.0001233993169
-0.0005398452863
9.856783395e-05
0.0006417712189
-0.0001133369625
-0.0009074457832
9.728940046e-05
0.0009750985799
-4.77934956e-05
-0.001100495094
4.337371888e-05
0.0011157613
0
0
0
0
0
0
0
0
0
0
0
0
0
0
0
0
0
0
0
0
0
0
0
0
0
-4.457686224e-06
-4.176407984e-06
6.807682955e-07
1.944586441e-05
-3.499415015e-05
-0.0001357697947
2.006263227e-05
0.0001890427534
-4.776785529e-05
-0.000352784629
3.328341909e-05
0.0004004062887
-2.598914409e-05
-0.0004973768259
1.970981361e-05
0.0005110141256
0
0
0
0
0
0
0
0
0
0
0
0
0
0
0
0
0
0
0
0
0
0
0
0
0
0
0
0
0
-1.041871803e-07
0
0
7.108660613e-07
-4.317740546e-06
-1.949150672e-05
6.743268249e-07
3.020975638e-05
-4.318562276e-06
-5.883672409e-05
1.448002793e-06
6.385680793e-05
0
0
0
0
0
0
0
0
0
0
0
0
0
0
0
0
0
0
0
0
0
0
0
0
0
0
0
0
0
0
0
0
0
0
0
0
0
0
0
0
0
0
0
0
0
0
0
0
0
0
0
0
0
0
0
0
0
0
0
0
0
0
0
0
0
0
0
0
0
0
0
0
0
0
0
0
0
0
0
0
0
0
0
0
0
0
0
0
0
0
0
0
0
0
0
0
0
0
0
0
0
0
0
0
0
0
0
0
0
0
0
0
0
0
0
0
0
0
0
0
0
0
0
0
0
0
0
0
0
0
0
0
0
0
0
0
0
0
0
0
0
0
0
0
0
0
0
0
0
0
0
0
0
0
0
0
0
0
0
0
0
0
0
0
0
0
0
0
0
0
0
0
0
0
0
0
0
0
0
0
0
0
0
0
0
0
0
0
0
0
0
0
0
0
0
0
0
0
0
0
0
0
0
0
0
0
0
0
0
0
0
0
0
0
0
0
0
0
0
0
0
0
0
0
0
0
0
0
0
0
0
0
0
0
0
0
0
0
0
0
0
0
0
0
0
0
0
0
0
0
0
0
0
0
0
0
0
0
0
0
0
0
0
0
0
0
0
0
0
0
0
0
0
0
0
0
0
0
0
0
0
0
0
0
0
0
0
0
0
0
0
0
0
0
0
0
0
0
0
0
0
0
0
0
0
0
0
0
0
0
0
0
0
0
0
0
0
0
0
0
0
0
0
0
0
0
0
0
0
0
0
0
0
0
0
0
0
0
0
0
0
0
0
0
0
0
0
0
0
0
0
0
0
0
0
0
0
0
0
0
0
0
0
0
0
0
0
0
0
0
0
0
0
0
0
0
0
0
0
0
0
0
0
0
0
0
0
0
0
0
0
0
0
0
0
0
0
0
0
0
0
0
0
0
0
0
0
0
0
0
0
0
0
0
0
0
0
0
0
0
0
0
0
0
0
0
0
0
0
0
0
0
0
0
0
0
0
0
0
0
0
0
0
0
0
0
0
0
0
0
0
0
0
0
0
0
0
0
0
0
0
0
0
0
0
0
0
0
0
0
0
0
0
0
0
0
0
0
0
0
0
0
0
0
0
0
0
0
0
0
0
0
0
0
0
0
0
0
0
0
0
0
0
0
0
0
0
0
0
0
0
0
0
0
0
0
0
0
0
0
0
0
0
0
0
0
0
0
0
0
0
0
0
0
0
0
0
0
0
0
0
0
0
0
0
0
0
0
0
0
0
0
0
0
0
0
0
0
0
0
0
0
0
0
0
0
0
0
0
0
0
0
0
0
0
0
0
0
0
0
0
0
0
0
0
0
0
0
0
0
0
0
0
0
0
0
0
0
0
0
0
0
0
0
0
0
0
0
0
0
0
0
0
0
0
0
0
0
0
0
0
0
0
0
0
0
0
0
0
0
0
0
0
0
0
0
0
0
0
0
0
0
0
0
0
0
0
0
0
0
0
0
0
0
0
0
0
0
0
0
0
0
0
0
0
0
0
0
0
0
0
0
0
0
0
0
0
0
0
0
0
0
0
0
0
0
0
0
0
0
0
0
0
-0.0003257316331
0.0003257333821
-1.666003254e-05
-0.0003471809583
0.0003471809583
-1.573706497e-05
-0.001295665211
-0.0001516519448
0.0006452863339
0.0006505079882
3.774041309e-05
0.0003246925272
-3.764197958e-05
-0.0006505225938
-0.001350423339
-0.0001486632385
0.0006573897921
0.0006927312172
3.592452798e-05
0.0003455502589
-3.592452797e-05
-0.0006927312172
0.0003286884758
-0.0006554199915
3.77364493e-05
1.665260783e-05
-0.0003362499994
0.0003362195056
-1.662211408e-05
2.985109947e-06
0.0001673968622
-2.623185909e-06
-0.0001677587862
-2.370174861e-06
0.0001625123854
-0.0001626578012
2.515590726e-06
-0.0007346126896
0.0007346126896
-2.999122962e-05
0.000162798453
-2.274860473e-06
-0.0001628937673
2.100788208e-06
0.0001625982625
-1.900597777e-06
0.0003500608061
6.315406098e-06
-0.000348476527
-4.463466319e-06
-3.436218971e-06
0.0001677309961
-0.000167919522
3.173635779e-06
-0.0003374375148
1.671667464e-05
0.000337373448
-2.85229547e-06
2.982173673e-06
0.0001676011179
3.868544672e-06
0.0003500440111
-3.062293273e-06
-7.894563087e-07
2.31082307e-06
0.0001623023505
-2.587681485e-06
0.0001671322482
-0.0001641991898
-1.980246854e-06
-3.829138916e-06
0.0001656304451
-0.0001658027799
4.001473677e-06
-1.105129972e-05
-0.0003321612295
1.108537712e-05
0.0003321271521
1.108720089e-05
-0.0003361906861
-1.093478784e-05
0.0001678350907
0.0001682031824
-1.09985906e-05
-0.0003265970171
1.108027694e-05
0.0003265153308
-0.0003308254772
0.000330801977
-1.102779954e-05
0.0001648890432
-3.594889037e-06
-0.0001651232931
-3.383780872e-06
0.0001607642101
-0.0001608565981
3.476168806e-06
-1.100043786e-05
-0.0003221818538
1.102681394e-05
0.0003221554777
-0.0003257127898
0.0003257151598
-1.100096063e-05
-0.0003206052827
0.0003206411244
-1.103627962e-05
0.0001603372646
-3.265832797e-06
-0.0001604552126
3.111621861e-06
0.0001601911995
-2.96555677e-06
3.285685086e-06
0.0001605901469
-0.0003373147936
1.120492357e-05
0.0001684320113
0.0001687650596
2.402535374e-05
-0.0003724261146
-1.612409485e-05
0.000175100342
0.0001894245138
0.000190819591
9.876358779e-06
-5.665130993e-06
-0.0001950308188
4.655000444e-05
-9.377668735e-06
0.0001536472553
2.916869791e-06
-3.0002509e-06
-0.0001702325747
-8.225104412e-07
0.0001681153662
-0.0001684410336
1.148177867e-06
3.670240756e-06
0.0001645867768
-3.367974373e-06
-3.966725218e-05
1.187344495e-05
-0.0001364053826
0.0001677933622
-3.710456349e-07
-0.000168244827
0.0001679188146
-0.000210059451
2.473384215e-06
3.97952341e-06
0.0001653211625
-8.783349791e-07
1.175601928e-06
-7.189267381e-07
-0.001459891553
0.001463602797
-0.0001505713996
7.778117497e-05
-0.00146365203
0.0007290393406
-4.1856647e-05
-3.592452797e-05
-0.0006979670092
3.592452797e-05
2.999122963e-05
-0.0007136719534
0.0007136719534
-2.999122962e-05
0.0007136719534
1.219602877e-05
-1.219602877e-05
-0.0007136719534
0.0003494514043
-0.0003488137829
5.677784707e-06
0.000168782557
-2.82151028e-06
-0.0001684953621
2.534315325e-06
-4.168636861e-06
-0.000167930544
4.084040449e-06
0.0001680151404
4.100844389e-06
-0.0001681543105
0.0001680834808
-4.030014763e-06
3.87262093e-06
0.0003494473281
6.264329701e-06
0.0007136719534
-6.2643297e-06
2.463275623e-06
-0.0001585613372
0.0001584124208
-2.314359247e-06
-3.088758274e-06
-0.0001631307697
2.327983417e-06
0.0001638915445
0.0002278588852
-0.0001860872069
-3.189531952e-05
-0.0003174874608
9.819856561e-06
0.0001751944505
0.0001564985075
-0.0003471837196
1.013054485e-05
0.0003468627371
-9.809562381e-06
-0.000168363933
4.197356976e-06
0.0001682674204
4.362900049e-06
-0.000169708665
0.0001697011664
-4.355401405e-06
0.0001690975768
3.947914885e-06
-3.671315784e-06
-0.0001693741759
1.666296038e-06
3.315601339e-06
-3.261447658e-06
0.0001690434231
-3.655763017e-05
0.0001674019937
5.000487253e-06
-0.0001358448508
0.0003471809125
-8.971572323e-07
1.216095809e-06
-0.0003474998511
-0.0001657508737
2.446598552e-06
0.0002744088897
2.847803019e-06
-0.0001644112466
0.0001642178239
-2.654380358e-06
3.656512756e-05
-8.31985521e-06
0.0001405372847
-4.439800522e-06
-0.0001658718794
4.409690319e-06
0.0001659019896
-0.000166920342
0.0001670843082
-4.33260308e-06
0.0001685557981
-3.6226349e-06
-0.0001677546735
0.0001647053102
-3.035437682e-06
-0.0001648815011
3.211628562e-06
-4.280023661e-06
-0.0001651021234
4.292549497e-06
0.0001650895975
-0.0001653991585
0.0001653177464
-4.358388458e-06
-0.0001587422936
2.611450804e-06
0.0001585941184
-0.0001625920028
0.0001629437094
-3.440464914e-06
0.0001695633324
-0.0001699950021
4.379584556e-06
-0.0001700484397
4.316666009e-06
0.0001700946737
2.297916537e-06
-0.0001892086644
0.0001903871193
-3.476371359e-06
0.0001629835497
-2.539429753e-05
7.215884792e-06
-0.000144805137
0.0001697963075
-0.0002109158393
4.561901597e-06
3.999082664e-06
0.0001688798511
5.664864329e-06
-3.672310504e-05
0.0001679550334
-0.0001368967927
1.223570282e-06
0.0001685838885
-2.405465042e-06
2.585806328e-06
0.0001691411077
-2.375642031e-06
-0.000169351272
3.012226883e-06
0.0001645408864
2.364548856e-05
-0.0002307042884
-1.638549814e-07
0.0001679188549
-0.0001679233675
1.683676347e-07
0.0001660351977
-2.305676493e-05
-0.0001373135685
0.0001678159726
5.88702805e-07
-0.0001685685304
0.0002094415366
-4.320610931e-06
-4.12284546e-06
-0.0001628641003
4.166464817e-06
0.000162820481
-0.0001648422411
0.0001648230492
-4.260831735e-06
-2.829958296e-06
-0.000164616726
-3.136111646e-06
-0.0001626672487
2.672590657e-06
-4.22766241e-06
-0.0001622646268
4.184957351e-06
0.0001623073319
-0.0001629139526
0.0001629386657
-4.147558516e-06
-5.779541377e-07
1.856656842e-06
0.0001613195598
-0.0001630760119
8.667799779e-06
0.0001538302579
-1.887862328e-06
-0.0001630887473
3.233740629e-06
-0.0001680049141
0.0001677533471
0.0001627097865
2.434920276e-06
-0.0001628338837
-2.305569026e-06
2.457752739e-06
0.0001625576028
0.0001618534383
-1.062593767e-06
-0.0001676092688
0.0001660841811
-4.323095276e-06
-0.000160919814
4.320584855e-06
0.0001609223244
-0.0001619136279
0.0001619855266
-4.299561109e-06
-3.448962023e-06
-0.0001622791524
-2.887218924e-06
-0.0001588585071
3.003432493e-06
-4.23259506e-06
-0.0001589892901
4.254039126e-06
0.0001589678461
-0.0001605938894
0.0001605698992
-4.299105013e-06
-2.660545355e-06
2.850419086e-06
0.0001600013257
-0.0001597218368
0.0001595588821
-2.49759065e-06
-0.0001598987206
-2.788673002e-06
0.0001610810523
3.429013155e-06
-0.0001612243804
-3.060739311e-06
3.339762138e-06
0.0001608020295
0.0001603798267
-0.0001773126288
0.0001763621948
-4.71469704e-06
3.155829285e-06
-3.978899667e-06
-0.0001764895584
5.334635048e-07
-0.000192408453
0.000176241251
2.196490678e-05
-0.0001982061577
-4.161920628e-06
0.0001711464467
-0.0001689484077
2.53977558e-06
1.575899894e-06
0.0001694439779
-8.752196925e-07
0.000163669971
1.887983949e-07
-2.701584179e-06
3.066747137e-06
0.0001642216138
-0.0001645115337
-2.542613525e-06
0.000164352563
-3.176218644e-06
-0.0001647032894
-3.065538889e-06
-0.0001433743328
2.165127319e-05
-0.0002317107241
0.0001645317083
-7.023186543e-06
-0.0001358572486
3.641462457e-08
0.0001669686779
0.0001661697859
4.265866801e-06
-0.0001664561293
-3.312279138e-06
5.35617484e-06
0.0001641258902
0.0001650756305
-4.81288646e-07
1.146966929e-06
1.759302744e-06
-0.0001583329574
0.0001582982395
1.916593123e-06
-0.0001582772754
0.000158119985
-0.0002038166803
-1.921482607e-05
0.0002230315063
0.0001636959048
-0.0001632557837
3.63109662e-05
0.0001360527384
-3.614169537e-06
-0.0001779026198
2.145312264e-06
0.0001780552241
4.907277457e-06
-0.000172317309
0.000172649785
-5.239753374e-06
0.0001797021044
7.86870682e-06
-1.232731616e-05
-0.0001752434951
-0.000168953397
0.0001686742766
-3.39219534e-06
3.753256111e-06
-3.518607681e-06
-0.0001691880455
3.991226491e-06
-0.0001696121463
0.0001686465696
-2.395808981e-05
0.0001662728657
-0.0001373142886
0.0002126055155
-0.0002365636053
7.10697138e-06
0.000190657134
-1.806200094e-05
-3.745167545e-06
0.000175759402
6.572528205e-06
-0.0001785867627
0.0001513676179
-0.0001811507023
4.38878694e-06
-2.521990594e-06
2.529058081e-06
0.0001642107564
-0.0001634983274
0.0001634340896
-0.0001637177875
-0.0001682124419
0.0001588299929
2.237496786e-06
-2.199668285e-06
0.0001595210536
2.303591156e-06
0.0001599352314
2.072993884e-06
-0.0001584595954
0.0001583031946
-0.0001589361312
0.0001588094568
-3.624560532e-06
0.0001629541004
-0.0001618094287
0.0001615246303
-0.0001618208804
4.814296818e-06
-2.638005963e-06
0.0001593483394
0.0001485535711
2.422610348e-06
0.0001602608075
0.0001605866338
4.114798297e-06
-0.0001701185739
0.0001720084881
-0.0001718725894
0.0001716733756
-0.0001588013732
-2.589572754e-06
0.0001686068308
-3.096665182e-05
3.240521692e-06
-0.0001310752431
4.694621607e-07
2.433744725e-05
-0.0002352532865
0.0001635803627
-0.0001360023937
0.0001655526915
0.0001715105376
0.000170386912
5.495498484e-06
-1.69271613e-06
0.0001698772896
2.202338455e-06
-2.090668143e-06
0.0001683529854
0.0001645885839
-0.0001647525757
-2.536324188e-06
0.0001645822946
0.0001645336203
-0.0001388085133
6.065334661e-06
-3.743559961e-05
0.0001664985603
-0.0001351282953
-2.253903454e-05
0.0001653304675
-0.0001367260983
-4.431356986e-06
0.0001683758866
-0.0002107017021
0.0001688347455
-0.0002337584671
0.0002106485701
-0.0002331876047
-0.0001659505684
0.0001665756858
-3.82371549e-05
-0.0001347366
3.842884852e-06
-2.05609452e-05
0.0002300024818
-0.0001673263182
0.0001521215479
-0.0001673810624
-0.0001524444697
0.0002475397012
-8.994059701e-05
0.0006153158837
0.0002270916906
-0.000223154791
-0.0004838373886
0.0007474338812
-0.0002590107179
0.001097734785
0.0002949045818
-0.0002938665158
-0.0009937489036
0.001182938087
-0.0002787436643
0.0001805773002
-0.0001813500593
-0.001283950369
-0.0001848563724
0.0002889124668
-0.0001039448652
0.0006772897242
0.0002407492135
-0.0002390994605
-0.0005402815102
-0.0004894456582
0.0002291762406
0.0008143807054
-0.0002731265198
0.001170238118
0.0002970888667
-0.0002980319174
-0.001066200937
-0.001014389126
0.0002943040793
0.001253563979
-0.0002793942383
0.0001749391513
-0.0001761038246
-0.001344589477
-0.001306167407
0.0001797804651
0.0001557202939
-0.001341634857
0.0006658984376
0.0006719621156
6.10341498e-05
0.0006717958982
-6.102870833e-05
-0.0006718013397
-6.101434766e-05
0.0006554238545
-0.0006554287034
6.10191965e-05
1.665358274e-05
-0.0003309102847
0.0003308790506
-1.662234861e-05
1.245448534e-05
-1.242738809e-05
-0.0003308525744
-1.241375428e-05
-0.0003265916464
1.240838358e-05
-0.0001654173491
0.000270944977
-8.914605072e-05
0.0006801882532
0.0002027096972
-0.0002170189841
-0.00053399235
-0.000571393166
0.00023622149
0.0008278478672
-0.0002512006501
0.001218812425
0.000276936487
-0.0002854257478
-0.00110273582
-0.001118978744
0.0002951406698
0.001314709737
-0.0002720585729
0.0001879059421
-0.0001842119789
-0.001435823181
-0.001396536671
0.0001764431029
0.001422108115
0.0001489918998
-0.001422108849
0.0001252346182
0.0007136719534
-6.5581873e-05
-5.965274525e-05
0.0007084361614
-5.965274525e-05
0.0006979670092
-0.0006979670092
5.965274523e-05
2.999122962e-05
-0.0007028749705
0.0003507836191
0.0003520913514
1.128823456e-05
0.0003520913514
-1.128823456e-05
-0.0003520913514
-1.128915502e-05
0.0003481678595
-0.000348166939
1.128823455e-05
-7.554573169e-05
0.0001517622409
-4.462328968e-05
0.0004970992984
0.0001231769863
-0.0001452672308
-0.0003671331685
-0.0005037723082
0.0001856600827
0.0006347516616
-0.0001779432986
0.001038478744
0.0002129051696
-0.0002334524888
-0.000910649415
-0.001074320596
0.0002655550552
0.001153834479
-0.0002334191669
0.001401629696
0.0001795354502
-0.0001861993195
-0.001336467424
-0.00143352755
0.0001899595101
0.001450088163
-0.0001609141685
0.001517620681
8.102226875e-05
-8.076052363e-05
-0.001505314285
-0.001484932755
7.778117495e-05
0.001523230438
-5.5346669e-05
-3.471022051e-06
2.641247169e-05
-6.539311369e-06
0.0002233795644
4.036653553e-05
-5.860441695e-05
-0.0001391225889
-0.0003109479773
0.0001008160652
0.0003213210046
-8.184890956e-05
0.0006537280606
0.0001130429717
-0.0001390448984
-0.0005409169668
-0.0008314488066
0.0001898549289
0.0007630682175
-0.0001484869043
0.00103919069
0.000123050551
-0.0001407724313
-0.0009581797555
-0.001268442642
0.0001695541716
0.001107263874
-0.0001279243589
0.001230272628
6.63755132e-05
-7.227893648e-05
-0.001202735593
-0.001468017022
7.96895474e-05
0.001244763617
-5.126111655e-05
0
0
0
2.117211428e-05
9.40097567e-07
-4.977155338e-06
-4.033615053e-06
-8.970274021e-05
2.500373034e-05
5.401888053e-05
-1.25387449e-05
0.0002201487221
2.707157643e-05
-4.41695823e-05
-0.0001565248907
-0.000436549831
8.794595736e-05
0.0002877516909
-5.350753415e-05
0.0004843587793
4.815409387e-05
-6.580036559e-05
-0.000422592445
-0.0008281604813
0.0001040883245
0.0005393425478
-6.374464401e-05
0.0006484817536
3.364033178e-05
-4.250444902e-05
-0.0006224939352
-0.00107196116
5.924933989e-05
0.0006632515225
-3.223709093e-05
0
0
0
0
0
0
0
0
0
0
0
4.18111081e-06
0
-7.317138361e-07
-2.767649858e-07
-8.783887041e-05
1.394645798e-05
1.2633104e-05
-2.496306837e-06
6.514701852e-05
3.161973866e-06
-9.638385791e-06
-4.496643067e-05
-0.000300180006
3.252539059e-05
8.552255723e-05
-1.112890385e-05
0.000132886883
5.056438811e-06
-1.033450195e-05
-0.0001206136753
-0.0004739071257
2.502841595e-05
0.0001405250915
-8.517371065e-06
0
0
0
0
0
0
0
0
0
0
0
0
0
0
0
0
0
0
0
0
0
0
0
-1.045595735e-05
2.363199073e-07
0
0
0
0
0
0
-5.101960443e-05
1.572969935e-06
0
0
0
0
0
0
0
0
0
0
0
0
0
0
0
0
0
0
0
0
0
0
0
0
0
0
0
0
0
0
0
0
0
0
0
0
0
0
0
0
0
0
0
0
0
0
0
0
0
0
0
0
0
0
0
0
0
0
0
0
0
0
0
0
0
0
0
0
0
0
0
0
0
0
0
0
0
0
0
0
0
0
0
0
0
0
0
0
0
0
0
0
0
0
0
0
0
0
0
0
0
0
0
0
0
0
0
0
0
0
0
0
0
0
0
0
0
0
0
0
0
0
0
0
0
0
0
0
0
0
0
0
0
0
0
0
0
0
0
0
0
0
0
0
0
0
0
0
0
0
0
0
0
0
0
0
0
0
0
0
0
0
0
0
0
0
0
0
0
0
0
0
0
0
0
0
0
0
0
0
0
0
0
0
0
0
0
0
0
0
0
0
0
0
0
0
0
0
0
0
0
0
0
0
0
0
0
0
0
0
0
0
0
0
0
0
0
0
0
0
0
0
0
0
0
0
0
0
0
0
0
0
0
0
0
0
0
0
0
0
0
0
0
0
0
0
0
0
0
0
0
0
0
0
0
0
0
0
0
0
0
0
0
0
0
0
0
0
0
0
0
0
0
0
0
0
0
0
0
0
0
0
0
0
0
0
0
0
0
0
0
0
0
0
0
0
0
0
0
0
0
0
0
0
0
0
0
0
0
0
0
0
0
0
0
0
0
0
0
0
0
0
0
0
0
0
0
0
0
0
0
0
0
0
0
0
0
0
0
0
0
0
0
0
0
0
0
0
0
0
0
0
0
0
0
0
0
0
0
0
0
0
0
0
0
0
0
0
0
0
0
0
0
0
0
0
0
0
0
0
0
0
0
0
0
0
0
0
0
0
0
0
0
0
0
0
0
0
0
0
0
0
0
0
0
0
0
0
0
0
0
0
0
0
0
0
0
0
0
0
0
0
0
0
0
0
0
0
0
0
0
0
0
0
0
0
0
0
0
0
0
0
0
0
0
0
0
0
0
0
0
0
0
0
0
0
0
0
0
0
0
0
0
0
0
0
0
0
0
0
0
0
0
0
0
0
0
0
0
0
0
0
0
0
0
0
0
0
0
0
0
0
0
0
0
0
0
0
0
0
0
0
0
0
0
0
0
0
0
0
0
0
0
0
0
0
0
0
0
0
0
0
0
0
0
0
0
0
0
0
0
0
0
0
0
0
0
0
0
0
0
0
0
0
0
0
0
0
0
0
0
0
0
0
0
0
0
0
0
0
0
0
0
0
0
0
0
0
0
0
0
0
0
0
0
0
0
0
0
0
0
0
0
0
0
0
0
0
0
0
0
0
0
-1.2387155e-05
-0.0003257393891
-1.242536234e-05
-0.0003221476287
1.239113731e-05
-1.669764154e-05
-0.0003221081449
1.666616307e-05
0.0003221396234
-1.129086647e-05
-0.0003471820081
-1.248127958e-05
-0.0003163015202
1.129533896e-05
-1.741353976e-05
-0.0003147013494
1.573706499e-05
0.0003163778242
-2.38152188e-06
2.380743235e-06
0.0006505362856
-6.104724778e-05
-0.0006505033855
0.0006346122376
-0.0006346104471
6.101205866e-05
-0.00127440601
0.0006346076529
0.0006397941539
0.0003177653704
-0.0006346284576
3.764345277e-05
5.518233847e-05
0.0006346130625
5.515208981e-05
0.0006505378495
-5.515365373e-05
0.0006927312172
-5.965274524e-05
-0.0006927312172
0.0006813179851
-0.000681351735
6.106789976e-05
-0.001378829328
0.000682466763
0.0007034196199
-3.780402404e-05
0.0003395253007
-0.0006814643388
4.230554728e-05
-5.516562001e-05
5.504380362e-05
0.0006814398015
5.372062622e-05
0.0006927312172
-5.372062622e-05
5.515485847e-05
0.0006554210859
0.0006717915125
-5.516123423e-05
0.0003353407036
-3.758104259e-05
-0.0006718136844
1.245195934e-05
-1.242372023e-05
-0.0003362189253
-0.0003321608648
1.245412069e-05
-0.0003321579173
1.665298048e-05
0.0003321585195
-0.0001677136282
-2.518826536e-06
2.909221924e-06
-2.848237236e-06
-0.0001677746128
3.112755576e-06
-0.0001679623198
3.057018422e-06
-2.965405399e-06
-0.0001627494142
0.0001629753238
-0.0001630603754
3.142070045e-06
2.657030755e-06
0.0007346126896
1.219602876e-05
-1.219602877e-05
-0.0007346126896
0.0007189077454
-0.0007189077454
1.219602877e-05
-0.0007189077454
2.999122961e-05
0.0007189077454
6.264329693e-06
0.0007189077454
6.264329696e-06
0.0007346126896
-6.264329695e-06
-0.0003484904573
-2.058394473e-06
-0.0003520913629
2.058289748e-06
-0.0001630096751
-2.353932643e-06
2.916478161e-06
-2.987744998e-06
-0.0001629384083
-0.0001629426946
-0.0001588159373
0.0001587908747
-4.20753251e-06
-2.79881202e-06
-0.0001586497441
-0.0003206172452
0.0003206217642
-1.67021606e-05
-1.240087205e-05
-0.000320629773
0.0001790179287
-0.0001764907057
5.341483847e-06
-0.0001729488802
4.574901535e-06
0.0001732812562
-0.0003475100905
7.484155438e-06
-4.253361647e-06
-4.197230249e-06
3.316045401e-06
-0.0001681228118
0.0001682234736
-0.0001684260359
-0.0003697776734
0.0003704223251
-1.805819153e-05
-1.258088565e-05
-0.0003723265086
-0.0003373440369
1.248120262e-05
0.0003484559436
1.429714994e-06
-4.247375434e-07
5.830900007e-07
0.0001748278994
-0.0001776807588
-8.923081357e-07
3.673205277e-06
0.0001824516948
4.030476878e-06
-3.95747301e-06
-0.0001658757837
0.0001664954714
-0.0001664179472
3.952952681e-06
4.040815776e-06
0.0003332828057
1.121367663e-05
-0.0003334111052
-9.755310444e-06
4.612907773e-06
0.0001664224675
5.082398855e-06
-9.77246525e-06
0.0001662724275
4.567480091e-06
-4.547369937e-06
-0.0001681744206
-0.0001678596015
4.541965359e-06
-0.0003354653707
0.0001677969846
0.0001679472749
0.0003288037758
1.1038366e-05
-0.0003287618649
-9.863134872e-06
9.687850272e-06
0.0001641368193
-9.423118266e-06
0.0001632112139
-9.541930985e-06
0.0001651722842
-0.0003301440236
0.0001651878196
-0.0003301334572
-0.0001649093152
-3.388863208e-06
3.836214181e-06
-3.719588574e-06
-0.0001650259408
-0.0001652445519
3.702484904e-06
-3.688372393e-06
-0.0001608707106
0.0001612700019
-0.0001612985317
3.731014657e-06
3.521790371e-06
0.0003234865333
1.102206457e-05
-0.0003234817839
-9.635683181e-06
9.61728127e-06
0.0001615913073
-9.670507169e-06
0.0001612704877
-9.515276762e-06
0.0001628933657
-0.0003247351493
0.000162572527
-0.0003247140453
0.000317673531
1.098578591e-05
-0.0003177262871
9.513962533e-06
0.0001587801749
-9.741054447e-06
0.0001601177823
-0.0003187721814
0.0001595557994
-0.0003188226751
-0.0001600448335
-3.119719859e-06
3.590728076e-06
-3.555469006e-06
-0.0001600800926
-0.0001605528569
1.141829474e-05
-0.000339370583
0.0001694350302
0.0001697221817
4.723857605e-06
-4.704975644e-06
-0.000169727547
-0.0001684412195
4.644766644e-06
3.59514794e-06
-4.183006369e-06
-0.000188620806
-0.0001700080138
4.683431684e-06
-0.0003459230122
0.000170003355
0.0001712138571
-0.0001670253441
-2.682293228e-06
2.117336188e-06
-1.835957062e-06
-0.0001673067232
-0.0001641701932
-3.945045321e-06
8.645225621e-07
-9.525707523e-07
0.0001692698908
1.471921365e-06
1.823362289e-06
0.0001685947064
-0.0001683292944
1.089192767e-07
0.0001678493295
8.215111508e-07
-3.160600127e-07
-9.943505366e-07
9.404026978e-08
-0.0001252346182
0.00146365203
0.0001255682141
-0.001443051283
0.001443051283
-0.001443011985
-3.592452798e-05
-0.0007189077454
3.592452797e-05
0.0001015071775
-5.372062621e-05
0.0007189077454
0.0007241435374
-4.778655131e-05
0.0001015071775
5.37206262e-05
0.0006979670092
0.0007136719534
-5.372062622e-05
-3.592452797e-05
-0.0007136719534
-2.406054877e-05
0.0007136719534
2.406054877e-05
-0.0007084361614
0.0007084361614
-1.277231421e-05
-0.0007084361614
-0.0007084361614
-5.356584358e-06
0.0007084361211
-6.839404136e-06
1.812842974e-05
-9.805334216e-06
-8.32309551e-06
1.812842973e-05
9.806125268e-06
0.0003484922791
0.0003520913514
-9.805334219e-06
0.0003520911501
-5.356382963e-06
-0.0003520913514
2.930046478e-06
-0.0001682339701
-3.191438514e-06
0.0001681969531
-0.0001681151439
0.0001680724834
4.006334638e-06
-0.0001679947776
-3.475562896e-06
3.432902448e-06
-3.69439258e-06
-3.447104166e-06
3.568265151e-06
-0.0001677888146
-0.0001678124947
3.873632251e-06
0.0003520911328
-3.873614954e-06
-5.752988104e-07
5.752815158e-07
-0.0003520913456
-0.0003488126932
-5.749213969e-07
-3.323659785e-07
3.323659749e-07
-0.0007084361326
-9.077050614e-07
-2.390708938e-06
-2.064454601e-06
2.199600018e-06
-0.0001584637934
-0.0001585825282
-6.183397426e-06
-0.000179370346
0.0001310335416
-0.0001465338748
9.316935742e-06
7.629527185e-05
2.284295024e-05
0.0003439259452
1.013827871e-05
-0.0003442443673
9.309224548e-06
0.0001713312553
-4.373669296e-06
-4.658174406e-06
-0.0001774257917
3.11831982e-06
-8.970592731e-06
8.323239352e-06
-0.0003458826569
0.0001732724085
-0.0003455539405
0.0001686002148
4.25983401e-06
-0.0001686626919
-3.712873723e-06
3.887052648e-06
-4.031997888e-06
4.121017926e-06
-0.0001693329907
-0.0001694285581
-2.489314579e-06
-0.0003465073779
1.852084966e-06
0.0003458713888
-3.664899023e-07
2.2153196e-06
-0.000175167854
1.6395458e-06
5.896026097e-07
-5.141262371e-07
0.0001510065244
0.0001738691969
4.105524746e-06
-4.272807402e-06
4.50974751e-05
0.0002797246607
-0.0001732397312
-0.0001454575123
1.710641092e-05
-9.265492744e-05
0.0001257642881
-5.021577155e-05
0.0001443566136
-0.0001052852959
0.0001663180996
4.364018294e-06
-4.212090089e-06
4.112242419e-06
-4.18588427e-06
-3.923409289e-06
0.0001673133249
-0.0001664538827
0.0001666427159
-0.0001669628815
3.632787078e-06
3.573642141e-06
-0.0001650260199
-3.429123316e-06
0.0001649298104
-0.0001650757568
0.0001651708359
4.309533137e-06
-3.920122538e-06
4.015201662e-06
-3.856544943e-06
-4.11268972e-06
-0.0001651234289
0.0001590995988
-0.000159276821
-2.334123006e-06
0.0001715497633
4.058094513e-06
-0.0001712911918
-4.097117746e-06
3.774291609e-06
-2.915461545e-06
8.941277726e-07
-0.0001756307283
-0.0001750490052
-1.770588698e-06
0.0001692687392
1.085737955e-06
-0.0001693628991
0.0001697946489
-0.0001694669023
0.0001689146225
1.799667996e-06
1.717135192e-06
1.249984764e-06
0.000167432485
0.0001677097719
0.0001631572568
4.220421915e-06
-3.634699204e-06
3.731580594e-06
-3.563632493e-06
-3.793818114e-06
0.0001647603224
-0.0001640964095
0.000164034172
-0.0001638907151
3.285526937e-06
3.20114639e-06
-0.0001624429581
-3.425436986e-06
0.0001629371257
-0.0001627237243
0.0001626098415
4.147642829e-06
-3.726502472e-06
3.612619684e-06
-3.86212871e-06
-3.567661398e-06
-0.00016289345
0.0001612701416
4.320930994e-06
-4.013941789e-06
3.9855517e-06
-3.962327973e-06
-3.944869798e-06
0.0001620682677
-0.0001616126772
0.0001616533591
-0.0001617480521
3.636321656e-06
3.46153309e-06
-0.0001589240072
-3.396033003e-06
0.0001593931084
-0.0001594870443
0.0001595028105
4.307027987e-06
-3.883906911e-06
3.899673125e-06
-3.840068089e-06
-3.945285756e-06
-0.0001601257052
1.951621662e-06
-0.0001691828942
0.0001691756085
-0.0001690599439
0.0001659339804
1.194610985e-06
-1.34682167e-06
-1.779141772e-06
-9.043751606e-07
4.041530144e-07
-0.0001699902402
0.0001525111353
4.313585523e-06
-0.0001546794086
4.20994141e-07
5.556266397e-06
-6.795476347e-06
0.0001733109252
6.134336101e-06
-0.0001704050874
0.0001691658775
-0.0001692140137
0.0002331819694
9.26879949e-06
7.33622962e-06
8.790491371e-06
0.0001836441585
-1.777515832e-06
-0.0002677382738
0.0001838738378
-0.0001775776738
4.584928978e-05
0.0001383009122
-9.070094721e-06
1.536625871e-05
-4.012698967e-06
-3.632462656e-05
0.0001048059202
0.0001550439969
0
0
0
0
0
0
2.297770662e-05
2.738402355e-05
5.237415125e-05
-5.19072329e-05
-7.806218488e-05
0
0
0
0
0
0
0
0
3.92939047e-05
4.098990087e-05
6.488945087e-05
-6.307728494e-05
-0.0001010727942
-8.355010952e-05
5.718102938e-05
0.0002736441551
0.0001005462332
-0.0001727794521
-0.0001410042123
0.0001460861354
0.0003905867526
-0.0001331360561
0.000366739135
0.0007875736185
-0.0006528864087
0.0002696191154
-0.0002873120823
0.0002925737444
0.0009173477075
-0.0002857116136
0.0008938408173
0.001233395094
-0.001141844336
0.0002798159471
-0.000252626112
0.0002518034656
0.001296340643
-0.0002528412239
0.001268666916
0.0003287503996
1.668613975e-05
-1.524464691e-05
1.524227899e-05
0.0003287527675
-1.521718255e-05
0.0003266182352
0
0
0
0
0
0
0
0
3.502766421e-05
2.834689925e-05
4.500927041e-05
-5.211191598e-05
-8.344087493e-05
-0.0001068622722
6.234437731e-05
0.0003006190965
9.703077993e-05
-0.0001904152815
-0.000148215033
0.0001413179598
0.0004283332551
-0.0001521994166
0.0004328859944
0.0008593179579
-0.0007138536228
0.0002621909687
-0.0002919266762
0.0002850806509
0.0009982156069
-0.0002957267454
0.0009951737025
0.001319809337
-0.001233280591
0.0002753633052
-0.0002490134443
0.0002492698633
0.001380990684
-0.0002485817314
0.001366428867
0
0
0
0
0
0
0
0
6.432705709e-06
1.844419093e-06
1.363091691e-05
-2.089662433e-05
-2.48963814e-05
-7.004090018e-05
3.71111312e-05
0.0002187938068
5.665457091e-05
-0.0001245153536
-0.0001061037334
9.102342755e-05
0.0003339396737
-0.0001198636678
0.0003681582151
0.0007522474935
-0.000606500514
0.0001999850948
-0.0002457978753
0.000226655211
0.0008962050916
-0.0002620128992
0.0009396988149
0.001263383003
-0.001156359211
0.0002476758133
-0.0002422192313
0.0002349676328
0.001350872316
-0.0002466054917
0.001376134922
0.001490693374
-0.001463473507
0.0001616249984
-0.0001295268772
0.0001330183215
0.001502521202
0.001484811297
0.001505523776
-0.00150541008