/*--------------------------------*- C++ -*----------------------------------*\
| =========                 |                                                 |
| \\      /  F ield         | OpenFOAM: The Open Source CFD Toolbox           |
|  \\    /   O peration     | Version:  v2012                                 |
|   \\  /    A nd           | Website:  www.openfoam.com                      |
|    \\/     M anipulation  |                                                 |
\*---------------------------------------------------------------------------*/
FoamFile
{
    version     2.0;
    format      ascii;
    class       surfaceVectorField;
    location    "2.45";
    object      Uf;
}
// * * * * * * * * * * * * * * * * * * * * * * * * * * * * * * * * * * * * * //

dimensions      [0 1 -1 0 0 0 0];


internalField   nonuniform List<vector> 
5999
(
(99.99802756 0.00842730573 -2.263539317e-21)
(99.99210765 0.007652829412 6.710769396e-21)
(99.99708334 0.01997544023 -2.230445955e-21)
(99.98918976 0.02568587087 2.278695281e-21)
(99.9952292 0.03859606975 -4.444851318e-21)
(99.98257268 0.0535632958 1.344957255e-20)
(99.99787902 0.04343318628 1.368840832e-21)
(99.97088051 0.09757856228 -8.802672147e-21)
(99.98768863 0.09600300354 -1.47616187e-21)
(99.99690987 0.07843762139 2.133912162e-21)
(99.99893072 0.04672991888 1.049608103e-21)
(99.98570521 0.1290528506 2.116647173e-21)
(99.99674316 0.07295824876 1.030769451e-21)
(99.997586 0.05767052671 -1.071114811e-21)
(99.99600426 0.09197042765 1.030727351e-21)
(99.9782658 0.2063018238 2.047835284e-21)
(99.99567818 0.1152111533 0)
(99.99548923 0.1404971179 -3.697089214e-21)
(99.97227139 0.3096020734 -3.697069972e-21)
(99.99493507 0.1701544915 -9.571064031e-22)
(99.99434893 0.2036856149 3.219936729e-21)
(99.9653983 0.443682061 3.48067088e-21)
(99.99385861 0.2407285919 4.282614203e-22)
(99.99355133 0.2803590298 -2.747947756e-21)
(99.96181802 0.6016970291 3.947342721e-22)
(99.99351403 0.3212095871 -2.727199494e-21)
(99.99384448 0.3613589502 4.218820082e-22)
(99.96526818 0.7615314394 -1.787435613e-21)
(99.99425644 0.3985060464 2.483167884e-21)
(99.99478776 0.4303832641 2.040067401e-21)
(99.97780277 0.8856389216 -8.833747885e-22)
(99.99619601 0.4541859556 0)
(99.981614 0.02360414754 1.119859569e-20)
(99.96992185 0.012799695 3.363364825e-22)
(99.97219941 0.05642888615 1.785279627e-20)
(99.9584169 0.04367343607 -1.567940298e-20)
(99.9545586 0.1089320576 9.323391776e-21)
(99.93343427 0.09271726089 -2.423941371e-20)
(99.94624255 0.1715215365 -1.587126631e-21)
(99.89110924 0.1715574365 4.668070948e-20)
(99.90862217 0.2169660935 -1.026770057e-20)
(99.92058463 0.2199045452 -2.206014799e-21)
(99.93951373 0.2164945274 4.327127723e-21)
(99.96267266 0.1539762099 2.150315791e-21)
(99.94200812 0.2531134826 2.088835101e-21)
(99.92270109 0.2781554496 2.132716233e-21)
(99.87034105 0.3672028344 -4.318410304e-21)
(99.90412794 0.3547645526 -2.711150888e-23)
(99.91231683 0.4033179483 2.048156666e-21)
(99.88270101 0.4483798741 -2.315568518e-23)
(99.80817313 0.5858545302 0)
(99.87195774 0.5212774117 0)
(99.83774586 0.5981753198 -2.54576269e-21)
(99.88265366 0.5945098075 -4.990535924e-21)
(99.86655246 0.6286641708 -7.440728787e-23)
(99.82934997 0.7264897438 -1.122400905e-20)
(99.85689321 0.6855683351 -3.858263054e-21)
(99.82681098 0.9128181691 3.03211671e-23)
(99.85187498 0.8582817647 -2.509764488e-21)
(99.78104563 1.05514022 -1.367552134e-20)
(99.81995181 0.9884389342 -3.337052725e-21)
(99.80158665 1.262488507 -6.096134401e-21)
(99.83568378 1.175659446 -5.772435841e-21)
(99.75289647 1.454395746 7.226653485e-22)
(99.8011361 1.350850836 -7.301946967e-21)
(99.80948484 1.633513892 -1.421013265e-23)
(99.8505239 1.503687368 -4.631816168e-21)
(99.76839691 1.870388113 -1.529138432e-22)
(99.8205718 1.721123862 -3.46205412e-21)
(99.86523232 1.943149354 -5.219744231e-21)
(99.90706283 1.766080791 -7.825597404e-21)
(99.84162784 2.210274337 -5.226786812e-21)
(99.88771861 2.012824042 -2.149393853e-21)
(99.95020272 0.0313965342 -2.689996356e-20)
(99.94027663 0.01308265395 -1.344481897e-20)
(99.92416412 0.07681867026 -5.818935116e-20)
(99.91562314 0.04653714244 1.232868289e-20)
(99.87662722 0.1516136579 1.17601365e-20)
(99.8632066 0.1045738063 -4.925299514e-20)
(99.8280464 0.2602605678 2.971281037e-20)
(99.77761857 0.2011394968 5.351053663e-20)
(99.76921468 0.2856568203 -4.680701933e-20)
(99.85382466 0.2755685576 -8.834366992e-21)
(99.77451177 0.3148251069 -6.543334294e-20)
(99.79517918 0.3450906857 -4.422261882e-21)
(99.7726422 0.4658694728 -8.601057023e-21)
(99.74469398 0.4515175182 -4.285317734e-21)
(99.65099725 0.5439072777 3.008797698e-20)
(99.68648628 0.5817834897 8.431659646e-21)
(99.66526886 0.7512446234 -7.43208693e-21)
(99.61996884 0.7405212962 5.503481136e-21)
(99.48563996 0.8910214347 -4.236378072e-20)
(99.58260172 0.8989493844 2.960176503e-21)
(99.51411495 0.9662658092 -1.842496429e-20)
(99.56911158 1.109040087 -7.551437207e-21)
(99.53359904 1.109740371 0)
(99.45491285 1.224029614 7.840150417e-21)
(99.49845903 1.231789264 -7.512064903e-21)
(99.44517191 1.642431476 3.645423988e-21)
(99.39298913 1.658563677 1.427550119e-20)
(99.29547436 1.826301954 7.067030808e-21)
(99.36137803 1.818573613 1.771982338e-20)
(99.36654612 2.302452349 2.946489052e-21)
(99.29385241 2.348786858 3.740547169e-22)
(99.19446495 2.574292918 4.692350423e-20)
(99.28601029 2.53285159 -6.227264931e-21)
(99.40217189 3.003054438 7.505635626e-23)
(99.31465145 3.10036596 -6.222702738e-20)
(99.2335342 3.384459437 2.312325246e-20)
(99.3442432 3.282931997 -4.732654426e-20)
(99.5882873 3.609359238 2.430258281e-20)
(99.50197302 3.781008449 1.391951165e-20)
(99.46990076 4.101507816 1.411591091e-20)
(99.57881375 3.912410712 2.801141894e-20)
(99.91221482 0.02709207673 2.70111118e-20)
(99.91474522 0.006601593708 -4.509534666e-21)
(99.8626926 0.07164432009 2.275567126e-20)
(99.87364518 0.02811354942 3.155527722e-20)
(99.77386548 0.1530276836 -9.037402046e-21)
(99.78655379 0.07881380464 -4.457480049e-21)
(99.66137016 0.2951852034 0)
(99.64530346 0.1707540645 6.90016358e-21)
(99.59166369 0.2926163118 2.096683973e-20)
(99.68053791 0.3371016235 -6.114737534e-20)
(99.57870947 0.3387938367 1.576369674e-20)
(99.58740706 0.4035485235 0)
(99.50890847 0.5964833373 2.435589754e-22)
(99.48822721 0.539549659 -3.46922486e-20)
(99.350327 0.619708051 -3.466891015e-20)
(99.3710821 0.7090495913 7.029089215e-20)
(99.27295722 0.9973011287 -1.043348522e-19)
(99.2347039 0.9179861289 3.895900492e-20)
(99.03517462 1.05862478 -6.983047364e-20)
(99.12846642 1.163299378 -3.476537078e-20)
(99.03234275 1.186169002 -5.708911472e-20)
(99.03313284 1.511062273 8.218906496e-21)
(98.99371763 1.465803758 1.631759542e-20)
(98.86778093 1.582765442 4.132894939e-20)
(98.91201543 1.642566504 8.150609247e-21)
(98.73453998 2.310585838 -1.236422764e-19)
(98.66678431 2.264875767 -1.195012535e-19)
(98.51444265 2.439300675 1.438543156e-20)
(98.59431523 2.500968392 -1.230468917e-19)
(98.53242499 3.332558626 -9.701820937e-20)
(98.42390158 3.304324212 1.189367312e-19)
(98.25928126 3.560352912 -6.270294773e-20)
(98.38972916 3.602016813 0)
(98.55078671 4.53490772 -4.458672183e-20)
(98.39443853 4.561184038 0)
(98.25283691 4.91672843 1.060694632e-19)
(98.44292867 4.890620653 2.314674725e-20)
(98.96215814 5.688849766 -3.258012073e-20)
(98.7732471 5.828428904 0)
(98.72517651 6.263843128 1.962594356e-19)
(98.95077868 6.095776335 4.896551869e-20)
(99.88315768 0.007233756287 0)
(99.90794453 -0.007665775741 0)
(99.80629969 0.03349251973 4.567290933e-21)
(99.8489535 -0.01497190419 0)
(99.66827699 0.0989900157 1.162051186e-20)
(99.72491182 0.008346104231 -3.683875881e-21)
(99.47730345 0.2563410022 1.920501746e-20)
(99.51799237 0.07255549397 2.554793022e-20)
(99.41023165 0.2124616969 -7.69803921e-21)
(99.47648038 0.3181891216 2.714368883e-20)
(99.37175034 0.2735295284 2.184441736e-21)
(99.35014615 0.3681042412 -1.106526969e-20)
(99.18139976 0.6092424333 0)
(99.18609819 0.5129851059 -2.279878168e-20)
(99.00861304 0.5611621244 -1.874636214e-20)
(98.99100518 0.6975073109 4.652514237e-21)
(98.77376169 1.067605411 0)
(98.76304406 0.931494914 4.652016124e-21)
(98.49970268 1.02191407 -4.81416885e-21)
(98.54706744 1.228693872 2.32090667e-20)
(98.43722085 1.218914944 6.014034575e-21)
(98.31346968 1.694102045 2.661294909e-19)
(98.28843496 1.597512162 0)
(98.11619682 1.692164441 0)
(98.14438166 1.806946242 -2.718943027e-19)
(97.75977068 2.70146103 2.896881481e-19)
(97.6971733 2.578406695 -2.657092171e-19)
(97.48064083 2.732588352 -5.877808991e-19)
(97.54860348 2.88767599 -2.903881772e-19)
(97.26705291 4.12380918 -2.787695879e-19)
(97.13983951 3.990617524 1.537667764e-19)
(96.8765738 4.255982989 -2.976057783e-19)
(97.02771698 4.421673014 2.770655377e-19)
(97.07820466 6.016524216 1.736712864e-19)
(96.84428592 5.914946189 -5.515058193e-20)
(96.57237506 6.349186836 -3.920580621e-19)
(96.8634329 6.472530475 4.716414797e-20)
(97.68964481 8.16238916 1.775609917e-19)
(97.3229217 8.217185578 1.618657803e-19)
(97.19050217 8.8595228 -4.502884055e-21)
(97.64676855 8.766874324 4.374286164e-19)
(99.88040936 -0.02962129813 0)
(99.9359108 -0.029779511 2.237227014e-21)
(99.77601837 -0.04077126498 -9.144959811e-21)
(99.85956254 -0.0827084821 -2.255014921e-21)
(99.58714456 -0.01579714932 9.511219643e-21)
(99.70154137 -0.1081698389 -4.537775872e-21)
(99.30866365 0.106407157 1.243892029e-20)
(99.43514837 -0.09623944544 3.813349991e-21)
(99.25232623 0.0387595672 -3.678646465e-23)
(99.28027857 0.2024950497 -9.225211978e-21)
(99.17802757 0.1071261666 -9.34481427e-21)
(99.12147612 0.2150996801 0)
(98.83938214 0.4728834647 -1.874589937e-20)
(98.8861551 0.3456885711 0)
(98.68115682 0.3442528778 -1.288207528e-22)
(98.60381369 0.514716025 -9.160219664e-23)
(98.22231975 0.9177098297 9.697622965e-21)
(98.26860396 0.7342520792 1.454280964e-20)
(97.95821775 0.7522066586 1.963754369e-20)
(97.9305843 1.051335726 -3.421356793e-21)
(97.82857887 0.9810095614 -7.986116201e-20)
(97.51900945 1.553309487 2.290733048e-19)
(97.53044738 1.413216319 7.889100625e-20)
(97.32315311 1.460726728 -1.978038063e-21)
(97.30453081 1.626763894 -2.385922439e-21)
(96.5813341 2.641420892 8.621753489e-19)
(96.56126403 2.443172452 5.215653309e-19)
(96.27633145 2.546611323 8.978592123e-19)
(96.2950732 2.784566255 8.740372742e-19)
(95.53844149 4.357340717 -1.986399994e-18)
(95.44812514 4.100217772 -1.425045214e-18)
(95.05417073 4.28139367 -1.341939027e-18)
(95.15737856 4.634547898 -9.922379569e-19)
(94.62414477 7.079917346 4.470534691e-19)
(94.35132315 6.727964488 -6.506143887e-19)
(93.81845383 7.172397516 0)
(94.15924988 7.614253791 0)
(94.91711822 11.12870568 4.273432376e-19)
(94.24825667 10.89720633 -7.731419921e-19)
(93.77419891 11.90458086 1.051335901e-20)
(94.68009913 12.14042616 7.132544542e-19)
(99.92092229 -0.08205866972 -1.707480026e-23)
(100.0133332 -0.05876794489 9.002002373e-23)
(99.79232793 -0.1489115961 2.348713231e-21)
(99.92269593 -0.1716565329 -1.096484302e-22)
(99.55888306 -0.1865290049 -1.229728633e-20)
(99.73719794 -0.2642152894 1.87370098e-21)
(99.19126649 -0.1209627559 -1.112453156e-20)
(99.4217967 -0.3280757171 -1.86617217e-20)
(99.16485401 -0.2230602931 -1.593741985e-20)
(99.11931775 -0.01538946451 -8.696271329e-21)
(99.05200172 -0.1591495645 -3.483513276e-21)
(98.94478941 -0.04944869754 3.768593798e-23)
(98.54314634 0.1766096324 1.41803408e-20)
(98.64494006 0.03519789604 1.445785652e-20)
(98.43291278 -0.02727882811 7.139147272e-21)
(98.28406582 0.1521017488 2.465177874e-20)
(97.72863701 0.5244449287 -2.483043786e-20)
(97.85559213 0.3080701336 -2.001192632e-20)
(97.5413436 0.237973686 -3.528724856e-20)
(97.3942943 0.5628348059 -1.9910702e-20)
(97.31621058 0.4556355048 -1.986788998e-20)
(96.77887046 1.044148212 -3.381052372e-19)
(96.84628046 0.8751453159 -3.342065897e-19)
(96.62125558 0.8612975313 9.030674053e-20)
(96.53429463 1.054785583 -8.468872803e-20)
(95.39767412 2.023090866 3.873253967e-19)
(95.45905363 1.764784567 2.630215881e-20)
(95.13499857 1.771940534 1.146347748e-18)
(95.04815228 2.069638976 1.146695707e-18)
(93.55756597 3.663684024 -1.637793405e-18)
(93.59507722 3.2604577 -6.291284246e-19)
(93.09336676 3.30870856 -7.420517831e-19)
(93.01853788 3.78104839 2.080229098e-19)
(91.00603887 6.651330106 -1.805573295e-19)
(90.92243004 5.968032731 -6.163523786e-19)
(90.03171056 6.141762185 -1.309974914e-18)
(90.09218826 7.026711885 4.356075569e-19)
(88.28783013 13.54061764 6.689825405e-19)
(87.46001352 12.27472399 2.377031773e-19)
(85.52051638 13.83102483 -4.602495898e-19)
(85.76183374 12.94365164 3.254989872e-18)
(87.38933416 15.16297319 1.694890196e-19)
(86.32246052 15.22264068 1.269136728e-18)
(100.0194471 -0.1470995401 1.788531969e-23)
(100.1520983 -0.09269158926 -3.315794847e-21)
(99.87291834 -0.2840102723 -6.094982474e-22)
(100.0518725 -0.2757170821 1.444442434e-21)
(99.60699629 -0.4025223392 -4.774324746e-21)
(99.84907201 -0.4479895933 -3.142625797e-21)
(99.16712005 -0.424459139 9.86538961e-21)
(99.50291287 -0.6034937097 -1.087167139e-21)
(99.18048545 -0.552330555 1.033395116e-21)
(99.04447846 -0.324920351 4.834538465e-21)
(99.03144123 -0.5034490995 9.998521632e-21)
(98.87272297 -0.4105023617 7.058897146e-21)
(98.35946544 -0.2609757205 -2.407618881e-21)
(98.52384039 -0.3952565056 3.742084945e-21)
(98.32770561 -0.518876095 2.471680888e-21)
(98.10810009 -0.3613883613 7.49205222e-21)
(97.40799596 -0.09750961299 -1.15259711e-21)
(97.6199033 -0.3080259837 6.63358713e-21)
(97.33628949 -0.4695810059 4.08570837e-21)
(97.057073 -0.1554944696 -4.267279655e-21)
(97.02351536 -0.3034597239 -2.533490202e-20)
(96.25440925 0.1956818626 -9.165583142e-20)
(96.38850404 0.02624152567 -9.253082145e-20)
(96.17330957 -0.0565519645 -9.140387416e-20)
(96.01068153 0.1294686114 -1.710185115e-18)
(94.51566974 0.8174230403 4.17516737e-19)
(94.68510312 0.5529162276 -4.145273124e-19)
(94.37559533 0.4484594264 -3.992296869e-19)
(94.1633476 0.7344899605 1.121591086e-20)
(91.99341727 1.831258566 -5.822306793e-21)
(92.23994568 1.414694497 -7.776135127e-21)
(91.76283552 1.245759681 -7.914980632e-21)
(91.433835 1.692968615 4.56163234e-19)
(87.73717261 3.472094735 9.874567616e-19)
(88.18399294 2.723328015 -2.872476072e-20)
(87.36753821 2.341999949 4.76380442e-19)
(86.68136043 3.138601844 1.837058685e-18)
(79.04186859 6.370509171 -3.117892814e-20)
(79.66749993 5.37681214 -1.827323758e-18)
(78.70633417 4.709303889 -1.255961273e-18)
(77.76431379 5.755381631 -1.957122965e-18)
(100.1867247 -0.2198487551 -1.889195737e-21)
(100.359484 -0.1289542002 1.047473769e-21)
(100.0306231 -0.4355813865 -1.102623081e-21)
(100.2554064 -0.3868768346 -7.736170986e-22)
(99.74812653 -0.6455777945 5.649034538e-22)
(100.0472127 -0.6443612725 -2.78065722e-22)
(99.26032725 -0.7741226928 6.461545192e-22)
(99.69159451 -0.8988994414 9.363623064e-22)
(99.3197042 -0.9169197027 5.620366607e-22)
(99.08712766 -0.6966554565 1.639084352e-21)
(99.1411597 -0.8932941231 -1.647733951e-23)
(98.93606104 -0.8312766828 -1.64796831e-23)
(98.3424775 -0.7941323901 -2.464343014e-21)
(98.56416004 -0.9001648343 0)
(98.40561448 -1.078898675 -1.208437813e-21)
(98.12788964 -0.9669171115 -1.286261652e-21)
(97.33097771 -0.8652539711 3.97502037e-21)
(97.61938207 -1.034218415 2.706426277e-21)
(97.39443887 -1.270649194 1.301545824e-21)
(96.99950378 -1.014596304 -1.198587552e-20)
(97.01998729 -1.183577281 -2.661198347e-20)
(96.08050113 -0.8626311238 7.959689217e-19)
(96.27157411 -1.003547734 1.112084587e-18)
(96.09764026 -1.140565814 -7.654021385e-19)
(95.8658049 -0.9958644147 7.41951052e-19)
(94.20666715 -0.7202978784 -2.218100755e-19)
(94.4577121 -0.930026774 -3.097800879e-20)
(94.22753913 -1.111839918 3.163844528e-20)
(93.91125142 -0.9014571065 -1.779508439e-18)
(91.54840167 -0.5652390603 5.30223902e-19)
(91.94600521 -0.8537342418 2.247166501e-19)
(91.61604943 -1.139822598 9.403417871e-19)
(91.14674921 -0.872676357 5.955610791e-19)
(87.42970636 -0.8462357737 5.3414891e-19)
(88.13765273 -1.195699755 0)
(87.70888644 -1.723465186 -1.499370846e-18)
(86.89730417 -1.469147003 -9.220998958e-19)
(81.77317717 -3.155854506 -1.919608404e-20)
(82.43878978 -3.174389402 -2.889993374e-18)
(82.35862038 -3.689825604 -1.76095831e-20)
(81.74627887 -3.783252731 -1.036486328e-18)
(100.4279339 -0.2945381287 2.157736194e-21)
(100.6373283 -0.1647687289 1.054665535e-21)
(100.2714343 -0.5910667108 3.302714795e-23)
(100.5351357 -0.4964574486 1.120400129e-21)
(99.98959972 -0.8943946807 1.090593657e-22)
(100.333374 -0.8370797196 1.028743612e-21)
(99.48298825 -1.138209733 -1.598406127e-21)
(99.98971979 -1.189039912 -9.088931027e-22)
(99.58804925 -1.282543356 7.340235547e-22)
(99.26533264 -1.095133948 -1.130755041e-21)
(99.38965827 -1.291074533 -5.712746462e-22)
(99.14963641 -1.26991572 -1.130683879e-21)
(98.51714463 -1.364731794 5.187911338e-24)
(98.78258891 -1.424893577 1.208380894e-21)
(98.67530537 -1.644325289 1.208391602e-21)
(98.35894262 -1.592465273 1.208369201e-21)
(97.52379151 -1.672857438 -5.302647801e-21)
(97.8676967 -1.776277281 -2.643053174e-21)
(97.71504816 -2.061463025 -2.635003362e-21)
(97.24280474 -1.892612295 -1.589714723e-20)
(97.31323194 -2.057782427 -5.917228618e-20)
(96.29068866 -1.950757356 6.590007584e-19)
(96.52488424 -2.041430273 1.79469215e-18)
(96.39821064 -2.209371835 1.393458871e-18)
(96.13527725 -2.121557325 -1.028247564e-19)
(94.49534171 -2.230713021 -1.9805584e-18)
(94.8055437 -2.363461124 -1.314788311e-18)
(94.6441931 -2.57595736 -6.422151198e-19)
(94.30117849 -2.455916324 -2.869626652e-18)
(92.11018359 -2.690637853 -5.067989411e-19)
(92.55017509 -2.839921855 -2.529908994e-20)
(92.34645273 -3.14226303 -4.374811528e-19)
(91.87103943 -3.026440083 -2.653616575e-19)
(88.84975672 -3.797182638 -9.797218325e-19)
(89.49841119 -3.889602415 4.715640326e-19)
(89.27107334 -4.340287107 9.319441425e-19)
(88.6160825 -4.316174567 9.538303726e-19)
(85.50347689 -6.007031657 -1.005360664e-18)
(85.87392334 -5.942848247 -1.970599374e-18)
(85.85543101 -6.239418521 -9.88861111e-19)
(85.44288517 -6.267521531 -6.587717816e-19)
(85.56305646 -6.346729988 -6.587273554e-19)
(100.7421309 -0.365503544 9.367112803e-24)
(100.9821381 -0.1975777956 2.781608047e-21)
(100.5936145 -0.7382937156 2.084340342e-21)
(100.8868618 -0.596369442 1.056113053e-21)
(100.329098 -1.127690913 6.407880895e-23)
(100.7008256 -1.010326305 -6.855055657e-23)
(99.83072834 -1.485076516 -2.128925336e-21)
(100.3911838 -1.454718801 -9.653980237e-22)
(99.97528672 -1.621161326 -5.109316837e-22)
(99.57830867 -1.483479811 -5.549960273e-22)
(99.76737659 -1.662517086 -1.106677324e-21)
(99.50698305 -1.685443361 9.760451278e-23)
(98.87678659 -1.911163926 0)
(99.16832905 -1.917777738 1.113566486e-21)
(99.11780418 -2.159878091 2.209232977e-21)
(98.78301701 -2.173221045 1.203878539e-21)
(97.96238854 -2.427823731 -6.240842597e-21)
(98.33739966 -2.456211644 -5.071359889e-21)
(98.25954699 -2.764616284 -8.406170971e-20)
(97.74745037 -2.691858079 -4.296328168e-19)
(97.85798802 -2.839246354 4.508136903e-19)
(96.83249823 -2.930107393 0)
(97.08527069 -2.970146169 0)
(97.00951269 -3.148670401 -7.156906435e-19)
(96.73341481 -3.116124792 -1.546495572e-18)
(95.22724294 -3.510790451 -8.396564502e-19)
(95.55214773 -3.571991331 -8.405231192e-19)
(95.45916169 -3.786855988 4.314161764e-19)
(95.11265241 -3.741180745 2.069780325e-20)
(93.19044377 -4.31485993 0)
(93.62141839 -4.364164159 2.190167737e-19)
(93.50538271 -4.650322059 0)
(93.05571024 -4.62798286 -4.315644142e-19)
(90.55338047 -5.675279191 4.526972393e-19)
(91.12081842 -5.660977831 0)
(90.98062724 -6.048375289 0)
(90.41551362 -6.094767177 -8.76119663e-19)
(87.980197 -7.528625046 -1.060812386e-19)
(88.26091063 -7.467879017 6.3898741e-19)
(88.2399121 -7.684128909 6.386829041e-19)
(87.9315177 -7.707200348 2.793929982e-18)
(88.01844732 -7.761347223 -9.871945008e-19)
(101.1228873 -0.427587433 3.829221016e-21)
(100.9889879 -0.8665950228 -1.026726297e-21)
(100.7534313 -1.32801581 -1.026692819e-21)
(100.2817818 -1.790945569 0)
(100.0072028 -1.831013415 7.719265197e-24)
(99.98427304 -2.042767815 2.097754281e-21)
(99.39327361 -2.385922634 -1.116211093e-21)
(99.69377225 -2.338233207 -1.211223117e-21)
(99.36416052 -2.662148344 1.189846065e-21)
(98.59961344 -3.066704369 7.461742418e-20)
(98.98296782 -3.020551816 1.570118844e-19)
(98.45452147 -3.351313735 4.8699669e-19)
(98.59347001 -3.472345701 -3.258702604e-19)
(97.619239 -3.728329757 9.746955331e-20)
(97.87465238 -3.721337417 -2.037494246e-18)
(97.84467954 -3.896085037 -6.597897231e-19)
(97.57167172 -3.911531794 -2.021029267e-18)
(96.24160258 -4.504438889 -4.127520283e-19)
(96.5627449 -4.505317715 3.643292572e-19)
(96.52683817 -4.706514561 -4.11085094e-19)
(96.19101554 -4.721702535 -8.117747124e-19)
(94.52537191 -5.509556385 4.106754915e-19)
(94.93758895 -5.486325166 6.193630424e-21)
(94.88789457 -5.74960599 6.287760111e-21)
(94.46197701 -5.795557449 1.949300246e-19)
(92.2801288 -7.023276832 -3.666886829e-19)
(92.80899394 -6.94635451 1.227151963e-20)
(92.73020468 -7.307709964 -1.127751104e-18)
(92.18808261 -7.404876422 -7.544660725e-19)
(89.93619454 -8.823235892 7.682772902e-19)
(90.1959693 -8.78285735 1.125148122e-18)
(90.18351973 -8.996513866 7.560138915e-19)
(89.87775685 -9.002851789 5.034385771e-19)
(89.95959423 -9.07225057 5.033642577e-19)
(81.88815641 -2.584689851 1.162400803e-18)
(81.07850945 -3.223669722 1.18738548e-18)
(81.15768911 -2.516621207 5.983138908e-19)
(85.52300982 -5.696219012 4.728797378e-19)
(85.13576745 -5.757627173 9.923448213e-19)
(85.07510041 -6.035291811 -1.166285916e-18)
(85.20061082 -6.119741906 5.573578305e-19)
(87.99995121 -7.305283686 1.178767275e-19)
(87.71154011 -7.370256492 2.437426996e-19)
(87.66423431 -7.554715826 -2.288143179e-20)
(87.75466952 -7.607523096 -2.87869032e-18)
(89.95227222 -8.612582249 1.267252172e-20)
(89.6931138 -8.651828094 -6.573338613e-19)
(89.63399613 -8.828611952 8.376192208e-21)
(89.71431363 -8.897002694 3.010157407e-21)
(80.15676466 6.886513298 -1.771236918e-18)
(78.32849354 7.62390699 2.624772649e-18)
(79.72182315 7.960015033 6.28950674e-19)
(89.11261396 -3.325548212 -1.941241708e-18)
(88.15987393 -3.739057201 -1.338181467e-18)
(88.4404651 -3.188125668 1.017169778e-18)
(85.89248362 -5.635801494 -4.90972992e-19)
(85.54226702 -5.372074586 9.936769871e-19)
(85.94004124 -5.334188538 9.850560932e-19)
(82.55971445 -2.593877276 -1.719000767e-18)
(83.17780499 -2.669948773 -2.295327908e-18)
(83.04694289 -3.15172294 -1.156638299e-18)
(90.70986603 -5.275914612 1.779326484e-18)
(89.97313618 -5.709765095 1.329591984e-18)
(90.12584909 -5.270879096 -4.425348412e-19)
(88.27996115 -7.251758323 8.629955451e-19)
(88.01745725 -7.081426854 -1.015012978e-21)
(88.31490763 -7.036318057 1.706497744e-18)
(86.27304943 -5.595267668 -2.730391995e-20)
(86.22914587 -5.881613508 -9.824034972e-19)
(86.8371414 -6.85259045 1.053288904e-18)
(86.85214036 -6.592965242 1.9947418e-20)
(86.52148681 -6.660905101 4.567402426e-19)
(86.4699836 -6.887620433 1.964744212e-18)
(86.57930562 -6.948877312 9.177328174e-19)
(85.85061448 -7.954948368 -1.026521997e-19)
(85.69596947 -8.015964513 -1.224803335e-18)
(85.67327877 -7.889470259 4.286136272e-19)
(85.84713255 -7.827874065 -7.22939661e-19)
(85.63553501 -8.001193854 -3.662982065e-19)
(84.33563002 -7.259215059 -1.003835067e-18)
(84.28086837 -7.386244485 5.414488945e-19)
(84.53141576 -7.212095714 -9.868796425e-19)
(84.52655468 -7.362944894 -1.876491663e-18)
(84.34423688 -7.427528539 -3.716754543e-19)
(92.37637642 -6.658325771 7.503628672e-19)
(91.73643756 -7.104908827 1.657967536e-18)
(91.84117657 -6.719680014 7.590666456e-19)
(90.21189781 -8.5739008 3.688267918e-19)
(89.9711329 -8.406487697 0)
(90.24049634 -8.365150973 0)
(88.57003144 -7.207663103 -1.261686e-20)
(88.53408686 -7.418509507 0)
(88.9770798 -8.153915185 4.011946984e-19)
(89.00054848 -7.949544435 7.441524472e-22)
(88.73676375 -7.995048722 4.014588629e-19)
(88.68174863 -8.165180346 -6.416521353e-19)
(88.76090714 -8.226831876 1.177916544e-18)
(87.86242534 -8.914811479 -5.891006651e-19)
(87.76712505 -8.915367323 -1.190542821e-18)
(87.81663166 -8.877736715 -5.076164281e-21)
(87.90060964 -8.873223733 -5.959580949e-19)
(87.03766211 -8.402873959 -8.987080295e-19)
(86.97146967 -8.480017925 -1.492978499e-18)
(87.1888437 -8.364361978 -8.206633175e-19)
(87.16483191 -8.461084502 -1.69403308e-18)
(87.0130724 -8.497857121 -2.011405526e-19)
(90.48131238 -8.530989751 7.287175912e-19)
(90.45676311 -8.741892662 1.091070673e-18)
(91.02849866 -9.459371968 -5.686370809e-19)
(91.00252703 -9.330731287 8.50446534e-19)
(90.88852124 -9.486519514 7.648638237e-22)
(90.87889838 -9.376642737 2.914607534e-19)
(89.45234366 -10.40725202 2.677347777e-19)
(89.25730172 -10.39797118 -8.144589229e-19)
(89.40349401 -10.35063452 -5.37377004e-19)
(89.54826484 -10.35265984 -8.005793015e-19)
(88.65170005 -9.631932265 2.825772198e-19)
(88.57166805 -9.679075442 0)
(88.76365948 -9.628171792 0)
(88.70815461 -9.677973019 -5.693416378e-19)
(73.160671 -4.167207743 2.374217857e-18)
(74.11019252 -4.028398865 8.930760154e-19)
(74.24074267 -4.818703089 -6.663149957e-19)
(73.16866989 -5.067758118 1.178848667e-19)
(73.56325694 -5.246624433 -1.441183895e-18)
(79.69015978 -6.505364611 1.256195764e-18)
(79.50117395 -6.168628037 -1.120938659e-18)
(79.12080412 -6.420250385 -1.120984005e-18)
(79.28621345 -6.758384688 1.158512961e-18)
(79.46953376 -6.778038028 -5.398965827e-19)
(68.43330455 8.049897312 0)
(67.52889603 9.417733972 0)
(67.21432656 7.011558207 0)
(65.8586805 8.461316378 8.404652926e-19)
(73.10107963 -3.296787505 -2.069458939e-18)
(72.17342514 -4.45064047 3.890825599e-18)
(72.05002189 -3.354852021 7.268849462e-19)
(84.15482858 -7.321420151 -2.992542365e-19)
(84.14685726 -7.156708442 3.440482893e-19)
(84.34232288 -7.108437639 4.36444962e-19)
(84.09344662 -7.280882766 -1.215298667e-18)
(82.71825356 -6.726527485 0)
(82.68980849 -6.5681611 4.814237808e-19)
(82.90496391 -6.481941134 4.643114526e-19)
(82.92887169 -6.63616846 0)
(83.89008718 -4.881310472 2.430142835e-20)
(84.35687556 -4.83396541 -1.58102059e-18)
(84.32938086 -5.195007973 -4.05725193e-19)
(83.91569449 -5.291159512 1.418793458e-21)
(82.50171396 -6.829908636 -4.909570446e-19)
(82.73649412 -6.884810443 0)
(82.48099354 -6.96220521 1.03618171e-18)
(82.55855369 -6.966440816 -5.226188217e-19)
(84.16090959 -7.402559677 6.851637682e-19)
(84.04645868 -7.422331639 6.92444312e-19)
(84.06290377 -7.349111995 -6.873721849e-19)
(80.02571932 -6.267622375 1.231055625e-18)
(80.19353027 -6.566603975 5.721828622e-19)
(79.81966564 -6.792060859 8.240906925e-19)
(79.9752983 -6.801916058 -2.458662343e-19)
(82.47398628 -6.667612496 -1.134069741e-20)
(82.25133497 -6.779621023 -1.145551114e-19)
(82.23961335 -6.920201406 -3.239678745e-19)
(82.32214202 -6.923238394 1.754954727e-18)
(86.88721184 -8.440935784 1.759077315e-18)
(86.90759342 -8.345383777 -7.596555838e-21)
(87.05911955 -8.304195347 -1.257040524e-18)
(86.84545819 -8.423283324 1.328001443e-18)
(85.81237096 -8.060833505 1.150833523e-18)
(86.0199536 -7.89351412 -1.022900899e-18)
(86.02142194 -8.01540826 -1.444219452e-18)
(85.87016976 -8.07341426 7.162611617e-19)
(87.15600704 -6.78426898 5.731968245e-19)
(87.14093579 -7.033811158 -1.331337265e-18)
(86.78913511 -7.069141274 -2.334008619e-19)
(86.89396203 -7.124797667 -2.736741009e-18)
(85.70811867 -8.087031667 -4.989489977e-21)
(85.7887425 -8.114405183 1.617075618e-18)
(85.69230899 -8.14243093 9.845128869e-19)
(86.87742944 -8.492861686 6.464218677e-19)
(86.77808011 -8.505501663 2.987784057e-19)
(86.81045598 -8.46450041 1.614205182e-18)
(84.2508503 -7.45587191 6.855605141e-19)
(84.13991137 -7.476442713 3.425610095e-19)
(85.6047677 -8.114834571 -6.626232702e-19)
(85.61279067 -8.057565443 -1.302324709e-18)
(88.51648228 -9.63261938 8.564375075e-19)
(88.59633451 -9.585023881 5.667219413e-19)
(88.70737299 -9.582058347 -7.059762064e-21)
(87.81050031 -8.953304015 -1.455434375e-20)
(87.94770494 -8.911496345 -5.756944296e-19)
(87.9081127 -8.954092338 5.917579086e-19)
(89.23803327 -8.111942611 7.834467857e-19)
(89.21492302 -8.316427044 0)
(88.91974114 -8.324453078 4.523163977e-19)
(88.99799969 -8.388106307 -8.947393729e-19)
(87.71435305 -8.954015957 -6.137561607e-19)
(87.75572201 -8.993158967 -6.106164585e-19)
(87.63738116 -8.987701043 1.522974017e-20)
(88.43352645 -9.680743676 5.766060038e-19)
(88.24756351 -9.675534286 1.168322744e-18)
(88.37971005 -9.63372435 -5.642969447e-19)
(86.93531158 -8.520773263 3.218185255e-19)
(86.83965242 -8.533469139 -6.542109981e-19)
(87.59908339 -8.950525673 -1.541039672e-21)
(87.67268111 -8.917833445 -1.711281306e-21)
(89.30245101 -10.45423096 1.630800405e-18)
(89.60168442 -10.4090481 5.284000104e-19)
(89.50618801 -10.4628288 8.026658568e-19)
(91.02486386 -9.570970331 -1.15084895e-18)
(89.10447088 -10.4440019 5.533824361e-19)
(89.14983671 -10.49677279 8.230755662e-19)
(88.82240939 -10.47660402 8.226073873e-19)
(88.48883384 -9.726603419 0)
(88.30089649 -9.721996579 -5.951903561e-19)
(88.79252406 -10.42638253 1.494374195e-19)
(89.06912016 -10.38784817 -2.721935685e-19)
(87.94030803 -0.3155457234 1.029946962e-18)
(86.58989071 -0.4804911388 9.647563162e-19)
(87.25208777 0.1338895701 1.04468581e-18)
(82.06473563 -1.944189243 1.188344912e-18)
(82.72668878 -2.073237384 1.161278818e-18)
(80.78239812 5.887807729 -3.567682585e-18)
(81.27853994 5.013724057 -5.568245194e-19)
(80.45597876 4.508693782 8.888590698e-20)
(79.37405192 0.2888556226 1.250087286e-18)
(79.83731759 1.081704892 1.30973766e-18)
(78.29673997 0.6443157189 -2.676455619e-19)
(78.94212454 1.599282797 1.299182819e-18)
(74.05890753 -3.141651759 -3.537345172e-18)
(73.14568388 -2.309424616 -2.831334448e-18)
(74.0698814 -2.350628546 -5.614194508e-18)
(69.85783633 8.86678134 1.489332369e-18)
(70.61292914 7.653154775 -2.15273384e-18)
(69.52044505 6.86578351 0)
(83.92289583 -4.492991782 2.089434639e-20)
(83.44229342 -4.985043269 5.613540932e-19)
(83.41720795 -4.535378099 1.671442544e-20)
(82.43502469 -6.503878344 9.679708421e-19)
(82.65703387 -6.406674599 1.904741283e-18)
(79.83599629 -5.935019346 -1.139681227e-18)
(80.18844532 -5.752643095 1.091179097e-18)
(80.32652576 -6.053547025 1.022251903e-21)
(79.29805237 -5.792660726 1.177578763e-18)