/*--------------------------------*- C++ -*----------------------------------*\
| =========                 |                                                 |
| \\      /  F ield         | OpenFOAM: The Open Source CFD Toolbox           |
|  \\    /   O peration     | Version:  v2012                                 |
|   \\  /    A nd           | Website:  www.openfoam.com                      |
|    \\/     M anipulation  |                                                 |
\*---------------------------------------------------------------------------*/
FoamFile
{
    version     2.0;
    format      ascii;
    class       volScalarField;
    location    "0.41";
    object      omega;
}
// * * * * * * * * * * * * * * * * * * * * * * * * * * * * * * * * * * * * * //

dimensions      [0 0 -1 0 0 0 0];


internalField   nonuniform List<scalar> 
3259
(
31.98495842
31.9855056
31.98298239
31.97861199
31.974403
31.97076237
31.9691251
31.96772599
31.9341405
31.93302997
31.93197744
31.93097477
31.93952723
31.94334483
31.93251888
31.91191751
31.8911458
31.87504681
31.84863959
31.84138039
31.80473818
31.80125923
31.79809491
31.79521524
31.92346522
31.93082597
31.90686158
31.86201218
31.81512897
31.77783362
31.73583224
31.71986223
31.6783525
31.67246366
31.66699471
31.66209161
32.01268892
32.01905683
31.95697707
31.86899433
31.77822953
31.70525003
31.63763402
31.60704013
31.5567665
31.54677636
31.53862792
31.53181225
32.43484281
32.41758601
32.21734687
31.99918121
31.81231237
31.67371449
31.562747
31.50605357
31.43993974
31.42453156
31.41288477
31.40351796
34.17405073
33.90736692
33.0288462
32.39784045
31.97812794
31.70107777
31.51575269
31.41999531
31.33006857
31.30476851
31.28859021
31.2765802
44.17907241
41.00994026
35.31260948
33.31141315
32.35041487
31.81868132
31.50049865
31.35159561
31.22663959
31.18833218
31.16594003
31.15075452
65.07756542
40.71582544
35.00614348
32.99097742
32.04544587
31.51768876
31.29888375
31.13036358
31.07467415
31.04439188
31.02562424
118.87379
48.88593651
37.41493493
33.87520873
32.36767928
31.57270406
31.25949403
31.04162913
30.96563533
30.92557326
30.90258743
149.2335365
56.22949009
39.95618977
34.86953704
32.74621666
31.65291298
31.23123441
30.96017118
30.86149841
30.81049956
30.7828875
150.8389341
60.71404125
42.08489491
35.79689749
33.12421801
31.74131168
31.21140893
30.88621142
30.76497977
30.70201689
30.66910788
140.964945
62.61645262
43.54693488
36.53517502
33.44945583
31.82176362
31.19601321
30.81883778
30.67466942
30.60011837
30.56186957
138.4244318
72.5739025
177.8719643
143.6865834
178.0199743
179.6909874
162.7498944
176.2356973
160.4898481
43.19723552
66.9844949
40.92388672
373.2729485
138.4216653
112.7470768
52.6829271
43.80068644
1222.59025
854.1407855
147.3690248
63.59444873
55.7227329
741.5043176
986.6573301
151.648742
69.89540808
65.65158287
441.4308954
570.7594784
1658.131553
293.3510558
339.7329051
829.8378693
391.7222826
109.1624307
321.3812628
593.4679733
995.9951765
1225.34478
163.1474425
873.7131038
782.1703822
613.1709457
869.72636
160.8022335
594.2726187
726.8509121
180.9509919
564.4380594
454.0594439
775.3880007
582.6651557
181.3072542
349.4140252
426.6496119
2459.941624
2866.969129
288.5191892
1464.941013
2021.582731
355.9734994
4706.824344
142.5703272
72.08455267
70.77793383
5140.0369
637.293632
705.1183867
117.4216257
285.8746853
101.1706918
720.4201121
909.5606847
168.6060266
353.5356235
302.8974761
440.2927866
362.8544611
170.8025722
65.60045101
122.5373286
63.33278006
67.05163362
2683.681367
264.3176982
1914.363561
277.0933904
1418.466116
238.8592701
994.6321403
980.814507
841.8136415
858.8756568
1687.323731
3876.594568
490.4935246
2009.23877
1124.969025
4370.773052
2376.662629
509.3567377
537.9080098
608.3141813
4541.903623
587.4911476
558.4113044
1042.987642
1051.81908
818.8317866
295.4740675
287.3546648
298.6186151
297.1019903
814.2797985
731.4888908
261.6813483
240.1300369
283.3917108
268.1133725
746.2590955
626.7261142
4541.090641
637.6378693
1065.032726
791.7221693
389.0905067
960.7791032
1567.963492
5378.724157
516.8949952
2377.913942
1600.477222
2167.049295
810.6947836
2530.245111
3677.795223
121.2891902
292.3344326
109.5759559
125.7896808
1148.856067
2651.086269
2781.570626
916.9600556
785.8015645
2141.47358
1587.674015
3526.84335
3517.542117
947.5363932
719.6300605
2388.294048
2636.264034
422.3072588
194.5144342
164.6716209
231.4661571
204.7037466
440.3282039
1018.285804
3439.599898
3527.274586
1172.789382
1505.381248
1392.082744
688.9565517
514.2579004
273.5984621
282.4956216
703.4176221
294.7187349
298.2879446
285.5797743
292.6176218
692.119161
377.5718961
764.4513453
620.7936052
4425.114188
1199.566663
1421.84147
1078.973377
4657.692384
4735.037147
1102.740979
1427.735189
5350.353484
991.6818694
402.2254012
990.558886
3602.531653
2397.574301
808.2130394
4337.135429
5091.014466
2745.193687
824.230892
521.2599271
1321.042869
903.8505624
473.0084529
304.9650892
808.0859289
2935.005857
3721.749765
1094.173453
932.2990212
2813.337253
2940.853145
2333.533837
2220.776134
802.9169264
3907.707836
3815.135008
2796.258097
3813.826554
3771.477825
924.7728799
3652.709208
2398.019545
2505.359491
2849.005785
1522.772975
726.4036714
781.7841357
3198.109961
905.3799317
1019.789119
804.3333306
872.5840894
2984.006753
3165.922338
868.0000048
1018.83386
1729.935364
1811.082969
682.7535836
2526.637158
2544.478015
3192.192393
1758.591409
1465.533679
2462.399665
1741.239435
476.560462
1246.927283
1652.852004
3289.318377
3383.906316
1024.929999
1129.325993
3370.344009
3260.451665
1320.261061
1534.419568
1060.127536
1230.958206
4783.46753
2400.288518
2610.844306
1635.094471
2300.474521
5161.147629
1134.62826
5003.274476
4265.961481
4983.548101
1211.929317
5331.674769
60.78469038
41.32127477
36.13688744
5205.055442
5180.209675
72.23071429
5423.81877
295.6501585
249.9068602
154.8730879
250.134606
184.2415856
355.0110615
1246.323878
249.3145206
272.1814883
51.17048214
59.30344351
107.611118
326.7512639
600.9055592
867.4096975
749.256525
829.8490288
2691.355384
593.5016701
524.356864
318.0240458
940.5601047
1198.41428
451.2118947
4098.578445
3377.361657
5338.402845
4717.499048
730.6286883
2133.677641
4534.883162
3103.015551
3529.293281
5069.056111
1316.185424
1067.914984
644.2547023
154.0237769
123.3978739
207.1905498
782.0147675
2037.294148
1451.355259
85.087634
105.4719668
239.4220313
2204.903862
1451.499502
1127.403714
2856.586701
2263.194401
1844.334661
3452.119697
3134.274552
5045.584997
4754.041164
3334.203659
661.7382767
710.1129843
1404.926165
4531.298611
2296.122952
2568.859019
3906.487539
2205.052487
2617.099255
4396.41121
4343.650801
2694.13239
2854.251442
4510.988701
4387.226104
4577.798605
676.490929
1344.602553
1128.745055
5328.240524
5111.234723
5025.308269
3813.427877
3518.136306
1946.099217
1016.765723
990.6828801
1173.339752
2957.985813
5104.036442
4309.307218
5155.419212
4925.417999
3404.289613
167.2331218
225.4180703
664.0698562
2876.003828
2802.089517
2961.869926
2935.090626
2713.786277
1791.163208
1772.48025
1812.451296
1795.358741
2723.126679
3574.836698
2034.774085
2047.435784
1958.967655
2013.917015
3637.169873
2494.702852
1622.984713
1468.688967
1758.182104
1710.37898
2561.815487
3432.275737
2074.181843
2085.870533
2060.243471
2066.014029
3476.313733
3047.92162
2985.982153
3114.602355
2995.582899
5507.198203
5694.725366
5278.398434
3884.486701
5563.550626
1832.06618
2600.841144
1806.140306
2387.357915
1794.664993
710.4812688
2547.117307
1789.038768
4709.28742
4917.115947
5293.246707
3851.019246
4487.892436
823.9595729
4942.148059
5230.29993
4857.832624
2076.563696
1502.559314
2110.296005
1127.155479
1620.742656
2156.947942
2364.703894
2179.971414
3061.471507
1956.717903
1852.529735
2647.764077
1934.168772
2873.74372
2858.096388
1834.347133
1816.572145
1861.129077
1834.938278
2875.851793
2297.649564
1391.409432
1412.34875
3860.113396
3846.165584
3277.843019
4283.568246
4124.184951
3950.315637
3821.335717
4000.299261
3009.625318
1647.520208
1832.789561
1446.651091
1515.180915
2569.039982
4795.91369
3996.299805
2103.219792
5143.981952
4906.265927
4888.792293
3012.600336
4772.456042
4614.354115
1751.571035
1966.601764
3785.238312
1732.752598
1203.451699
1182.751427
1323.995676
1280.90963
1830.392239
2665.779217
2509.203206
1644.617963
2404.083869
2518.113446
2260.875584
2379.128823
1614.07419
2409.090773
2376.588784
3014.750041
2260.649422
3345.715815
2113.380272
2123.751862
2091.478885
2100.813785
3343.251138
3254.805325
2322.702239
2666.265316
2147.033425
2197.414452
3262.40518
4371.229799
4227.264743
4597.202527
3061.101173
3626.49987
2466.785136
4131.799085
4188.944419
4117.060059
4128.420073
2523.716391
1817.000269
3482.741335
2935.819486
4063.123592
4206.048008
2091.238697
4804.822143
3015.924861
3234.115356
2214.85616
2681.360186
4898.846329
4900.766501
4733.929232
3545.655433
4115.253283
5247.481427
5114.882171
31.91506584
31.93549459
31.92130379
31.92917679
31.94385308
31.92840252
31.9141052
31.93708491
31.90691754
31.88028502
31.9180082
31.87083595
31.84009207
31.89661737
31.83132746
31.80652542
31.87888407
31.95762799
31.91664745
31.96804683
31.98354461
31.93187964
31.97539688
31.94900525
31.91496625
31.93322111
31.87878125
31.87260378
31.86014567
31.80055055
31.82584156
31.78270736
31.7341256
31.78529402
32.22822483
32.0004519
32.2525386
32.28375992
32.01709757
32.24239998
32.16773951
31.974192
32.12371991
31.99594922
31.89141557
31.95241701
31.83024034
31.80128844
31.79398873
31.7031295
31.7213317
33.3685916
32.41218986
33.48224019
33.44923604
32.41246337
33.24459261
32.89137
32.263574
32.74237863
32.37840272
32.05302685
32.2705703
31.9963137
31.85502059
31.92048189
31.73833859
31.70481732
41.30427253
34.09787464
41.28212833
39.19914938
33.9767016
37.46485152
35.11748186
33.20684473
34.52044175
33.31858771
32.53432357
33.03369702
32.3943772
32.06752825
32.23450255
31.87243333
31.76035367
57.92528373
55.99787124
43.85777446
46.20430526
41.15883885
38.87074397
39.00019525
35.24306961
33.67322511
34.5300764
33.11755015
32.53914969
32.80304171
32.13604101
31.92463526
85.30236129
62.10614705
52.50463389
46.77301544
38.24719101
35.87868075
36.81726493
34.1881645
33.35348166
33.64192313
32.52912886
32.22264585
134.4222087
85.1370414
76.80990941
54.61940804
41.58512841
39.05026212
39.39975627
35.4338411
34.48100654
34.62486295
33.00512989
32.64195625
152.2767693
98.12985409
94.62248406
59.84028298
44.36677025
42.3124484
41.64306187
36.6230909
35.7335037
35.58197703
33.49260995
33.12808097
147.903532
100.7790976
100.6573737
62.27980737
46.26507011
44.89868376
43.26266277
37.57479234
36.8766494
36.37264665
33.92182203
33.60635315
136.9544522
103.6521488
104.5658976
46.57222419
37.77000373
34.01134698
127.6033598
169.9615152
191.2281554
81.54564271
95.0568912
81.4618744
175.395567
245.4892551
248.3219909
197.8397853
215.2434229
153.4616555
178.9688782
234.1704815
232.6817222
248.5025633
247.6079681
180.7915661
164.5348313
191.6831959
188.4305477
213.8423153
210.0794173
174.6405556
184.9347747
181.947856
158.720651
1034.370688
1160.103055
1177.993614
57.57031783
1366.74813
947.4534236
59.89720523
64.30696849
73.96581383
42.73401923
54.58757045
48.68784286
356.1752231
403.6190805
429.9625095
171.236136
199.2973134
166.642708
74.35076086
64.37275422
91.99781567
49.6083738
57.5692772
62.09227235
48.87460513
53.08690012
46.59901745
1212.396509
1839.695431
1848.090631
1208.400898
1232.55779
878.0890351
93.15215365
87.23243753
138.344053
61.24633958
74.06537902
77.12664217
66.46100462
70.47825047
58.58904634
756.4328796
919.5696429
893.1283244
1328.294951
1317.833178
976.9764248
100.4405719
98.89815544
152.4914187
68.79059044
83.2334978
84.30144293
79.6818036
81.68328724
67.36130338
456.4069083
582.061553
557.560473
826.4458172
766.7965193
549.4844783
1115.452848
1209.694632
1907.113766
311.345776
503.3669752
451.0966555
399.7344042
388.1895267
333.0330429
797.3863845
1140.437369
1183.410929
468.8698598
496.8467468
409.2997727
138.5289222
162.1420141
120.7329013
339.8622337
263.1148598
242.2854865
372.8428535
355.9521313
523.9609356
1003.670524
1344.429168
1338.194491
1845.680892
1839.879135
1221.192344
236.2575238
243.8987513
165.1805936
861.1108342
448.7931095
458.0639163
485.0943418
488.2445809
798.42421
668.4503128
402.91124
387.7535827
457.1151741
454.4107312
828.7423367
154.7880189
220.1830058
233.0360461
618.1731183
931.7909722
849.1332406
870.6267446
852.2350906
714.0001074
241.4771896
236.5244555
180.3053491
547.7841487
413.4808875
422.0291936
260.6106363
269.9068745
497.7225251
750.3983065
475.8121575
481.3890905
430.7461081
439.3404231
650.6066326
181.3967519
246.6280702
243.227953
357.4181808
426.5634963
413.0311123
535.4612942
514.2752899
413.5039155
435.1413459
1028.771866
471.9720319
917.1359556
558.8430359
105.6782774
100.6122833
146.4921342
71.83426738
85.56304853
85.45459511
85.03070752
85.40186287
71.38414321
666.6775645
1000.842451
857.955488
791.5130584
774.9187248
685.6399003
176.2215765
113.49146
90.49156219
222.6097057
203.4274227
265.2061616
89.62919243
106.3760163
129.9918064
740.0036442
853.5864677
824.38675
1211.476769
1126.90006
873.567858
199.0965052
195.4931505
166.8153105
329.5993626
239.7343166
234.233073
227.0372532
232.7853625
321.9383444
403.7441127
248.3850168
257.5055263
236.3314021
245.6066354
392.3058821
172.5472268
206.4670827
202.5646393
95.07675614
105.8996381
119.38869
136.0529504
64.62589048
87.95700459
76.07492012
98.49356266
94.99219429
65.87104142
372.4982151
553.4585333
317.5642443
658.6340433
280.3776912
211.7739724
976.1393745
835.3786793
1368.441065
189.4144043
265.6383722
343.8233411
1329.078255
1377.906907
1018.461444
963.1874193
1301.805165
1326.800787
1051.410109
1033.521052
829.5984056
876.9926702
1109.953175
1075.473979
634.4471711
607.2844636
473.250467
1773.772585
1170.157504
1257.623554
876.4266243
906.4625235
1193.556044
1364.466221
1464.020816
2679.49004
527.8901143
745.5171733
714.3160327
559.7100636
677.6750356
646.6014565
817.453523
756.7878638
584.0385838
807.1575382
843.1338441
617.3213528
529.372442
716.6282845
757.7814977
1371.541603
1368.059958
1037.015425
1065.799591
1402.24896
1380.24537
490.496264
489.5483727
847.4273219
293.3586287
368.2736299
370.1231589
361.3664715
365.1778276
290.6478619
298.6999009
371.6884976
370.9606934
371.5551739
371.9513345
298.1133702
803.2021983
489.774168
490.4172862
429.6772172
416.0761688
684.6742766
255.1881273
317.6059526
325.2018703
297.1169458
306.5112476
247.5808032
278.8535158
349.747652
355.936869
335.2103592
340.9945027
273.6747512
805.5992025
454.2244556
441.1588247
1078.037385
969.2792681
574.1882725
651.0359508
763.8864976
748.2472996
914.7216054
650.3680361
651.3311731
595.1276359
621.4564294
876.9297697
400.4676664
494.0398347
475.4625022
1013.249633
1458.441158
1324.391288
2949.5295
2604.430371
1441.1298
616.8706913
1776.539894
3303.348556
2953.504836
107.8938976
146.2556629
194.1706172
136.1200881
100.1629865
278.0849234
157.698582
228.143334
263.7091672
353.4875303
119.2344518
172.9847708
146.5541231
204.3217892
190.6304424
124.8840583
1714.793618
1803.4517
1189.808213
896.4898649
1247.072256
1267.168513
975.6016467
948.3607809
772.3354251
1970.685963
1253.727939
1311.247307
1125.945089
1184.948309
1741.584042
963.8715786
1299.614662
1271.21772
1005.499019
1082.428853
761.3148022
302.6773965
280.1526409
377.7548169
185.0536409
221.0456154
234.3200361
193.1551198
207.3064174
174.5123651
223.1741159
273.8573601
284.9006339
248.2722694
260.5899517
213.6346513
501.3638843
339.2138766
320.9792173
1356.471173
1351.056721
1011.480282
1206.298879
1803.987042
1714.522491
1460.549426
1055.109297
1083.967151
1007.116729
1030.001543
1425.849588
701.2135014
834.8377294
818.7897625
396.2716697
404.7668618
530.6072586
276.3925917
329.731494
324.7913869
339.6671124
334.8836366
279.7963655
462.0336811
469.730815
738.4166235
296.1664386
364.4041617
361.1129467
369.4469165
367.2484793
297.5785082
287.9794166
349.0192044
344.5517031
357.3561532
353.4449356
290.6523898
665.8557723
446.8774836
455.0403827
457.9085887
441.9041953
367.9207347
721.9825654
546.229876
569.4053225
503.0961116
524.1090721
648.9291641
688.0198414
1075.878169
1901.111325
1183.444096
1860.821136
1659.615763
2467.016588
2107.523083
1292.87218
469.1358877
3272.182224
1709.744038
1910.339925
1385.127401
1538.533441
2869.769403
833.5384303
1052.778157
989.6315436
688.612981
1008.520113
1245.950448
738.6926131
918.8711152
626.8726514
1382.482218
1614.527527
1058.175061
393.8497925
533.5771504
658.7867309
381.7184835
461.8928431
357.2385239
1001.353616
651.186372
559.4236242
1049.946965
1416.411561
1555.33981
1277.203385
1296.440689
950.66807
1347.310143
1371.61826
2265.251216
814.4537162
1016.0905
997.9000799
1219.958263
1160.873432
900.9894103
1051.114916
1102.760093
1628.113253
743.4340905
865.2776777
838.8521605
936.6167571
898.3837886
762.6380939
938.401845
1252.176426
1172.937131
1439.803332
1350.617626
981.2249123
823.3257353
1023.878425
980.8079328
1112.230069
1067.959438
851.0172398
2809.687294
1544.97815
1629.273706
1710.916609
1941.200575
3635.817008
903.6055008
1211.913729
1117.339911
1467.907013
1325.230616
965.1510176
646.9236986
890.3530783
942.1912639
621.1423945
658.6692269
499.2811501
1389.614344
948.1334358
889.677849
1106.621802
1053.856625
1572.908119
1030.742148
1364.269739
1360.839915
1567.321117
1454.969986
1091.222471
1402.29082
2478.452402
2219.234164
2740.420505
2593.988365
1466.855934
1101.276992
1591.879594
1515.116125
1910.145388
1707.052851
1156.357438
1724.447274
1595.682057
1073.874936
1314.175131
2170.730559
1894.743783
50.77037566
45.97581565
48.20682913
39.22255282
41.51712822
45.02094327
37.15483955
39.25183349
37.51742064
85.24119037
84.83225514
72.20420062
285.1412876
215.6837726
220.7110207
205.4752463
210.3113705
257.8225525
225.6450872
320.3873672
369.8137138
213.5334145
277.7327297
196.0989457
881.4347445
340.9335865
302.344416
562.4267002
971.36085
1923.211365
265.9627664
391.6100016
335.8881721
426.1854343
425.6566408
274.3206277
70.14152683
63.86466366
56.92383807
84.54887079
72.06563801
76.90541034
349.7230246
373.9015684
341.1155351
697.9107525
500.1699089
444.7911829
598.9423545
536.5802472
751.5964659
773.6563115
913.877274
870.8126869
1036.509123
970.0119479
800.5556418
2248.752956
1340.583075
1503.456561
569.6291769
465.8167564
483.6582605
433.7263296
448.7431102
545.8641283
1058.516142
710.9186126
650.9033002
816.2950711
766.7264561
1097.548349
430.93514
541.0891524
570.0023155
828.3320734
1222.367108
919.5271909
958.8462229
843.158168
872.2092393
1142.456123
674.7038373
740.924838
742.6231643
143.9181827
165.3888675
179.5052305
227.9646162
182.3472652
166.1919266
935.5931311
893.0962968
760.0652471
1812.780643
1167.316448
1258.719592
1021.579668
1085.021016
1615.286419
90.3251522
99.91607089
94.3667901
123.0388714
115.1378251
95.46966116
173.630693
133.6224415
167.1013964
679.3679896
765.1076001
751.4833964
811.5979408
790.5277397
693.2053856
1291.818865
953.0321645
997.8159906
800.901812
783.821643
663.5287765
1277.044652
948.7948478
979.0419535
886.8060129
914.0534731
1195.441988
176.3768034
219.8615393
198.7181348
284.8717722
255.1560145
199.035276
461.4903621
324.8300054
403.3738555
31.95768244
31.95987372
31.98571327
31.95931809
31.95597475
31.98452796
31.95057718
31.94422729
31.98087892
31.93732219
31.93053893
31.97641608
31.92439339
31.91923665
31.97258974
31.91575976
31.91133514
31.97000249
31.90845272
31.90631545
31.96843613
31.93048252
31.93399571
31.94173366
31.93580123
31.93394269
31.9423505
31.92176143
31.9157496
31.92848229
31.89620567
31.88897191
31.90716859
31.86970082
31.86365252
31.88712676
31.8010388
31.79837174
31.853218
31.79107818
31.78517581
31.84474143
31.78106183
31.77906283
31.83873016
31.93026597
31.93558957
31.92840792
31.93787687
31.93365419
31.92728059
31.90956484
31.89742741
31.89570388
31.85604023
31.84160415
31.84966089
31.80149485
31.78851522
31.8040225
31.72140957
31.70019842
31.74663817
31.68434832
31.67228358
31.72710477
31.66360557
31.65856724
31.71447311
32.06040082
32.08183285
32.01328918
32.06433098
32.05196448
32.00954891
31.99716777
31.97063666
31.93662056
31.88744859
31.85889725
31.84617976
31.77911967
31.75422739
31.75729532
31.67764099
31.62747698
31.6600573
31.5963948
31.5732474
31.62066614
31.55636265
31.54555936
31.59694143
32.64931027
32.7027911
32.42654466
32.5844676
32.53142469
32.38216188
32.34992684
32.27675838
32.16431795
32.07193023
32.00797468
31.9483198
31.83892152
31.79143427
31.77266834
31.68944928
31.58741589
31.6042677
31.53448181
31.49274195
31.5303987
31.46227557
31.44201891
31.48854623
35.37544361
35.42915852
34.17148213
34.57923743
34.24841847
33.70979247
33.41196156
33.16420907
32.8520008
32.57831849
32.4226358
32.2764407
32.04850509
31.95158503
31.89734024
31.7846966
31.59680933
31.58840916
31.50056233
31.43495587
31.46083062
31.38450688
31.3487086
31.39126899
46.87079077
47.09621782
44.502394
36.30320135
35.40038805
34.64781998
33.67889504
33.29813057
33.01078444
32.4839429
32.29173225
32.18809895
31.98291098
31.65503007
31.6165812
31.50545396
31.40084779
31.41446432
31.32398094
31.26774202
31.30488317
71.71860714
65.23887271
60.62857994
42.62819505
39.92785924
38.56958759
35.59839863
34.78348553
34.32999102
33.19548529
32.84830606
32.68982219
32.28129285
31.7761227
31.70702997
31.54191088
31.3866351
31.39019153
31.27787832
31.19842283
31.23099469
124.3259422
105.1204684
100.7070598
50.91555144
45.86749434
44.37325921
38.11191628
36.72397162
36.18479652
34.12412422
33.57619893
33.38173125
32.64997516
31.94495797
31.85470883
31.61134503
31.39174245
31.38766876
31.2450188
31.13955609
31.16817483
150.6615318
127.2470459
125.6990135
57.61619858
51.03494691
49.91289488
40.59590363
38.69111579
38.18309096
35.11372752
34.36222556
34.16864885
33.0348553
32.1324371
32.03662214
31.69789018
31.41084619
31.39876821
31.22220951
31.08950313
31.11504254
150.0596247
129.5168713
129.8635115
61.35869242
54.31652329
53.68660714
42.55083437
40.30444864
39.91623634
36.00132711
35.08219553
34.9164352
33.37908188
32.30825524
32.22169779
31.7842422
31.43548918
31.42136182
31.20622172
31.04643051
31.06918445
139.7328059
123.4154585
124.4433872
62.75635985
55.8799541
55.66709625
43.81804668
41.41495949
41.17451899
36.69159186
35.65755727
35.52488366
32.38235898
31.44498095
31.02835358
47.09344294
96.01595195
91.05782802
106.1256504
123.9167302
121.6930125
145.0134193
130.101329
130.1981858
152.1436162
299.3942829
339.4528058
332.4970681
478.534424
464.476142
571.079046
874.7419343
661.2283359
658.1699726
637.6212711
641.2809553
787.8896081
632.8303886
502.4841393
488.8188863
654.0938952
647.6702552
861.2629901
363.6088533
371.2494491
468.1635661
768.4701787
629.164276
633.7354296
323.7265645
125.2207236
126.1382988
143.8094778
136.1515696
116.7899446
108.4788436
345.2895697
296.2087066
300.9629962
266.7715775
271.4159207
308.2733127
427.5749351
348.3211917
355.5265383
308.0469648
313.2860675
371.8292322
63.01277444
70.61620403
71.83650789
72.93804082
73.19862748
67.28222974
379.167538
282.7265124
238.6324713
653.7408595
654.5615289
824.6494081
811.0762588
652.3155913
652.9532235
569.9872211
557.9827774
716.2366919
763.0878495
591.9695951
579.8955478
728.590279
717.6811017
613.048816
1010.515631
818.5684385
840.977425
697.6152954
715.2592737
815.5922998
391.0157863
382.1090914
404.1770893
459.833714
409.834267
397.6306057
591.0416074
597.9844143
713.7061468
684.0775683
577.5228343
584.4762923
749.49483
665.0749323
683.3812789
56.70659756
52.87886693
55.2448796
291.6826029
257.8646557
262.8423408
156.5585812
178.8273624
176.1271124
53.27657116
59.68017996
56.4076261
96.44571785
89.58696221
93.04580212
324.0743914
376.789475
366.6640354
138.6699108
151.8462766
133.3309813
215.8881201
185.1280768
195.7026175
31.91828615
31.92611964
31.92603841
31.9269521
31.92281051
31.92924205
31.92831885
31.9279751
31.94356148
31.93570349
31.93628051
31.92521587
31.92673873
31.92899803
31.9188208
31.92390156
31.92094644
31.93972691
31.93106987
31.92669048
31.89834056
31.90600174
31.91368706
31.88990465
31.89889728
31.89049991
31.92275146
31.90983063
31.90280437
31.85988102
31.87317219
31.8823365
31.85671206
31.86548409
31.85058067
31.90115487
31.88248883
31.87567645
31.82193567
31.84181712
31.84964213
31.82890462
31.8355852
31.81427828
31.8824227
31.85845469
31.85336035
31.93680333
31.92253953
31.97944482
31.94997789
31.94584813
31.95407509
31.9530922
31.98371507
31.93063613
31.938342
31.93949784
31.96853624
31.94821309
31.95370976
31.92863686
31.9389556
31.96169277
31.92243417
31.92769302
31.91908555
31.91577123
31.90312355
31.91705027
31.87256061
31.88877491
31.89781305
31.88468712
31.88518561
31.8705287
31.84042774
31.83868481
31.85654069
31.80573552
31.82137659
31.82115678
31.83808779
31.82873226
31.81449195
31.76556386
31.77557498
31.79076922
31.74879036
31.76189685
31.74918971
31.79460622
31.7771137
31.76642458
32.13745539
32.04567619
32.29009836
32.15091942
32.15562939
32.15016276
32.15514295
32.29398188
32.01771095
32.08705176
32.08376588
32.21797818
32.13721901
32.15504872
32.07421364
32.10273768
32.20313621
31.99152759
32.04290327
32.02283052
32.08100462
32.0155182
32.0472155
31.94686365
31.98157055
32.03895255
31.9146423
31.94379072
31.91576288
31.90958218
31.8784217
31.91235907
31.81292817
31.84513942
31.86882163
31.82398363
31.83130976
31.80470152
31.76121793
31.7558555
31.78365183
31.70473758
31.7295509
31.73137759
31.73909078
31.73155294
31.71224993
32.95748984
32.59438673
33.54873524
32.98141248
32.98627816
32.92713888
32.96917436
33.52421381
32.42699849
32.70049113
32.67486317
33.11916329
32.83825903
32.91926839
32.60221855
32.69739057
33.03733284
32.3137159
32.49905976
32.42901873
32.61175199
32.41912507
32.51431326
32.23652874
32.32537036
32.49221388
32.10865983
32.20683936
32.13854773
32.17153992
32.0748882
32.15243605
31.93596916
32.00324303
32.08061715
31.90060168
31.94807267
31.89111064
31.85267269
31.81805326
31.87453201
31.72072689
31.7668325
31.7921481
31.73692321
31.74847595
31.7100666
36.91904592
35.11356141
41.35188281
37.08051607
37.13648651
36.31784869
36.79978158
40.15007728
34.11090129
35.32751397
35.08260826
36.5128578
35.39478274
35.96735461
34.27901328
34.70776064
35.86753319
33.40269712
34.02401137
33.70120045
34.04434341
33.55116131
33.8965957
32.99311061
33.25114256
33.65121481
32.68547644
32.94747457
32.7534581
32.78944139
32.57812408
32.77003492
32.26386066
32.41094692
32.57853961
32.16692377
32.28382528
32.1590748
32.09655557
32.01872328
32.13399184
31.8271191
31.91703994
31.97672724
31.82490296
31.86639434
31.79113527
58.06336535
52.29822265
52.26382069
50.69276758
51.57781028
57.62936831
44.15196084
47.02647803
46.66889817
37.36102769
36.29608525
37.53577385
34.62805939
35.35605165
36.15448392
34.11071044
34.69862287
34.13763164
33.95976915
33.58977588
34.05040403
32.89950015
33.21318338
33.49652178
32.75711425
32.97918598
32.71122025
32.54148982
32.41071014
32.63440937
32.05638799
32.21957264
32.32187497
32.04716724
32.12755962
31.98661351
75.4417281
70.15383412
77.49967283
58.1252262
62.82248003
67.01946596
42.86098277
41.35915609
44.6756214
37.38704246
39.04785245
40.17103786
37.02041875
38.0255303
36.64431804
35.72157371
35.20639861
36.14772509
33.88394733
34.4713792
34.865883
33.79156656
34.13712353
33.61849948
33.19740473
33.01452391
33.40635331
32.41952096
32.68960818
32.83152893
32.43618027
32.55952048
32.31834145
112.9114806
109.1225372
129.6135528
82.36818283
93.50999546
96.63727941
86.69018912
90.28303413
80.04123681
48.66454024
47.30522219
52.85895823
40.7283564
43.46736627
44.54186476
41.26657137
42.40440098
39.93455937
37.7363908
37.19514844
38.71193124
35.10606598
36.02692761
36.44681729
35.2338888
35.64786969
34.80148852
33.97199459
33.77109645
34.36915044
32.88077553
33.28195555
33.44004529
32.97611392
33.12817867
32.76050713
129.2932343
128.3471758
151.64382
97.12415709
110.4192696
111.5063281
107.7785132
109.3214609
95.99867735
52.9097345
52.04931145
58.84942514
43.72589536
47.22916464
47.98624814
45.49424326
46.42204562
43.08265318
39.55299465
39.10829229
41.10760811
36.33134371
37.55528085
37.9197874
36.81404917
37.20940287
36.04484132
34.74024768
34.55507485
35.35137692
33.37262945
33.90466164
34.05341702
33.59640167
33.75007207
33.25049475
128.3791576
128.8437843
148.8768249
55.27184327
54.86240919
61.91985071
45.83485628
49.69591013
50.14602526
48.62703948
49.23811968
45.44727706
40.91266581
40.61714391
42.89817372
37.36637828
38.81236177
39.05911652
38.22012563
38.54286844
37.13600519
35.38994674
35.24456252
36.19765162
33.82188769
34.46299425
34.58292315
34.19622627
34.33017868
33.71576556
50.49223014
50.77520967
46.86587578
39.2903814
39.49759575
37.95096965
34.69418071
34.80456984
34.1016186
177.1885297
155.0203091
148.3273288
165.5290825
159.6047015
184.4561477
246.8575209
210.5785469
208.9152607
212.8382449
211.7394421
247.6728479
203.997021
175.30983
170.0037225
184.0631441
179.560439
209.8397842
232.7836158
207.4617754
208.8072848
248.4157931
214.1164637
213.5409205
214.5119554
214.4066236
248.0724571
50.64740778
46.18841014
45.46586468
42.38029403
52.45205011
47.88027024
48.8878644
45.05860384
45.97700509
50.20228643
70.72124277
79.06713944
83.03374968
70.95902177
75.15158336
68.27889247
99.50810944
85.9418199
80.64827233
91.33139083
104.0981953
106.1654155
99.33791219
101.9364162
89.52767017
142.1339787
119.2107695
116.2164486
100.0488924
113.0613471
113.3660194
112.1246058
112.8034502
99.58210091
152.402484
130.2021933
129.7633618
806.2882983
698.4513386
713.5775265
668.2887487
683.6531988
783.9612035
356.8394048
348.2478166
305.1034797
484.9875246
406.25497
418.801648
383.0440275
393.1926437
466.590141
146.3205832
132.0567147
124.2360724
143.7140576
136.5462261
154.5450043
548.2376464
454.0695444
440.1045334
239.2882631
203.2932027
200.6818575
207.2717188
205.1908989
241.6458912
660.1315903
661.3427279
870.4348426
459.9541413
510.9328555
527.9049762
501.0822697
507.769551
459.3402572
793.5907535
644.3370095
647.0238924
525.798029
512.506488
650.3858067
455.8324808
487.4258128
495.5060801
469.8160218
479.6577666
454.9624457
848.1953046