/*--------------------------------*- C++ -*----------------------------------*\
| =========                 |                                                 |
| \\      /  F ield         | OpenFOAM: The Open Source CFD Toolbox           |
|  \\    /   O peration     | Version:  v2012                                 |
|   \\  /    A nd           | Website:  www.openfoam.com                      |
|    \\/     M anipulation  |                                                 |
\*---------------------------------------------------------------------------*/
FoamFile
{
    version     2.0;
    format      ascii;
    class       pointVectorField;
    location    "1.55";
    object      pointDisplacement;
}
// * * * * * * * * * * * * * * * * * * * * * * * * * * * * * * * * * * * * * //

dimensions      [0 1 0 0 0 0 0];


internalField   nonuniform List<vector> 
6426
(
(0 0 0)
(0 0 0)
(0 0 0)
(0 0 0)
(0 0 0)
(0 0 0)
(0 0 0)
(0 0 0)
(0 0 0)
(0 0 0)
(-0.001390794188 -0.07816093457 0)
(-0.001410984284 -0.07851744764 0)
(-0.001428777586 -0.0788741072 0)
(-0.0006909386298 -0.07889029515 0)
(-0.0006518347095 -0.07817769297 0)
(0.01061982297 -0.07849648321 0)
(0.01054883525 -0.07992299437 0)
(0.01047726176 -0.08134908618 0)
(0.01350596453 -0.08144247103 0)
(0.01364531062 -0.07858836152 0)
(0.01213312816 -0.07854257435 0)
(0.02180311622 -0.07531635723 3.434613705e-13)
(0.02139771658 -0.07692962669 3.385763891e-13)
(0.02289105636 -0.07236617824 3.183009412e-13)
(0.02351879081 -0.07152605615 3.259476022e-13)
(0.02386112967 -0.0531608671 2.42250664e-13)
(0.02299417522 -0.05314765164 2.337852134e-13)
(0.02136766271 -0.04526878733 1.992711551e-13)
(0.0222736338 -0.04549990324 2.075006833e-13)
(0.01360297286 -0.02218677495 1.015576512e-13)
(0.01278377204 -0.02161291449 9.547918012e-14)
(0.009360417918 -0.01482586763 6.560030297e-14)
(0.0100821884 -0.0154062079 7.063793994e-14)
(0.001435910454 -0.001847868209 8.507083926e-15)
(0.001167291633 -0.001557374476 6.911138328e-15)
(9.256413242e-05 -0.0001174887052 5.273559367e-16)
(0.0001768476217 -0.0002164860513 9.992007222e-16)
(0 0 0)
(0 0 0)
(0 0 0)
(0 0 0)
(0 0 0)
(0 0 0)
(0 0 0)
(0 0 0)
(0 0 0)
(0 0 0)
(0 0 0)
(0 0 0)
(0 0 0)
(0 0 0)
(-0.002215657874 -0.08946990106 0)
(-0.002239521474 -0.09018614308 0)
(-0.002263407891 -0.09090305074 0)
(-0.000737951986 -0.09095387827 0)
(-0.0006902000565 -0.08952072866 0)
(0.009987949412 -0.08987652001 0)
(0.009892467733 -0.09274215358 0)
(0.01290102824 -0.09248719353 3.581579477e-13)
(0.01302998859 -0.08990669636 3.592681708e-13)
(0.02021703044 -0.08138397068 3.242961455e-13)
(0.01969825252 -0.08214606681 3.173572516e-13)
(0.02076499331 -0.07582254243 2.928213227e-13)
(0.02138417662 -0.07545996568 3.005651283e-13)
(0.02000820562 -0.05122739635 2.041561364e-13)
(0.01919670984 -0.05075741022 1.961208973e-13)
(0.01715022885 -0.04148169388 1.603994715e-13)
(0.01832265657 -0.04295734293 1.713074127e-13)
(0.00965056088 -0.01802720531 7.212286324e-14)
(0.008411930392 -0.01620519185 6.286637877e-14)
(0.00572056247 -0.0103283085 4.010680676e-14)
(0.006517968084 -0.01140665216 4.568567746e-14)
(0.0002403547828 -0.0003547652929 1.429412144e-15)
(0.0001085683891 -0.0001654066765 6.383782392e-16)
(0 0 0)
(0 0 0)
(0 0 0)
(0 0 0)
(0 0 0)
(0 0 0)
(0 0 0)
(0 0 0)
(0 0 0)
(0 0 0)
(0 0 0)
(0 0 0)
(0 0 0)
(0 0 0)
(0 0 0)
(0 0 0)
(-0.002597626764 -0.1009337667 0)
(-0.002693130622 -0.1038000659 0)
(0.0003577739805 -0.1039017208 0)
(0.0004532778394 -0.1010354216 0)
(0.009539308259 -0.1004342312 3.563399575e-13)
(0.009332305821 -0.1016641352 3.508027202e-13)
(0.01199541816 -0.09863093043 3.400474347e-13)
(0.01232283232 -0.09822441442 3.481798183e-13)
(0.01801537579 -0.0823891301 2.915306885e-13)
(0.01723797664 -0.08103296299 2.789296571e-13)
(0.01770539385 -0.07266841111 2.501054919e-13)
(0.01861817185 -0.07437361948 2.631228568e-13)
(0.01588826891 -0.04582299903 1.622729728e-13)
(0.01476503167 -0.04373402302 1.506711422e-13)
(0.01255744323 -0.03401912812 1.172950626e-13)
(0.01366222461 -0.03603644928 1.277034034e-13)
(0.005386389344 -0.01131938749 4.021782907e-14)
(0.004628716252 -0.009995384542 3.455569164e-14)
(0.002370077102 -0.004799015695 1.659783422e-14)
(0.003218799929 -0.006343287803 2.256528298e-14)
(0 0 0)
(0 0 0)
(0 0 0)
(0 0 0)
(0 0 0)
(0 0 0)
(0 0 0)
(0 0 0)
(0 0 0)
(0 0 0)
(0 0 0)
(0 0 0)
(0 0 0)
(0 0 0)
(0 0 0)
(0 0 0)
(0 0 0)
(0 0 0)
(-0.002764451332 -0.1079164593 3.451960939e-13)
(-0.002612110916 -0.1055013078 3.290562267e-13)
(0.0002132411426 -0.1038302627 3.235883783e-13)
(0.0001917388645 -0.106643815 3.408245908e-13)
(0.008281895824 -0.09766297316 3.113898028e-13)
(0.007776887274 -0.09332595591 2.902261764e-13)
(0.009721834669 -0.08776837586 2.727956749e-13)
(0.0104420731 -0.09255551617 2.949307465e-13)
(0.0140242255 -0.07078896459 2.253336406e-13)
(0.01268301535 -0.0653128874 2.028377466e-13)
(0.01253985914 -0.05640552423 1.751931933e-13)
(0.01403200188 -0.06183627205 1.968425423e-13)
(0.01052351694 -0.03351799029 1.068173328e-13)
(0.008925453294 -0.02906199867 9.035827642e-14)
(0.006984124142 -0.02082811362 6.480926906e-14)
(0.008476760706 -0.02471481247 7.881195696e-14)
(0.002133625356 -0.004974166514 1.589006704e-14)
(0.001374492852 -0.003282826297 1.022792961e-14)
(0.00030814114 -0.0006912109393 2.15105711e-15)
(0.0007122434939 -0.001558716834 4.968248035e-15)
(0 0 0)
(0 0 0)
(0 0 0)
(0 0 0)
(0 0 0)
(0 0 0)
(0 0 0)
(0 0 0)
(0 0 0)
(0 0 0)
(0 0 0)
(0 0 0)
(0 0 0)
(0 0 0)
(0 0 0)
(0 0 0)
(0 0 0)
(0 0 0)
(-0.001741819337 -0.08663099722 2.513961261e-13)
(-0.001391694895 -0.07715050929 2.187972026e-13)
(0.000484464926 -0.07482489099 2.121081089e-13)
(0.0004188536744 -0.08433700006 2.446098879e-13)
(0.00581949217 -0.07174803075 2.077921168e-13)
(0.005045166412 -0.06235073392 1.765393387e-13)
(0.005997122147 -0.05657223849 1.601496713e-13)
(0.007025212967 -0.06578294517 1.904587599e-13)
(0.008145281971 -0.04412925976 1.27731159e-13)
(0.006580876091 -0.03618116375 1.02418074e-13)
(0.006017705973 -0.02903158268 8.21842594e-14)
(0.0076468065 -0.03629923127 1.050826093e-13)
(0.004208144545 -0.01457274469 4.22301083e-14)
(0.002846470781 -0.01005248147 2.847722058e-14)
(0.001679907847 -0.005451242231 1.544597783e-14)
(0.002791762904 -0.008874930484 2.57294186e-14)
(2.350026763e-05 -6.020078359e-05 1.665334537e-16)
(0 0 0)
(0 0 0)
(0 0 0)
(0 0 0)
(0 0 0)
(0 0 0)
(0 0 0)
(0 0 0)
(0 0 0)
(0 0 0)
(0 0 0)
(0 0 0)
(0 0 0)
(0 0 0)
(0 0 0)
(0 0 0)
(0 0 0)
(0 0 0)
(0 0 0)
(0 0 0)
(0 0 0)
(-0.0005002606906 -0.04413114902 1.171840402e-13)
(-0.0003057456509 -0.03315132527 8.620881786e-14)
(0.0004135225497 -0.0314198877 8.168465904e-14)
(0.0004874951306 -0.04215924326 1.119243587e-13)
(0.002601475856 -0.03213914652 8.527900608e-14)
(0.001843424166 -0.02279019916 5.923039836e-14)
(0.001981750939 -0.01912908434 4.971023593e-14)
(0.002895659229 -0.02777637426 7.370493105e-14)
(0.002405439379 -0.01379574406 3.660960424e-14)
(0.001368711973 -0.007966919623 2.070565941e-14)
(0.0009385476047 -0.004826793859 1.254552018e-14)
(0.001878723852 -0.009503522373 2.522981823e-14)
(0.0002163100727 -0.0008102733816 2.164934898e-15)
(6.074090393e-07 -2.32209178e-06 0)
(0 0 0)
(2.529383247e-06 -8.732146913e-06 1.387778781e-17)
(0 0 0)
(0 0 0)
(0 0 0)
(0 0 0)
(0 0 0)
(0 0 0)
(0 0 0)
(0 0 0)
(0 0 0)
(0 0 0)
(0 0 0)
(0 0 0)
(0 0 0)
(0 0 0)
(0 0 0)
(0 0 0)
(0 0 0)
(0 0 0)
(0 0 0)
(0 0 0)
(0 0 0)
(0 0 0)
(-3.173572518e-05 -0.007214679754 1.765254609e-14)
(-8.492565521e-06 -0.002413959286 5.800915304e-15)
(3.348761775e-05 -0.001976516737 4.74620343e-15)
(0.0001061824738 -0.006427405163 1.573741137e-14)
(0.0002356001338 -0.002964965864 7.258083023e-15)
(2.922849379e-05 -0.0003729362394 8.881784197e-16)
(5.387906537e-06 -5.452479925e-05 1.387778781e-16)
(0.0001790220296 -0.001782229913 4.371503159e-15)
(0 0 0)
(0 0 0)
(0 0 0)
(0 0 0)
(0 0 0)
(0 0 0)
(0 0 0)
(0 0 0)
(0 0 0)
(0 0 0)
(0 0 0)
(0 0 0)
(0 0 0)
(0 0 0)
(0 0 0)
(0 0 0)
(0 0 0)
(0 0 0)
(0 0 0)
(0 0 0)
(0 0 0)
(0 0 0)
(0 0 0)
(0 0 0)
(0 0 0)
(0 0 0)
(0 0 0)
(0 0 0)
(0 0 0)
(0 0 0)
(0 0 0)
(0 0 0)
(0 0 0)
(0 0 0)
(0 0 0)
(0 0 0)
(0 0 0)
(0 0 0)
(0 0 0)
(0 0 0)
(0 0 0)
(0 0 0)
(0 0 0)
(0 0 0)
(0 0 0)
(0 0 0)
(0 0 0)
(0 0 0)
(0 0 0)
(0 0 0)
(0 0 0)
(0 0 0)
(0 0 0)
(0 0 0)
(0 0 0)
(0 0 0)
(0 0 0)
(0 0 0)
(0 0 0)
(0 0 0)
(0 0 0)
(0 0 0)
(0 0 0)
(0 0 0)
(0 0 0)
(0 0 0)
(0 0 0)
(0 0 0)
(0 0 0)
(0 0 0)
(0 0 0)
(0 0 0)
(0 0 0)
(0 0 0)
(0 0 0)
(0 0 0)
(0 0 0)
(0 0 0)
(0 0 0)
(0 0 0)
(0 0 0)
(0 0 0)
(0 0 0)
(0 0 0)
(0 0 0)
(0 0 0)
(0 0 0)
(0 0 0)
(0 0 0)
(0 0 0)
(0 0 0)
(0 0 0)
(0 0 0)
(0 0 0)
(0 0 0)
(0 0 0)
(0 0 0)
(0 0 0)
(0 0 0)
(0 0 0)
(0 0 0)
(0 0 0)
(0 0 0)
(0 0 0)
(0 0 0)
(0 0 0)
(0 0 0)
(0 0 0)
(0 0 0)
(0 0 0)
(0 0 0)
(0 0 0)
(0 0 0)
(0 0 0)
(0 0 0)
(0 0 0)
(0 0 0)
(0 0 0)
(0 0 0)
(0 0 0)
(0 0 0)
(0 0 0)
(0 0 0)
(0 0 0)
(0 0 0)
(0 0 0)
(0 0 0)
(0 0 0)
(0 0 0)
(0 0 0)
(0 0 0)
(0 0 0)
(0 0 0)
(0 0 0)
(0 0 0)
(0 0 0)
(0 0 0)
(0 0 0)
(0 0 0)
(0 0 0)
(0 0 0)
(0 0 0)
(0 0 0)
(0 0 0)
(0 0 0)
(0 0 0)
(0 0 0)
(0 0 0)
(0 0 0)
(0 0 0)
(0 0 0)
(0 0 0)
(0 0 0)
(0 0 0)
(0 0 0)
(0 0 0)
(0 0 0)
(0 0 0)
(0 0 0)
(0 0 0)
(0 0 0)
(0 0 0)
(0 0 0)
(0 0 0)
(0 0 0)
(0 0 0)
(0 0 0)
(0 0 0)
(0 0 0)
(0 0 0)
(0 0 0)
(0 0 0)
(0 0 0)
(0 0 0)
(0 0 0)
(0 0 0)
(0 0 0)
(0 0 0)
(0 0 0)
(0 0 0)
(0 0 0)
(0 0 0)
(0 0 0)
(0 0 0)
(0 0 0)
(0 0 0)
(0 0 0)
(0 0 0)
(0 0 0)
(0 0 0)
(0 0 0)
(0 0 0)
(0 0 0)
(0 0 0)
(0 0 0)
(0 0 0)
(0 0 0)
(0 0 0)
(0 0 0)
(0 0 0)
(0 0 0)
(0 0 0)
(0 0 0)
(0 0 0)
(0 0 0)
(0 0 0)
(0 0 0)
(0 0 0)
(0 0 0)
(0 0 0)
(0 0 0)
(0 0 0)
(0 0 0)
(0 0 0)
(0 0 0)
(0 0 0)
(0 0 0)
(0 0 0)
(0 0 0)
(0 0 0)
(0 0 0)
(0 0 0)
(0 0 0)
(0 0 0)
(0 0 0)
(0 0 0)
(0 0 0)
(0 0 0)
(0 0 0)
(0 0 0)
(0 0 0)
(0 0 0)
(0 0 0)
(0 0 0)
(0 0 0)
(0 0 0)
(0 0 0)
(0 0 0)
(0 0 0)
(0 0 0)
(0 0 0)
(0 0 0)
(0 0 0)
(0 0 0)
(0 0 0)
(0 0 0)
(0 0 0)
(0 0 0)
(0 0 0)
(0 0 0)
(0 0 0)
(0 0 0)
(0 0 0)
(0 0 0)
(0 0 0)
(0 0 0)
(0 0 0)
(0 0 0)
(0 0 0)
(0 0 0)
(0 0 0)
(0 0 0)
(0 0 0)
(0 0 0)
(0 0 0)
(0 0 0)
(0 0 0)
(0 0 0)
(0 0 0)
(0 0 0)
(0 0 0)
(0 0 0)
(0 0 0)
(0 0 0)
(0 0 0)
(0 0 0)
(0 0 0)
(0 0 0)
(0 0 0)
(0 0 0)
(0 0 0)
(0 0 0)
(0 0 0)
(0 0 0)
(0 0 0)
(0 0 0)
(0 0 0)
(0 0 0)
(0 0 0)
(0 0 0)
(0 0 0)
(0 0 0)
(0 0 0)
(0 0 0)
(0 0 0)
(0 0 0)
(0 0 0)
(0 0 0)
(0 0 0)
(0 0 0)
(0 0 0)
(0 0 0)
(0 0 0)
(0 0 0)
(0 0 0)
(0 0 0)
(0 0 0)
(0 0 0)
(0 0 0)
(0 0 0)
(0 0 0)
(0 0 0)
(0 0 0)
(0 0 0)
(0 0 0)
(0 0 0)
(0 0 0)
(0 0 0)
(0 0 0)
(0 0 0)
(0 0 0)
(0 0 0)
(0 0 0)
(0 0 0)
(0 0 0)
(0 0 0)
(0 0 0)
(0 0 0)
(0 0 0)
(0 0 0)
(0 0 0)
(0 0 0)
(0 0 0)
(0 0 0)
(0 0 0)
(0 0 0)
(0 0 0)
(0 0 0)
(0 0 0)
(0 0 0)
(0 0 0)
(0 0 0)
(0 0 0)
(0 0 0)
(0 0 0)
(0 0 0)
(0 0 0)
(0 0 0)
(0 0 0)
(0 0 0)
(0 0 0)
(0 0 0)
(0 0 0)
(0 0 0)
(0 0 0)
(0 0 0)
(0 0 0)
(0 0 0)
(0 0 0)
(0 0 0)
(0 0 0)
(0 0 0)
(0 0 0)
(0 0 0)
(0 0 0)
(0 0 0)
(0 0 0)
(0 0 0)
(0 0 0)
(0 0 0)
(0 0 0)
(0 0 0)
(0 0 0)
(0 0 0)
(0 0 0)
(0 0 0)
(0 0 0)
(0 0 0)
(0 0 0)
(0 0 0)
(0 0 0)
(0 0 0)
(0 0 0)
(0 0 0)
(0 0 0)
(0 0 0)
(0 0 0)
(0 0 0)
(0 0 0)
(0 0 0)
(0 0 0)
(0 0 0)
(0 0 0)
(0 0 0)
(0 0 0)
(0 0 0)
(0 0 0)
(0 0 0)
(0 0 0)
(0 0 0)
(0 0 0)
(0 0 0)
(0 0 0)
(0 0 0)
(0 0 0)
(0 0 0)
(0 0 0)
(0 0 0)
(0 0 0)
(0 0 0)
(0 0 0)
(0 0 0)
(0 0 0)
(0 0 0)
(0 0 0)
(0 0 0)
(0 0 0)
(0 0 0)
(0 0 0)
(0 0 0)
(0 0 0)
(0 0 0)
(0 0 0)
(0 0 0)
(0 0 0)
(0 0 0)
(0 0 0)
(0 0 0)
(0 0 0)
(0 0 0)
(0 0 0)
(0 0 0)
(0 0 0)
(0 0 0)
(0 0 0)
(0 0 0)
(0 0 0)
(0 0 0)
(0 0 0)
(0 0 0)
(0 0 0)
(0 0 0)
(0 0 0)
(0 0 0)
(0 0 0)
(0 0 0)
(0 0 0)
(0 0 0)
(0 0 0)
(0 0 0)
(0 0 0)
(0 0 0)
(0 0 0)
(0 0 0)
(0 0 0)
(0 0 0)
(0 0 0)
(0 0 0)
(0 0 0)
(0 0 0)
(0 0 0)
(0 0 0)
(0 0 0)
(0 0 0)
(0 0 0)
(0 0 0)
(0 0 0)
(0 0 0)
(0 0 0)
(0 0 0)
(0 0 0)
(0 0 0)
(0 0 0)
(0 0 0)
(0 0 0)
(0 0 0)
(0 0 0)
(0 0 0)
(0 0 0)
(0 0 0)
(0 0 0)
(0 0 0)
(0 0 0)
(0 0 0)
(0 0 0)
(0 0 0)
(0 0 0)
(0 0 0)
(0 0 0)
(0 0 0)
(0 0 0)
(0 0 0)
(0 0 0)
(0 0 0)
(0 0 0)
(0 0 0)
(0 0 0)
(0 0 0)
(0 0 0)
(0 0 0)
(0 0 0)
(0 0 0)
(0 0 0)
(0 0 0)
(0 0 0)
(0 0 0)
(0 0 0)
(0 0 0)
(0 0 0)
(0 0 0)
(0 0 0)
(0 0 0)
(0 0 0)
(0 0 0)
(0 0 0)
(0 0 0)
(0 0 0)
(0 0 0)
(0 0 0)
(0 0 0)
(0 0 0)
(0 0 0)
(0 0 0)
(0 0 0)
(0 0 0)
(0 0 0)
(0 0 0)
(0 0 0)
(0 0 0)
(0 0 0)
(0 0 0)
(0 0 0)
(0 0 0)
(0 0 0)
(0 0 0)
(0 0 0)
(0 0 0)
(0 0 0)
(0 0 0)
(0 0 0)
(0 0 0)
(0 0 0)
(0 0 0)
(0 0 0)
(0 0 0)
(0 0 0)
(0 0 0)
(0 0 0)
(0 0 0)
(0 0 0)
(0 0 0)
(0 0 0)
(0 0 0)
(0 0 0)
(0 0 0)
(0 0 0)
(0 0 0)
(0 0 0)
(0 0 0)
(0 0 0)
(0 0 0)
(0 0 0)
(0 0 0)
(0 0 0)
(0 0 0)
(0 0 0)
(0 0 0)
(0 0 0)
(0 0 0)
(0 0 0)
(0 0 0)
(0 0 0)
(0 0 0)
(0 0 0)
(0 0 0)
(0 0 0)
(0 0 0)
(0 0 0)
(0 0 0)
(0 0 0)
(0 0 0)
(0 0 0)
(0 0 0)
(0 0 0)
(0 0 0)
(0 0 0)
(0 0 0)
(0 0 0)
(0 0 0)
(0 0 0)
(0 0 0)
(0 0 0)
(0 0 0)
(0 0 0)
(0 0 0)
(0 0 0)
(0 0 0)
(0 0 0)
(0 0 0)
(0 0 0)
(0 0 0)
(0 0 0)
(0 0 0)
(0 0 0)
(0 0 0)
(0 0 0)
(0 0 0)
(0 0 0)
(0 0 0)
(0 0 0)
(0 0 0)
(0 0 0)
(0 0 0)
(0 0 0)
(0 0 0)
(0 0 0)
(0 0 0)
(0 0 0)
(0 0 0)
(0 0 0)
(0 0 0)
(0 0 0)
(0 0 0)
(0 0 0)
(0 0 0)
(0 0 0)
(0 0 0)
(0 0 0)
(0 0 0)
(0 0 0)
(0 0 0)
(0 0 0)
(0 0 0)
(0 0 0)
(0 0 0)
(0 0 0)
(0 0 0)
(0 0 0)
(0 0 0)
(0 0 0)
(0 0 0)
(0 0 0)
(0 0 0)
(0 0 0)
(0 0 0)
(0 0 0)
(0 0 0)
(0 0 0)
(0 0 0)
(0 0 0)
(0 0 0)
(0 0 0)
(0 0 0)
(0 0 0)
(0 0 0)
(0 0 0)
(0 0 0)
(0 0 0)
(0 0 0)
(0 0 0)
(0 0 0)
(0 0 0)
(0 0 0)
(0 0 0)
(0 0 0)
(0 0 0)
(0 0 0)
(0 0 0)
(0 0 0)
(0 0 0)
(0 0 0)
(0 0 0)
(0 0 0)
(0 0 0)
(0 0 0)
(0 0 0)
(-0.001372605717 -0.07780375506 0)
(-0.001743801178 -0.07779511878 0)
(-0.001761244339 -0.07815238976 0)
(-0.0006143106169 -0.0774641052 0)
(-0.001354140335 -0.07744658478 0)
(0.01068746465 -0.0770683945 0)
(0.009178850103 -0.07702352588 0)
(0.009110613768 -0.0784514615 0)
(-0.002191774366 -0.08875299331 0)
(-0.002954519745 -0.08872757896 0)
(-0.002978393486 -0.08944448704 0)
(-0.001779843965 -0.07850928902 0)
(-0.000642448127 -0.08808757905 0)
(-0.001350950477 -0.08808662936 0)
(-0.002066145584 -0.08809678533 0)
(0.01016342515 -0.08704207336 0)
(0.008654255873 -0.08699585348 0)
(0.007136066991 -0.08694833348 0)
(0.007054244611 -0.08837001881 0)
(0.006982218521 -0.08979969405 0)
(0.00903943301 -0.07987776631 0)
(0.004855456616 -0.07260050645 0)
(-0.002549874834 -0.09950061711 0)
(-0.004075330464 -0.09944978958 0)
(-0.004123082393 -0.1008829392 0)
(-0.003002251704 -0.09016072924 0)
(-0.001513767652 -0.07278572246 0)
(-0.001141466529 -0.07279539517 0)
(0.004578521844 -0.07831538131 0)
(0.004650831983 -0.0768883811 0)
(0.003148303744 -0.07684584773 0)
(0.003111387616 -0.07755958903 0)
(0.003073821355 -0.07827244237 0)
(0.004071691882 -0.07329456093 0)
(0.004822210472 -0.07331590273 0)
(-0.0007665582546 -0.07280602106 0)
(-0.001744881343 -0.08384511704 0)
(-0.002473911669 -0.08383302102 0)
(-0.002524517913 -0.08453997546 0)
(-0.001796496277 -0.08455170467 0)
(-0.001692596992 -0.0831380186 0)
(-0.002423603872 -0.08312512369 0)
(-0.00100820885 -0.08385993333 0)
(-0.0009560580686 -0.08315316364 0)
(0.004266566858 -0.08401149659 0)
(0.004347566045 -0.08258951727 0)
(0.002831311998 -0.08254252821 0)
(0.002742016527 -0.0839614989 0)
(0.003035729229 -0.07898527818 0)
(0.002997324238 -0.07969750381 0)
(0.004504059411 -0.07974097703 0)
(-0.001256145221 -0.07530233701 0)
(-0.001636328143 -0.07529013595 0)
(-0.001647709399 -0.07564987464 0)
(-0.001270878939 -0.07566083113 0)
(-0.004157071756 -0.08094604154 0)
(-0.004132238926 -0.0805919489 0)
(-0.004518652382 -0.08057754107 0)
(-0.001553860204 -0.08100945574 0)
(-0.00151010468 -0.0802988078 0)
(-0.002244266989 -0.08028467489 0)
(-0.002265752232 -0.08064047841 0)
(-0.002286884024 -0.08099549404 0)
(-0.001241755865 -0.07494389804 0)
(-0.001624692382 -0.07493073893 0)
(-0.0008803924574 -0.07531285775 0)
(-0.0008645437631 -0.07495500053 0)
(0.00172461128 -0.07537826419 0)
(0.001759838852 -0.07466320048 0)
(0.001014803042 -0.07464370734 0)
(0.0009793669022 -0.07535903066 0)
(0.001081313081 -0.073212982 0)
(0.001827318531 -0.07323297392 0)
(-0.004827087661 -0.08664202151 0)
(-0.004809410621 -0.08628569127 0)
(-0.002331153211 -0.08170605822 0)
(-0.001598090562 -0.08171995457 0)
(-0.00417104551 -0.0813054273 0)
(-0.004284810998 -0.08380720171 0)
(-0.004265236838 -0.08345173435 0)
(0.0005487595191 -0.09816978798 0)
(-0.0009766894541 -0.09811896068 0)
(-0.002502145084 -0.09806813315 0)
(0.009689073308 -0.09831487537 3.589628594e-13)
(0.006650575382 -0.09837309787 0)
(0.006554030991 -0.1012143027 3.59448582e-13)
(0.00688931285 -0.09120801546 0)
(0.006841583099 -0.09264049942 0)
(0.00157817599 -0.0782321375 0)
(0.001615953044 -0.07751955775 0)
(0.0008711147169 -0.07750053766 0)
(0.0008334929834 -0.07821325587 0)
(0.0009441171312 -0.0760733606 0)
(0.00168920397 -0.07609252224 0)
(-0.0008966316688 -0.07567063532 0)
(0.003886160176 -0.08967321102 0)
(0.003993315255 -0.08826603078 0)
(0.002473748522 -0.08822206339 0)
(0.002360704546 -0.08962238349 0)
(0.002647915018 -0.08537831027 0)
(0.00418533025 -0.08543300152 0)
(-0.001061553376 -0.08456613014 0)
(-0.002406641231 -0.09520183393 0)
(-0.00235888932 -0.09376868431 0)
(-0.003884344925 -0.09371785679 0)
(-0.003932096855 -0.0951510064 0)
(-0.002565761075 -0.07388600152 0)
(-0.002301791094 -0.07384455098 0)
(-0.002400140404 -0.07338532902 0)
(-0.00119199983 -0.07386940042 0)
(-0.001177112578 -0.07351017838 0)
(-0.001559468411 -0.07349797156 0)
(-0.001571536396 -0.07385782065 0)
(-0.004305274914 -0.08416257279 0)
(-0.004115935919 -0.08665005658 0)
(-0.00405930088 -0.0859419036 0)
(-0.004773268291 -0.08593677347 0)
(-0.001966169448 -0.08666564236 0)
(-0.001909474898 -0.08596082332 0)
(-0.002631919878 -0.08595234532 0)
(-0.00268137764 -0.08666007106 0)
(-0.004876361126 -0.08698823605 0)
(-0.002764703394 -0.07525873641 0)
(-0.002779207465 -0.07561703827 0)
(-0.002406485655 -0.07562632516 0)
(-0.002402629404 -0.07526446984 0)
(-0.002818705805 -0.07669127792 0)
(-0.002442724276 -0.07670207285 0)
(-0.002425658753 -0.07634545567 0)
(-0.00279619611 -0.07633650812 0)
(-0.001318898983 -0.07673318751 0)
(-0.001302554364 -0.07637634639 0)
(-0.001674777382 -0.07636680957 0)
(-0.001691311491 -0.07672357772 0)
(-0.00314614941 -0.07633464378 0)
(-0.003186711673 -0.07668341431 0)
(-0.003037957507 -0.07529574598 0)
(-0.003139134795 -0.0755903184 0)
(-0.002888517494 -0.07812089367 0)
(-0.002879538362 -0.07776060846 0)
(-0.003261509672 -0.07774828118 0)
(-0.003267830624 -0.07810918807 0)
(-0.00323925572 -0.07702878684 0)
(-0.002850399319 -0.07704327607 0)
(-0.004489650031 -0.07943971115 0)
(-0.004049308798 -0.0795328174 0)
(-0.004030677674 -0.07917525281 0)
(-0.004385273103 -0.07915050984 0)
(-0.002941292848 -0.07955620827 0)
(-0.002925084704 -0.07919816311 0)
(-0.003296210274 -0.07918932924 0)
(-0.003311340056 -0.07954781017 0)
(-0.003278016815 -0.07846870002 0)
(-0.002899535753 -0.07848017798 0)
(-0.0030217617 -0.08098047099 0)
(-0.003000734192 -0.08062558517 0)
(-0.003372651896 -0.08061612515 0)
(-0.003393566241 -0.08097121466 0)
(-0.003328910569 -0.0799057433 0)
(-0.002959533455 -0.07991385252 0)
(-0.004410903828 -0.07989194922 0)
(-0.004064640493 -0.07989135824 0)
(-0.002870168995 -0.07479761137 0)
(-0.001588228246 -0.07421598298 0)
(-0.001208306482 -0.07422804206 0)
(-0.002666898269 -0.07419177064 0)
(-0.002338445058 -0.07419578409 0)
(-0.00240672951 -0.07489968385 0)
(-0.004732012065 -0.08522637546 0)
(0.01219978024 -0.07711418611 0)
(0.02214009098 -0.07337215071 3.47152862e-13)
(0.01970171642 -0.07533603542 3.568118023e-13)
(0.01946368608 -0.07769484946 3.546468674e-13)
(-0.001708744231 -0.07708031594 0)
(-0.001337333314 -0.07708942588 0)
(-0.002464535918 -0.07705733238 0)
(-0.00250955272 -0.0781326543 0)
(-0.002496439871 -0.07777370634 0)
(0.006359593529 -0.07264415965 0)
(0.01088656657 -0.07277886977 0)
(0.009378422412 -0.07273388355 0)
(-0.001878080027 -0.0727786483 0)
(-0.00192452577 -0.07312715615 0)
(-0.001541100004 -0.07313993174 0)
(-0.00116018176 -0.07315202402 0)
(-0.000814579155 -0.07388064313 0)
(-0.0007986750043 -0.07352172153 0)
(0.0003051501224 -0.07390908903 0)
(0.0003218930089 -0.07355119496 0)
(-5.025989228e-05 -0.07354179374 0)
(-6.726016251e-05 -0.07389981251 0)
(-1.854918234e-05 -0.07282667949 0)
(0.0003544823882 -0.07283670974 0)
(-0.003641401368 -0.07809953969 0)
(-0.003623469168 -0.07774275148 0)
(-0.003897200324 -0.07778027827 0)
(-0.004000594259 -0.07807297757 0)
(-0.003722351438 -0.07728384496 0)
(-0.00427969139 -0.07885795008 0)
(-0.004008840304 -0.0788192611 0)
(-0.004102832234 -0.07836158376 0)
(-0.003656421872 -0.07882114094 0)
(-0.003654682854 -0.07845814885 0)
(-0.004752866495 -0.0855818668 0)
(-0.004459990935 -0.08023637071 0)
(-0.004213301857 -0.08238044137 0)
(-0.00419939465 -0.08202245281 0)
(-0.003105305872 -0.08240423141 0)
(-0.003084553507 -0.0820488033 0)
(-0.003451310152 -0.08204204754 0)
(-0.003471405739 -0.08239756416 0)
(-0.00341310044 -0.0813282827 0)
(-0.003043698921 -0.08133625945 0)
(-0.00220441469 -0.07277457217 0)
(-0.002304998587 -0.07309055551 0)
(-0.001947087458 -0.07384790638 0)
(-0.001943010222 -0.07348525875 0)
(-0.002790738283 -0.07597590567 0)
(-0.003238423924 -0.07587942267 0)
(-0.003409176818 -0.07637672549 0)
(-0.003513189667 -0.07667979987 0)
(-0.002870406137 -0.07739992852 0)
(-0.00326159455 -0.07738462856 0)
(-0.003620413048 -0.07699223003 0)
(-0.00368177556 -0.07953946576 0)
(-0.003665922433 -0.07918127549 0)
(-0.004094596654 -0.08024341428 0)
(-0.003722485915 -0.08025248089 0)
(-0.003698667105 -0.07989762144 0)
(-0.002771660946 -0.07450494919 0)
(-0.00238788759 -0.07454259275 0)
(-0.001996792589 -0.07455795624 0)
(-0.001967628353 -0.07420440776 0)
(-0.002020487687 -0.0752768028 0)
(-0.002014205125 -0.07491562808 0)
(0.01239720028 -0.07282513845 0)
(0.01693462856 -0.07296406201 0)
(0.01390803369 -0.07287141378 0)
(0.02395195251 -0.06995625375 3.30735439e-13)
(0.02450054542 -0.05252718331 2.483152572e-13)
(0.02519463301 -0.05932963091 2.803729471e-13)
(0.02460666911 -0.06024832537 2.744471317e-13)
(0.02321423767 -0.04566353995 2.159938894e-13)
(0.0147166078 -0.02313139053 1.098288127e-13)
(0.01807129483 -0.03045368699 1.443845044e-13)
(0.01696688119 -0.02967358266 1.356276202e-13)
(0.01114764851 -0.01641655899 7.807643421e-14)
(0.001961731665 -0.002432240933 1.16157084e-14)
(0.004469622066 -0.005847293527 2.789435349e-14)
(0.003697170016 -0.005019377696 2.306488334e-14)
(-0.000815650258 -0.0810255894 0)
(-0.0007723504876 -0.08031465973 0)
(0.0014157095 -0.08108034544 0)
(0.001458361367 -0.0803692609 0)
(0.0007124114008 -0.08035020377 0)
(0.0006705605402 -0.0810616482 0)
(0.0007945843229 -0.07892599783 0)
(0.001539338333 -0.07894494847 0)
(0.01320382572 -0.08714037944 0)
(0.02060987725 -0.07996501582 3.290007156e-13)
(0.01865098923 -0.0840484369 3.460703946e-13)
(0.01835226229 -0.08584335851 3.422678807e-13)
(0.01921650007 -0.0799772084 3.522876435e-13)
(0.02194217056 -0.07473412958 3.073374888e-13)
(0.0211645097 -0.05244816509 2.157718448e-13)
(0.02227133659 -0.06074163988 2.49772425e-13)
(0.02129204908 -0.06002963808 2.391004061e-13)
(0.02381029952 -0.06051042399 2.660788256e-13)
(0.01928219517 -0.04375452145 1.801336857e-13)
(0.01045034881 -0.01889956967 7.807643421e-14)
(0.01371571976 -0.02660311852 1.097594238e-13)
(0.01282496207 -0.02569436459 1.026678742e-13)
(0.01608065693 -0.02915284926 1.286054596e-13)
(0.007193278963 -0.01218739193 5.040412532e-14)
(0.0005570433536 -0.0007958492147 3.302913498e-15)
(0.00215325703 -0.00324377173 1.344757639e-14)
(0.001526282321 -0.002374824077 9.534040224e-15)
(0.003254779912 -0.004580552259 2.031708135e-14)
(-0.0008811855952 -0.09525266145 0)
(-0.0008334336657 -0.09381951184 0)
(0.003695174638 -0.09540514381 0)
(0.003742926567 -0.0939719942 0)
(0.002217470937 -0.09392116667 0)
(0.002169719008 -0.09535431628 0)
(0.002312952617 -0.0910555331 0)
(0.003838408247 -0.09110636063 0)
(0.01257181333 -0.09691068657 3.53495011e-13)
(0.01864719812 -0.08281414445 3.014810623e-13)
(0.0171989992 -0.0891034595 3.245181901e-13)
(0.01669671259 -0.08915142331 3.155808947e-13)
(0.01794184842 -0.08707292412 3.366057433e-13)
(0.01936697061 -0.07517244628 2.736005866e-13)
(0.01682798341 -0.04719394798 1.719319132e-13)
(0.01843415758 -0.05700326225 2.075423167e-13)
(0.01752457092 -0.05573589199 1.972588759e-13)
(0.02051898136 -0.05976899012 2.308153668e-13)
(0.01489576557 -0.03822816747 1.393607452e-13)
(0.006684916921 -0.01366876431 4.99739139e-14)
(0.009551210233 -0.02094376371 7.64943664e-14)
(0.008174901468 -0.01842078062 6.540601394e-14)
(0.01153904557 -0.02384210555 9.237055565e-14)
(0.004004909513 -0.007671459975 2.806088695e-14)
(0 0 0)
(0.0004247398292 -0.0007243621137 2.650657471e-15)
(0.0001982726955 -0.000348060817 1.249000903e-15)
(0.001151039941 -0.001848293225 7.188694084e-15)
(-0.002823544122 -0.108274951 3.554101458e-13)
(-0.00587127258 -0.1085943688 3.567979245e-13)
(-0.00574899405 -0.1085638597 3.475691956e-13)
(-0.005648531366 -0.1008321119 0)
(-0.005744035225 -0.1036984111 0)
(0.0002096374781 -0.1075049379 3.525513215e-13)
(0.008708453687 -0.10044889 3.285982597e-13)
(0.006050272881 -0.1037915137 3.397837567e-13)
(0.005791750871 -0.1016540552 3.243516566e-13)
(0.006429700662 -0.1033693087 3.570199691e-13)
(0.01106073429 -0.09592895112 3.135824933e-13)
(0.01523826186 -0.07525643915 2.457201109e-13)
(0.01441893789 -0.08325308572 2.718797409e-13)
(0.01339210419 -0.07901922484 2.515904152e-13)
(0.01607044547 -0.08826246753 3.03923553e-13)
(0.01540224926 -0.06639455323 2.167710456e-13)
(0.01205386415 -0.03751729509 1.226241331e-13)
(0.01375297692 -0.04719003485 1.54154467e-13)
(0.01221484617 -0.04287348837 1.36557432e-13)
(0.01643068155 -0.05367014407 1.847966224e-13)
(0.009930784877 -0.02828271912 9.249545574e-14)
(0.002960534336 -0.006732988893 2.206568261e-14)
(0.005157345351 -0.01256584169 4.114764085e-14)
(0.004060352481 -0.01013675905 3.237687896e-14)
(0.007255232676 -0.01679583744 5.800915304e-14)
(0.001221228321 -0.002606030066 8.54871729e-15)
(0 0 0)
(0 0 0)
(0 0 0)
(1.900544731e-05 -3.43049829e-05 1.110223025e-16)
(-0.002079348426 -0.09469701199 2.813305144e-13)
(-0.004553084405 -0.09594225417 2.852301728e-13)
(-0.003960552593 -0.08796062014 2.554068068e-13)
(-0.005476433051 -0.1064088282 3.32178729e-13)
(0.0003408750833 -0.09251967026 2.746830541e-13)
(0.006540118935 -0.08021271196 2.377542607e-13)
(0.00472674269 -0.08528148709 2.528949272e-13)
(0.004272032185 -0.07686981488 2.227107387e-13)
(0.00548586834 -0.09782687189 3.044231534e-13)
(0.008001467645 -0.07422103219 2.199074256e-13)
(0.009711500528 -0.05179994385 1.534050664e-13)
(0.009624852989 -0.0598570331 1.772748615e-13)
(0.008213104897 -0.05180136018 1.499356195e-13)
(0.01223961671 -0.07364185035 2.287336986e-13)
(0.009308682741 -0.04344818013 1.286887263e-13)
(0.005714357352 -0.01939791318 5.750955268e-14)
(0.0072182014 -0.02694805875 7.986666883e-14)
(0.005580528321 -0.0212340789 6.150635556e-14)
(0.01058495393 -0.03796109857 1.179750742e-13)
(0.004085896804 -0.01272142807 3.773370505e-14)
(0.0002671024482 -0.000668641776 1.998401444e-15)
(0.001165255071 -0.003118203618 9.256484468e-15)
(0.0005136469016 -0.001405597837 4.080069615e-15)
(0.002993837103 -0.007653140097 2.384203945e-14)
(0 0 0)
(0 0 0)
(0 0 0)
(0 0 0)
(0 0 0)
(-0.0007523927381 -0.05545327147 1.504490976e-13)
(-0.00209074024 -0.05673503999 1.539740557e-13)
(-0.001545274181 -0.04531006549 1.203481759e-13)
(-0.00332869019 -0.07851202971 2.227662499e-13)
(0.0005253945667 -0.05329610584 1.445510378e-13)
(0.003409856445 -0.04214175534 1.142141937e-13)
(0.002659003267 -0.04655903436 1.262046023e-13)
(0.002081992178 -0.03607278037 9.57289803e-14)
(0.003770128913 -0.06737558793 1.908334601e-13)
(0.0038969333 -0.03717917322 1.007527395e-13)
(0.003656473776 -0.0206754943 5.603850717e-14)
(0.004011893932 -0.02625363971 7.11375403e-14)
(0.002780253772 -0.01841376667 4.884981308e-14)
(0.006777973539 -0.0433044176 1.225547441e-13)
(0.003076054562 -0.01531409835 4.150846333e-14)
(0.0007944001457 -0.002917197587 7.91033905e-15)
(0.001540682735 -0.006196303625 1.680600104e-14)
(0.0006813985841 -0.002792255601 7.410738689e-15)
(0.004048711218 -0.01569441117 4.446443214e-14)
(0.000233195696 -0.0007884264277 2.137179322e-15)
(0 0 0)
(0 0 0)
(0 0 0)
(0.0001102118505 -0.0003083659052 8.604228441e-16)
(0 0 0)
(0 0 0)
(0 0 0)
(0 0 0)
(0 0 0)
(-8.07791274e-05 -0.01421716898 3.549938121e-14)
(-0.0004024879662 -0.01490566906 3.72202269e-14)
(-0.0001946194631 -0.007702095021 1.884603584e-14)
(-0.001076829539 -0.03419272475 8.892886427e-14)
(0.0002056535295 -0.01308963923 3.268219029e-14)
(0.0006253671216 -0.007796668324 1.945665851e-14)
(0.0005740184656 -0.009783496543 2.442490654e-14)
(0.0002461831725 -0.004210762179 1.031119634e-14)
(0.00152235716 -0.02614366757 6.794564911e-14)
(0.0005852267704 -0.005751097061 1.434963259e-14)
(0.0001308265629 -0.0007870651332 1.970645869e-15)
(0.0003014348378 -0.002081833365 5.19029264e-15)
(2.279183394e-05 -0.0001601694015 4.024558464e-16)
(0.001719242148 -0.01153191733 2.997602166e-14)
(1.513689239e-05 -8.071018898e-05 1.942890293e-16)
(0 0 0)
(0 0 0)
(0 0 0)
(0.0001550991141 -0.0006479296365 1.679212325e-15)
(0 0 0)
(0 0 0)
(0 0 0)
(0 0 0)
(0 0 0)
(0 0 0)
(0 0 0)
(0 0 0)
(0 0 0)
(0 0 0)
(0 0 0)
(0 0 0)
(0 0 0)
(-6.452257702e-05 -0.002693715831 6.467049118e-15)
(0 0 0)
(0 0 0)
(0 0 0)
(0 0 0)
(5.040829521e-05 -0.0008705658115 2.095545959e-15)
(0 0 0)
(0 0 0)
(0 0 0)
(0 0 0)
(0 0 0)
(0 0 0)
(0 0 0)
(0 0 0)
(0 0 0)
(0 0 0)
(0 0 0)
(0 0 0)
(0 0 0)
(0 0 0)
(0 0 0)
(0 0 0)
(0 0 0)
(0 0 0)
(0 0 0)
(0 0 0)
(0 0 0)
(0 0 0)
(0 0 0)
(0 0 0)
(0 0 0)
(0 0 0)
(0 0 0)
(0 0 0)
(0 0 0)
(0 0 0)
(0 0 0)
(0 0 0)
(0 0 0)
(0 0 0)
(0 0 0)
(0 0 0)
(0 0 0)
(0 0 0)
(0 0 0)
(0 0 0)
(0 0 0)
(0 0 0)
(0 0 0)
(0 0 0)
(0 0 0)
(0 0 0)
(0 0 0)
(0 0 0)
(0 0 0)
(0 0 0)
(0 0 0)
(0 0 0)
(0 0 0)
(0 0 0)
(0 0 0)
(0 0 0)
(0 0 0)
(0 0 0)
(0 0 0)
(0 0 0)
(0 0 0)
(0 0 0)
(0 0 0)
(0 0 0)
(0 0 0)
(0 0 0)
(0 0 0)
(0 0 0)
(0 0 0)
(0 0 0)
(0 0 0)
(0 0 0)
(0 0 0)
(0 0 0)
(0 0 0)
(0 0 0)
(0 0 0)
(0 0 0)
(0 0 0)
(0 0 0)
(0 0 0)
(0 0 0)
(0 0 0)
(0 0 0)
(0 0 0)
(0 0 0)
(0 0 0)
(0 0 0)
(0 0 0)
(0 0 0)
(0 0 0)
(0 0 0)
(0 0 0)
(0 0 0)
(0 0 0)
(0 0 0)
(0 0 0)
(0 0 0)
(0 0 0)
(0 0 0)
(0 0 0)
(0 0 0)
(0 0 0)
(0 0 0)
(0 0 0)
(0 0 0)
(0 0 0)
(0 0 0)
(0 0 0)
(0 0 0)
(0 0 0)
(0 0 0)
(0 0 0)
(0 0 0)
(0 0 0)
(0 0 0)
(0 0 0)
(0 0 0)
(0 0 0)
(0 0 0)
(0 0 0)
(0 0 0)