/*--------------------------------*- C++ -*----------------------------------*\
| =========                 |                                                 |
| \\      /  F ield         | OpenFOAM: The Open Source CFD Toolbox           |
|  \\    /   O peration     | Version:  v2012                                 |
|   \\  /    A nd           | Website:  www.openfoam.com                      |
|    \\/     M anipulation  |                                                 |
\*---------------------------------------------------------------------------*/
FoamFile
{
    version     2.0;
    format      ascii;
    class       volVectorField;
    location    "1.55";
    object      U;
}
// * * * * * * * * * * * * * * * * * * * * * * * * * * * * * * * * * * * * * //

dimensions      [0 1 -1 0 0 0 0];


internalField   nonuniform List<vector> 
3019
(
(102.9512614 -31.56530666 0)
(107.447684 -20.96531974 8.415142976e-19)
(107.4102236 -14.80365154 -3.159268307e-19)
(105.9675388 -10.21296246 3.298294814e-20)
(104.2228682 -7.048946395 0)
(102.7156333 -5.034049622 2.885014323e-19)
(101.3133684 -3.657320213 -6.54033197e-20)
(100.5726585 -2.724455764 0)
(99.73239052 -1.887900823 0)
(99.3709996 -1.281747898 1.171089505e-20)
(99.14525567 -0.7498029783 2.158286045e-21)
(99.02902741 -0.247155377 -7.002869168e-21)
(96.4300477 -20.69991905 0)
(102.3352992 -17.18009991 5.043574918e-19)
(103.6014659 -13.33202068 -3.301712234e-19)
(103.2333883 -9.834616529 0)
(102.2915701 -7.172658184 4.406849564e-20)
(101.3102288 -5.338703839 -5.68719743e-20)
(100.3022561 -3.93736932 -9.129221287e-20)
(99.76700878 -2.970432428 -3.434406032e-20)
(99.1005567 -2.047162826 -1.907009566e-20)
(98.81183535 -1.394711551 1.879761945e-20)
(98.62851336 -0.817944487 0)
(98.53318887 -0.2695173633 1.87822363e-20)
(98.03628968 -13.67357906 -2.476296879e-19)
(100.3321494 -13.26873502 -2.005365091e-19)
(101.2170555 -11.28575392 0)
(101.1496552 -8.916472114 -5.865549145e-19)
(100.62649 -6.868730879 3.349950846e-19)
(100.0044764 -5.343144965 -2.456763403e-20)
(99.30164937 -4.015139408 0)
(98.95170488 -3.078106231 0)
(98.44139183 -2.120034095 -3.552603581e-20)
(98.22053581 -1.454818182 1.753047233e-20)
(98.07891172 -0.8554253443 7.338845933e-22)
(98.00418583 -0.2818676554 -1.293879585e-20)
(99.08614431 -10.5140332 2.398443185e-20)
(99.69958707 -10.46353343 0)
(99.83410712 -9.38049958 -4.695761166e-20)
(99.6422992 -7.833054361 0)
(99.27355884 -6.343748964 4.284262947e-19)
(98.85951093 -5.123628846 0)
(98.3760399 -3.934357877 -3.018960915e-20)
(98.1693637 -3.071330749 4.575702188e-20)
(97.78408225 -2.121258101 1.106090639e-20)
(97.62222612 -1.468187768 1.886193022e-20)
(97.51719095 -0.8652793494 -2.142757027e-20)
(97.46068323 -0.285133867 0)
(99.6438455 -8.541532597 -7.305649223e-20)
(99.32877979 -8.500771745 2.121973877e-19)
(98.92871993 -7.814321883 -7.499289432e-20)
(98.55120013 -6.797152786 0)
(98.20323478 -5.748743342 7.496027471e-21)
(97.89463128 -4.778663438 0)
(97.55760457 -3.753729145 0)
(97.44012959 -2.975743544 0)
(97.15142201 -2.066570997 3.832505272e-20)
(97.03675744 -1.443017004 -3.585487997e-20)
(96.96082379 -0.8518347933 -2.419894684e-21)
(96.91896252 -0.2810883051 2.428083338e-21)
(99.71005971 -7.195642349 -1.656745026e-19)
(98.93413004 -7.07193545 0)
(98.24897232 -6.585323237 -2.512565379e-20)
(97.74902003 -5.906693405 -3.825644579e-23)
(97.37333002 -5.148899341 0)
(97.10095334 -4.378150187 0)
(96.84197223 -3.505792825 0)
(96.77529313 -2.81620602 0)
(96.55667133 -1.969095215 0)
(96.47685397 -1.386257826 0)
(96.42313444 -0.8209125041 0)
(96.39230678 -0.2719449779 0)
(99.59883092 -6.108591788 -5.400983068e-20)
(98.59228145 -5.975292596 -2.953297489e-20)
(97.76835605 -5.638845342 0)
(97.16116915 -5.153932241 0)
(96.73007264 -4.576397466 0)
(96.45233389 -3.960539016 0)
(96.22538046 -3.222918456 0)
(96.18181842 -2.620364847 0)
(96.00801726 -1.845071594 0)
(95.95124181 -1.308620794 0)
(95.91242903 -0.7768875025 0)
(95.89024144 -0.2579502006 0)
(99.56532475 -5.234370957 0)
(98.3875295 -5.125590096 0)
(97.42690723 -4.871647205 0)
(96.71644413 -4.502720367 0)
(96.22410587 -4.051918733 0)
(95.91985763 -3.553429523 0)
(95.69803414 -2.93005309 0)
(95.65772357 -2.407847175 0)
(95.5088453 -1.707122936 0)
(95.46525994 -1.218697747 0)
(95.4351514 -0.7250787943 0)
(95.41844923 -0.2411972591 0)
(99.53898957 -4.525875633 -3.283994972e-35)
(98.23068614 -4.431519151 0)
(97.16451805 -4.231020234 0)
(96.37003515 -3.941479265 0)
(95.81936136 -3.581965127 0)
(95.47957735 -3.173210617 0)
(95.24713948 -2.644286689 0)
(95.19728719 -2.192760086 0)
(95.05882499 -1.564555408 0)
(95.02067038 -1.123187149 0)
(94.99430129 -0.6695161364 0)
(94.9806845 -0.2231393087 0)
(99.5031092 -3.941599956 0)
(98.10117858 -3.856090532 0)
(96.9556951 -3.691847497 0)
(96.09341612 -3.458354394 0)
(95.49026529 -3.166058846 0)
(95.11296809 -2.827595897 0)
(94.86012883 -2.37595167 0)
(94.79347346 -1.984485426 0)
(94.65543703 -1.423930786 0)
(94.61697554 -1.027126769 0)
(94.59065681 -0.6132489686 0)
(94.57823863 -0.2047876573 0)
(99.46104598 -3.45231111 -4.565734234e-35)
(97.99049111 -3.373445799 0)
(96.78459662 -3.235068748 0)
(95.86768991 -3.042368898 0)
(95.21860518 -2.800568951 0)
(94.80505612 -2.516925549 0)
(94.5265382 -2.129310203 0)
(94.43914366 -1.788603494 0)
(94.29497407 -1.28967125 0)
(94.25224765 -0.9340483603 0)
(94.22342363 -0.5584370785 0)
(94.21080385 -0.186849849 0)
(99.41550066 -3.038465044 0)
(97.89366752 -2.96513453 0)
(96.64105672 -2.846065215 0)
(95.67998435 -2.68393555 0)
(94.99116642 -2.4808299 0)
(94.54373342 -2.240416299 0)
(94.23786302 -1.90589045 0)
(94.12771129 -1.608179903 0)
(93.97329148 -1.164536477 0)
(93.92375087 -0.8462560095 0)
(93.89075082 -0.5065211303 0)
(93.87693141 -0.1698030817 0)
(99.36827374 -2.686298071 1.608150401e-35)
(97.80759854 -2.617773926 0)
(96.51835962 -2.513644239 0)
(95.52136726 -2.375032169 0)
(94.798353 -2.202138805 0)
(94.31985688 -1.996246602 0)
(93.98669541 -1.705882959 0)
(93.85327921 -1.444605809 0)
(93.68621935 -1.050057566 0)
(93.62835227 -0.7651470247 0)
(93.59016007 -0.4584050506 0)
(93.5744584 -0.1539529862 0)
(99.32050364 -2.385610666 0)
(97.73015993 -2.32132623 0)
(96.41186746 -2.229077573 0)
(95.38545806 -2.108963823 0)
(94.63304246 -1.960053705 0)
(94.12638436 -1.782055595 0)
(93.7669077 -1.528578589 0)
(93.61063705 -1.298179166 0)
(93.42973977 -0.9469059746 0)
(93.36276742 -0.6914676441 0)
(93.31884184 -0.4145980844 0)
(93.30081802 -0.1394773591 0)
(99.27291019 -2.128665092 0)
(97.65981978 -2.068146713 0)
(96.3182682 -1.985535946 0)
(95.26760198 -1.880225816 0)
(94.48987235 -1.750606546 0)
(93.95783122 -1.595354999 0)
(93.57346041 -1.372811122 0)
(93.39526609 -1.168564194 0)
(93.20006271 -0.8551901823 0)
(93.12370468 -0.6255076004 0)
(93.0738356 -0.3753234354 0)
(93.05322919 -0.1264599156 0)
(99.22593476 -1.909422292 0)
(97.59539863 -1.852247867 0)
(96.23508514 -1.777558666 0)
(95.16427914 -1.68424252 0)
(94.36468187 -1.570287231 0)
(93.80980746 -1.433701262 0)
(93.40211897 -1.2371625 0)
(93.20318342 -1.055029996 0)
(92.99365911 -0.7746597434 0)
(92.90795524 -0.5672493338 0)
(92.8521478 -0.3406081583 0)
(92.82882334 -0.114919101 0)
(99.1798283 -1.723133212 0)
(97.53595696 -1.668910888 0)
(96.16041561 -1.600779852 0)
(95.07277097 -1.517253362 0)
(94.25419095 -1.416083381 0)
(93.67875914 -1.294845838 0)
(93.24933252 -1.12017651 0)
(93.03091416 -0.95667713 0)
(92.80730529 -0.7048777057 0)
(92.71248546 -0.516493283 0)
(92.65087388 -0.3103603999 0)
(92.62477966 -0.1048333995 0)
(99.13470875 -1.565960022 0)
(97.48071234 -1.514333229 0)
(96.09273848 -1.451648291 0)
(94.99090402 -1.376136149 0)
(94.15573289 -1.285418979 0)
(93.56168078 -1.176761301 0)
(93.11208336 -1.020469503 0)
(92.87538955 -0.872561607 0)
(92.63799775 -0.6453029447 0)
(92.53439457 -0.4729374582 0)
(92.46717692 -0.2844176806 0)
(92.43830776 -0.09615632587 0)
(99.09062527 -1.434810184 -2.61767385e-36)
(97.42900549 -1.385454599 0)
(96.03080932 -1.327282857 0)
(94.91690687 -1.258316035 0)
(94.06713178 -1.176132842 0)
(93.4561502 -1.078045467 0)
(92.98765307 -0.9369683693 0)
(92.73386813 -0.8017486227 0)
(92.48314611 -0.5954250959 0)
(92.37113284 -0.4362379898 0)
(92.29853722 -0.262596116 0)
(92.26692951 -0.08883565096 0)
(99.04758208 -1.327227098 0)
(97.38026639 -1.279832538 0)
(95.97358167 -1.225361905 0)
(94.84929652 -1.161680014 0)
(93.98657493 -1.086369828 0)
(93.36030773 -0.9970091138 0)
(92.87356644 -0.8685189636 0)
(92.60388466 -0.743392044 0)
(92.33975647 -0.5545944118 0)
(92.21970195 -0.4060427535 0)
(92.14191114 -0.2446809837 0)
(92.10755838 -0.08279999322 0)
(99.00553196 -1.241254123 0)
(97.33397321 -1.195513728 0)
(95.92013412 -1.144015275 0)
(94.78676798 -1.084504173 0)
(93.91239933 -1.014568636 0)
(93.27200398 -0.9316154817 0)
(92.76798174 -0.813630714 0)
(92.48312176 -0.6964903331 0)
(92.20743045 -0.5228466761 0)
(92.0797193 -0.3820529372 0)
(91.99697336 -0.2305789372 0)
(91.96003309 -0.07804384575 0)
(98.96439205 -1.175374415 0)
(97.28964636 -1.130980384 0)
(95.86964732 -1.081785876 0)
(94.72816938 -1.025448565 0)
(93.84312793 -0.9595796429 0)
(93.18937802 -0.8814977155 0)
(92.66911959 -0.7716988386 0)
(92.36970234 -0.6612736023 0)
(92.07734407 -0.4975201115 0)
(91.94136807 -0.3638772847 0)
(91.85351479 -0.2198789831 0)
(91.81356984 -0.07436033491 0)
(98.92403982 -1.128434562 0)
(97.24682558 -1.085071311 0)
(95.82136893 -1.037556743 0)
(94.67246479 -0.9834857372 0)
(93.77747494 -0.9205012432 0)
(93.11105736 -0.8458488072 0)
(92.57531061 -0.742186871 0)
(92.26216002 -0.6367218666 0)
(91.97443951 -0.4844229779 0)
(91.83317898 -0.3524897552 0)
(91.74142834 -0.2134736442 0)
(91.69967774 -0.07229173089 0)
(98.88438457 -1.0996026 0)
(97.20511532 -1.056944761 0)
(95.77464391 -1.010518689 0)
(94.61874267 -0.957876209 0)
(93.71428799 -0.8966720507 0)
(93.03568015 -0.8242722724 0)
(92.48903944 -0.7249375151 0)
(92.1641933 -0.6226230207 0)
(91.78672777 -0.4675385922 0)
(91.63125885 -0.3426666839 0)
(91.53208005 -0.2074512923 0)
(91.486337 -0.0698754766 0)
(102.606771 -32.35510062 -9.618580942e-19)
(103.6471605 -32.01961765 1.980289526e-19)
(108.5117976 -23.02285974 -2.373572557e-18)
(95.07515422 -21.81190904 0)
(102.279055 -32.19048288 3.108049702e-19)
(96.58814248 -22.07947142 0)
(102.5632927 -19.41186128 -1.307585205e-19)
(107.5320374 -22.71558683 1.010139755e-18)
(96.79523496 -14.12332413 -4.322770674e-19)
(95.06708471 -21.05364843 -4.021133355e-19)
(107.2099266 -27.73884156 0)
(97.17660905 -27.25798896 6.428022929e-20)
(97.6584404 -27.9855251 -1.023041699e-19)
(98.66325363 -27.51884724 2.591773499e-19)
(102.8588939 -24.7120306 -5.361574554e-19)
(105.9974015 -27.0805883 1.074393213e-18)
(104.3136853 -33.54373524 -4.58826488e-19)
(99.9044065 -30.59598376 4.754735121e-20)
(104.3938723 -33.63966619 9.839495506e-19)
(105.7864102 -33.53112619 -1.920769686e-18)
(108.328947 -31.24751912 -5.794489263e-19)
(99.30290843 -29.99798781 1.865039778e-19)
(97.72885175 -14.76487438 -2.510057753e-19)
(100.1190303 -14.53977772 -1.464977853e-20)
(101.6125658 -18.10743281 3.361695208e-19)
(105.5156445 -29.93912593 4.413405466e-19)
(107.5996326 -30.95845602 5.796424163e-19)
(105.5321411 -33.39507268 9.237528122e-19)
(100.1198405 -20.92270304 5.38219709e-20)
(102.0153326 -23.79469978 -9.38292948e-20)
(98.17431645 -26.83961341 6.198327597e-20)
(95.54826124 -17.05966624 4.785301996e-19)
(88.75877583 -30.22246105 -9.764304802e-18)
(104.1586347 -33.66764509 2.047566721e-20)
(90.23601356 -25.23230807 1.27708206e-19)
(96.00752123 -24.97114873 -8.780050763e-20)
(92.14295747 -31.25763657 -5.001494402e-19)
(95.13500992 -32.05898851 0)
(103.7320936 -33.13979596 1.199295998e-18)
(89.09109363 -30.49755231 0)
(86.31410955 -29.82312187 -1.261404623e-18)
(92.53900529 -31.38192794 0)
(89.78201561 -30.72998036 -1.578389254e-18)
(76.67218767 -27.19995575 2.400713335e-20)
(95.01507351 -31.57489315 2.1190035e-19)
(93.37190064 -31.56734809 2.875398088e-19)
(95.61016672 -30.94196211 -1.43998259e-19)
(95.30296495 -31.48130822 -2.122472604e-19)
(78.08385423 -27.36754172 5.765059523e-19)
(85.38450636 -29.61099681 2.383718961e-17)
(104.3758407 -33.71472835 2.232575203e-18)
(89.37607984 -30.42351882 0)
(90.3103042 -30.7473588 -2.783866349e-18)
(108.6996382 -22.04953419 2.358717315e-18)
(108.9315293 -16.46449583 2.017321693e-18)
(103.4668385 -33.018195 -3.941312727e-19)
(95.72518346 -32.24082067 -1.527578325e-18)
(97.18051288 -32.31451082 0)
(98.44529988 -32.30524545 0)
(103.549761 -33.51337907 -1.248333552e-18)
(106.5998962 -33.87355668 -1.131939164e-18)
(108.8704347 -33.0254086 1.123431439e-18)
(80.01091053 -28.22368509 1.670449205e-18)
(79.10955432 -28.06752083 -1.057918297e-17)
(76.14800528 -27.14899302 8.68219835e-18)
(81.29960506 -28.38790096 -1.831022609e-18)
(79.76826951 -28.14415446 2.225120972e-18)
(95.37425666 -29.80516381 5.829791171e-20)
(95.5804818 -30.74897358 4.375281182e-19)
(92.43697167 -30.7750672 0)
(93.50399533 -31.21667175 3.38898726e-18)
(92.03827498 -30.84572329 0)
(87.52991455 -30.07133865 0)
(82.68498289 -28.93071168 0)
(83.28351227 -29.06909692 0)
(86.09219213 -29.81034854 1.445832353e-18)
(91.46565041 -31.1426296 3.145128065e-19)
(84.2567162 -29.27048573 -2.690436359e-19)
(86.1603738 -29.75599773 3.143454564e-19)
(83.17803907 -28.99354609 7.26902314e-18)
(82.67320957 -28.95023537 -2.893337093e-18)
(90.4522362 -30.98283338 1.443101817e-18)
(84.35285784 -29.19759668 -8.95922571e-21)
(83.16023146 -28.83954153 0)
(76.96952113 -27.29625276 -9.42323373e-19)
(79.61879961 -27.67894329 0)
(86.35529564 -29.45620459 -3.46766439e-19)
(85.41491076 -29.31049377 0)
(89.24654006 -30.40452745 0)
(95.59702801 -31.98047058 1.106982574e-18)
(94.99106047 -31.71021944 1.226045377e-18)
(97.09368503 -32.44127014 0)
(96.18226951 -32.26131722 -3.035459423e-20)
(88.74848704 -30.40338503 0)
(108.5873735 -14.97612614 6.055551388e-19)
(107.2458522 -11.20847396 4.21286812e-21)
(106.7369788 -10.1628157 -3.043337864e-19)
(105.2106619 -7.603661322 -2.307989739e-18)
(104.7308086 -6.922976902 -1.30826195e-19)
(103.4424549 -5.310024957 0)
(100.9420383 -30.04284413 0)
(103.0062203 -28.17385021 -2.743818556e-19)
(104.8556868 -29.53844087 1.202558506e-18)
(103.2793796 -18.23588154 -5.122734901e-19)
(104.3548757 -14.86384333 3.850745902e-19)
(107.6254737 -16.21071381 0)
(104.4087214 -13.78648145 3.646553701e-20)
(104.0785889 -10.85275739 3.807673889e-19)
(106.390462 -11.21937702 0)
(103.8575585 -9.995019175 1.057251423e-19)
(103.041308 -7.799624068 8.90097768e-19)
(104.6483037 -7.718535586 1.052040409e-18)
(102.7520747 -7.190844437 -8.538359716e-19)
(101.9189581 -5.695950221 -1.458857711e-19)
(103.0610517 -5.447568389 0)
(96.71391873 -17.29497621 3.710752182e-19)
(98.97855913 -17.36745475 0)
(99.72440151 -19.95871243 0)
(100.6367544 -14.14535585 1.78185247e-19)
(101.5732609 -12.45632502 -6.0086356e-21)
(103.5001498 -14.2931385 6.436033065e-19)
(101.69868 -11.79811159 1.234568374e-19)
(101.705294 -9.807212874 4.180531687e-19)
(103.4115368 -10.63972651 -3.617166893e-19)
(101.6111261 -9.172001965 9.088614259e-19)
(101.1817019 -7.46707126 0)
(102.5398851 -7.752080066 0)
(101.0138893 -6.973510055 0)
(100.4905965 -5.721779902 0)
(101.5476019 -5.731396616 2.751685645e-19)
(98.14845769 -10.81088232 -2.908430289e-21)
(96.85259172 -12.94428082 -9.036586108e-19)
(98.83784673 -11.16722318 -2.411801384e-19)
(99.61987926 -11.210253 -1.300928035e-20)
(99.90501978 -13.56870904 4.357378368e-20)
(99.80857945 -11.07290562 7.451391591e-20)
(100.0959359 -10.21088878 -3.099197243e-19)
(101.1084119 -11.86026134 0)
(100.116948 -9.829222621 2.067830582e-20)
(100.0411555 -8.544242841 4.179743745e-19)
(101.2288848 -9.497409721 -2.781309889e-19)
(99.97361696 -8.105005666 0)
(99.69168383 -6.862382535 2.815489513e-21)
(100.7756199 -7.333008138 6.34714729e-19)
(99.58323386 -6.486645813 -3.071061421e-19)
(99.23827231 -5.491022214 0)
(100.1587747 -5.681955826 0)
(99.73085209 -8.943405646 1.33633109e-20)
(98.60841087 -10.31380192 1.673960575e-19)
(99.56570707 -8.954073555 -2.688485066e-19)
(99.46804551 -9.021270365 7.828934559e-21)
(99.56988316 -10.57246118 0)
(99.41689538 -8.927529519 -3.2916706e-20)
(99.2105266 -8.414342312 8.879017925e-20)
(99.84141233 -9.717874487 -2.720680786e-19)
(99.12988464 -8.172448199 4.755801216e-20)
(98.87894668 -7.340617699 -1.724587435e-19)
(99.71132518 -8.232476799 0)
(98.79282151 -7.045761428 4.001461486e-19)
(98.53344408 -6.174164351 0)
(99.37399781 -6.69197156 3.54270673e-21)
(98.44667715 -5.898682753 -3.284894434e-20)
(98.19437718 -5.117288563 0)
(98.95817866 -5.40678167 0)
(100.0585492 -7.416751662 3.010135333e-20)
(99.92995383 -8.51196619 -3.333652583e-19)
(99.72031222 -7.502559445 1.622120459e-19)
(99.2116543 -7.466248652 -1.019553542e-19)
(99.4183799 -8.588319052 -7.830241992e-21)
(99.0353646 -7.391617432 1.055988006e-19)
(98.54213809 -7.020332037 0)
(99.02754467 -8.03150222 -4.372399753e-19)
(98.40044072 -6.862949506 -2.719275882e-20)
(98.03217686 -6.311969716 3.715603126e-20)
(98.64258758 -7.064107398 1.751808018e-19)
(97.92620229 -6.113668053 1.294816998e-19)
(97.64464839 -5.503932032 0)
(98.28816079 -6.003271029 -7.403363782e-21)
(97.56105698 -5.297541608 0)
(97.34414755 -4.681025001 0)
(97.96471801 -5.011661038 0)
(99.91298902 -6.329776367 1.034669603e-20)
(100.0249936 -7.118085893 1.579657451e-19)
(99.62758085 -6.359302879 -1.374748585e-21)
(98.89107132 -6.287062692 2.97298865e-20)
(99.12945287 -7.141695314 -4.514745768e-21)
(98.66268622 -6.223206178 8.788756946e-20)
(98.04562312 -5.963564593 1.977542809e-20)
(98.40217974 -6.726953326 0)
(97.87070721 -5.854944052 3.723911327e-20)
(97.42042786 -5.474152116 0)
(97.85933647 -6.086935552 -3.794134026e-20)
(97.29245182 -5.332161753 0)
(96.9667447 -4.875064637 0)
(97.45794753 -5.342179907 0)
(96.87634924 -4.715528003 0)
(96.65778946 -4.227049623 0)
(97.15847914 -4.567481631 0)
(99.88736701 -5.433753798 0)
(99.88887342 -6.090557684 5.625643208e-20)
(99.57043229 -5.435690079 0)
(98.70203224 -5.366374524 0)
(98.82970688 -6.033692805 2.985334754e-20)
(98.43267474 -5.321660832 0)
(97.71229424 -5.131058518 0)
(97.9522596 -5.73899989 -4.36048856e-21)
(97.50354238 -5.050446305 0)
(96.96758716 -4.764583172 0)
(97.29503421 -5.286145483 0)
(96.81701146 -4.65662358 0)
(96.44136189 -4.303458591 0)
(96.82300077 -4.726368473 0)
(96.33990372 -4.178021195 0)
(96.1018455 -3.786465791 0)
(96.50783803 -4.114468648 0)
(99.8971034 -4.69367429 0)
(99.89183653 -5.234114278 0)
(99.54656716 -4.68989526 0)
(98.56813584 -4.628681097 0)
(98.66566825 -5.167782376 0)
(98.26689033 -4.592689099 0)
(97.4593307 -4.443405705 0)
(97.64289476 -4.947062952 0)
(97.22430334 -4.380800831 0)
(96.61922971 -4.158483007 0)
(96.872191 -4.604001798 0)
(96.44917949 -4.074008922 0)
(96.02622103 -3.794721942 0)
(96.32857708 -4.170375725 0)
(95.91260536 -3.694292103 0)
(95.64726247 -3.376192225 0)
(95.9796915 -3.680282454 0)
(99.88528748 -4.085029495 2.863708488e-35)
(99.895882 -4.530679284 3.290215074e-35)
(99.51278143 -4.07782493 -2.858316305e-35)
(98.45620053 -4.020773587 0)
(98.5384772 -4.465896419 0)
(98.13153742 -3.990385374 0)
(97.25904411 -3.868574811 0)
(97.40509042 -4.290119559 0)
(97.00386375 -3.818254573 0)
(96.34359497 -3.640202906 0)
(96.54445682 -4.021250061 0)
(96.15718399 -3.572431485 0)
(95.69195948 -3.34691402 0)
(95.93599642 -3.677222297 0)
(95.56653885 -3.265136351 0)
(95.27177883 -3.003405159 0)
(95.54670484 -3.27891985 0)
(99.85952378 -3.576260953 0)
(99.87989002 -3.949435082 0)
(99.47197614 -3.566917579 0)
(98.35878881 -3.512959744 0)
(98.43067507 -3.885372344 0)
(98.01671023 -3.486519197 0)
(97.09520799 -3.384018811 0)
(97.21514511 -3.739717882 0)
(96.82446271 -3.342404112 0)
(96.12013415 -3.196188135 0)
(96.28346782 -3.522720412 0)
(95.92013421 -3.140622014 0)
(95.41818375 -2.95510706 0)
(95.61849621 -3.243936599 0)
(95.28192977 -2.887464867 0)
(94.95865965 -2.669300538 0)
(95.18824832 -2.915902973 0)
(99.82543608 -3.146369866 -4.007811789e-35)
(99.85161967 -3.462053612 4.574280343e-35)
(99.42710151 -3.135677032 4.000361106e-35)
(98.27206001 -3.084498143 0)
(98.33621272 -3.39906754 0)
(97.91676443 -3.061040363 0)
(96.95766327 -2.972818794 0)
(97.05866106 -3.2749016 0)
(96.67476787 -2.937620103 0)
(95.93513191 -2.815025598 0)
(96.07070413 -3.09540438 0)
(95.7238856 -2.768609397 0)
(95.19040176 -2.613485222 0)
(95.35739119 -2.865224841 0)
(95.04445319 -2.556733991 0)
(94.69463052 -2.372666827 0)
(94.88849799 -2.591378203 0)
(99.78644132 -2.780664583 0)
(99.81604834 -3.049403526 0)
(99.38016699 -2.769163412 0)
(98.19373021 -2.720590767 0)
(98.25175973 -2.987952735 0)
(97.8282359 -2.699495458 0)
(96.83985057 -2.622264292 0)
(96.92656263 -2.879920055 0)
(96.54736053 -2.591958244 0)
(95.77924119 -2.487395068 0)
(95.89372563 -2.728424777 0)
(95.55867797 -2.448002095 0)
(94.99824633 -2.316431133 0)
(95.13935935 -2.535254827 0)
(94.8437343 -2.268213476 0)
(94.46969217 -2.11119545 0)
(94.63507137 -2.303816589 0)
(99.74462946 -2.468339213 -1.414055261e-35)
(99.77619107 -2.697936582 -1.611120036e-35)
(99.33245195 -2.456411264 1.411461323e-35)
(98.12226031 -2.410279311 0)
(98.17526913 -2.638351479 0)
(97.7488012 -2.391114166 0)
(96.73731721 -2.322602106 0)
(96.8129258 -2.54290607 0)
(96.43716894 -2.296131369 0)
(95.64589356 -2.205670253 0)
(95.74400177 -2.412925179 0)
(95.41758321 -2.171782136 0)
(94.8341384 -2.058795272 0)
(94.95483834 -2.24851505 0)
(94.67210793 -2.017366956 0)
(94.27621329 -1.882080184 0)
(94.41863386 -2.050740315 0)
(99.70132719 -2.201246789 0)
(99.73390344 -2.397600266 0)
(99.28476405 -2.189155836 0)
(98.05653571 -2.145292954 0)
(98.10532801 -2.340062283 0)
(97.67680858 -2.12773688 0)
(96.6469236 -2.066294904 0)
(96.71368304 -2.254717826 0)
(96.34060612 -2.042894417 0)
(95.53036527 -1.963675033 0)
(95.61549586 -2.141662554 0)
(95.29558177 -1.934175587 0)
(94.69245209 -1.836068353 0)
(94.79680237 -2.000004557 0)
(94.52383386 -1.800109048 0)
(94.10833342 -1.682461839 0)
(94.23204688 -1.829296016 0)
(99.65740487 -1.973058671 0)
(99.69037823 -2.140766368 0)
(99.23760524 -1.960980474 0)
(97.99568746 -1.919206741 0)
(98.04089636 -2.08534193 0)
(97.61100493 -1.903007927 0)
(96.56634596 -1.84738339 0)
(96.62593609 -2.0082646 0)
(96.25501791 -1.826477649 0)
(95.42913173 -1.75634559 0)
(95.50383394 -1.908768638 0)
(95.18890913 -1.730389438 0)
(94.56888394 -1.644326374 0)
(94.66000631 -1.785368052 0)
(94.39448807 -1.612812882 0)
(93.96143052 -1.509591137 0)
(94.06980251 -1.636641937 0)
(99.61342595 -1.778797452 0)
(99.64639764 -1.921478215 0)
(99.19126558 -1.766839865 0)
(97.93900412 -1.726963117 0)
(97.98114992 -1.868141129 0)
(97.5503958 -1.711914448 0)
(96.49380164 -1.661116317 0)
(96.54751542 -1.79791478 0)
(96.17837357 -1.642256595 0)
(95.33948872 -1.579535799 0)
(95.40572365 -1.709421722 0)
(95.0946672 -1.55646351 0)
(94.46006954 -1.480215214 0)
(94.54040939 -1.600823037 0)
(94.28059058 -1.452334761 0)
(93.8317963 -1.360953294 0)
(93.92753117 -1.470076297 0)
(99.56974689 -1.614479155 0)
(99.60246776 -1.735049765 0)
(99.14589251 -1.602704139 0)
(97.88588654 -1.56453257 0)
(97.92541208 -1.68370042 0)
(97.49416775 -1.550459874 0)
(96.42788187 -1.503680974 0)
(96.47674968 -1.619187261 0)
(96.10907405 -1.486506771 0)
(95.25930739 -1.429855596 0)
(95.31863008 -1.539691504 0)
(95.01056936 -1.409138922 0)
(94.36332151 -1.340909914 0)
(94.43484496 -1.443163905 0)
(94.17934587 -1.316002531 0)
(93.71638425 -1.234329696 0)
(93.80172101 -1.327164902 0)
(99.52658849 -1.476858229 0)
(99.55890195 -1.577683049 0)
(99.1015477 -1.46530104 0)
(97.83581613 -1.428652152 0)
(97.87310203 -1.528185951 0)
(97.44163247 -1.415406981 0)
(96.36743016 -1.371973281 0)
(96.41229706 -1.468449638 0)
(96.04581218 -1.356186977 0)
(95.1868543 -1.304503052 0)
(95.24053029 -1.396334689 0)
(94.93475273 -1.28570875 0)
(94.27644024 -1.224028246 0)
(94.34075283 -1.309671516 0)
(94.0884603 -1.201555267 0)
(93.61265499 -1.127876147 0)
(93.68944296 -1.20575944 0)
(99.48409316 -1.363352219 0)
(99.51589868 -1.446309863 2.622316059e-36)
(99.05824718 -1.352028418 0)
(97.78834282 -1.316721747 0)
(97.82372118 -1.398513997 0)
(97.39220222 -1.304172424 0)
(96.31148045 -1.26350038 0)
(96.3530556 -1.342763299 0)
(95.98750005 -1.248847637 0)
(95.12069301 -1.201193864 0)
(95.16977573 -1.276689244 0)
(94.8656743 -1.183954013 0)
(94.19761161 -1.127570168 0)
(94.2560437 -1.198070896 0)
(94.00605241 -1.107072031 0)
(93.51864797 -1.039918765 0)
(93.58831845 -1.104133669 0)
(99.4423307 -1.27190143 0)
(99.47358251 -1.338492072 0)
(99.01595511 -1.26081047 0)
(97.74304833 -1.226660372 0)
(97.77683082 -1.292227198 0)
(97.34534362 -1.21468529 0)
(96.25918468 -1.17625224 0)
(96.29809505 -1.239767328 0)
(95.93318747 -1.162508521 0)
(95.05957372 -1.118061626 0)
(95.10498612 -1.178583351 0)
(94.80198865 -1.102052383 0)
(94.12522401 -1.049847903 0)
(94.17897103 -1.106441242 0)
(93.93043028 -1.030902673 0)
(93.43245603 -0.968829098 0)
(93.49645435 -1.020586166 0)
(99.40131859 -1.200901657 9.816963457e-36)
(99.43200786 -1.252288661 0)
(98.97459786 -1.190029558 -9.799988711e-36)
(97.69954092 -1.156844207 0)
(97.73201911 -1.207363505 0)
(97.30056923 -1.145328094 0)
(96.2097888 -1.108654988 0)
(96.24659199 -1.157564174 0)
(95.88203365 -1.095617593 0)
(95.00239558 -1.053641397 0)
(95.04495024 -1.100252079 0)
(94.74250896 -1.038574918 0)
(94.05783256 -0.9895635332 0)
(94.10795975 -1.033185325 0)
(93.86005815 -0.9718038249 0)
(93.35216543 -0.9136312106 0)
(93.41188654 -0.9535275194 0)
(99.36102192 -1.149122885 -3.173785271e-36)
(99.3911797 -1.186195365 0)
(98.9340616 -1.138443921 3.168347366e-36)
(97.65743641 -1.106021588 0)
(97.68889819 -1.142399226 0)
(97.25741348 -1.094853205 0)
(96.16259822 -1.059492406 0)
(96.19781046 -1.094676344 0)
(95.83326974 -1.046975204 0)
(94.9481677 -1.006801566 0)
(94.98859871 -1.040320772 0)
(94.686172 -0.992418767 0)
(93.99417343 -0.9457192952 0)
(94.04161454 -0.9770948198 0)
(93.79361476 -0.9288190896 0)
(93.27636013 -0.8734838286 0)
(93.33284875 -0.9021747543 0)
(99.32134353 -1.11567355 0)
(99.35105168 -1.139070822 0)
(98.89418511 -1.10515064 0)
(97.61634981 -1.073277485 0)
(97.64708596 -1.09616988 0)
(97.2154228 -1.062347792 0)
(96.11696519 -1.027873068 0)
(96.1510696 -1.049971458 0)
(95.78618481 -1.015702502 0)
(94.89598654 -0.9767145606 0)
(94.93496533 -0.9977356231 0)
(94.63200991 -0.9627766581 0)
(93.93309389 -0.9175726227 0)
(93.97870598 -0.9372347526 0)
(93.72988982 -0.9012281046 0)
(93.20366988 -0.8477376813 0)
(93.25794345 -0.8656768338 0)
(99.27754978 -1.099073419 -3.422667415e-37)
(99.3115999 -1.110094192 0)
(98.8501283 -1.088733564 3.418578391e-37)
(97.57107882 -1.057256965 0)
(97.60625787 -1.067831866 0)
(97.16924052 -1.046466813 0)
(96.06699153 -1.01251076 0)
(96.10577751 -1.022627849 0)
(95.73467032 -1.000542204 0)
(94.83899976 -0.9622179457 0)
(94.88320289 -0.9717378455 0)
(94.57288079 -0.9485148025 0)
(93.8664556 -0.9040387323 0)
(93.91813779 -0.9129238525 0)
(93.66037484 -0.8879371107 0)
(93.12437193 -0.8350282325 0)
(93.18586004 -0.8434746746 0)
(102.8954278 -32.62301344 -6.762433632e-19)
(101.8598509 -32.83054457 -1.729400372e-20)
(101.656196 -32.63002089 0)
(104.4176904 -31.35056938 0)
(105.1393412 -31.7549234 9.396311274e-19)
(104.3475291 -32.43697855 4.848698602e-19)
(111.7016927 -23.94401706 1.575539153e-18)
(111.461521 -27.83434499 0)
(107.7055093 -26.52465251 -2.218458049e-18)
(95.72516365 -24.16140029 0)
(90.58722674 -24.26724575 -7.752307571e-19)
(97.52083757 -32.29523821 -5.560713547e-19)
(97.88121291 -31.92774549 2.156547223e-19)
(101.1544906 -31.69817291 -6.242585402e-19)
(98.02298254 -21.79687977 7.15696157e-20)
(98.47964011 -23.0504768 9.444976125e-20)
(96.70077232 -23.98278483 -1.741541908e-19)
(104.3037428 -20.63873485 -6.343465505e-19)
(102.7837237 -22.96017295 4.235511529e-19)
(100.8786304 -20.42592077 0)
(106.5617671 -25.93951076 1.033867186e-18)
(103.6011717 -23.77755469 5.349186698e-19)
(105.0460013 -21.10500213 -7.904795995e-19)
(95.88004883 -16.17387877 -4.784803867e-19)
(94.84028119 -19.27173688 1.542660771e-19)
(108.4789637 -28.32351094 3.136174266e-19)
(107.9923066 -30.24223377 -5.352821787e-19)
(105.9760208 -29.2697471 -3.877292414e-20)
(108.6947628 -30.4993825 6.193973804e-19)
(109.5762893 -28.32129254 -1.206226687e-18)
(106.7252708 -33.93905533 2.162015154e-20)
(108.3573156 -33.89905319 1.259840101e-18)
(95.88536724 -27.62597589 -9.281725007e-20)
(95.47740788 -26.83971825 5.507078444e-20)
(96.73683283 -26.52037845 0)
(98.17791871 -28.68894866 0)
(96.77325598 -29.11478493 0)
(96.3213051 -28.3811202 0)
(100.8341818 -26.08876279 -1.18190673e-19)
(102.4249637 -27.7456129 2.03072766e-19)
(100.3249432 -29.45520249 0)
(103.8051497 -25.57844257 -6.61932079e-19)
(102.946845 -26.62102626 -4.880062295e-19)
(101.9384276 -25.65716207 3.890256682e-19)
(105.3539824 -28.90763697 -1.200376073e-18)
(104.069535 -27.52277836 -1.757144972e-19)
(104.8539192 -26.36998728 -8.456503557e-19)
(102.0409553 -33.39757902 4.609678988e-19)
(102.227891 -33.39267941 8.650696061e-19)
(104.1717392 -33.43576482 8.624363678e-19)
(87.61680726 -29.56182383 -4.675873717e-19)
(87.01816708 -29.5610908 8.267414281e-19)
(80.25177952 -27.78225787 -5.913689489e-19)
(100.5293291 -31.17035547 -2.326049129e-19)
(97.85849925 -31.75370744 -2.161206594e-19)
(97.45920173 -31.04755319 0)
(104.4472942 -33.71972683 -1.985426896e-18)
(101.3629991 -33.37208002 3.594994185e-21)
(101.7193481 -33.3812391 9.543727704e-19)
(107.3622244 -32.7724003 0)
(108.1102155 -33.048129 -1.606324859e-19)
(106.4668652 -33.82458269 0)
(109.0734303 -31.51402746 -6.661235892e-19)
(108.6745757 -32.29467698 1.302611954e-18)
(107.9156314 -32.01876662 5.808625435e-19)
(109.4413479 -32.54401407 0)
(109.8260978 -31.75682825 -7.137628197e-19)
(97.71962056 -30.47248362 -6.761086547e-20)
(97.2458407 -29.8233233 -7.94132151e-20)
(98.72627576 -29.36480536 0)
(89.01612422 -29.43760141 0)
(88.3162854 -29.48982992 1.609208874e-19)
(94.10266218 -28.63051627 -4.729859671e-20)
(95.19970442 -29.52001015 -5.032922819e-20)
(98.74821523 -14.92607419 2.505048103e-19)
(98.6798238 -16.24160033 0)
(96.88778809 -16.42902097 0)
(100.4399754 -15.62662525 7.430478665e-20)