/*--------------------------------*- C++ -*----------------------------------*\
| =========                 |                                                 |
| \\      /  F ield         | OpenFOAM: The Open Source CFD Toolbox           |
|  \\    /   O peration     | Version:  v2012                                 |
|   \\  /    A nd           | Website:  www.openfoam.com                      |
|    \\/     M anipulation  |                                                 |
\*---------------------------------------------------------------------------*/
FoamFile
{
    version     2.0;
    format      ascii;
    class       volScalarField;
    location    "0.8";
    object      nut;
}
// * * * * * * * * * * * * * * * * * * * * * * * * * * * * * * * * * * * * * //

dimensions      [0 2 -1 0 0 0 0];


internalField   nonuniform List<scalar> 
3019
(
0.0630575
0.2093698205
0.2783725069
0.3513124247
0.4357930041
0.5572955613
0.7535189951
0.9877961758
1.157650344
1.151869937
1.149117379
1.148330752
0.1225068648
0.3115861088
0.3896312657
0.4580596146
0.5341212939
0.6493851462
0.8288194445
1.036613373
1.158892608
1.152692791
1.149616437
1.148702331
0.1706219274
0.4371989693
0.6015000638
0.6303990282
0.6842765737
0.782341853
0.9426854003
1.121148067
1.160057336
1.153558551
1.150249968
1.149259956
0.1834148718
0.4423105809
0.6938868644
0.9027320405
0.8934925521
0.9577766144
1.095562604
1.168023019
1.161104108
1.154431
1.150967657
1.149920144
0.1794036512
0.4364133982
0.6912840434
0.9054028747
1.048940437
1.125715947
1.162614806
1.168921645
1.161942853
1.155207362
1.1516504
1.150574612
0.1749565043
0.4307124564
0.692170254
0.9098067548
1.052380335
1.127567056
1.1634735
1.169452192
1.16255955
1.155864044
1.152306053
1.151219399
0.1801241742
0.4336697812
0.6986763356
0.9150156168
1.054521903
1.128472336
1.163770617
1.169625105
1.162920403
1.156331153
1.152814613
1.151732891
0.1927679806
0.4423114167
0.7044326324
0.918806879
1.055794924
1.128744442
1.163655481
1.16951163
1.163134226
1.156723023
1.15327098
1.152194264
0.2040932928
0.4498715749
0.7079476102
0.921226196
1.056446262
1.128595063
1.163242909
1.169185645
1.163150524
1.15693591
1.153560715
1.152492702
0.2138215744
0.456466727
0.7103501769
0.9222180413
1.056558603
1.128149103
1.162624969
1.168711582
1.163108392
1.157126039
1.153826365
1.152758947
0.2223747167
0.4622875101
0.7122015012
0.9220475329
1.056122311
1.127461129
1.161863929
1.168139755
1.162924697
1.15715775
1.153929932
1.152862804
0.2300458147
0.4674874603
0.7137121897
0.9211578701
1.055168186
1.126552416
1.160997914
1.167505122
1.162752462
1.157221128
1.154055322
1.152978253
0.2370491343
0.4721866666
0.7149815775
0.9199022512
1.053807765
1.12544792
1.160053519
1.166831783
1.162461053
1.157131679
1.154021371
1.152934242
0.2435219138
0.4765161546
0.7160862598
0.9184917651
1.052178315
1.124186717
1.159053512
1.166136053
1.162231125
1.157122769
1.154058045
1.152951864
0.2495739844
0.4805730349
0.7170927758
0.9170456541
1.050396611
1.122813377
1.158018181
1.165430167
1.161880466
1.156953019
1.153929911
1.15280723
0.2553042907
0.4844701269
0.7180643123
0.9156382373
1.048548065
1.121367954
1.156964125
1.164722594
1.161634415
1.156908907
1.153919641
1.15277333
0.2607922189
0.4882658064
0.7190553049
0.9143167735
1.046691068
1.119882699
1.155904458
1.164019921
1.161253224
1.156689392
1.153733261
1.152568001
0.2660978854
0.4920036688
0.7201066811
0.9131088213
1.044863541
1.118382362
1.154849371
1.163327359
1.161013482
1.156630068
1.153700481
1.152510005
0.2712748264
0.4957187954
0.7212462014
0.9120275524
1.043089232
1.116886264
1.153806905
1.162647802
1.160625486
1.156390041
1.153488065
1.152278612
0.276374277
0.4994516218
0.72248433
0.9110736229
1.041382124
1.115409498
1.152783467
1.161986045
1.160391729
1.156312108
1.153432992
1.152198175
0.2814328972
0.5032145213
0.7238130944
0.9102384877
1.039750096
1.113963753
1.151784457
1.161340452
1.1600381
1.156096877
1.153240384
1.151988977
0.2864592499
0.5069954284
0.725211345
0.9095105806
1.038199573
1.112561881
1.150817895
1.160722179
1.159766544
1.155964841
1.153132206
1.151855718
0.2914358107
0.510759614
0.7266518953
0.9088802988
1.03673798
1.111215416
1.149903167
1.16013375
1.159550621
1.155850247
1.153032718
1.151744023
0.2963122142
0.5144461524
0.7280961236
0.9083364991
1.035371798
1.109933486
1.14910771
1.15964198
1.159228894
1.155693427
1.152904208
1.151586847
0.04690957688
0.05908860815
0.1840955055
0.09198339578
0.04823783599
0.116534583
0.2513898068
0.1873299585
0.1249935121
0.09407448474
0.1452355323
0.07513481047
0.07206181627
0.08898536095
0.1616909912
0.1490261244
0.03224574298
0.05715959823
0.02938230477
0.03871805001
0.100172798
0.06117641319
0.1651168819
0.3660219685
0.283563077
0.1171278092
0.1048381378
0.04171786019
0.2014385841
0.1681574976
0.09241479179
0.101933909
0.007236400908
0.0199597365
0.03482972242
0.08443689128
0.01085118235
0.01302706872
0.03848957304
0.01096766538
0.01085676912
0.01321544842
0.01087297009
0.01141948626
0.02055131602
0.01455443271
0.02970991063
0.02322163582
0.01121686806
0.007495226443
0.02242822817
0.01065697223
0.01087708182
0.1911226406
0.2429068666
0.04051656353
0.01427127631
0.0200513445
0.0108037004
0.01566127962
0.02988991606
0.05950422107
0.0110942069
0.007834735114
0.007963045315
0.01122906102
0.01118555295
0.03773037476
0.03199251287
0.01063680171
0.01051387424
0.01068415582
0.01074571924
0.007450829998
0.0108324949
0.01098384664
0.01201043969
0.0111796487
0.01093967559
0.01116171779
0.01102601583
0.01138726977
0.01133449527
0.01117566137
0.01124271694
0.01140349972
0.01242592378
0.01186191126
0.01084003228
0.01081190799
0.0107865341
0.01234619089
0.01142529452
0.01071054703
0.2597574795
0.3133994291
0.3322742164
0.3929057897
0.4162693928
0.4978385739
0.07495270608
0.1226987388
0.1216926265
0.2767115212
0.3379000075
0.2609235908
0.3556144816
0.4080000903
0.3322056836
0.4251816427
0.4846826352
0.4127843126
0.5061323022
0.5806740026
0.5174771628
0.1355448623
0.2525357751
0.2169889247
0.4331615001
0.5267219464
0.3737262146
0.5359574364
0.5671235361
0.4415394092
0.5796589719
0.6228325809
0.5125786631
0.641367885
0.7060809326
0.6084924772
0.1117535599
0.09924219921
0.1823565361
0.3775373879
0.3706648283
0.4424657376
0.6333350158
0.5985067624
0.6942477637
0.8280220764
0.620945989
0.8192859456
0.826535731
0.6674934581
0.8353968716
0.8833574126
0.7474060913
0.1128878643
0.1134323598
0.1810487461
0.3737205037
0.3776858722
0.4383540203
0.6303372237
0.6329592927
0.6918475203
0.8575601086
0.856689998
0.9046038648
1.018632032
0.888382018
1.047818658
1.110848013
0.9373255287
0.108989493
0.1116777142
0.1753470335
0.3666852035
0.371677907
0.4314643151
0.6285691138
0.629467515
0.6914534028
0.8605666923
0.8580419719
0.908406755
1.023023666
1.019796758
1.051663639
1.113235559
1.111565676
0.1131427739
0.1091475391
0.1777922506
0.3674399117
0.3659609505
0.4320788401
0.632526872
0.6290113953
0.6967552756
0.8665644635
0.8618700494
0.9138561879
1.026064788
1.023908521
1.054081238
1.11454671
1.113648363
0.1262004264
0.1157916262
0.1896260839
0.3761142973
0.3690568415
0.4402448217
0.6390789178
0.634396327
0.7032565296
0.871534517
0.8679627954
0.917983314
1.02803628
1.026642506
1.055541672
1.11511759
1.114747458
0.139460458
0.1297001764
0.2014318559
0.3846817277
0.3783766032
0.4480804039
0.6436765491
0.6403620121
0.707207598
0.874762349
0.8725115605
0.9207569848
1.029238969
1.028401967
1.05633462
1.11518548
1.115174185
0.1510603908
0.1425020342
0.2115145948
0.3921583175
0.3866422737
0.4548975164
0.6472957804
0.6446507239
0.7098147213
0.8762417831
0.8752855153
0.9220952976
1.029763728
1.029434112
1.056581342
1.114899681
1.115143524
0.1613115046
0.1537440829
0.220329096
0.3987906587
0.3938884152
0.4608959777
0.6503334389
0.648101714
0.7117756754
0.8764337777
0.8763859961
0.9221745974
1.029587519
1.029785935
1.056282718
1.114323452
1.114782166
0.1702308088
0.1636534193
0.2281979641
0.4047563552
0.4003392384
0.4662398951
0.652947171
0.6510230352
0.7133604805
0.8759116311
0.876351938
0.9214257802
1.02875488
1.029436269
1.055450136
1.113474687
1.114136716
0.1781953446
0.1722991066
0.235353181
0.4102472427
0.406168291
0.4710511288
0.6552286609
0.6535457602
0.7146824853
0.8750493757
0.8757181201
0.9202368813
1.027423275
1.028461379
1.054178311
1.112377924
1.113222759
0.185488632
0.1800750111
0.2419477142
0.4153544033
0.4115584702
0.475462946
0.6572624279
0.6557576431
0.7158218791
0.8740455202
0.8748068135
0.9188514035
1.025777204
1.027034803
1.052603982
1.111080255
1.112070673
0.1922614333
0.1872274403
0.248095242
0.420141724
0.4165791286
0.4795798203
0.6591249999
0.6577418104
0.7168468932
0.8730063264
0.8737862886
0.9174059673
1.023964305
1.025335095
1.050851147
1.109638486
1.110731636
0.19861195
0.1938862932
0.2538975802
0.4246722346
0.4212977915
0.4835069063
0.6608879837
0.6595729435
0.7178215513
0.8720003681
0.8727499081
0.9159835671
1.022087304
1.023498125
1.049012942
1.108104518
1.109262298
0.2046204999
0.2001442561
0.2594401487
0.4290219925
0.4257740488
0.4873242196
0.6626163366
0.6613217335
0.7188033571
0.8710754224
0.8717605041
0.9146373632
1.020213767
1.021616797
1.047153791
1.106519758
1.10771212
0.2103491818
0.2060771227
0.2647867998
0.4332623642
0.4300916827
0.4910721202
0.6643618649
0.6630500643
0.7198365008
0.8702618123
0.8708612155
0.9133992832
1.018386163
1.019751635
1.0453162
1.104915558
1.106119935
0.2158541869
0.2117431871
0.2699919992
0.4374443927
0.4343119886
0.4947901515
0.6661632769
0.6648065784
0.7209522602
0.8695759614
0.8700785597
0.9122858233
1.01662953
1.017940006
1.043526953
1.103315278
1.104514762
0.2212009379
0.2171996855
0.2751091302
0.4416167311
0.4384875221
0.4985156951
0.668042253
0.6666260766
0.7221658217
0.8690210801
0.8694257207
0.91130061
1.014957015
1.016203577
1.04180216
1.101736574
1.102918411
0.2264545442
0.2225121534
0.2801829641
0.4458125249
0.4426627013
0.5022726682
0.6700012471
0.6685256737
0.7234736113
0.8685883577
0.8689025985
0.9104368498
1.01337386
1.014553128
1.040150765
1.100192415
1.101347238
0.23165857
0.2277373807
0.2852360996
0.4500348211
0.4468642027
0.5060554185
0.672023146
0.6705024617
0.7248574643
0.8682628578
0.8684981682
0.9096832526
1.011882597
1.012992734
1.038579261
1.098695327
1.099813617
0.2368392435
0.2329039164
0.2902765479
0.454267061
0.451081774
0.5098472013
0.6740838139
0.6725343242
0.726295086
0.8680310034
0.8681968906
0.9090303674
1.010486904
1.011524856
1.037094928
1.097257779
1.09833028
0.242013235
0.2380116232
0.2953115288
0.4585047261
0.4552789309
0.5136459182
0.6761812587
0.6745915485
0.7277835278
0.8678949001
0.8679844242
0.9084824452
1.009198665
1.010153407
1.035711825
1.095896114
1.096909338
0.247508971
0.2430249858
0.3006520362
0.4630057451
0.4593873475
0.5176892669
0.6784565233
0.6766314313
0.7294294381
0.8678745833
0.8678426491
0.908040827
1.007990277
1.00888192
1.034400552
1.094590074
1.095560185
0.04444856072
0.03645028997
0.03822136366
0.07719044245
0.0731520264
0.05480890008
0.167584924
0.1477380544
0.1566245107
0.08617679262
0.03458207958
0.02263710778
0.03007594171
0.04937381788
0.1533823624
0.1422882147
0.103872668
0.2177134367
0.1838479673
0.2218562447
0.1606789566
0.1761975984
0.2104643047
0.106086648
0.09229019469
0.1421150475
0.12670143
0.1277364278
0.122227508
0.1410373222
0.02500032695
0.03473764363
0.05862758133
0.06184469277
0.0786040351
0.06851637933
0.05151128669
0.05520651521
0.1280559898
0.1257964435
0.07886767122
0.1568268219
0.1405856772
0.1448544681
0.1329587478
0.1359585912
0.1527623541
0.02223684345
0.0248632117
0.03426438876
0.01403860474
0.01323937436
0.01126381211
0.05361912326
0.03229832334
0.03717864045
0.02719219883
0.01709986423
0.01952209186
0.0605868598
0.05621544753
0.03221570562
0.09601035037
0.07554784029
0.07971251819
0.07113604199
0.09140438023
0.04452349153
0.04844725715
0.06483805878
0.01668707724
0.01536757693
0.0395834308
0.03903666559
0.238170086
0.231501434
0.1418969519
0.3603295509
0.2996408359
0.3053652393
0.2450756544
0.2927593538
0.3306994098
0.1134537295
0.09260825008
0.09661552781
0.08411246319
0.08823820437
0.1087830394
0.05065713971
0.06885367461
0.06463215937
0.1874322691
0.1660931989
0.1775066783
0.1501083507
0.1572910981
0.1761995307
0.1000926401
0.1358428447
0.129901705
0.09742917257
0.06229718594
0.06541201948
0.01757704067
0.01136647377
0.01240441606
0.04569799152
0.04353246399
0.05032166555
0.04872323507
0.03276458961
0.08097480265
0.06538752019
0.06767983156
0.0111977163
0.0156189675
0.01379326316
0.02009826165
0.01773056183
0.0120655597
0.03658366272
0.02743156649
0.02985583291
0.01844358423
0.01281837303
0.01389999242
0.01134879302
0.01183323349
0.01630069973
0.02790176291
0.01842049479
0.02029491247
0.01528688074
0.01673874317
0.02526320292
0.01379124356
0.01524319358
0.02464886292
0.2115919226
0.1982913686
0.1783528548
0.2275349469
0.2108320838
0.2250484331
0.03204836983
0.03415839511
0.04270199105
0.01565298382
0.02474238983
0.02248803907
0.02954632324
0.02738818823
0.01775214435
0.0393586652
0.03747689942
0.02739187211
0.05527211235
0.04733049591
0.04736124249
0.04407475664
0.05381759076
0.02015345174
0.01852815828
0.03567751658
0.02725076611
0.02943915592
0.02256037018
0.02492270257
0.03348859554
0.5284595311
0.6231282822
0.7260808032
0.8342567703
0.956929282
1.100860356
0.06712766545
0.08525828672
0.08136233142
0.2266784224
0.2466135631
0.227170921
0.2999437826
0.318175283
0.2960425185
0.3730501535
0.3921921952
0.3713442343
0.4574155052
0.4824955952
0.4612433256
0.6114401529
0.7038748093
0.6578956377
0.7868472654
0.8869732348
0.8593137545
0.9918446719
1.122020942
1.09221785
0.1268714965
0.1645475116
0.1592884851
0.3561967735
0.3749374826
0.3307100396
0.4309166729
0.446665958
0.4068923857
0.4936424171
0.5112315341
0.4757830063
0.5670189449
0.5891456763
0.5577143875
0.7294678368
0.8099648204
0.7538808626
0.8812636474
0.969684874
0.9252715734
1.053235389
1.164617375
1.128188538
0.1758784363
0.2482458003
0.2436117535
0.4400757631
0.5060933538
0.5038771968
0.6807793242
0.6767338364
0.6063212317
0.6869116317
0.6947951733
0.6414122917
0.7303247451
0.7468307231
0.7027173651
0.8914192974
0.948694764
0.8747307131
1.013191567
1.083229907
1.023097272
1.151259241
1.165790235
1.165205709
0.1833323998
0.2516417258
0.2525665224
0.4414753678
0.5062690791
0.5071930913
0.6932746666
0.7515790494
0.751971301
0.9033678686
0.9453725753
0.8919036072
0.956815327
0.9623732306
0.9021082166
1.098356863
1.131352854
1.032665281
1.161849927
1.167196548
1.156485877
1.168452284
1.166744624
1.166331182
0.1777393165
0.2441218002
0.2461133666
0.4344701646
0.5003228044
0.5018750457
0.6909741704
0.7505666385
0.7505514782
0.9062226572
0.9490941679
0.9480861609
1.049953658
1.074552539
1.07370112
1.127210988
1.152550979
1.151846703
1.163128396
1.168205318
1.167811653
1.169250823
1.167413474
1.167143258
0.1752161952
0.2403911402
0.2404513277
0.4306046768
0.4973399094
0.4973836886
0.6933356442
0.7539263263
0.7525804504
0.9112534998
0.9540260869
0.9528173198
1.053016974
1.077057988
1.076547915
1.128318214
1.153293653
1.153009213
1.163681804
1.168615013
1.168464163
1.169590634
1.167778985
1.167656453
0.1829490908
0.2464351753
0.2440281203
0.4358756638
0.5023809808
0.5003881393
0.7003968326
0.7611226935
0.7594629736
0.916087903
0.9579604296
0.9570971872
1.054908957
1.078509249
1.078223542
1.12872399
1.153450281
1.153432481
1.163757255
1.168623841
1.168660146
1.169608052
1.167880275
1.167888194
0.195778586
0.2573385718
0.2547638455
0.4443040929
0.5096786631
0.5079595414
0.7054688755
0.7660425751
0.7650588667
0.9195453709
0.9607284179
0.9601357949
1.056010092
1.079253045
1.079120263
1.128663769
1.153204009
1.1533683
1.163480083
1.168339151
1.168510222
1.169377391
1.167771448
1.167879614
0.2066573749
0.2667969426
0.2645445689
0.4516032417
0.5159680667
0.5144772091
0.7086217007
0.7687156374
0.7682021076
0.9216040528
0.9624134246
0.9620983316
1.056524713
1.079489571
1.079472026
1.128283412
1.15268191
1.152971475
1.162955105
1.167849273
1.168113843
1.168968771
1.167503559
1.167687431
0.2160572925
0.2751772621
0.2731688227
0.4579882157
0.521455194
0.5201498365
0.7108530093
0.7701318864
0.7698506933
0.9222673415
0.9629606891
0.9629272636
1.056501288
1.079292752
1.079382246
1.127652515
1.151963696
1.152343922
1.162259588
1.167218866
1.167547322
1.168439405
1.167130273
1.167361282
0.2243666956
0.2827145198
0.2808985421
0.4636410147
0.52629035
0.5251355178
0.7126067059
0.7709601971
0.7707884335
0.92187625
0.9625138538
0.962702159
1.055929107
1.078664796
1.078861838
1.126796807
1.151093461
1.151545729
1.161442263
1.166492173
1.166864559
1.167831753
1.166684146
1.166948701
0.2318539362
0.289576421
0.2879188142
0.4687039584
0.530596693
0.5295635589
0.7140491681
0.7714859734
0.7713746846
0.9208679679
0.961393824
0.9617187786
1.054860786
1.077631949
1.077924405
1.125738064
1.150098597
1.150610045
1.160534042
1.165699127
1.166101797
1.167174321
1.166196823
1.166477091
0.2387133152
0.2958684899
0.2943420923
0.4732998844
0.5344844648
0.5335457918
0.7152707485
0.7718365796
0.7717605994
0.9195585531
0.9599031616
0.9602978231
1.053420615
1.076275098
1.076639138
1.124512048
1.149005079
1.149562477
1.159559132
1.164861734
1.165284319
1.166487427
1.165679169
1.165973026
0.2450711982
0.3017081694
0.3002847517
0.4775530716
0.5380562697
0.5371878901
0.716344869
0.7720900673
0.7720323075
0.9181302971
0.9582441106
0.9586669422
1.051743394
1.07469532
1.075105919
1.123162953
1.147840167
1.148429865
1.158539182
1.163997438
1.164431667
1.165784527
1.165150517
1.165445192
0.2510341248
0.3072065944
0.305857877
0.4815591515
0.5413990076
0.5405810259
0.7173369153
0.7723080232
0.7722536563
0.9166881342
0.9565397247
0.9569652721
1.049938166
1.072982367
1.073419004
1.121732481
1.146628893
1.147238894
1.157492718
1.163120034
1.163559335
1.165076642
1.164611207
1.164910651
0.2566974146
0.312456701
0.3111634557
0.4854274784
0.5445878406
0.5438001636
0.718308778
0.772545998
0.772481946
0.9152986926
0.9548667446
0.9552790538
1.048082967
1.07120449
1.071652104
1.120254774
1.145391756
1.146012333
1.156434634
1.162240214
1.162679538
1.164370293
1.1640762
1.164368749
0.262134977
0.317523647
0.3162705852
0.489204487
0.5477032133
0.5469276428
0.7193115696
0.7728480205
0.7727645919
0.9140036627
0.9532720965
0.9536616923
1.046230437
1.069410098
1.06985825
1.118756391
1.144144979
1.144768399
1.15537663
1.161366321
1.161801387
1.163672735
1.163542125
1.163834412
0.2674042407
0.322464557
0.3212373901
0.4929339919
0.5508042266
0.5500263453
0.7203830205
0.7732447819
0.773135459
0.9128266617
0.9517822449
0.9521440352
1.044414411
1.067632053
1.068073727
1.11725779
1.142901241
1.143521334
1.154328086
1.16050509
1.16093237
1.162986709
1.163019528
1.163300932
0.2725588354
0.3273340236
0.3261192392
0.496649774
0.5539521742
0.5531595261
0.721546976
0.7737536277
0.7736155343
0.9117776647
0.9504093054
0.9507413949
1.04265596
1.06589249
1.066322911
1.115775098
1.141671
1.142281999
1.153296911
1.159662224
1.160077627
1.162319018
1.162509227
1.162784126
0.2776499283
0.3321785153
0.3309646381
0.5003909126
0.5571586163
0.5563514458
0.7228091983
0.7743753966
0.7742099051
0.9108544812
0.9491539446
0.9494570303
1.040967032
1.064205651
1.064621853
1.11432049
1.140465485
1.141060353
1.152290011
1.158842963
1.159242197
1.161669637
1.162008996
1.162271761
0.28271193
0.3370232631
0.3358026029
0.5041621134
0.5604146027
0.5595959108
0.7241578788
0.7750961748
0.7749077209
0.9100472552
0.9480103284
0.9482861496
1.03935477
1.062581508
1.062981161
1.11290647
1.139294154
1.139866809
1.151313564
1.158051587
1.158428621
1.161048017
1.161542531
1.161782023
0.2877581078
0.3418709644
0.3406324845
0.5079516926
0.5636933097
0.5628679781
0.7255709953
0.7758952295
0.7756885502
0.9093447815
0.9469718676
0.9472217905
1.037825771
1.061029702
1.061410317
1.111544743
1.138161635
1.138708703
1.150370373
1.157289382
1.157644193
1.160447642
1.161068186
1.16129987
0.2927940383
0.34671781
0.3454267446
0.5117439979
0.5669787977
0.5661310126
0.7270315223
0.7767577396
0.776529238
0.9087419985
0.9460373779
0.9462591183
1.03638932
1.059561799
1.059919418
1.110249675
1.137054515
1.137603427
1.149439751
1.156536044
1.156902847
1.159858293
1.160648203
1.160852827
0.2978376738
0.3515804193
0.3501236922
0.5155661848
0.5702933386
0.5693271675
0.7285633966
0.7777098541
0.7773966836
0.9082596144
0.9452267487
0.9453928937
1.035067274
1.058200684
1.05851692
1.109010904
1.135943992
1.136622101
1.148524879
1.155807179
1.156265686
1.159295036
1.160212051
1.160474179
0.1762971431
0.1683482417
0.1731691075
0.08896530256
0.0704743692
0.07432444615
0.04106741263
0.04139044038
0.05219614382
0.1833099809
0.1849173342
0.1944187969
0.1356752638
0.1414724883
0.1068460842
0.1040279766
0.08600976549
0.04803385349
0.04551302456
0.0367918355
0.02844696245
0.02689037611
0.04204019968
0.05349442862
0.04947197972
0.09498183339
0.1112481558
0.1099708952
0.03274817517
0.03077027498
0.2770779633
0.260578193
0.2438903039
0.2953829758
0.2777544625
0.2947953887
0.3513017114
0.3339590487
0.3141962035
0.3762846025
0.3543988081
0.3711160447
0.4416759107
0.4252029011
0.3997498931
0.4828380387
0.4526780088
0.4689785253
0.09292783816
0.08930616294
0.07120086487
0.1234208914
0.1089125073
0.1124386242
0.1009153987
0.1047862255
0.124972788
0.2960661858
0.2691661557
0.2491074416
0.3076036313
0.2856145386
0.3154309945
0.2415977432
0.2611671901
0.2819133955
0.3729027722
0.3429329251
0.3255013978
0.3791565684
0.3605444886
0.3904593078
0.3135997225
0.3361594886
0.3546859773
0.4438164841
0.4178744219
0.398371074
0.4573215066
0.4375338674
0.4642813773
0.3913800687
0.4122790353
0.4341250483
0.5302512712
0.5051365591
0.4793130415
0.5572782695
0.5311180353
0.5559868824
0.4881698148
0.5084529193
0.5344466769
0.1739851829
0.1690590723
0.1327286297
0.1934620877
0.2000550441
0.2378755846
0.4993870054
0.4305341475
0.4140351833
0.4671160124
0.450539245
0.5150276997
0.3521105669
0.396786503
0.4164054144
0.5462096268
0.4929947634
0.4795390829
0.5193335091
0.5066486973
0.5567488285
0.4242754567
0.462365478
0.4774305468
0.5932630108
0.5495752677
0.533866252
0.5830262194
0.5657994431
0.6073301251
0.4942450918
0.5288167101
0.5467779175
0.6618632448
0.6245398303
0.6026214436
0.6711917324
0.6464650781
0.6827271292
0.5830833335
0.6134382228
0.6368516697
0.1086967962
0.1042723384
0.2525373102
0.2511436542
0.1799032727
0.3763810511
0.3164675322
0.3175338065
0.3103186955
0.3140844955
0.3740790249
0.5075802916
0.5072642739
0.4417895158
0.6332027448
0.5711979974
0.5713177059
0.5686441554
0.5703476967
0.6324319021
0.752155772
0.7519129158
0.6941821401
0.7477397305
0.7521938487
0.8061887283
0.6133477829
0.6767264171
0.680512383
0.8172827807
0.7531623513
0.748564697
0.7690331927
0.7600093512
0.8202365641
0.6535742304
0.7043276356
0.7158986711
0.8463142769
0.7945355088
0.7808586474
0.835943677
0.8116507452
0.8623480042
0.7220417066
0.7655568125
0.7887413327
0.1137681894
0.1139280744
0.2481754119
0.2501057917
0.1824581022
0.3755802194
0.3144331331
0.3122447863
0.3173604637
0.3162310925
0.376981728
0.5034640935
0.504978263
0.4401093078
0.6313033988
0.5687954109
0.5675320779
0.5708503965
0.5699546894
0.632229988
0.7507680312
0.7511468779
0.6925539051
0.8572094409
0.8061749373
0.8061701931
0.8063434664
0.8062722435
0.8569653019
0.9471769062
0.9462259814
0.9039375511
1.017481503
0.9840902947
0.9851276955
0.886762234
0.9653382678
0.9580822715
1.072739188
1.029571482
1.030564246
1.0517633
1.035920457
1.093594784
0.9160129726
0.9738753238
0.9901906798
0.1095174774
0.1104549476
0.2411481728
0.2424216782
0.1763462912
0.3679688845
0.3059554988
0.3045724113
0.3099640096
0.307792962
0.3696835989
0.4979368786
0.4989772374
0.4327669711
0.6284962421
0.5644517872
0.5639519097
0.5663131616
0.5652468011
0.6288311292
0.7515925532
0.750940676
0.690990287
0.8595212194
0.8073234031
0.8081681623
0.8063103458
0.8066872584
0.8587325467
0.9515141631
0.9502374771
0.9072165997
1.022040154
0.9885363441
0.9897200102
0.9861921041
0.9873376643
1.020952788
1.075965924
1.075303835
1.05085816
1.112753954
1.09577647
1.096330784
1.094417331
1.095142059
1.112201301
0.1112064356
0.1098432219
0.2421699808
0.240943065
0.1761728933
0.3663087804
0.303929127
0.3049708793
0.3037500409
0.3035728358
0.3658821647
0.4987960945
0.4977944719
0.4310017669
0.6309675918
0.5649677647
0.5661118208
0.5639269721
0.5642084776
0.6297957903
0.7576317811
0.7556702535
0.6948309964
0.8650597283
0.8126312093
0.814393135
0.8093349496
0.810834103
0.8634519014
0.9561579879
0.955136788
0.9126046275
1.025421134
0.992690925
0.9935086424
0.9908051742
0.9917924978
1.024704979
1.077889805
1.077503146
1.053581706
1.114299067
1.097587597
1.097892136
1.096812664
1.097229763
1.114002266
0.1225703813
0.1188714629
0.2520882695
0.2493041397
0.1863392631
0.3737649478
0.3112386166
0.3136709706
0.306547203
0.3087329356
0.3713366351
0.5061740922
0.5043168873
0.438099937
0.6376739988
0.5712981414
0.5728802808
0.5678236544
0.5696165465
0.6361216499
0.7639173043
0.762607194
0.7019181114
0.8704487294
0.818905921
0.8201370067
0.8160300589
0.8175355273
0.8692575007
0.9594772795
0.9587527009
0.9170768017
1.027623562
0.9955452827
0.9961025126
0.9942530361
0.9949301686
1.027160456
1.078954011
1.078751467
1.055247561
1.115029544
1.098532884
1.098668753
1.098148279
1.098360518
1.114907594
0.1363222897
0.1330687382
0.2622214898
0.2598217682
0.1986626781
0.3826543889
0.3205783137
0.3227572802
0.3160357553
0.3183380823
0.380554169
0.5129340602
0.5113356223
0.4462256329
0.6426448334
0.5771716521
0.5784812347
0.5743790449
0.575806429
0.6415445331
0.7675969176
0.766882963
0.7063871186
0.87412681
0.8229800304
0.8236555795
0.8212259563
0.8221724904
0.8733764367
0.9617114455
0.9612541957
0.9201962573
1.029002092
0.9974509405
0.9977949398
0.9966048978
0.9970541669
1.028723396
1.079427357
1.079354819
1.056189545
1.11520591
1.098888439
1.098907023
1.098771522
1.098843879
1.115202892
0.1482918793
0.1454406671
0.2711050615
0.2689822579
0.2091276733
0.3903766449
0.3289438203
0.3308963231
0.3248764886
0.3269379476
0.3885388783
0.5188018056
0.5174087091
0.4532771944
0.6464548485
0.5821189878
0.5832451849
0.5797399139
0.580951476
0.6455746574
0.7695274419
0.7691528792
0.7092409214
0.8760169334
0.8250027445
0.8252695466
0.8242093915
0.824653916
0.875701216
0.9628267182
0.9626560299
0.9218924523
1.029697276
0.99850027
0.9986229964
0.9980852988
0.998320805
1.029587158
1.079444724
1.079480475
1.056569904
1.114999826
1.09882209
1.098749391
1.098901526
1.098872849
1.115081098
0.1588851656
0.1563638553
0.2790391418
0.277132861
0.2182240054
0.3972015968
0.3364537398
0.3382139812
0.3327973429
0.3346488876
0.3955679581
0.5239460049
0.5227198911
0.459463505
0.649618097
0.586397607
0.5873800493
0.5843322234
0.5853822475
0.6488747361
0.7705956361
0.7703782918
0.711326997
0.8764724229
0.8256988513
0.8257515297
0.825467072
0.8256068063
0.8764594934
0.9628430653
0.962931017
0.9222503357
1.029697175
0.9986541634
0.9985576404
0.9986888981
0.99869873
1.029763625
1.079032437
1.079176184
1.05640927
1.114493941
1.098402665
1.09824407
1.098655341
1.098539625
1.114646412
0.1681060749
0.1659145916
0.2862236074
0.2844885526
0.2263060984
0.4033194865
0.3432475778
0.3448504151
0.3399315091
0.3416084251
0.4018472748
0.5285026412
0.5274121911
0.4649576141
0.6523283561
0.5901442192
0.5910098964
0.5883308997
0.5892516289
0.6516872292
0.771251167
0.7711136963
0.7129924542
0.8760850253
0.8257352893
0.8256875895
0.8257715597
0.8257645385
0.8762335141
0.9620169351
0.9622836498
0.9216669915
1.02901723
0.9979896896
0.9977208004
0.998412225
0.9982215599
1.029245304
1.078194922
1.078442169
1.055704454
1.113711963
1.097642118
1.097400661
1.098064382
1.097863428
1.113932198
0.176276577
0.1743117116
0.2927859544
0.2911980917
0.2336214837
0.4089128515
0.3494435753
0.350912342
0.3464152829
0.3479452198
0.4075530321
0.5325860572
0.5316036268
0.4698907588
0.6546848627
0.5934596406
0.5942327456
0.5918499503
0.5926658579
0.6541241915
0.77167762
0.7715865218
0.7143720662
0.875283867
0.8254618577
0.8253669136
0.8256243847
0.8255483021
0.8755076289
0.9606798236
0.9610462763
0.9205597857
1.027792498
0.9967321682
0.996354745
0.997418922
0.9970880624
1.028139495
1.07698769
1.077319215
1.054530076
1.112673561
1.096565487
1.096253415
1.097140236
1.096861321
1.112954831
0.1837189449
0.1819141757
0.2988380917
0.2973665236
0.2403446387
0.4141105335
0.3551573588
0.3565243715
0.3523531422
0.353767399
0.412845224
0.5363041041
0.5354033999
0.4743910671
0.6567729856
0.5964405662
0.5971444868
0.5949862791
0.5957215949
0.6562716334
0.7719714564
0.7719065668
0.7155503557
0.8743031293
0.8250449058
0.824929733
0.8252648173
0.8251569585
0.8745573113
0.959085599
0.9594983851
0.9192076051
1.026209377
0.9951232803
0.9946886293
0.9959588718
0.9955474522
1.026629273
1.075506983
1.075897264
1.053018728
1.111420865
1.095233153
1.094868857
1.095926657
1.095585997
1.111750726
0.1906118721
0.1889334855
0.304492833
0.3031100135
0.2465941615
0.4189712161
0.3604974767
0.3617825883
0.3578690744
0.3591929487
0.4177836282
0.5397515233
0.5389103798
0.4785734098
0.6586716073
0.5991756452
0.5998306265
0.5978340416
0.5985104904
0.6582107419
0.7721998181
0.7721456358
0.7165979227
0.8732653873
0.8245741976
0.8244559706
0.8248121816
0.8246932269
0.8735256488
0.9573919584
0.9578186835
0.9177679061
1.024426916
0.9933412915
0.9928836007
0.9942455088
0.9937957606
1.024884327
1.07385072
1.074276568
1.051300526
1.110009828
1.093719979
1.093321722
1.094494626
1.094111158
1.110373971
0.1970597147
0.1954841628
0.3098581131
0.3085395416
0.2524738789
0.4235606436
0.3655350932
0.3667564487
0.3630497332
0.3642999073
0.4224359927
0.5430069643
0.5422071349
0.4825366297
0.6604530011
0.6017441885
0.6023692748
0.6004762487
0.6011135245
0.6600148011
0.7724214034
0.7723637247
0.7175793734
0.8722458922
0.8241127419
0.8240052564
0.8243390357
0.8242242252
0.8724959045
0.9556958331
0.9561163305
0.9163337822
1.02255841
0.9915029028
0.9910440711
0.992423802
0.9919631249
1.023028987
1.072098138
1.072541841
1.049476608
1.108494546
1.092094155
1.0916767
1.09291751
1.092507903
1.108880237
0.203146778
0.2016547997
0.3150092982
0.3137381732
0.2580745319
0.4279473308