/*--------------------------------*- C++ -*----------------------------------*\
| =========                 |                                                 |
| \\      /  F ield         | OpenFOAM: The Open Source CFD Toolbox           |
|  \\    /   O peration     | Version:  v2012                                 |
|   \\  /    A nd           | Website:  www.openfoam.com                      |
|    \\/     M anipulation  |                                                 |
\*---------------------------------------------------------------------------*/
FoamFile
{
    version     2.0;
    format      ascii;
    class       volVectorField;
    location    "2.99";
    object      U;
}
// * * * * * * * * * * * * * * * * * * * * * * * * * * * * * * * * * * * * * //

dimensions      [0 1 -1 0 0 0 0];


internalField   nonuniform List<vector> 
3259
(
(99.99837712 0.4169841612 0)
(100.0015237 0.4205081879 6.247049221e-22)
(100.0042452 0.3864777448 -1.232442796e-21)
(100.0054929 0.3274102664 8.468774241e-22)
(100.0055265 0.2597401714 0)
(100.0051076 0.1958481676 1.467437052e-21)
(100.0048175 0.1402585421 6.04227627e-21)
(100.002582 0.09938836255 -1.714043557e-21)
(100.0105909 0.1143991173 -1.493700344e-20)
(100.0073531 0.07097714779 0)
(100.0054777 0.03804457287 -1.882409764e-21)
(100.005306 0.01203463774 -1.326268551e-20)
(99.90009238 1.886865951 -3.240108123e-21)
(99.99440491 1.921287957 -2.270502056e-22)
(100.0821598 1.780504996 -4.302418789e-22)
(100.1340983 1.513828231 4.358326728e-21)
(100.1461617 1.199835542 -8.769618615e-21)
(100.1300698 0.9064570098 0)
(100.1393014 0.6867893436 -2.576711031e-20)
(100.1001598 0.4716151995 4.979482137e-20)
(100.0994007 0.3266566962 1.44638733e-20)
(100.070221 0.2019273578 2.990037592e-20)
(100.0532141 0.1085881038 -2.998891022e-20)
(100.0468148 0.03439702049 1.514579889e-20)
(99.74571518 3.711654604 0)
(100.1178985 3.79005238 -1.357431085e-20)
(100.4205987 3.468017699 -1.153690131e-19)
(100.5782556 2.899222258 3.047394441e-21)
(100.5976419 2.260773824 -9.481584984e-21)
(100.5240494 1.6648801 -2.273132841e-20)
(100.4619859 1.174668545 -1.54655024e-19)
(100.340829 0.7949551817 -3.452755693e-20)
(100.2752913 0.4953850956 -1.487434757e-20)
(100.1972671 0.3042668672 3.382540572e-20)
(100.1501423 0.1636939576 -3.805968097e-21)
(100.1295882 0.05157794981 0)
(99.47637243 5.956255176 6.142086892e-20)
(100.4306987 6.016317974 1.550824262e-19)
(101.119049 5.332504165 0)
(101.3887369 4.300752176 0)
(101.3564532 3.235397874 -2.547606629e-19)
(101.1731165 2.321072492 0)
(100.961742 1.555531139 5.661520845e-20)
(100.7047662 1.027797224 -4.392902807e-20)
(100.5215761 0.5963929434 -3.814998484e-20)
(100.3755771 0.3615749553 1.934274475e-20)
(100.2847988 0.192480758 -3.88499888e-21)
(100.2433219 0.06015112998 0)
(99.08820476 9.019824874 -2.920744999e-19)
(101.2481611 8.912558104 0)
(102.5287354 7.414956423 5.442922102e-19)
(102.8088069 5.597273344 -7.378901806e-19)
(102.5311983 4.020010123 6.566442806e-19)
(102.0659352 2.761783622 -5.599133904e-22)
(101.6128088 1.761002219 -9.446941399e-20)
(101.1647243 1.131070111 7.873926085e-21)
(100.8081554 0.6024040722 0)
(100.577387 0.3599979468 3.971719844e-21)
(100.4331915 0.1873148218 -2.982427202e-21)
(100.3661239 0.05775510058 -9.895023758e-22)
(98.14579744 13.91026615 5.470915129e-20)
(103.2526736 13.0361577 2.850365202e-19)
(105.2394326 9.520899401 0)
(105.0551057 6.522103179 -1.391372425e-18)
(104.156519 4.391985501 2.968138603e-19)
(103.1907399 2.883578275 6.743972761e-20)
(102.3527659 1.715412329 2.435485169e-20)
(101.6674986 1.063719578 -1.635337079e-20)
(101.0997092 0.499129244 0)
(100.771223 0.2894618414 0)
(100.5686083 0.1429918564 -1.006075691e-21)
(100.4738238 0.04299333359 -3.023303907e-21)
(94.16142634 23.22524848 -2.91337726e-19)
(109.0264685 18.95952744 -1.08537025e-18)
(109.977936 10.88223008 -3.939812521e-19)
(108.133337 6.49777237 -2.102081537e-19)
(106.1179611 4.036802701 6.757616926e-19)
(104.4240518 2.517397602 -3.041310662e-19)
(103.077142 1.35536056 0)
(102.1451369 0.7855203394 9.007033196e-21)
(101.3472222 0.285434817 2.654016404e-21)
(100.9211936 0.144059677 -3.137357187e-21)
(100.6635697 0.05877396338 -3.571765328e-21)
(100.5419661 0.0158569765 8.587582974e-21)
(123.6595772 21.8829538 -1.632402331e-18)
(116.5276762 9.040461645 1.057349988e-19)
(111.4784445 4.744085042 5.092985172e-19)
(108.0041389 2.718881643 6.412757062e-19)
(105.5386264 1.566711462 -5.963538456e-19)
(103.6533681 0.6674639174 -4.813389673e-21)
(102.5022975 0.3082213422 2.038012469e-20)
(101.4956772 -0.03298732352 -3.246366837e-21)
(100.991271 -0.06606236541 2.65428576e-21)
(100.6907871 -0.05986642983 -5.124778195e-22)
(100.5468208 -0.02230735024 -8.086343485e-21)
(136.2186165 6.629826612 -2.514553832e-18)
(121.0842458 2.608438462 -1.474411028e-18)
(113.7149068 1.144918309 -1.377098516e-18)
(109.219359 0.4866987714 0)
(106.2233275 0.1290042625 -4.546801559e-20)
(103.9435673 -0.2665082278 -4.941881923e-21)
(102.6508994 -0.3228609707 1.150542201e-20)
(101.5038102 -0.4232345738 1.119821054e-21)
(100.9528749 -0.3211543455 0)
(100.6273845 -0.2022856124 4.085600489e-21)
(100.4691067 -0.06829912029 4.035476527e-21)
(133.5617503 -9.230333368 0)
(120.8313426 -4.978337906 1.566384565e-18)
(113.7923714 -3.145852788 0)
(109.2819774 -2.123202058 -4.650211567e-19)
(106.254407 -1.532364743 9.144382003e-20)
(103.8549548 -1.310326557 4.193695228e-20)
(102.5409393 -1.02555865 0)
(101.3470321 -0.8410877548 -1.098188389e-21)
(100.7895066 -0.5942467292 -4.534721932e-21)
(100.4599908 -0.354434374 5.058190186e-22)
(100.2974651 -0.1175913882 0)
(124.9031154 -17.92595128 -5.406263767e-21)
(117.0980878 -10.54339512 9.009839247e-21)
(111.9536686 -6.715720867 7.90090259e-19)
(108.2847577 -4.465019078 0)
(105.6251672 -3.09848685 -8.654382688e-20)
(103.3816298 -2.297783052 0)
(102.173131 -1.702643243 -2.737749142e-20)
(101.023368 -1.240011804 -1.372725974e-20)
(100.4996406 -0.8558782394 1.032035964e-21)
(100.186702 -0.5010973959 -3.270213825e-21)
(100.0299568 -0.1653225001 4.789329037e-22)
(115.7475168 -21.00026488 0)
(112.0671258 -13.31737129 2.283423801e-20)
(109.0583643 -8.910425472 0)
(106.527391 -6.114483585 1.444654149e-18)
(104.4839712 -4.307718765 6.419225729e-19)
(102.5986453 -3.096179913 2.187561822e-21)
(101.5878235 -2.273164882 -3.328156887e-20)
(100.555917 -1.584264477 8.123318172e-21)
(100.0970958 -1.079993473 0)
(99.81664968 -0.6290186178 3.767365572e-21)
(99.67394506 -0.207218164 0)
(138.4784008 9.719319569 0)
(124.7937958 24.67226882 0)
(136.4451306 -8.456268724 -1.725330228e-18)
(139.0278879 7.105119117 1.776933115e-18)
(127.1162614 -18.50418535 -4.54246085e-21)
(135.4770101 -10.18800344 4.017253287e-18)
(117.2677253 -22.08494651 1.173841802e-18)
(125.8552341 -19.24008165 -1.730074283e-18)
(116.0900907 -22.21195906 0)
(92.31579662 21.95291972 0)
(121.756436 25.32858774 1.411272779e-18)
(107.1294961 20.68342766 1.03321953e-18)
(147.0458494 28.58215939 0)
(127.5828848 43.19017139 0)
(135.6442155 8.933031967 2.391507095e-18)
(122.8887628 5.436032832 -6.861021504e-20)
(118.1571075 10.83574952 -1.210911721e-18)
(149.4865907 -3.875529468 2.112849188e-18)
(152.0702161 9.208342304 3.476831625e-18)
(134.3850967 -7.616293354 -4.425294212e-18)
(123.8399821 -3.674237453 -1.645658994e-18)
(123.7207205 3.16836145 -3.283233556e-18)
(136.3731314 -20.73203833 -1.668676806e-18)
(143.1794645 -14.67385652 -7.942610874e-18)
(126.0677424 -17.200081 1.737667244e-18)
(120.0255043 -10.69848379 1.106783139e-19)
(123.2108475 -5.729518656 9.200241635e-20)
(123.7859652 -26.45336254 -1.433176494e-18)
(129.1571905 -24.70228797 2.14127724e-18)
(107.9096578 -31.94823889 -6.639614422e-19)
(112.3732755 -27.04176987 1.56233872e-18)
(117.2558549 -27.35740883 0)
(152.1089607 10.22940709 1.166947382e-18)
(147.7631157 27.41163058 0)
(134.7844456 17.44877391 2.180103302e-18)
(146.1386918 25.76312114 0)
(151.0310823 10.2254684 2.257785471e-18)
(143.6025338 -14.13778281 2.034279214e-18)
(149.2068024 -4.626195537 -4.211286347e-18)
(138.141583 -1.903905898 2.149241633e-18)
(148.4686451 -4.284783167 -2.051543951e-18)
(143.1735193 -13.70791652 -1.987332155e-18)
(151.0370385 9.225350178 1.132831971e-18)
(148.7381173 -3.549616214 2.085435531e-18)
(138.3231785 -0.7994860627 2.206484966e-18)
(129.9461588 -24.3603458 -2.201082615e-18)
(135.9147329 -21.0640287 3.348792828e-18)
(130.8617335 -15.68704048 0)
(135.4372994 -20.4659817 2.607152211e-18)
(129.7231372 -23.55928264 1.737962962e-18)
(142.7656765 -14.2404588 3.914013264e-18)
(136.3168998 -19.87656528 -2.07363545e-18)
(132.080767 -14.51851889 8.966860457e-20)
(117.9664005 -27.32766874 1.070529445e-18)
(123.0397475 -26.62184179 -1.388475953e-18)
(105.3795367 -31.70736077 -6.802890402e-19)
(104.9040455 -31.54872625 6.826457669e-19)
(111.6841186 -26.98809209 7.266814431e-19)
(107.918927 -31.95169173 6.693778017e-19)
(151.9992058 52.41328201 0)
(126.0836266 65.81430361 -1.722545721e-18)
(121.8227485 -27.86852662 0)
(116.8506872 -20.84825772 -2.293466251e-18)
(114.3510313 -14.35330533 0)
(118.6871835 -11.9233096 -3.980783178e-18)
(103.4732941 -30.34545095 -2.354003467e-18)
(114.5136846 -30.36388863 1.001464338e-18)
(117.002557 -30.23688571 0)
(127.069027 39.54132251 0)
(144.7440594 28.04419915 4.333291107e-20)
(132.7848753 19.76475719 0)
(117.3787048 -30.17765951 -1.83341493e-18)
(119.884204 -29.94594289 0)
(120.8923786 -21.30392364 1.363658614e-18)
(122.9181804 -25.85624365 0)
(117.9165381 -26.56882732 -1.068661065e-18)
(128.9455666 -23.89803278 -3.39684935e-18)
(123.6529205 -25.6798226 1.391542729e-18)
(122.1215829 -20.90353138 -2.933117857e-18)
(84.44983882 32.27288111 5.091398123e-19)
(123.7665789 43.31938184 0)
(105.9876819 35.32937324 0)
(87.11212746 34.84446824 1.12140559e-18)
(153.2476341 49.18941102 4.110923042e-17)
(141.0854444 37.13853965 1.945031902e-18)
(151.9211819 48.90696739 -2.178859902e-17)
(126.14121 61.34771251 -1.609394381e-18)
(149.8517393 51.56291414 1.274082103e-18)
(138.1884683 39.24811489 6.383422118e-19)
(150.8734649 1.801452154 0)
(151.06931 2.663620821 -2.467651837e-18)
(139.5887048 -18.32833302 -2.725156835e-20)
(140.051371 -17.91113866 0)
(122.5434309 -29.38715051 -1.228605065e-18)
(122.5819742 -28.06527883 0)
(126.0532758 -25.83299159 1.532029161e-18)
(125.191264 -28.20819355 -8.076238056e-20)
(123.2896273 -29.06217603 1.184913612e-18)
(125.6852315 -26.71261862 1.753208179e-18)
(125.2184657 -28.09414839 0)
(126.8200538 -25.58528782 0)
(111.5862379 -29.99502892 -7.824526236e-19)
(113.7859698 -30.31242042 0)
(104.6838957 -30.64410296 5.717419095e-18)
(151.2067542 17.75626336 -2.360162696e-18)
(150.9520389 18.9349373 -2.376667077e-18)
(146.3221726 -9.983773545 0)
(146.6797213 -9.346067906 0)
(146.1583085 -9.011317567 -1.0160842e-20)
(142.1103818 -6.726430239 2.437874867e-18)
(143.3961287 -3.083860874 7.51838059e-18)
(139.8753209 -10.98926523 0)
(141.6025854 -7.861628749 -5.635788287e-20)
(145.8131847 -9.647815855 4.380736763e-18)
(150.3352555 2.836205733 2.383810081e-18)
(144.5616118 3.839984442 2.590823825e-18)
(144.4719547 8.466191671 -5.228770675e-18)
(143.733815 -1.778003803 -2.532814505e-18)
(144.4423167 2.378076032 0)
(150.1632161 1.979832925 0)
(132.4986811 -22.95203577 -5.932635367e-18)
(126.0044292 -26.46243375 5.472137625e-18)
(132.9134305 -22.69587868 -1.908302434e-20)
(122.9236744 -29.1404466 -2.326229982e-18)
(120.4301457 -29.53007727 1.017022533e-18)
(120.8356194 -27.0248815 1.247006102e-18)
(120.2146 -29.89623366 0)
(122.2556823 -29.4900566 1.19733756e-18)
(100.7698889 -29.92364874 3.099079428e-17)
(110.85285 -29.84735188 2.422922284e-20)
(120.8961214 87.88076664 1.133458392e-16)
(113.8324346 -31.49361801 0)
(114.1498685 -31.21049059 1.962345664e-18)
(37.37744862 9.514505031 0)
(113.9509727 -31.04578712 0)
(113.2110091 -30.46926265 1.103710563e-18)
(70.12549551 43.73606098 -1.459694967e-19)
(121.1912513 65.01331662 0)
(101.1977007 52.35978548 0)
(77.28826218 50.49098536 1.291397657e-19)
(150.1608358 -1.50707695 -8.677919858e-18)
(154.9396386 8.982561695 1.535658321e-18)
(154.2631191 5.822948698 -3.046151023e-18)
(151.7595729 6.283142444 -6.119413511e-19)
(137.7319059 -19.81435439 -1.703587039e-18)
(138.0130969 -21.33934044 5.033015167e-20)
(136.723071 -22.21018642 0)
(143.3388452 -16.13398627 5.005969324e-18)
(141.7862599 -17.7027705 4.428365901e-18)
(141.8702848 -16.16041434 2.558189133e-20)
(151.9205324 13.35494062 -4.632796168e-18)
(155.0013319 13.34828656 -4.286046418e-17)
(155.158054 10.06457513 -2.940025645e-18)
(149.7959336 18.56442413 -2.302466455e-18)
(142.4158151 16.79434487 2.470354958e-18)
(139.6700576 21.86988459 0)
(144.2703321 10.08695988 2.580870599e-18)
(143.0528402 15.08392505 -5.475506917e-20)
(150.0291497 17.4567569 0)
(144.8200653 -12.4409866 4.397345784e-18)
(145.3183078 -13.76196515 2.388780301e-20)
(143.8524986 -15.58358988 5.170826666e-18)
(148.2065096 -6.781698874 4.17141073e-18)
(136.2461253 -22.50884931 -1.850095446e-18)
(134.8067316 -23.26548407 -1.668019831e-18)
(134.5949254 -21.79209092 1.597947609e-18)
(132.913012 -21.9677471 -2.367581964e-18)
(131.3183645 -19.48845534 0)
(133.52699 -17.92042692 0)
(139.7633005 -17.44893923 3.615074068e-18)
(137.1928002 -14.51459714 -4.334744031e-18)
(139.2376084 -11.94274505 -5.538877807e-20)
(134.2689137 -17.32480637 0)
(136.4752427 -15.28343486 0)
(139.3199194 -17.86376403 -5.383440244e-18)
(120.1142935 -27.12614497 0)
(120.0756494 -29.58236061 -1.756010745e-20)
(117.7198447 -29.61607921 -8.514398681e-19)
(102.2185971 -30.66999253 0)
(143.4320454 61.62697651 0)
(122.4866282 84.28989965 -6.84478155e-18)
(139.4776293 64.20958939 2.167551337e-18)
(123.0798004 -27.41344945 1.622356095e-17)
(123.3446945 -27.28712509 4.90798825e-18)
(113.1619889 -31.56494199 1.590743855e-18)
(113.7423314 -31.49890323 -1.245981878e-18)
(103.2056002 -29.92782372 1.48865974e-17)
(49.7527964 -7.435443303 0)
(44.45597003 9.150552429 0)
(53.02313331 -9.407192432 0)
(115.3935833 -30.16384001 -1.162194526e-18)
(116.0339232 -30.69621467 -1.012069753e-18)
(118.8255444 -30.07012776 0)
(112.2957356 -30.11033853 0)
(111.6860409 -29.60245509 -8.749228684e-18)
(155.2591477 40.99199018 0)
(149.9150924 38.53373948 0)
(145.2524926 43.3280527 0)
(153.7103712 31.95898924 -4.891452179e-18)
(151.1144493 36.88297911 0)
(143.4333263 44.88265451 2.145357403e-18)
(137.1058307 48.92880722 2.025689209e-18)
(141.652424 58.11839833 0)
(152.7971838 1.163927959 0)
(151.5505608 -1.497181423 0)
(150.3263346 -0.7032478855 0)
(151.6110673 5.344271281 1.237962432e-18)
(153.9792667 4.823049122 7.77918671e-19)
(153.0995032 2.056295826 -9.677878662e-20)
(140.0501871 -19.7497065 -6.578844578e-18)
(138.505595 -20.98775562 -3.780190559e-18)
(138.197895 -19.47380792 0)
(137.2251409 -21.49139876 2.223332958e-18)
(139.0723274 -20.23691062 1.097699131e-17)
(136.0661512 -22.59021888 -4.434147006e-20)
(136.7037344 -21.84994742 -1.121360726e-19)
(139.6068232 -19.69435246 -1.282694801e-18)
(141.4218156 -16.61221611 1.866744822e-18)
(141.2440719 -18.11681559 -1.371785181e-17)
(140.5368238 -19.28027732 2.219608483e-18)
(122.7748444 -29.01020676 -5.997463285e-19)
(122.8756631 -28.80849239 0)
(124.5319631 -28.72110968 1.260036079e-18)
(125.1925142 -27.49910865 1.21228569e-18)
(126.3372868 -27.21681895 -1.276478106e-18)
(126.033056 -27.3893892 7.951999563e-19)
(128.2970554 -26.52872793 0)
(129.4810187 -26.07552243 -1.957221009e-20)
(126.7182356 -27.05379386 -1.831278071e-20)
(127.9014431 -26.67483544 1.275127165e-20)
(125.8860961 -27.58423631 -6.30131792e-18)
(106.5381569 -31.52644573 7.382341737e-19)
(111.9831782 -31.47639353 1.436805379e-18)
(112.8915069 -31.54129791 7.75198518e-19)
(155.0102145 18.31316424 0)
(154.937865 14.60661192 1.124364208e-17)
(151.7854084 14.41977702 2.358355011e-18)
(155.8042662 14.68524833 -7.607939237e-18)
(156.1320662 18.40086979 0)
(155.6029874 13.33684009 6.524923156e-17)
(155.272727 25.52372625 0)
(154.3527399 30.3037168 0)
(156.2078419 19.64805991 -5.896147633e-18)
(155.4527374 24.05901248 5.73990742e-18)
(149.918715 22.45880099 4.700689106e-18)
(154.2548375 23.71917 0)
(154.9985874 19.610735 1.28330194e-18)
(147.0806482 -11.12179446 0)
(145.7903837 -13.11551932 -8.120478459e-18)
(145.209942 -11.84556907 0)
(147.8192556 -7.442201944 2.187989372e-18)
(148.3067458 -8.609050979 8.26072402e-17)
(147.4447185 -10.43208277 2.867420957e-18)
(131.4068788 -25.2162716 1.480355815e-18)
(132.5934541 -24.68069788 -1.636298126e-18)
(129.8853959 -25.91380181 7.314959828e-18)
(131.0541303 -25.36964778 -1.496347635e-18)
(126.3180689 -25.79990253 -2.687445097e-17)
(134.2867816 -23.62640875 8.619175599e-18)
(135.6734372 -22.89183086 9.819754035e-19)
(132.9715947 -24.45359226 0)
(133.8832674 -23.86249259 -3.286783092e-18)
(111.0007527 -29.35170257 4.661597592e-18)
(121.2157543 -29.74610101 2.215020217e-18)
(114.2610303 -29.27565977 0)
(114.5565702 -29.83693007 9.03494941e-19)
(114.4372178 -29.16688866 3.50574239e-18)
(121.5129627 -29.65945712 1.119905418e-18)
(100.9366027 -30.35859421 -7.480965584e-19)
(121.1185686 22.53487338 -1.414474505e-18)
(116.0926966 11.85954099 1.206855805e-18)
(110.2275718 12.48595154 -3.351786515e-19)
(106.7019228 -30.15907117 0)
(106.9535019 -30.08436329 0)
(112.8844485 -14.7829267 0)
(106.2673009 -29.82951528 3.372156482e-17)
(117.2193033 -26.61362663 -1.004540446e-18)
(112.7843397 -26.06572608 6.280658487e-19)
(112.6595062 -22.22489353 -8.420681033e-19)
(56.08540123 55.64885749 1.624120517e-18)
(53.51987018 31.96097966 2.568634969e-18)
(40.24929408 18.9280576 1.172889264e-17)
(107.0469152 92.20712095 0)
(91.05148296 71.27858181 0)
(63.26157004 64.47563026 2.048636805e-19)
(113.7881537 24.424872 3.712052929e-18)
(109.2879713 32.56296357 0)
(123.8097998 39.73516669 0)
(144.4980467 32.45452224 0)
(149.0500073 35.66242864 0)
(151.8822472 31.09940123 2.32524546e-18)
(110.6130983 -31.25193458 1.937530794e-20)
(111.6423781 -31.48292601 -6.913419558e-19)
(107.0472952 -31.63954924 0)
(116.9846438 -29.65180723 2.758359708e-19)
(114.7852642 -29.58312849 -9.73469448e-19)
(115.1417238 -27.34314617 -1.84041593e-18)
(152.6210566 29.60727302 0)
(153.9492337 25.12637651 -3.873280833e-18)
(149.4667503 23.63247536 -2.416971188e-18)
(101.2002982 -30.85829024 -1.461201592e-18)
(104.3142961 -31.42666855 3.711008046e-19)
(98.78776547 -30.22651009 -3.936057748e-18)
(100.009147 -30.47849313 4.783954863e-18)
(110.2471052 -31.2273178 6.411100054e-19)
(150.1271542 55.30792509 0)
(122.2540312 -27.71592819 -3.075886821e-18)
(108.839292 -31.43442953 -8.126805496e-19)
(108.5433638 -31.21156593 0)
(103.8868752 -30.25358879 0)
(115.8062588 -31.17799768 -1.904261474e-18)
(114.9839885 -31.27430131 0)
(115.9105816 -30.18681139 8.454117644e-19)
(138.4397035 23.50513474 1.045945125e-19)
(133.8006518 27.85399483 0)
(138.8402967 34.44615468 0)
(118.4714139 -30.15271703 1.923451577e-18)
(116.2210323 -30.86082414 5.245920532e-19)
(115.9681371 -31.12480446 9.471509312e-19)
(114.0045567 40.37989629 0)
(106.0004972 49.38076396 1.716787991e-18)
(122.1771439 60.89786426 2.771256199e-18)
(153.4945186 46.30550244 2.188922544e-17)
(151.3152381 45.38658309 0)
(149.5820699 47.62561345 -5.002366407e-18)
(156.2819959 32.51945077 1.081344572e-17)
(155.985695 34.72615293 -7.604946359e-18)
(122.7479285 -29.23507314 -6.054949841e-21)
(120.4427542 -29.1373321 6.823846042e-19)
(120.4567977 -29.33138822 0)
(119.5816733 -27.78608409 5.807837054e-18)
(120.2371659 -28.091309 2.017260033e-18)
(123.1179578 -28.35747713 2.183666303e-18)
(123.6515999 -27.86657834 -1.148796044e-18)
(124.7960625 -27.64494528 0)
(124.2169476 -28.81646815 -1.228304477e-18)
(125.175663 -26.96753304 5.80669182e-18)
(128.0586613 -26.97733518 0)
(128.2467497 -26.72939225 0)
(105.8180591 -31.04352736 -2.992065814e-18)
(109.6542126 -31.71039835 8.049984915e-19)
(109.2841064 -31.54206839 -2.869456916e-19)
(129.086709 -25.21291657 1.357209595e-17)
(129.5928657 -25.0241321 4.190246128e-18)
(128.5319552 -26.51985404 -7.974938401e-18)
(128.8614415 -26.31693537 1.677245559e-18)
(126.4486559 -26.26984945 0)
(129.895192 -24.80130762 2.464243894e-18)
(129.5298453 -24.50985365 -3.220620905e-17)
(134.1605064 -22.07816569 0)
(134.3670857 -23.48851651 0)
(133.132099 -24.02887339 1.578093428e-18)
(101.4511365 -30.19144457 4.110520262e-18)
(105.9169713 -30.35183004 -1.056079662e-17)
(106.3638716 -30.24451869 4.219532813e-18)
(110.8931768 -30.725301 -5.317149354e-19)
(111.0520412 -30.94414633 2.572444927e-18)
(114.1149429 -31.36481031 -3.850569241e-18)
(38.31699761 2.737921862 0)
(28.32345314 13.29103163 5.781608875e-18)
(40.94237886 -3.546114466 0)
(113.6705162 -30.93763101 1.00085464e-18)
(108.9434995 -30.10665533 -4.840752967e-18)
(110.0011615 -30.38024676 6.709811622e-18)
(109.3923242 -29.8484654 -8.312477196e-18)
(109.3900522 -29.96967568 1.801286278e-18)
(113.4810156 -30.70732172 -2.152527435e-18)
(110.0103143 60.4223667 0)
(97.70030376 68.52618869 -1.023218604e-18)
(113.9253577 83.58238795 5.704841557e-18)
(151.1236703 -2.960730205 -1.866839629e-18)
(151.3365107 -2.165831041 -9.792611735e-18)
(150.4834301 -4.493189319 0)
(150.8181983 -3.727407967 -8.225829094e-20)
(154.7195971 7.92360994 3.036246948e-18)
(153.8802548 8.015547137 0)
(154.0529405 9.056275781 1.295821344e-18)
(153.4972483 5.984394702 -2.663190661e-18)
(153.6976758 6.992136896 3.261002655e-19)
(154.5005435 6.875185944 -3.061931111e-18)
(142.8250632 -16.70352488 7.519155541e-18)
(143.4450247 -16.13187388 4.24462949e-18)
(143.9054153 -15.58892694 -2.191098594e-18)
(142.4952823 -17.13931196 -5.873744479e-18)
(142.9732635 -16.65972157 8.054625956e-18)
(142.2820282 -17.25080215 -4.762241787e-18)
(155.1997862 12.30493546 2.075617209e-17)
(154.2142906 12.41193949 -1.195312623e-17)
(154.1050265 13.51694641 2.430359378e-18)
(154.1939141 10.13221788 2.491527162e-18)
(154.252607 11.26140194 -4.847595758e-18)
(155.2767774 11.20210853 1.348845967e-18)
(144.8432945 -14.35455245 -2.662812306e-18)
(145.2275751 -13.84732658 2.33392794e-18)
(145.6489697 -13.24255663 2.342003685e-18)
(144.3598626 -15.03264926 2.196093018e-18)
(144.7999995 -14.44510343 -4.585434779e-18)
(144.3605638 -14.97558529 -8.423712898e-20)
(149.8491924 -6.134941954 0)
(150.1783017 -5.291898952 -2.728389279e-18)
(149.0248496 -7.58596635 1.80456423e-17)
(149.4781829 -6.897286191 0)
(96.62356162 -29.87692027 4.888280888e-19)
(98.04516679 -29.89487701 2.414002662e-17)
(98.97388509 -30.16227439 1.942507871e-18)
(103.5599139 -31.09016581 -7.424729301e-19)
(95.93629461 -29.64661558 0)
(146.0042637 63.44117029 -2.510034379e-17)
(149.307762 59.17908568 0)
(147.3971222 58.53706295 0)
(133.4059797 77.82125923 -1.196257655e-16)
(131.9222189 75.77263504 -3.111298623e-18)
(124.0181533 78.37825286 -1.186256624e-18)
(143.5966642 67.2440044 -8.658054792e-18)
(138.3603986 71.55307704 2.978530459e-17)
(122.5923339 -27.5542122 -1.719651921e-18)
(122.8963147 -27.04947753 1.897068313e-17)
(103.9159966 -30.16928134 0)
(108.1763813 -30.98127361 9.224494347e-19)
(107.0938247 -30.62262083 1.024493036e-19)
(46.88992144 -3.93677784 0)
(111.2464274 -29.84896201 0)
(108.6846553 -29.58820993 -3.107898559e-17)
(111.6786302 -29.7186201 -3.208667931e-18)
(154.0534651 40.6875577 -4.140800681e-18)
(152.8004413 43.16568259 1.649276324e-19)
(154.5833714 43.88528751 0)
(152.9479779 33.53371263 -2.506745587e-18)
(154.6273387 34.30033809 2.628468549e-18)
(155.2765008 32.31539627 1.469533117e-17)
(155.6011205 36.52173142 -1.1284358e-17)
(155.0089772 38.51680982 3.793808034e-18)
(152.4630865 0.320562716 3.193827511e-18)
(152.0568071 0.5516379648 5.561299323e-18)
(152.2951152 1.40478539 -2.793165789e-18)
(151.515091 -1.316569478 0)
(151.9155327 -0.2672809905 1.098144404e-17)
(152.1683128 -0.4521527382 -1.824645437e-17)
(153.6761657 3.890236455 3.990667522e-19)
(153.0226334 4.07456439 -6.799827134e-19)
(153.269118 5.008350947 1.939421372e-18)
(152.5332304 2.275611027 -1.480047794e-20)
(152.7768787 3.166602619 2.730045447e-18)
(153.3890849 2.965070921 2.678719736e-18)
(139.5451925 -20.20453086 -2.100260094e-18)
(139.642855 -19.76914561 -1.993352483e-18)
(140.1438522 -19.33940395 -2.494432837e-20)
(137.8329337 -21.11869846 -1.157841943e-17)
(138.45926 -20.72855889 0)
(136.1916036 -22.29476031 2.528642996e-17)
(134.364212 -22.53644056 -9.488781726e-17)
(134.5192576 -22.89453058 4.225352591e-20)
(136.0924838 -22.15929282 -3.603945795e-18)
(139.9654256 -19.23325197 0)
(139.9039479 -18.79914538 -3.532858819e-17)
(141.2388957 -18.37653523 1.366240941e-17)
(141.5964697 -18.00745239 0)
(142.0420181 -17.58884781 -1.917724932e-18)
(140.6444572 -18.89955552 -2.885139099e-20)
(141.1367633 -18.4518315 -1.547430918e-18)
(140.9691749 -18.82116773 2.212670513e-18)
(119.077112 -28.69625039 -1.06285773e-17)
(119.848574 -28.87543731 7.507822855e-18)
(122.7842848 -29.09379922 4.024459971e-18)
(116.6141331 -28.53795597 -2.183152876e-17)
(117.0139348 -28.90338915 -1.562742028e-18)
(117.2430863 -28.7840501 0)
(123.0909895 -28.61065353 0)
(120.0164755 -28.31296601 0)
(119.6289018 -28.52879096 0)
(127.7081286 -27.30288034 -7.366030751e-19)
(127.9069516 -27.12308272 0)
(125.7264428 -27.13483337 0)
(154.9783652 17.06039059 0)
(153.9070051 16.95828114 -6.417256364e-18)
(153.8557894 18.17495923 2.503957894e-18)
(153.999964 14.59129533 -1.355660087e-19)
(153.9460286 15.76592788 1.286823659e-18)
(154.9587392 15.81059534 1.401459335e-18)
(155.9470397 15.84021896 6.799156435e-18)
(156.0268071 17.15447887 0)
(155.1091052 27.03403444 0)
(156.4156089 27.23914581 9.899668488e-18)
(156.4330694 25.7159634 3.450080678e-18)
(155.9161995 30.56064876 -1.133927206e-17)
(156.3132361 28.86356017 -1.05766814e-17)
(154.832283 28.63792481 -1.55490176e-19)
(156.0998154 20.92734883 -5.163740045e-18)
(156.5258601 24.33874858 -3.879783318e-18)
(156.6742703 22.42501773 0)
(155.7760128 22.34148056 -2.146089733e-18)
(146.6746002 -11.81301814 0)
(146.8438201 -11.32750498 -1.91643166e-20)
(147.2087844 -10.66158007 2.543850302e-18)
(146.0567421 -12.6117678 4.790585023e-18)
(146.4546302 -11.97304611 -2.472888702e-18)
(146.2395647 -12.45508946 0)
(148.1526817 -9.148995756 1.771327729e-18)
(148.3504987 -8.703146362 -5.155492676e-18)
(148.7917409 -8.042078861 -4.76558341e-17)
(147.5592664 -10.00346246 2.613756344e-18)
(147.9309901 -9.35573828 -1.302839888e-18)
(147.8113988 -9.777869591 -2.965586943e-18)
(128.3065677 -25.59132835 0)
(128.723596 -25.39184211 8.84621041e-18)
(126.7246175 -26.09178424 0)
(129.0618707 -26.07633462 -8.601364456e-19)
(128.8340813 -25.77793392 1.113554134e-17)
(134.7205487 -23.38181535 -1.094531252e-17)
(132.9356895 -23.67642787 8.417727771e-18)
(132.40373 -23.92547958 8.110116019e-18)
(134.0909114 -23.198034 -2.319148816e-18)
(133.4897709 -23.44894875 -6.548159611e-18)
(135.1852307 -23.1483539 4.770597473e-20)
(133.2673429 -24.2458816 1.065876887e-20)
(131.7668601 -24.46737909 1.381425674e-17)
(131.8953507 -24.71149553 0)
(131.9648503 -24.15966888 7.368873399e-18)
(131.4253723 -24.35659942 -1.857733673e-17)
(133.5501234 -24.09418494 -3.904147159e-18)
(113.9961645 -29.41743042 -5.1855778e-18)
(117.8568923 -29.99726309 -1.15103995e-18)
(117.9511112 -29.84664877 -2.264509668e-20)
(118.1068303 -30.30290513 0)
(117.9146083 -30.19863198 0)
(113.5532868 -29.58213566 4.405446809e-18)
(116.2018467 -29.16512025 4.737187652e-18)
(116.6744544 -29.03527949 4.152620946e-18)
(117.8564944 -29.64483113 -2.56636909e-18)
(117.1184951 -29.36465669 0)
(113.7319149 -28.92216573 4.068058636e-17)
(101.3926425 -30.28501201 4.202458338e-18)
(99.75028548 3.16367441 -2.719862476e-19)
(99.94093394 1.841804281 2.406387516e-21)
(99.80526555 3.230697224 2.707790345e-19)
(100.0189862 3.314925094 -1.521658133e-21)
(100.0378409 1.930186804 -1.9423847e-24)
(100.0801094 3.298866438 2.011717985e-20)
(100.273465 3.125213275 0)
(100.1249756 1.837352281 0)
(100.3142545 3.032648185 0)
(100.4275726 2.683275436 -6.04932884e-21)
(100.1791924 1.598226767 0)
(100.4407913 2.551837328 1.795379979e-21)
(100.4686105 2.138421206 4.724868959e-21)
(100.1904977 1.288993794 -3.813446359e-21)
(100.457408 1.999631638 -2.203890056e-21)
(100.4236873 1.603550541 0)
(100.1710434 0.9840323089 -1.005157196e-20)
(99.36729268 5.207294179 2.24673314e-19)
(99.66890557 3.635922271 3.277811947e-19)
(99.55050897 5.336645855 6.199784024e-19)
(100.135023 5.462285274 -7.810878588e-22)
(100.031278 3.811333679 1.507729825e-20)
(100.3196562 5.412052462 1.137516881e-19)
(100.7818031 5.031557921 -1.261695365e-20)
(100.3628427 3.578715454 1.155693585e-19)
(100.89378 4.846105067 0)
(101.1068662 4.18807179 0)
(100.5571673 3.05354513 -4.832827343e-20)
(101.1387044 3.951165967 2.803313247e-19)
(101.152282 3.236726141 -9.822202538e-21)
(100.6076875 2.420393192 -1.766674577e-20)
(101.1337014 3.006594983 8.541150832e-20)
(101.0312762 2.363676252 -2.746034329e-19)
(100.5489041 1.804607398 -1.095078865e-20)
(98.79453169 7.89351372 0)
(99.24686668 5.805883228 0)
(99.20152701 8.142956764 1.305395195e-19)
(100.5633701 8.254813626 7.891755043e-20)
(100.2028649 6.083079704 -4.136416287e-20)
(100.9721243 8.100659908 -1.223782699e-19)
(101.8912162 7.242157176 -5.422521666e-19)
(100.9873719 5.552085085 2.734329809e-19)
(102.08379 6.875782824 4.884041758e-19)
(102.3657941 5.699007337 0)
(101.3569164 4.57053015 3.707058639e-19)
(102.3807804 5.299178656 -4.56505786e-20)
(102.2699016 4.189160472 0)
(101.384062 3.495330926 1.709440878e-19)
(102.1955743 3.852068219 -1.006445686e-19)
(101.918226 2.941668902 0)
(101.2283217 2.531181746 0)
(97.49436861 11.89362151 -1.191596007e-19)
(98.57765612 8.725017709 1.603999552e-19)
(98.49952089 12.40544146 4.920196461e-20)
(101.6953197 12.33499549 3.377377602e-20)
(100.7549422 9.116363614 4.282011699e-20)
(102.5632674 11.84107088 -1.171823715e-19)
(104.1542285 9.767881892 1.766383676e-19)
(102.3175055 7.850607005 -4.86639997e-19)
(104.3932739 9.015705548 0)
(104.5170004 6.956900039 -2.288645207e-19)
(102.8065362 6.045211339 1.484194152e-18)
(104.4141603 6.353174185 -2.515475051e-19)
(103.9116936 4.795813422 -5.15435715e-19)
(102.6317325 4.385403292 -4.374180848e-19)
(103.7103232 4.353404423 0)
(103.0912812 3.2163705 -1.254960299e-19)
(102.1853145 3.04476824 -1.388335785e-20)
(93.46766876 20.29095908 0)
(96.87877586 13.25584446 0)