/*--------------------------------*- C++ -*----------------------------------*\
| =========                 |                                                 |
| \\      /  F ield         | OpenFOAM: The Open Source CFD Toolbox           |
|  \\    /   O peration     | Version:  v2012                                 |
|   \\  /    A nd           | Website:  www.openfoam.com                      |
|    \\/     M anipulation  |                                                 |
\*---------------------------------------------------------------------------*/
FoamFile
{
    version     2.0;
    format      ascii;
    class       surfaceVectorField;
    location    "2.99";
    object      Uf;
}
// * * * * * * * * * * * * * * * * * * * * * * * * * * * * * * * * * * * * * //

dimensions      [0 1 -1 0 0 0 0];


internalField   nonuniform List<vector> 
6464
(
(99.98890349 0.836171935 2.208983466e-22)
(99.99914148 0.4231652465 0)
(100.0007148 0.4250283786 3.123481323e-22)
(100.0079185 0.8433039683 -7.955465769e-24)
(100.0022407 0.4165855229 8.540331495e-22)
(100.0036011 0.3990877319 -9.844350297e-23)
(100.0233238 0.7752683791 -5.527582649e-22)
(100.0046368 0.3741305312 -9.505667916e-22)
(100.0052603 0.3440472748 8.907280309e-23)
(100.0310069 0.6557835505 1.650918162e-21)
(100.0055709 0.310899542 4.234510779e-22)
(100.0055874 0.2765751928 0)
(100.0316218 0.5191458981 0)
(100.0053841 0.2427647084 0)
(100.0051745 0.2105539398 7.336919592e-22)
(100.0275639 0.3912938256 1.526766058e-21)
(100.0052867 0.181087807 -3.719717869e-21)
(100.0051412 0.1525911365 -1.378383772e-21)
(100.0232253 0.2790486394 3.02136932e-21)
(100.0044398 0.1277691986 3.021143861e-21)
(100.003322 0.1068184011 -8.569500192e-22)
(100.0140285 0.1933307829 -5.251582136e-23)
(100.0008712 0.09183247904 1.665998451e-21)
(100.0089805 0.09016324069 -7.474371866e-21)
(100.0508004 0.2203470616 4.973591496e-22)
(100.0179894 0.1971616442 -2.667871238e-21)
(100.0029648 0.09159907581 -1.562450363e-21)
(100.0064173 0.05269356077 -9.424538153e-22)
(100.0350422 0.1363804084 1.493346064e-20)
(100.0053918 0.02485843337 -7.574957559e-21)
(100.0261533 0.07328927212 -1.592349571e-20)
(100.0234264 0.02321463424 1.422009177e-21)
(99.9205141 1.860062471 -4.174049861e-22)
(99.95324205 1.676251773 -2.675665522e-21)
(99.91169886 2.104232266 -1.17066222e-21)
(99.944992 1.904346008 -1.492578201e-21)
(100.0161165 1.917587767 8.737848877e-23)
(100.0329982 1.702789499 -3.649481592e-22)
(100.0284888 2.144121968 -1.2281555e-22)
(100.0388535 1.922164617 -5.630055784e-22)
(100.1035635 1.805216364 -2.151378907e-22)
(100.0865356 1.574929882 -2.181510278e-22)
(100.1291091 1.985877689 -8.714413131e-23)
(100.1198278 1.759442066 1.794476581e-21)
(100.1566442 1.555809413 2.179260992e-21)
(100.1154991 1.337166451 3.792783853e-21)
(100.1861258 1.687241655 3.795542618e-21)
(100.1618447 1.480095353 4.950212698e-22)
(100.1683298 1.246207057 -6.247245264e-21)
(100.1176541 1.059356124 -5.845278545e-21)
(100.1945116 1.334805175 -2.104684645e-21)
(100.1650184 1.163875964 -2.073244664e-21)
(100.1505575 0.9481281194 -5.02563551e-21)
(100.0991202 0.7998450119 4.61992979e-22)
(100.1673942 1.003189554 -1.353463103e-21)
(100.1425793 0.8750354387 5.51897939e-21)
(100.0935985 0.5522847131 -1.287979244e-20)
(100.1492318 0.7516380554 -1.28787917e-20)
(100.2096956 0.8136463038 1.304401826e-20)
(100.1293725 0.6273891313 -2.641407169e-20)
(100.1098111 0.5201746246 1.144584076e-20)
(100.1525005 0.5556456745 -1.629331649e-20)
(100.0898653 0.4293281184 2.315700754e-20)
(100.0675118 0.3793461279 2.573804558e-20)
(100.0848257 0.2618860078 2.217998351e-20)
(100.1919336 0.41104179 -2.094630919e-22)
(100.1462772 0.4599729257 4.638863649e-20)
(100.0862126 0.3642710261 2.527330625e-21)
(100.061708 0.1536235208 -7.059679651e-22)
(100.1366299 0.2531042106 3.186326523e-20)
(100.0500128 0.07082704626 -7.408441614e-21)
(100.1042123 0.1361417206 -1.689546853e-20)
(100.0902338 0.04298610814 7.572194662e-21)
(99.79127916 3.471099928 1.353937604e-19)
(99.70725411 3.675336578 1.634587004e-19)
(99.74611233 3.965331894 0)
(99.79376104 3.736063982 1.08436739e-20)
(100.0985695 3.544334797 3.28000664e-21)
(100.074567 3.801644254 -2.308135058e-21)
(100.1422373 4.046646245 -7.598330021e-21)
(100.1643043 3.765607238 -6.780163726e-21)
(100.3668463 3.250102476 -5.7623872e-20)
(100.3916325 3.524424102 1.78521084e-21)
(100.4849141 3.691122054 -1.737525808e-19)
(100.4498306 3.403735897 -1.102170152e-19)
(100.5087204 2.72552032 2.439811118e-21)
(100.5676876 2.977359723 -2.269447465e-20)
(100.6568489 3.073855071 -1.384335534e-20)
(100.58855 2.819077875 5.483989957e-21)
(100.5273764 2.130196244 -5.84255425e-21)
(100.6026649 2.341062741 -1.356227712e-20)
(100.6767394 2.388912807 -4.741084654e-21)
(100.5927466 2.181364957 5.318828529e-21)
(100.5364795 1.734560904 -1.683985649e-20)
(100.463152 1.572024676 -1.13641154e-20)
(100.5919073 1.751602485 -1.137944037e-20)
(100.5151213 1.596714439 6.106556444e-21)
(100.3702348 1.05754366 -5.095486303e-20)
(100.4940037 1.290625399 -2.634845464e-20)
(100.5768746 1.278794772 -7.721980904e-20)
(100.4306754 1.070655898 -3.619256016e-20)
(100.2732571 0.7175609019 -5.872850438e-20)
(100.3701324 0.8813439427 2.322590881e-20)
(100.4247001 0.8592235718 -2.787238578e-20)
(100.313345 0.7201051971 -2.43823602e-20)
(100.2362679 0.3986314589 9.940275909e-21)
(100.405349 0.545856666 -2.521840617e-20)
(100.3781829 0.6590769715 -1.672269063e-22)
(100.2823643 0.593033754 -1.445629335e-20)
(100.1736797 0.2325320295 1.492183184e-20)
(100.2929019 0.3329168264 2.658264181e-20)
(100.1398643 0.1067900064 -1.902771081e-21)
(100.2228436 0.1780833256 -3.845487501e-21)
(100.1909462 0.05586053348 0)
(99.5575387 5.645562497 3.407159526e-19)
(99.36210113 5.881661018 3.08482448e-20)
(99.48824132 6.28930927 -7.010532299e-20)
(99.5975855 6.001294444 -3.062950582e-20)
(100.3742594 5.714206763 1.340625196e-19)
(100.3172446 6.049272898 5.816283776e-20)
(100.5003446 6.338832668 4.525134783e-20)
(100.5362765 5.958134505 -1.068001433e-21)
(101.0059425 5.089271503 0)
(101.0533054 5.441920961 1.365747753e-19)
(101.2528664 5.582846393 0)
(101.1717646 5.211421565 -2.037424323e-19)
(101.2635113 4.125855382 1.402472269e-19)
(101.3727965 4.435705744 1.859956868e-19)
(101.5321776 4.473519761 3.798760098e-19)
(101.3956601 4.165207318 1.579073143e-19)
(101.2439445 3.120225063 -8.35267595e-20)
(101.3703929 3.36620594 -4.023597264e-20)
(101.4814829 3.343921414 -1.075707353e-19)
(101.3381154 3.111195709 7.554717949e-20)
(101.2006256 2.424854166 0)
(101.0797306 2.244742373 4.532875634e-20)
(101.2739133 2.388051959 0)
(101.1431094 2.218370614 0)
(100.8268877 1.469197974 2.834553999e-20)
(101.0335387 1.720757437 1.827410875e-20)
(101.1173721 1.61990176 -1.64196678e-20)
(100.894424 1.411013733 3.557431737e-20)
(100.6072648 0.9755651154 -3.257407056e-20)
(100.7659347 1.147916482 -1.454429175e-20)
(100.8160946 1.062496344 -1.469550109e-20)
(100.6502385 0.9253365745 -7.072164178e-21)
(100.4485147 0.4768401096 -8.977155003e-21)
(100.6718667 0.5993930265 -1.906458895e-20)
(100.6959253 0.7760979481 -2.513895519e-21)
(100.5709738 0.7443121769 5.061727535e-21)
(100.3301769 0.2756652641 7.659997026e-21)
(100.4825732 0.3607794747 1.16567817e-20)
(100.2640591 0.1255390114 -1.942372732e-21)
(100.3644323 0.1898932693 -3.433745876e-21)
(100.3093398 0.05894940265 -4.947386727e-22)
(99.19310165 8.579522472 -1.524386858e-19)
(98.83411497 8.871303732 -6.403663001e-20)
(99.03348196 9.510630909 -1.460643924e-19)
(99.36951585 9.114708811 -1.454214606e-19)
(101.1078323 8.50679927 -6.117048099e-20)
(101.0025237 9.01575651 2.131498123e-20)
(101.4156522 9.355992761 -7.44873572e-20)
(101.4636861 8.765664598 0)
(102.3045641 7.145591868 5.163237402e-19)
(102.4235468 7.631344179 3.270162252e-20)
(102.7872047 7.682528291 -7.080777172e-20)
(102.6021887 7.188144177 2.525541984e-19)
(102.5947749 5.447308181 -3.898780134e-19)
(102.8076 5.822027062 3.758120593e-19)
(103.054195 5.740861292 7.534323466e-20)
(102.7930135 5.385221948 -3.656149229e-19)
(102.3634743 3.93617145 2.786160563e-19)
(102.5817772 4.202581706 1.083983053e-19)
(102.7138363 4.091280094 3.281899782e-19)
(102.476353 3.847682074 2.209717628e-19)
(102.1256648 2.903528076 -7.241541059e-21)
(101.9424843 2.71846013 -3.745295282e-21)
(102.1975051 2.79383644 1.798700116e-20)
(102.0057448 2.631576383 2.200729749e-20)
(101.4427135 1.722630355 -9.217945807e-20)
(101.7405153 1.965849289 -5.841633363e-20)
(101.7966154 1.767575085 -3.278025131e-20)
(101.4945094 1.588861131 -1.6812853e-20)
(101.0458632 1.114183855 1.134474554e-20)
(101.2704382 1.273021709 3.418517857e-20)
(101.2919584 1.126271041 -3.843541554e-21)
(101.0737327 1.010866736 -3.74759195e-21)
(100.6927601 0.4833489353 1.986037013e-21)
(100.9615104 0.5507733375 0)
(101.0627895 0.7873460028 -1.098732302e-22)
(100.9244842 0.7942686771 -1.023169692e-20)
(100.5052851 0.272532565 4.394502694e-22)
(100.6813786 0.3247220351 1.985857964e-21)
(100.3996558 0.1220446111 -1.991890492e-21)
(100.5063756 0.1651473796 -1.99414596e-21)
(100.4244512 0.05037138424 -2.006465986e-21)
(98.32329024 13.15752427 5.195444935e-20)
(97.51330881 13.60313225 2.736811892e-20)
(97.90974354 14.80889603 2.736575832e-20)
(98.84756579 14.08529907 -1.950357944e-20)
(102.8986943 12.43907369 8.394047293e-20)
(102.7338851 13.3734775 6.448916046e-20)
(103.6751844 13.69787313 1.493623023e-19)
(103.6554163 12.62420824 2.909612667e-19)
(104.8135124 9.26759825 0)
(105.1265675 9.962975108 0)
(105.7326032 9.760120299 -1.29892859e-19)
(105.2868423 9.097521775 6.724851365e-20)
(104.7351817 6.437779991 -8.22398824e-19)
(105.1336594 6.849936441 -5.555186688e-19)
(105.4044307 6.578388542 -6.946663622e-19)
(104.957829 6.217085957 -1.253477724e-19)
(103.9338274 4.372719031 1.484871931e-19)
(104.2801572 4.623355624 4.322337935e-19)
(104.3916299 4.38806813 -1.375787854e-19)
(104.0334032 4.178350799 4.39568949e-19)
(103.3079234 3.049593793 -3.470023368e-20)
(103.0399473 2.887405895 3.364828084e-20)
(103.3463617 2.863743379 -3.28079193e-20)
(103.0810209 2.728967235 -3.201002835e-20)
(102.1677282 1.7447547 2.675686335e-20)
(102.5511571 1.934270304 -2.504684611e-22)
(102.5412928 1.64664203 1.635658447e-20)
(102.17195 1.536132709 1.217362276e-20)
(101.5416323 1.092600193 -1.602472212e-20)
(101.8292921 1.208596533 -8.180937323e-21)
(101.7933174 1.008587895 -8.182522264e-21)
(101.5297309 0.9409860281 1.250624088e-20)
(100.9354433 0.3982068659 0)
(101.2362879 0.3922314545 1.327532954e-21)
(101.4236515 0.65245059 -1.102968789e-20)
(101.2945799 0.7266868642 2.732008085e-20)
(100.6699071 0.215393341 -5.030807927e-22)
(100.8537472 0.2167417911 -1.568982058e-21)
(100.521214 0.09327094258 -2.018179603e-21)
(100.6215333 0.1008767217 -2.289033694e-21)
(100.5124164 0.02942280945 2.572629911e-21)
(93.23350595 22.61890472 -1.446025671e-19)
(94.54979923 22.29527573 1.096748285e-19)
(93.64064132 24.35777376 -3.479149517e-19)
(95.26448041 23.62807804 -1.266024642e-19)
(107.7591799 19.8675787 3.256854035e-19)
(107.8958296 18.19337222 -1.124023523e-19)
(109.4858312 17.77741024 -5.392036438e-19)
(108.5908268 20.66423452 -1.03971467e-18)
(110.5464982 19.41356432 -3.563786912e-19)
(110.1776224 20.1821274 -3.574924122e-19)
(110.1015127 11.66605096 -3.742297255e-19)
(109.2808336 10.7988327 -1.969422623e-19)
(110.7515289 10.86743761 -4.193783273e-19)
(109.7877086 10.18799136 -1.957179334e-19)
(107.7162946 6.56740756 -1.04850243e-19)
(108.3906183 6.92319083 -1.05746123e-19)
(108.566895 6.369526656 -7.711523585e-21)
(107.8725769 6.122579521 -4.730492545e-19)
(105.8684876 4.124135061 -2.31767861e-21)
(106.3592815 4.287371542 8.647803068e-19)
(106.3694144 3.918408078 3.370776152e-19)
(105.8890248 3.815212081 1.678904444e-19)
(104.6195262 2.676321733 -4.671664291e-19)
(104.2693419 2.590505682 -7.685027612e-20)
(104.5772175 2.426683262 9.210198759e-20)
(104.2432017 2.364320702 -1.533634842e-19)
(102.9041227 1.466719866 4.316897453e-21)
(103.3711403 1.550560029 -1.937309846e-20)
(103.2391597 1.201969956 -2.523592104e-21)
(102.8274759 1.19470931 -4.525544585e-21)
(102.0300181 0.8694529403 4.503464317e-21)
(102.3615445 0.9126208157 -1.872672405e-23)
(102.2495172 0.6791417768 -7.299801181e-21)
(101.9566008 0.679752701 9.129079204e-21)
(101.1342046 0.2172521003 -1.801096371e-22)
(101.4292644 0.1262179031 -2.962226177e-22)
(101.7350401 0.3681036073 8.233303328e-22)
(101.6277794 0.4759001503 6.64020552e-21)
(100.7923782 0.1021328803 -3.363384025e-21)
(100.9622192 0.03900409307 -2.417553255e-22)
(100.6027657 0.0379420246 2.504270574e-21)
(100.6820256 -0.0005438395595 -2.267149533e-21)
(100.5481907 -0.003226173826 4.270049559e-22)
(124.2258589 23.27224441 -8.171687772e-19)
(122.4198388 22.20649453 -1.523768944e-18)
(124.8992698 21.33890891 -8.427727605e-19)
(123.1392487 20.68072245 -8.162349087e-19)
(117.3368955 9.940855996 -5.4780954e-19)
(115.7221762 9.502356943 1.186311033e-18)
(117.3043952 8.41333591 -5.417026561e-19)
(115.7923935 8.32265658 -2.235132731e-19)
(111.0860283 5.055943638 2.546249603e-19)
(112.0173196 5.130879927 1.723884468e-20)
(111.8463109 4.368421266 2.414417599e-19)
(110.9832094 4.42610421 2.109870997e-20)
(107.7875972 2.929778859 2.447124445e-19)
(108.3840108 2.917193099 3.2007645e-19)
(108.2027203 2.476354104 -1.366724742e-19)
(107.6573822 2.550201101 8.111805685e-19)
(105.8109668 1.689386197 -2.962294705e-19)
(105.4100168 1.714478814 4.457699542e-20)
(105.6550726 1.407406701 -2.968993849e-19)
(105.2886414 1.454974541 -1.203034023e-20)
(103.5262299 0.8581182988 -4.927903662e-21)
(104.0395143 0.8042512333 -2.404904319e-21)
(103.7498376 0.4458276488 7.894141195e-21)
(103.3391885 0.566609687 1.178699644e-21)
(102.4239784 0.4405422779 -1.971819984e-21)
(102.7636864 0.3878907922 1.378271157e-20)
(102.5569861 0.1598414861 5.074127428e-21)
(102.2768486 0.2466584847 1.006537031e-20)
(101.2434778 -0.04756580967 -3.442328701e-22)
(101.504529 -0.227985963 -1.064695324e-21)
(101.9188938 -0.04778598937 -1.082222016e-21)
(101.8661457 0.1126838629 -1.241236142e-21)
(100.8410249 -0.0616131356 1.079165099e-21)
(100.9753621 -0.1935660929 1.32759161e-21)
(100.6188011 -0.04028348213 -4.2995603e-21)
(100.6618525 -0.1310628047 1.658038448e-21)
(100.510175 -0.04530226981 -2.128297633e-21)
(137.6233663 6.868705349 -3.677696752e-19)
(135.9274394 7.782425651 -6.260839066e-20)
(136.3687542 5.484105617 1.065348904e-18)
(134.955659 6.416577277 -3.425753882e-18)
(122.3993951 2.91671037 -2.375721864e-18)
(120.7327791 3.554166475 8.757701137e-21)
(121.2746177 1.630008422 7.53655305e-19)
(119.9538479 2.381838865 -7.149025149e-19)
(113.5294928 1.657501309 -1.103014997e-19)
(114.4556513 1.282805396 -1.275997399e-18)
(113.8327129 0.6108485512 -1.138825586e-18)
(113.0543252 1.04241626 -9.351243053e-19)
(109.1169043 0.797223407 -2.20390728e-19)
(109.6946031 0.5500181358 -4.726588393e-19)
(109.2877106 0.1636405137 2.347535032e-19)
(108.790473 0.4362223545 8.62233702e-19)
(106.5487753 0.1710634173 -7.248373163e-20)
(106.1630913 0.3290610405 1.676834088e-21)
(106.2635021 -0.07301395695 -7.034558852e-20)
(105.927191 0.09168646136 1.439071474e-22)
(103.8949835 -0.02087586863 7.849795502e-21)
(104.388537 -0.229237011 -2.466099477e-21)
(103.9469797 -0.525997122 -2.470713643e-21)
(103.5863401 -0.2833567208 -1.243437893e-21)
(102.6285771 -0.1555875343 5.656485925e-22)
(102.940233 -0.3116209398 7.012609495e-21)
(102.6421628 -0.4952340902 5.752263891e-21)
(102.404048 -0.3261940391 1.269967967e-21)
(101.2283223 -0.3687882481 5.598694238e-22)
(101.4259234 -0.6322923777 1.011865104e-23)
(101.9216416 -0.5487510099 3.73386951e-22)
(101.9393347 -0.355209016 -5.705494403e-21)
(100.7901175 -0.2588740238 2.042953321e-21)
(100.8715599 -0.4577458242 -2.268114147e-21)
(100.54824 -0.1340812482 4.060536738e-21)
(100.5440561 -0.2783745955 2.295364701e-21)
(100.3836657 -0.09294676924 2.017609395e-21)
(134.5194229 -9.713815098 2.009194931e-18)
(133.9748088 -8.423909347 -2.211225926e-18)
(133.0938483 -9.974993571 2.077826191e-18)
(132.6442426 -8.770007622 1.017639653e-18)
(122.0188832 -5.339817948 8.102356174e-19)
(121.0646318 -4.087304089 7.839679828e-19)
(120.4730791 -5.799325735 2.249548778e-18)
(119.7816157 -4.679079878 8.123055579e-19)
(113.8906788 -2.618974995 -5.542000292e-19)
(114.5208501 -3.315055989 5.477143579e-19)
(113.6397329 -3.646158416 -1.383061829e-19)
(113.1370185 -2.986233936 0)
(109.3589521 -1.796753661 -2.323292854e-19)
(109.7617832 -2.222449329 4.502834924e-21)
(109.2288455 -2.438487416 -1.208094458e-20)
(108.8490351 -2.027624934 -2.328353644e-19)
(106.5841373 -1.585482034 3.383320678e-19)
(106.2791413 -1.323063557 4.570628242e-20)
(106.2084164 -1.735848313 -4.866401476e-20)
(105.950249 -1.485906325 2.218002683e-20)
(103.9017418 -1.048161248 2.09907509e-20)
(104.3092227 -1.386601403 1.009623789e-19)
(103.7578008 -1.565407264 5.960070618e-20)
(103.4907649 -1.231458774 1.495353903e-21)
(102.5834717 -0.8467150664 0)
(102.8334302 -1.090487906 -2.026229563e-20)
(102.4647927 -1.19728233 0)
(102.2939484 -0.9640375765 0)
(101.0682694 -0.7144753525 -2.816455721e-21)
(101.1810047 -1.040501617 -7.411150134e-21)
(101.7214127 -1.075931208 2.259712139e-21)
(101.8137712 -0.8725414626 -3.660959691e-22)
(100.6247462 -0.4707639246 -2.036379978e-21)
(100.6416646 -0.7250669469 -1.61648099e-21)
(100.3787247 -0.2347072973 2.528994392e-22)
(100.3213779 -0.4277712454 -1.38231994e-21)
(100.1622546 -0.1414580084 2.394726597e-22)
(125.3795992 -18.57663648 -8.67880657e-19)
(125.4855348 -17.56290013 8.664008078e-19)
(124.317752 -18.24631579 -8.059514344e-19)
(124.4142606 -17.33061242 7.990653581e-19)
(117.8912865 -11.2299874 -1.985516652e-18)
(117.6577108 -9.977958102 6.92192351e-19)
(116.4889024 -11.01901187 1.650837378e-21)
(116.3691514 -9.95842971 4.494435658e-21)
(112.2506312 -6.327112412 5.282161093e-19)
(112.5169761 -7.097645685 -1.245525988e-19)
(111.6214157 -7.060250854 9.912017533e-19)
(111.4352358 -6.378419694 3.946186323e-19)
(108.4565035 -4.198795827 -2.20793252e-19)
(108.6885954 -4.695985586 2.238464861e-19)
(108.089569 -4.70908156 0)
(107.9126234 -4.260681214 -1.961934035e-19)
(105.9216544 -3.236528763 -1.44362241e-19)
(105.730674 -2.913381411 4.16654516e-21)
(105.5013797 -3.267609682 -4.325995556e-20)
(105.3483008 -2.973924306 -1.453104771e-21)
(103.5204762 -2.059033192 3.866083284e-20)
(103.7952181 -2.47820979 0)
(103.1989465 -2.512390969 -1.920146202e-20)
(103.0475118 -2.134002138 1.922180155e-20)
(102.2786286 -1.535749817 -1.368137788e-20)
(102.4431522 -1.838238337 5.900588864e-21)
(102.0374577 -1.852344734 -5.826905244e-22)
(101.9451929 -1.580308842 -1.419733479e-20)
(100.7614735 -1.044797308 -6.269929184e-21)
(100.7810653 -1.412135178 -1.208407438e-21)
(101.327308 -1.563818879 -1.866799022e-21)
(101.48604 -1.374006811 -5.403353081e-21)
(100.3431671 -0.6750855638 -1.160915171e-21)
(100.2930179 -0.9679243102 5.160902755e-22)
(100.1083264 -0.3320909862 -1.402406025e-21)
(99.99789237 -0.5650533738 4.245790215e-22)
(99.84900881 -0.1862704853 2.394763338e-22)
(115.9187588 -21.60814995 0)
(116.3001866 -20.92428128 -1.147060375e-18)
(115.1919293 -21.02808347 4.824594474e-19)
(115.5711848 -20.42517206 -5.085711504e-19)
(112.4754998 -14.05336821 1.141989634e-20)
(112.7057283 -13.09558016 -4.860519428e-19)
(111.4293968 -13.46178974 8.70356473e-19)
(111.6728834 -12.66520666 -1.10876913e-18)
(109.4430674 -8.705117953 0)
(109.4145226 -9.370074713 4.284396018e-19)
(108.6644101 -9.071172682 2.032732217e-19)
(108.7167883 -8.502432032 0)
(106.7668678 -5.947098385 5.434733181e-19)
(106.8193528 -6.408758493 7.227696855e-19)
(106.2773554 -6.25619589 3.704785869e-19)
(106.250964 -5.850376331 7.226481693e-19)
(104.7198273 -4.496351045 -3.342026852e-19)
(104.6432328 -4.175451802 4.215171585e-20)
(104.3143437 -4.421579618 3.209790572e-19)
(104.2590671 -4.133475172 1.70162452e-19)
(102.8071569 -2.911645127 -1.809817259e-20)
(102.9380518 -3.349850205 1.093354666e-21)
(102.3204248 -2.872310042 1.801715446e-20)
(101.7442154 -2.137706841 -3.499336884e-21)
(101.815059 -2.462312789 4.306372653e-22)
(101.3958371 -2.103966168 -1.868688669e-20)
(100.3263673 -1.326614004 4.059169279e-21)
(100.9873604 -1.808541299 -7.125513028e-24)
(99.95686348 -0.8525587355 1.883811424e-21)
(99.74529424 -0.4173676441 1.883597786e-21)
(138.7450676 8.413927822 8.87570673e-19)
(137.061571 9.329436658 1.19566084e-18)
(138.0395094 11.03154169 0)
(140.1009891 9.565088631 0)
(139.8822759 10.57419056 1.562276714e-18)
(123.3239051 24.99729489 7.048465785e-19)
(125.3719104 26.37093919 0)
(126.2866197 24.04666704 0)
(135.9630883 -9.322814233 1.146103729e-18)
(135.4154001 -8.036636409 -3.07492132e-18)
(136.9181727 -7.519516643 -5.575423828e-19)
(137.2931585 -9.401834144 -5.749699962e-19)
(137.6449465 -8.702830482 -2.051446837e-18)
(139.146702 5.83453825 8.884141305e-19)
(140.5566565 6.785153839 5.92269882e-19)
(140.4457172 7.786013069 2.150836693e-18)
(126.483238 -18.87173318 -8.689037076e-19)
(126.5927005 -17.8430004 8.588372519e-19)
(127.7448771 -18.0828988 4.701979106e-19)
(127.4244693 -19.33936304 -1.067484253e-18)
(127.8372831 -19.03332122 -1.087230731e-18)
(134.9334601 -10.98014468 1.965376424e-18)
(136.2256078 -11.13541744 -7.930351844e-20)
(136.6085096 -10.48387566 5.628333242e-18)
(116.6792079 -22.14846693 5.869148004e-19)
(117.0585883 -21.47770738 -5.597496204e-19)
(117.8652834 -21.98755177 -6.467483452e-19)
(117.4593705 -22.74296831 4.888963493e-21)
(126.2991635 -19.91054029 -8.646089776e-19)
(125.2282667 -19.55906161 -8.640541194e-19)
(116.2500551 -22.85819103 0)
(115.5057466 -22.24544543 0)
(92.88476725 21.1218883 0)
(91.57061778 22.91675846 2.05803913e-19)
(121.4368471 23.92065255 -1.044566156e-20)
(120.3143807 25.39489717 -5.089211051e-19)
(122.0085766 27.05942554 5.07860784e-19)
(106.4165675 20.20172848 6.867601311e-19)
(106.5484643 21.08696825 7.143392672e-20)
(107.600932 21.09341458 -1.939714696e-19)
(147.3336071 27.99958693 0)
(146.2755958 28.41672602 1.451235075e-20)
(146.7065786 29.23068024 -1.097634145e-18)
(147.7660872 29.06969412 0)
(127.325628 41.35851028 0)
(125.7223844 43.25176532 0)
(127.7842726 45.26257579 -2.032958892e-18)
(129.4973134 42.78736602 -1.06053642e-18)
(134.3840773 8.589883408 2.299317787e-18)
(135.2138968 10.08039668 6.507255795e-20)
(123.3063065 4.302717629 -1.672399645e-18)
(121.6284665 4.995688883 7.083329418e-19)
(122.2782395 6.485696341 -7.51346372e-19)
(124.3887205 6.056835638 1.481636581e-18)
(117.1637747 11.34439628 4.849879282e-20)
(119.0663978 11.98565705 -6.063878669e-19)
(119.1244037 10.10415577 -6.060130202e-19)
(149.3467447 -4.250562173 -1.046733906e-18)
(149.107942 -3.704884774 2.097867447e-18)
(149.6125584 -3.491744167 1.055183277e-18)
(149.888377 -4.020130579 -6.983720027e-20)
(152.0857928 9.717806504 2.324679661e-18)
(151.5498005 9.221088965 2.296254122e-18)
(152.5687559 9.180502441 1.747094642e-18)
(152.0265425 8.710787461 -1.212688365e-18)
(133.4142851 -7.204207487 -1.136925865e-18)
(134.7509206 -6.752845172 -1.125879025e-18)
(123.5149354 -4.702443814 -7.608119759e-19)
(122.5739479 -3.416074798 -8.207726345e-19)
(123.9930004 -2.571402862 -1.663379771e-18)
(125.29077 -3.951578615 -8.225850894e-19)
(125.2876284 3.543635091 -1.638705568e-18)
(123.9257303 2.002833518 9.257965576e-19)
(136.1271828 -20.89739298 8.449146077e-19)
(136.3523704 -20.491623 -1.803910037e-18)
(136.6081068 -20.61486865 1.476139332e-20)
(136.4505337 -20.98855856 -1.692370579e-18)
(143.391605 -14.40497057 -2.938431311e-18)
(142.9710578 -14.45737923 -1.973466513e-18)
(143.3932859 -14.92402658 -3.975204475e-18)
(142.9641549 -14.93156647 -1.048321575e-18)
(125.533468 -16.60493548 8.690057632e-19)
(126.6450679 -16.79117873 1.738555325e-18)
(119.349855 -11.31051419 -1.934763092e-18)
(119.1253598 -10.05024441 7.460427926e-19)
(120.6311252 -9.977782923 8.239550855e-19)
(120.9957679 -11.4390776 -6.921864891e-19)
(124.5578432 -6.168915864 4.598612056e-20)
(122.7605007 -6.662516914 -1.473254585e-18)
(123.412759 -26.53758258 -1.410887571e-18)
(123.7193927 -26.06817191 -2.084387869e-20)
(124.1611125 -26.35956406 -7.176006682e-19)
(123.8127639 -26.84897393 -9.151385111e-19)
(129.553127 -24.53115907 -3.247451008e-20)
(129.051211 -24.30135148 -6.306840329e-19)
(128.7648864 -24.86079519 1.070127976e-18)
(129.0938068 -25.19280203 7.164408746e-19)
(129.3577731 -25.04795693 -2.059100428e-19)
(106.3966634 -31.75404616 1.382052757e-20)
(107.9191119 -31.95017669 4.057333158e-21)
(108.6733309 -31.91657699 -3.320175765e-19)
(107.8323919 -31.93990375 -5.053151378e-19)
(112.0322246 -27.01507502 1.144305451e-18)
(112.5097402 -26.72371712 1.251234048e-18)
(112.712081 -27.13259284 7.854852419e-19)
(112.3172604 -27.43070187 4.034663394e-19)
(117.6109217 -27.3425419 5.350516095e-19)
(117.2375223 -26.98689673 -5.020060386e-19)
(117.2375276 -27.72926897 5.383712672e-19)
(116.9011618 -27.36394721 0)
(151.5644305 10.22490396 1.717926144e-18)
(152.1049416 10.74518198 1.738656396e-18)
(152.630876 10.21646182 1.182878309e-18)
(147.2181562 26.84469422 0)
(148.4800709 27.70876549 1.158924166e-18)
(148.1494544 26.75252189 0)
(133.7825685 18.60790633 1.08903478e-18)
(133.4831164 16.54468608 -4.92946024e-20)
(135.5803308 16.19707244 1.088483259e-18)
(136.5738058 17.97741301 2.157853219e-18)
(135.9198123 18.88105164 -2.159935822e-18)
(145.434439 26.90260426 2.163858258e-20)
(147.6460324 25.99117442 0)
(146.6980877 24.61750304 -3.653336811e-19)
(144.9430954 25.08263339 -1.320819928e-18)
(151.0251665 9.725089128 1.694489396e-18)
(150.46052 10.21163508 -1.177734627e-18)
(151.0161522 10.7187555 1.13029702e-18)
(143.3866838 -13.92926183 1.540896567e-20)
(143.8100961 -13.86160212 2.066014981e-18)
(143.8241956 -14.38243586 -2.17173351e-18)
(148.8333634 -4.448555334 -3.118072991e-18)
(149.6000559 -4.777950426 -9.630279775e-19)
(149.0599479 -4.997815992 -2.104913473e-18)
(138.1691711 -1.348272877 2.177883773e-18)
(137.5007286 -1.906033085 1.245066202e-18)
(138.8177825 -2.008620121 1.074535456e-18)
(138.0815778 -2.421650909 1.074085158e-18)
(148.6024944 -3.916772668 1.907404304e-20)
(148.3245312 -4.646915723 6.318759132e-21)
(148.1304217 -4.137135836 4.141945848e-20)
(142.9684269 -13.97352564 9.568732336e-19)
(142.9754819 -13.49743305 -9.915518167e-19)
(143.3763131 -13.44177032 8.428773674e-21)
(151.0287333 8.746490064 1.13835383e-18)
(150.4820657 9.207441818 5.627779851e-19)
(148.3870325 -3.407448707 -2.113397899e-18)
(148.8616585 -3.173148292 3.106986734e-18)
(137.7216026 -0.5710174918 1.675786444e-18)
(138.435338 -0.2654815451 -1.103664151e-18)
(139.0186133 -0.8589165669 1.103105223e-18)
(129.8344808 -23.96162441 -2.296685031e-19)
(130.3457491 -24.17813909 -2.085122525e-19)
(129.8876686 -24.86354275 -7.50629418e-19)
(130.1532035 -24.70947979 2.220820901e-19)
(135.7571468 -20.82573279 3.101011114e-18)
(135.9920085 -21.26593636 -1.255175829e-20)
(135.706439 -21.17506724 2.49814721e-18)
(131.4688911 -15.10296889 4.481262203e-20)
(130.1771426 -15.06926241 -9.411553969e-19)
(130.2399911 -16.20949399 -2.13849855e-18)
(131.2888755 -16.6035818 -1.218151231e-18)
(131.7325231 -16.15162502 0)
(135.8766355 -20.171565 2.690934916e-19)
(135.4578379 -21.0555525 1.978577641e-18)
(135.0089769 -20.73731804 3.089327936e-19)
(135.1974392 -20.03627124 2.847397785e-19)
(129.3351045 -23.72860048 -8.279784071e-19)
(129.5496991 -23.14515997 1.721270119e-18)
(130.1155131 -23.37939349 -5.074021756e-21)
(142.5594385 -14.49047517 1.000663458e-18)
(142.5727096 -14.02239762 2.909978817e-18)
(136.6494231 -20.24707501 4.344117667e-19)
(136.0555195 -19.45362544 -1.464482016e-20)
(136.8421655 -19.73462501 4.199306431e-19)
(136.6682068 -19.39448053 -2.902591068e-18)
(131.333854 -13.92188964 1.063428253e-18)
(132.6718948 -13.86721797 -1.837156591e-18)
(132.5775314 -15.45206507 2.988503399e-20)
(133.0161037 -14.95008623 -1.261564875e-18)
(117.941087 -26.95531593 -1.308465279e-21)
(118.3235592 -27.30311316 -2.737405887e-20)
(117.9544734 -27.70024076 -5.556214025e-19)
(122.9789214 -26.24062709 -6.94594889e-19)
(123.0624055 -27.01656712 -6.943761679e-19)
(122.6686708 -26.69718754 -1.351507956e-18)
(105.1996186 -31.63061867 8.024349369e-21)
(106.6413837 -31.8174774 -9.92431654e-21)
(103.244992 -31.29215622 -1.075326927e-18)
(104.5349681 -31.48457956 5.269703055e-19)
(102.5912377 -31.00025061 2.620862966e-18)
(111.6339505 -27.28510682 3.630392099e-19)
(108.5601469 -31.88409607 3.347432158e-19)
(152.1496372 50.87196256 2.093572073e-17)
(151.0005717 52.73535152 5.808670002e-19)
(150.5792018 53.78735897 0)
(151.4971206 54.91919247 0)
(126.1133846 63.57511191 -1.665396237e-18)
(123.6321896 65.41417375 -8.61277506e-19)
(125.8407054 68.73660578 8.627957424e-19)
(128.5989725 65.95475198 -8.600511349e-19)
(122.0468275 -27.92955883 0)
(123.5580952 -28.02550385 0)
(122.1127953 -27.80029685 -1.546545045e-18)
(115.2648038 -26.43060309 6.737321086e-18)
(116.6512248 -20.28957789 -5.569278754e-19)
(117.4125346 -20.75862886 1.259931334e-18)
(113.6129871 -14.56806355 0)
(113.8512693 -13.61713256 -4.980683132e-19)
(115.0830764 -14.04771838 6.031906402e-19)
(114.8517144 -15.20494746 0)
(119.5327196 -12.71644077 -1.664508524e-18)
(117.9748516 -12.42955388 -1.934271559e-18)
(103.8833229 -30.4481274 1.522873346e-18)
(106.2275524 -30.93494183 -1.568435128e-18)
(103.7246877 -30.30331808 -1.154675936e-18)
(96.17042568 -28.25017833 -8.41881379e-19)
(114.1523729 -30.33825638 5.004693585e-19)
(114.6504737 -29.95823679 1.286093207e-20)
(114.8879659 -30.37485585 3.761332396e-19)
(114.2128304 -30.68110422 -7.156781908e-19)
(114.4489218 -30.74290848 3.293747957e-19)
(117.1764124 -30.20670446 -9.15668411e-19)
(116.9977088 -30.02139032 9.208482045e-20)
(116.9179928 -30.37109298 4.536576688e-19)
(116.8374492 -30.21950162 1.282485871e-21)
(125.471879 39.63607489 0)
(128.7022787 39.20275133 0)
(126.8361352 37.99892081 0)
(145.7194839 29.25085384 -1.444271502e-18)
(143.5676814 27.23297239 1.040305852e-19)
(143.9185367 29.1534953 -2.577831391e-18)
(131.6036451 18.69099432 -1.019414618e-18)
(131.6229657 20.7725499 0)
(134.5305719 20.56637573 1.414235267e-18)
(133.6989127 21.34432167 1.311197262e-18)
(117.4943128 -29.95789727 -1.512040434e-18)
(117.5738608 -30.1926343 -1.388556392e-18)