/*--------------------------------*- C++ -*----------------------------------*\
| =========                 |                                                 |
| \\      /  F ield         | OpenFOAM: The Open Source CFD Toolbox           |
|  \\    /   O peration     | Version:  v2012                                 |
|   \\  /    A nd           | Website:  www.openfoam.com                      |
|    \\/     M anipulation  |                                                 |
\*---------------------------------------------------------------------------*/
FoamFile
{
    version     2.0;
    format      ascii;
    class       surfaceScalarField;
    location    "0.21";
    object      meshPhi;
}
// * * * * * * * * * * * * * * * * * * * * * * * * * * * * * * * * * * * * * //

dimensions      [0 3 -1 0 0 0 0];
oriented        oriented;


internalField   nonuniform List<scalar> 
6464
(
0
0
0
0
0
0
0
0
0
0
0
0
0
0
0
0
0
0
0
0
0
0
0
0
0
0
0
0
0
0
0
0
-4.322987526e-07
0
3.317686804e-09
3.675166686e-07
0
0
0
0
0
0
0
0
0
0
0
0
0
0
0
0
0
0
0
0
0
0
0
0
0
0
0
0
0
0
0
0
0
0
0
0
0
1.4252049e-07
-0.0001143752669
-8.105583539e-07
0.0001131514372
-3.026459405e-06
-9.081486585e-05
5.192682669e-06
7.828560096e-05
-1.54946456e-06
-3.499866477e-05
4.308969145e-06
2.182744182e-05
0
-6.462062133e-07
9.310414155e-08
0
0
0
0
0
0
0
0
0
0
0
0
0
0
0
0
0
0
0
0
0
0
0
0
0
0
7.946801943e-06
-0.0003927105456
-1.246967564e-05
0.0003919489574
-1.147042103e-05
-0.0003538461269
1.254022628e-05
0.0003297779845
-1.930278386e-05
-0.0002310400363
2.559295744e-05
0.0001925916424
-8.139785628e-06
-8.065783864e-05
1.397661107e-05
5.013087652e-05
0
-1.221951212e-06
2.366783887e-07
0
0
0
0
0
0
0
0
0
0
0
0
0
0
0
0
0
0
0
0
0
0
3.075964708e-05
-0.0006616528516
-3.717291124e-05
0.0006617579483
-1.040022313e-05
-0.0006256934227
8.012907635e-06
0.000600509742
-4.354678142e-05
-0.0004831546721
4.825686128e-05
0.000431663275
-3.473048505e-05
-0.000264340783
4.324872148e-05
0.000209134474
-8.656010265e-06
-6.305746101e-05
1.409532119e-05
3.128313607e-05
0
0
0
0
0
0
0
0
0
0
0
0
0
0
0
0
0
0
0
0
0
5.066344184e-05
-0.0007632905716
-5.193681293e-05
0.0007633586598
3.250643542e-06
-0.0007549271847
-6.837455888e-06
0.0007430589519
-4.226854227e-05
-0.0006742917779
4.274451944e-05
0.0006279025735
-7.538703055e-05
-0.0004400527459
8.297793724e-05
0.0003711880253
-3.503022125e-05
-0.0001691207616
4.243729199e-05
0.000112611432
-7.623763766e-06
-7.746521211e-07
1.393132377e-06
1.152881037e-07
0
0
0
0
0
0
0
0
0
0
0
0
0
0
0
0
0
-0.0003660175407
2.732834354e-05
-2.743869182e-05
0.000366127889
-0.000375891939
2.656682179e-05
0.0007517810601
-0.0003792557149
-6.631478314e-06
-1.65687497e-05
-0.0007139009345
-5.256305899e-05
4.967696253e-05
0.0006869171133
-9.717620693e-05
-0.0005390973108
9.871603521e-05
0.0004730660536
-6.266289853e-05
-0.0002538334614
6.975848157e-05
0.0001864338795
-3.714555666e-05
-6.97253178e-06
9.237247256e-06
1.175711725e-05
0
0
0
0
0
0
0
0
0
0
0
0
0
0
0
0
0
-0.0003543925876
6.902899935e-06
-6.347780624e-06
0.0003538374683
-0.0006976750818
-4.337537522e-05
4.178125086e-05
0.0006841061039
-0.0001081796888
-0.0005647447434
0.000108937386
0.0005041147229
-8.38555097e-05
-0.000293858284
8.570629408e-05
0.0002245111088
-6.109688141e-05
-1.473457628e-05
1.720897403e-05
2.672609996e-05
0
0
0
0
0
0
0
0
0
0
0
0
0
0
0
0
0
-0.0003332429994
5.207446214e-06
-5.035403709e-06
0.0003330709569
-0.0006625007172
-3.997469318e-05
3.965773879e-05
0.0006547754636
-0.0001097396706
-0.0005557036234
0.0001097257433
0.0005014788174
-9.358265418e-05
-0.0003055533959
9.500327705e-05
0.0002384149091
-7.091566811e-05
-2.040882043e-05
2.146040963e-05
3.445139188e-05
0
0
0
0
0
0
0
0
0
0
0
0
0
0
0
0
0
-0.0003129197026
4.62550751e-06
-4.532949911e-06
0.000312827145
-0.000622005247
-4.026305528e-05
4.071872914e-05
0.0006134521821
-0.000109145982
-0.0005171277777
0.0001087786304
0.0004657060612
-9.386118983e-05
-0.0002822240651
9.312616956e-05
0.0002199782997
-6.523481583e-05
-2.075194e-05
2.04186822e-05
3.157018479e-05
0
0
0
0
0
0
0
0
0
0
0
0
0
0
0
0
0
-0.0002935233135
4.384634505e-06
-4.321179877e-06
0.0002934598588
-0.0005813775054
-4.340621515e-05
4.461285899e-05
0.0005671322584
-0.0001071569405
-0.000459809075
0.000103997068
0.0004123161085
-8.582008151e-05
-0.0002399612675
8.337303314e-05
0.0001834966282
-4.817976343e-05
-1.585465236e-05
1.479886844e-05
2.073291711e-05
0
0
0
0
0
0
0
0
0
0
0
0
0
0
0
0
0
-0.0002737043354
4.244635784e-06
-4.271880343e-06
0.0002737315799
-0.0005336454854
-4.792235889e-05
4.922522265e-05
0.0005122730297
-0.0001000857134
-0.0003996749761
0.0001013306188
0.00034808662
-7.261500028e-05
-0.0001868112075
6.759182326e-05
0.0001374041046
-2.903225799e-05
-9.578702454e-06
8.076669501e-06
9.50469478e-06
0
0
0
0
0
0
0
0
0
0
-8.260550258e-06
0.0003351097754
8.455378581e-06
-0.0001676408773
-0.0001676637264
1.164482785e-05
-0.0003559140037
-1.012341172e-05
-7.092449201e-06
0.0003156762388
7.230874953e-06
-0.0001575870185
-0.0001582276461
-7.700286917e-06
-0.0001666241373
-0.0001671791255
-6.98043353e-06
0.0002956236432
6.759537182e-06
-0.0001473505025
-0.0001480522444
-7.000681913e-06
-0.0001560063368
-0.0001570051331
-6.600447219e-06
0.0002759415262
6.745009481e-06
-0.0002760860885
-0.0002936276338
-6.876113156e-06
-0.0002736990949
-6.605687716e-06
2.965720016e-05
-2.959285383e-05
0.0003585126437
1.11429833e-05
-0.0003580107991
1.475468582e-05
-0.000373270048
-1.737657677e-05
-4.296239087e-06
8.701420301e-05
4.343921094e-06
-8.706188502e-05
0.0001802793749
1.141342004e-05
-0.0001808044109
-1.088838401e-05
0.0003349807663
5.336455243e-06
2.404246487e-05
0.0006708858776
-2.321710428e-05
-0.0006718821659
-2.237982696e-05
-0.0007016209798
2.375079188e-05
-4.829037318e-06
8.117246106e-05
4.769624085e-06
-8.111304783e-05
4.108906679e-06
8.364984814e-05
-8.358892796e-05
-4.169826863e-06
0.0003156111034
4.690642913e-06
2.485502637e-05
0.0006328339142
-2.464443609e-05
-0.0006330820041
-0.0006628525526
2.433810578e-05
-4.081812654e-06
7.628055206e-05
4.106412989e-06
-7.63051524e-05
4.492299533e-06
7.851120185e-05
-7.836136317e-05
-4.642138217e-06
0.0002956792981
4.328979595e-06
2.633288619e-05
0.0005914376392
-2.569312525e-05
-0.0005932695322
-0.0006223589288
2.509231273e-05
-8.066045735e-06
0.0001425152019
8.108494028e-06
-0.0001425576502
8.270025739e-06
0.0001470474517
-7.961537754e-06
-7.367711846e-05
-7.367882125e-05
-6.69557137e-05
-6.339418314e-06
6.67162425e-05
6.578889516e-06
-7.990777544e-06
0.0001328819434
7.937700392e-06
-0.0001328288663
8.04907578e-06
0.0001371010091
-0.0001370893592
-8.060725715e-06
8.38652917e-05
4.054008762e-06
-8.381039378e-05
8.661307798e-05
-8.668762313e-05
-4.221693941e-06
9.086239859e-06
0.0003437617891
-8.703013873e-06
-0.0001720823093
-0.0001720627058
8.890044347e-06
-8.62169637e-05
-8.57638641e-06
0.0001725163837
-4.022100692e-06
8.389424844e-05
3.993143944e-06
7.852638424e-05
4.326664342e-06
-7.836074905e-05
8.124689446e-05
-8.113487487e-05
-4.941056907e-06
3.415938435e-06
0.0001621247097
-0.0001621543679
-3.386280193e-06
4.536680888e-06
-4.57016695e-06
8.128038052e-05
-4.201800469e-06
7.862114327e-05
4.10704144e-06
-4.050635987e-06
8.367838344e-05
8.122441791e-05
4.484724034e-06
0.0001624985017
3.415629951e-06
-0.0001624981932
0.0001474513597
8.231592059e-06
-7.363234338e-05
-7.378058265e-05
7.61074742e-05
-7.608577852e-05
-4.103508333e-06
6.684190872e-06
0.0003028294746
-6.754280144e-06
-0.0001509644561
-0.0001517949292
7.702226947e-06
-7.574101639e-05
-7.589840037e-06
0.0001517361037
-7.599300024e-06
0.0001474395424
7.611117337e-06
-4.294924222e-06
7.86043256e-05
-7.632147034e-05
0.0001524753866
3.950244989e-06
3.87861777e-06
0.000305340794
6.93567909e-06
-0.0001524699836
-0.0001531222987
0.0001377847856
8.047631647e-06
-0.0001377833415
0.0001420182765
-0.0001420095228
-8.074799352e-06
6.016470471e-06
6.62468626e-05
-6.597301728e-05
6.468953256e-06
-6.740819648e-05
-0.0001321143762
6.624540486e-05
-1.528483968e-05
8.726259625e-05
5.539049718e-07
-7.253166155e-05
9.284703867e-05
7.946705677e-06
-9.4144493e-05
-6.64925134e-06
-2.478824069e-05
7.319419464e-05
1.142040297e-05
-5.982635692e-05
0.0002758941461
4.292015869e-06
2.955419831e-05
0.0005466482891
-2.841751892e-05
-0.0005547321318
-0.0005838652272
2.669186965e-05
-2.487091607e-05
6.785647402e-05
1.184077531e-05
-5.482633326e-05
-1.04429948e-05
0.0001352443825
1.052594937e-05
-6.758462524e-05
-6.774271184e-05
5.189783118e-06
6.861383842e-05
-6.859868322e-05
-5.204938325e-06
1.181719951e-05
-1.031948181e-05
0.0001787816572
-8.68779988e-05
0.0001735113072
9.270938987e-06
0.0003459969585
8.473781891e-06
-0.000172484916
-0.0001728995845
6.888587937e-05
5.24371116e-06
-6.893980741e-05
6.034941464e-06
6.999966112e-05
-7.022453528e-05
-5.810067302e-06
6.83027451e-06
0.0002831666427
-0.0002832235332
-6.773383945e-06
7.525726988e-06
-7.485231605e-06
0.0001419777811
-7.464180793e-06
0.000137763951
7.485015384e-06
-7.508768988e-06
0.0001469569207
0.0001425255294
7.515399495e-06
0.0002859477886
6.822463747e-06
-0.0002859399778
0.0001788101193
1.412157364e-05
-0.0001788045623
-1.412713058e-05
0.0001805301911
1.170019625e-05
-0.0001808169673
0.0003742682147
3.136884168e-05
-0.0001873955445
-0.0001809930137
-1.503669845e-05
-2.221179977e-05
1.697401239e-05
-1.724369941e-05
0.0001790798063
0.0001107244288
-0.0001260092685
9.900419577e-06
0.0001765358517
-9.515150148e-06
-8.830987126e-05
-8.861124982e-05
7.38610749e-06
1.391648465e-05
8.942183664e-05
6.741751517e-06
-6.084983777e-06
9.219027093e-05
8.938314677e-05
5.265556971e-06
0.0001765660031
9.386104466e-06
-8.807357341e-05
-8.797811458e-05
4.251847712e-06
8.235018583e-05
-8.236114871e-05
-4.240884825e-06
8.259884846e-05
4.264213656e-06
-8.26112144e-05
3.99202881e-06
7.751211654e-05
-7.74876893e-05
-4.016456053e-06
7.788373412e-05
4.097055818e-06
-7.798876113e-05
7.105641203e-05
-6.056584034e-06
5.499703044e-06
-7.049953105e-05
7.421976427e-05
-9.484603488e-05
-4.16197008e-06
8.16486488e-06
0.000144261236
-0.0001442514555
-8.174645415e-06
6.581636066e-06
-5.482807503e-06
7.312093571e-05
-5.831530827e-06
7.120909073e-05
5.67885213e-06
5.888529743e-06
-1.110001252e-05
7.277911747e-05
-6.756763469e-05
7.274828998e-05
7.027540724e-06
0.0001449706285
8.172860848e-06
-7.239119916e-05
-7.258742529e-05
-1.026201719e-05
0.0001327472966
1.028994804e-05
-0.0001327752275
0.000134601704
-1.035646971e-05
-6.729163596e-05
-6.73965931e-05
-8.858374344e-05
-5.302405497e-06
6.901523287e-05
4.420792694e-06
8.522235538e-05
-8.501883456e-05
-4.624313521e-06
8.51747564e-05
4.434318281e-06
-8.518828199e-05
3.770978333e-06
7.996875874e-05
-7.994729688e-05
-3.792440199e-06
8.014146871e-05
3.795995355e-06
-8.016648573e-05
-3.793927416e-06
8.010710535e-05
3.828290774e-06
-5.935617768e-06
0.000160047584
5.966864726e-06
-0.0001600788309
6.016557074e-06
0.0001622287084
-0.0001622442129
-6.001052622e-06
-5.883929778e-06
0.0001576269785
5.895897625e-06
-0.0001576389463
0.0001595669375
-0.0001595813725
-5.921182749e-06
-3.786900347e-06
7.996173167e-05
-4.099259469e-06
8.257297675e-05
4.125131179e-06
-6.087341657e-06
0.0001651800776
6.104028106e-06
-0.000165196764
6.173713136e-06
0.0001672753449
-0.0001672936114
-6.155446634e-06
0.0001625428972
6.031670488e-06
-0.0001625580106
0.0001645042895
-0.0001645184585
-6.073172663e-06
-4.100057951e-06
8.235098431e-05
4.144737326e-06
7.483536949e-05
-7.485667738e-05
-4.123429432e-06
7.192429207e-05
4.526057447e-06
-7.056181978e-05
7.496708092e-05
4.197293781e-06
-7.501963737e-05
-7.098162346e-05
-6.003507401e-06
7.115360004e-05
-7.033149749e-05
-5.504912984e-06
7.018322924e-05
5.653181234e-06
-8.038092713e-06
0.0001402474222
8.097654864e-06
-0.0001403069844
6.268297704e-06
-7.056485374e-05
-7.05092043e-05
-6.529003196e-06
4.383203973e-06
-9.296694742e-05
0.0001319853338
-0.0001319143067
0.0001083374246
7.733292603e-06
-0.0001160707172
-7.294234887e-06
6.8184892e-05
7.26522513e-06
-6.815588225e-05
5.553754361e-06
6.855495682e-05
-6.835318805e-05
-5.755523135e-06
-0.0001011071944
-5.161302019e-06
-2.343175821e-05
0.0001297002547
6.92529695e-05
6.283735001e-06
-6.998295013e-05
4.553034528e-06
6.975828124e-05
-6.895043123e-05
-5.36088454e-06
0.0001764630242
1.13371176e-05
-0.0001776577592
-6.837790658e-06
-3.304591955e-06
9.358402768e-05
8.734061594e-06
-9.437138359e-05
0.0001872988698
2.075489452e-05
-0.0001832786269
-2.477513751e-05
1.923642818e-05
0.0001788906212
-1.11886335e-05
-1.047539167e-05
4.496668774e-06
8.161059403e-05
-8.147626777e-05
-4.630995038e-06
4.390254807e-06
-4.379864223e-06
8.342411538e-05
-8.343450597e-05
-4.308451594e-06
8.322562792e-05
4.383955486e-06
-8.330113181e-05
-4.293766709e-06
8.326966121e-05
4.263886347e-06
-8.323978085e-05
4.320936027e-06
7.669536691e-05
-7.662527094e-05
-4.391031994e-06
5.767519893e-06
-7.629673077e-05
-5.972868087e-06
7.650207897e-05
-3.9891907e-06
-7.72462845e-05
7.684761802e-05
4.387857181e-06
4.31023326e-06
-4.262429219e-06
7.795213212e-05
-7.799993616e-05
-1.050770404e-05
7.803395769e-05
5.485585139e-06
-7.301183879e-05
-4.847188362e-06
7.799515563e-05
4.898997488e-06
-7.804696475e-05
4.412365799e-06
8.412135514e-05
-8.437367758e-05
-4.160043359e-06
5.462191737e-06
-0.0001047422396
1.425402017e-05
8.502602774e-05
8.353176339e-05
3.646889655e-06
-8.278839824e-05
-4.154518916e-06
8.512204369e-05
4.207231625e-06
-6.259224199e-06
0.0001699347374
6.341211017e-06
-0.0001700167242
6.366177041e-06
0.0001725739347
-0.0001725437798
-6.39633193e-06
0.0001677374878
6.20704565e-06
-0.0001677708203
0.0001698832615
-0.000169901543
-6.240942743e-06
-4.22067166e-06
8.528850813e-05
3.979851027e-06
7.904122248e-05
-7.894398185e-05
-4.077091656e-06
3.888941958e-06
-4.110527615e-06
7.866337521e-05
-7.844178955e-05
7.797374203e-05
4.07994462e-06
-7.77434534e-05
-4.587899407e-06
8.093484251e-05
4.826605925e-06
-8.117354903e-05
-7.552440182e-05
-4.355735188e-06
7.58909463e-05
-7.455892391e-05
-5.894772842e-06
7.504426341e-05
5.409433341e-06
-4.294539055e-06
7.545836102e-05
4.24685879e-06
-7.541068076e-05
-7.538170572e-06
-7.497086015e-05
0.0001498397339
7.636377738e-06
0.00014970762
-5.643686213e-06
5.723916818e-06
-0.0001497878506
5.756596922e-06
0.0001517607007
-0.0001517574751
-5.759822543e-06
-3.704516071e-06
7.769922076e-05
3.889029436e-06
-5.902673199e-06
0.0001551166495
5.87509824e-06
-0.0001550890745
0.0001570595004
-0.0001570852062
-5.858224031e-06
0.0001525485496
5.740685416e-06
-0.0001525326381
0.0001545344692
-0.0001546876583
-5.749484165e-06
-3.643088643e-06
7.745068912e-05
0.0001395125867
-0.0001395125186
-8.038160841e-06
-5.377774599e-06
6.987252274e-05
-9.739831944e-06
-6.908215729e-05
0.0001378159377
9.891930944e-06
2.504920051e-05
6.878625474e-05
-8.81612098e-05
-5.67424545e-06
6.372577445e-06
9.209139117e-05
-9.115417552e-05
-7.3097931e-06
1.414290452e-05
-1.065414405e-06
9.525993446e-05
9.182769476e-05
5.606049376e-06
-9.106116669e-05
2.636986868e-06
7.087426974e-05
-4.59251787e-06
-6.891873874e-05
7.301908467e-05
-5.802078859e-06
-6.458001894e-05
-6.811875863e-06
6.771008621e-05
6.893097355e-06
-6.779130769e-05
6.83027418e-05
-6.865374766e-05
-6.94322903e-06
4.486664905e-06
8.92463527e-05
-9.37330176e-05
-1.095488847e-05
2.945821001e-05
7.216286145e-05
-1.458049885e-06
-2.86457871e-06
7.390511127e-05
-6.977497927e-05
4.893466232e-06
-5.70112055e-06
7.058263359e-05
-7.10482032e-05
-5.830357125e-06
7.02077634e-05
6.670796917e-06
-5.461458648e-06
6.95233063e-05
5.611434123e-06
-6.967328177e-05
2.447683573e-05
-9.09720044e-05
-4.891312703e-06
-4.530092194e-06
-6.035357438e-05
0.0001107909231
1.457657276e-05
-0.0001253674959
-4.441142714e-06
8.808641464e-05
4.595110916e-06
-8.824038284e-05
4.654399267e-06
8.857581593e-05
-8.872724742e-05
-4.502967772e-06
-4.253693666e-06
8.706497783e-05
5.140763332e-06
-8.79520475e-05
8.74626638e-05
-8.757493716e-05
-4.328869352e-06
8.840274894e-05
5.310210849e-06
-8.905856052e-05
5.289266221e-06
8.885286852e-05
-8.911047965e-05
-5.031655088e-06
7.211666467e-06
-6.037378836e-06
9.091710354e-05
4.278389615e-06
-4.097523507e-06
8.255687367e-05
-8.273773978e-05
9.988102015e-05
1.094325381e-05
-0.000110824274
8.189784912e-05
4.358991281e-06
-8.176017163e-05
8.295970204e-05
-8.295589039e-05
-4.297578353e-06
-4.350867426e-06
8.296280469e-05
-8.292038886e-05
8.26670862e-05
4.267796993e-06
-8.265649357e-05
-7.645616315e-05
3.75405889e-06
-4.271522984e-06
7.697362724e-05
-7.560586019e-05
7.613545184e-05
5.23792825e-06
7.66729761e-05
4.289275659e-06
-7.664131573e-05
-5.626018134e-06
4.541687429e-06
-7.452152949e-05
3.52272244e-06
-3.874068015e-06
-7.610481757e-05
-3.4131079e-06
3.285429859e-06
-7.711860646e-05
-1.071628196e-05
-7.120646695e-05
7.751375893e-05
2.381964474e-06
-7.637300096e-05
7.801962968e-05
-7.824565407e-05
-4.621163976e-06
-2.476155959e-05
7.910615091e-05
-6.485229535e-05
7.789644797e-05
3.371369846e-06
6.834663512e-06
7.206719983e-05
-7.234613189e-05
-6.555731448e-06
7.155862079e-05
5.925154209e-06
-7.064911149e-05
-6.234645414e-06
7.207464764e-05
5.718618564e-06
-4.801315766e-06
7.219137768e-05
4.851437019e-06
-7.224149893e-05
5.152948977e-06
7.219576653e-05
-7.235936933e-05
-4.98934618e-06
-4.129925841e-06
7.344587225e-05
3.703138263e-06
-4.954894619e-06
7.310667866e-05
5.000516557e-06
-7.31523006e-05
5.027492397e-06
7.367922488e-05
-7.361634242e-05
-5.090374851e-06
7.24083998e-05
5.209966815e-06
-7.246541764e-05
7.278000272e-05
-7.272311252e-05
-5.011784814e-06
-5.235067966e-06
7.197941187e-05
-6.72754474e-05
-7.889364793e-06
6.732473869e-05
7.840073499e-06
-6.282913369e-06
6.704902101e-05
6.385430687e-06
-6.715153832e-05
6.764487263e-05
-6.783402727e-05
-6.62272123e-06
-8.40965769e-05
4.410047028e-06
-4.838337505e-06
8.452486738e-05
-8.45612437e-05
8.467318254e-05
5.350252896e-06
8.410077182e-05
4.61959498e-06
-8.4308001e-05
-1.31258063e-05
5.683716979e-06
-7.711915437e-05
3.717084534e-06
-4.758070237e-06
-8.30555912e-05
-0.0001178680459
-6.01636919e-06
8.503094767e-05
5.286857644e-06
-8.430143613e-05
8.663515988e-05
-8.690369628e-05
-3.985157264e-06
8.469770571e-05
-1.081309571e-06
-7.989931161e-05
8.597302325e-05
-8.578809865e-05
-6.201293792e-06
4.366350835e-06
8.611396967e-05
-8.605685351e-05
-4.423467001e-06
5.69185849e-06
-5.480740431e-06
8.57619052e-05
8.487851545e-05
4.229237289e-06
3.939425383e-06
-3.768644227e-06
7.99460019e-05
-8.011678306e-05
7.911696775e-05
3.979338385e-06
-7.920736418e-05
7.937018057e-05
3.887090306e-06
-7.927741985e-05
8.080096336e-05
-8.116601181e-05
-4.222850958e-06
5.051849141e-06
0.000103190695
-0.0001082425442
8.001851025e-05
3.827897155e-06
-7.990698202e-05
-5.484944464e-06
7.460496401e-05
5.815625551e-06
-7.49356451e-05
4.670355446e-06
7.472919726e-05
-7.429450481e-05
-5.105047895e-06
7.354165997e-05
4.900969295e-06
-7.341513687e-05
7.456683552e-05
-7.514508496e-05
-4.906695026e-06
5.907154139e-06
9.720008019e-05
-0.0001031072343
-6.239090509e-06
5.549694223e-06
-7.386952763e-05
-7.475765506e-05
-4.179854652e-06
7.560164144e-05
4.973171291e-06
-7.590445728e-05
7.501937121e-05
-7.468765669e-05
-6.570805029e-06
9.190221183e-05
-9.679352453e-05
5.967882598e-06
7.038560066e-05
-7.020022725e-05
-6.153256008e-06
3.319292056e-06
-6.258376875e-06
6.824859148e-05
-6.530950666e-05
7.188137525e-05
2.491430281e-05
7.017348913e-05
-5.245478328e-06
-6.160871874e-05
7.072804521e-05
6.093486123e-06
-7.085364874e-05
1.199955254e-05
-5.422579943e-05
0.0003588276812
6.587862444e-06
0.0007092962699
-2.183221562e-05
-0.0007152537384
-3.357849341e-05
-0.0007298582425
3.124293958e-05
3.441319782e-06
-6.524099402e-06
6.544892764e-05
-6.236614802e-05
-4.977157262e-06
6.754511815e-05
-5.912664111e-05
-0.0005440386103
3.083656696e-05
8.990810976e-05
-9.488526702e-05
-7.462071051e-06
0.0001370988994
0.0002661844593
1.442483425e-05
-0.00013339277
0.0002662890225
6.710998362e-06
-0.0002662162304
8.729856534e-05
6.669907415e-06
-8.910858456e-05
-4.859888201e-06
-3.167642133e-06
-9.171137182e-05
4.232085677e-06
9.064692827e-05
-9.819183691e-05
9.510224944e-05
-2.071714541e-06
9.547029228e-05
1.720992208e-05
-0.0001049469218
9.227837308e-05
1.285518877e-05
-9.068377322e-05
-1.444978862e-05
1.150989736e-05
-1.27359809e-05
8.852464888e-05
1.564778391e-05
0.0003623345016
-0.0003654138714
-1.256841408e-05
2.971772383e-05
-2.64902426e-05
0.0003710407335
0.000180829945
1.151744557e-05
8.682956883e-05
4.567825555e-06
-8.671945397e-05
-4.677940418e-06
4.18518155e-06
-4.053533632e-06
8.733101588e-05
-4.54634343e-06
8.71325346e-05
4.478786662e-06
-5.729689875e-06
6.63140176e-05
5.798425033e-06
-6.638275275e-05
6.690442814e-05
-6.709573254e-05
-6.09160897e-06
-6.95788284e-06
6.785477278e-05
-6.845167946e-05
-9.751129604e-06
0.0001370768155
-9.790503557e-06
0.0001352062781
9.82860798e-06
-7.998677418e-06
0.0001351460456
8.006551437e-06
-0.0001351539197
-4.581946769e-06
8.667076322e-05
8.545530104e-05
5.267505119e-06
8.606246016e-05
4.306465552e-06
-8.600257487e-05
4.727018729e-06
-6.483388663e-05
-6.716605832e-05
6.366347927e-06
6.726866365e-05
-2.378484059e-05
9.674574683e-06
-5.305579242e-05
-8.646601834e-05
6.608293192e-05
-6.608603046e-05
-1.496627048e-05
8.760680594e-05
-7.208663048e-05
6.177442712e-06
7.127321459e-05
-6.603025433e-05
7.634839684e-06
-7.621547858e-06
6.784318219e-05
-6.602656171e-05
6.321515433e-06
6.733988596e-05
4.901040632e-06
-5.908682703e-05
5.853981878e-06
-5.929677698e-06
6.863065264e-05
-6.65915828e-06
6.8225308e-05
6.618742286e-06
-5.156259962e-06
6.820605027e-05
5.125740221e-06
-6.817553053e-05
0.0001731080084
6.450423663e-06
-0.000173192255
6.921946713e-06
0.0001751734535
-0.0001749490159
-7.146384233e-06
9.410104255e-06
-8.846348468e-06
0.0001759720959
6.924466506e-05
-6.939309494e-05
-5.313028766e-06
-5.790571628e-06
6.971849575e-05
6.90967817e-05
6.010169679e-06
1.569754356e-05
0.0001808323407
-0.0001839450055
-1.258487876e-05
2.10283309e-05
-1.942588558e-05
0.0001856964245
9.222229193e-05
8.103487262e-06
8.78961901e-05
-1.007103834e-06
-7.297260162e-05
5.334834193e-06
-5.766383094e-06
8.8327739e-05
5.530461322e-06
8.922620951e-05
1.500160077e-05
0.0001091112986
-0.0001241128994
8.601581531e-05
5.719328145e-06
-7.673354268e-05
-7.174200601e-05
5.568864724e-06
7.167284433e-05
-4.813490063e-06
4.207322987e-06
-7.113583893e-05
-6.913735603e-05
-6.175665079e-06
5.439329767e-06
-0.0001002853646
7.246473314e-05
-2.970800703e-06
-6.405460267e-05
-4.647207169e-06
7.294997023e-05
7.121016392e-05
-4.703021185e-06
4.716776957e-06
-7.122391969e-05
7.188621276e-05
-7.19114037e-05
-4.776124829e-06
-6.185888539e-06
7.201844295e-05
7.444668477e-05
-2.446605802e-05
-6.108063927e-05
6.459173049e-06
-5.988030427e-06
7.397554215e-05
5.890595683e-06
7.334769484e-05
6.752878194e-05
-6.643355396e-05
-6.397633479e-06
6.780966873e-06
-7.023173128e-06
6.777098819e-05
6.817465189e-05
4.335857164e-06
-5.860326889e-06
7.277408183e-05
-7.12496121e-05
2.396412597e-06
7.331697835e-05
-7.137753378e-05
4.94308745e-06
7.287180031e-05
-7.212509071e-05
3.923658189e-06
7.314451997e-05
2.496974262e-06
-7.009600752e-05
-5.877308804e-06
7.558969451e-05
-6.731597311e-05
9.838799678e-05
-0.0001042653056
7.537592445e-05
-7.539235658e-05
-4.278106931e-06
-6.076165287e-06
7.520076365e-05
-4.795336969e-06
7.527537881e-05
5.121599596e-06
-5.003691577e-06
-5.704665841e-05
1.208663146e-05
-2.500045764e-05
6.831577377e-05
-5.540194759e-05
6.603569175e-05
-6.047315969e-05
-5.048393843e-06
4.240323946e-06
6.709941548e-05
-6.698881678e-06
-6.584583027e-06
6.792847537e-05
1.567195456e-06
-9.447607985e-05
6.947712618e-05
9.216229848e-06
0.0001204840248
-0.0001204513971
0.0001220185926
-6.945243082e-05
6.420819952e-06
6.931534587e-05
-2.416548358e-05
1.117207099e-05
-5.645901823e-05
-4.468504862e-06
-4.872916371e-06
-5.960901e-05
6.792754214e-05
-6.122397601e-05
6.898747755e-05
1.123501279e-05
9.196805557e-05
-9.329322051e-05
-9.909847848e-06
1.640700573e-05
-1.75480968e-05
9.341946414e-05
9.462533536e-05
1.498786144e-05
-4.755887534e-07
-3.804397636e-06
8.113655053e-05
-7.685656414e-05
-1.398543574e-05
8.12866274e-05
-6.777678041e-05
4.477204739e-06
-4.309664795e-06
8.11188388e-05
-8.128637874e-05
8.099266902e-05
-8.031986192e-05
8.333314359e-05
-4.449697522e-06
-8.326331029e-05
4.558460122e-06
-4.641678999e-06
8.341636246e-05
4.480443371e-06
8.350213213e-05
4.644184663e-06
-4.647538007e-06
8.322898126e-05
-8.338041886e-05
8.338292452e-05
-8.344616089e-05
7.765127535e-05
-4.482948701e-06
-7.743075587e-05
4.950354497e-06
-5.298232722e-06
7.799915357e-05
4.774526932e-06
7.812795968e-05
5.603288626e-06
-5.66575022e-06
7.809641928e-05
-7.752806899e-05
7.783312489e-05
-7.652543255e-05
8.478445669e-05
9.892398986e-07
-7.151967643e-05
4.374448666e-06
-4.147080784e-06
8.455708881e-05
4.777918163e-06
8.462255824e-05
4.313436867e-06
8.36987699e-05
-8.396022473e-05
8.412658082e-05
-7.932409518e-05
7.864910383e-05
-4.07361988e-06
-7.868601156e-05
4.298676738e-06
-4.406538938e-06
7.875696603e-05
4.160885742e-06
7.88011662e-05
4.575204368e-06
7.81730646e-05
-7.834888499e-05
7.851755042e-05
-7.834256025e-05
4.596553788e-06
-5.189693049e-06
8.112595055e-05
-8.053281129e-05
8.091733539e-05
-8.06304464e-05
1.010119231e-05
-2.517946864e-05
8.14333873e-05
-6.635511097e-05
8.122145181e-05
-7.630995254e-05
-4.288722627e-06
-5.55802164e-05
3.28451083e-06
-9.144572063e-05
6.723060427e-05
-5.427151876e-05
6.792270675e-05
-9.075474097e-05
-1.047005195e-05
-1.213744986e-05
-6.854667371e-05
0.0001131546338
-0.0001236246858
9.087857022e-05
0.0001196126894
-0.0001206781038
1.079469971e-05
1.263584328e-05
9.618214645e-05
9.573621218e-05
1.031842199e-05
1.089308289e-05
0.0001107453227
-0.0001216384056
8.945722005e-05
-6.592829389e-05
7.041807747e-05
-6.883315263e-05
9.575689391e-05
-0.0001015589728
6.716861028e-05
-5.778090474e-05
5.324731664e-06
6.816539405e-05
6.957062672e-05
2.500173302e-06
1.130241518e-05
7.02093786e-05
-5.703495806e-05
-9.584492077e-05
6.865539407e-05
-6.188307108e-05
6.441190175e-06
1.512465527e-05
8.922507764e-05
-8.745627004e-05
8.813107712e-05
-7.388680112e-05
-8.670156678e-05
4.753503475e-06
8.708882663e-05
-6.253455722e-06
5.567704256e-06
1.490579542e-05
-1.142960264e-06
8.548517176e-05
-7.862288335e-05
8.756876277e-05
-7.358706777e-05
8.209714575e-05
-4.844929736e-06
-8.134973952e-05
4.393450484e-06
-4.323751097e-06
8.202744636e-05
4.537282029e-06
8.241304213e-05
4.329657465e-06
8.156592694e-05
-8.169144367e-05
8.169735003e-05
-7.559311959e-05
8.286804613e-05
-4.390688432e-06
-8.282822512e-05
4.639095816e-06
-4.632645198e-06
8.286159551e-05
8.29543625e-05
4.552757554e-06
8.265161067e-05
-8.28845214e-05
8.280463376e-05
-8.300741284e-05
7.620720829e-05
-7.571478758e-05
-4.763943696e-06
4.289433981e-06
7.661692589e-05
-4.699151582e-06
3.93630929e-06
7.732675193e-05
4.283100156e-06
7.553148704e-05
-7.527289977e-05
-7.530575544e-05
-9.994085754e-05
2.471841517e-05
7.850787222e-05
6.008854416e-06
-0.000105949712
-2.077247138e-06
-6.903250491e-05
7.767187497e-05
-6.366974175e-05
-5.865915586e-06
7.879621172e-05
-7.054833166e-05
0.0001011505822
-0.0001070164978
7.970226259e-05
-3.313240009e-06
5.162982113e-06
-4.234113167e-06
7.877339365e-05
7.86033828e-05
3.823712092e-06
7.800904517e-05
-7.885434156e-05
7.844394048e-05
-2.464874022e-05
1.134014839e-05
-5.903754005e-05
7.320445442e-05
-9.364587166e-05
7.22175877e-05
5.409186936e-06
-9.90550586e-05
3.128579057e-06
-6.050027042e-06
-6.621590805e-05
-6.259807294e-05
-7.043116558e-05
7.170911262e-05
-5.833236964e-06
-6.756872932e-05
-6.514220006e-05
4.983400157e-06
7.329041355e-05
-4.827941463e-06
-7.499397414e-05
7.398934387e-05
8.467362572e-05
-5.16025636e-06
-8.435170686e-05
4.774885463e-06
-4.888726714e-06
8.478746697e-05
8.480949433e-05
4.490258516e-06
4.927342145e-06
8.452375856e-05
-8.474299705e-05
8.478161248e-05
-8.455300052e-05
4.853256987e-06
-8.372254052e-05
-8.425652011e-05
-8.423856091e-05
4.534035001e-06
8.499138355e-05
-4.936363588e-06
3.740345155e-06
-8.304254248e-05
-6.601905432e-06
-8.263589428e-05
1.365382049e-06
-7.336328291e-05
8.51250115e-05
-8.00192843e-05
8.567388924e-05
-1.460867712e-05
8.605028906e-05
-7.252292152e-05
-1.430978808e-05
-7.8080216e-05
0.0001078720993
-0.0001221818874
8.706212841e-05
7.940964501e-05
-3.977674376e-06
-7.920061486e-05
3.897027303e-06
-4.014423676e-06
7.952704139e-05
3.914562791e-06
7.992846641e-05
4.095529181e-06
7.918232431e-05
-7.93314413e-05
7.94125468e-05
-7.932977729e-05
8.137012347e-05
-2.512978824e-06
-7.38052955e-05
3.75904635e-06
-3.627727273e-06
8.123880439e-05
8.177027274e-05
3.780737584e-06
8.015233546e-05
-8.030823946e-05
8.046124977e-05
-7.899332113e-05
1.106999249e-05
-2.455208442e-05
7.548972908e-05
-6.200763715e-05
7.364687305e-05
-6.843720745e-05
7.422147098e-05
-6.581734258e-05
3.536546829e-06
7.460858234e-05
7.61845426e-05
-7.381299227e-05
4.894385501e-06
7.446830099e-05
-4.720777202e-06
4.405852739e-06
-7.349806781e-05
-5.918858955e-06
-7.267144587e-05
-3.855814084e-06
-7.297908812e-05
7.394288065e-05
-7.339284199e-05
7.465741149e-05
-7.722212887e-05
6.031478443e-06
7.616382172e-05
-3.693971558e-06
2.485983947e-05
-4.008734329e-06
-1.105603761e-05
-6.955047804e-05
7.630449955e-05
-6.250069769e-05
7.576517296e-05
6.874968107e-05
-1.178978082e-05
-6.321827712e-05
6.497174483e-06
-7.501859197e-06
6.975436578e-05
5.112336515e-06
6.963342945e-05
7.27735734e-06
7.091992009e-05
-6.315902176e-06
-7.081163782e-05
7.058713596e-05
-5.768711583e-05
1.151572613e-05
-2.471208648e-05
7.146986128e-05
-5.827350093e-05
6.959319395e-05
-6.412749486e-05
4.43000432e-06
7.085582132e-05
-9.265480465e-05
7.237272249e-05
-9.790028298e-05
6.525670858e-05
-5.826084761e-05
6.515957565e-05
-1.222510741e-06
4.772219348e-07
-6.277695401e-09
6.41275621e-05
-6.192154062e-08
4.76935418e-05
2.52288474e-06
-1.205295127e-06
-5.511710376e-05
0
-4.108640819e-08
1.327726184e-09
3.891900822e-05
-1.31228451e-06
1.182085764e-05
2.288829124e-06
-5.219373644e-07
-2.015345824e-05
0
0
0
5.420072786e-06
-1.859053962e-07
0
7.983789813e-09
0
-6.175334565e-08
0
0
0
0
0
0
0
0
0
0
0
0
0
0
0
0
0
0
0
0
0
0.0003165280603
-1.247874154e-05
8.061883855e-06
-2.585317653e-06
0.000315505877
4.529484907e-06
0.0002798664062