/*--------------------------------*- C++ -*----------------------------------*\
| =========                 |                                                 |
| \\      /  F ield         | OpenFOAM: The Open Source CFD Toolbox           |
|  \\    /   O peration     | Version:  v2012                                 |
|   \\  /    A nd           | Website:  www.openfoam.com                      |
|    \\/     M anipulation  |                                                 |
\*---------------------------------------------------------------------------*/
FoamFile
{
    version     2.0;
    format      ascii;
    class       surfaceScalarField;
    location    "2.27";
    object      meshPhi;
}
// * * * * * * * * * * * * * * * * * * * * * * * * * * * * * * * * * * * * * //

dimensions      [0 3 -1 0 0 0 0];
oriented        oriented;


internalField   nonuniform List<scalar> 
5999
(
0
0
0
0
0
0
0
0
0
0
0
0
0
0
0
0
0
0
0
0
0
0
0
0
0
0
0
0
0
0
0
0
0
0
0
0
0
0
0
0
0
0
0
0
0
0
0
0
0
0
0
0
0
0
0
0
0
0
0
0
0
0
0
0
0
0
0
0
0
0
0
-2.291584737e-09
-8.697004498e-08
0
0
0
0
0
0
0
0
0
0
0
0
0
0
0
0
0
0
0
0
0
0
0
0
0
0
0
0
0
1.052435846e-08
1.446460763e-06
-9.768238735e-07
-9.162408125e-06
3.816969734e-06
8.122926781e-05
-8.881876844e-06
-0.0001148838939
4.702581462e-06
0.0002126301083
-7.822131178e-06
-0.0002378940815
0
0
0
0
0
0
0
0
0
0
0
0
0
0
0
0
0
0
0
0
0
0
0
0
0
5.148685696e-07
3.12256467e-06
-2.689931853e-06
-2.234125577e-05
1.965327526e-05
0.0001955248067
-3.092405302e-05
-0.0002796017822
3.400439269e-05
0.0005586000214
-4.425076034e-05
-0.0006491515458
1.702835214e-05
0.0008752107561
-1.885986341e-05
-0.0009287393918
0
0
0
0
0
0
0
0
0
0
0
0
0
0
0
0
0
0
0
0
0
0
0
-1.711872725e-07
-1.192663536e-06
2.329696361e-05
0.0001455148638
-3.534582385e-05
-0.0002492167099
7.428994255e-05
0.0006600320307
-9.005531436e-05
-0.000813134395
7.341955014e-05
0.001253156406
-8.121048494e-05
-0.001380419405
1.847002115e-05
0.001670082018
-1.661312897e-05
-0.001732813396
0
0
0
0
0
0
0
0
0
0
0
0
0
0
0
0
0
0
0
0
0
5.445358696e-06
1.711434801e-05
-9.044162393e-06
-7.387875049e-05
7.493673534e-05
0.0004473483678
-8.858070744e-05
-0.0006212915525
0.0001492158932
0.001220963542
-0.0001524785241
-0.00142387758
9.928636754e-05
0.001903009204
-0.000117512934
-0.002005383424
1.013473944e-05
0.002213310371
-1.156932811e-05
-0.002240888128
0
0
0
0
0
0
0
0
0
0
0
0
0
0
0
0
0
0
-1.508562514e-07
-1.274926824e-08
-4.845309651e-07
2.13452745e-05
8.632338273e-05
-2.603790821e-05
-0.0001942903816
0.0001271921738
0.0007166044015
-0.0001324630958
-0.0009464582178
0.0001676450094
0.001621398273
-0.0001735806551
-0.00182016986
0.0001166370718
0.002262155063
-9.595140328e-05
-0.002352739558
4.430127077e-05
0.00243306274
-7.472168948e-05
-2.403897641e-05
-0.001172923103
-0.001205680242
0
0
0
0
0
0
0
0
0
0
0
0
0
0
0
0
6.298121492e-07
0
-1.337708136e-06
-4.460811212e-06
-6.821250399e-06
3.587972983e-05
0.0001453614889
-3.708094225e-05
-0.0002843699686
0.0001519785623
0.0009011816875
-0.0001542985391
-0.001144800639
0.0001793463485
0.001851237101
-0.0001783198898
-0.002047852842
7.895059243e-05
0.002411239326
-7.468367981e-05
-0.002438724661
7.929175998e-06
0.001234353362
-9.916529833e-06
-0.001232366008
0
0
0
0
0
0
0
0
0
0
0
0
0
0
0
0
1.725181348e-06
0
-2.176386469e-06
-1.226418762e-05
-1.383630613e-05
4.316044024e-05
0.000182914006
-4.446735508e-05
-0.0003369862633
0.0001623648791
0.0009922219683
-0.0001639680064
-0.001244503507
0.0001784830403
0.001958264306
-0.0001785462063
-0.00214861263
6.992178266e-05
0.002467480311
-6.942041022e-05
-0.002478221489
3.034377567e-06
0.001238163593
-3.033156212e-06
-0.001238164814
0
0
0
0
0
0
0
0
0
0
0
0
0
0
0
0
2.622680825e-06
0
-3.236846263e-06
-1.869966298e-05
-2.084963716e-05
4.771709291e-05
0.0002086817147
-4.903327079e-05
-0.0003726582571
0.0001680268185
0.001053837308
-0.0001696084647
-0.001312246958
0.0001788994733
0.002033232412
-0.0001790030549
-0.002221874814
6.849902029e-05
0.002524122072
-6.832013895e-05
-0.002530123363
2.896827061e-06
0.00126256843
-3.304506167e-06
-0.0006303604995
-0.0006318002514
0
0
0
0
0
0
0
0
0
0
0
0
0
0
0
0
3.904728964e-06
0
-4.67418542e-06
-2.807301718e-05
-3.080885633e-05
5.315056574e-05
0.0002404845431
-5.4600289e-05
-0.0004157785734
0.0001743636572
0.001125896316
-0.0001759930462
-0.00139093095
0.0001792259436
0.002118957076
-0.0001792719472
-0.002305228666
6.751365296e-05
0.002587651016
-6.731277389e-05
-0.002590061328
3.099211652e-06
0.001292978627
-3.213951502e-06
-0.0006459151541
-0.0006469487336
0
0
0
0
0
0
0
0
0
5.615803731e-06
0
-4.08230177e-05
-4.224659068e-05
5.933419225e-05
0.0002777154037
-6.118407869e-05
-0.0004649624576
0.0001810950785
0.001204075391
-0.0001830230834
-0.001475164748
0.0001793101383
0.002207059415
-0.0001792734573
-0.002389637821
6.681975395e-05
0.002647819043
-6.692790329e-05
-0.002647915663
3.472596499e-06
0.001322084365
-3.464865686e-06
-0.0006603436073
-0.0006617484882
0.001236372605
-0.001236430026
3.091798663e-06
0.001258979186
2.608441995e-06
-0.0006292408701
-0.0006294499306
0.001289204889
2.924961282e-06
-0.0006442084749
-0.000644822164
0.001318063867
3.235274577e-06
-0.0006585182362
-0.0006593083088
0.001230456847
-0.001229929904
7.402233723e-06
0.002508707285
-0.002515753225
6.870654567e-05
-7.03125653e-06
6.977596531e-06
0.001259032846
7.118302594e-06
0.001238046795
-7.001504171e-06
0.002572437733
-0.002575622513
6.773440385e-05
-7.104748944e-06
7.051346936e-06
0.001289258291
0.001262622052
-7.084879032e-06
-3.176811909e-06
0.001275117846
3.121302014e-06
-0.0006369556473
-0.0006381066889
4.963563001e-06
-0.000319206441
-4.942818569e-06
0.0006381133569
-0.0003189276604
-5.065990808e-06
-0.0003145959533
0.0006301251336
4.826847185e-06
-0.0003152900367
0.00263235949
-0.002632931003
6.678038614e-05
-7.283268439e-06
7.231210314e-06
0.001318115925
0.00129297148
-7.097601932e-06
-2.832165327e-06
0.001304003119
3.081626464e-06
-0.0006517601458
-0.0006524924345
2.697428504e-06
-0.0003263152583
-2.767195011e-06
0.0003263850248
-4.662757541e-06
-0.0003227764208
0.0006459150586
4.717776441e-06
-0.0003231936568
0.00132213678
-7.335684152e-06
-2.224589376e-06
0.0006673499395
-0.0006674142518
2.28890169e-06
4.122688385e-06
-0.000334379612
-3.781547364e-06
0.000334038471
-3.410498973e-06
-0.0003295002647
0.0003296439523
3.266811356e-06
-6.034893819e-06
0.0006140672495
5.544303236e-06
-0.0003063064869
-0.000307270172
6.476333433e-06
0.0006181653075
-6.400960947e-06
-0.0003094435661
-0.0003087971139
0.0006207396831
5.598045922e-06
-6.881862254e-06
-0.0006194558667
0.0006148752635
-0.0006153473826
-5.562774719e-06
-0.0003142492315
-5.361966427e-06
0.0006292152437
-0.0003146700366
-0.0006238750283
-5.115041449e-06
0.0006239346835
5.055386211e-06
2.852708825e-06
0.001249534776
-2.907662274e-06
-0.001249479823
-6.230576635e-06
5.816596477e-06
-0.0003116987874
-0.0003117622607
3.018157036e-06
-0.0003142472218
-3.020166711e-06
0.000618277606
6.188645524e-06
-0.000308805149
-0.000309184769
0.0006235960114
-6.124249118e-06
-0.0003119368744
-0.0003117654645
-0.000322369903
-4.913119687e-06
0.0006446397981
-0.000322019533
-0.000319737861
0.000639558508
5.208863982e-06
-0.000320065948
0.001279250338
-2.875659045e-06
-0.0006394368699
-0.0006401146214
-3.239513337e-06
3.306045856e-06
-0.0003198043936
2.658540172e-06
-0.0003223001919
-2.728251285e-06
2.954835671e-06
-0.000314532632
-0.0003193501957
-3.095758616e-06
-0.000329278759
-3.489118792e-06
0.0003293573788
-0.0003264830124
0.0003264930455
2.687395408e-06
0.001306684002
-3.250006723e-06
-0.0006529809723
-0.0006532851879
-3.164208039e-06
2.961823489e-06
-0.0003262806278
4.257355112e-06
-0.000329061431
-4.474683133e-06
2.653131844e-06
-0.0003227710124
-0.0003262344605
-3.245005838e-06
-0.0003339836171
0.0003341141516
3.992153869e-06
-0.0006680803625
-4.982448224e-06
4.771347718e-06
-0.0003337725165
3.973999584e-06
-0.0003292169091
-0.0003346024589
-4.759601352e-06
0.002453576222
-0.002466741537
7.103948941e-05
7.233900073e-06
0.001236257007
1.15993322e-05
0.00123263986
-9.885830085e-06
-4.514395464e-06
0.001229704138
-0.001229603564
4.413821096e-06
4.775215435e-06
-4.69301835e-06
0.0006147930664
-1.437040546e-06
0.0006225393678
-3.626442245e-07
0.001246571465
-0.001246690032
2.971275563e-06
-5.118818538e-06
0.0006235997885
-5.084511709e-06
0.0006182779417
5.08417597e-06
-5.080533618e-06
0.0006181613294
0.0006140978074
4.744657513e-06
0.001225796004
-3.714142343e-06
-0.001226596257
-3.524152816e-06
0.0003079324065
4.146630983e-06
-0.0003085548846
0.0003205303596
7.513477061e-06
-3.141704971e-06
-0.0003249021317
0.0003105288892
9.492690226e-07
-0.0003109954909
-4.826673967e-07
0.001269730125
1.679585065e-05
-2.697460826e-05
-1.096061537e-05
-0.0006189336685
-0.0006296570835
0.0006143825706
-0.0006270737459
1.828922121e-05
-0.0003318827511
-2.063441625e-06
0.0003320257119
1.920480911e-06
-1.599579426e-06
0.0006639384368
1.538179306e-06
-0.0006638770367
1.541224624e-06
0.000667295641
-0.0006673585428
-1.478322769e-06
0.0003148768957
-7.59900333e-07
8.144137606e-05
-0.0003955583714
0.0003064200812
-3.755122355e-06
-0.0003061891116
5.751138979e-06
0.0006161711934
-5.987133235e-06
-0.0003073976709
-0.0003085375282
4.212847899e-06
-4.773755089e-06
0.0003069809884
-4.330673178e-06
0.0003118727234
7.334845506e-06
8.10333321e-06
-2.644600176e-05
0.0003095636842
-0.0002912210156
0.0003083195052
3.825749188e-06
0.0006176119245
6.428849469e-06
-0.0003093970121
-0.0003088926228
4.107404731e-06
0.000623168815
-0.0006235902135
-3.686006244e-06
3.042951022e-06
-3.395662636e-06
0.0003108816008
1.450742135e-05
0.0003107021212
-4.679182894e-06
-0.0003113709871
-3.206623084e-06
0.000310246937
-0.0003102362487
0.0003103132964
2.965903342e-06
0.0006190258008
4.516808989e-06
-0.0006194352051
2.905270616e-06
-0.0003121922503
-0.0003109253431
-1.205544311e-06
3.084676207e-06
0.0003133679026
-0.0003134363555
-3.016223288e-06
-3.88505793e-06
0.000311147979
3.860795706e-06
-0.0003111237167
0.0003137158191
3.088354682e-06
-0.0003137194975
6.38562657e-06
0.0006211998212
-6.108913143e-06
-0.0003105692319
-0.0003109073028
4.420610907e-06
-4.384146915e-06
0.0003102271962
-0.0003102636602
0.0003083071368
5.189479552e-06
-0.0003053932832
-4.02295035e-06
0.0003111517821
-0.0003110138897
0.0003101741974
4.339125642e-06
-0.0003100927122
0.0006213111674
6.318088114e-06
-0.0003107398621
-0.0003105037668
3.032354493e-06
0.0003207761643
-0.0003207109603
-3.097558491e-06
0.0003211909037
3.020197786e-06
-0.000321178747
2.809158844e-06
0.0003171301467
-0.000317067044
-2.872261567e-06
0.0003174169604
2.805891738e-06
-0.0003174136933
2.307969051e-06
0.0003284726378
-0.000328479793
-2.300813861e-06
0.0003288514117
2.59346072e-06
-0.0003291369034
3.823839037e-06
0.0003247624457
-0.0003249112159
-3.67506879e-06
0.0003248571694
3.830208023e-06
-0.0003248635384
0.0006680855662
-0.0006680859334
2.095412839e-06
0.0003317728063
-0.0003314870246
-2.381194606e-06
1.812318871e-06
-0.0003315996572
2.654426057e-05
0.0006406382064
-2.21981369e-05
0.0003254158581
-0.000325548414
7.646033013e-06
-3.052549976e-06
0.0003248539249
3.055794481e-06
-1.902112711e-06
0.000649933217
1.841944187e-06
-0.0006498730485
1.842108827e-06
0.0006525550305
-0.0006525551144
-1.842024892e-06
-1.901225934e-06
0.0006459166059
1.901381495e-06
-0.0006459167615
0.0006489588341
-0.0006489591665
-1.901780303e-06
-2.91876757e-06
0.0003246286633
-1.72389053e-06
0.0006603459058
1.662309967e-06
-0.0006602843252
0.0006637029332
-0.0006637025321
-1.599980534e-06
-2.208380947e-06
0.0003319177456
-4.885507444e-06
-0.0003216523528
0.0006427945628
4.934201129e-06
-1.961032885e-06
0.000642799223
1.961006627e-06
-0.0006427991968
0.0006447635545
-0.0006447037196
-1.961060888e-06
2.865707007e-06
-0.000321775127
-3.035557059e-06
0.0003219449771
-0.0003213921098
-3.778061831e-06
0.0003216789096
3.491262033e-06
-2.874978129e-06
0.0003219835334
2.805557502e-06
-0.0003219141127
-2.338439098e-06
0.0003287062609
2.483589939e-06
-1.843151764e-06
0.0006570005689
1.904782715e-06
-0.0006570621998
0.0006591880895
-0.000659188192
-1.723788073e-06
0.000652983148
1.842281607e-06
-0.0006529833207
0.0006561470534
-0.0006562083218
-1.781883419e-06
-2.210419986e-06
0.0003283446187
2.655795282e-06
0.0003261325868
-0.0003260503822
-2.737999907e-06
3.112738465e-06
-0.0003252400422
-3.408519937e-06
0.0003255358237
-4.033210213e-06
-0.0003257270422
0.0003258948302
3.865422234e-06
3.688141317e-06
-3.785676077e-06
0.0003285817584
-0.0003284842237
-2.646759566e-05
0.0003298111473
6.914312843e-06
-0.0003102578644
-4.396931086e-06
0.0003292774457
4.620903777e-06
-0.0003295014183
2.741051031e-06
0.0003237306122
-0.0003238145914
-2.657071785e-06
2.202175787e-06
-0.0003244126182
-2.127029987e-06
0.0003243374724
-0.0003222507728
0.0003225414479
2.575031903e-06
-0.0003255597672
-4.261892313e-06
0.0003257884493
-0.0003248753066
-4.888838271e-06
0.0003251050892
4.659055605e-06
-3.607345539e-06
0.0003256909473
3.466718281e-06
-0.0003255503201
3.239935766e-06
0.0003307330839
-0.0003305085347
-3.464484886e-06
3.002074006e-06
-3.095676677e-06
0.0003297831516
-0.0003296895489
0.0003285517529
3.283937193e-06
-0.0003281475487
3.701043129e-06
0.0003355986247
-3.436588505e-05
-0.0003049337828
-1.747189328e-06
0.000333694624
2.609414363e-06
-0.000334556849
-1.702625698e-06
0.000308025252
-2.951416752e-06
-0.0003033712095
0.0003121211742
-3.030979458e-05
-0.0002835140053
1.879111291e-06
0.0003184446076
-0.0003192871166
-1.036602348e-06
0.0003196712379
2.599357333e-07
-0.0003180520624
5.33576678e-06
0.000305576756
-8.772236339e-06
-0.0003021402864
0.0003051600351
4.956848246e-06
-0.0003047811166
-7.002936872e-06
0.0003060866395
6.076332515e-06
-5.090630168e-06
0.0003077095395
4.772710508e-06
-0.0003073916199
3.848520102e-06
0.0003083964777
-0.000308069628
-4.175369796e-06
-2.847837883e-06
0.0003069413279
4.287746034e-06
-0.0003083812361
0.0003080572172
-0.0003079270966
-5.220750749e-06
-8.218051464e-06
0.0003067918706
-1.837744507e-06
0.0003121619185
1.797000243e-06
-3.720655438e-06
0.0003096169819
4.280009796e-06
-0.0003101763363
5.779996698e-06
0.0003090205932
-0.0003093032674
-5.497322475e-06
0.0003093739862
3.697948172e-06
-0.0003092234143
0.0003083763382
-0.0003085936669
-3.503326779e-06
-2.56192358e-06
0.000308749431
-0.0003066064009
-6.481211056e-06
0.0003082089649
4.878647077e-06
-3.731967672e-06
0.0003090500825
3.811560141e-06
-0.000309129675
0.0003078002311
-0.0003076596813
-2.988387663e-06
8.241001767e-06
0.0003073659305
-0.0003057377383
-9.869194024e-06
5.393467204e-06
-0.0003037588664
-2.869556452e-06
0.000314410983
-6.719331475e-07
-0.0003108694934
-3.092350197e-06
0.0003142488191
3.339110793e-06
-0.0003144955797
5.715488786e-06
0.0003142217104
-0.0003149390707
-4.998128497e-06
-3.399358225e-06
0.0003116182087
3.193112305e-06
-0.0003114119628
0.0003132432581
-0.0003133083087
-3.027299573e-06
-3.146276728e-06
0.0003127667815
-0.0003124900613
-5.656891851e-06
0.0003144484885
5.556020239e-06
-0.0003143476169
5.132750707e-06
0.0003140093553
-0.0003139061329
-5.235973131e-06
0.0003141839785
5.967406698e-06
-0.0003144358964
0.0003142899675
-0.0003141322232
-5.814636125e-06
-4.702891145e-06
0.0003088343055
4.620557347e-06
-0.0003087519717
-5.162224312e-06
0.0003094412925
5.007001179e-06
-0.0003092860694
4.487759656e-06
0.0003108216088
-0.0003106691464
-4.640222059e-06
0.0003087487762
5.781872749e-06
-0.0003087506522
0.0003097299854
-0.0003095177596
-5.374450083e-06
-4.847912138e-06
0.0003088300232
-0.0003086850022
-3.80629073e-06
0.000310912872
3.834122517e-06
-0.0003109407038
-3.883565073e-06
0.0003113925361
3.732335055e-06
-0.0003112413061
0.0003116193401
-0.0003115282996
-3.490398799e-06
0.0003106494533
4.278747799e-06
-0.0003104404414
0.0003104130062
-0.0003103194866
-3.977084674e-06
-4.122924985e-06
0.0003099341419
-0.0003096175076
-5.408921844e-06
0.0003195136145
5.240730224e-06
-0.0003193454229
4.676945328e-06
0.0003201874082
-0.0003200187693
-4.845584186e-06
-6.277976044e-06
0.0003204228671
6.363633968e-06
-0.000320508525
0.0003195946328
-0.0003193616785
-5.641876176e-06
-3.88876215e-06
3.723148708e-06
-0.0003212264964
3.038984716e-06
-0.0003215440271
-3.270084664e-06
0.0003206537694
4.448681432e-06
-0.0003204255055
0.0003214028375
-0.0003212372078
-4.054391834e-06
-4.3452897e-06
0.0003160758232
4.058512096e-06
-0.0003157890456
3.431169492e-06
0.0003167597571
-0.0003165305193
-3.660407291e-06
0.0003142322597
4.96689284e-06
-0.0003140664019
0.0003157897045
-0.0003155622954
-4.572698827e-06
-2.464288938e-06
0.0003191441914
2.539256644e-06
-0.0003192191591
0.0003209246643
-0.0003219990892
-5.203551237e-06
0.0003170496697
3.201486526e-06
-0.0003168199867
0.0003182506139
-0.0003180326428
-2.682259988e-06
-0.0003276668472
1.611345545e-06
-2.195219366e-06
0.000328250721
-0.0003259498347
0.0003262484214
2.814151799e-06
0.0003269685585
2.452362342e-06
-0.0003267651256
-2.80009079e-06
2.82826346e-06
-0.0003259780074
2.105722266e-06
-2.440550066e-06
-0.0003273320194
-3.453391509e-06
3.427265399e-06
-0.0003257009161
-3.258044278e-06
-0.0003247820887
0.0003287827111
-2.47034575e-06
-0.0003242066431
0.0003292029242
-0.0003297786061
-3.821249218e-06
-8.424261261e-05
0.0003318480102
-0.0002740729932
0.0003293770646
1.016992013e-06
-0.0003255259957
5.964229456e-06
-5.878327212e-06
0.0003254400934
-0.0003265094535
0.0003255855477
3.126081554e-06
0.0003240342635
3.021782442e-06
-0.0003243149949
-1.447675682e-06
1.541314777e-06
-0.0003266030926
7.195600741e-06
-2.630495208e-05
-0.0003064166443
2.802595942e-06
-0.000322014384
-0.0003238236978
-2.036596096e-06
-3.802373431e-06
3.714383875e-06
-0.000324787317
-3.540227249e-06
-0.0003254729315
0.0003244941991
4.285299867e-06
-0.0003215838982
0.0003246488117
-3.891861218e-06
-0.000324559324
0.000325402933
-0.0003252636691
-3.746609476e-06
-5.120503214e-06
0.0003248804767
0.0003247957683
5.66266026e-06
2.443779845e-06
-2.53774032e-06
0.0003308834656
-0.0003307895052
0.0003300734083
2.847786657e-06
-0.000329919121
0.0003309615687
2.953702073e-06
-0.000330675335
0.0003321684056
-0.0003323895706
-1.526024365e-06
-1.354979398e-06
0.000331415759
-0.0003263597365
0.0003309307434
2.47072802e-06
-0.0003309576916
-4.930620812e-06
-0.0003175888975
0.0006350092856
4.927193175e-06
-1.96100045e-06
0.0006350111257
1.960887492e-06
-0.0006350110127
1.961294024e-06
0.0006381074969
-0.0006381076321
-1.96115882e-06
0.0006302439811
-2.019847733e-06
2.019980623e-06
-0.000630244114
0.000634097514
-0.0006340386778
-2.019836632e-06
-0.0003169018262
-4.935171512e-06
0.0006340365235
0.0006394971073
1.961428699e-06
-0.000639497242
0.0006413485119
-0.0006413483263
-1.961218447e-06
-0.0003203186539
-5.074820968e-06
0.0006412841317
3.30646124e-06
0.0003200412943
-0.0003200408944
-3.306861135e-06
5.48000153e-06
-5.704522046e-06
0.0003198191534
-5.752772112e-06
0.0003201821198
5.99351941e-06
-4.986893643e-06
0.0003201587859
-2.816225312e-06
0.0003188473411
3.113075566e-06
-2.805310633e-06
0.0003184005329
2.876647007e-06
-0.0003184718693
0.0003074756117
4.152936906e-06
-0.0003074819176
2.763139213e-05
0.0003118628021
-0.0002580528182
3.281052645e-05
-0.0004283688979
0.0003049251321
-4.501697341e-06
-0.0003041785571
0.0003056040316
-5.452654645e-06
4.833958244e-06
-5.510429554e-06
0.0003062805029
4.218164241e-06
0.0003075967824
0.0003123121099
-8.135118618e-05
-0.0002574069255
7.017817422e-06
-5.95034004e-06
0.0003112446325
6.98537196e-06
0.0003095961296
3.722740645e-06
0.0003088149288
-0.0003079190408
3.294223079e-06
0.0003083475584
3.382320054e-06
-3.314919161e-06
0.0003102132521
3.816528812e-06
-0.0003107148617
0.0003100119314
-0.0003099132332
-3.830665812e-06
-7.523156231e-06
0.0003084078757
-0.0003170892111
7.912016853e-06
0.0003120824648
1.863914023e-07
8.237673449e-05
-0.000399652337
-0.0003102677982
-1.738060643e-06
2.599894018e-06
-0.0002807147107
0.0003055946847
-3.182883125e-06
-0.0002998119075
-3.25011135e-06
0.0003076392517
0.0003958024401
2.904238986e-05
-0.0004248448299
8.165306104e-05
-2.516969239e-06
0.0003166663483
2.597439678e-05
0.0003158501839
-0.0002601715197
3.557675402e-06
-3.718704783e-06
0.0003113090084
-0.0003111464547
3.390521721e-06
0.0003113136083
3.659794612e-06
-0.0003109454536
4.463335395e-06
-4.484262649e-06
0.0003141694927
-0.0003141485654
4.504017103e-06
0.00031386456
-0.0003139052417
7.505799788e-06
0.0003145928716
-0.0002961242746
4.853746056e-06
0.0003139157606
-0.0003112637069
0.0003098106912
-4.245698575e-06
-0.0003099491395
5.105263835e-06
-5.274479322e-06
0.0003099799067
4.885858597e-06
0.0003104466015
6.677576024e-06
0.0003086149328
-0.0003082718383
6.251871003e-06
0.0003086975433
4.718052136e-06
-0.0003078004109
0.0003114434885
-4.100830915e-06
-0.0003113656079
3.87695535e-06
-4.034262453e-06
0.0003116007956
0.0003113100327
4.782898284e-06
0.0003102771578
-0.000309888087
4.623609967e-06
0.0003100473753
4.317252477e-06
-0.0003098662138
4.629741294e-06
-4.858331104e-06
0.000320415998
0.0003197397367
5.25387936e-06
0.0003201030157
3.174136399e-06
-0.0003199706909
0.0003219325882
-0.0003218647166
-2.942849655e-06
-4.00497363e-06
0.0003216297493
0.0003208227981
4.460712655e-06
3.269006582e-06
-3.484397122e-06
0.0003169751477
-4.011659436e-06
0.0003162316398
3.855842807e-06
-2.885064327e-06
0.0003164457445
2.880353938e-06
-0.0003164410341
3.721647981e-06
-3.807832773e-06
0.0003160752717
-0.0003159890869
3.575467994e-06
0.0003163612574
-0.0003162150774
4.003191544e-06
0.0003138408356
-0.0003133400101
4.092529703e-06
0.0003145914582
-0.0003146807964
3.080124447e-05
0.0004036037319
-0.0004344049764
3.546363624e-06
0.0003165309151
-0.0003165018107
0.0003168216548
3.395521676e-06
-0.0003166708128
0.0003181093278
-0.0003181717291
-2.742909308e-06
-2.816413985e-06
0.0003182508026
0.0003172054691
3.113207159e-06
0.0003253748505
-0.0003251462579
-3.637112525e-06
3.23722741e-06
0.0003256665527
-3.528929625e-06
2.942540078e-06
0.000325830511
0.0003286215892
-4.027218089e-06
-0.0003283800472
5.067963842e-06
-5.442423275e-06
0.0003289960486
4.824169323e-06
0.000328825553
5.812994455e-06
-5.796602938e-06
0.0003297947557
-0.0003288984238
0.000329268995
-0.000326011329
3.411314635e-06
-6.516308334e-06
0.0003333333613
-0.0003302283676
0.0003329346516
-0.0003326895501
0.0003294936719
-3.189419624e-06
-0.000329399929
3.855246973e-06
-4.218249219e-06
0.0003298566742
3.553998336e-06
0.0003300844002
4.520458852e-06
0.0003288554633
-0.0003290826672
0.0003293848769
-0.0003289881497
2.617556856e-05
-8.45289594e-05
0.0003368871514
-0.0002785337605
0.0003345494564
-0.0003148901962
-1.229114581e-07
8.005947384e-08
0.0003356414767
-0.0004225293177
0.0003378774468
-0.0004568952027
0.0003065128279
-0.0003053113077
0.0003940320569
-0.0004243418515
-3.436167658e-06
0.0003211777092
5.332186972e-06
-5.7545362e-06
0.0003172417836
2.741966169e-05
-8.127907938e-05
0.0003159244412
1.455494066e-06
0.0003084630328
-0.0002824988652
-6.660713981e-06
0.0003155703698
-0.0004095268882
0.0003215870948
0.0003076170134
-0.0002887578576
0.0003047005494
-0.0003042453985
3.889098296e-06
-2.816957747e-06
0.0003110897779
-0.0003144778709
0.0003124166292
0.0003073332244
2.881093322e-06
0.0003077463541
0.0003088135666
-2.891779961e-05
8.880083628e-06
-0.0002857000223
0.0003122218237
-0.0002587628888
0.0003102646465
-3.511692542e-05
-0.0002736953788
-0.0004347692624
-0.0003044889355
0.0003066322914
-4.255148921e-06
-0.0003034166697
-0.0002991339316
2.410083128e-06
-2.696566549e-06
0.0003146974664
-0.0003162111101
0.000316104224
-0.0002878406534
0.0003114990021
-0.0003109854842
3.029980659e-06
0.0003118595431
0.0003131001956
4.507166558e-06
-4.532016089e-06
0.0003141277886
-0.000314102939
0.0003142947648
-0.0003142718609
4.622328502e-06
0.0003137614165
-0.000313529999
0.0003139651136
-0.0003138748012
5.443260659e-06
-5.610562893e-06
0.0003090016078
-0.0003090619379
0.0003092307192
-0.0003086870791
0.0003088844969
-0.0003090143569
6.012210052e-06
0.0003091241578
0.0003092316704
4.078310911e-06
-4.184956423e-06
0.0003110195176
-0.0003116131886
0.000311657237
-0.000311879897
0.0003096546425
-0.000309460315
4.406310706e-06
0.0003098719417
0.0003101554962
-0.0003193908961
5.13334648e-06
0.0003194982798
-4.184764298e-06
4.099743282e-06
-0.0003193058751
-4.331042522e-06
-0.0003191991447
-3.951909919e-06
3.804955946e-06
-0.0003198718154
0.0003194943437
-0.0003193465104
0.000319782106
-0.0003195995644
5.944039058e-06
0.0003200191593
-7.472933717e-06
4.539331209e-06
-0.0003166659619
-2.630374485e-05
-0.0003016777139
-4.483753297e-06
-0.0003192089677
0.0003195706639
-0.000319515086
0.0003198728268
-0.0003212143882
3.497388697e-06
0.0003214401482
-3.554850812e-06
3.530395091e-06
-0.0003211899325
-3.579979752e-06
-0.0003212013674
-3.32497152e-06
3.11525718e-06
-0.0003213343127
0.0003211999355
-0.0003209945119
0.0003214272395
-0.0003208935481
4.28020166e-06
0.0003210620279
-3.717833682e-06
3.748973515e-06
-0.000320924688
-0.0003203383833
-3.724443432e-06
-0.0003210927442
0.0003211863351
-0.000321161805
0.000321412145
3.834704583e-06
0.0003156800497
-3.979807587e-06
-0.0003155349467
0.0003158485733
-0.0003158217015
-0.0003160751284
3.830243006e-06
0.0003163033975
-4.289318254e-06
4.062763191e-06
-4.398314161e-06
-3.835544385e-06
3.666282472e-06
0.0003163024905
0.0003164723262
4.007587493e-06
0.0003151106783
-0.0003150257361
0.0003153357677
-0.0003153079878
-1.519547289e-06
0.0003186306148
-2.776119604e-06
-0.0003143349479
0.0003212921973
-0.0002920105001
-0.0003212579989
3.52378972e-06
0.0003202734658
-1.786309287e-06
1.820507721e-06
-2.374853569e-06
-8.266649963e-05
-0.0002656363344
0.00032275774
0.0003210779785
-0.0003169982246
2.971054823e-06
0.0003172286563
-3.377210835e-06
3.200641006e-06
-2.831669056e-06
-0.0003175758273
0.0003173724346
-0.0003170034626
0.0003176612294
3.16963574e-06
-0.0003167775767
-0.0003171823112
0.0003274664919
-2.510893015e-06
-0.0003271508183
2.052053454e-06
-2.34841611e-06
0.0003277628546
1.827624888e-06
0.0003284751496
2.645931862e-06
0.0003265450296
-0.0003269699269
0.0003272674426
-0.0003266666681
2.732179768e-06
-0.0003265705844
-0.0003268591886
3.523501355e-06
0.0003255898098
-0.0003256860458
-0.0003248808008
-3.261622899e-05
0.0003315608084
-0.0003014149252
0.0004161099772
-0.0004487262061
0.0003329121337
-1.044769147e-06
4.668817607e-06
-2.813453893e-06
0.00033105677
0.0003307202248
1.836372031e-06
0.0003293683175
-0.0003315330313
0.0003305559494
-0.0004100609148
8.353340214e-05
0.0003280688274
3.158564935e-05
-0.0004416465642
1.942534164e-06
-0.0002969599774
0.0003271924845
-0.0002699640345
-0.0003224356789
2.553001343e-06
0.0003226852735
-3.082536867e-06
2.856268059e-06
-0.0003222094101
-0.0003219816637
-2.523798964e-06
-0.0003193573647
0.0003227699337
-0.0003224374646
0.000323286339
3.627138874e-06
0.0003251637323
-0.0003250764873
0.0003253923652
-0.0003253054536
4.108165056e-06
0.0003243408843
-0.0003241637495
0.000324487223
-0.0003242709192
0.0003305301085
-2.693072243e-06
-0.0003303747765
2.650634501e-06
-2.952130131e-06
0.0003308316041
2.409994325e-06
0.0003311241058
3.253114461e-06
0.0003303742922
-0.0003303016632
0.0003306026475
-0.0003301469488
0.0003300119323
-2.425258757e-06
-0.000328941653
7.689949704e-07
-1.663924786e-06
0.0003309068621
0.0003322648135
2.04236514e-06
0.0003312983726
-0.0003306755584
0.0003310539988
-0.0003306300891
0
0
0
0
0
0
0
0
0
0
0
0
0
0
0
0
0
0
0
-1.178460659e-07
0
-2.718678206e-05
-2.501910134e-06
2.919047804e-07
1.245443339e-05
0
0
0
-4.637226974e-05
8.569571712e-07
-0.0001103906097
-5.205212166e-06
2.203457721e-06
8.98169477e-05
0
0
0
-0.0001280630775
2.185227294e-06
0
0
0
0
0
0
0
0
0
-4.275202433e-06
0
-0.0001141204601
-1.320999482e-05
6.108622903e-06
6.125582231e-05
0
-1.398583848e-07
-0.0001786035909
1.074473795e-05
-0.0004073625086
-3.308268655e-05
2.269468776e-05
0.0003285557269
5.068387778e-05
-7.070657544e-06
-0.0004845877056
2.437348413e-05
-0.0006816461747
-2.33687151e-05
1.870079829e-05
0.0006239171571
0.0001825701927
-9.204464538e-06
-0.0007289830765
1.4351036e-05
0
0
0
-9.094319196e-05
-1.203690081e-05
5.918065258e-06
3.276403441e-05
0
-3.948252541e-07
-0.0001742854225
1.420103387e-05
-0.0005301700215
-6.386510027e-05
4.871761997e-05
0.0003986821609
0.0001220684835
-2.290679148e-05
-0.0006680552686
5.879578774e-05
-0.001075893137
-8.003774907e-05
6.857883195e-05
0.0009449713159
0.0004646762139
-4.457142984e-05
-0.001197307835
6.445100626e-05
-0.001481344679
-3.422342292e-05
3.303220719e-05
0.001401665247
0.0008096529764
-2.750929309e-05
-0.001544816262
1.958401503e-05
6.19646013e-06
-4.642809496e-05
2.700294066e-06
-0.0003698867202
-5.300143255e-05
4.182964287e-05
0.0002325797276
7.18573609e-05
-2.244503429e-05
-0.0005302324914
6.252395754e-05
-0.001103637305
-0.0001414172672
0.0001326716389
0.0009085524132
0.0005115555259
-8.002094121e-05
-0.00129208775
0.0001288113843
-0.001750559859
-0.0001218118427
0.0001075237006
0.001608697291
0.0011138834
-9.043306283e-05
-0.001871495528
9.277196252e-05
-0.002115614567
-3.26181965e-05
3.258127199e-05
0.002054904888
0.001590185753
-3.440143676e-05
-0.002158812132
1.194414913e-05
6.549086542e-05
-0.0001610457602
1.650189438e-05
-0.0006619282335
-9.519490625e-05
8.776239344e-05
0.0004686816752
0.0002941055732
-6.489674595e-05
-0.0008772196131
0.0001142714967
-0.001532485791
-0.000170848882
0.0001615512976
0.001319105851
0.001010037559
-0.0001425498176
-0.001731765923
0.0001614206393
-0.002213887962
-0.0001306114598
0.0001480046256
0.0020738811
0.001781760437
-0.0001490731769
-0.002311098477
0.000128302764
-0.002361590695
-7.817364108e-05
5.311324211e-05
0.002385293617
0.002169309166
-3.688669956e-05
-0.002340739404
2.344998012e-05
0.0001367184587
-0.0002713260459
3.352613541e-05
-0.0008739842123
-0.0001241187488
0.0001197023703
0.0006478163811
0.0005160809529
-0.0001049394204
-0.001113289327
0.0001474224401
-0.001813702819
-0.0001867098184
0.0001847963973
0.001592417822
0.001402161967
-0.0001825945235
-0.002014014496
0.0001821574813
-0.00240252866
-0.0001057986298
0.0001089645229
0.002320075787
0.002140479246
-0.0001163328569
-0.002436570723
8.067716839e-05
1.048387742e-05