/*--------------------------------*- C++ -*----------------------------------*\
| =========                 |                                                 |
| \\      /  F ield         | OpenFOAM: The Open Source CFD Toolbox           |
|  \\    /   O peration     | Version:  v2012                                 |
|   \\  /    A nd           | Website:  www.openfoam.com                      |
|    \\/     M anipulation  |                                                 |
\*---------------------------------------------------------------------------*/
FoamFile
{
    version     2.0;
    format      ascii;
    class       surfaceVectorField;
    location    "2.95";
    object      Uf;
}
// * * * * * * * * * * * * * * * * * * * * * * * * * * * * * * * * * * * * * //

dimensions      [0 1 -1 0 0 0 0];


internalField   nonuniform List<vector> 
6430
(
(101.4924054 -0.4419069643 6.124369838e-20)
(101.7471668 -0.22852381 3.651981604e-21)
(101.388482 -0.8961485725 -5.582560266e-20)
(101.6826944 -0.6910640695 5.764013284e-20)
(101.2064435 -1.374338021 -1.076476841e-19)
(101.55693 -1.168719259 -1.161424385e-19)
(100.8345052 -1.860646576 -1.598464676e-21)
(101.3480321 -1.696177317 -2.311124993e-22)
(101.0147051 -1.918849635 3.34072598e-19)
(100.5835744 -1.932411035 -9.153018597e-22)
(100.8318637 -2.039489123 2.327936241e-19)
(100.5970592 -2.12193003 -9.185224136e-22)
(100.0912559 -2.509746968 0)
(100.3675773 -2.425069258 0)
(100.404905 -2.65177027 0)
(100.1120347 -2.754440517 0)
(99.49906336 -3.215431481 1.413690933e-20)
(99.8315275 -3.114984454 8.253415231e-21)
(99.87916101 -3.396736526 -1.759845257e-19)
(99.42843285 -3.475563425 4.017418224e-19)
(99.5684701 -3.537194378 -3.482436488e-19)
(98.7614188 -3.914030054 5.462471798e-19)
(98.98491788 -3.867056909 8.095553336e-19)
(98.98573254 -4.015960205 4.434196941e-19)
(98.74662305 -4.074153298 1.583145477e-18)
(97.62348074 -4.794466627 4.560366039e-21)
(97.91600407 -4.740756861 -3.125561116e-19)
(97.90611796 -4.916770421 -3.198575891e-19)
(97.60123225 -4.986958641 -6.323393575e-19)
(96.15959515 -5.918296498 1.396301528e-20)
(96.53316116 -5.838155299 1.011887171e-20)
(96.51796974 -6.065651791 -1.004786335e-20)
(96.12992519 -6.169781436 -4.737878286e-19)
(94.26165865 -7.504837674 -4.215458174e-20)
(94.73910382 -7.364481166 -3.089400181e-19)
(94.71465516 -7.70266121 -9.07401874e-20)
(94.13056591 -7.803386587 -1.937612342e-20)
(94.29265441 -7.853107968 -1.542505254e-18)
(92.33176472 -9.340604624 -2.56445205e-19)
(92.47798968 -9.319459013 -5.455248328e-19)
(92.45935347 -9.420855543 2.507830126e-19)
(92.33057366 -9.450649378 -2.560715919e-19)
(101.9328655 -0.4768068508 0)
(102.1950787 -0.2424624293 0)
(101.8466968 -0.9671020719 0)
(102.1432521 -0.7343152978 0)
(101.6957415 -1.485113095 0)
(102.043549 -1.240511052 0)
(101.372479 -2.022803749 0)
(101.8762239 -1.793145354 0)
(101.5669099 -2.071954036 0)
(101.1226848 -2.129895259 2.329832982e-19)
(101.400808 -2.198495927 0)
(101.1686371 -2.318884978 0)
(100.7173764 -2.769721633 0)
(100.980561 -2.64921958 0)
(101.0522218 -2.858445405 0)
(100.7771818 -3.005646575 0)
(100.2487573 -3.543663745 -2.939879355e-19)
(100.5584244 -3.393556659 -1.116018138e-19)
(100.6477633 -3.642814979 -4.739928383e-22)
(100.2342519 -3.790911392 -3.912754007e-19)
(100.3808362 -3.823175551 -8.200385615e-20)
(99.66414682 -4.275896676 2.687608354e-19)
(99.87269068 -4.203263938 0)
(99.90209119 -4.337289011 3.062892527e-20)
(99.68105468 -4.422170267 0)
(98.75204779 -5.213384732 0)
(99.01874408 -5.125018997 -6.21564385e-19)
(99.0460643 -5.278070301 -2.581209481e-19)
(98.77043258 -5.383168018 2.69029129e-19)
(97.59779687 -6.408518512 1.577919954e-19)
(97.93679952 -6.276958315 -1.867053642e-19)
(97.97303863 -6.472019825 -1.532996519e-19)
(97.62527779 -6.629322986 -2.504684988e-20)
(96.13431537 -8.154254894 -2.361495043e-19)
(96.57427781 -7.930662189 -5.040942913e-19)
(96.6482248 -8.20935266 2.123156149e-19)
(96.10602349 -8.447399428 2.918227984e-19)
(96.30043203 -8.473084338 -9.408153298e-19)
(94.79943361 -10.51135891 -1.684147699e-19)
(95.03427858 -10.43515239 1.750200099e-19)
(95.14499055 -10.66263077 -1.185913432e-19)
(94.71311237 -10.65240339 4.048317483e-19)
(94.7365505 -10.82655731 9.914885979e-19)
(94.87719268 -10.85531219 -4.570410675e-19)
(102.4006287 -0.4988926846 0)
(102.6637379 -0.2500033474 0)
(102.3338885 -1.010942265 0)
(102.6242446 -0.757698477 0)
(102.2159584 -1.549626922 0)
(102.5495888 -1.278806645 0)
(101.9440722 -2.113407536 0)
(102.4208627 -1.837673778 0)
(102.14317 -2.145393642 0)
(101.699328 -2.249028027 0)
(101.99478 -2.281862113 0)
(101.7767418 -2.427936486 0)
(101.3913977 -2.919959973 0)
(101.6348042 -2.768597969 0)
(101.7320218 -2.956456595 0)
(101.4845069 -3.13117622 0)
(101.0445048 -3.702961902 1.315641852e-19)
(101.3244693 -3.520500849 2.514853184e-20)
(101.4372567 -3.730192281 -8.675290971e-21)
(101.0743783 -3.922931268 -3.402426897e-19)
(101.2182911 -3.944772163 1.630908074e-20)
(100.6134622 -4.450732023 -5.72404696e-20)
(100.8000746 -4.354175667 1.583112156e-19)
(100.8470414 -4.46805906 -2.049156996e-19)
(100.6540295 -4.573933409 -9.589015331e-20)
(99.91492303 -5.382460547 -1.150514086e-19)
(100.1494336 -5.270128265 -2.301167623e-19)
(100.1976012 -5.390760128 9.88153675e-20)
(99.96261475 -5.521802354 2.213194016e-19)
(99.0700933 -6.525242496 -2.690314599e-20)
(99.35448867 -6.362644163 -1.965816608e-20)
(99.41756912 -6.504578256 2.175017113e-19)
(99.13899087 -6.685843981 -8.5201034e-20)
(98.15190042 -8.107174239 2.916409263e-19)
(98.49126239 -7.83847158 1.868999131e-19)
(98.61237358 -8.00387766 1.136312982e-19)
(98.31059126 -8.302951037 -9.015647469e-20)
(97.91109491 -10.41366266 -4.634081905e-20)
(98.00964611 -9.948913273 3.614281071e-19)
(97.77422844 -10.17416256 2.950491985e-21)
(92.60179463 -9.58447301 -4.896656159e-20)
(97.71090911 -10.64378531 2.102807489e-20)
(102.8827128 -0.5081830145 0)
(103.1411522 -0.2517058234 0)
(102.8343068 -1.02817235 0)
(103.1127238 -0.7626786608 0)
(102.7475303 -1.571595076 0)
(103.0601091 -1.286023848 0)
(102.5241848 -2.146399166 0)
(102.9657061 -1.836743767 0)
(102.7207904 -2.156706167 0)
(102.2917585 -2.298836776 0)
(102.5889776 -2.301297199 0)
(102.3906244 -2.462809266 0)
(102.069443 -2.970165125 0)
(102.2890739 -2.799568524 0)
(102.4018415 -2.963264834 0)
(102.183496 -3.15339087 0)
(101.8223408 -3.726533766 -3.431708595e-20)
(102.0709565 -3.529037032 -7.22030472e-22)
(102.1962473 -3.695184577 -7.220561981e-22)
(101.8807294 -3.934521647 2.496944497e-21)
(102.01223 -3.919590087 -4.800874488e-22)
(101.5240964 -4.462082555 -2.099224922e-19)
(101.6816787 -4.35148073 4.119150444e-19)
(101.7380523 -4.443040338 1.015786472e-19)
(101.5754305 -4.562306383 3.585493992e-19)
(100.9955908 -5.346893731 -1.069122358e-20)
(101.1921038 -5.218756035 -1.775141677e-19)
(101.2447312 -5.310215956 3.730016626e-19)
(101.0502982 -5.448055044 1.230523741e-20)
(100.3771869 -6.352888447 2.69621752e-19)
(100.6026948 -6.186759948 3.66701419e-19)
(100.6660973 -6.278070896 3.556761741e-19)
(100.451914 -6.455230833 6.08023061e-19)
(99.7962642 -7.572184559 -5.482897915e-19)
(100.0300392 -7.333285365 9.635595185e-20)
(100.1253267 -7.401307511 -2.403470606e-19)
(99.93289895 -7.650369344 -3.733665954e-19)
(96.97820241 -8.674500926 -8.886816958e-21)
(98.19886224 -8.489000647 -1.689646846e-19)
(96.28059071 -8.116975776 -7.911127606e-20)
(93.16799234 -7.894268761 1.699500196e-19)
(103.3671909 -0.5061611788 0)
(103.6166395 -0.2484709818 0)
(103.3343095 -1.022326537 0)
(103.5975825 -0.7521209366 0)
(103.2738713 -1.557846023 0)
(103.5631755 -1.266935054 0)
(103.0935066 -2.129916828 0)
(103.497156 -1.798080397 0)
(103.2820394 -2.117243314 0)
(102.8781441 -2.289864899 0)
(103.165634 -2.266808381 0)
(102.9889664 -2.435969515 0)
(102.7253048 -2.937880502 0)
(102.919828 -2.757914415 0)
(103.0389201 -2.896394042 0)
(102.8490207 -3.091742947 0)
(102.5560338 -3.640832065 0)
(102.7725034 -3.440971617 0)
(102.8989246 -3.567507388 0)
(102.6246856 -3.82616042 0)
(102.7426862 -3.785848937 0)
(102.3417455 -4.334270796 -4.044172199e-20)
(102.4738096 -4.212099009 -2.962112239e-23)
(102.529684 -4.281826608 -1.169776447e-21)
(102.3940142 -4.410107208 -1.156771582e-21)
(101.928644 -5.142370415 -6.263551666e-19)
(102.0905351 -5.007840624 7.435586628e-20)
(102.1335344 -5.068063098 2.743429205e-19)
(101.9734828 -5.209313085 2.897298612e-19)
(101.4172962 -5.983955824 -5.89702789e-19)
(101.5939865 -5.824260539 6.998858769e-20)
(101.6297098 -5.869329673 -9.427054097e-19)
(101.4619441 -6.032990625 7.015259589e-20)
(100.9956701 -6.883613879 -5.295705973e-19)
(101.1489652 -6.68453598 4.596276774e-20)
(101.2509561 -6.714235906 -4.627208214e-19)
(101.1193508 -6.925443652 -4.395613975e-19)
(93.9750234 -6.726818488 -9.426547554e-20)
(95.86661672 -6.826847536 9.541535677e-20)
(93.5818807 -6.444449413 -3.150762285e-19)
(93.40597994 -6.802527713 0)
(103.84397 -0.494880107 0)
(104.0815293 -0.2412912138 0)
(103.8233569 -0.9977132688 0)
(104.0699176 -0.7292407946 0)
(103.7835227 -1.515230618 0)
(104.0493308 -1.227054689 0)
(103.6382466 -2.071158422 0)
(104.0048857 -1.730447059 0)
(103.815196 -2.040269832 0)
(103.4415269 -2.23241536 0)
(103.7126919 -2.189759722 0)
(103.5565207 -2.359832191 0)
(103.3400012 -2.841378801 0)
(103.510858 -2.660244106 0)
(103.6287307 -2.775286718 0)
(103.4637185 -2.96758296 0)
(103.2233227 -3.478873888 0)
(103.4103281 -3.284067723 0)
(103.5286435 -3.378436103 0)
(103.2899464 -3.636235056 0)
(103.3932064 -3.581976572 0)
(103.0517582 -4.092782291 0)
(103.1643846 -3.9734756 0)
(103.2124783 -4.022787344 0)
(103.0970446 -4.144589287 0)
(102.6835391 -4.801208248 6.303483444e-20)
(102.8219567 -4.665770615 0)
(102.8477866 -4.700817739 -2.722004255e-20)
(102.7079765 -4.839079723 2.803252401e-20)
(102.1728169 -5.494087467 4.902479447e-19)
(102.3208573 -5.345824851 2.611698335e-20)
(102.3289431 -5.361652918 -1.662789277e-19)
(102.190606 -5.511517672 -4.123651476e-19)
(101.7475143 -6.190775678 8.402265101e-21)
(101.8783162 -6.014287764 -8.361373313e-21)
(101.7689941 -6.002626998 -2.994497381e-19)
(101.2813159 -6.132430814 7.195408065e-21)
(94.45393556 -6.087282462 -3.011544821e-20)
(94.94335945 -5.896814564 4.86211899e-19)
(95.21425956 -6.024597914 -2.541401264e-19)
(96.33094888 -6.410910898 -4.017205703e-19)
(104.3052373 -0.4764531823 0)
(104.5291089 -0.231149202 0)
(104.2936463 -0.9587256024 0)
(104.5229391 -0.6972054951 0)
(104.268659 -1.450984463 0)
(104.5117582 -1.171864477 0)
(104.1496371 -1.98061757 0)
(104.4821082 -1.642714229 0)
(104.3131722 -1.937368253 0)
(103.9708414 -2.138749799 0)
(104.2224772 -2.082728279 0)
(104.0841451 -2.24850114 0)
(103.9033392 -2.700408468 0)
(104.0534297 -2.524184594 0)
(104.1647321 -2.618794909 0)
(104.0199 -2.802424808 0)
(103.8152092 -3.269604938 0)
(103.9780826 -3.084590148 0)
(104.0832485 -3.155395439 0)
(103.8712515 -3.399353606 0)
(103.9600119 -3.340512321 0)
(103.6557006 -3.800382582 0)
(103.7542864 -3.690024421 0)
(103.7914706 -3.723615351 0)
(103.6893736 -3.834540867 0)
(103.291055 -4.387417772 0)
(103.4148614 -4.264128225 0)
(103.4233624 -4.28277204 0)
(103.2968558 -4.404955984 0)
(102.7484188 -4.953103021 2.209782886e-20)
(102.8847039 -4.817001718 0)
(102.8747893 -4.817052709 0)
(102.7506378 -4.951506627 -1.896262548e-20)
(101.507169 -5.410963755 6.113275445e-20)
(101.8947497 -5.279460603 9.697192494e-20)
(101.4204137 -5.219437451 6.090710179e-20)
(100.3322977 -5.27297898 -5.75192845e-21)
(97.41159848 -5.689903163 -8.339621708e-20)
(96.62862825 -5.393275817 1.023912424e-19)
(97.91318877 -5.52625402 3.867747229e-20)
(98.83311912 -5.730712115 4.338227606e-21)
(104.7453111 -0.452938538 0)
(104.9545988 -0.2189833174 0)
(104.7396395 -0.9097049429 0)
(104.9520016 -0.6590161563 0)
(104.7240948 -1.372188994 0)
(104.9462152 -1.106485221 0)
(104.6230127 -1.869101407 0)
(104.9252546 -1.54276423 0)
(104.7725329 -1.818744498 0)
(104.4604625 -2.021099865 0)
(104.6913898 -1.957161943 0)
(104.5678457 -2.114939276 0)
(104.4118105 -2.532365481 0)
(104.5447909 -2.365094813 0)
(104.6459481 -2.442786301 0)
(104.5165415 -2.614323207 0)
(104.3331058 -3.038042345 0)
(104.4772893 -2.863343658 0)
(104.565764 -2.9191835 0)
(104.3740907 -3.13741146 0)
(104.450408 -3.084631062 0)
(104.1650434 -3.490613834 0)
(104.2543795 -3.390554698 0)
(104.2794863 -3.413030367 0)
(104.1858168 -3.512370194 0)
(103.7801039 -3.974604805 0)
(103.8944433 -3.866685726 0)
(103.8870329 -3.874573374 0)
(103.768834 -3.980500875 0)
(103.2090951 -4.424267609 0)
(103.3344542 -4.308272305 0)
(103.3066385 -4.299557043 0)
(103.1861333 -4.412097368 0)
(101.3265932 -4.700887185 0)
(101.9172454 -4.617324244 0)
(101.2925844 -4.54505542 0)
(100.0524498 -4.58112455 0)
(98.74434254 -5.007912521 0)
(97.68768406 -4.776546049 0)
(98.93762176 -4.847724613 0)
(99.61086667 -4.982272169 0)
(105.1604626 -0.4262326578 0)
(105.3550246 -0.2056293451 0)
(105.1579357 -0.8545687945 0)
(105.3543815 -0.6173355205 0)
(105.147078 -1.285024077 0)
(105.3506079 -1.035412814 0)
(105.056879 -1.745603445 0)
(105.3330712 -1.436964621 0)
(105.1927571 -1.692641366 0)
(104.9084505 -1.889889726 0)
(105.1191501 -1.822361481 0)
(105.0071923 -1.969881524 0)
(104.8664982 -2.351495887 0)
(104.9860394 -2.195377835 0)
(105.0750694 -2.25965171 0)
(104.9568021 -2.417366269 0)
(104.7822803 -2.800159238 0)
(104.9132294 -2.636343568 0)
(104.9837399 -2.682040368 0)
(104.8072727 -2.873266581 0)
(104.8727966 -2.828305861 0)
(104.5944301 -3.183611292 0)
(104.6780567 -3.093996477 0)
(104.6911027 -3.108802265 0)
(104.6023878 -3.196896907 0)
(104.1769187 -3.585104527 0)
(104.2857766 -3.491090886 0)
(104.2643729 -3.492499512 0)
(104.1509923 -3.584177095 0)
(103.564503 -3.946188658 0)
(103.6859418 -3.848175976 0)
(103.6403933 -3.835226391 0)
(103.5142038 -3.928953465 0)
(101.1748241 -4.119308787 0)
(101.8754616 -4.0605173 0)
(101.1314938 -3.988743222 0)
(99.85671958 -4.014395605 0)
(99.40687912 -4.402961606 0)
(98.39439052 -4.225908748 0)
(99.53318312 -4.265812513 0)
(100.0035677 -4.360346548 0)
(105.5486383 -0.3979503118 0)
(105.7288587 -0.1917783599 0)
(105.5469715 -0.796581395 0)
(105.7288347 -0.5743496029 0)
(105.5369025 -1.194515655 0)
(105.7244269 -0.962345343 0)
(105.4519987 -1.61819656 0)
(105.7061843 -1.330216371 0)
(105.5749056 -1.565200434 0)
(105.315765 -1.753275498 0)
(105.5069638 -1.685407175 0)
(105.4040652 -1.821740721 0)
(105.2711938 -2.168265852 0)
(105.380545 -2.024235313 0)
(105.4565212 -2.078097709 0)
(105.3460235 -2.221507442 0)
(105.1711465 -2.565673261 0)
(105.2934731 -2.413969462 0)
(105.3455144 -2.451643179 0)
(105.180432 -2.618798603 0)
(105.2369649 -2.580398018 0)
(104.9577082 -2.891117874 0)
(105.0381114 -2.811445762 0)
(105.0397856 -2.821124141 0)
(104.9536874 -2.89883099 0)
(104.503139 -3.227313247 0)
(104.6090085 -3.145471313 0)
(104.5756794 -3.14323702 0)
(104.4648817 -3.222701161 0)
(103.8427357 -3.522241308 0)
(103.9651474 -3.43898219 0)
(103.9026956 -3.424327467 0)
(103.7655225 -3.50281821 0)
(100.9950278 -3.626958321 0)
(101.7878951 -3.584129621 0)
(100.9485098 -3.515558737 0)
(99.68154217 -3.534603368 0)
(99.84051024 -3.884260183 0)
(98.93677057 -3.748651336 0)
(99.92276533 -3.766425036 0)
(100.2474058 -3.836223873 0)
(105.9091718 -0.3693699252 0)
(106.0758444 -0.1779659934 0)
(105.9066096 -0.7382927192 0)
(106.0753814 -0.5317211198 0)
(105.8943649 -1.104419573 0)
(106.0683661 -0.8900884785 0)
(105.8103716 -1.492110884 0)
(106.0463323 -1.226133248 0)
(105.9213427 -1.440910418 0)
(105.6844535 -1.61729181 0)
(105.8575032 -1.551381476 0)
(105.7614534 -1.67633418 0)
(105.6307738 -1.989773109 0)
(105.7326747 -1.857954765 0)
(105.7954919 -1.903732067 0)
(105.6901629 -2.033289322 0)
(105.5083395 -2.34060549 0)
(105.625876 -2.202858814 0)
(105.660436 -2.233229783 0)
(105.5025952 -2.382777929 0)
(105.551259 -2.346778162 0)
(105.2667355 -2.619554851 0)
(105.3454842 -2.549053561 0)
(105.3368389 -2.555270133 0)
(105.2519282 -2.623690435 0)
(104.7752101 -2.903994766 0)
(104.8796026 -2.832641496 0)
(104.836288 -2.828569428 0)
(104.72668 -2.897667775 0)
(104.063494 -3.148673579 0)
(104.190179 -3.077620457 0)
(104.1113859 -3.062590726 0)
(103.9600364 -3.128608388 0)
(100.8098047 -3.206181849 0)
(101.6772117 -3.174842865 0)
(100.7646172 -3.11080373 0)
(99.53719391 -3.12673311 0)
(100.1217307 -3.438501876 0)
(99.34982581 -3.335026214 0)
(100.174626 -3.337222477 0)
(100.3979826 -3.391340975 0)
(106.2424614 -0.3414450315 0)
(106.3965975 -0.1645935106 0)
(106.2377142 -0.6815814778 0)
(106.3948878 -0.490663358 0)
(106.221169 -1.01743273 0)
(106.3838644 -0.8206613343 0)
(106.1348366 -1.371015386 0)
(106.355853 -1.127254577 0)
(106.2349881 -1.322826231 0)
(106.017507 -1.486156145 0)
(106.1739622 -1.42375464 0)
(106.083009 -1.53757261 0)
(105.9504355 -1.820369487 0)
(106.0470883 -1.700510004 0)
(106.0970331 -1.739970366 0)
(105.9949229 -1.856556116 0)
(105.8026781 -2.129967873 0)
(105.9177271 -2.006225933 0)
(105.9358553 -2.031101645 0)
(105.7821857 -2.164506791 0)
(105.8244722 -2.131493734 0)
(105.531494 -2.371402541 0)
(105.6096854 -2.309091791 0)
(105.591917 -2.313135582 0)
(105.5072588 -2.373407337 0)
(105.0055285 -2.614907937 0)
(105.1093413 -2.552543062 0)
(105.0577307 -2.547806276 0)
(104.9483912 -2.608106996 0)
(104.2403892 -2.820612432 0)
(104.3735938 -2.759792578 0)
(104.278985 -2.745141341 0)
(104.111647 -2.800873879 0)
(100.6345897 -2.845703872 0)
(101.5589875 -2.822626332 0)
(100.5935268 -2.763905542 0)
(99.42884646 -2.77891802 0)
(100.3018822 -3.055311435 0)
(99.66079802 -2.976065836 0)
(100.3355322 -2.968218 0)
(100.4884344 -3.011882817 0)
(106.5496397 -0.3148575178 0)
(106.6923914 -0.1519484274 0)
(106.5417953 -0.6277743343 0)
(106.6888425 -0.4520227487 0)
(106.5194991 -0.9354106751 0)
(106.6728744 -0.7554432595 0)
(106.4284918 -1.257328417 0)
(106.6374258 -1.035244164 0)
(106.5189637 -1.212934951 0)
(106.3182196 -1.362673077 0)
(106.4597186 -1.304763429 0)
(106.3724366 -1.407963851 0)
(106.2350801 -1.662783239 0)
(106.328224 -1.554345147 0)
(106.3658826 -1.588949931 0)
(106.2654178 -1.693578149 0)
(106.0607164 -1.936795313 0)
(106.1748387 -1.826163839 0)
(106.1779244 -1.847133371 0)
(106.0264407 -1.965849659 0)
(106.0634563 -1.936026561 0)
(105.7603899 -2.14746446 0)
(105.8387268 -2.092415432 0)
(105.8129465 -2.095234775 0)
(105.7280041 -2.148357791 0)
(105.203312 -2.358440665 0)
(105.3071022 -2.303799148 0)
(105.2485132 -2.299157386 0)
(105.138749 -2.351911164 0)
(104.3833051 -2.533362634 0)
(104.524503 -2.481196566 0)
(104.4146295 -2.46740153 0)
(104.2303502 -2.514538221 0)
(100.4785052 -2.536592408 0)
(101.4433632 -2.519400989 0)
(100.4430925 -2.466454661 0)
(99.35659024 -2.481706968 0)
(100.4159865 -2.725937977 0)
(99.89242718 -2.664762283 0)
(100.437091 -2.651110385 0)
(100.539825 -2.687225883 0)
(106.832325 -0.2900736148 0)
(106.9648863 -0.1402279702 0)
(106.8207701 -0.5777615326 0)
(106.9590815 -0.4163644671 0)
(106.7917913 -0.859553491 0)
(106.9375894 -0.6953343275 0)
(106.6945104 -1.152529485 0)
(106.8937989 -0.9511172728 0)
(106.7763936 -1.112401396 0)
(106.5899655 -1.248571307 0)
(106.7181391 -1.195708261 0)
(106.6333717 -1.288979083 0)
(106.4892612 -1.518585206 0)
(106.5802524 -1.420809807 0)
(106.6063723 -1.451748814 0)
(106.5063903 -1.545468916 0)
(106.2881355 -1.762131385 0)
(106.4024659 -1.663462015 0)
(106.3918901 -1.681790075 0)
(106.2412746 -1.787212607 0)
(106.2739194 -1.760622315 0)
(105.9601911 -1.947422064 0)
(106.0390917 -1.898779991 0)
(106.0063422 -1.901051837 0)
(105.920828 -1.947915696 0)
(105.3753094 -2.132334506 0)
(105.4794855 -2.084364367 0)
(105.4148847 -2.080278198 0)
(105.3041345 -2.126498115 0)
(104.4995639 -2.282576975 0)
(104.6497184 -2.237781487 0)
(104.525135 -2.225125722 0)
(104.323516 -2.265005645 0)
(100.3462265 -2.271648692 0)
(101.3366231 -2.258533348 0)
(100.3171185 -2.211599368 0)
(99.31776499 -2.227542923 0)
(100.4869694 -2.443014467 0)
(100.0630925 -2.395314768 0)
(100.499819 -2.37879468 0)
(100.5654537 -2.408995067 0)
(107.0924607 -0.2673898411 0)
(107.216072 -0.1295543939 0)
(107.0768134 -0.5320943228 0)
(107.2077311 -0.3840255647 0)
(107.0406076 -0.790566252 0)
(107.1803977 -0.6408561774 0)
(106.9359712 -1.05742437 0)
(107.1277604 -0.875396878 0)
(107.0103139 -1.021816987 0)
(106.8359857 -1.144816262 0)
(106.95241 -1.097265271 0)
(106.8692131 -1.181366109 0)
(106.7170434 -1.388474937 0)
(106.8069385 -1.30050291 0)
(106.8223461 -1.328745943 0)
(106.7219879 -1.412592586 0)
(106.4897498 -1.606048083 0)
(106.6050895 -1.518161412 0)
(106.5821946 -1.534830535 0)
(106.4315617 -1.628287635 0)
(106.4605812 -1.604865565 0)
(106.1363007 -1.770364959 0)
(106.2159944 -1.727354635 0)
(106.1772398 -1.729548972 0)
(106.0910049 -1.770941249 0)
(105.5264879 -1.934188349 0)
(105.6313917 -1.892010943 0)
(105.5614945 -1.888744503 0)
(105.4493009 -1.929280582 0)
(104.5946653 -2.064425654 0)
(104.7543884 -2.025943107 0)
(104.6156556 -2.014586314 0)
(104.3967104 -2.048290401 0)
(100.23936 -2.044843451 0)
(101.2422795 -2.034563199 0)
(100.2166087 -1.993486251 0)
(99.30832115 -2.010340665 0)
(100.5293961 -2.200291699 0)
(100.1872481 -2.162730361 0)
(100.5367035 -2.145266648 0)
(100.5737597 -2.170510234 0)
(107.3322013 -0.2469744475 0)
(107.4480795 -0.1199971104 0)
(107.3122481 -0.4910713726 0)
(107.4370229 -0.3551842354 0)
(107.2685463 -0.7287931832 0)
(107.4037133 -0.592271492 0)
(107.1558502 -0.9723424103 0)
(107.342004 -0.8082898483 0)
(107.2236246 -0.9413731195 0)
(107.0594009 -1.051818783 0)
(107.1655651 -1.009647935 0)
(107.0831614 -1.085361526 0)
(106.9220963 -1.272553281 0)
(107.0117236 -1.193500761 0)
(107.0172637 -1.219845264 0)
(106.9158934 -1.294801973 0)
(106.6696912 -1.468045846 0)
(106.786592 -1.389820431 0)
(106.7526451 -1.405589602 0)
(106.601409 -1.488319879 0)
(106.6274246 -1.467938845 0)
(106.2930871 -1.615024755 0)
(106.3736797 -1.576964555 0)
(106.3297718 -1.579415122 0)
(106.2427422 -1.616012527 0)
(105.6606749 -1.761632736 0)
(105.766591 -1.724516683 0)
(105.6919361 -1.722225881 0)
(105.5779357 -1.757791065 0)
(104.6728877 -1.875529971 0)
(104.8425302 -1.842490203 0)
(104.6902234 -1.832516989 0)
(104.4542823 -1.860942296 0)
(100.1575847 -1.851107263 0)
(101.1619958 -1.842930152 0)
(100.1409 -1.807348796 0)
(99.32369383 -1.825170652 0)
(100.5524616 -1.992585309 0)
(100.2762344 -1.962793548 0)
(100.5559399 -1.945616683 0)
(100.570183 -1.966495766 0)
(107.5537669 -0.2289078093 0)
(107.6631153 -0.1115876111 0)
(107.5294118 -0.4548214935 0)
(107.6492344 -0.3299071053 0)
(107.4781318 -0.6743467695 0)
(107.6099351 -0.5496646845 0)
(107.3569303 -0.897317071 0)
(107.5391092 -0.7497919049 0)
(107.4190408 -0.8710176543 0)
(107.2631134 -0.9696456909 0)
(107.3604139 -0.9328081909 0)
(107.2781491 -1.000900122 0)
(107.1076677 -1.170586971 0)
(107.1976886 -1.099589443 0)
(107.194192 -1.124714879 0)
(107.0913189 -1.191690399 0)
(106.8314463 -1.347342086 0)
(106.9502698 -1.277777027 0)
(106.9063993 -1.29315359 0)
(106.7542509 -1.366336611 0)
(106.7778145 -1.348800625 0)
(106.4340589 -1.480026155 0)
(106.5155914 -1.446331456 0)
(106.4672492 -1.449294248 0)
(106.379381 -1.481659941 0)
(105.7808619 -1.612472046 0)
(105.8880193 -1.579815734 0)
(105.8090122 -1.578599306 0)
(105.6929255 -1.609778883 0)
(104.737632 -1.712928986 0)
(104.9173295 -1.684617516 0)
(104.7520447 -1.676073993 0)
(104.4996657 -1.6999584 0)
(100.0993892 -1.68640651 0)
(101.096194 -1.679853268 0)
(100.088291 -1.649356703 0)
(99.359451 -1.668040072 0)
(100.5620124 -1.815709443 0)
(100.3388625 -1.792006636 0)
(100.5627741 -1.775884942 0)
(100.5582896 -1.792817394 0)
(107.7594748 -0.2132081696 0)
(107.8634144 -0.1043349242 0)
(107.7306923 -0.4233574515 0)
(107.8466491 -0.3081923679 0)
(107.6718697 -0.6271797892 0)
(107.8014167 -0.5130022809 0)
(107.5418431 -0.8322396409 0)
(107.7215744 -0.6998001781 0)
(107.5991192 -0.8105683062 0)
(107.4498299 -0.8981608493 0)
(107.5395567 -0.8665334641 0)
(107.4568789 -0.9277488733 0)
(107.2766655 -1.082182716 0)
(107.3676271 -1.018403862 0)
(107.3559135 -1.042907401 0)
(107.2511323 -1.102749773 0)
(106.9778292 -1.24285629 0)
(107.0989376 -1.181411635 0)
(107.0461408 -1.196329703 0)
(106.8930114 -1.262086486 0)
(106.9145402 -1.246164639 0)
(106.5620466 -1.364102079 0)
(106.6445413 -1.334302258 0)
(106.5923371 -1.337960062 0)
(106.5035965 -1.366544037 0)
(105.889403 -1.484775142 0)
(105.997995 -1.456086843 0)
(105.9149499 -1.456010756 0)
(105.7965541 -1.483278879 0)
(104.7915871 -1.574070339 0)
(104.9813057 -1.549911808 0)
(104.8036443 -1.542817965 0)
(104.5355575 -1.562745384 0)
(100.0628432 -1.547417086 0)
(101.0447107 -1.542154975 0)
(100.056892 -1.516387318 0)
(99.41173242 -1.535820329 0)
(100.5619611 -1.666220196 0)
(100.3819595 -1.647373349 0)
(100.5608025 -1.632783838 0)
(100.5405745 -1.646140199 0)
(107.9513657 -0.1998682377 0)
(108.0511704 -0.09822765588 0)
(107.9181867 -0.3966343837 0)
(108.0314809 -0.2899900734 0)
(107.8519343 -0.5871668412 0)
(107.9804027 -0.4821835826 0)
(107.7129648 -0.776722022 0)
(107.8916456 -0.6580759596 0)
(107.7662113 -0.7596967053 0)
(107.622032 -0.8370960794 0)
(107.705451 -0.8105447082 0)
(107.6218456 -0.8655272756 0)
(107.431754 -1.006827855 0)
(107.5241021 -0.9494864537 0)
(107.5049469 -0.9738568291 0)
(107.3979821 -1.027396749 0)
(107.1116404 -1.153534845 0)
(107.2353295 -1.099976179 0)
(107.1746456 -1.114452474 0)
(107.020046 -1.174754254 0)
(107.0398607 -1.159346775 0)
(106.6792479 -1.266103979 0)
(106.7626915 -1.239801961 0)
(106.707124 -1.24427628 0)
(106.6174794 -1.269480711 0)
(105.9881928 -1.376974625 0)
(106.0983865 -1.351855667 0)
(106.0115556 -1.352984988 0)
(105.8906629 -1.376728749 0)
(104.8367671 -1.45691131 0)
(105.0363642 -1.436473224 0)
(104.8468526 -1.430809591 0)
(104.5638818 -1.447210681 0)
(100.0464125 -1.431706607 0)
(101.0075543 -1.427358223 0)
(100.0453511 -1.406184804 0)
(99.47737841 -1.426228119 0)
(100.5552158 -1.541336594 0)
(100.4108742 -1.526429175 0)
(100.5527694 -1.513702662 0)
(100.5189819 -1.523824634 0)
(108.132392 -0.1888270351 0)
(108.2285543 -0.09327365624 0)
(108.0948071 -0.3745434768 0)
(108.2059332 -0.2752810715 0)
(108.0212233 -0.5540849563 0)
(108.1490637 -0.4571007996 0)
(107.8728162 -0.7307719917 0)
(108.0517706 -0.6246513351 0)
(107.9226497 -0.7183074343 0)
(107.7821418 -0.7861570173 0)
(107.8602412 -0.7644581283 0)
(107.7753767 -0.8139141254 0)
(107.5753236 -0.943924747 0)
(107.6694462 -0.8923364704 0)
(107.6435756 -0.9169521333 0)
(107.5342089 -0.9649875199 0)
(107.2355476 -1.0791354 0)
(107.3619623 -1.032620231 0)
(107.2946304 -1.047662754 0)
(107.1375819 -1.102697585 0)
(107.1558828 -1.088340027 0)
(106.7875446 -1.184935922 0)
(106.8719551 -1.161749797 0)
(106.8134751 -1.167134742 0)
(106.7228613 -1.189357116 0)
(106.0788339 -1.287798192 0)
(106.1908044 -1.265891042 0)
(106.1003884 -1.268276285 0)
(105.9767995 -1.288838924 0)
(104.8744722 -1.359735541 0)
(105.0837847 -1.342685095 0)
(104.8828347 -1.338391871 0)
(104.5858426 -1.351588206 0)
(100.0493817 -1.337450096 0)
(100.9852597 -1.333539563 0)
(100.0531254 -1.317089518 0)
(99.55384713 -1.33752538 0)
(100.5441139 -1.438926148 0)
(100.429815 -1.427278145 0)
(100.5408773 -1.416631861 0)
(100.4951003 -1.423832257 0)
(108.3018681 -0.1801462943 0)
(108.3977836 -0.08939536768 0)
(108.260025 -0.3570979891 0)
(108.3721524 -0.2639086595 0)
(108.1793267 -0.5279298187 0)
(108.309543 -0.4375732781 0)
(108.0227027 -0.6923991014 0)
(108.2029526 -0.5982270943 0)
(108.0703638 -0.6853302765 0)
(107.9319344 -0.7448952609 0)
(108.0068214 -0.7280440541 0)
(107.9196658 -0.7721214788 0)
(107.709549 -0.8929061325 0)
(107.8058504 -0.8464211693 0)
(107.7739095 -0.871819667 0)
(107.6618076 -0.9149299258 0)
(107.3517644 -1.019925719 0)
(107.480686 -0.9785534729 0)
(107.4073017 -0.9957036553 0)
(107.2478733 -1.042889155 0)
(107.2652885 -1.032463137 0)
(106.8888718 -1.119513216 0)
(106.9744162 -1.099043136 0)
(106.9133623 -1.105549706 0)
(106.8216089 -1.125111396 0)
(106.1627426 -1.216076054 0)
(106.2767005 -1.197059467 0)
(106.1828191 -1.200746804 0)
(106.0562955 -1.218428855 0)
(104.9055085 -1.281116908 0)
(105.1244272 -1.267190421 0)
(104.912293 -1.264199655 0)
(104.6021302 -1.274411797 0)
(100.0714659 -1.263316896 0)
(100.9787756 -1.259252876 0)
(100.0798986 -1.247749555 0)
(99.63902587 -1.268228816 0)
(100.5303988 -1.357288251 0)
(100.4418652 -1.348444782 0)
(100.526703 -1.339947688 0)
(100.4700756 -1.344510969 0)
(108.47256 -0.173475351 0)
(108.5607556 -0.08680434029 0)
(108.426047 -0.3438675607 0)
(108.5322192 -0.2562210953 0)
(108.3375316 -0.5082272714 0)
(108.4639513 -0.4241135322 0)
(108.1681118 -0.6658822375 0)
(108.3491897 -0.5810292779 0)
(108.2137112 -0.6618963685 0)
(108.0752595 -0.7132634305 0)
(108.1461884 -0.7005246066 0)
(108.0570749 -0.7413909831 0)
(107.8364247 -0.8536808667 0)
(107.9351505 -0.8117965261 0)
(107.8976657 -0.8383170902 0)
(107.7826672 -0.8769846105 0)
(107.4614637 -0.9748607767 0)
(107.593081 -0.9376237854 0)
(107.5144277 -0.9572855594 0)
(107.3525561 -0.9975800451 0)
(107.3691948 -0.9904343725 0)
(106.984902 -1.069190884 0)
(107.071673 -1.051153545 0)
(107.0082631 -1.058866635 0)
(106.9152499 -1.076019611 0)
(106.2411386 -1.160743389 0)
(106.3573094 -1.14434162 0)
(106.2599954 -1.149347189 0)
(106.1302754 -1.164412798 0)
(104.9304994 -1.219759741 0)
(105.1589701 -1.20872704 0)
(104.9359114 -1.207001652 0)
(104.6135275 -1.214487625 0)
(100.1118211 -1.207788794 0)
(100.9883843 -1.203178673 0)
(100.1245688 -1.196640529 0)
(99.73105104 -1.216747615 0)
(100.5151776 -1.294976161 0)
(100.4490861 -1.288660983 0)
(100.511218 -1.282273183 0)
(100.4446144 -1.284446421 0)
(108.6049865 -0.1699376471 0)
(108.7203948 -0.08483934317 0)
(108.5551722 -0.3360349896 0)
(108.6882424 -0.2508722563 0)
(108.4615244 -0.4964256246 0)
(108.614622 -0.4147220229 0)
(108.2973914 -0.6500194533 0)
(108.4909734 -0.5676134562 0)
(108.3414519 -0.6446922416 0)
(108.2117401 -0.690120389 0)
(108.2769893 -0.6839387983 0)
(108.1874523 -0.7194816732 0)
(107.957612 -0.8256569685 0)
(108.0587075 -0.7876209205 0)
(108.0167624 -0.8157189105 0)
(107.8982699 -0.8505837383 0)
(107.5664485 -0.9429363044 0)
(107.7006843 -0.9091106407 0)
(107.6175016 -0.9315223127 0)