/*--------------------------------*- C++ -*----------------------------------*\
| =========                 |                                                 |
| \\      /  F ield         | OpenFOAM: The Open Source CFD Toolbox           |
|  \\    /   O peration     | Version:  v2012                                 |
|   \\  /    A nd           | Website:  www.openfoam.com                      |
|    \\/     M anipulation  |                                                 |
\*---------------------------------------------------------------------------*/
FoamFile
{
    version     2.0;
    format      ascii;
    class       volScalarField;
    location    "2.83";
    object      omega;
}
// * * * * * * * * * * * * * * * * * * * * * * * * * * * * * * * * * * * * * //

dimensions      [0 0 -1 0 0 0 0];


internalField   nonuniform List<scalar> 
3019
(
31.93121701
31.93213846
31.93307329
31.93386575
31.9667767
31.96761428
31.96852582
31.9703589
31.9738499
31.97934207
31.98646245
31.9931402
31.79548105
31.79807853
31.80064851
31.80288952
31.83657883
31.83969472
31.84476583
31.86796603
31.8838407
31.90935273
31.94246589
31.97378438
31.66141609
31.66604591
31.67050358
31.67414966
31.70871751
31.7155138
31.72735936
31.76077047
31.79816738
31.85579247
31.92884773
31.99691448
31.52899068
31.53495972
31.54088771
31.54640141
31.5834344
31.5964891
31.62136025
31.67480326
31.74925571
31.8626979
32.00837714
32.15567903
31.39838075
31.40623569
31.41410047
31.42244806
31.46261033
31.48517665
31.5317752
31.61730259
31.75737437
31.98435651
32.30565614
32.70457512
31.26893309
31.27816432
31.28794814
31.3000568
31.34715573
31.38469221
31.46483443
31.59640944
31.84594998
32.29507907
33.10525932
34.57216418
31.14173031
31.15286247
31.16570598
31.18314997
31.23800168
31.29563259
31.41767643
31.6204205
32.04354434
32.8971971
34.99602387
42.05949491
31.01645566
31.02928303
31.04530848
31.06964803
31.13628545
31.21849844
31.39176997
31.68931144
32.3386771
33.78346041
38.1939108
61.00894923
30.89543892
30.91085505
30.93170828
30.96552605
31.04189571
31.15313888
31.38553161
31.79080564
32.67961751
34.68758384
40.94627367
75.15383898
30.77878805
30.79645431
30.82191005
30.86554335
30.95574107
31.0979458
31.39118797
31.90728075
33.00717184
35.41479936
42.53716733
81.35389474
30.66937065
30.69021499
30.72176972
30.77747309
30.87791614
31.0511813
31.4068586
32.02361524
33.29176441
35.97322481
43.6884013
91.13157102
30.56545977
30.58882024
30.62546756
30.69235997
30.80701814
31.01065387
31.42623937
32.13081365
33.5378596
36.43775047
44.82236674
102.4744774
74.41113483
80.47703622
89.77965512
101.1579696
57.86988575
42.22165254
68.82357895
64.89909938
43.44985868
74.65208537
69.40681702
84.46108859
241.2853577
218.558185
44.60974601
83.16724324
75.6045044
95.18294117
340.9740911
275.3273153
84.20131752
104.3206757
511.403441
413.0437189
187.4890465
218.2334494
115.0671015
181.2385336
215.7906059
197.3213648
77.8971145
257.3327101
269.5834446
224.0902507
254.4361764
272.1707316
245.0479029
85.69113935
312.0060781
354.452943
271.6530496
308.7977037
408.8683761
344.2418212
96.55505495
418.7957428
517.1950036
357.2400614
414.9151257
520.7116413
104.6206185
702.2233326
522.1721209
686.526609
40.40315937
64.19532905
53.91698615
68.97445331
148.0544137
99.74840767
77.39847739
195.1078932
173.347327
170.5693713
151.7636756
70.73586686
1434.525506
272.9412335
629.0308161
65.06621046
104.4386217
448.3696062
178.506068
186.0408151
1297.367205
1436.027505
201.1432793
923.9346016
759.988936
1379.98193
924.190798
204.9839289
149.0903479
463.1299588
219.9875018
675.9314956
495.2572754
159.8776495
658.2011248
957.8811153
257.4330042
1496.553559
257.8060621
238.9364702
1452.855613
1398.983755
1491.499408
1459.036339
242.9719221
331.4183211
334.1694373
287.3390934
289.6206537
448.2408499
454.8800866
385.4876201
389.4381942
188.7641926
558.1596256
562.6553642
120.1964131
251.2626401
314.9455756
148.567109
153.2817561
142.7794429
147.0696491
309.210727
169.7228431
176.2846539
443.8521545
259.8103976
137.4894484
141.4292734
707.4877177
694.7256233
345.448262
372.5055581
161.9140624
167.7099375
154.9217131
160.0871209
368.2099804
430.4765345
1009.427857
1000.17457
1582.223599
1537.024879
496.7317386
368.0941283
743.521465
709.6146527
996.1836306
989.8139348
403.8339242
537.0855326
1614.106295
1589.370476
1619.246284
604.8698381
1481.628786
1418.212125
426.087451
465.6571216
1400.255414
1411.156945
915.6777652
342.3911578
363.3225087
316.5622832
336.2186242
909.0571446
969.7765373
407.2454172
441.52822
370.7558311
397.2785502
976.9060332
612.2378197
290.1519639
310.7055856
877.8661169
909.8047108
1532.799363
542.4126241
606.0723096
518.3777801
531.7791909
1499.119864
654.1458927
664.0431243
626.83834
650.5552037
1435.355968
470.3132234
482.7469968
449.8034114
465.9255034
1427.602732
1477.689729
502.5590866
513.9773317
486.7976039
498.665817
1475.492617
963.4824665
967.6671921
938.9879697
962.1679977
979.1665893
991.0353966
969.2804138
976.7271451
679.6886863
689.4588728
667.1378378
676.3780947
728.7623339
897.0100527
694.2475349
706.3925752
1022.229658
1015.053938
434.7056623
1612.536805
1616.980846
1581.354295
1603.486693
1661.042071
485.9638976
1501.777311
1074.436727
961.0940629
763.8506036
372.1283844
1038.179223
1489.021673
991.6845299
1047.994508
1547.22073
1569.957444
1508.260362
1537.696974
400.234873
987.9048157
978.8649254
1646.660847
1619.201085
541.76221
589.2071437
1709.538338
1649.226928
230.7447089
127.7886872
131.4441261
122.7632643
126.5595156
227.5477687
132.610835
136.2303323
256.1333391
320.5008048
662.9661539
638.225451
616.9610891
552.6510813
299.6359168
1451.795747
1344.904712
1761.175894
1428.961648
920.6980456
638.8027505
646.267908
1345.364248
853.4111833
894.3176411
651.4546005
660.773056
935.0321348
257.7284191
283.9705765
585.8801713
737.5368066
1293.331845
956.9093722
1430.667527
1481.60091
964.4974135
1821.493246
1344.272772
1393.352538
956.8345682
958.2568502
1499.76368
1484.348151
1495.738215
1423.222129
1442.355881
1445.496197
923.7746813
926.515004
910.3676419
914.7298238
1410.306559
1487.204965
948.7892613
951.6492648
929.5725779
932.7363163
1464.725023
677.1671931
666.8226037
323.2677644
342.6836618
691.2385259
680.5059885
523.7470914
512.7694679
280.4148521
1524.007822
1525.735052
1499.607689
1503.303091
1860.473859
1531.716802
1532.420782
297.0048852
541.8501036
528.2119935
1007.866799
711.7120397
715.041127
1568.938412
1012.838544
1016.313191
987.7447699
1006.993921
1558.088028
1600.077912
1614.063995
1604.748373
1021.205031
1024.317382
1017.723919
1019.841555
1598.463597
1540.192727
1579.740271
1092.675647
1482.177022
2032.170642
1449.384229
1761.037509
734.9069686
945.7518885
1406.364193
1491.125208
972.5678773
1380.620277
1801.159114
1380.823171
1425.1834
707.1658489
781.6260907
1300.749285
932.7378926
664.4500786
687.4190077
1399.529134
1369.264907
831.9332428
1442.407609
1778.520121
911.1902607
1437.124213
1428.484644
1010.509117
1002.592253
1460.977036
1506.122896
967.6295368
963.9331937
1469.349441
1478.707048
1452.758517
1462.295039
920.1590058
922.2530595
1443.175083
1419.282199
916.6319217
918.2827122
941.770441
944.6578632
1481.399572
1471.135544
936.1495546
939.0497576
964.9837278
1504.72591
1496.02732
1517.145677
1511.334469
966.2073713
955.2332233
1465.793002
1449.500846
1487.678701
1477.811345
960.0666548
983.4691114
1554.958316
1546.543018
1567.2031
1559.025171
985.5346589
971.2752875
1528.373579
1523.321477
1541.614641
1533.995591
973.4209635
1515.948438
1518.856277
682.8134918
963.6031314
961.767624
968.3096106
966.8304057
686.5475208
1508.323777
1511.643355
1570.203314
1492.912396
748.5560565
1017.265217
1026.524331
1417.109507
1367.628162
822.3785483
696.2638172
973.5868859
972.9990647
979.3005953
983.0564566
705.1457102
1541.019873
1534.36404
1026.303128
733.1661102
734.7016867
720.8024945
723.071481
1015.444189
1612.904534
1625.188132
1586.352463
1601.054065
1572.25562
1980.360221
1442.466726
858.7745112
941.1323721
759.1788864
780.3574863
1064.124253
1401.593952
1914.98468
1528.979353
1455.349316
1002.148424
1579.059713
1567.650468
1611.890842
1572.068261
998.3559428
1553.81875
1563.998476
1519.502804
1529.873236
1633.572343
1032.232429
1039.180431
1025.975562
1030.696238
1630.172813
1665.845282
1051.004581
1103.956726
1040.510826
1053.824728
1669.019442
31.78604424
31.80787254
31.87852047
31.81662233
31.85221852
31.90120508
31.8647921
31.91042455
31.93292585
31.92615106
31.97153385
31.96541519
31.98318391
31.69398174
31.73897156
31.78731742
31.75742907
31.82737217
31.84047132
31.85387771
31.94342646
31.91130217
31.97445546
32.07005723
31.98160927
32.09076854
31.62945408
31.71349508
31.7276015
31.74940777
31.88396964
31.83165413
31.93804643
32.12920065
31.97095492
32.20000243
32.4351941
32.11444578
32.47577371
31.59668315
31.74706809
31.71520577
31.8135118
32.07784687
31.91819294
32.19275406
32.64295343
32.21736637
32.83364061
33.59738253
32.57220492
33.7551269
31.60967396
31.86640303
31.76881705
31.98253683
32.47988896
32.15789811
32.71549333
33.80605992
32.85510158
34.37176646
37.52098226
34.03236865
38.80564355
31.66707004
32.06600801
31.91016664
32.25307511
33.10199748
32.62032908
33.53810083
35.87907818
34.2486613
37.34614738
51.67623343
38.99151373
47.09484724
54.40787291
44.20880562
31.76222445
32.32662466
32.13057336
32.59400415
33.82922279
33.29002679
34.47801197
38.07815189
36.48316508
39.01868224
41.95986908
40.85436362
64.01919919
73.68060751
69.45106146
31.87862278
32.59451625
32.39430202
32.9301461
34.45975494
33.99522239
35.2534586
39.54735211
38.50668963
41.43387149
45.16708547
44.54347865
75.9984084
90.70612549
89.39490805
31.99784042
32.84005951
32.65719378
33.22834635
34.96352179
34.59468457
35.84865954
40.54682036
39.81807005
42.86790811
47.00560408
46.57190027
82.30467089
109.7116267
106.4143688
32.11191474
33.05476791
32.8929237
33.48369539
35.37604656
35.06909005
36.33355974
41.4054388
40.75280793
44.01862088
48.62834496
48.13190818
92.47453003
126.0893021
122.869308
33.10010647
35.46493889
41.59985396
45.2411563
51.63920128
49.82050629
104.7710278
147.7100055
142.9083147
88.36742272
86.86931735
73.36022542
105.2574109
101.400374
79.65003319
121.852971
118.9380756
88.39140313
141.4187026
137.1440399
99.44394115
92.49546323
59.3667846
49.11609179
46.01580439
58.2387407
46.16406852
45.6754043
41.83719311
67.19123485
50.57544227
51.33280136
49.26891858
50.29168677
66.67592866
47.80000567
47.36142291
43.13348708
72.09141798
52.52770707
53.29471639
51.57505663
52.28230605
71.35763921
114.0237152
110.8198966
83.33851653
237.5246046
186.6379172
188.9769315
173.9713281
175.9424878
221.4453726
49.55816268
48.94017821
44.24222954
79.73383942
54.80653402
55.92204256
53.57210202
54.47891954
78.68248297
130.7150812
127.1997906
93.81008314
331.0337902
229.9393543
232.9661771
211.531776
214.8829842
281.5166031
56.27201265
57.39704264
88.20256539
154.6331939
149.3468288
105.4086863
475.9525001
297.3725641
292.6503668
267.641389
272.444878
425.7796234
192.6738051
269.1461187
248.5268593
346.1640797
324.2494828
213.217346
125.0164769
151.7387147
137.004904
235.3800546
226.0545686
175.7886117
208.1002836
117.6196921
121.497242
113.4563975
116.4890651
205.4491115
78.82535871
99.80707917
93.43675712
262.9497937
422.156017
410.7427793
494.7513624
483.968089
263.5665232
229.55211
364.3779532
351.5568358
407.2198607
396.9512757
250.2203726
267.5120162
206.2228055
209.1328927
191.347985
193.7513011
248.7344232
87.00516618
117.9766487
115.0539817
314.9065382
381.1729748
376.7862138
430.3198135
426.4733249
351.2469671
278.2202896
509.0327066
498.3243653
371.7208239
366.4514172
305.6560002
394.8456833
259.0040209
263.4160621
236.1440379
239.4607991
354.092424
98.03464203
135.7872061
131.9344406
422.593631
533.620026
529.5800276
696.7388752
690.648069
511.6267091
360.5236959
438.0957613
433.797595
525.1590885
521.1212643
411.1906776
293.1851358
156.4737724
711.6673884
1042.305788
1035.339074
527.1828587
706.1604281
701.4908212
1014.772585
965.516938
661.7558044
43.83425187
42.96453446
39.75412391
61.16047062
47.19090435
48.85144536
43.94022191
46.5260504
59.76490363
80.70988605
77.42951168
66.70229286
132.4082686
90.22252685
97.14848858
79.84552908
87.5380612
124.8561366
93.12430433
91.48171805
76.55362587
186.3952412
109.5910862
112.5213235
106.6177957
108.8549611
183.2209523
163.1833465
103.5071906
105.9614275
98.7222088
102.6428344
160.6673842
72.2373874
85.33419855
83.20273196
317.7067058
427.9956376
350.5115424
962.2214125
846.8336543
566.8009453
74.13917947
102.8474034
76.85661447
95.21672052
69.65278262
180.2211471
107.2335455
82.36411732
286.4202358
293.7001972
466.6916316
181.0230096
224.9985188
220.8976157
232.7189765
227.9713248
183.4104082
291.462783
274.8371732
197.131249
520.9521679
556.6143627
841.4240136
208.8715852
316.6433138
296.8724017
187.8663202
172.4222196
137.586443
365.8393701
229.69373
248.8932734
169.7918743
188.7356728
327.8701594
652.4502978
474.3609666
492.1925381
380.5526169
397.3434466
521.9624893
168.0288061
215.1680657
202.6738799
454.9452707
427.8276259
263.9771235
261.7604463
480.2320488
464.0894391
379.3563429
368.2524523
234.4800103
246.7884733
393.5096988
382.9401093
402.2204803
398.8465328
328.6826123
336.9705478
409.0371883
405.6034945
340.7854514
337.8732507
284.9670427
292.0626386
346.7298454
343.7446727
563.0081376
557.9077663
443.3825848
463.4112615
589.5142103
574.8299998
487.0286316
477.264715
381.438804
393.1299254
500.0531122
494.4707065
236.775738
736.0008483
728.9633007
551.8967829
570.4502933
750.7007455
739.026546
145.4708052
169.7917957
224.1160206
227.0119204
327.5128645
150.1063101
180.9769426
178.8251702
185.3524597
183.1491191
151.6759932
144.1904364
172.6860208
170.654166
176.6906084
174.5962077
145.6049043
283.7837429
217.2073539
221.0041093
171.8626463
211.5494383
208.4271933
217.9638729
214.4596941
173.9713443
430.0118242
276.7562901
282.3520544
201.0976774
203.7487166
263.8927775
138.7812305
165.14389
163.3423879
168.8308053
166.9233827
140.0826697
702.1909801
535.1885085
539.9505252
527.3161079
531.6098442
699.0207795
348.4365778
423.0608908
419.4031078
250.4332627
254.7123441
389.0987073
163.7908124
200.0055758
197.307221
205.6133059
202.7344298
165.70727
156.6022506
189.9165469
187.6068223
194.7527955
192.2988128
158.3243973
357.4603821
242.9215929
246.550997
542.2590666
538.3835463
426.6378922
702.9927847
706.8029719
1002.410518
505.1464135
682.1664608
667.8238698
448.5619131
442.3833429
363.7527858
720.3887696
554.0880499
565.1331024
543.3008215
549.4483427
719.0344457
994.1588831
694.8058353
698.6325431
686.997903
690.7808537
991.3442784
407.4543863
516.9365166
512.9395434
715.3215281
710.4643508
531.9130048
630.1559054
880.8918705
800.7504831
619.5641182
506.2822994
360.4923914
447.9281369
629.6418689
531.2160082
779.6879538
664.3464434
620.3389894
630.7995922
919.8650662
349.1086975
454.3768171
443.5796367
474.288084
464.4187837
355.7614626
323.1804437
404.906943
389.5091162
432.4875589
419.5781756
329.5895198
890.1150133
586.8637063
606.8838161
418.8755069
551.5924882
526.895059
602.5122397
580.4989195
430.8099946
379.6238019
492.4381923
482.6689012
512.7999157
500.1133635
387.7159775
446.9454977
457.7875761
620.1108028
297.5407401
353.1454211
342.3449454
375.8104694
363.6766817
303.0451242
555.5344822
736.9505296
716.9216546
883.6945911
810.5328485
578.5500078
521.7160446
684.5131063
682.2637667
694.6361214
693.415258
527.3953395
657.4909811
949.2450292
947.661415
953.0968523
950.6677937
660.7351019
639.0882911
940.2957157
924.231011
946.6173395
944.7875233
645.9835506
474.5485637
640.0884773
636.3787401
647.3687725
643.6443736
478.6622222
456.0952054
623.2583972
615.6585122
632.5249928
628.3966376
461.2843879
506.322049
669.7148965
666.1053672
677.2718335
673.8165694
510.3556118
490.805135
654.9594359
651.1679542
662.446165
658.7784269
494.7797658
670.1594256
955.8324232
954.5032413
959.4138739
957.7504793
673.2909059
438.6431189
551.1777935
547.5051727
644.3595494
614.0297108
473.9936752
917.1356128
630.8496234
652.8457019
578.8758891
602.2288393
839.2439567
378.0145408
466.2592927
456.3391106
508.8456919
504.6804958
396.7035407
986.5340462
678.9086716
683.0420938
666.0504116
673.6712726
984.0795739
547.3389345
725.0888342
719.5369986
778.9954447
753.1389009
576.4911636
182.1963674
184.3854698
234.0424284
129.0369075
151.7874075
150.2873995
154.9379904
153.3382972
130.2308834
124.0500935
145.802328
144.3143244
148.793031
147.2834582
125.2927932
224.4463969
177.9696885
180.058496
133.7809332
158.2229914
156.5677107
161.6161375
159.8957572
134.9895419
252.3529226
196.1486512
198.6422916
388.647107
385.1022582
317.8221775
658.0301672
487.8011047
492.3704271
474.8985549
482.2402328
650.7948367
589.0713829
454.3318324
465.2116963
437.0015458
444.6333949
565.9689652
302.5476839
361.4127362
356.9850633
267.7687025
305.3612167
290.2132532
331.4494765
318.4545818
275.4413621
562.6919868
416.8144924
431.4684109
673.8017594
504.2705701
508.1026654
496.4916309
500.4298695
670.4124623
325.930103
395.4672318
392.1054533
415.9786866
412.4401516
339.7479677
687.4073138
519.5286445
523.5712777
511.8787881
515.7548361
683.9581929
520.3020273
412.0625231
415.4622791
405.1522821
408.5369315
516.3253259
282.7259488
334.9811962
332.112587
353.177038
349.8657277
294.4291826
537.3581349
426.7710736
431.016797
419.1516052
422.6217995
531.4861393
31.90342355
31.90457652
31.96800441
31.9063494
31.90950815
31.96895442
31.91204936
31.91647499
31.97189526
31.92245311
31.93006443
31.9763307
31.93928221
31.94983267
31.98278988
31.96096808
31.97165273
31.9899901
31.9810729
31.98728834
31.99554156
31.77402765
31.77499489
31.83802169
31.77714393
31.78045051
31.8418684
31.78500416
31.78167944
31.86510705
31.83963731
31.84372241
31.87081153
31.85958683
31.86668206
31.88858613
31.89168551
31.90201486
31.91621277
31.93328437
31.94403551
31.95013395
31.97396666
31.98230948
31.98071709
31.64781646
31.6504371
31.71172623
31.65542671
31.66275325
31.72061561
31.67257345
31.6835502
31.75468938
31.73713994
31.74621057
31.76854247
31.78204299
31.79762788
31.81142443
31.84969664
31.8722242
31.8729704
31.93613202
31.95866153
31.9480366
32.01739723
32.03445442
32.01245853
31.5246518
31.53015869
31.58888657
31.53969812
31.55401109
31.60704751
31.57405126
31.60802543
31.6614073
31.65816802
31.67615023
31.6903007
31.74469663
31.77501151
31.77391956
31.87920954
31.92042524
31.89744705
32.05525044
32.10085746
32.04795655
32.22819733
32.26776408
32.1854224
31.40646686
31.41674845
31.47191438
31.43361637
31.45871296
31.50437078
31.49582409
31.56171896
31.59230556
31.60789375
31.6392891
31.64509325
31.76942045
31.82703115
31.80521598
32.0395391
32.1269228
32.05637666
32.44295068
32.55885694
32.40367861
32.92303432
33.06299065
32.78001942
31.29365297
31.31115541
31.36249905
31.33905183
31.37986371
31.4169916
31.43881892
31.55041894
31.55419265
31.5979482
31.65320553
31.64466311
31.88449164
31.98788863
31.93552655
32.41421327
32.6101755
32.45391006
33.4439431
33.82866085
33.40274244
35.37469036
36.12080456
34.91360044
31.18674323
31.21395446
31.26085317
31.25601079
31.31677231
31.34617122
31.40206741
31.57475035
31.55284984
31.63324689
31.72345915
31.70134086
32.1070282
32.28651501
32.20178583
33.09651329
33.50980947
33.24606744
35.69354041
37.05368569
35.9868802
31.08739017
31.12719558
31.16844113
31.18535087
31.26819512
31.29041344
31.38578628
31.63175087
31.58689075
31.71075253
31.84363073
31.81156826
32.41874241
32.69569495
32.59135803
34.01497058
34.73384143
34.42639149
30.99683456
31.05053882
31.08590948
31.12590752
31.23226342
31.24819189
31.38725123
31.71003722
31.65029822
31.82012739
31.9983071
31.95805803
32.76540028
33.13377911
33.02689149
34.88899509
35.84460952
35.59545471
30.91520862
30.98338703
31.01272774
31.07606781
31.20664782
31.21730127
31.39899712
31.79541948
31.72989659
31.93829201
32.15730585
32.11692184
33.08426101
33.52278142
33.43014223
35.5689109
36.65997609
36.47776847
30.84228772
30.92444559
30.94795508
31.03418706
31.18890013
31.1955093
31.41789797
31.88032814
31.81363751
32.05651682
32.31004089
32.26922968
33.36270819
33.85278733
33.76974614
36.1017776
37.28654234
37.13616716
30.88947172
31.18001173
31.89350667
32.16813108
32.4481328
32.40752972
33.59743101
34.12828861
34.05886754
36.55087183
37.82730908
37.68701033
63.66390805
59.51693141
54.50937678
48.75963224
52.02169514
68.25807729
60.59895902
61.0079138
57.89056744
58.43681163
65.55509935
73.736896
64.20253286
64.77405636
61.40841695
61.83264133
70.02272569
81.93053916
69.67790215
70.53582
65.36632849
66.01408522
76.60399771
337.7167569
287.8122215
290.1547764
71.3428816
72.25631054
85.6212646
499.9410475
399.8432792
405.1169334
341.2858383
344.6017908
417.2418667
213.1402151
170.2189604
172.0654346
158.8507846
160.9545633
200.1925483
318.0436942
315.2252633
267.4893706
273.8310712
323.6378878
320.8344442
404.556936
334.7184618
337.9888815
292.4831377
294.9906481
347.4996189
410.3175626
415.183781
527.8301926
115.2597989
63.33609283
56.59750536
57.2990904
49.97369776
51.26935945
56.10372841
143.7334589
120.8290633
124.0923342
90.78536049
97.3475555
107.7160464
192.27287
154.5234488
156.8236249
141.9203998
143.68006
176.3611031
168.0632859
138.6527418
140.3130364
126.8581386
129.3866862
155.039907
120.4424351
108.5581317
96.07516193
369.5538594
373.755687
453.8355754
434.3012592
344.3298947
361.4191003
203.0405347
225.3547301
253.434173
289.9915676
283.2135123
258.1883398
258.6441176
299.5722781
295.300091
297.5850994
244.2262153
213.4833067
277.7851251
278.4719626
319.6593614
302.0881949
278.4680623
277.4932457
438.9341362
362.0019339
366.008742
313.8004515
317.1256803
377.5221341
364.4271149
307.9232216
310.8374781
31.79243286
31.8174974
31.81208782
31.8300921
31.82292138
31.79915816
31.87484287
31.84821263
31.85371475
31.82775424
31.84630941
31.83711356
31.86641555
31.85507172
31.83865781
31.89532851
31.87406435
31.88284325
31.88027552
31.88975275
31.87683699
31.91510998
31.90131654
31.89359882
31.92554484
31.91188687
31.9228659
31.94303679
31.94156607
31.92628309
31.96648884
31.9540669
31.95696376
31.96004609
31.95391256
31.96476805
31.99556186
31.98677777
31.9765206
31.99391971
32.00363026
31.98728487
31.98896898
31.7068587
31.7255048
31.71451995
31.75256648
31.73786886
31.72171939
31.77690429
31.75640773
31.7687654
31.77809638
31.78641533
31.7685177
31.82646712
31.80505079
31.80082591
31.82478023
31.81351231
31.83158905
31.88233842
31.87492904
31.85019913
31.92521739
31.8990371
31.91162135
31.89108392
31.89300024
31.9155398
32.00607082
31.978317
31.9508857
32.02529273
32.00235548
32.03703999
31.96439809
31.97954013
32.00179049
32.11534019
32.07109387
32.05003418
32.08856111
32.13061955
32.0234656
32.04527167
31.65360321
31.664057
31.64307967
31.71350178
31.6871845
31.68132869
31.70785045
31.69649746
31.71935394
31.78887529
31.77938903
31.74552661
31.85881537
31.81654048
31.83415913
31.80199304
31.806589
31.84125433
31.9973868
31.95426041
31.90470283
32.06129474
32.00622768
32.06116736
31.93320628
31.96362782
32.00925832
32.27008446
32.17797636
32.11746862
32.27876813
32.23185184
32.34871793
32.08318009
32.14860827
32.20058952
32.54696201
32.39591764
32.35103465
32.44591992
32.58751655
32.21408475
32.29117475
31.64022943
31.63859038
31.60109224
31.73098875
31.68125365
31.68918561
31.67685075
31.67759276
31.71987949
31.89031944
31.8542224
31.78833222
32.01608697
31.92940167
31.9776341
31.85830188
31.89134345
31.96175071
32.32470119
32.22015968
32.11330166
32.4704161
32.33817123
32.47422601
32.13368061
32.22360173
32.32910995
33.04045578
32.78298039
32.61591733
33.09394244
32.93739149
33.30097339
32.49139478
32.69757983
32.85124579
34.05704966
33.49827855
33.34992013
33.67711537
34.26787066
32.87485798
33.14480593
31.68165059
31.6660699
31.60222344
31.8282916
31.7408682
31.76683545
31.70213454
31.71921429
31.79594828
32.11957004
32.05124969
31.93083083
32.35904337
32.19235972
32.28270599
32.03850985
32.10819143
32.24943155
33.00469041
32.7956255
32.55578393
33.43145473
33.0849499
33.3625062
32.63920646
32.84112231
33.11325053
35.09793294
34.40722382
33.86641365
35.76325067
35.00463526
36.12035452
33.6990681
34.3368099
34.95102794
40.79195356
37.98272208
36.99063262
39.12352177
43.84831855
35.31232393
36.70473005
31.7777248
31.75008645
31.64959135
32.01123209
31.86956933
31.90948992
31.79725464
31.83059524
31.95705488
32.47946266
32.38351965
32.18011388
32.93587504
32.63007334
32.75603748
32.39136742
32.50299919
32.76959865
34.1025281
33.80426632
33.31645441
35.29863747
34.44721349
34.85805966
33.68934582
34.04499147
34.73828878
39.62547921
38.2468856
36.50394593
44.77792433
40.61985949
43.17469775
37.21237968
39.06153157
41.99645971
50.24070097
48.64475966
50.8389815
31.91840421
31.88035232
31.73563938
32.25869351
32.05278802
32.10446019
31.95713346
32.00215358
32.19131246
32.91983675
32.80846592
32.50648522
33.65089123
33.18126667
33.32231129
32.90127061
33.03689416
33.46637077
35.32922966
35.03936826
34.25156039
37.5938368
36.11050428
36.48223328
35.29406292
35.70968146
37.05978613
32.07803197
32.03742703
31.84835675
32.52815236
32.26155753
32.31412229
32.15700925
32.21004671
32.46239341
33.33666695
33.23584885
32.84782366
34.31212501
33.7135407
33.83593475
33.4555404
33.58797195
34.15854584
36.2851061
36.07198571
35.07599353
39.23427732
37.40574571
37.66184612
36.8194944
37.12929892
38.89685568
32.23487464
32.1944694
31.96606183
32.77874235
32.46259826
32.51285449
32.36424598
32.41539263
32.72053808
33.69438796
33.60719259
33.15475839
34.84419624
34.15925051
34.26158997
33.94851261
34.05883812
34.72520605
36.98892931
36.82597058
35.70948954
40.30988612
38.30235192
38.4948286
37.89058682
38.10671872
40.08097156
108.6308463
96.21483853
97.0338511
94.72411556
95.46415666
107.5207291
32.37965451
32.33989533
32.07857562
32.99898119
32.64381941
32.69089366
32.55614979
32.60592311
32.95277708
33.99526842
33.91853354
33.41799341
35.27374998
34.52539226
34.61418047
34.35082448
34.44707164
35.17999809
37.56361813
37.42034606
36.21349156
41.17680318
39.01150612
39.18554991
38.66968367
38.84860289
40.97974948
124.9879797
109.8008636
110.67777
108.1361747
108.98842
123.9257815
32.7277854
32.77282679
33.15191589
34.68898159
34.76985759
35.55852392
39.33852093
39.51375954
41.83403127
146.0250166
125.9666988
127.348321
123.5754315
124.7614728
144.4667277
120.8471877
106.506401
107.342071
104.8800613
105.7198011
119.8819614
139.9411739
121.3024628
122.4740433
119.1464896
120.2253021
138.5278546
73.67574783
66.1041944
71.14252582
55.66174549
59.08227278
66.16150071
51.74577748
54.85812363
51.38738777
49.19059464
50.81619946
47.03754554
61.7933326
55.65398975
52.83416967
58.19358515
65.60182793
59.78608036
60.20355781
67.71661614
55.45528196
55.13421926
51.09204725
66.1139525
58.91182336
59.36988754
63.17584128
63.6813335
72.88687363
52.77027708
57.36250654
57.02507871
58.08422464
57.71603845
53.03014667
51.80628546
56.07267963
55.76015384
56.69978613
56.38113946
52.04657813
70.66736205
62.25646725
62.71226517
112.9943468
99.59230431
100.5049795
97.84668354
98.7272451
111.9163969
68.12062207
68.91183422
80.86979846
55.15227327
60.7762935
60.26890137
61.86779161
61.30755296
55.50811761
53.85364041
58.88594691
58.47721089
59.78174359
59.32463659
54.15852817
77.61835217
66.67680923
67.39880782
129.5133695
113.2956437
114.2399631
111.5162587
112.4219382
128.3493949
283.513625
285.6329912
334.4019111
56.7613774
63.0509779
62.44466434
64.30750929
63.67108441
57.03620168
86.60019062
73.13385756
74.07696786
152.8631143
130.6666302
131.775432
128.4414558
129.9096725
151.1404928
388.11555
395.058229
487.1997928
324.0856944
316.0958444
292.9526347
421.4155447
347.9412488
351.4761094
262.7049507
238.9911436
241.0327029
236.1360614
237.4857191
256.0636087
339.5029857
278.6302687
283.8796106
268.0788658
273.3529611
332.0512485
166.6223465
168.4357689
210.6006975
118.884331
139.9533306
138.5014488
142.8593384
141.3981664
120.180079
114.8707849
133.9864651
132.2118223
137.0625667
135.5830727
115.5160922
202.1995596
162.8379455
164.7635958
418.0039977
342.0043685
345.5585069
336.2848887
339.1333194
414.128618
491.1593725
385.0706394
388.3748263
378.5151332
381.788826
487.5783103
265.5124661
312.3902805
309.4850718
360.3443349
295.8262612
299.2848731
288.2607323
292.3998028
356.1403144
403.8226567
330.702576
333.655711
325.1289708
327.9789419
400.3774071
117.0264058
103.1951006
104.069451
101.3960794
102.3405568
116.0413377
329.2721693
326.4412631
275.9716236
505.4732619
398.3710335
401.7255127
391.6916759
395.0122593
501.8586601
327.896271
331.3072082
399.9453348
350.7921743
297.4088165
300.0369262
134.4712551
117.098131
118.1326693
115.1527337
116.1358324
133.1918518
294.3825684
336.5717148
330.7809427
133.0877343
54.88736729
55.81450902
62.35625958
58.07998334
52.61260421
53.8405577
112.8977989
117.2074658
138.5625173
92.88536843
100.9713541
97.21671456
107.0267704
104.0281661
95.00892997
93.08687879
87.7664601
83.67611776
116.1308298
102.7631959
108.0680278
149.7632162
152.2422195
189.5512929
110.4764805
127.3409572
125.895696
130.5293351
128.855097
111.363354
107.3681649
122.3134904
121.1731327
124.6341289
123.4051468
108.0433073
179.7754437
145.5030035
147.6181144
135.3064246
137.0555477
165.6243801
104.4401417
117.8013416
116.4206582
120.119836
118.9308035
105.1552014
100.3060252
111.6203519
109.3504141
115.0785705
113.3487923
101.4483352
157.9631563
131.5221561
133.5469118
79.71144925
91.32699539
84.76652452
80.15226736
85.47616715
145.9783068
126.3808593
139.97281
96.95578659
106.1063597
125.4427498
88.38432202
96.89827022
87.3645015
459.3436095
377.7994931
383.0984264
285.8393209
247.3929708
250.1878484
242.8704527
245.2282484
280.556376
309.2834207
259.4314743
263.6782594
252.7786667
256.1590144
303.0349806
298.315734
324.1016517
400.6715308
276.0128102
258.0798846
237.4555608
286.3776555
249.5235417
272.9894615
444.5624647
355.9843189
359.9687059
348.5519132
353.4041978
435.302538
306.461484
303.2148505
260.0904499
476.0808129
371.846149
375.2278063
364.2561622
368.2376672
470.9801356
375.716444
308.0463296
310.9472836
302.2179963