/*--------------------------------*- C++ -*----------------------------------*\
| =========                 |                                                 |
| \\      /  F ield         | OpenFOAM: The Open Source CFD Toolbox           |
|  \\    /   O peration     | Version:  v2012                                 |
|   \\  /    A nd           | Website:  www.openfoam.com                      |
|    \\/     M anipulation  |                                                 |
\*---------------------------------------------------------------------------*/
FoamFile
{
    version     2.0;
    format      ascii;
    class       volScalarField;
    location    "1";
    object      k;
}
// * * * * * * * * * * * * * * * * * * * * * * * * * * * * * * * * * * * * * //

dimensions      [0 2 -2 0 0 0 0];


internalField   nonuniform List<scalar> 
3019
(
46.02273632
53.21700657
46.46909549
42.17732971
39.53625986
37.94386948
36.80636793
36.10850258
35.43161191
35.15168009
35.0179387
34.96470689
55.92067796
53.20509312
46.60893641
42.28520489
39.64698328
38.03686139
36.84572044
36.10411316
35.37743976
35.07069227
34.92004853
34.85966943
55.93222244
52.59357911
46.35463696
42.2230829
39.6686809
38.09027656
36.86309283
36.08603707
35.32307724
34.99477369
34.82972905
34.76333024
54.07789842
51.20761245
45.73934753
41.9959033
39.62577313
38.09722488
36.8553677
36.05003612
35.26122194
34.91741909
34.74202649
34.67069306
52.64456734
49.45793711
44.84214789
41.66387911
39.55709978
38.06898878
36.81377405
35.99466341
35.19122172
34.83747817
34.6534663
34.5780997
51.13708193
47.80580687
44.0014741
41.33967195
39.43128805
37.98531632
36.7340328
35.91481761
35.10682481
34.74771542
34.55978183
34.48145305
49.73947486
46.63644954
43.44697293
41.06305458
39.25182036
37.85660872
36.62628872
35.81527101
35.01028184
34.64964441
34.45964962
34.37972617
48.52185861
45.92910079
43.01279593
40.77080988
39.04422349
37.69864879
36.49729015
35.69889207
34.90143453
34.54161679
34.35097168
34.27009503
47.4010212
45.28039888
42.60104154
40.4776262
38.82343626
37.52279521
36.35251585
35.56889549
34.78290351
34.42613649
34.23594144
34.15464009
46.35663797
44.67239808
42.21224923
40.19102639
38.5981178
37.33691466
36.19642717
35.4284619
34.65479681
34.30159335
34.11222649
34.0308177
45.37731756
44.09842194
41.84308253
39.91426402
38.37339169
37.14629267
36.03284429
35.28038755
34.52109032
34.17270018
33.98460308
33.90332124
44.4606001
43.55300247
41.4900924
39.64788049
38.15217667
36.95433706
35.86482098
35.12705981
34.3804306
34.03601666
33.84895582
33.76785459
43.5926653
43.03148135
41.15077117
39.39115969
37.93594527
36.76326831
35.6946357
34.97033132
34.2382606
33.89897574
33.7131932
33.63234361
42.76257167
42.5298474
40.82313461
39.14303871
37.72521914
36.57442704
35.52388929
34.81171814
34.09022779
33.75416139
33.56909202
33.48839861
41.96138365
42.04485318
40.50554088
38.90252757
37.52003952
36.38859402
35.35371264
34.65226555
33.94490111
33.61386308
33.42982033
33.34929591
41.18555898
41.57376544
40.19652251
38.66870898
37.32017668
36.20615644
35.18484877
34.49290702
33.7925034
33.46337919
33.27958609
33.19906247
40.43267379
41.11451588
39.89483536
38.44078474
37.12531149
36.02729115
35.01780191
34.33409321
33.64831502
33.32422203
33.14117464
33.06066676
39.69965082
40.66538442
39.59939733
38.21802302
36.93506417
35.8520179
34.85289647
34.17649592
33.49224908
33.168486
32.9852644
32.90457077
38.98601512
40.2252155
39.30931562
37.99978082
36.74905029
35.68028303
34.69035463
34.02013499
33.35363019
33.03511177
32.85235868
32.77152758
38.29217605
39.79309865
39.02389236
37.78551854
36.56690789
35.51196248
34.53032925
33.86573317
33.19176395
32.87204617
32.68883689
32.60763998
37.61737207
39.36837801
38.74254461
37.57475345
36.3882784
35.34688327
34.37299488
33.71290912
33.06517556
32.75059367
32.56751346
32.48606617
36.96161166
38.95090233
38.46486622
37.36711168
36.21287372
35.18495557
34.21878999
33.56310488
32.89065173
32.57471735
32.39110111
32.30911672
36.32643141
38.54149175
38.19061481
37.16228504
36.04042547
35.02598685
34.06903507
33.41636227
32.78786236
32.47413418
32.29023922
32.20792938
35.7175654
38.14354545
37.92120263
36.960651
35.87102153
34.86994546
33.92797759
33.27855724
32.56318998
32.24857603
32.06378416
31.98063794
41.74837152
45.0178343
54.66270037
51.99387855
42.10217749
55.48483926
55.15553638
54.6871983
53.94496315
52.37901151
57.5593201
48.52438606
47.77427964
51.6976905
57.87910002
57.6543792
39.56918848
44.19112104
39.50693142
40.16856922
54.37335843
45.12442314
56.42300447
54.5623597
55.08588277
55.78914619
54.79051532
40.69885962
58.03424329
57.94391504
52.27296971
52.79705211
64.33517312
39.862567
41.36615104
50.57121822
50.04435431
42.30111916
40.05132817
52.34680436
64.44711569
42.42420078
49.30364639
71.23194109
39.97194782
41.37733856
39.77010884
39.83844046
62.99229087
66.83988578
39.69152717
64.36942653
56.22561356
53.84355652
47.90326682
40.42540669
41.38507477
39.9041178
46.46353437
40.62886089
39.60190832
46.15636497
67.91794281
70.72006788
72.51026808
60.56431869
69.33577194
40.29052702
39.83544193
61.22323603
55.01093364
62.30953757
57.91134157
67.40791569
67.41866834
65.51785144
44.0315758
58.9615587
52.53257204
66.03392787
67.42893729
46.62339603
50.02189395
54.31116597
69.84021641
57.30939838
44.79276909
46.76761135
62.89360594
47.06644972
49.74174361
42.66476205
44.79219073
64.04077134
46.42282494
42.9785397
42.09713575
40.03255182
39.49529721
38.23795912
48.79333692
56.69652112
56.0880195
53.2722409
48.05680374
47.96099029
46.59230306
43.15383602
43.06161677
42.27083853
40.17679922
40.07632222
39.62971975
38.35063822
38.27133439
56.27933762
57.69009148
58.00906262
52.82696944
47.8499157
48.06062923
46.44744349
43.11950356
43.16968554
42.25230092
40.20069779
40.18661815
39.67118668
38.41993637
38.37189419
51.02979423
50.70401169
54.47183815
53.11980267
54.26906727
51.60684726
47.19149119
47.73220971
45.93356742
42.87285402
43.07900979
42.06612933
40.1441096
40.19571491
39.64130647
38.43496962
38.42673104
51.44356116
51.15353456
53.00672161
51.22673999
52.67339434
49.90481977
46.13378843
46.94891675
45.073167
42.46072628
42.78302663
41.75369061
40.03483714
40.11833255
39.57644469
38.4141371
38.43301392
51.02496563
51.41659578
51.50349564
49.31694036
50.73251435
48.18504408
45.06588716
45.85390247
44.19113088
42.00948033
42.34285966
41.41015857
39.9014326
40.00535291
39.46908676
38.33816302
38.40107369
49.91459721
50.78110789
50.07484496
47.82599482
48.89042504
46.87202686
44.28790734
44.83513398
43.55896095
41.67700533
41.91513559
41.13443747
39.71365073
39.85893144
39.30010451
38.20972885
38.30993174
48.65204161
49.60256218
48.81525417
46.9243413
47.54846016
46.09866277
43.79358991
44.15904328
43.119414
41.35669245
41.59754088
40.84438299
39.4936662
39.66078247
39.09780765
38.04835616
38.17180237
47.42693727
48.33857019
47.6736033
46.16816938
46.73017397
45.43845111
43.33231362
43.67547204
42.7017426
41.0375408
41.27636736
40.55050903
39.25952581
39.43596241
38.87931835
37.86713212
38.00449617
46.2741247
47.13227693
46.61114994
45.46169931
45.98721149
44.82097236
42.89869228
43.22150073
42.30745372
40.72765195
40.9590123
40.26182261
39.02130846
39.20007616
38.65454583
37.67481413
37.8198343
45.18519434
45.99618852
45.61636135
44.7973563
45.2919416
44.23903972
42.48787092
42.79403417
41.93373931
40.43010188
40.6520709
39.98247024
38.78470582
38.96185056
38.42932771
37.47739512
37.6257643
44.14841465
44.92168745
44.68459857
44.16840165
44.63704898
43.68694272
42.09579949
42.38822348
41.57697087
40.14484452
40.35767794
39.71353028
38.55277177
38.72620869
38.20704913
37.27883715
37.42775865
43.15810877
43.89655901
43.80578616
43.56890561
44.01598
43.15985334
41.71963376
42.00036471
41.23443485
39.87059124
40.07530839
39.45449169
38.32687889
38.49570661
37.98949573
37.08162222
37.22934971
42.20999939
42.91735028
42.96686975
42.99384892
43.42302294
42.65357559
41.35704413
41.62779787
40.90403987
39.6058988
39.80357475
39.20431687
38.1073531
38.27140211
37.77737494
36.88717673
37.03272454
41.29753922
41.97881581
42.15923987
42.43921994
42.85343045
42.16470164
41.00605825
41.26828282
40.58408118
39.34954545
39.54107347
38.96199365
37.89404159
38.05345571
37.57082409
36.69627042
36.83911018
40.41373039
41.07395838
41.37726555
41.90163455
42.30332557
41.69036657
40.6649296
40.91991438
40.27305119
39.10046088
39.28663136
38.72658648
37.6865595
37.84164166
37.36966453
36.50924014
36.64915155
39.55758937
40.19707729
40.61897493
41.37876201
41.76959782
41.22831726
40.33215101
40.58099684
39.9696327
38.85770316
39.03920644
38.49725505
37.48444403
37.63554109
37.17357992
36.32617728
36.46310602
38.72937024
39.34796751
39.8810825
40.86828719
41.25003684
40.77679044
40.00648402
40.25011172
39.67272245
38.62046039
38.79790603
38.27326582
37.28723261
37.43470043
36.98221387
36.14704635
36.2810375
37.92737547
38.52648256
39.16252464
40.36930016
40.74249311
40.33445958
39.68688805
39.92605155
39.38137267
38.38800079
38.56192386
38.0539471
37.0944547
37.23864088
36.79517563
35.97171786
36.10287044
37.15055422
37.73090928
38.46373857
39.8811326
40.24625901
39.90043696
39.37257239
39.60784146
39.09484553
38.15972359
38.33056193
37.83873876
36.90568924
37.04690417
36.6121008
35.80001548
35.92846496
36.39821412
36.9604564
37.78402166
39.40388622
39.76087515
39.47385504
39.06288744
39.29473859
38.81252206
37.93509763
38.10324398
37.62713734
36.7205288
36.85907673
36.43262181
35.63171477
35.75763409
35.6697508
36.21471235
37.12265106
38.93585369
39.28609263
39.05456811
38.75737893
38.98613399
38.53395656
37.71371327
37.8794627
37.41874775
36.53864112
36.67476305
36.25643795
35.4666659
35.59015823
34.96422509
35.49397188
36.4788858
38.47565989
38.82038148
38.64244405
38.45567462
38.6816242
38.25878205
37.49522097
37.65883272
37.21322758
36.35972266
36.49364503
36.0832686
35.30467564
35.42589204
34.27818175
34.80006572
35.84924999
38.02051484
38.36321502
38.23553502
38.15664491
38.38102097
37.98610849
37.27910141
37.44104923
37.01011758
36.18342512
36.31543579
35.91279457
35.1455069
35.26463338
33.56835241
34.13851173
35.19332018
37.54003021
37.91911443
37.80572326
37.8401403
38.0862371
37.69765882
37.05153056
37.22664555
36.79669675
35.99939486
36.1402603
35.73519967
34.98044337
35.10640335
41.21862203
39.75960153
39.94882564
49.87733768
49.01989989
43.97416424
54.56104005
57.25523479
57.36657767
50.95071138
41.91660207
39.7394308
39.616317
42.32967945
57.56939991
57.42652588
54.01055757
54.71290583
57.47159286
57.453184
57.39622472
57.4626252
54.71895027
53.11250269
51.84006948
57.47469484
56.39587331
56.91642664
56.18827712
57.45261381
39.65114262
39.90780678
44.34440628
45.11126201
49.29979814
46.92417026
42.71423027
43.50089475
57.41109917
56.88421149
49.63922572
57.81002057
57.63871827
57.77417762
57.05691955
57.50070153
57.73208021
39.65638265
39.55931524
39.60733115
42.55610359
43.56216896
54.19280287
43.2756694
39.64814248
39.77988325
39.50896942
40.15568984
39.82908129
46.11882018
45.02541447
39.63691707
53.91527318
50.2176106
51.00391178
49.35939519
53.39856888
41.20953713
41.91907143
46.03294823
41.15266659
41.75400652
40.75233133
40.4640287
57.22384012
57.62000803
56.22296473
54.79730024
56.52987425
56.21632789
57.36967455
56.75798557
54.95268463
55.49895372
53.0172077
53.54609937
51.74036023
52.39542086
55.15505296
42.96170107
48.09035371
47.11692419
58.02702187
58.02109048
58.06890461
57.87468374
57.95714416
57.98982691
53.52711304
57.27774766
57.0499973
52.4764954
46.0322638
46.45139443
40.17083947
44.3123986
42.40560404
41.77371137
41.33573899
42.99578331
42.53369637
41.16182575
49.85920596
45.99323777
46.56958903
46.44703582
40.60482846
41.38429073
39.81667078
40.10667914
43.80276273
39.80491701
39.48599721
39.48667609
40.24299504
43.3979658
42.13050253
48.51431629
45.29729225
40.67995843
39.7844331
40.41619995
40.19701788
41.30680308
40.74143851
39.77053146
41.30336594
40.62260949
39.576935
51.31004623
51.21659126
53.58529497
47.79589257
49.43423681
49.53836337
39.51665625
39.59172889
40.80949382
40.6983884
39.572715
39.64635123
39.52517327
39.53028816
40.22398169
40.4162402
40.22998649
39.59971977
44.96609918
42.41825414
42.30164918
41.63229365
44.5418814
40.53892067
40.79637566
40.08606843
40.04983603
40.08392838
40.07167787
40.0372738
39.9454252
37.91483585
37.21605323
36.78090652
36.4175123
36.10854321
35.82455932
46.98357022
51.41880652
50.68290488
53.25538654
51.42153062
51.3656502
46.54379652
45.2454648
45.17637405
42.19864332
41.4237566
41.38879483
39.58108535
39.09863459
39.06067105
38.01755706
37.29233396
37.25786832
36.82809614
36.43971026
36.42961136
36.10807361
35.80324824
35.81673951
56.15911539
57.70413753
57.68803103
53.10853175
51.343311
51.41545943
46.55928654
45.2897452
45.31411702
42.2919471
41.50459015
41.49830934
39.6604948
39.18288048
39.16941855
38.08122293
37.33848205
37.31905916
36.85751885
36.44959781
36.44665301
36.09885253
35.77523236
35.79223456
55.40598458
56.30125249
56.78049064
52.30727625
50.68263296
50.9227576
46.23836386
45.0360604
45.12860475
42.18149043
41.43407796
41.46375475
39.66411588
39.20350651
39.20430015
38.09855481
37.35247139
37.35106003
36.86261325
36.44243846
36.44858496
36.07396581
35.73704262
35.7587801
53.71203959
54.27336381
54.77768814
50.7868375
49.35417724
49.72646475
45.52732331
44.47936246
44.64803337
41.92209817
41.23897404
41.29574373
39.60892106
39.17961075
39.18833728
38.08176894
37.33793639
37.34870395
36.84090388
36.41021953
36.42891966
36.03040265
35.68510325
35.71377964
52.27176563
52.34346191
52.81768381
49.01752092
47.79654825
48.18257494
44.61523268
43.73978421
43.92479116
41.57478326
40.98581477
41.05148895
39.53262653
39.12218822
39.14338801
38.01190473
37.27951637
37.31506117
36.77789952
36.34461933
36.38027498
35.9607126
35.61529794
35.65347435
50.77655716
50.52104795
50.9664239
47.45794386
46.44469059
46.74375434
43.83101283
43.10307034
43.24080958
41.27285148
40.75167421
40.80987632
39.39022383
38.99482849
39.0319388
37.89249473
37.17969228
37.23390299
36.68323862
36.25292122
36.30121447
35.87003628
35.52722098
35.57392344
49.41904076
49.02095
49.3415093
46.4483099
45.5940441
45.75424879
43.33663465
42.68680533
42.78567223
40.99073203
40.49838341
40.56392746
39.20183205
38.82233134
38.86839976
37.74044433
37.05066573
37.11821927
36.56409509
36.13949028
36.19821221
35.76108561
35.42326187
35.47772095
48.23385991
47.93248625
48.19330146
45.76265768
44.99341556
45.13941736
42.90762065
42.29858358
42.39425094
40.69721295
40.2292546
40.29714376
38.98984222
38.62517246
38.67600195
37.56807931
36.90138052
36.97808486
36.42659273
36.00896042
36.07576264
35.63699767
35.30539713
35.36658852
47.1331766
46.94726551
47.18573297
45.12486162
44.4331706
44.56993143
42.50178402
41.92733935
42.01836989
40.40516647
39.95769858
40.02536593
38.76727933
38.41566248
38.46873876
37.38405643
36.73863282
36.82134198
36.27563687
35.86570231
35.9384369
35.50100268
35.17622783
35.24279974
46.106004
46.03718812
46.25867996
44.5259441
43.90558971
44.03474406
42.1182683
41.57497425
41.66137264
40.12085738
39.69065179
39.75676473
38.5417352
38.201273
38.25504019
37.19420435
36.56742219
36.65383303
36.11536853
35.71347209
35.7903386
35.35611663
35.03811445
35.10892641
45.1426352
45.18509557
45.39359625
43.95958699
43.40532171
43.52806805
41.75343243
41.23950383
41.32194281
39.84671261
39.43137254
39.49538318
38.31768146
37.98665493
38.04015343
37.0023102
36.39141715
36.4798291
35.94923088
35.55521246
35.63481369
35.20491268
34.89358571
34.96734126
44.23959111
44.37830944
44.57607499
43.4205517
42.92817588
43.04549586
41.40406525
40.91820071
40.99732515
39.58283513
39.1808046
39.24263061
38.09761886
37.77461425
37.82728178
36.81085204
36.21333331
36.3025002
35.77988619
35.39323223
35.47447662
35.04949705
34.74426379
34.82025124
43.38188288
43.61077534
43.79932928
42.90434942
42.47055888
42.58331371
41.06783717
40.60889193
40.68519478
39.32836521
38.93868721
38.99846082
37.88274099
37.56667705
37.61823138
36.62135342
36.03505877
36.12413134
35.60925283
35.22927203
35.31134529
34.89153477
34.59216366
34.66930958
42.5598292
42.87653716
43.05694806
42.40715576
42.02931186
42.13823667
40.74285546
40.30985496
40.38372953
39.08223511
38.70430096
38.76221314
37.6734102
37.36349632
37.41382923
36.4347161
35.85785589
35.94626233
35.43867719
35.06463427
35.14692399
34.7322826
34.43790873
34.51605181
41.76511814
42.17427704
42.34727473
41.92587062
41.60182282
41.70753438
40.42753617
40.01968684
40.09146861
38.84347974
38.47688122
38.53312544
37.46958774
37.1652573
37.21435689
36.25140851
35.6825368
35.76992516
35.26907909
34.90025162
34.9823295
34.57271778
34.28331417
34.36139533
40.9953509
41.49656662
41.66399311
41.45791382
41.18586374
41.28887282
40.12045944
39.73713424
39.8071174
38.61120585
38.25566683
38.31042545
37.27100659
36.97186049
37.01976499
36.07163891
35.50959688
35.59574839
35.10107152
34.73680144
34.81835629
34.41350798
34.12790311
34.2064275
40.24758304
40.83820803
41.00131716
41.00133918
40.77968047
40.88039356
39.82042758
39.46113119
39.52957214
38.38463678
38.03997572
38.09341701
37.07733162
36.78309577
36.82986855
35.89547044
35.33932805
35.42411983
34.93505753
34.57474009
34.65555887
34.25521726
33.97390253
34.05142896
39.51938086
40.19556518
40.35478029
40.55452283
40.38184192
40.48059035
39.52639799
39.1907336
39.2578575
38.16305642
37.82916346
37.88144511
36.88817401
36.59867047
36.64439007
35.7228624
35.17185359
35.25524681
34.77128764
34.41440898
34.49435209
34.09813952
33.81934098
33.89736035
38.81067001
39.56812663
39.72367451
40.11648685
39.9913239
40.08831268
39.23754809
38.92518229
38.99115358
37.94586259
37.6226786
37.67392306
36.70316657
36.41829017
36.46302414
35.55370426
35.00725507
35.08922705
34.6099157
34.25600538
34.33500529
33.94264972
33.66788335
33.74391714
38.1215538
38.95471162
39.10681616
39.68622037
39.60732087
39.70275164
38.95319321
38.66383254
38.72880617
37.73251697
37.42001805
37.47034931
36.52193466
36.24163169
36.2854648
35.38782037
34.84556176
34.92616559
34.45095983
34.09964382
34.17778119
33.788717
33.51492788
33.59232937
37.45106189
38.35504021
38.5038094
39.26332213
39.22923321
39.32322088
38.67279375
38.40616586
38.47025815
37.5225641
37.22074927
37.27026705
36.34413632
36.06839329
36.11139481
35.22511769
34.68657243
34.76618519
34.29425226
33.94514154
34.02285386
33.63649416
33.36728415
33.44156534
36.79866208
37.76943024
37.91534976
38.84754404
38.85673715
38.94943022
38.39596975
38.15180572
38.21510748
37.31564979
37.02453012
37.07331672
36.16949427
35.8983336
35.94056441
35.0654071
34.52956201
34.60948156
34.13909382
33.79191605
33.87078209
33.48507271
33.21476271
33.29396211
36.16278594
37.19636323
37.34258627
38.43878542
38.48903094
38.58123072
38.12230438
37.9003705
37.96307821
37.11144384
36.83104158
36.87919198
35.99773609
35.73120325
35.77272925
34.9084164
34.37196035
34.45719881
33.98303601
33.63756034
33.7227717
33.33258353
33.06900071
33.14818164
35.53591316
36.62796536
36.79088787
38.02959032
38.12012658
38.22197199
37.84811473
37.64881539
37.71520066
36.9080964
36.63867082
36.6881564
35.82770216
35.56593969
35.60795453
34.74574573
34.2025862
34.31447185
33.81535962
33.47146256
33.58308886
33.16758626
32.89843309
33.01220568
54.6198294
55.56225256
55.5967403
51.50820462
47.82923505
48.314772
40.38638455
40.26284153
43.11958457
55.60500871
55.62756782
54.69733551
57.24992363
57.36561969
54.53126653
54.23773419
51.10455312
42.34416691
41.74590285
39.94035968
40.48473146
40.42156938
40.54032223
43.88627679
42.7551031
52.73995601
55.22917451
54.94689117
40.70130613
40.57077394
45.12470251
45.01090169
46.30323524
42.90344069
43.89100104
43.98369294
41.32400721
41.26642295
42.03456771
39.98076187
40.58318756
40.64021556
39.02085359
38.98081163
39.44941552
38.20402321
38.56764933
38.60364289
52.69570408
52.09803217
47.93335191
56.52105836
54.9096838
55.29348289
54.07196077
54.50230899
56.27047364
51.46517016
51.43478975
53.25368223
48.05141961
49.70131499
49.71249803
49.60916189
49.67161433
48.02608512
45.3032376
45.28094912
46.57399626
43.14427305
44.14483175
44.16346462
44.05480162
44.1006049
43.08602211
41.48995094
41.45636906
42.24994943
40.14097775
40.7572491
40.79302928
40.68998998
40.73760041
40.12454738
39.14681771
39.12279911
39.59890044
38.32844687
38.70244656
38.72341869
38.64141946
38.67379997
38.30179925
57.60371906
57.6781723
56.28712053
58.08590043
58.07198789
57.97286314
51.10370399
51.23912646
52.98856464
47.93972979
49.53627209
49.41936224
49.68681603
49.62179521
48.00299484
45.20055533
45.25094719
46.51522426
43.14538772
44.13417326
44.09746092
44.17165179
44.17260671
43.17944008
41.48374821
41.50575662
42.27589572
40.21175986
40.81979478
40.80313696
40.80089071
40.81297059
40.20138707
39.20509778
39.19367406
39.67273891
38.40444431
38.77525329
38.78987067
38.74591911
38.7616979
38.39003501
50.94013865
50.87353088
55.28890619
55.80046214
54.91129045
53.53920215
54.99937031
54.53097376
55.8510297
55.44258756
53.92522808
50.07696669
50.39819936
51.97598282
47.40850021
48.85150492
48.58220488
49.27450822
49.0864554
47.58872308
44.79773384
44.92501492
46.1004203
42.95374346
43.88143006
43.77919455
44.04273007
43.97006719
43.02321916
41.34832876
41.39509679
42.12848165
40.16651213
40.74399216
40.71048544
40.79099221
40.77125995
40.18411237
39.19543079
39.20061809
39.654458
38.43523072
38.7985665
38.79711725
38.79375245
38.79803625
38.43284714
51.38910061
51.2781301
53.29361449
53.77972313
53.35996111
51.72018889
53.02587288
52.50548033
54.04329897
53.54014702
52.20473214
48.57540279
48.96811387
50.35050967
46.4135789
47.63924103
47.30365835
48.28554961
47.96883094
46.6874118
44.11277582
44.29926485
45.30336166
42.576371
43.3929418
43.24453069
43.66591411
43.53506097
42.6861478
41.11747026
41.18127945
41.8412436
40.06238243
40.59013129
40.54624576
40.67254604
40.63123326
40.09044083
39.15919514
39.16963569
39.59213764
38.42185097
38.78176786
38.77296748
38.7947253
38.79000973
38.42931971
51.23466901
51.35640353
51.42580106
51.88723883
51.87941654
49.77038767
50.94812916
50.45197249
51.98165082
51.46090329
50.24464481
47.07135877
47.42416414
48.59105395
45.31520822
46.32442853
46.02573173
46.96871613
46.64045698
45.57937794
43.39436866
43.56178652
44.39690489
42.11422933
42.80302615
42.66925539
43.09412962
42.9457599
42.22627091
40.86571593
40.92339458
41.48920314
39.94004319
40.41059126
40.36572781
40.5001813
40.45484542
39.97434272
39.06587125
39.09614442
39.50308228
38.36279171
38.71669781
38.68943633
38.75891365
38.74004807
38.38417296
50.21716686
50.50955639
49.7024198
50.09607155
50.42095522
48.14000277
49.13861281
48.78129377
49.97993702
49.54120684
48.49728377
45.94612426
46.17922212
47.14561573
44.44271726
45.2750879
45.08161453
45.74885752
45.49736565
44.62705576
42.88493391
42.98638383
43.68147338
41.75551914
42.34766919
42.25922097
42.54680386
42.439676
41.83322228
40.62824538
40.69096533
41.20450945
39.76456461
40.21189892
40.15553465
40.31750712
40.26604791
39.8131404
38.91270622
38.95496185
39.34635907
38.24545626
38.58846009
38.54966514
38.6586866
38.62491694
38.27911344
48.97033833
49.29113614
48.46091651
48.73600745
49.11414485
47.12218558
47.96265974
47.73402594
48.46290474
48.19688991
47.32486248
45.28808129
45.43955867
46.27153573
43.91357966
44.65071146
44.5165555
44.92702454
44.78726726
44.03538648
42.49092652
42.58849423
43.22739785
41.43713112
41.99294955
41.90449752
42.17054411
42.08170306
41.51749176
40.36475582
40.43190768
40.91775921
39.55052182
39.9769589
39.91528468
40.09735891
40.03773589
39.60631109
38.72591919
38.77476807
39.15041526
38.09095099
38.42204067
38.37651496
38.50882755
38.46619989
38.13221825
47.72611511
48.02996474
47.42915208
47.67792853
47.95115951
46.35222823
47.0722188
46.85945731
47.50943009
47.28884662
46.53951773
44.70880656
44.84992543
45.59915829
43.44487012
44.12793125
44.00268992
44.38475982
44.2552512
43.5592397
42.11059481
42.20401117
42.8039315
41.11667149
41.64253073
41.5567205
41.81652099
41.72916095
41.19631672
40.09324344
40.16124364
40.62373863
39.31874096
39.72692941
39.66357403
39.8529343
39.79009558
39.37759988
38.52141369
38.573604
38.9348286
37.91376569
38.23369259
38.18445515
38.32986002
38.28218262
37.95959335
46.5559916
46.84200068
46.48403675
46.71347601
46.86998722
45.63408365
46.24312412
46.04456186
46.65044565
46.4450314
45.80920884
44.16567281
44.29845391
44.9717604
43.00476763
43.63832177
43.5203296
43.87941389
43.75798159
43.11233834
41.74887353
41.83751804
42.40394465
40.80401867
41.30477865
41.22273105
41.47179826
41.38780171
40.8811482
39.823341
39.89033715
40.33321655
39.08087861
39.47347503
39.41039539
39.600149
39.53674871
39.14049205
38.30873637
38.36230674
38.710958
37.72358094
38.0336255
37.98259329
38.13465221
38.08432102
37.77193368
45.45178188
45.72219906
45.60490825
45.81928158
45.85951723
44.95987466
45.46752688
45.28095739
45.84919677
45.65690388
45.12470276
43.65231889
43.77813776
44.38151973
42.58868548
43.17558929
43.0635352
43.40392398
43.28903213
42.69072014
41.40530495
41.48963372
42.02545059
40.50330004
40.98236436
40.90409514
41.14165697
41.0615422
40.57728699
39.55994063
39.62503558
40.05133545
38.84350308
39.2229074
39.16114027
39.34757402
39.28506359
38.9025654
38.0937806
38.14750577
38.48545651
37.52699491
37.82843251
37.7768696
37.93135482
37.8799321
37.57645207
44.40319789
44.66100095
44.77639362
44.9793658
44.91183606
44.32265692
44.73666092
44.55994831
45.09705558
44.91567268
44.47885405
43.16408711
43.28400516
43.8224413
42.19222537
42.73515097
42.62812464
42.95281398
42.84337317
42.28969354
41.07722679
41.15793809
41.66473499
40.2150676
40.6744103
40.59945262
40.82670334
40.75015566
40.28600989
39.30499514
39.36790512
39.77980022
38.61021858
38.97840683
38.91840411
39.09979002
39.03887653
38.66804111
37.88018899
37.93332207
38.26222213
37.32843896
37.62242682
37.571136
37.72533342
37.67383014
37.3780771
43.40149557
43.64763161
43.99004041
44.18300103
44.02137951
43.7163099
44.04249241
43.87393055
44.38541259
44.21295779
43.8653101
42.69713583
42.81207318
43.28952297
41.8123174
42.31368798
42.21094584
42.52223477
42.417437
41.90588276
40.76216327
40.83982287
41.31885629
39.93820451
40.37895148
40.30681621
40.52524283
40.45175172
40.0064362
39.05873047
39.11950789
39.51837781
38.38275603
38.74118956
38.68304496
38.85886661
38.79979564
38.43903293
37.67007674
37.72220986
38.04338928
37.13072014
37.41829846
37.36774916
37.52001188
37.46905015
37.17995277
42.44341281
42.67917123
43.23976532
43.42425235
43.17334883
43.13556737
43.37888213
43.21713808
43.70719139
43.54220082
43.2785986
42.24805683
42.35882557
42.77840331
41.44653922
41.90835887
41.80923884
42.10916942
42.00831974
41.53677687
40.45817779
40.53323026
40.98560523
39.67125161
40.09415982
40.0244422
40.23532115
40.16444309
39.73713483
38.82057218
38.87939729
39.26609196
38.16164562
38.51132311
38.45495522
38.62535689
38.56811882
38.21632529
37.46446929
37.51542492
37.8298863
36.93549287
37.21754834
37.16797632
37.31744118
37.26736408
36.98399545
41.52285605
41.74994313
42.52189064
42.6982556
42.35871979
42.57617082
42.74064126
42.5844471
43.05700033
42.89815911
42.71422551
41.81399689
41.92124432
42.28545532
41.09281693
41.51668256
41.42064506
41.71094751
41.61343955
41.18021622
40.16374441
40.23653338
40.66317864
39.4129133
39.81855749
39.750948
39.9552862
39.88666415
39.47675053
38.58976898
38.64682357
39.02189156
37.94680619
38.28839061
38.23367817
38.39901988
38.34350139
37.99994206
37.26376104
37.31347488
37.62194654
36.74365158
37.02090473
36.97242292
37.11868455
37.06965414
36.79125299
40.63207762
40.85215211
41.8327293
42.00279041
41.57042483
42.03457001
42.12356333
41.97237676
42.42955761
42.27594457
42.1684565
41.39252758
41.4968307
41.80771998
40.74937354
41.13655662
41.0431093
41.3252973
41.23061043
40.83436082
39.87753285
39.94838089
40.3500463
39.16210363
39.55093039
39.48513996
39.68381824
39.61715114
39.22415564
38.36554552
38.42102499
38.78483701
37.73790789
38.07183775
38.01862517
38.17935489
38.12541119
37.78959946
37.06796739
37.11646269
37.41946465
36.55563468
36.8286521
36.78127666
36.92422492
36.87629707
36.60226032
39.76896569
39.98216334
41.16537772
41.33035103
40.80652984
41.50818908
41.52558966
41.3786937
41.82232933
41.67340492
41.63846755
40.98164693
41.08346253
41.34277089
40.41463232
40.76615266
40.6748931
40.95023299
40.85792553
40.49757462
39.59837675
39.66755914
40.04483516
38.91784401
39.29019102
39.22597234
39.41975682
39.35478121
38.9783409
38.14717276
38.20125267
38.55405834
37.53449378
37.86105432
37.80919356
37.96575808
37.91323953
37.58485698
36.87691665
36.92424647
37.22214307
36.37157771
36.64079354
36.59450244
36.73417572
36.68734713
36.41720985
38.93391148
39.14009352
40.5149356
40.67608276
40.06373359
40.99480109
40.94544981
40.8031377
41.23313046
41.08875271
41.12205033
40.57979661
40.67948757
40.88877039
40.08729455
40.40400067
40.3146039
40.58412726
40.49383612
40.16849872
39.32528653
39.39304028
39.74639461
38.67929583
39.03541295
38.97255061
39.16211162
39.09859598
38.73844072
37.93399885
37.98683941
38.32880047
37.33610183
37.65547057
37.60482147
37.75764835
37.70641014
37.38525539
36.69036129
36.73659545
37.02963446
36.1914735
36.45721243
36.41196056
36.54848036
36.50271529
36.23612738
38.12552993
38.32516635
39.88007868
40.03736005
39.3403637
40.49301557
40.38161383
40.24278492
40.66176348
40.52125867
40.61739885
40.18572183
40.28356024
40.44422424
39.76626208
40.04888661
39.96109789
40.22563087
40.13705659
39.84597616
39.05739599
39.12391927
39.45372977
38.44570025
38.78576868
38.72407956
38.90999751
38.84773554
38.50366918
37.72541353
37.77715773
38.1083695
37.14225579
37.45453102
37.40496508
37.55445461
37.5043564
37.19031371
36.50799527
36.55320938
36.84154835
36.01520613
36.27770066
36.23343248
36.36696356
36.32220617
36.05891415
37.34259005
37.53585994
39.25969456
39.4134959
38.63666484
40.00209558
39.83087641
39.69489459
40.10473293
39.96745544
40.12383268
39.79855594
39.89474355
40.00823919
39.45069414
39.69990941
39.61353542
39.87367952
39.78662051
39.52911406
38.79401705
38.859473