/*--------------------------------*- C++ -*----------------------------------*\
| =========                 |                                                 |
| \\      /  F ield         | OpenFOAM: The Open Source CFD Toolbox           |
|  \\    /   O peration     | Version:  v2012                                 |
|   \\  /    A nd           | Website:  www.openfoam.com                      |
|    \\/     M anipulation  |                                                 |
\*---------------------------------------------------------------------------*/
FoamFile
{
    version     2.0;
    format      ascii;
    class       surfaceScalarField;
    location    "1";
    object      meshPhi;
}
// * * * * * * * * * * * * * * * * * * * * * * * * * * * * * * * * * * * * * //

dimensions      [0 3 -1 0 0 0 0];
oriented        oriented;


internalField   nonuniform List<scalar> 
5975
(
-4.741856588e-06
0.0001556709328
4.417709458e-06
-0.000311669461
0.0001563226753
0.000624673843
-0.0001032499069
0.0002171770594
-0.001258825312
0.0006340600824
-0.0001138357656
-0.0003734175979
0.001197525359
0.0003658088383
-0.001131419177
-0.0003613744818
0.0008375452148
0.000347284289
-0.0007156938085
-0.0001779921122
0.0003465757179
0.0001662063019
-0.0002394941887
2.702715539e-05
-1.165839982e-05
9.098611831e-06
-2.651639074e-06
0
0
0
0
0
0
0
0
0
0
0
0
0
0
0
0
0
-1.64693992e-05
0.0003514951113
1.646938544e-05
-0.0007057383083
0.0003542432108
0.001420823326
-0.0002193480039
0.0002191230274
-0.001417729559
-0.0003458449263
0.001256350875
0.0003380747192
-0.001163107694
-0.0002999853964
0.0007876004155
0.0002864500488
-0.000654849232
-0.0001208142315
0.0002661916695
0.0001052507031
-0.0001690036908
4.046428861e-06
-1.728537366e-06
7.808229638e-07
0
0
0
0
0
0
0
0
0
0
0
0
0
0
0
0
0
0
-4.390712638e-05
0.001576039816
4.390712637e-05
-0.001576039816
-0.0002154538636
0.00155047951
0.000211053804
-0.001509701467
-0.0003063829925
0.001253447441
0.0002915222238
-0.001128264564
-0.0002296101876
0.0006884746971
0.0002115533248
-0.0005389350296
-6.340157147e-05
0.0001642232778
5.150937695e-05
-8.59495012e-05
0
0
0
0
0
0
0
0
0
0
0
0
0
0
0
0
0
0
0
0
0
-4.038163194e-05
0.001621869382
3.714241946e-05
-0.001598877503
-0.0001829295459
0.001450233748
0.0001685809845
-0.001369460561
-0.0002299071783
0.001034853202
0.0002047210835
-0.000899540287
-0.0001447802874
0.0004767785764
0.0001203957832
-0.0003470712528
-2.072194717e-05
6.289796579e-05
1.220340364e-05
-1.713015568e-05
0
0
0
0
0
0
0
0
0
0
0
0
0
0
0
0
0
0
0
0
0
-2.383958888e-05
0.001231223217
1.914660819e-05
-0.001196862581
-0.0001154907542
0.0010095723
9.637828953e-05
-0.0009215872834
-0.0001234766873
0.0006057226123
9.711681781e-05
-0.0004929069838
-5.175912011e-05
0.0001858208641
3.321138069e-05
-0.0001080695672
-1.688821313e-07
4.533371703e-07
0
0
0
0
0
0
0
0
0
0
0
0
0
0
0
0
0
0
0
0
0
0
0
-7.592387912e-06
0.0005761257148
4.978550084e-06
-0.0005488037515
-4.366176053e-05
0.0004102849403
2.951602569e-05
-0.0003504832446
-3.169113301e-05
0.0001626997763
1.687430111e-05
-0.0001071254985
-1.57579967e-06
6.06851627e-06
4.36422169e-09
-6.517465234e-08
0
0
0
0
0
0
0
0
0
0
0
0
0
0
0
0
0
0
0
0
0
0
0
0
0
-7.10528218e-07
7.130898203e-05
1.973339132e-07
-6.225466476e-05
-3.007890918e-06
2.474023638e-05
2.489789053e-07
-1.361481913e-05
0
0
0
0
0
0
0
0
0
0
0
0
0
0
0
0
0
0
0
0
0
0
0
0
0
0
0
0
0
0
0
0
0
0
0
0
0
0
0
0
0
0
0
0
0
0
0
0
0
0
0
0
0
0
0
0
0
0
0
0
0
0
0
0
0
0
0
0
0
0
0
0
0
0
0
0
0
0
0
0
0
0
0
0
0
0
0
0
0
0
0
0
0
0
0
0
0
0
0
0
0
0
0
0
0
0
0
0
0
0
0
0
0
0
0
0
0
0
0
0
0
0
0
0
0
0
0
0
0
0
0
0
0
0
0
0
0
0
0
0
0
0
0
0
0
0
0
0
0
0
0
0
0
0
0
0
0
0
0
0
0
0
0
0
0
0
0
0
0
0
0
0
0
0
0
0
0
0
0
0
0
0
0
0
0
0
0
0
0
0
0
0
0
0
0
0
0
0
0
0
0
0
0
0
0
0
0
0
0
0
0
0
0
0
0
0
0
0
0
0
0
0
0
0
0
0
0
0
0
0
0
0
0
0
0
0
0
0
0
0
0
0
0
0
0
0
0
0
0
0
0
0
0
0
0
0
0
0
0
0
0
0
0
0
0
0
0
0
0
0
0
0
0
0
0
0
0
0
0
0
0
0
0
0
0
0
0
0
0
0
0
0
0
0
0
0
0
0
0
0
0
0
0
0
0
0
0
0
0
0
0
0
0
0
0
0
0
0
0
0
0
0
0
0
0
0
0
0
0
0
0
0
0
0
0
0
0
0
0
0
0
0
0
0
0
0
0
0
0
0
0
0
0
0
0
0
0
0
0
0
0
0
0
0
0
0
0
0
0
0
0
0
0
0
0
0
0
0
0
0
0
0
0
0
0
0
0
0
0
0
0
0
0
0
0
0
0
0
0
0
0
0
0
0
0
0
0
0
0
0
0
0
0
0
0
0
0
0
0
0
0
0
0
0
0
0
0
0
0
0
0
0
0
0
0
0
0
0
0
0
0
0
0
0
0
0
0
0
0
0
0
0
0
0
0
0
0
0
0
0
0
0
0
0
0
0
0
0
0
0
0
0
0
0
0
0
0
0
0
0
0
0
0
0
0
0
0
0
0
0
0
0
0
0
0
0
0
0
0
0
0
0
0
0
0
0
0
0
0
0
0
0
0
0
0
0
0
0
0
0
0
0
0
0
0
0
0
0
0
0
0
0
0
0
0
0
0
0
0
0
0
0
0
0
0
0
0
0
0
0
0
0
0
0
0
0
0
0
0
0
0
0
0
0
0
0
0
0
0
0
0
0
0
0
0
0
0
0
0
0
0
0
0
0
0
0
0
0
0
0
0
0
0
0
0
0
0
0
0
0
0
0
0
0
0
0
0
0
0
0
0
0
0
0
0
0
0
0
0
0
0
0
0
0
0
0
0
0
0
0
0
0
0
0
0
0
0
0
0
0
0
0
0
0
0
0
0
0
0
0
0
0
0
0
0
0
0
0
0
0
0
0
0
0
0
0
0
0
0
0
0
0
0
0
0
0
0
0
0
0
0
0
0
0
0
0
0
0
0
0
0
0
0
0
0
0
0
0
0
0
0
0
0
0
0
0
0
0
0
0
0
0
0
0
0
0
0
0
0
0
0
0
0
0
0
0
-0.0001553494754
1.471677872e-06
-1.523598833e-06
0.0001554013963
0.0001547446481
-0.0003096949356
-5.141044438e-06
9.180901688e-05
-0.0006159208302
-9.189459335e-05
0.0006160064066
-0.0003494003603
4.121523294e-06
-4.121545761e-06
0.0003494003828
0.0001558494382
1.293172436e-06
-0.0006960570621
0.0003185883828
9.687130193e-06
1.911789678e-06
0.0001618148223
-0.001363311544
0.0006936967686
0.0006798964141
-8.114908666e-05
-9.094737476e-05
0.0006247758714
9.170698848e-05
-0.0007734980385
5.500880317e-06
-5.500880301e-06
0.0007734980385
0.0003514951262
4.121508474e-06
4.786264015e-05
-0.0006160511459
-4.787719479e-05
0.000309036593
0.0003070291075
6.664383685e-07
-0.0003281739505
0.00032847101
-9.634979002e-07
-0.0003260495681
1.80523909e-07
0.0003265354826
3.068233047e-06
-0.0003257662268
-3.351574398e-06
5.035516531e-05
-0.0006519476032
-4.910788209e-05
0.00065070032
-0.0006249927802
4.78913289e-05
0.0003135441975
0.000311419894
-3.072836228e-06
-0.0001516738342
0.0001521854045
2.561265852e-06
6.27602127e-07
-0.0003180945572
-7.976855936e-07
0.0001592529433
0.0001590116974
-0.0001510429692
-3.463345218e-06
0.0001514334782
3.057149301e-06
-0.0001507946735
-3.305444967e-06
1.387210673e-05
-0.0003005101743
-1.403844601e-05
0.0003006765136
-0.0003204168705
0.0003205527411
4.917315261e-07
-0.001536962309
0.000763464271
-1.646938344e-05
-2.743774294e-05
-0.001529174447
0.0001748637691
-0.0001754141616
0.001536783325
0.000175527393
0.0007150850176
0.0006920257377
1.346042494e-05
-0.000309045648
-1.359024443e-05
0.0003091754675
-0.0003025787577
0.0003026698294
1.378103509e-05
2.749494442e-06
-0.0001513661793
4.937484502e-05
-0.0006823244415
-4.641873716e-05
0.0006793683337
-0.0006612710009
0.0006591377236
5.248844261e-05
2.762808942e-06
-0.0003278685264
-0.0007347775504
5.500880256e-06
-5.500880118e-06
0.0007347775503
-1.988286027e-05
-0.0001892114708
0.0002090943311
2.851262861e-06
-0.0001489463165
-3.100721594e-06
0.0001491957752
-1.019308584e-05
-0.000336546829
1.146118094e-05
-4.211645891e-06
-0.0003344516198
2.746468386e-06
0.0003359167973
0.0001516207639
1.497741e-06
-1.142145763e-07
-0.0001530042904
0.0001520225752
4.767240464e-07
-0.0001527347626
2.354632953e-07
1.983267978e-06
-0.0001527889047
-1.965864911e-06
0.0001527715017
-1.336546647e-06
3.627918635e-06
0.0001497312032
1.898003603e-05
6.785527445e-06
0.0001258552005
1.093230082e-07
-0.0001566448911
-3.378259944e-07
0.0001568733941
-0.0001515357123
0.000149016145
1.18302072e-06
3.287169855e-05
-0.0001580616148
-4.345159265e-06
-1.235676383e-06
-0.0001581853479
1.044982202e-06
0.0001583760421
-0.0001568441094
0.000156931734
2.169837925e-08
-9.601390306e-07
-0.0001592415787
8.493764624e-07
0.0001593523412
-0.0001586378332
0.0001587740571
-1.371900301e-06
-6.704348792e-06
-0.0001590396165
-0.0001927670532
0.0002117470892
-0.0001493190539
0.0001491311583
3.039158437e-06
-1.754590926e-06
-0.0001464696065
0.0001283413371
-0.0001535397926
-3.772951956e-05
-0.0006159359394
-0.0001032347977
-0.001175195446
0.0003447627446
-0.0003468509906
0.001209410044
-0.0001531405693
0.0001533652096
1.758627696e-06
1.740332739e-06
-0.000152799321
8.15000499e-07
-0.0001561119344
-1.347957218e-06
-0.0001457531029
0.0001435867665
2.65014578e-06
-0.0001466823699
3.071939739e-06
3.395371111e-06
-0.0001488170501
-3.524637481e-06
4.564700675e-06
-0.0001483536747
-4.629737905e-06
0.000148418712
2.075018155e-05
5.580928643e-06
-0.0001552652924
0.0001289341822
-0.0001968833136
0.0002176334951
-0.0001985813465
-2.189284745e-05
-3.458825643e-05
-5.059891295e-06
-0.0001589331988
-0.0001565879384
0.0001275806106
-0.0001618713082
-2.137921073e-06
2.082923161e-06
0.0001619263061
-0.0001602550561
0.0001608189096
-1.523992582e-06
1.179393239e-05
0.0001307682575
-3.72394883e-05
-1.676640049e-06
-0.0001502953425
-0.0001479160257
0.0001224704698
0.0001925895992
-3.525420807e-05
-0.0001537074725
-2.1673962e-05
0.0002142635612
-3.16036824e-06
0.0001312176095
-0.0001524316109
0.0001239629302
0.0001573560679
-1.488188278e-06
-0.0001562057056
-2.981404605e-06
-3.654584106e-05
-1.373302912e-06
1.008150593e-05
0.0001357742708
-0.0001536864139
0.0001272220787
-0.0001539915814
3.465517698e-06
-3.255256064e-06
-0.0001582718764
0.0001568243465
-0.0001584187201
-0.0001570198154
-3.729570977e-06
3.416403853e-06
-2.308510628e-06
-0.0001581277087
-0.0001588784687
-0.0001453313554
1.160544783e-05
0.0001319713167
-3.357140083e-07
2.920027229e-06
-0.0001479156686
-0.0001484819605
-3.143573402e-06
-0.0001521355355
1.739316284e-06
0.0001499214458
-0.000150144992
0.0001237973741
-0.001118057976
-0.0003781417579
-0.0008366426412
0.0003852515413
-0.0003940245747
0.0009453707226
-0.000722838865
-0.0003731671188
-0.0003611127083
0.0002323336265
-0.0002496519642
0.0004785597117
-0.00025392459
-0.0001946704303
3.750149003e-05
-3.421567258e-05
-4.710701272e-05
8.688847085e-05
4.120630802e-06
-0.0003181209741
-4.094213854e-06
1.306326814e-05
-0.000317923732
-1.331452161e-05
0.0003181749855
-0.0003115355446
0.0003115776856
1.341828394e-05
-0.001363928258
-0.0002182987725
-0.001247298969
0.0003265467774
-0.0003371991144
0.001320212037
0.001239118714
0.0003427525474
-0.001161541509
-0.0003520668565
-0.0008054378969
0.0003272458949
-0.0003443535421
0.0009373005648
0.0009505771265
0.0003722610163
-0.0006740348012
-0.0003171409465
-0.0002879706765
0.0001694353209
-0.0001824593263
0.0004074513782
0.0004652348975
0.0002188399069
-0.0001842265708
-0.0001319290958
1.278293165e-05
-9.001685968e-06
-1.966004657e-05
4.396885462e-05
7.620473337e-05
3.224661633e-05
1.646938349e-05
-0.0007347775503
-1.646938362e-05
4.937484501e-05
-0.0007347775503
-4.937484502e-05
0.0007347775503
-0.0007057383083
0.0007057383083
4.937484502e-05
-0.001500613921
-0.0002178522872
-0.001270093909
0.0002980489017
-0.0003077852945
0.001370276455
0.00132697613
0.0003216970761
-0.00115007642
-0.0003182387339
-0.000716652891
0.0002636747048
-0.0002789370313
0.0008679753533
0.0009245332249
0.0003146028023
-0.0005732289638
-0.0002465583056
-0.0001934897438
0.0001012401045
-0.0001216464306
0.0003045868949
0.0003848243117
0.0001500358315
-0.000107568434
-8.0475825e-05
1.426458058e-06
0
-3.057987155e-06
8.231812994e-06
3.285419529e-05
9.099103012e-06
-0.001647579957
-1.221596487e-06
3.81389289e-07
3.330522761e-08
5.467575055e-06
-0.001631031009
-4.262951538e-05
-0.001507464517
0.0001531441435
-0.0001621059728
0.001563494891
0.001570459141
0.00017284856
-0.001434253219
-0.0001948880589
-0.001112428937
0.0002308919267
-0.0002517968825
0.001235461756
0.001360448473
0.0002855080502
-0.0009772625776
-0.0002530481791
-0.0005422670529
0.000175829112
-0.0002008883691
0.0006871732173
0.0008404761732
0.0002453255042
-0.0004047330359
-0.0001685606387
-8.941265668e-05
4.553430779e-05
-5.994765192e-05
0.000173423858
0.0002712381757
8.844446236e-05
-3.179492202e-05
-3.056678014e-05
0
0
0
0
2.948649618e-06
1.36572871e-07
-0.001366750012
-6.256420138e-06
5.101194553e-06
-2.396674502e-06
-0.001333273773
-2.859359546e-05
-0.001146591661
9.880130703e-05
-0.0001142898837
0.001223043117
0.001514712774
0.0001419483878
-0.00105681831
-0.0001343183326
-0.0007251442551
0.0001307043562
-0.0001569347561
0.00084364968
0.001160188752
0.0002077326041
-0.0006030734584
-0.0001507533367
-0.0002570328894
7.317368057e-05
-9.756184307e-05
0.0003645541314
0.0006156033311
0.0001497318051
-0.0001633756854
-7.304089681e-05
-5.505738073e-06
3.875368602e-06
-1.037939774e-05
3.418938982e-05
0.0001355651397
3.196054872e-05
0
-1.923111144e-06
0
0
0
0
0
0
-0.0007439853579
-6.48218219e-06
7.177047784e-06
-7.052856024e-06
-0.0007135077359
-1.08687092e-05
-0.0005560664642
3.880374445e-05
-5.244795061e-05
0.0006182855853
0.001085492402
8.295798268e-05
-0.0004864679785
-5.986521966e-05
-0.0002583714351
3.878830655e-05
-5.826935325e-05
0.0003347408444
0.000717015042
0.0001049826386
-0.0001860185525
-5.045137948e-05
-2.791460704e-05
6.494570152e-06
-1.70101547e-05
6.734318347e-05
0.0002786947968
5.107686667e-05
-5.967169651e-06
-7.437286968e-06
0
0
0
0
1.291522293e-05
7.925813651e-07
0
0
0
0
0
0
0
0
-0.0001589692034
-1.419148461e-06
2.662361741e-06
-5.388891492e-06
-0.0001448168888
-1.616390622e-06
-7.991465034e-05
3.51951429e-06
-8.955842543e-06
0.0001038985637
0.0004645115592
2.680563967e-05
-5.59487596e-05
-8.917252693e-06
-5.844134518e-06
1.638246012e-07
-3.122481115e-06
1.665139405e-05
0.0002238641128
2.277337391e-05
-5.991121531e-07
-1.050847269e-06
0
0
0
0
2.570204563e-05
1.120657863e-06
0
0
0
0
0
0
0
0
0
0
0
0
0
0
0
0
0
0
0
-5.010392079e-07
0
0
0
0
0
0
3.765714319e-05
5.740592548e-07
0
0
0
0
0
0
1.186857086e-06
0
0
0
0
0
0
0
0
0
0
0
0
0
0
0
0
0
0
0
0
0
0
0
0
0
0
0
0
0
0
0
0
0
0
0
0
0
0
0
0
0
0
0
0
0
0
0
0
0
0
0
0
0
0
0
0
0
0
0
0
0
0
0
0
0
0
0
0
0
0
0
0
0
0
0
0
0
0
0
0
0
0
0
0
0
0
0
0
0
0
0
0
0
0
0
0
0
0
0
0
0
0
0
0
0
0
0
0
0
0
0
0
0
0
0
0
0
0
0
0
0
0
0
0
0
0
0
0
0
0
0
0
0
0
0
0
0
0
0
0
0
0
0
0
0
0
0
0
0
0
0
0
0
0
0
0
0
0
0
0
0
0
0
0
0
0
0
0
0
0
0
0
0
0
0
0
0
0
0
0
0
0
0
0
0
0
0
0
0
0
0
0
0
0
0
0
0
0
0
0
0
0
0
0
0
0
0
0
0
0
0
0
0
0
0
0
0
0
0
0
0
0
0
0
0
0
0
0
0
0
0
0
0
0
0
0
0
0
0
0
0
0
0
0
0
0
0
0
0
0
0
0
0
0
0
0
0
0
0
0
0
0
0
0
0
0
0
0
0
0
0
0
0
0
0
0
0
0
0
0
0
0
0
0
0
0
0
0
0
0
0
0
0
0
0
0
0
0
0
0
0
0
0
0
0
0
0
0
0
0
0
0
0
0
0
0
0
0
0
0
0
0
0
0
0
0
0
0
0
0
0
0
0
0
0
0
0
0
0
0
0
0
0
0
0
0
0
0
0
0
0
0
0
0
0
0
0
0
0
0
0
0
0
0
0
0
0
0
0
0
0
0
0
0
0
0
0
0
0
0
0
0
0
0
0
0
0
0
0
0
0
0
0
0
0
0
0
0
0
0
0
0
0
0
0
0
0
0
0
0
0
0
0
0
0
0
0
0
0
0
0
0
0
0
0
0
0
0
0
0
0
0
0
0
0
0
0
0
0
0
0
0
0
0
0
0
0
0
0
0
0
0
0
0
0
0
0
0
0
0
0
0
0
0
0
0
0
0
0
0
0
0
0
0
0
0
0
0
0
0
0
0
0
0
0
0
0
0
0
0
0
0
0
0
0
0
0
0
0
0
0
0
0
0
0
0
0
0
0
0
0
0
0
0
0
0
0
0
0
0
0
0
0
0
0
0
0
0
0
0
0
0
0
0
0
0
0
0
0
0
0
0
0
0
0
0
0
0
0
0
0
0
0
0
0
0
0
0
0
0
0
0
0
0
0
0
0
0
0
0
0
0
0
0
0
0
0
0
0
0
0
0
0
0
0
0
0
0
0
0
0
0
0
0
0
0
0
0
0
0
0
0
0
0
0
0
0
0
0
0
0
0
0
0
0
0
0
0
0
0
0
0
0
0
0
0
0
0
0
0
0
0
0
0
0
0
0
0
0
0
0
0
0
0
0
0
0
0
0
0
0
0
0
0
0
0
0
0
0
0
0
0
0
0
0
0
0
0
0
0
0
0
0
0
0
0
0
0
0
0
0
0
0
0
0
0
0
0
0
0
0
0
0
0
0
0
0
0
0
0
0
0
0
0
0
0
0
0
0
0
0
0
0
0
0
0
0
0
0
0
0
0
0
0
0
0
0
0
0
0
0
0
0
0
0
0
0
0
0
0
0
0
0
0
0
0
0
0
0
0
0
0
0
0
0
0
0
0
0
0
0
0
0
0
0
0
0
0.0001549142265
-1.693177168e-06
1.353159631e-06
-1.634307577e-06
0.0001551953744
0.0001555963249
1.158231051e-06
-7.827237703e-06
-0.0003094171239
7.549425958e-06
0.0003070450131
-0.0003069668563
-7.905394518e-06
-5.365899403e-06
0.0001541292988
-0.00058810205
0.0005881713234
9.236017102e-05
0.0002953516393
5.9343214e-05
-0.0005883188829
5.970282253e-05
-0.0006161121851
-5.964178328e-05
-0.0003371575366
0.0003397670351
-6.821144337e-06
-0.0003526349718
4.548685419e-07
-0.0001564839774
-8.292796575e-07
-0.0001579320915
5.76023204e-07
1.25052999e-06
-0.0003140213628
-6.103733192e-07
-1.304813611e-06
0.0001577024967
0.000156983523
-2.743774295e-05
-0.0006960570621
2.743774293e-05
-0.0006694590191
-2.62306466e-05
0.0003342536004
0.0003339983223
-1.365199189e-07
-1.802134445e-06
-0.0003352188823
-9.115592355e-05
-0.0006605708727
0.0006607738061
9.095299014e-05
-6.036498993e-05
5.916889777e-05
-0.0006600749088
6.034219919e-05
-0.0006834142335
-5.925240715e-05
5.981228166e-05
-0.0006251022394
-0.0006516821318
-6.063046133e-05
-0.000651917676
-9.133089031e-05
0.0006520926428
-0.0007444587966
0.0007444587965
5.500880295e-06
5.500879781e-06
-0.0007150850191
-1.379365262e-06
-4.12151307e-06
0.0003587515407
0.0003563334769
-2.557954124e-05
-0.0006071112407
0.0003046261133
0.0003025411328
-2.235365895e-05
-1.66042444e-05
1.65537457e-05
-0.000302528259
1.647795035e-05
-0.000309036264
-1.648733428e-05
-0.0003002564758
-1.685794285e-05
-0.0003000809434
-2.547159995e-05
0.0002999730021
-0.0001470011978
3.49972804e-06
3.834378385e-06
-0.0001470246404
-4.430069628e-06
3.916800423e-06
0.0003289842792
-0.0003306096406
0.00033160421
-5.424638995e-06
-1.847672876e-06
-0.0003297254656
0.000324729677
-1.334090465e-07
-0.000324415744
-3.254197491e-06
3.100401256e-06
0.0001621913023
0.000162692171
0.0003271980855
-0.0003259113639
1.29812549e-05
-1.303112654e-05
0.0003259612355
-0.0003199674821
0.000319919096
1.311165431e-05
3.75892932e-06
-0.000320055169
0.0006422996706
-4.808483587e-05
-0.0006433227168
3.609126237e-05
-3.569197478e-05
0.0003219329008
3.673452471e-05
0.0003241456938
1.638665754e-05
-0.0003114442518
-0.0006338789767
0.0003161477588
-1.628769094e-05
-1.959679789e-05
-0.0006340724837
2.304187355e-06
-2.836833686e-06
0.0001527180509
-0.0001525294824
0.0001528021051
2.031564642e-06
2.250793514e-06
-0.00015221901
7.069238433e-07
-4.94566731e-07
-0.0001592232299
0.0001561726921
-0.0001577742789
-0.0003164683935
0.0001586861525
0.0001582350854
-1.089404035e-06
-0.0001583777088
-9.801033451e-07
-0.0001591877871
9.263117564e-07
0.0001502875389
-3.497312201e-06
-0.0001502535719
3.538891046e-06
-3.396344143e-06
-8.128392911e-06
-0.0003008669447
8.113281494e-06
0.0001506580342
0.0001502240219
-0.0002984372084
-3.833405803e-06
0.0001496462066
0.0001490607154
3.296256128e-06
-0.0001492199389
0.0002983139925
-1.411174519e-05
-0.0002982406933
1.122384516e-05
-1.134706113e-05
1.103341398e-05
-0.0002958543062
0.0001476281221
-0.0002956103095
-2.37287277e-06
0.0001612198048
4.706495886e-07
-0.000322627899
0.0001614841193
-0.0003222695766
1.061527217e-06
-1.452147593e-06
-0.0001619465637
-0.0001612217726
-6.753337572e-06
0.000164185653
0.0001637431551
3.338917652e-06
2.683697302e-06
0.000162553738
-2.500356768e-06
-8.778118689e-05
-0.001536962309
8.778118688e-05
-0.001498598839
-3.840634187e-05
0.0007541400427
0.0007444587965
1.646938346e-05
-0.0007444587965
0.001498598839
-0.000175527393
-0.001497455122
0.0001316548644
-0.0001316548644
0.0001316391165
6.034219917e-05
-0.0007057383083
-0.001459873854
0.0007250963041
-6.034219917e-05
-7.131266519e-05
-0.001459873854
0.0003069753277
-1.352821637e-05
-0.0003070373558
1.082354159e-05
-1.081507016e-05
1.058188515e-05
1.104492668e-05
0.0003026583167
-0.000304934559
0.0003051644155
-0.0003046817403
-0.0003049790634
0.0001523284576
-2.460759369e-06
-3.04343895e-06
-7.720042371e-06
0.000151762198
0.0001512893578
0.0006831870236
-5.285808061e-05
-0.0006767476802
5.509507034e-05
-4.136706581e-05
3.840634187e-05
3.818471681e-05
0.0006576875315
-0.0006686408117
0.0006654584627
-0.0006690104497
-0.0003329862349
-1.601904783e-06
-2.433112263e-05
0.0003324824667
0.0003310764721
0.0003292704561
0.0003277044806
-1.063727295e-05
0.0007250963041
-0.0007250963044
-5.467575062e-06
1.362736598e-06
-5.467575055e-06
0.0001478775405
-0.0001479063224
2.611660641e-06
1.512093403e-06
7.592685886e-06
-8.353521164e-06
0.0001664499006
0.0001659151446
0.0001655307812
0.0001642928464
9.15739928e-06
-0.0003376519478
-8.052280537e-06
0.0003346213705
-0.0003338174924
5.152156025e-06
0.0003327695395
-0.000331870744
-6.472591904e-06
-8.207742367e-06
-0.0001528043513
2.585258225e-07
-1.453076773e-06
1.450830622e-06
-1.154001254e-06
-0.0001528718917
1.29113039e-06
0.0001532134834
-0.000152916654
0.0001526133862
1.728296791e-06
1.627906752e-06
0.0001582982535
5.952202111e-07
-0.0001578484915
-2.014851579e-06
1.89438493e-06
-1.910685894e-06
-1.029507352e-06
-0.0001580683212
-0.0001574514026
0.0001584889028
1.305631345e-06
-0.0001589451577
-8.821695595e-07
1.596793442e-06
-7.530582778e-07
-2.015097487e-06
-0.0001585460127
-0.0001586122817
2.161291142e-06
-0.0001491507216
-0.0001496088754
-0.0002617206116
-0.001221791218
0.0002613318711
0.0006158425135
0.0006064660038
-0.001184480321
0.0005968602629
0.0005877984779
0.0001036991706
-0.0005879782117
0.001177311308
-0.001149374153
0.0003057699692
0.0003050574864
1.705486534e-06
0.0001532876298
-0.0001541947493
0.0001542659283
-0.0001542454281
1.994179401e-06
-1.779439143e-06
1.799939336e-06
-1.435830305e-06
9.20220776e-07
0.0001555594834
-3.741929546e-06
-0.0001486607284
3.585607799e-06
0.0001479312318
-0.000147838783
0.0001477203279
-4.721943695e-06
4.07542219e-06
-4.193877302e-06
-0.0001469264967
1.727510209e-06
-0.0001623970212
-2.305914447e-06
-0.0001620072759
0.0001618419497
1.725092779e-06
-1.846906133e-06
1.681579881e-06
-2.317621177e-06
-1.155921225e-06
-0.000161420905
-5.494801482e-06
-1.710313124e-05
0
0
0
1.462546845e-08
0
0
0
0
0
-0.0003140012551
4.397601724e-06
-7.506934824e-06
7.389935848e-06
-0.0003138842561
-0.0003116269698
-0.001295050495
0.0002171849685
0.0006431249103
-0.0002612529646
0.0002611991189
-0.001291451194
-0.001257697245
-0.001142826388
0.001218303393
0.0003600920495
-0.0003779381022
0.0003722419695
-0.001054420425
-0.0003880587761
-0.00104976419
-0.0007010210639
0.0008281251198
0.0003281946037
-0.0003134315386
0.0002933150088
-0.000576678835
-0.0003276000575
-0.0005899517102
-0.0002264918518
0.0003325779558
0.0001516734137
-0.0001149197545
0.0001027895961
-0.0001368711957
-0.0001248463049
-0.0001480698008
0
-4.012091833e-06
0
0
0
0
0
0
0
0
0
0
0
0
0
0
-0.0007150850176
1.646938397e-05
-2.743774295e-05
2.743774295e-05
-0.0007150850176
-0.0007057383083
-0.001451365155
0.0002187929787
-0.0002603746054
0.0002587246426
-0.001416150206
-0.0002619224264
-0.001392533969
-0.001169437527
0.001273783114
0.0003271632234
-0.0003542067718
0.0003282542176
-0.001040045412
-0.0003564751039
-0.001057229511
-0.0006321420433
0.0007715758493
0.000273953794
-0.0002462873657
0.0002277498039
-0.000489707969
-0.0002658772035
-0.0005159353909
-0.0001486868438
0.0002420814507
9.234876223e-05
-6.546864558e-05
5.252128039e-05
-7.282298336e-05
-7.58297037e-05
-8.868125138e-05
0
0
0
0
0
0
0
0
0
0
0
0
0
0
0
0
-0.001612261289
0.001614211788
4.375715216e-05
-8.775858602e-05
8.702944248e-05
-0.001606164936
-0.001575750176
-0.001502917085
0.001555662693
0.0002042655911
-0.0002438046029
0.0002341153426
-0.001429379913
-0.0002509072089
-0.00144637155
-0.001092024207
0.001221723647
0.0002736930864
-0.0002866233945
0.0002669653345
-0.0009500291958
-0.000303306336
-0.0009889506589
-0.0005020501215
0.0006493466219
0.0001910308477
-0.000172050279
0.0001529402681
-0.0003646434016
-0.0001890491303
-0.0003979120129
-6.542059478e-05
0.0001416014776
4.104896834e-05
-2.272353176e-05
1.619234207e-05
-1.759426579e-05
-3.316254367e-05
-2.988376222e-05
0
0
0
0
0
0
0
0
0
0
0
0
0
0
0
0
-0.001536964735
0.001564839174
3.312490997e-05
-7.50668299e-05
6.821262359e-05
-0.001495787189
-8.064117592e-05
-0.001563759191
-0.001283399263
0.001369512732
0.0001522136165
-0.0001890737663
0.0001695285889
-0.001182439233
-0.0002066028187
-0.001272427649
-0.0008093928406
0.0009426347534
0.000178102209
-0.0001934861828
0.0001659578863
-0.0006723394603
-0.0002199235013
-0.0007582340967
-0.000285797302
0.0004055231968
9.620732216e-05
-8.910177095e-05
6.810900712e-05
-0.0001818149921
-0.0001107632986
-0.0002317081252
-6.254326726e-06
3.857782293e-05
5.726153347e-06
-2.218942045e-06
4.151631125e-07
0
-5.35809613e-06
-4.670310676e-07
0
0
0
0
0
0
0
0
0
0
0
0
0
0
0
0
-0.001044440319
0.001078545061
1.475923449e-05
-4.350779067e-05
3.516249991e-05
-0.000996481108
-5.204554054e-05
-0.001148162589
-0.0007781099019
0.0008620491886
7.762483558e-05
-0.0001047186159
8.336877833e-05
-0.0006855264934
-0.000126668566
-0.0008232857722
-0.0003837573717
0.0004850776332
7.250260619e-05
-8.470919369e-05
6.090636534e-05
-0.0002867010123
-0.0001107173687
-0.0003824945632
-6.117200761e-05
0.0001214658056
1.819166819e-05
-1.739509957e-05
7.252456639e-06
-2.052045821e-05
-3.14293206e-05
-4.931685005e-05
0
0
0
0
0
0
0
0
0
0
0
0
0
0
0
0
0
0
0
0
0
0
0
0
-0.000394575917
0.000418032836
3.008210971e-06
-1.416146282e-05
9.110754546e-06
-0.0003625769788
-2.02716434e-05
-0.0005112064229
-0.0002295784854
0.0002782827341
1.782770398e-05
-2.961688322e-05
1.698260091e-05
-0.0001794795203
-4.521763027e-05
-0.0002874482947
-4.787492849e-05
8.573650015e-05
6.524423447e-06
-1.0474977e-05
2.746694532e-06
-1.997760475e-05
-2.310552067e-05
-6.039182613e-05
0
1.730102398e-08
0
0
0
0
-1.817426826e-08
0
0
0
0
0
0
0
0
0
0
0
0
0
0
0
0
0
0
0
0
0
0
0
0
0
-1.504514656e-05
1.894181517e-05
3.804212882e-09
-6.381577348e-07
7.449171224e-09
-1.063736473e-05
-2.353222946e-06
-5.0648946e-05
-4.032291188e-07
2.758152151e-06
0
-3.871659464e-08
0
0
-1.992923539e-06
-5.917272683e-06
0
0
0
0
0
0
0
0
0
0
0
0
0
0
0
0
0
0
0
0
0
0
0
0
0
0
0
0
0
0
0
0
0
0
0
0
0
0
0
0
0
0
0
0
0
0
0
0
0
0
0
0
0
0
0
0
0
0
0
0
0
0
0
0
0
0
0
0
0
0
0
0
0
0
0
0
0
0
0
0
0
0
0
0
0
0
0
0
0
0
0
0
0
0
0
0
0
0
0
0
0
0
0
0
0
0
0
0
0
0
0
0
0
0
0
0
0
0
0
0
0
0
0
0
0
0
0
0
0
0
0
0
0
0
0
0
0
0
0
0
0
0
0
0
0
0
0
0
0
0
0
0
0
0
0
0
0
0
0
0
0
0
0
0
0
0
0
0
0
0
0
0
0
0
0
0
0
0
0
0
0
0
0
0
0
0
0
0
0
0
0
0
0
0
0
0
0
0
0
0
0
0
0
0
0
0
0
0
0
0
0
0
0
0
0
0
0
0
0
0
0
0
0
0
0
0
0
0
0
0
0
0
0
0
0
0
0
0
0
0
0
0
0
0
0
0
0
0
0
0
0
0
0
0
0
0
0
0
0
0
0
0
0
0
0
0
0
0
0
0
0
0
0
0
0
0
0
0
0
0
0
0
0
0
0
0
0
0
0
0
0
0
0
0
0
0
0
0
0
0
0
0
0
0
0
0
0
0
0
0
0
0
0
0
0
0
0
0
0
0
0
0
0
0
0
0
0
0
0
0
0
0
0
0
0
0
0
0
0
0
0
0
0
0
0
0
0
0
0
0
0
0
0
0
0
0
0
0
0
0
0
0
0
0
0
0
0
0
0
0
0
0
0
0
0
0
0
0
0
0
0
0
0
0
0
0
0
0
0
0
0
0
0
0
0
0
0
0
0
0
0
0
0
0
0
0
0
0
0
0
0
0
0
0
0
0
0
0
0
0
0
0
0
0
0
0
0
0
0
0
0
0
0
0
0
0
0
0
0
0
0
0
0
0
0
0
0
0
0
0
0
0
0
0
0
0
0
0
0
0
0
0
0
0
0
0
0
0
0
0
0
0
0
0
0
0
0
0
0
0
0
0
0
0
0
0
0
0
0
0
0
0
0
0
0
0
0
0
0
0
0
0
0
0
0
0
0
0
0
0
0
0
0
0
0
0
0
0
0
0
0
0
0
0
0
0
0
0
0
0
0
0
0
0
0
0
0
0
0
0
0
0
0
0
0
0
0
0
0
0
0
0
0
0
0
0
0
0
0
0
0
0
0
0
0
0
0
0
0
0
0
0
0
0
0
0
0
0
0
0
0
0
0
0
0
0
0
0
0
0
0
0
0
0
0
0
0
0
0
0
0
0
0
0
0
0
0
0
0
0
0
0
0
0
0
0
0
0
0
0
0
0
0
0
0
0
0
0
0
0
0
0
0
0
0
0
0
0
0
0
0
0
0
0
0
0
0
0
0
0
0
0
0
0
0
0
0
0
0
0
0
0
0
0
0
0
0
0
0
0
0
0
0
0
0
0
0
0
0
0
0
0
0
0
0
0
0
0
0
0
0
0
0
0
0
0
0
0
0
0
0
0
0
0
0
0
0
0
0
0
0
0
0
0
0
0
0
0
0
0
0
0
0
0
0
0
0
0
0
0
0
0
0
0
0
0
0
0
0
0
0
0
0
0
0
0
0
0
0
0
0
0
0
0
0
0
0
0
0
0
0
0
0
0
0
0
0
0
0
0
0
0
0
0
0
0
0
0
0
0
0
0
0
0
0
0
0
0
0
0
0
0
0
0
0
0
0
0
0
0
0
0
0
0
0
0
0
0
0
0
0
0
0
0
0
0
0
0
0
0
0
0
0
0
0
0
0
0
0
0
0
0
0
0
0
0
0
0
0
0
0
0
0
0
0
0
0
0
0
0
0
0
0
0
0
0
0
0
0
0
0
0
0
0
0
0
0
0
0
0
0
0
0
0
0
0
0
0
0
0
0
0
0
0
0
0
0
0
0
0
0
0
0
0
0
0
0
0
0
0
0
0
0
0
0
0
0
0
0
0
0
0
0
0
0
0
0
0
0
0
0
0
0
0
0
0
0
0
0
0
0
0
0
0
0
0
0
0
0
0
0
0
0
0
0
0
0
0
0
0
0
0
0
0
0
0
0
0
0
0
0
0
0
0
0
0
0
0
0
0
0
0
0
0
0
0
0
0
0
0
0
0
0
0
0
0
0
0
0
0.0006072986732
-9.221891855e-05
-0.0006069743479
8.083917588e-05
-8.106575523e-05
0.0006075252525
8.09082393e-05
0.0006159373432
0.0003004620704
1.400476663e-05
1.379294244e-06
-4.757395209e-05
0.0003466567282
0.0003494003353
1.379341683e-06
8.358700379e-07
0.0001561717992
-0.0001563110341
0.0001565365309
8.083551114e-05
0.0006248485996
-0.0006341325299
0.000634059943
8.090809798e-05
9.163454103e-05
-0.0002953781897
0.0002953354202
2.269208692e-05
2.550597828e-05
-6.939771122e-06
6.992077604e-06
-0.0003258185333
0.0003240775004
-0.000323968522
-7.048749542e-06
-3.689818016e-06
-3.424976708e-06
3.288337441e-06
0.0001501835357
-3.384490488e-06
-3.375481166e-06
3.624862611e-06
-3.769601068e-06
3.272098707e-06
-0.000151930275
-3.211515973e-06
-0.0003292794448
2.31678808e-06
-6.828031833e-06
6.819043217e-06
4.376060412e-06
-4.525746488e-06
-0.0003950609604
-0.001040189037
0.001099211104
-0.0010275596
0.0009387574742
-0.0008354149905
0.0004014542889
0.0003936757971
-0.0003428017644
-0.0006008042073
0.0007246938654
-0.0006062309318
0.000486867472
-0.0003713199048
0.0003003949368
0.0002838773843
-0.0001401014458
-0.0001611944597
0.0002649694178
-0.0001719492996
9.61971482e-05
-4.372290723e-05
8.94734604e-05
7.659447417e-05
-7.239897548e-06
-0.0003181573483
7.276271687e-06
0.0003161650056
-0.0003160149673
0.0003159932314
-1.315999421e-05
1.039534922e-05
-1.041708521e-05
1.041298643e-05
1.05326009e-05
-0.0003137687404
-0.0003135104507
-0.0002612737499
-0.001349919764
0.001331518488
-0.001323481912
0.0006698338109
0.001293134507
-0.0003422368058
-0.001234671082
0.0003060420411
-0.0003052967878
0.0003155251759
0.0003050279351
-0.001267020281
-0.0003636763883
-0.001055909387
0.001155654423
-0.001056599694
0.0009450155794
-0.0003565566015
-0.0008169312702
0.0003627675761
-0.0003726420656
0.0003500881164
0.0003826182127
-0.000948261386
-0.0002801124662
-0.0005386156173
0.0006840227529
-0.0005573662261
0.0004290537064
-0.0002022952356
-0.000310187063
0.0002334580947
-0.0002523017042
0.0002184219235
0.0002699907868
-0.0004508876195
-8.688856888e-05
-0.0001045709392
0.0002050773246
-0.0001220086103
5.67546832e-05
-2.613069914e-05
-1.563027435e-05
4.923113543e-05
-5.960979549e-05
3.836231139e-05
6.888016711e-05
-6.759162631e-05
-2.171712591e-05
-2.743774293e-05
-0.0007347775503
2.743774295e-05
0.0007250963041
-0.0007250963041
3.840634188e-05
-0.0007150850176
3.840634188e-05
4.937484502e-05
-0.0007150850176
-0.0002557329257
-0.001447646847
0.001480363108
-0.001437040652
0.001367689275
-0.0003149161638
-0.001274068776
0.0002864090639
-0.0002915173313
0.0002790727795
0.0002951018953
-0.001356736868
-0.0003168585542
-0.001014354232
0.001159280601
-0.0010337939
0.0008949825023
-0.000298904935
-0.0007493216588
0.0003035158811
-0.0003195521712
0.0002888019692
0.0003336197834
-0.000910368324
-0.0002093322642
-0.0004329698345
0.0006016599204
-0.0004637925972
0.0003352027175
-0.0001368774629
-0.0002215999764
0.0001661765846
-0.0001835321583
0.0001450700429
0.0001984645171
-0.000358853332
-4.279331759e-05
-4.422914787e-05
0.0001278499603
-5.730798847e-05
1.433586186e-05
-4.978724357e-06
-6.163699051e-08
1.642362419e-05
-2.207284566e-05
1.098395876e-05
3.10654953e-05
-2.311229508e-05
-1.343998291e-06
-2.26422509e-08
-0.001643508195
-8.467668595e-05