/*--------------------------------*- C++ -*----------------------------------*\
| =========                 |                                                 |
| \\      /  F ield         | OpenFOAM: The Open Source CFD Toolbox           |
|  \\    /   O peration     | Version:  v2012                                 |
|   \\  /    A nd           | Website:  www.openfoam.com                      |
|    \\/     M anipulation  |                                                 |
\*---------------------------------------------------------------------------*/
FoamFile
{
    version     2.0;
    format      ascii;
    class       volScalarField;
    location    "1";
    object      nut;
}
// * * * * * * * * * * * * * * * * * * * * * * * * * * * * * * * * * * * * * //

dimensions      [0 2 -1 0 0 0 0];


internalField   nonuniform List<scalar> 
3019
(
0.06495436153
0.2042565881
0.2760447357
0.3688818567
0.4913118495
0.6565783459
0.8955640452
1.161721813
1.15394048
1.149990689
1.148451913
1.148227071
0.1263923301
0.3013932487
0.3851720918
0.4768947981
0.5934274386
0.7446721219
0.959275225
1.163933508
1.154799661
1.150457641
1.148687664
1.148395555
0.1765640075
0.452194535
0.5821849404
0.6413293121
0.7337614874
0.8691846843
1.062993537
1.165109693
1.155636752
1.150991413
1.149067591
1.148719342
0.2039092196
0.4913774742
0.7864316726
0.8748094289
0.924579337
1.029593827
1.168358518
1.166068043
1.156405233
1.151554084
1.149516641
1.149136079
0.2614187618
0.5487099038
0.8283772932
1.016885833
1.112293164
1.154176405
1.169508202
1.166767364
1.157040035
1.152068761
1.149959261
1.149558517
0.3254534404
0.6088242345
0.8623500836
1.026620417
1.114633805
1.155506887
1.170077726
1.167151506
1.157512828
1.152509006
1.150386593
1.149976152
0.3696463023
0.644054303
0.875115845
1.029304132
1.115763883
1.156019532
1.170199789
1.167261545
1.157792964
1.152807583
1.150699525
1.15028551
0.3804368455
0.6475305193
0.878369829
1.030684216
1.116042494
1.155930064
1.169965235
1.167137501
1.157955977
1.153045775
1.150966198
1.150547667
0.3851047781
0.6482576788
0.8794858746
1.031054626
1.115699263
1.15540519
1.169455239
1.166828043
1.157954787
1.153133133
1.151086441
1.150664872
0.3881760079
0.6478177448
0.8784710172
1.030469863
1.114863574
1.154562546
1.168738611
1.166380085
1.157891975
1.153189909
1.151174924
1.150744337
0.3899764659
0.6465449109
0.8758320072
1.028896968
1.113584933
1.153472556
1.167869907
1.165832032
1.157699294
1.153103636
1.151114162
1.150673001
0.3908164443
0.6445763107
0.8721510406
1.026399782
1.111879403
1.152170832
1.166887598
1.165211764
1.157496185
1.153028144
1.151058888
1.150600113
0.390831321
0.6419988433
0.8678005419
1.023148279
1.109775684
1.15068006
1.165818273
1.16453884
1.157178502
1.15281208
1.150855272
1.150377893
0.3901324299
0.6388990809
0.8629905762
1.019327874
1.107323171
1.149022257
1.164681066
1.163826446
1.156891888
1.152648629
1.150699773
1.150197814
0.3888413353
0.6353800796
0.8578572383
1.015089572
1.10457832
1.147220661
1.163490559
1.163083956
1.156489923
1.152339421
1.150393133
1.149867567
0.3871128383
0.6315399019
0.8524947688
1.010543526
1.101592506
1.145296884
1.162257875
1.162318195
1.156156426
1.152122096
1.150174741
1.149620387
0.385070622
0.6274651595
0.84697503
1.005770908
1.098409293
1.143269701
1.16099167
1.161534182
1.155697681
1.151751388
1.149801587
1.149221563
0.3828081331
0.6232329658
0.8413571608
1.000832968
1.095064241
1.141154197
1.159697916
1.160736203
1.155336925
1.151498426
1.14954203
1.148931003
0.3804183074
0.6189093297
0.8356878859
0.9957764477
1.0915862
1.138962107
1.158380095
1.159925086
1.15484629
1.151098704
1.149138904
1.148502662
0.3779680845
0.6145413869
0.8300051183
0.9906400895
1.08799952
1.136701937
1.157039861
1.159104247
1.154454247
1.150804242
1.148835985
1.148167889
0.3755035265
0.6101723086
0.8243466651
0.9854592833
1.084325132
1.134379811
1.155677951
1.158269413
1.153975102
1.150424586
1.148454398
1.147764236
0.3730730636
0.6058564116
0.8187548142
0.9802686244
1.080582359
1.13200177
1.154297025
1.157429522
1.153498756
1.150044559
1.14806853
1.147345899
0.3707251054
0.6016602374
0.8132729743
0.9751001404
1.076788098
1.129570982
1.152911334
1.156582711
1.153136247
1.149767107
1.147791584
1.147052581
0.3685403943
0.597672496
0.8079722486
0.9699973323
1.072962189
1.127088704
1.151587132
1.155798016
1.152453708
1.149229265
1.147256755
1.146481684
0.04827402872
0.06080694694
0.179807802
0.09408826323
0.04966038265
0.1201941943
0.2436514156
0.1828768567
0.1294210211
0.09765394462
0.1422343612
0.07787418886
0.07463915003
0.09199793294
0.1581422151
0.145912853
0.03306006641
0.05902709972
0.03010291111
0.03969990183
0.1024598911
0.06322681509
0.1702921336
0.3747832823
0.2739356927
0.1192593852
0.1072460392
0.04279682092
0.1960068635
0.1642990729
0.09553301443
0.1058284637
0.007322605069
0.02039888047
0.0349196129
0.08488435576
0.01102016329
0.01328876418
0.03953145441
0.01113396428
0.01096605553
0.01349259301
0.01104597244
0.01152399985
0.02116265228
0.0148910039
0.03064222505
0.02391521363
0.01133460219
0.007578887155
0.02293090561
0.01077600864
0.01102945899
0.1867684614
0.2393890923
0.04163875643
0.01457945336
0.02060570596
0.01097645447
0.01597123645
0.03057508518
0.0608819029
0.01118665699
0.007906653061
0.008025945272
0.0113656115
0.011295069
0.03898966766
0.03300516531
0.01078403791
0.01066692079
0.01082859326
0.01088949417
0.007529130039
0.01092915812
0.01111613815
0.01224051667
0.01132486381
0.01109787947
0.01128881224
0.01114459722
0.01158607404
0.01151802079
0.01133189433
0.01132143578
0.01155392059
0.01267525498
0.01207626388
0.01098234275
0.01099019178
0.01095136195
0.01258273238
0.0116185623
0.01084701623
0.2576117158
0.3224701774
0.3479264662
0.4375432996
0.471994569
0.5880717154
0.07739391895
0.1201554137
0.1198624268
0.2683489608
0.3317914938
0.2568707517
0.3520100489
0.4208684462
0.3433778452
0.4461834549
0.5311151187
0.4573360775
0.5628598898
0.6675457898
0.6067167974
0.1399133449
0.2594842476
0.210621337
0.4445535784
0.5095468771
0.3664094714
0.5230278298
0.5733611384
0.4526206601
0.5938240512
0.6674634928
0.5619451661
0.6957622825
0.7860112115
0.6941107186
0.118627402
0.1027006903
0.1941517611
0.4052643564
0.3811625474
0.479829409
0.7051898747
0.573041321
0.7762682483
0.8019314481
0.6232417323
0.8098065682
0.8522975765
0.7068170748
0.8720933649
0.9485036618
0.8243582177
0.1687582673
0.1276251586
0.2451470684
0.4558953985
0.4158585063
0.5331435472
0.7523576928
0.7163819708
0.8180651428
0.9743709747
0.873341949
1.012948772
1.093851135
0.9076162697
1.107417152
1.146382222
0.9973744011
0.2434785571
0.1864225183
0.3104143585
0.5195264841
0.4714402836
0.5950415535
0.7973184775
0.7644759636
0.8553885815
0.9917264914
0.9796451709
1.025280132
1.097427638
1.095113919
1.11418007
1.148164873
1.146932777
0.3021248069
0.2613269107
0.3618010326
0.5680663947
0.5344546229
0.6387279325
0.8227369636
0.8061661436
0.8739609927
0.9971536545
0.9941586301
1.028774406
1.099127497
1.097969495
1.115572573
1.148988039
1.148448658
0.318983043
0.3101802287
0.3789680304
0.5790452785
0.5746651247
0.6470753422
0.8272666086
0.8242776329
0.8777477197
0.9992799475
0.9978108759
1.030440519
1.099801135
1.099378732
1.116038276
1.149106614
1.149075025
0.3229601923
0.3200917602
0.3841024461
0.5811826231
0.5797193847
0.6482073169
0.8289007663
0.8279287689
0.8794162939
1.00019987
0.99961662
1.03105048
1.0997299
1.099844824
1.115834668
1.148709197
1.149049264
0.3258000876
0.3237705695
0.3875377569
0.5821109518
0.5815128058
0.6480133827
0.8280984109
0.8289020346
0.8789022814
0.9999567401
1.000250733
1.030708029
1.099071305
1.099616581
1.115114911
1.147931452
1.148546363
0.3276476522
0.3263474392
0.3896283556
0.5820863402
0.5821870872
0.6469321286
0.8256340178
0.8276057148
0.8766089896
0.998497207
0.9997051494
1.029381736
1.0978782
1.098822484
1.113945186
1.14685816
1.147688764
0.3286148459
0.3279676278
0.3906870544
0.581240584
0.5819467064
0.6451285007
0.822171306
0.8248429567
0.8731448347
0.9959232117
0.9979495449
1.027102299
1.096159557
1.097497066
1.112344627
1.14553138
1.146549433
0.3288381494
0.3287333665
0.3908991297
0.5796704134
0.580911383
0.6426956991
0.8180628738
0.821195165
0.8689376365
0.9924767893
0.9951326816
1.024021257
1.093946549
1.095650337
1.110336451
1.143974211
1.145163087
0.328433221
0.3287905055
0.3903657324
0.5774686933
0.57917408
0.6397172929
0.8134898513
0.8169569841
0.8642277234
0.9884003395
0.9915079931
1.02032723
1.091303436
1.09332291
1.10796584
1.142209645
1.143551725
0.3275083026
0.3282444948
0.3892107948
0.5747459438
0.5768311537
0.6362933424
0.8085759756
0.8122882957
0.8591650965
0.9838779708
0.987305209
1.016181632
1.08830563
1.090584096
1.105288957
1.140264358
1.141739373
0.3261730977
0.3272062801
0.3875781766
0.5716151572
0.5739959915
0.6325250943
0.8034156408
0.8073049287
0.8538527038
0.9790370834
0.9826930464
1.011704099
1.085021519
1.087508728
1.102359058
1.138164714
1.139753074
0.3245471354
0.3257879604
0.3856056213
0.5681803513
0.5707797631
0.6285012531
0.7980823906
0.8020948404
0.8483661694
0.9739670299
0.9777874069
1.006981603
1.081507622
1.084162218
1.099221492
1.135934032
1.137618543
0.3227375647
0.3241062669
0.3833887466
0.5645277646
0.5672829036
0.624301702
0.7926394576
0.7967287116
0.8427679176
0.9687350664
0.97267137
1.002080107
1.077809985
1.08059853
1.095913947
1.133591979
1.135358359
0.3208224418
0.3222641394
0.3810236458
0.5607449117
0.563590031
0.6199956828
0.7871384182
0.7912669452
0.8371077236
0.9633918001
0.9674073615
0.9970493814
1.073965106
1.07686096
1.092466711
1.131154178
1.132991021
0.3188486373
0.3203294541
0.3785848137
0.5568969772
0.5597855738
0.6156355437
0.7816193747
0.7857579402
0.8314249585
0.9579779055
0.9620428278
0.9919296182
1.070003375
1.072984179
1.088905135
1.128632833
1.130531275
0.3168649
0.3183465764
0.3761210403
0.5530442453
0.5559316261
0.6112615766
0.7761193961
0.7802400183
0.8257565661
0.9525302746
0.9566170416
0.9867566074
1.065950953
1.06899742
1.085250781
1.126037267
1.127990568
0.3149194399
0.316365347
0.3736802742
0.5492221002
0.5520824378
0.606928261
0.7706812076
0.7747512682
0.8201440782
0.9470861827
0.9511667927
0.9815653387
1.061832021
1.064926164
1.081523444
1.123376275
1.125377842
0.3130446217
0.3144316505
0.3713056224
0.5454722664
0.5482744448
0.6026933987
0.7653492093
0.7693355086
0.8146296473
0.9416807287
0.9457291841
0.9763881136
1.057668052
1.060794042
1.077740545
1.120656476
1.122701595
0.3112688547
0.3125833671
0.3690307357
0.5418303056
0.5445525275
0.5985976957
0.7601547828
0.7640389674
0.8092439263
0.9363408095
0.9403392899
0.9712499209
1.05347636
1.056621992
1.0739164
1.117883565
1.119967833
0.3095663824
0.3108910491
0.3667943754
0.5381335542
0.541012957
0.5944320084
0.7548095775
0.7589401789
0.8036817741
0.9307623571
0.9350472286
0.9658607101
1.049029718
1.052435427
1.069847364
1.114921473
1.117181641
0.04572070423
0.0374808989
0.03931886856
0.07940778896
0.07520113645
0.05634988024
0.1638869788
0.1446229449
0.1531729867
0.08739092355
0.03457624709
0.02327140826
0.03096405962
0.05088851146
0.1493750394
0.1389703564
0.1060157204
0.2119130473
0.1792156331
0.2152680432
0.1570702565
0.1719013532
0.2048789955
0.1101537876
0.09587141683
0.139141442
0.1275974796
0.125027542
0.1240372636
0.1381746016
0.02554158207
0.03552275614
0.06080705703
0.06404602687
0.08128192289
0.0709299576
0.05332997297
0.05718981223
0.1254485981
0.1232039733
0.08146642691
0.1534922886
0.1377816161
0.1419782342
0.1301709385
0.1332019851
0.1495734398
0.02276715648
0.02547480308
0.0351524497
0.01436594783
0.01352105166
0.01141798576
0.05531337387
0.03327958661
0.03837347731
0.02783705119
0.01749264024
0.0199803065
0.06211633987
0.05757769898
0.03297990524
0.09818661122
0.07737939468
0.08170781508
0.07280227635
0.09344640795
0.04600018126
0.050089953
0.0670727083
0.01714032984
0.01574549693
0.04095936182
0.04035501704
0.2455662118
0.2385812029
0.1464964397
0.3682462203
0.3067528923
0.3131190108
0.2374159931
0.2923751941
0.3178694094
0.1160189793
0.09504459205
0.09918555824
0.08626360608
0.09053979516
0.1112673749
0.05202652542
0.0707282965
0.06632978924
0.1826286201
0.1621753701
0.1729614022
0.1469955032
0.153826078
0.1719415379
0.1007220183
0.1329543351
0.1272639166
0.1012479972
0.06483411324
0.06806799718
0.017958157
0.01155870052
0.01262955159
0.04739609272
0.04508384859
0.0501328554
0.04862440115
0.03290132537
0.08288299447
0.06640816572
0.06742775489
0.01138904035
0.01597734233
0.01408110505
0.02062425583
0.01815649287
0.01228935808
0.03755640264
0.02812791165
0.03063438837
0.01894399361
0.01308554115
0.01420674898
0.01153794793
0.01205109153
0.01672467838
0.02875822807
0.0189520197
0.02090512947
0.01566634405
0.01718767072
0.02602567908
0.01407114042
0.01556077801
0.02521673441
0.2068919985
0.1940169026
0.1744694367
0.2238477334
0.2067438441
0.220716818
0.03291080321
0.03509740844
0.04389992903
0.01602862398
0.02540475114
0.02307773388
0.03037638395
0.0281343545
0.01819744413
0.04028510997
0.03833751561
0.02800278805
0.05653453254
0.04841579871
0.04848144545
0.04507216974
0.05502479756
0.02078508369
0.01906863998
0.03684517827
0.02814348257
0.03039617276
0.02328402386
0.02572527067
0.0345890683
0.6277893815
0.7494676574
0.8720976369
0.999499914
1.136000684
1.158315857
0.06921161907
0.08779300585
0.08374961966
0.2208474089
0.2407566657
0.2219535189
0.297454172
0.3188838768
0.2972743611
0.3919574106
0.4196511393
0.3959391462
0.5135788689
0.5493739622
0.5277119935
0.7086387387
0.8201422619
0.7787153976
0.9232179076
1.040631355
1.018340878
1.157033894
1.159565678
1.158975172
0.1309436662
0.1692312496
0.1637315823
0.3433416901
0.3628695962
0.320950436
0.4253363788
0.4458979675
0.4066816747
0.5117872356
0.5374197933
0.5033154627
0.6233923024
0.6566320047
0.6263927472
0.818421452
0.9199189601
0.8680656572
1.005617084
1.113989471
1.074079179
1.164463417
1.160721764
1.160186493
0.1812915854
0.2562528105
0.2515611861
0.4604184483
0.5353839569
0.5264059005
0.6495681119
0.655766275
0.5940791661
0.6928848796
0.7103806751
0.661309199
0.7768810137
0.8029596708
0.7627693294
0.966620825
1.047594131
0.9787251485
1.131953841
1.167900394
1.165400355
1.165594881
1.16173807
1.161271381
0.2158934834
0.2892168008
0.2784048273
0.5042110826
0.5805211303
0.5677103553
0.7968904953
0.858914928
0.849836519
0.9475559518
0.9481536184
0.8820502791
0.9799988478
0.997645335
0.943990596
1.153691184
1.165532898
1.129132337
1.169028318
1.169002556
1.168535549
1.166478265
1.162562742
1.162194853
0.2780538101
0.3452692487
0.3299803868
0.5645241575
0.6380005176
0.6232756596
0.8381929234
0.8933949744
0.8854025473
1.020311253
1.050499739
1.048133397
1.11301936
1.126982721
1.126359514
1.15526311
1.166701062
1.166224684
1.169855082
1.169623645
1.169360408
1.167009889
1.163139992
1.162906776
0.3392659803
0.4050911932
0.3913164767
0.6209348273
0.6889718572
0.6781580447
0.8678290991
0.9162060059
0.9121805361
1.027451622
1.055009245
1.054336275
1.115012976
1.128671628
1.128355976
1.155956772
1.16718164
1.167013836
1.170189128
1.169863487
1.169784773
1.167250617
1.163466886
1.16335377
0.3752807908
0.4401428482
0.4352414945
0.6456645087
0.7097107413
0.7083289364
0.8761175889
0.9217334125
0.9208756526
1.029754646
1.056855457
1.056507097
1.115902471
1.129368094
1.129269773
1.155999633
1.167150904
1.16722184
1.170122001
1.169780131
1.169855429
1.167235856
1.163573955
1.163569279
0.381775458
0.4455386353
0.4443774187
0.6478574007
0.712346178
0.7119918906
0.8788571846
0.9241113089
0.9236746251
1.030865764
1.057630704
1.057521831
1.116008224
1.129353849
1.129412452
1.155569706
1.166734427
1.166983875
1.169740254
1.169441397
1.169636265
1.167011279
1.163498254
1.163580802
0.3860069265
0.4492976
0.4484866986
0.6482373366
0.7123688058
0.7125311029
0.8794185432
0.9247402137
0.9247554514
1.030999333
1.05756215
1.05765281
1.115533358
1.128815209
1.128991929
1.154797419
1.166034105
1.166414475
1.169119055
1.168912457
1.169195284
1.166625833
1.163276085
1.163428354
0.388732558
0.451743738
0.4512470122
0.6475700393
0.7109683997
0.7114131687
0.8779377447
0.9235646814
0.9240166764
1.030169055
1.056707649
1.056996096
1.114584586
1.127860524
1.128134844
1.153764477
1.165123023
1.165601469
1.1683206
1.168246174
1.168592437
1.166122427
1.162946838
1.163147822
0.3902675721
0.4530318905
0.4528116979
0.6461136321
0.7087028129
0.7093354197
0.8749906997
0.9208921611
0.9216745579
1.028353607
1.055052325
1.055540418
1.113197769
1.126537491
1.126901587
1.15251315
1.164048404
1.164603939
1.16739111
1.167480029
1.167872639
1.165534269
1.162535671
1.162774995
0.3908928092
0.4533089166
0.4533249389
0.6439852311
0.7057917505
0.7065733297
0.8711156661
0.917184585
0.9181866178
1.025649801
1.052641283
1.053309079
1.11138902
1.124867158
1.125316091
1.151067617
1.162841565
1.163459936
1.166362499
1.166640162
1.167067195
1.164884476
1.162067661
1.162331394
0.3907173581
0.4527412466
0.4529546389
0.6412683567
0.7023464367
0.7032528832
0.8666345012
0.9127940515
0.9139419839
1.022239646
1.049594819
1.050408291
1.109192929
1.122876561
1.123402258
1.14944945
1.161525838
1.162196041
1.165257161
1.165744883
1.166197907
1.164189611
1.161552754
1.161838664
0.3898586316
0.4514769278
0.4518468566
0.6380538196
0.6984622603
0.6994689481
0.8617328297
0.9079414187
0.9091891141
1.018302275
1.04605092
1.046976546
1.106662085
1.120604802
1.121196727
1.14768176
1.160120579
1.16083329
1.164091748
1.164807306
1.165280258
1.163460217
1.161006615
1.161304553
0.3884435568
0.44970858
0.4501920222
0.6344458856
0.694238834
0.695321572
0.8565345634
0.9027689214
0.9040862974
1.01397808
1.042128197
1.043138988
1.103852485
1.118094767
1.118742403
1.145786765
1.158641952
1.159389521
1.162878963
1.163837043
1.164325364
1.162704939
1.160431183
1.160743453
0.3866273125
0.4475404231
0.4481147623
0.6305392466
0.6897628762
0.6909013342
0.8511265639
0.8973715681
0.8987377972
1.009368635
1.037917651
1.038993115
1.100813536
1.115385269
1.116079415
1.143783893
1.157103066
1.157879248
1.161628747
1.162841555
1.163341711
1.161928835
1.159837989
1.160155566
0.3845207014
0.4450665257
0.4457100021
0.6264182747
0.6851101399
0.6862861353
0.8455771641
0.8918206666
0.8932194871
1.004549559
1.033489203
1.034613569
1.097586799
1.112509531
1.113242475
1.141689284
1.15551406
1.156314109
1.160348539
1.161826423
1.162335553
1.161137854
1.159226779
1.159553673
0.3822189888
0.4423766065
0.4430636245
0.6221575446
0.680347553
0.6815454719
0.8399424178
0.8861724786
0.8875911874
0.9995779096
1.028896385
1.030057632
1.094205926
1.109494686
1.110260203
1.13951547
1.153881557
1.154702426
1.159043237
1.160795414
1.161311635
1.160333287
1.158603278
1.158932585
0.3798094351
0.43956159
0.4402742696
0.6178195639
0.6755287571
0.6767364798
0.8342665002
0.880471025
0.881899358
0.9944980971
1.024181389
1.025369591
1.090698669
1.106363193
1.107155942
1.137271668
1.152210537
1.153049472
1.157715771
1.159750743
1.160272026
1.159519905
1.157972374
1.158305107
0.3773524686
0.4366724571
0.4373983656
0.6134463424
0.6706941334
0.6719022381
0.8285860941
0.874753376
0.8761822503
0.9893473578
1.019379557
1.020586316
1.087088188
1.103133492
1.103949208
1.134964365
1.150505009
1.151359487
1.156367628
1.158693823
1.159218446
1.158695468
1.157324446
1.157660682
0.3748941208
0.4337626275
0.4344867338
0.6090859071
0.6658857006
0.6670825979
0.8229402271
0.869058087
0.8704775427
0.9841608925
1.014523504
1.015740821
1.083394949
1.099821634
1.100656431
1.132599819
1.148765165
1.149635392
1.154998242
1.157623848
1.158150065
1.157865863
1.156688586
1.15701315
0.3724817512
0.4308929898
0.4316004555
0.6047930182
0.6611533279
0.6623267174
0.817371628
0.8634260982
0.8648260209
0.9789728097
1.009644141
1.010864591
1.079637803
1.096442416
1.097292804
1.130181502
1.146984467
1.147878671
1.153600172
1.156534885
1.157070115
1.15701919
1.156009039
1.156349098
0.3701536792
0.4281075002
0.4287946976
0.6006287767
0.6565414931
0.6576842859
0.8119206931
0.8578956057
0.8592683392
0.9738136264
1.00476883
1.005986275
1.07583304
1.093008402
1.093871321
1.127711419
1.145127599
1.146102989
1.152137115
1.15539504
1.155988233
1.156137898
1.155358404
1.155689774
0.3679294696
0.4254183402
0.4261562891
0.5965696798
0.6520303963
0.6532497635
0.8065617978
0.8524437269
0.8538684563
0.9686707667
0.9998879286
1.001143112
1.071976993
1.089517033
1.090406568
1.125075811
1.143051823
1.144389239
1.150520864
1.154147824
1.154963995
1.155175256
1.154577238
1.155072565
0.1722296614
0.1645541218
0.1691441675
0.0923567522
0.06947989895
0.07598284278
0.04227310341
0.04262774746
0.05375134375
0.1789775967
0.1804308125
0.1895795235
0.1327813071
0.1385589213
0.1083783328
0.1050721274
0.08889765597
0.04925654146
0.04665009912
0.03770588955
0.02943815661
0.02781178214
0.04315654932
0.05489191552
0.05074999579
0.09661936163
0.1091416511
0.1091762301
0.0332481578
0.03183862447
0.2776541576
0.2605832052
0.241306656
0.3048356299
0.2817714629
0.2992641447
0.375646343
0.3570686651
0.3300003388
0.4184506158
0.3863690779
0.4053763661
0.5089269297
0.4901922516
0.4530096185
0.5715212494
0.5295803193
0.5479649211
0.09573368339
0.09199564365
0.07346129149
0.1208692937
0.111756095
0.1120134313
0.103593652
0.1075486959
0.1223525718
0.2879865262
0.2623044316
0.2421570596
0.3025122306
0.2793766354
0.3079420565
0.2368790613
0.2560486856
0.2778185275
0.37348427
0.3447779928
0.3228290066
0.3914321355
0.3675109566
0.3962417653
0.3195614656
0.3414362281
0.3657929436
0.4726977131
0.4437103987
0.4162690297
0.5048095232
0.4733435212
0.5007525595
0.425434608
0.4489186389
0.4800693338
0.5978659828
0.5737114192
0.538211876
0.6463272711
0.6094846608
0.6339002012
0.5659983438
0.5868095492
0.6243168346
0.1791532608
0.173998584
0.136991281
0.1879699578
0.2058126113
0.2318740258
0.4769700653
0.4143917562
0.3968540844
0.4548787047
0.4360532795
0.4946039945
0.343209374
0.3856985455
0.407089733
0.5388337255
0.4892123301
0.4707308104
0.5296444202
0.5087080223
0.5556979511
0.4293343602
0.4666520919
0.4880485381
0.6165239035
0.5752434775
0.5521389566
0.627215195
0.6004070761
0.6410204229
0.5317454106
0.5646862838
0.5927910025
0.7245033915
0.6890551278
0.6570060426
0.7538957554
0.7211149247
0.7548864904
0.6603960245
0.6904385343
0.72202972
0.1119982745
0.107397884
0.2693117094
0.2619880456
0.1866588634
0.3960683396
0.3304770298
0.3383939365
0.318407717
0.32390251
0.388128191
0.555916682
0.5451644223
0.469551284
0.6945939994
0.6208680937
0.6316718633
0.5642587806
0.6108716258
0.6476067895
0.8041886689
0.7249203823
0.7273541883
0.7376454527
0.7290022822
0.7993789876
0.6077444754
0.6656202118
0.6778633171
0.820864818
0.7635009849
0.7491201078
0.8005876145
0.7807404998
0.8350804427
0.6832510369
0.7302144806
0.7523130717
0.8937305601
0.8467729478
0.8229356087
0.9053227041
0.8734098462
0.9195962266
0.79196002
0.8310596416
0.8617673106
0.1527737833
0.1389612436
0.315283793
0.3016097195
0.2297914734
0.4412919633
0.3710835283
0.3847360119
0.3477984362
0.3587127424
0.4278881004
0.6085741014
0.5942139088
0.5181997486
0.7401444407
0.6687410857
0.6821824363
0.643306454
0.6557100071
0.7280813171
0.8768700324
0.8679788719
0.8074970803
0.9686678815
0.9218394549
0.9290783133
0.879811986
0.9143345544
0.9550853717
1.045306735
1.023138566
1.008588709
1.029341228
1.023417797
1.072038129
0.8932612598
0.9552795458
0.9661091878
1.119086273
1.054969294
1.039876217
1.101711757
1.074853384
1.136894937
0.9677007032
1.019675109
1.045260355
0.2246764377
0.2053412965
0.376423332
0.3609639766
0.2944574789
0.503757287
0.4306464856
0.4462232171
0.3994475018
0.4148637671
0.4875269522
0.6658668161
0.6523048079
0.5801251574
0.7872595656
0.7219293861
0.7338667593
0.695747297
0.7091190268
0.7761986851
0.9069790866
0.900638638
0.8472860521
0.988438782
0.9477244257
0.9524116114
0.9359067029
0.9421688041
0.9843715836
1.053540726
1.052318082
1.023136144
1.096794933
1.07658233
1.077343957
1.073995461
1.07550336
1.096055638
1.12797355
1.127518131
1.113644685
1.147819985
1.138786785
1.139179846
1.137779872
1.138322351
1.147411956
0.2908893943
0.2773397435
0.4275314281
0.4173599567
0.3514287037
0.559316127
0.4870339909
0.4966495814
0.4612377947
0.4749094161
0.547742191
0.7043811559
0.6977112219
0.6311544563
0.8190859878
0.7607852378
0.7661673361
0.7444952988
0.7536728903
0.8134564025
0.9199044469
0.918702771
0.8719376846
0.9964019111
0.9600187985
0.9609365944
0.9561247079
0.9587088325
0.9955300947
1.056087329
1.055590292
1.028159401
1.098812746
1.07902302
1.079420317
1.077992297
1.078549371
1.098428922
1.129123733
1.128925843
1.115324
1.148856417
1.139985959
1.140146314
1.139507184
1.139774493
1.148678669
0.3177774142
0.3159950458
0.4431234486
0.4417734868
0.377354497
0.5782514988
0.5091288859
0.5102150349
0.5039949657
0.5078371796
0.5772659761
0.7114505503
0.7106978157
0.6464682976
0.8264348481
0.7709225987
0.7717522315
0.7686129992
0.7698864201
0.8254388586
0.9231318065
0.922484712
0.8769958144
0.9988690335
0.963061104
0.9635869383
0.9617404788
0.96244692
0.9983809698
1.057358585
1.057137752
1.030131972
1.099711291
1.080213716
1.080361674
1.079747643
1.0800105
1.09957189
1.129436211
1.129422438
1.115992724
1.149131571
1.140357499
1.140349026
1.140259266
1.140328627
1.149122339
0.3220768239
0.3211221475
0.4475912698
0.4466092345
0.3829954141
0.5807778657
0.5129075384
0.5136341435
0.5112025373
0.512098528
0.580293598
0.712593596
0.7125388536
0.6480781003
0.8287430048
0.7730580418
0.7731406953
0.7723784089
0.7728094985
0.8284209732
0.9246546587
0.9244390522
0.8792069619
1.000076453
0.9646494461
0.9648289866
0.9640268632
0.964381447
0.9998820733
1.057694805
1.057687764
1.030987617
1.099806854
1.08051014
1.080469952
1.080458335
1.08050698
1.099845947
1.129141629
1.129262886
1.115938268
1.14884864
1.140126475
1.139994043
1.140306063
1.140231093
1.148962636
0.3251887514
0.3245141527
0.4506755343
0.4500264121
0.3868171485
0.5819742767
0.5153554753
0.5157840145
0.5142825438
0.51485586
0.5817763271
0.7117997714
0.7121212214
0.6481546487
0.8284875007
0.772576823
0.7721739956
0.7730761452
0.7728826874
0.8287603081
0.9243671241
0.9246098131
0.879221445
1.0001308
0.9648158334
0.9646225863
0.9649179703
0.9649142129
1.00022851
1.057234311
1.057422779
1.030884245
1.09928669
1.080102611
1.079899426
1.0803881
1.080265551
1.099468674
1.128385788
1.128612845
1.115338362
1.148156261
1.139448166
1.139220912
1.139835951
1.13965346
1.148361395
0.3272693421
0.3268383488
0.4525241802
0.4521679842
0.3892179871
0.5821734456
0.5166687503
0.5168366532
0.5161442739
0.516438839
0.5822081001
0.7099257558
0.7104711238
0.6472745293
0.8263634643
0.7705077192
0.7698291557
0.7716879428
0.7711297694
0.827024167
0.9223858566
0.9230184557
0.8773139563
0.9989739495
0.9634921839
0.9629433192
0.9643357891
0.9639579198
0.9993774371
1.055979533
1.056368742
1.029806215
1.098226066
1.079047583
1.078682063
1.079656035
1.079372234
1.098540886
1.127243599
1.127563344
1.114278457
1.147151621
1.138417623
1.138110989
1.138973057
1.138705022
1.147428303
0.3284483121
0.3282346846
0.4532856871
0.4531888631
0.3905049458
0.5815230684
0.5169908329
0.5169305602
0.5169452304
0.5169963881
0.5817593686
0.707319992
0.7080302628
0.6456414278
0.8231068995
0.7675100282
0.7666543933
0.7691005239
0.7683265279
0.8239992856
0.9191420359
0.9200457241
0.8740930821
0.9966587434
0.9608545688
0.9600294867
0.9623170247
0.9616190419
0.9973357386
1.053934855
1.054516522
1.027754532
1.096637408
1.077344075
1.076819617
1.078276029
1.07782991
1.097083516
1.12574437
1.126151626
1.11278423
1.145885795
1.137081154
1.136701898
1.137785969
1.137442523
1.146224852
0.3288442449
0.3288109306
0.4531217404
0.4532404832
0.3909206581
0.5801256291
0.5164431132
0.5161832511
0.5168181061
0.5166554003
0.5805402091
0.7041301679
0.7049768373
0.6433583577
0.8191389017
0.7638796586
0.7628909994
0.7657628372
0.7648375618
0.8201840138
0.9150585208
0.916140503
0.8700436326
0.9934059436
0.9572439305
0.9562265375
0.959149528
0.9582196585
0.9942925838
1.051188647
1.051933691
1.024856052
1.094542959
1.075028044
1.074362716
1.076257912
1.075660311
1.095111297
1.123909651
1.124398163
1.110874499
1.144384234
1.135462195
1.135015899
1.136305555
1.13589211
1.144780212
0.3285870476
0.3287079452
0.45218623
0.4524839522
0.3905624379
0.5780722815
0.5151408978
0.5147112182
0.5158783972
0.5155306595
0.5786417639
0.7004528574
0.7014125296
0.6405077597
0.8146692628
0.7597614573
0.7586680855
0.7618741122
0.7608306728
0.8158257393
0.9104151408
0.9116175674
0.8654430858
0.9894673546
0.9529627929
0.9518137384
0.9551717823
0.9540830298
0.9905041888
1.047876928
1.04875035
1.021298617
1.09200039
1.072186124
1.071405286
1.073666258
1.072940284
1.092673957
1.121773078
1.122333294
1.108589422
1.142669137
1.133585723
1.133079792
1.134554204
1.134077243
1.143116203
0.3277821847
0.3280295406
0.4506486642
0.4510772408
0.3895512275
0.5754688084
0.5132064822
0.5126380224
0.5142455377
0.5137433107
0.5761649527
0.6963872056
0.6974344487
0.6371851608
0.8098305659
0.7552643811
0.7540922203
0.7575533196
0.7564185757
0.8110686702
0.9053884169
0.9066738791
0.8604573713
0.9850424853
0.9482213765
0.9469813058
0.9506392237
0.9494413004
0.9861855968
1.044130615
1.045101699
1.017253028
1.089084339
1.068920003
1.068048068
1.070599809
1.069771028
1.089844212
1.119376999
1.119998
1.105983783
1.140766412
1.131483453
1.1309264
1.132560591
1.132028259
1.141257833
0.3265375746
0.3268838501
0.4486686053
0.4492002349
0.388022635
0.5724298263
0.5107700293
0.51009857
0.5120411668
0.5114182713
0.5732244504
0.6920276309
0.693140365
0.6334942304
0.8047243369
0.7504851536
0.7492552719
0.7529043338
0.7517019151
0.8060213297
0.9000935816
0.901437524
0.855199551
0.980271681
0.9431589852
0.9418545531
0.9457233851
0.9444490321
0.9814908473
1.040054155
1.041099461
1.012849249
1.085866032
1.065320484
1.064377193
1.067156822
1.066247377
1.086695418
1.116762763
1.117434685
1.103112543
1.138702997
1.129188623
1.128588254
1.130358067
1.129778625
1.139232211
0.3249736381
0.3253895271
0.4463377387
0.4469472434
0.3861253668
0.5690616358
0.5079666907
0.5072198595
0.5094064461
0.5086955345
0.5699292101
0.6874542184
0.6886133743
0.6295263759
0.7994280344
0.7455022698
0.7442324274
0.7480141955
0.7467632296