/*--------------------------------*- C++ -*----------------------------------*\
| =========                 |                                                 |
| \\      /  F ield         | OpenFOAM: The Open Source CFD Toolbox           |
|  \\    /   O peration     | Version:  v2012                                 |
|   \\  /    A nd           | Website:  www.openfoam.com                      |
|    \\/     M anipulation  |                                                 |
\*---------------------------------------------------------------------------*/
FoamFile
{
    version     2.0;
    format      ascii;
    class       volScalarField;
    location    "1";
    object      omega;
}
// * * * * * * * * * * * * * * * * * * * * * * * * * * * * * * * * * * * * * //

dimensions      [0 0 -1 0 0 0 0];


internalField   nonuniform List<scalar> 
3019
(
708.5395843
135.4574782
66.53577504
44.20488417
36.13978277
33.06059438
31.61611505
31.05868145
30.70488688
30.56692581
30.49142789
30.45103864
442.4372739
126.0619701
64.87031007
43.82125032
36.14302124
33.12284766
31.61514549
31.01905127
30.63513176
30.48412302
30.39995084
30.35510655
316.781564
116.3074187
61.88769297
43.06919729
35.99700989
33.12694272
31.59150665
30.97222287
30.56589988
30.40402673
30.31129701
30.26268382
265.2057545
104.2123726
58.1606122
42.03165972
35.77003816
33.07121006
31.54457054
30.9158941
30.49209821
30.32199666
30.22316098
30.17109434
201.3802184
90.1349452
54.13251698
40.9720322
35.56355561
32.9836831
31.47799562
30.84990594
30.41486955
30.23906154
30.13451648
30.07946024
157.1256456
78.52152421
51.02507084
40.26772822
35.37600231
32.87329287
31.39452362
30.77134152
30.32953412
30.14962592
30.04188508
29.98449403
134.5596441
72.41074134
49.64711035
39.89399565
35.1793251
32.74737811
31.29917564
30.6831585
30.23881031
30.05674574
29.94669666
29.88799378
127.5424796
70.92963099
48.96889045
39.55703334
34.98453123
32.61326094
31.195192
30.5867064
30.14055391
29.9568478
29.84533494
29.78589764
123.0860376
69.84938299
48.4385739
39.25846913
34.79740244
32.4758756
31.08499979
30.48340817
30.03822248
29.85443353
29.74228539
29.6825261
119.421698
68.95828099
48.05195437
39.00262185
34.6213821
32.3385812
30.97050687
30.37471436
29.9292141
29.74496489
29.6325309
29.57287437
116.3591179
68.20627801
47.77523792
38.79325654
34.45933091
32.20388076
30.85347442
30.26198165
29.81870206
29.63541099
29.52322559
29.46390608
113.7633811
67.56841936
47.57214114
38.6281069
34.31323268
32.07366133
30.73545477
30.1465029
29.70241375
29.51880822
29.40679766
29.34803691
111.5383107
67.02735029
47.41961912
38.49995204
34.18343528
31.94916606
30.61766703
30.02933875
29.58770883
29.40546541
29.29403378
29.23590918
109.6103999
66.56739486
47.30426466
38.40083224
34.06884288
31.83091261
30.50095887
29.91143417
29.46708172
29.28399907
29.17276323
29.11533843
107.9138966
66.17275947
47.2171115
38.32423131
33.96774936
31.71891446
30.38590417
29.7934344
29.35166182
29.17010602
29.05947486
29.00272767
106.3916122
65.8291983
47.15163539
38.26525824
33.87838651
31.61290049
30.27284179
29.67595893
29.2283143
29.04499385
28.93437397
28.87828264
105.0006713
65.52477896
47.10272907
38.22021936
33.79916004
31.51250411
30.16197517
29.55926201
29.11515318
28.93352017
28.82338572
28.7678789
103.7063933
65.24909087
47.06609651
38.18621514
33.72867344
31.41732991
30.05342683
29.44380975
28.98916183
28.8046299
28.69426566
28.63929226
102.4819636
64.99371325
47.03827384
38.16095561
33.66573368
31.327015
29.94729864
29.32959672
28.8814455
28.6987655
28.58867504
28.53413289
101.310607
64.75251219
47.01644785
38.1425292
33.60930518
31.24122633
29.84368163
29.21715908
28.75104322
28.56441171
28.4538762
28.39971426
100.1784788
64.52009942
46.99787875
38.12917904
33.55845709
31.15965475
29.74271063
29.10627591
28.65328333
28.46826646
28.3576897
28.30377976
99.07338606
64.29064971
46.97971304
38.11925706
33.51236805
31.08206763
29.64470083
28.99796855
28.51381638
28.32474368
28.21356066
28.15987467
97.98751387
64.05856554
46.95915887
38.11124981
33.47030444
31.00822117
29.55043815
28.89232387
28.43364125
28.24409742
28.13249345
28.07886048
96.91628369
63.82014516
46.93379345
38.10386871
33.43176666
30.93806665
29.46192836
28.79271013
28.25552969
28.06104665
27.94821998
27.89459124
864.8205386
740.3403158
163.9651852
544.4970152
847.802116
461.6266165
159.3237702
162.1546203
416.8176291
536.3737401
305.8005423
623.1125713
640.069985
561.9239992
270.5737692
295.1614543
1196.88775
748.6581799
1312.395711
1011.805253
530.6794476
713.6912255
331.3306568
145.5837607
155.9611032
465.8394138
510.8861428
950.9785714
248.2407017
262.6470526
547.1717816
498.8927388
5987.642096
1954.154644
1089.970516
577.562375
4541.162684
3183.224459
1013.150889
4701.542328
5834.313569
3144.258539
4463.495329
6181.182057
1888.796701
2778.680259
1297.885802
1665.81997
5557.521104
6188.349572
1730.918432
5922.068413
5097.767137
148.7052616
77.9767592
970.8600869
2838.588921
1936.556694
4233.018459
2543.87699
1295.234603
758.1294731
5974.070035
6305.994968
6432.12806
5328.733845
6138.587729
1033.364207
1206.945687
5677.208902
5157.152165
5754.167332
5318.092896
6088.692274
6039.854652
5893.940015
3597.19912
5206.381258
4733.568442
5849.501831
6050.370053
4024.089252
4342.924437
4792.770245
6095.304226
4960.168969
3533.87519
3872.688756
5726.793215
4282.586752
4542.060049
3390.739052
3855.226626
5903.998848
66.9972036
47.84782555
44.19455214
37.44436586
36.10186077
33.55355638
630.4544024
419.4692419
450.8928784
128.7700524
75.24992274
77.38712175
65.17299497
47.41913671
47.82070428
43.96192941
37.47891263
37.49005617
36.16044435
33.64074806
33.58500145
402.2442438
222.3259871
242.7957928
118.831502
71.72825873
74.6715682
62.67359665
46.46699618
47.2027385
43.28032931
37.26986269
37.43689884
36.04814782
33.65734978
33.65164221
430.168691
493.7066301
280.5631937
131.0744501
142.3777536
107.5524891
66.92026202
70.65326734
59.1722868
45.11040873
46.17020872
42.30938108
36.94780801
37.20139158
35.83011564
33.60335954
33.64766775
304.8357985
400.8107425
216.2241709
112.3651174
126.6618178
93.60484626
61.31895622
65.53615063
55.09728338
43.5775771
44.72778099
41.21994298
36.59989542
36.85576327
35.60820839
33.50901327
33.58158348
209.5665682
275.806787
165.9185351
94.9267109
107.6117509
80.97761207
56.52181459
59.98082955
51.66205376
42.3599457
43.22264931
40.38911637
36.3590557
36.53076837
35.42433383
33.39081687
33.4815383
165.2118464
194.3202396
138.4043727
84.19085386
91.4772236
73.38339921
53.82997154
55.61525293
49.84085253
41.79597111
42.16141601
39.9839238
36.13197817
36.3024033
35.22863995
33.25511455
33.35798382
152.5223446
159.9152931
128.8110085
81.03743013
82.74116196
71.2415692
52.93769802
53.57302141
49.12506525
41.3864929
41.68880285
39.63778815
35.9098249
36.07563193
35.0326763
33.11124982
33.219591
146.8507215
151.0147283
124.1168959
79.43831689
80.60826532
70.09863963
52.27684106
52.75269284
48.55691542
41.02934029
41.29219797
39.32931492
35.69924378
35.85593307
34.84326081
32.96494207
33.07473173
142.032266
145.5730735
120.2751193
78.0979969
79.08202714
69.16673877
51.80385775
52.14307473
48.13669803
40.7294139
40.9487451
39.06229649
35.50389157
35.64885873
34.66418164
32.81974203
32.92843504
137.9078838
140.9423914
117.0765954
76.95998549
77.79619747
68.38281446
51.46090157
51.70823909
47.83630993
40.4909514
40.66406073
38.84124699
35.32696597
35.45782066
34.49840099
32.67831755
32.78394412
134.3469877
136.9698825
114.3744029
75.98987901
76.70298412
67.71820292
51.20076459
51.38944709
47.61749622
40.3091765
40.44059957
38.66560354
35.17076644
35.28593369
34.34821207
32.54283366
32.64382464
131.2442271
133.532411
112.0641691
75.16151351
75.77055862
67.15441445
50.9980774
51.14541159
47.45384838
40.17281983
40.27132174
38.5289772
35.0354219
35.13502923
34.21440024
32.41473615
32.51008536
128.5192748
130.5309903
110.0682416
74.45225934
74.97404398
66.67566448
50.83904128
50.95469979
47.33016398
40.07070538
40.14448197
38.42327804
34.91911768
35.00466491
34.09615494
32.29457646
32.38395232
126.0961597
127.8888648
108.3198114
73.83996425
74.29111653
66.26613675
50.71392112
50.8049704
47.23665026
39.99433529
40.04949342
38.34156457
34.81930127
34.89272936
33.99185694
32.18224807
32.2657789
123.9027089
125.5292483
106.758502
73.3039249
73.69968815
65.91100803
50.61505842
50.68706126
47.1662747
39.93767095
39.97853806
38.27857032
34.73346735
34.79663261
33.89972101
32.07729049
32.15534346
121.8854984
123.3841706
105.3381296
72.82680914
73.17988569
65.59782826
50.53632493
50.59376372
47.11365698
39.89632294
39.92606794
38.23034594
34.65943584
34.71393898
33.8180978
31.97912577
32.05213756
120.0026724
121.4045254
104.0225694
72.39375944
72.71510667
65.31584058
50.47248612
50.51921832
47.07431502
39.86689626
39.88799016
38.19381859
34.59536758
34.64256093
33.7455454
31.88717548
31.95558232
118.2192095
119.549394
102.7823997
71.99227192
72.29101097
65.05603298
50.41919837
50.45838423
47.04456973
39.84671739
39.86110236
38.16656206
34.53972059
34.58073257
33.68082089
31.80089732
31.86509846
116.5147028
117.7878237
101.5987361
71.61312456
71.89584885
64.81178251
50.37307628
50.4071794
47.0214962
39.83361555
39.84288518
38.14659636
34.49118956
34.52698083
33.62285622
31.71980687
31.78016014
114.8698203
116.1013158
100.4570806
71.24906652
71.52116066
64.57768089
50.3310285
50.36237269
47.00237776
39.82560832
39.83124105
38.13213619
34.44861013
34.48004273
33.57069393
31.64345961
31.70029528
113.2662716
114.471173
99.34335213
70.89272934
71.15983039
64.34791493
50.28976773
50.32083921
46.98437455
39.8207829
39.82420642
38.12150477
34.41094298
34.43878485
33.52348778
31.57149274
31.62507463
111.6908666
112.8829487
98.24490553
70.53641818
70.80465239
64.11625568
50.24591932
50.27926538
46.96463255
39.81733918
39.81989068
38.11315097
34.37725343
34.40219646
33.48047799
31.50356636
31.55414777
110.1240334
111.3305101
97.14434739
70.170521
70.44906245
63.87517909
50.19588875
50.23437627
46.94024541
39.81360316
39.8165318
38.10565827
34.34668919
34.36937341
33.44095926
31.43932695
31.48718414
108.4366854
109.8086028
95.94836384
69.75969055
70.08910589
63.5997435
50.13203519
50.18345076
46.90620098
39.80772351
39.81258317
38.09731193
34.31684941
34.3396463
33.40214769
31.3748046
31.42407829
901.5307774
1060.796371
1016.02175
628.1164396
651.8505199
780.3772439
170.1895908
273.5020319
249.9742366
570.0359104
967.7213427
1707.650451
1279.429037
831.8120973
364.741586
378.4515512
503.276897
155.2075415
222.0496419
213.2563678
242.8926098
227.1650765
156.4501431
482.166831
540.7249751
317.0360568
436.8843197
405.8981541
451.2249536
302.3252804
1552.415293
1123.443424
729.2641421
702.9997938
605.0213407
661.5564402
800.9422823
760.6406291
377.3581835
411.3217243
609.3212579
277.0706732
339.6420344
329.8460554
391.1427074
354.1335498
286.4112817
1741.824135
1552.880119
1126.730327
2962.29
3221.803307
4746.26646
782.372623
1191.365234
1036.650469
1419.294348
2295.576271
1993.416932
742.458752
781.9939885
1201.850545
549.1102352
648.9791089
624.2231753
677.9924704
571.4352221
895.8559728
836.8758386
686.3141417
2400.926177
2651.806209
994.9454658
1002.701316
233.0281503
241.511097
383.7838302
148.8061444
184.284731
179.5366169
207.782157
189.5841071
152.2409991
478.3609894
557.8140382
539.8578213
599.7936161
578.7004573
495.6983395
825.7653327
679.9308918
710.3433424
251.1583511
302.7032995
297.0977847
318.6129808
311.2458008
258.2287821
517.5527154
384.1650927
400.9789706
518.2966265
710.0006693
682.4263436
2236.913257
3833.683426
3357.64922
881.3745812
916.8635838
800.3423912
824.6219762
1146.44283
593.7828997
677.3470574
662.592121
4078.22208
2541.400667
2938.99453
1930.574907
2208.944174
3564.284029
1059.870334
1403.801238
1288.965708
2124.314222
3316.482315
2965.52734
4204.761242
3758.770909
2432.331283
1383.410445
2132.553711
1922.830373
2636.658747
2370.387423
1528.12656
2935.324693
2610.57702
1569.471065
111.7116365
112.8684602
150.5401479
78.42655215
92.75967814
92.01021791
1200.719897
1128.052772
929.6027289
2539.106816
1557.689535
1717.948194
1301.180988
1405.05403
2210.419298
1003.255055
1049.36342
1414.134896
795.3740336
876.1242254
872.5327553
923.680708
809.4874198
1950.385251
2139.448629
1087.959682
1423.058995
1318.716297
1720.994537
1556.340235
1154.856929
33.03681874
32.0790263
31.60734326
31.29198572
31.08025605
30.92814375
678.8393459
585.682265
605.1717618
133.2791298
108.5896582
109.8249789
66.19236294
58.34161299
58.52049127
44.09240277
41.34811489
41.39294631
36.16569457
35.11238573
35.07659273
33.11477399
32.12515367
32.10618445
31.61741957
31.27610384
31.28457394
31.04345495
30.87642979
30.90380223
428.8799681
340.9780266
352.3329477
123.5225763
102.1426131
103.8586354
64.03480549
56.85592215
57.37719153
43.70614789
41.04980393
41.17259823
36.1184628
35.10405428
35.11798449
33.13145884
32.12769548
32.13016518
31.60766955
31.24690711
31.26257105
31.00041789
30.82154007
30.85041481
305.6180709
219.7097951
225.712446
113.6081242
94.66595387
96.73667705
61.04012623
54.63672153
55.261876
42.83378824
40.46942647
40.63547521
35.94598138
35.00450184
35.03633302
33.08909332
32.09798171
32.11725807
31.57248191
31.20337885
31.22594407
30.94897412
30.76170398
30.79278513
248.7895361
187.6563314
196.7555256
100.7253495
85.01702119
87.59125898
57.13121637
51.78552731
52.53720259
41.75869037
39.7064004
39.90206281
35.71087184
34.85818429
34.89511237
33.00863304
32.03507723
32.06888123
31.51412444
31.14639855
31.17484931
30.88819032
30.69520634
30.72959716
187.991546
151.6018646
160.0631005
86.82980217
74.91615904
77.30540122
53.2278804
48.95906678
49.60996701
40.74715742
39.01554018
39.16628271
35.51836379
34.71409763
34.75212623
32.90324463
31.95292915
31.99645977
31.43799611
31.07377273
31.11125939
30.81440264
30.61995821
30.65892735
149.6659261
124.7152463
130.2434907
76.42983093
67.41159324
68.92752317
50.50650281
47.04517332
47.40378452
40.17011664
38.62684086
38.70669851
35.32714387
34.54931225
34.59186608
32.78020046
31.85424702
31.90527981
31.34812805
30.98901849
31.0323876
30.73036394
30.53565289
30.57876662
131.6855058
111.3750915
113.3658209
71.93876894
64.2431366
64.59463454
49.46440432
46.31144401
46.46194316
39.80630937
38.3196994
38.39437289
35.13015972
34.37526839
34.41905618
32.64745355
31.74453759
31.80048385
31.24810496
30.89425895
30.94246632
30.63741181
30.44349843
30.49042424
126.340913
107.5832318
108.4512836
70.63692971
63.16228957
63.39878018
48.8220628
45.77217395
45.89738614
39.47867354
38.03714703
38.10525945
34.93687716
34.20112526
34.2443559
32.51043975
31.62791778
31.68688587
31.14075335
30.79159033
30.84357395
30.53697792
30.34417714
30.39461331
122.104484
104.4903545
105.2109976
69.61163617
62.37382973
62.55155915
48.32941533
45.33958697
45.43727732
39.19029351
37.78283723
37.84357736
34.75223671
34.03184346
34.07352858
32.37282647
31.50733985
31.56797414
31.02818032
30.68296698
30.73775389
30.43049596
30.23893321
30.292196
118.6059749
101.9099641
102.5129889
68.75849931
61.75462894
61.8975667
47.97409447
45.01576888
45.08725189
38.9458965
37.56067425
37.61297216
34.57946186
33.87056485
33.90998904
32.23725908
31.38503099
31.44628245
30.91220725
30.57015968
30.6268785
30.31938656
30.12873273
30.18440626
115.6709869
99.73932635
100.2482852
68.0369285
61.24615413
61.3645771
47.71871569
44.78212062
44.83355047
38.74806519
37.37385492
37.41721541
34.42127043
33.71983199
33.75641127
32.10575965
31.26280402
31.32380709
30.79450458
30.45466438
30.51258544
30.20495717
30.01506671
30.0723196
113.1757609
97.8986025
98.33139801
67.42476318
60.82272263
60.92148408
47.52992841
44.6128308
44.65031874
38.59293406
37.22142121
37.25651984
34.27928312
33.58140022
33.61480572
31.97974777
31.14210431
31.20219191
30.6764717
30.33774541
30.3962589
30.08838882
29.89865819
29.95724923
111.0313683
96.32604863
96.69694384
66.90545226
60.46952994
60.55192197
47.38772472
44.48855891
44.51616787
38.47274499
37.09877992
37.12695451
34.15342813
33.4557496
33.4859852
31.85990774
31.02389769
31.08264875
30.55913666
30.22039604
30.27903332
29.97066323
29.7809665
29.84003773
109.1673385
94.96949793
95.29102046
66.46328955
60.17406272
60.24318418
47.2801477
44.39697775
44.41730428
38.37979749
37.00039856
37.02300047
34.04237907
33.3422597
33.36954908
31.74635806
30.90873185
30.96591273
30.44319938
30.10337771
30.16177761
29.85257432
29.66211243
29.72179152
107.5191425
93.78134846
94.06491593
66.08265823
59.92436721
59.98308705
47.19895484
44.32993415
44.34473647
38.30800734
36.9214472
36.93958897
33.94437957
33.2398097
33.26445552
31.63887874
30.79686243
30.85237922
30.32910578
29.98723217
30.04514941
29.73473031
29.54359955
29.60291978
106.0332511
92.72138219
92.97616731
65.74993396
59.71017745
59.76088159
47.13806517
44.28169518
44.292248
38.25282906
36.85809448
36.87264611
33.85769287
33.14716583
33.16947208
31.53711041
30.68836124
30.74219394
30.21711679
29.8723427
29.92960363
29.61756947
29.42471572
29.48434546
104.6694831
91.75753661
91.99101875
65.45361276
59.52280968
59.5675644
47.09260049
44.24783218
44.25516092
38.2107945
36.80732765
36.81898067
33.78077402
33.0631736
33.08342016
31.44066511
30.58320904
30.635378
30.10738271
29.75895487
29.81545112
29.50142152
29.30738244
29.36597913
103.3946037
90.86277301
91.08123091
65.18368728
59.354725
59.39528913
47.05846157
44.22472436
44.22966119
38.17917148
36.76673766
36.7760443
33.71227767
32.98679202
33.00522705
31.34916843
30.48133787
30.53188945
29.99999183
29.64726477
29.70292474
29.38650464
29.18975081
29.24877666
102.1845863
90.01725249
90.22483767
64.93236729
59.20003179
59.23770017
47.03239083
44.2094983
44.21270208
38.15579206
36.73439004
36.74179864
33.65106021
32.91712017
32.93395514
31.26227906
30.38268958
30.43167523
29.89500235
29.53738601
29.59220297
29.27302031
29.07485886
29.13214915
101.0237297
89.20808032
89.40777843
64.69387399
59.05422292
59.09007201
47.01164247
44.19969514
44.20176984
38.13879592
36.70862123
36.71453234
33.59611031
32.8533509
32.86878104
31.17967529
30.28718823
30.3347182
29.79239386
29.42938259
29.48346907
29.16099867
28.95897343
29.01742272
99.89770395
88.42403144
88.61906799
64.46270004
58.91286323
58.94805381
46.9934419
44.19286401
44.19442922
38.12645309
36.68791224
36.69269392
33.54652553
32.79476613
32.80896181
31.10111543
30.194659
30.24105333
29.6920385
29.32311874
29.37689587
29.05042393
28.84724942
28.90335805
98.79319445
87.65385174
87.84826169
64.23279183
58.77114356
58.80697426
46.97492357
44.18653293
44.18820266
38.11714628
36.67087106
36.67485936
33.50150779
32.74073774
32.75385046
31.02635022
30.10464657
30.15081858
29.5935235
29.2182419
29.27288645
28.94081014
28.73226903
28.79231035
97.69668108
86.88556781
87.0873322
63.99757539
58.62391235
58.66223589
46.95323656
44.17830123
44.18070174
38.10939058
36.65623424
36.65973673
33.46033701
32.69069405
32.70286786
30.95509703
30.01583438
30.06466186
29.49565252
29.11347131
29.17224478
28.83097561
28.62228777
28.68259493
96.58349248
86.09869838
86.33191345
63.7471055
58.46372622
58.5105026
46.9252509
44.16574866
44.16980201
38.10179647
36.64277743
36.64626563
33.42208124
32.64376655
32.65566768
30.88302618
29.92216583
29.9849655
29.39134845
29.00101864
29.07717385
28.71216821
28.49392142
28.58020065
165.7776874
187.0904617
184.5658378
557.7091375
636.9058629
625.2538812
955.368338
944.5219118
802.2047741
181.5992048
179.5062518
160.0322835
361.5460755
320.1918926
495.8024792
506.3917237
574.8695234
859.6658566
894.8727578
1059.260507
1375.246827
1453.397311
939.3782142
799.5034674
842.4651556
537.196557
475.7820161
485.4871492
1200.315282
1274.262774
58.79745333
58.83657131
67.13835389
47.81495815
52.59681344
52.60332115
41.36850934
41.34175302
44.15613461
37.41805508
39.13933785
39.16511839
35.04475367
35.00752841
36.06708681
33.52204214
34.17706359
34.20773201
550.4405787
566.3097741
652.4980835
429.7010758
491.3350254
479.3988954
521.9621059
506.7686645
440.1446138
105.7726619
106.6897746
130.3254903
76.1435602
89.20902336
88.32186241
91.06847439
90.24887179
76.76013031
57.67663264
58.0520987
65.78791032
47.60921153
52.1302497
51.91386914
52.49177221
52.33349829
47.66249164
41.26640507
41.3114084
44.07397538
37.47721793
39.15859951
39.14561492
39.20336025
39.19837008
37.49888551
35.11880258
35.11208436
36.15465475
33.62983445
34.28918933
34.29388067
34.24510783
34.26924107
33.61008378
321.5331879
331.4864465
410.8810437
287.163162
282.1595213
237.3280266
98.63872472
100.4076237
121.1943077
72.72424925
84.63348472
83.30292843
87.14475978
85.88514357
73.64333253
55.8348515
56.3492928
63.38824095
46.72915722
50.92921676
50.56057916
51.59433684
51.36775289
47.08860532
40.78340699
40.96361752
43.48949553
37.36977789
38.95972198
38.81956606
39.07960874
38.99953136
37.38833345
35.07447246
35.08527412
36.09855025
33.65753833
34.29325163
34.28924231
34.30046552
34.29636939
33.65657515
454.8296736
473.6921155
205.2970749
212.9885813
294.1799251
135.1766773
166.4241849
161.1464269
175.4072741
171.1706018
138.9366434
90.07998557
92.4458701
110.6928776
68.25354128
78.68258237
76.91050956
81.89494229
80.35478049
69.5024231
53.27174452
53.96992878
60.13792247
45.48458968
49.19892479
48.68515485
50.14576936
49.68892182
45.84033183
40.097486
40.28864368
42.57761161
37.0385328
38.47758754
38.3441961
38.71799734
38.60316626
37.12386872
34.93200745
34.96959569
35.88989674
33.62043416
34.22966449
34.20595201
34.26928354
34.25103393
33.63673549
336.3738169
369.0102994
169.0337901
178.3089856
232.2103615
117.2017467
142.8947092
136.4714472
155.3868372
149.2563288
122.0055713
79.81838642
82.40822563
97.16428811
62.70881242
71.23719785
69.34165384
75.0583945
73.15555722
64.12389757
50.30708565
51.03726172
56.10343711
43.95352815
47.07212472
46.54562492
48.15883069
47.61392945
44.34229647
39.33531553
39.51844148
41.4849415
36.67893092
37.94446654
37.82164519
38.2086077
38.07251453
36.76437282
34.7883578
34.82304887
35.65731501
33.53426372
34.12592229
34.09648008
34.18095083
34.15486714
33.55995487
228.0375705
250.1026555
136.6169328
143.7463076
176.1864455
98.79834784
118.3061533
113.0644273
130.1338739
124.0428964
103.0602402
70.69185254
72.7024599
83.75960484
57.56069561
64.16753414
62.71674135
67.50829839
65.77239535
58.72127693
47.84494957
48.36766343
52.39895638
42.60681602
45.16400019
44.80127592
46.0453264
45.58181051
42.89667806
38.78892852
38.88880681
40.55100914
36.41523315
37.53599713
37.46781846
37.70982538
37.61480152
36.471089
34.63367671
34.67451507
35.47189047
33.42230683
33.99819729
33.96253584
34.06538876
34.03258139
33.45282638
172.6331995
182.1215948
116.2544237
120.0308529
143.4742088
86.06939878
100.8936003
98.22074878
108.3604544
104.3171712
88.54034721
65.22906508
66.18672692
74.69742987
54.25891534
59.51099686
58.84042873
61.44949148
60.36752314
54.86102958
46.61890053
46.79030606
50.09701284
41.90630174
44.11129162
43.97711693
44.49922014
44.26753417
42.0210524
38.47053578
38.54806703
40.07599349
36.1886634
37.26695182
37.20101803
37.40055216
37.33352314
36.24553179
34.4627476
34.50621853
35.27796322
33.29002277
33.84994332
33.81115623
33.92579454
33.88820961
33.32447487
154.1026396
155.9870536
109.3621127
110.3189958
130.1538613
81.49081443
94.20533987
93.55668233
96.15751751
94.90618616
81.9810355
63.655979
63.93653908
71.57587758
53.13616647
57.91854011
57.68244481
58.45207483
58.17386317
53.34784765
46.02910031
46.1671545
49.2903126
41.48404819
43.6036191
43.48802983
43.84815346
43.72366121
41.58481884
38.17508685
38.24658386
39.72089045
35.96445917
37.00837929
36.94622426
37.13586148
37.07161724
36.0197559
34.28783211
34.33150146
35.081246
33.14759769
33.69297847
33.6533062
33.77199266
33.73255653
33.18377595
148.1823949
149.569144
105.9653199
106.7553576
125.200349
79.81059707
91.77525242
91.23119617
92.93660853
92.34325825
80.19995032
62.74096036
62.94383136
70.36059122
52.42260854
57.08230025
56.91420745
57.46504473
57.26540795
52.58104407
45.54197009
45.65364376
48.68470491
41.11352824
43.16856335
43.07159204
43.37692505
43.27038961
41.20117544
37.90624976
37.97079346
39.40274158
35.75058729
36.76682702
36.7095577
36.88521158
36.82539429
35.80283218
34.11566157
34.15821459
34.88976918
33.00153246
33.5346064
33.49531113
33.61365977
33.57405604
33.03814428
143.1660578
144.3450164
103.1430225
103.801632
121.1683283
78.41254412
89.73053813
89.27101377
90.70975907
90.20977523
78.7402421
62.04788844
62.20633872
69.38430588
51.90756359
56.48411973
56.36078118
56.75949797
56.61658917
52.02027404
45.16481866
45.24883627
48.22896994
40.79868221
42.81104976
42.7345696
42.97961022
42.89272679
40.8718086
37.66746933
37.72411369
39.12487435
35.55112507
36.54604166
36.49450535
36.65363308
36.59910167
35.59946088
33.95003444
33.99066997
34.70781543
32.85578994
33.37898697
33.34084978
33.45626374
33.41745745
32.89202672
138.8818812
139.892394
100.7789423
101.3324321
117.8247634
77.22762865
88.00131002
87.61173788
88.83019552
88.40718481
77.50614041
61.4885691
61.61846174
68.56676375
51.53747391
56.03524561
55.93908061
56.24543494
56.13715596
51.61967672
44.88935368
44.94995032
47.90240744
40.54490116
42.53523282
42.47819609
42.66320657
42.59682021
40.60256464
37.4627911
37.5106097
38.8921089
35.36931448
36.34956237
36.30461804
36.44454598
36.39621473
35.41294267
33.79374311
33.8318073
34.53845514
32.71319519
33.22895898
33.19260597
33.30311861
33.26579875
32.74840961
135.1908238
136.064234
98.78183869
99.25081895
115.0096472
76.21822646
86.53279337
86.20103306
87.23758907
86.87811697
76.45575894
61.02483685
61.13298745
67.87427109
51.25971535
55.68025093
55.60279184
55.84811432
55.76193404
51.32248811
44.69083687
44.73466591
47.66624499
40.34988693
42.33149492
42.28979753
42.42541937
42.37661058
40.39362908
37.29357176
37.33265841
38.7055459
35.20782559
36.18009113
36.14199027
36.26139225
36.21988605
35.24621466
33.64901484
33.68402727
34.38422391
32.57605523
33.08684406
33.05276085
33.15679262
33.12152429
32.60972491
131.9819223
132.7438584
97.08216686
97.48246829
112.6094991
75.35662571
85.28043319
84.99681162
85.8820774
85.57533273
75.55946929
60.63812883
60.72834016
67.28679662
51.04423354
55.39313359
55.33024491
55.52924836
55.45940618
51.09326938
44.54596328
44.57812174
47.4905565
40.20330739
42.1825098
42.15195314
42.25122532
42.21553103
40.23608026
37.15672783
37.18818801
38.55993016
35.06738198
36.03737576
36.00557276
36.10553398
36.07067699
35.10057201
33.51699729
33.5488007
34.24634315
32.4460256
32.95424421
32.92266582
33.01929812
32.98645164
32.47780875
129.169464
129.8391835
95.62379934
95.96860206
110.5414772
74.61967777
84.20780085
83.96385499
84.72382567
84.46093363
74.79342367
60.31534654
60.39074551
66.78826707
50.87529518
55.1598906
55.10873549
55.27050827
55.21375681
50.91378571
44.4392629
44.46297627
47.35794405
40.09354268
42.07316394
42.05070865
42.12364927
42.09742951
40.11808863
37.04688133
37.07211854
38.44721937
34.94654945
35.91850541
35.89207157
35.97519862
35.94619326
34.97504908
33.39754717
33.42627819
34.12434356
32.3238737
32.83170173
32.80261159
32.89172174
32.86139838
32.35366217
126.6781966
127.2749492
94.35707686
94.65841265
108.7372258
73.98519295
83.2815694
83.06923256
83.72848605
83.50115362
74.1354109
60.04417737
60.10779135
66.36290033
50.74248696
54.96973457
54.9278244
55.06008149
55.01377265
50.77278624
44.36078888
44.37817644
47.25763297
40.01138417
41.99289162
41.9764865
42.02991546
42.01066894
40.02973747
36.95875634
36.97900751
38.36006429
34.84285361
35.81969699
35.79771297
35.86682863
35.8427181
34.86731556
33.28973266
33.31566207
34.01672529
32.20961908
32.71890953
32.69215654
32.77412692
32.74622682
32.23745934
124.4330845
124.9745195
93.23747818
93.50571782
107.1340202
73.43183056
82.47070288
82.28287479
82.86356716
82.6641263
73.56360405
59.81340301
59.86786053
65.99542343
50.6376801
54.81328501
54.77853922
54.88784624
54.84968123
50.66163799
44.30376315
44.31630571
47.18202465
39.95025501
41.93453173
41.92275743
41.9613376
41.94736804
39.96385269
36.88802676
36.904279
38.29280324
34.75374196
35.73745022
35.71912798
35.77670509
35.75662833
34.77478495
33.19233828
33.21577823
33.92171078
32.10287036
32.61514626
32.59051876
32.66595426
32.64028567
32.12888467
122.3759747
122.8747701
92.22921153
92.47254936
105.6820747
72.94146445
81.74864696
81.57940374
82.10011798
81.922097
73.05901647
59.61363802
59.66114524
65.67281765
50.55443464
54.68280152
54.65348136
54.74526184
54.71336015
50.57354171
44.26321218
44.27204193
47.12541684
39.905428
41.89302214
41.88481959
41.9119471
41.90204562
39.91532313
36.83130222
36.84432919
38.24120359
34.67694482
35.66884265
35.65353973
35.70160625
35.68485322
34.69510237
33.10415712
33.12540118
33.8376028
32.00306208
32.51955869
32.49684436
32.56638435
32.54273367
32.0273965
120.4635201
120.9298878
91.30294899
91.52832348
104.3434582
72.49867411
81.09309507
80.93735485
81.41391401
81.25183996
72.60566299
59.43676812
59.47925323
65.38396439
50.48732032
54.57167285
54.54626361
54.62523172
54.59796634
50.5028632
44.23513062
44.24117701
47.08313567
39.87329782
41.86446882
41.85899228
41.87735161
41.87057351
39.88031299
36.78589198
36.79631157
38.20200285
34.61054176
35.61149
35.5986811
35.63889687
35.62488584
34.62626437
33.02409221
33.04340395
33.76290754
31.9096114
32.4313212
32.41032237
32.47457362
32.45273408
31.9324116
118.6578455
119.0999959
90.4347383
90.64742068
103.0866965
72.09029774
80.48514686
80.33892797
80.78425294
80.63349586
72.18976356
59.2759998
59.31499614
65.11932265
50.43174337
54.47426218
54.45155733
54.52158941
54.49758321
50.44477533
44.21628458
44.22028428
47.0512885
39.85102466
41.8457683
41.84235174
41.85406761
41.84966106
39.8558057
36.74964304
36.75794958
38.17262718
34.55291908
35.5634426
35.55269945
35.58641669
35.5746732
34.56658179
32.95117076
32.96877982
33.69633175
31.82196124
32.34967181
32.33021317
32.38972037
32.36950337
31.84336009
116.9360989
117.3582745
89.60877401
89.81212914
101.8905818
71.7062845
79.91105724
79.77166541
80.19460476
80.05192302
71.80041167
59.12627913
59.16292278
64.87170582
50.38411724
54.3862343
54.36530827
54.42933867
54.40755663
50.39545587