/*--------------------------------*- C++ -*----------------------------------*\
| =========                 |                                                 |
| \\      /  F ield         | OpenFOAM: The Open Source CFD Toolbox           |
|  \\    /   O peration     | Version:  v2012                                 |
|   \\  /    A nd           | Website:  www.openfoam.com                      |
|    \\/     M anipulation  |                                                 |
\*---------------------------------------------------------------------------*/
FoamFile
{
    version     2.0;
    format      ascii;
    class       volScalarField;
    location    "1";
    object      p;
}
// * * * * * * * * * * * * * * * * * * * * * * * * * * * * * * * * * * * * * //

dimensions      [0 2 -2 0 0 0 0];


internalField   nonuniform List<scalar> 
3019
(
-768.7591468
-986.9965142
-1060.678498
-1034.393744
-970.4642483
-904.2101519
-828.0809459
-786.0351743
-733.0777552
-715.4746648
-703.683549
-697.9617007
266.8053962
-404.0196749
-669.1430399
-772.0500116
-791.8929065
-775.967714
-735.175623
-711.8484775
-673.6302902
-662.659898
-654.9142722
-651.2134881
235.6783324
-163.5318888
-429.8815827
-575.9927185
-639.0971314
-655.9876564
-642.9151996
-636.4172305
-611.8066344
-606.9895774
-603.2205249
-601.4679067
171.2278912
-89.93263843
-302.6101792
-441.3739015
-516.4909217
-550.7706576
-557.4147711
-563.5776827
-550.4369161
-550.8700222
-550.6054782
-550.5396877
104.6563678
-73.76736058
-233.071308
-348.4162612
-419.6759915
-462.0121563
-480.9289448
-495.7583273
-491.6935675
-496.2320637
-498.7520033
-499.9807339
57.46141571
-71.86007803
-188.6537983
-278.5930034
-342.6206584
-387.935986
-414.1154445
-434.174855
-436.8571734
-444.2925968
-448.8724875
-451.0313857
31.93097688
-64.90508495
-151.8927828
-225.1023413
-283.3179954
-327.7101537
-356.7749159
-379.3870621
-386.5273316
-395.7899783
-401.7336797
-404.5612011
24.25382508
-52.26467434
-123.2365418
-185.3281441
-237.0044578
-278.4753625
-307.8998338
-331.1473909
-340.9282494
-351.1506261
-357.8705083
-361.068089
19.42465728
-43.22760395
-102.0992352
-154.8564899
-200.1770995
-237.85274
-266.2366921
-288.876193
-299.9621193
-310.4797078
-317.5048675
-320.8526792
15.56736668
-36.5280354
-85.87923912
-130.846765
-170.3526974
-204.0343268
-230.5425493
-251.8856298
-263.339903
-273.6723273
-280.6572962
-283.9914535
12.49735463
-31.30369775
-73.00963159
-111.4535871
-145.7823009
-175.6115863
-199.7878204
-219.4801925
-230.6710729
-240.499688
-247.2097752
-250.4170641
10.03933874
-27.06120664
-62.50551501
-95.44544308
-125.2125219
-151.4493409
-173.1559503
-191.0204654
-201.5411046
-210.671599
-216.9561214
-219.9625857
8.059897965
-23.5042781
-53.72842404
-81.98216423
-107.7409474
-130.6896917
-149.9428276
-165.9387673
-175.5457404
-183.8719582
-189.6410897
-192.4019953
6.458759261
-20.44490229
-46.2481065
-70.47272658
-92.70446486
-112.6728512
-129.572571
-143.7388281
-152.3024678
-159.7790217
-164.9870911
-167.4793207
5.159500348
-17.75894257
-39.76581029
-60.49239873
-79.60929928
-96.88778444
-111.5742843
-123.9944447
-131.4550277
-138.0767914
-142.708897
-144.9245524
4.102124648
-15.36050425
-34.06561478
-51.72534407
-68.07669546
-82.92855502
-95.55494355
-106.3335338
-112.6763705
-118.4630588
-122.5242454
-124.4652949
3.239231171
-13.18824512
-28.98743072
-43.93183114
-57.81134255
-70.46917967
-81.18742588
-90.43470354
-95.66977104
-100.655154
-104.1622616
-105.8364943
2.532644498
-11.19623858
-24.40787085
-36.92356185
-48.57521283
-59.23505009
-68.19645834
-76.01674646
-80.16620419
-84.39043713
-87.36651668
-88.78486807
1.951379234
-9.34879068
-20.2293026
-30.55002005
-40.17627602
-48.99310069
-56.34043869
-62.83153984
-65.91665329
-69.42332232
-71.89339594
-73.06740742
1.469831481
-7.617088815
-16.37214268
-24.68796481
-32.45985604
-39.59060392
-45.38596312
-50.65329378
-52.70948776
-55.53843739
-57.52726313
-58.46970873
1.066546805
-5.976445659
-12.76819522
-19.23019331
-25.28637532
-30.87513141
-35.15679483
-39.27935789
-40.29161979
-42.48846565
-44.01401509
-44.73004077
0.7236481884
-4.40517243
-9.357846488
-14.0813835
-18.5251104
-22.64680347
-25.51282476
-28.50996732
-28.6761461
-30.23189434
-31.31579772
-31.82918121
0.4261797956
-2.883410731
-6.08730197
-9.155433018
-12.06024504
-14.78136552
-16.28058342
-18.24667181
-17.08275691
-18.01664973
-18.6558257
-18.91052458
0.16195495
-1.392388209
-2.907423877
-4.374337797
-5.784303636
-7.151960433
-7.252937579
-8.163883931
-7.781392455
-8.227540967
-8.53549574
-8.749480683
-823.4575786
-864.6230557
-1102.955795
354.6156704
-775.2180288
215.0857002
-415.1623398
-991.7048732
349.4660769
367.8589268
-1015.489446
-30.70451356
-107.5398077
-163.3521182
-484.624439
-871.0741586
-1179.531835
-455.7884606
-1230.22731
-1231.643672
-1263.845522
-362.9692588
248.1976359
-106.4388531
-298.6056765
-916.7072965
-1174.580703
-1182.442896
-124.5510096
-376.910521
-90.14509916
405.8136637
-1430.876848
-1436.384808
401.9931258
166.1482128
-1189.518919
-1011.33919
-1024.886517
-1014.502405
-1191.594363
-790.6604292
-965.111308
-548.5392388
-575.2660433
-740.6104696
-362.5794435
-521.4403854
-447.8499903
-1202.744426
-1388.739605
-1416.69611
-1202.87555
-1123.749572
-1190.002424
-975.4275783
-963.0900317
-796.6648096
-1557.735184
-1546.792582
-1435.30608
-1427.412995
-790.7571964
-806.4521022
-625.3642503
-631.3502243
-732.2696807
-162.2011844
-309.8063222
-1560.719299
-1425.779781
-1506.192541
-1031.377049
-1027.49645
-1015.613539
-1133.333559
-829.9945947
-809.074622
-794.8343809
-954.4675353
-894.980192
-893.7488812
-555.0930724
-611.6118475
-608.0334726
-427.6675908
-434.0354087
-482.0676153
-1351.397279
-1355.695531
-1411.516059
-1217.615287
-1281.613943
-1290.029612
-1180.79332
-1129.984158
-1108.45076
-1039.971967
-1017.450526
-954.6129884
-491.4189734
-591.8866395
-833.3793764
-514.1608157
-711.8726757
-1054.27347
-752.3554346
-821.5605029
-1046.503944
-831.7304558
-837.7610673
-987.5549993
-834.506279
-815.8304188
-919.9325358
307.6852643
50.62707034
-66.03681996
-201.7523124
-422.322255
-621.8410986
-477.0653481
-593.4478653
-756.6445414
-618.8456054
-666.2079557
-791.6705181
-674.4676513
-684.7707733
-781.8183879
259.6741892
332.2791412
190.3712887
-31.41201863
-75.03332887
-99.76073758
-278.3781756
-375.8393295
-327.4657883
-441.7147539
-548.8238156
-470.0790911
-530.9097814
-628.9965867
-544.3844262
-570.0049421
-654.3762625
168.9829974
235.0238933
119.6215071
-27.34132843
-27.46937462
-75.19954493
-208.4957024
-255.9058621
-247.0427213
-343.4687574
-413.4830252
-369.1289069
-427.843532
-502.5316928
-442.0827137
-474.4652208
-544.3490346
100.8809877
149.3294618
67.30158978
-38.1783458
-29.99708637
-72.54191872
-169.4971777
-197.0670045
-198.6061909
-273.7010686
-323.928208
-294.5135904
-345.8047618
-405.4562474
-359.9898179
-395.2745658
-453.1656168
61.88527032
88.5516501
36.22839096
-41.66451487
-40.17923639
-67.63824307
-138.8517791
-161.6295901
-160.6287741
-219.4603666
-258.9107572
-236.9751977
-283.3191319
-328.548091
-296.7641121
-331.5606121
-378.028731
46.09307609
56.1084151
25.57427147
-35.29143766
-41.17398183
-55.0499256
-111.7405022
-131.3285834
-129.5578244
-179.1259242
-208.1966997
-194.2594895
-235.3265419
-270.1462863
-247.5760913
-280.1663218
-317.6882321
37.22282685
43.74311246
20.53575785
-29.04922746
-33.48878543
-45.22270977
-91.98452201
-106.2251249
-106.8433834
-148.7676769
-170.7524525
-161.778322
-197.7164367
-225.0813624
-208.6451214
-238.2904779
-268.9159159
30.26899859
35.32241203
16.45065756
-24.60948782
-27.80742298
-38.0390357
-77.07385979
-87.87990069
-89.57121889
-125.1798359
-142.3308319
-136.3569043
-167.6199263
-189.5777175
-177.257433
-203.7644706
-229.0542895
24.78813839
28.77752779
13.20142114
-21.22714771
-23.68444234
-32.50276038
-65.39105887
-73.89756564
-75.97406089
-106.3364523
-120.0853449
-115.944432
-143.0640086
-161.0239538
-151.507722
-174.9725722
-196.0967778
20.40074454
23.60076465
10.60439998
-18.50722821
-20.49582231
-28.04828699
-55.941988
-62.8488004
-64.94898801
-90.9158549
-102.2009829
-99.18108865
-122.667351
-137.6189216
-130.0338495
-150.6644667
-168.5280443
16.84158862
19.44175342
8.515850086
-16.2279438
-17.90242917
-24.34086075
-48.09726458
-53.84949732
-55.78701977
-78.03377297
-87.4850146
-85.14507784
-105.4531472
-118.0969383
-111.8579245
-129.9000996
-145.1826043
13.92210091
16.05783634
6.828070322
-14.25587262
-15.71005935
-21.17066962
-41.44158984
-46.33475642
-48.01460296
-67.07907924
-75.1338293
-73.1922711
-90.71513482
-101.559502
-96.26443629
-111.9659124
-125.1841151
11.50475695
13.2752415
5.459537814
-12.50708927
-13.800294
-18.40062047
-35.6917702
-39.92822706
-41.30574128
-57.61947409
-64.58804767
-62.86289616
-77.93510691
-87.35374599
-82.723371
-96.31731645
-107.8659993
9.485687899
10.96611818
4.346583394
-10.92625163
-12.09785311
-15.93688545
-30.64656733
-34.3709251
-35.42696543
-49.33838942
-55.44912417
-53.81769505
-66.72147027
-74.99794905
-70.8308512
-82.52804707
-92.71731696
7.784792552
9.033304861
3.438951162
-9.475398693
-10.55252454
-13.71282991
-26.15838612
-29.47705904
-30.20593282
-41.99783104
-47.42284614
-45.79998733
-56.77182017
-64.12557628
-60.27270683
-70.25891963
-79.33592979
6.33909764
7.401602853
2.696433709
-8.127472107
-9.129668664
-11.67942767
-22.11567408
-25.10972526
-25.51170504
-35.41427154
-40.28724797
-38.61077591
-47.84730813
-54.45286567
-50.79895865
-59.23292948
-67.40126504
5.098041468
6.01140037
2.086421958
-6.861850897
-7.804052678
-9.798754466
-18.43066401
-21.16391066
-21.24091537
-29.44145022
-33.86886466
-32.09094999
-39.75473972
-45.75284039
-42.20633433
-49.21778186
-56.64690579
4.020357801
4.814759395
1.582105966
-5.662329541
-6.556349629
-8.040569037
-15.03269581
-17.55676358
-17.31018913
-23.96091432
-28.0293711
-26.11159809
-32.33871534
-37.84282942
-34.33267402
-40.0396341
-46.85439673
3.071402668
3.772277866
1.161062375
-4.5151784
-5.371133715
-6.379283032
-11.86193175
-14.22086439
-13.64879667
-18.87136979
-22.65556026
-20.56208934
-25.46409043
-30.57437512
-27.03624192
-31.54494033
-37.86076851
2.222051625
2.850760287
0.8045762299
-3.408262383
-4.235141049
-4.792603439
-8.866511999
-11.09855029
-10.19531976
-14.08376405
-17.64945277
-15.34448107
-19.00645529
-23.81520656
-20.18329998
-23.56500055
-29.50987855
1.447573012
2.022287804
0.4970018077
-2.330168721
-3.136471265
-3.26021142
-5.999787591
-8.139492614
-6.894533921
-9.517807739
-12.92445966
-10.37035361
-12.85386198
-17.44383556
-13.65455385
-15.96299828
-21.63622502
0.727208645
1.263170609
0.2248195292
-1.270789821
-2.063919188
-1.763876575
-3.219926241
-5.298233557
-3.697019126
-5.101776783
-8.402395908
-5.560605494
-6.905308507
-11.3513998
-7.342018128
-8.6145256
-14.10830344
-0.05488855632
0.5547727358
-0.1185817259
-0.3035433893
-1.006758947
-0.3711160815
-0.5911563883
-2.532959894
-0.6689848695
-0.9120130812
-4.012509409
-0.9957638787
-1.254737922
-5.437752542
-1.344022896
-1.639088721
-6.800415508
-874.0533007
-866.389233
-815.2668374
-881.4915302
-974.4799325
-961.9825788
-1456.033165
-1471.662864
-1040.912688
219.2054824
473.6986321
-747.2760377
-586.8242513
-650.6269532
88.33771981
11.25787717
147.7752209
-622.3237576
-451.6534244
-207.5611079
-907.2810027
-552.3927641
-704.8545553
392.5123906
424.2638168
-1165.060358
-1180.805346
-934.429475
-1266.492795
-1280.803163
-1539.244059
-1533.232746
31.19262871
107.1626786
40.67895049
-188.6747135
-134.9061956
-49.52496479
-307.8091883
-520.5579769
-404.256499
-603.4940984
-540.2426077
-408.9015635
-856.6847866
-682.1795793
-732.824778
-1178.024146
-1128.956919
-1129.6083
-318.9761495
-382.1254549
-371.6641631
-552.610847
-536.6585719
-388.181
-1284.563191
-1282.927567
-1225.992163
-1259.961011
-1356.652867
-1385.035403
-1353.670079
-1354.813905
-1261.491113
-1448.196472
-1444.225286
-321.3975976
-226.6070085
-274.0420491
-213.2911959
-261.1507729
11.58047341
-117.424034
120.8396968
112.375598
306.2564778
-150.4086813
-30.63966275
1.240266206
-151.7014266
-83.01785486
-211.7739251
-1001.289061
-987.8358487
-899.0009792
-1169.095691
-1077.834847
-1087.191194
-1060.183191
-1068.421377
-1163.271066
-195.8956139
-99.45085834
-25.17491498
-292.3672552
-188.9493297
-280.5999604
98.07858527
-84.50397715
-196.5598102
418.0055299
535.780708
508.3499433
-1490.231305
-1492.565814
-1433.515194
178.150646
96.92336448
318.4806782
252.0356164
332.2271753
106.2089377
177.1477237
240.4285508
-1131.425744
-1129.314555
-1179.026267
-1015.074658
-1068.64173
-1056.91285
-1078.12123
-1074.091914
-1019.723391
-625.2960271
-613.3800782
-563.9220774
-736.3688193
-660.8857474
-679.7778234
-415.0800049
-397.5317986
-341.523027
-504.6505633
-449.8571474
-467.4583641
-1395.790116
-1345.543779
-1339.495751
-1191.573528
-1377.242572
-1448.232343
-1334.43555
-1359.039671
-1194.566396
-969.9533823
-917.7311481
-923.9158806
-902.3849459
-911.111946
-965.2911099
-805.6453481
-856.5457688
-845.1845662
-1433.169081
-1483.675134
-1487.676369
-1477.591945
-1480.312592
-1432.39878
-1528.227465
-1525.558326
-111.7873277
-164.8108679
-212.3951507
-187.9785783
-137.692263
-286.3535546
-235.2939244
-258.0822848
-935.6539661
-904.3446894
-872.6787744
-844.9406411
-820.8377169
-802.2547196
-674.6332587
-700.2095463
-789.9228177
-808.4566604
-858.4943338
-1018.016866
-948.5877612
-960.6840681
-1060.714472
-963.4718997
-956.4679672
-1020.070046
-924.086917
-911.3409047
-953.3317348
-807.7037747
-798.8957352
-852.0858264
-781.9535326
-764.9388656
-805.851286
-749.422031
-737.7828418
-769.3792142
293.6001429
175.8933795
141.1330835
-317.8833782
-407.1745199
-491.442462
-595.8807111
-637.6063885
-706.2850029
-716.6154136
-731.0596967
-782.4939474
-750.9105162
-751.8688164
-789.9069074
-684.4461288
-694.3507915
-746.2176098
-688.5081183
-681.1935848
-723.118451
-673.797778
-667.7322808
-701.9222359
223.3397097
125.6897012
125.3452445
-134.9083482
-209.8842231
-243.2758041
-390.0005281
-435.7978106
-476.3057424
-537.0218891
-560.2099844
-597.957902
-605.6172905
-614.3583178
-646.4154592
-575.198813
-596.609136
-644.2100543
-599.1054498
-599.8076492
-639.942949
-599.2264611
-598.2026566
-632.6479824
152.887625
93.27974947
104.3299838
-83.59078381
-138.0848034
-149.212317
-281.2447185
-321.1239613
-344.4244272
-415.3336401
-438.8895114
-465.3067748
-490.2470141
-501.934894
-527.7885065
-482.6349541
-509.9543213
-551.8537121
-517.9794163
-524.2401812
-561.1580308
-528.6673516
-531.5657252
-564.648739
90.9219567
50.21873905
60.55782482
-73.3179245
-112.8599089
-117.3550851
-220.5629195
-251.6465427
-266.2680844
-329.22518
-349.9252036
-370.0853806
-398.4330251
-411.1925855
-432.2201448
-404.8346098
-434.7189184
-470.8846087
-446.2944054
-456.1646848
-489.2551531
-463.8336803
-469.623293
-500.2650838
48.98384535
18.57299199
24.77059724
-70.49905926
-99.54796268
-102.5995449
-179.1047489
-202.6627091
-213.9371516
-263.6460867
-281.1328338
-296.617421
-326.3424668
-339.146484
-355.5117128
-341.4264247
-370.9997044
-401.4972955
-384.3209177
-396.1007217
-425.1425092
-405.6691882
-413.2356142
-440.9925054
28.97460484
5.941630406
7.292835368
-61.48416989
-82.97638383
-87.71820354
-143.815072
-162.6189846
-171.5717039
-214.0793444
-229.514061
-241.0573276
-270.6787129
-282.7400505
-295.6091443
-289.6477267
-317.3474421
-342.9962551
-331.3569606
-343.8097645
-369.0415871
-354.2355087
-362.7067521
-387.5039841
22.9748998
4.542647478
4.830720278
-49.72038477
-67.24797323
-70.68917635
-117.3732299
-133.1130925
-139.6831118
-176.970793
-190.402792
-199.2450889
-227.0205415
-238.0065948
-248.2748024
-247.0489038
-272.3647668
-293.8686262
-286.2484754
-298.5309437
-320.3652223
-309.0813472
-317.8169974
-339.8506394
18.37768944
3.267190393
3.574760569
-41.37577331
-55.86971632
-58.40831576
-97.65715384
-110.9165899
-115.9314202
-148.333128
-159.9583313
-166.9125605
-192.142159
-201.9586154
-210.2866529
-211.6934245
-234.6056801
-252.6712309
-247.7186545
-259.3507798
-278.2501103
-269.5571007
-278.1141072
-297.6261414
14.73367711
2.140982524
2.403443377
-35.10751428
-47.23589061
-49.19691786
-82.39387442
-93.62994337
-97.58437207
-125.6221682
-135.663969
-141.2638385
-163.7736199
-172.450261
-179.3077407
-182.0696189
-202.5668863
-217.9522007
-214.6025236
-225.378698
-241.7791018
-234.9634819
-243.0699392
-260.3182162
11.83136325
1.223112424
1.432995348
-30.16510109
-40.40363669
-41.97807882
-70.19143021
-79.75825469
-82.96526944
-107.1724702
-115.8410715
-120.4471329
-140.3050807
-147.9234498
-153.6563577
-156.9569116
-175.1355588
-188.3316224
-186.0056273
-195.8174287
-210.1040325
-204.62472
-212.1273268
-227.3811518
9.504021358
0.5063247903
0.667867326
-26.11646577
-34.81075161
-36.11450514
-60.16898292
-68.3413388
-71.00428935
-91.86764056
-99.34711971
-103.2064714
-120.5834892
-127.2405457
-132.1006265
-135.4376168
-151.4623916
-162.8754935
-161.1621802
-169.9743319
-182.4807093
-177.9374759
-184.7604878
-198.2737233
7.6274801
-0.03325839983
0.08649157772
-22.69850542
-30.10629051
-31.2132178
-51.75028314
-58.74290077
-60.99854048
-78.94061571
-85.38748941
-88.67395387
-103.7752655
-109.568037
-113.7409693
-116.8075381
-130.8636334
-140.8154835
-139.4352827
-147.261858
-158.269284
-154.3696325
-160.4881945
-172.4932098
6.108233404
-0.4222908915
-0.3377344535
-19.74228702
-26.06029692
-27.01951932
-44.54357193
-50.52584466
-52.46910809
-67.8481962
-73.3937422
-76.23253782
-89.26510498
-94.283967
-97.90878363
-100.5237021
-112.7958121
-121.5424969
-120.3045592
-127.1873546
-136.9307834
-133.461173
-138.8819869
-149.5853691
4.874518788
-0.6858867743
-0.6304705081
-17.13512639
-22.51655254
-23.36207276
-38.27450756
-43.38157358
-45.08057064
-58.19738419
-62.95119477
-65.43493339
-76.59240263
-80.91852329
-84.10151735
-86.1568793
-96.81995289
-104.5703233
-103.3401917
-109.3348389
-118.0145205
-114.813646
-119.5618859
-129.1498671
3.86980257
-0.8463886087
-0.8148274272
-14.79825441
-19.36407472
-20.12032005
-32.74312136
-37.08363423
-38.58878972
-49.69383225
-53.74702199
-55.94603831
-65.40169125
-69.10621025
-71.93045875
-73.36307643
-82.57687439
-89.50144944
-88.18406206
-93.3509618
-101.1362263
-98.08165434
-102.191901
-110.8287932
3.049244568
-0.9229758441
-0.9107591226
-12.67488253
-16.52169736
-17.20687693
-27.79997702
-31.46186174
-32.81170276
-42.11258088
-45.54067314
-47.50988487
-55.41402447
-58.55808831
-61.09031232
-61.85884275
-69.77067471
-76.01029622
-74.53636447
-78.93427762
-85.97021405
-82.9651085
-86.47529924
-94.30761272
2.376644063
-0.9319742607
-0.9352735913
-10.7220044
-13.92730738
-14.55555761
-23.32890014
-26.38342004
-27.60834721
-35.27571181
-38.1409419
-39.92431918
-46.40328994
-49.03774778
-51.33281997
-51.40196631
-58.17481775
-63.83031641
-62.14302844
-65.82252993
-72.23615817
-69.20012467
-72.14917825
-79.30622555
1.822544056
-0.8870026524
-0.9026513706
-8.906039752
-11.532083
-12.11454499
-19.23771557
-21.74267468
-22.86688324
-29.04096786
-31.39477683
-33.02737321
-38.18874386
-40.35673712
-42.45700212
-41.82488566
-47.57736628
-52.76822835
-50.7638439
-53.78264481
-59.68778347
-56.55054918
-58.97506152
-65.57935601
1.362429557
-0.7993655084
-0.8247338006
-7.199292247
-9.295666816
-9.841846389
-15.44989263
-17.45177885
-18.49600246
-23.28955996
-25.17433083
-26.68650011
-30.62098892
-32.36127129
-34.30360476
-32.96702334
-37.70550057
-42.57063221
-40.18893743
-42.60696031
-48.1036075
-44.80614623
-46.75160492
-52.89253321
0.9757903733
-0.678371366
-0.7113090847
-5.577934315
-7.183496165
-7.701598813
-11.89966141
-13.43501608
-14.41725906
-17.91755177
-19.36682706
-20.78567869
-23.56215104
-24.90534012
-26.72653284
-24.6304177
-28.39438975
-32.97989192
-30.27375318
-32.1098675
-37.28934362
-33.74941155
-35.21824766
-41.08135716
0.6455459232
-0.5314641041
-0.5702773122
-4.020833835
-5.165081014
-5.662456046
-8.52909756
-9.625569937
-10.5619024
-12.83218998
-13.8710535
-15.22092459
-16.88541372
-17.85294353
-19.58479161
-16.68960374
-19.55350641
-23.92559805
-20.85873994
-22.13751532
-27.07012519
-23.27465938
-24.26193603
-29.78900199
0.3573756255
-0.364570481
-0.4078592534
-2.508590575
-3.212619239
-3.695950313
-5.285771564
-5.963005841
-6.867904947
-7.949572697
-8.59549061
-9.89834817
-10.4777608
-11.08489752
-12.75636621
-9.017192336
-11.04071101
-15.24909309
-11.80494
-12.54051597
-17.29105177
-13.18610566
-13.85354803
-19.03793517
0.09314112209
-0.1882848848
-0.2290378938
-1.0268421
-1.303832814
-1.77538748
-2.125772639
-2.396551449
-3.278902725
-3.198214772
-3.461496825
-4.73261986
-4.238022463
-4.492523999
-6.126750872
-1.741715289
-3.217824552
-6.741615779
-3.502156146
-3.768148902
-7.724608136
-4.078895082
-4.463518703
-8.543489928
-1218.114693
-1207.345423
-1086.051332
304.8507376
402.0595396
437.5948239
-767.0411668
-720.3059925
-724.2702167
-969.8592678
-860.5317952
-890.7149587
-1436.294186
-1435.595763
-217.4136765
-289.896807
-240.3340164
-1232.786921
-1284.898134
-1284.217139
85.41004954
33.83959787
-1134.900929
-1132.553378
-1184.783843
-20.61619145
-78.44757093
-149.8889751
172.8666147
125.5097398
-1166.985415
-1278.882304
-1307.830817
-1216.697916
-1248.245937
-1149.744724
-1085.945836
-1153.028257
-1184.753051
-1092.530239
-1122.24846
-1062.95805
-995.6225426
-1037.456652
-1064.219555
-988.7556183
-1012.284852
-974.646669
-527.2650255
-612.3616526
-581.8248551
-669.9119689
-641.7506968
-560.3754135
-811.4589374
-725.5379274
-750.8780747
-594.7363689
-716.7838997
-649.0277902
-814.1287405
-772.6155383
-660.567721
-1040.910269
-899.6769292
-928.5148105
-783.2282662
-867.9878157
-845.5594099
-891.6905116
-882.9466609
-805.7989722
-1055.580881
-966.4922197
-967.0631704
-837.1500574
-895.1698694
-895.7284406
-886.2624608
-892.0177138
-839.0289555
-1004.283247
-947.1149963
-936.1387188
-829.4065034
-870.0479622
-878.8224827
-850.3232049
-860.4206725
-823.1066624
-936.4319526
-898.2815543
-885.1076693
212.3120172
198.19199
304.6701364
30.94323569
71.13705856
-22.16042438
-285.5699014
-339.2833237
-251.9773309
-478.1223937
-414.3245381
-358.8284389
-563.7244253
-482.1161469
-544.1944948
-523.2012378
-576.852134
-532.3153637
-642.6368341
-613.2919958
-561.7139784
-735.0917964
-670.835633
-696.8838173
-638.967056
-683.1401686
-665.6294356
-705.6018961
-696.279619
-654.5556935
-788.7393552
-741.0849995
-747.5511272
-679.9011518
-715.137102
-711.6777036
-716.1786476
-716.5378068
-683.2742217
-786.48241
-750.9718282
-748.5763031
283.7621213
305.3739316
114.0413724
121.6086647
208.4393758
-39.38754944
39.78877825
41.33727024
21.43918373
33.96065452
-53.29882992
-164.0692272
-183.8672937
-114.2118337
-305.305851
-247.7596229
-223.7725345
-313.916239
-277.4777668
-337.3717287
-370.7951769
-400.9266818
-356.2863541
-473.3641925
-439.8435454
-408.741206
-515.7742582
-475.31757
-508.9047147
-494.1490288
-525.6886552
-501.8357381
-561.3467283
-545.3733286
-514.2955638
-615.430362
-579.0270755
-594.0014475
-555.096391
-583.9232777
-574.0526277
-596.9011319
-591.3428304
-563.4170255
-651.3706933
-620.6691753
-625.0261986
189.8783062
211.7871578
71.32560742
82.23395167
135.7107409
-24.60655625
28.59578609
21.92854188
40.26270121
34.6839175
-24.77808454
-122.9504846
-129.6442594
-78.86631724
-221.7094741
-177.1472728
-166.967811
-204.6652511
-189.4402664
-237.2709253
-282.4309077
-300.567106
-262.9178304
-364.8300006
-334.5571417
-314.579275
-381.303574
-356.739273
-388.066714
-391.6203265
-414.4815628
-391.403569
-451.2678238
-434.3432316
-411.1151112
-485.5843032
-459.0229249
-476.0432177
-454.3443776
-477.5074966
-465.5284911
-496.6679145
-487.7622069
-465.0659494
-536.8477321
-511.6338253
-519.906903
115.1155568
131.2939047
32.17787129
40.70119524
78.46342994
-35.69712944
2.253052845
-3.21491868
15.17394456
8.383944397
-32.91915073
-105.7219357
-109.0681393
-72.94059098
-177.8709078
-144.3935418
-138.4383986
-158.3583227
-151.0740631
-186.9916133
-225.726882
-238.223299
-209.1670371
-289.3247037
-264.9548648
-250.7713315
-296.560348
-280.1306732
-305.9811811
-313.282503
-331.0500387
-311.3404744
-364.3101603
-348.5848452
-330.2772345
-389.0443269
-368.1770315
-384.1896027
-372.9116332
-391.4326058
-378.5502122
-413.5164474
-403.0431966
-384.6402638
-443.3219573
-422.5999985
-432.7922133
69.16212187
78.01771397
9.853366676
13.60579318
41.90306613
-42.06888193
-14.34671803
-16.16287954
-7.879424883
-11.59273552
-41.52529232
-92.30541984
-96.27594902
-69.16771016
-146.4391852
-121.8913361
-116.0144905
-133.0085572
-127.5239329
-153.9901618
-181.2968812
-191.7538334
-169.7892626
-231.6593891
-212.3404644
-200.9020724
-237.3704391
-224.5727295
-244.8495138
-253.4492899
-266.7744838
-249.7912972
-297.3891758
-282.6321612
-268.890717
-313.2354097
-297.3822549
-312.4376204
-309.2601689
-323.7502444
-311.0812183
-346.2216822
-335.4364543
-320.8411157
-367.2793261
-350.9007239
-361.6808383
48.64953253
51.75989459
5.08178156
5.406162201
27.07663767
-37.34082503
-16.12929389
-15.21314973
-16.74564456
-16.88226971
-39.51758446
-74.43452851
-78.52516306
-58.12402331
-117.7248407
-98.41970579
-93.34932719
-109.9002914
-103.9454339
-124.246149
-146.7515325
-154.3736675
-136.3928331
-188.1130722
-171.6241291
-163.2835621
-190.347181
-180.6183062
-197.7783623
-208.6729223
-218.7419226
-203.8219959
-246.2144277
-232.8710759
-222.3614136
-256.0669383
-244.0846685
-257.8007563
-259.1227031
-270.5950351
-258.7836036
-292.0364101
-281.6649042
-269.9803316
-307.045558
-294.0067298
-304.5119676
39.26388329
41.45416838
3.891337044
4.218407661
21.72273612
-30.40083471
-13.17409474
-12.65527065
-14.41804777
-13.75346615
-31.87468275
-61.13499798
-64.07305756
-47.38044582
-96.3872326
-80.42347727
-76.73566556
-88.69258815
-84.39786748
-101.1217383
-121.2785626
-126.992805
-111.9224368
-155.6221277
-141.5678374
-135.2613846
-155.5307916
-148.3092153
-162.9351138
-174.2793006
-182.0958341
-169.1360709
-206.3204822
-194.4921648
-186.2606162
-212.4964817
-203.222897
-215.4281072
-219.0485823
-228.2772057
-217.5808968
-248.0125572
-238.4145417
-228.9314735
-258.9020329
-248.3947716
-258.1904833
31.8534009
33.53647146
2.679270085
2.967900509
17.38692372
-25.59893908
-11.37828199
-11.02419357
-12.18734248
-11.76384528
-26.66143063
-51.2804095
-53.49964841
-39.65097246
-80.44894595
-67.10913563
-64.30132127
-73.30458408
-70.10327525
-84.04311946
-101.7688825
-106.2049604
-93.4897474
-130.5674981
-118.5711132
-113.6449521
-129.3496135
-123.7963141
-136.2744891
-147.1627874
-153.385317
-142.1767921
-174.559369
-164.1821512
-157.5865489
-178.488553
-171.139312
-181.8686177
-186.4956817
-194.0376949
-184.5121224
-211.814282
-203.1352229
-195.3340647
-219.9081214
-211.3196585
-220.2177626
26.04333848
27.37126897
1.655824777
1.891800244
13.94601262
-21.99911445
-10.10365654
-9.833087726
-10.6962716
-10.3904825
-22.81641077
-43.63610077
-45.3857034
-33.76839661
-68.07125399
-56.82714448
-54.60543661
-61.66194802
-59.1751941
-70.9020127
-86.33670259
-89.8864639
-79.09743605
-110.6838376
-100.4207228
-96.46262576
-108.9925719
-104.5912583
-115.260403
-125.2748725
-130.3410541
-120.6613332
-148.7672283
-139.7125227
-134.3175521
-151.3257126
-145.37511
-154.7470662
-159.6435487
-165.9022072
-157.4988072
-181.7193558
-173.9736061
-167.4683146
-187.8864329
-180.7747958
-188.7383002
21.4111124
22.47656273
0.8409085017
1.025853094
11.20104906
-19.13915615
-9.097330715
-8.871873963
-9.576438495
-9.331741363
-19.80103738
-37.47774744
-38.90551304
-29.08146425
-58.13371338
-48.5947082
-46.78036139
-52.49915142
-50.49853695
-60.4331433
-73.78836392
-76.70281016
-67.50775667
-94.50400382
-85.7057772
-82.44793751
-92.70052805
-89.11951852
-98.26170978
-107.2338578
-111.4409454
-103.0858127
-127.4353328
-119.5601154
-115.0652115
-129.1716895
-124.2578956
-132.4147551
-137.1592015
-142.428857
-135.0601255
-156.3875865
-149.5366691
-144.0393314
-161.2365921
-155.2660999
-162.3233127
17.66507787
18.53087386
0.2160565936
0.355859288
8.996723801
-16.76480484
-8.237978503
-8.037917419
-8.654149532
-8.443140197
-17.32233712
-32.36399406
-33.56194002
-25.21068677
-49.93347688
-41.80658619
-40.28623743
-45.04828667
-43.39224346
-51.84888561
-63.34580186
-65.79106076
-57.93177621
-81.05334538
-73.50149878
-70.76443367
-79.33449096
-76.35540578
-84.20078486
-92.09034715
-95.64502745
-88.43733015
-109.5007049
-102.6685152
-98.86199011
-110.7594923
-106.6309582
-113.7118157
-118.0710329
-122.5676346
-116.1355795
-134.8108692
-128.7918531
-124.0882395
-138.7562444
-133.6787685
-139.8884896
14.60025825
15.31146192
-0.2449774157
-0.1436102268
7.217291928
-14.72532927
-7.462337926
-7.277072779
-7.842310745
-7.650607467
-15.20963925
-28.01200752
-29.04017711
-21.92132894
-43.01136192
-36.07293898
-34.77154081
-38.82656981
-37.42340903
-44.64097631
-54.48321837
-56.57299898
-49.84734223
-69.66329894
-63.18083971
-60.84041601
-68.13653637
-65.61082161
-72.34599193
-79.17349653
-82.2231744
-76.01302628
-94.19871404
-88.28710934
-85.01641554
-95.20193573
-91.67966919
-97.81078649
-101.6594871
-105.5437616
-99.95262315
-116.2251986
-110.9673454
-106.896243
-119.5546354
-115.1849326
-120.616811
12.06817591
12.65781754
-0.568299153
-0.4990230119
5.775481489
-12.92674483
-6.736266565
-6.560099065
-7.094508675
-6.914327339
-13.35754734
-24.23342547
-25.13224423
-19.06131864
-37.05640783
-31.13267982
-29.999079
-33.51634634
-32.30428022
-38.46757066
-46.83533283
-48.64922398
-42.89726994
-59.86311929
-54.30648479
-52.27510852
-58.58465491
-56.40822436
-62.18440969
-68.00010562
-70.6513866
-65.31327152
-80.9697742
-75.87195465
-73.02584226
-81.86142945
-78.81527201
-84.10735393
-87.38634167
-90.7786026
-85.94016878
-100.0478165
-95.48069904
-91.92032033
-102.9621102
-99.16005674
-103.8849814
9.957825965
10.45089871
-0.777753694
-0.7348756848
4.603800308
-11.30801381
-6.041142185
-5.870869168
-6.38562758
-6.212687901
-11.69836424
-20.89707459
-21.69535594
-16.52810278
-31.8505958
-26.80444051
-25.80179043
-28.90121316
-27.83697823
-33.09131788
-40.13859494
-41.73522428
-36.8290834
-51.31225387
-46.56451056
-44.77721191
-50.31010125
-48.40772178
-53.34797991
-58.21085157
-60.54453812
-55.9737663
-69.39580408
-65.02001173