/*--------------------------------*- C++ -*----------------------------------*\
| =========                 |                                                 |
| \\      /  F ield         | OpenFOAM: The Open Source CFD Toolbox           |
|  \\    /   O peration     | Version:  v2012                                 |
|   \\  /    A nd           | Website:  www.openfoam.com                      |
|    \\/     M anipulation  |                                                 |
\*---------------------------------------------------------------------------*/
FoamFile
{
    version     2.0;
    format      ascii;
    class       surfaceScalarField;
    location    "1";
    object      phi;
}
// * * * * * * * * * * * * * * * * * * * * * * * * * * * * * * * * * * * * * //

dimensions      [0 3 -1 0 0 0 0];
oriented        oriented;


internalField   nonuniform List<scalar> 
5975
(
-0.05802196361
0.006417455697
0.05752200675
-0.01247727853
0.006559779698
0.01553819573
-0.1237263418
0.243808521
-0.0270704427
0.0151203578
-0.12367029
-0.2662219657
0.0241997557
0.2667135985
-0.02474988597
-0.2789514059
0.02171708137
0.2776420495
-0.02051548618
-0.269929972
0.01675485008
0.2684198613
-0.01534003517
0.01068223819
-0.2426166952
0.2409242986
-0.009011657374
-0.4652590581
0.01391824717
0.4633017653
-0.01196095434
-0.4621589913
0.01045348924
0.4607572979
-0.009051795733
-0.01245477677
0.9114825114
0.008307450859
0.007860720976
-0.008037743775
0.9053385327
-0.003959656391
0.9035209393
0.9025631026
-0.1114436032
0.008475926679
0.1113253327
-0.01657839152
0.008220735391
0.0261459374
-0.2369829289
0.2361732876
-0.02533916487
-0.2648002646
0.02277204257
0.2646588765
-0.02271612744
-0.2737787335
0.02132723257
0.2768997733
-0.02456748811
-0.2635633716
0.02136789811
0.2592773775
-0.01716352844
0.01044358133
-0.2339236696
0.2324719257
-0.008994936136
-0.4615915454
0.01475427718
0.4600651491
-0.0132278808
-0.4593439332
0.01173304527
0.4576886715
-0.01007778346
-0.01191198723
0.9069402632
0.008159453531
0.008294781915
-0.00873152212
0.9021580676
-0.004277718978
0.8990671362
0.8982853836
-0.2251158705
0.01752060975
0.2257001633
-0.01810490248
-0.2404568634
0.02408759108
0.2430138687
-0.02668097432
-0.2663545038
0.03047599173
0.2663226224
-0.03055443239
-0.2729963449
0.02796953332
0.2712434873
-0.02634815843
-0.2516188034
0.01995702585
0.2514699911
-0.01987459513
0.01112076274
-0.2312161824
0.2289159479
-0.008820528257
-0.4587169374
0.01646705431
0.4557006149
-0.0134507317
-0.4560045708
0.01207045757
0.4540644616
-0.01013034833
-0.01229634651
0.9024877322
0.008452081586
0.008296795968
-0.008784649705
0.8986463708
-0.004481756819
0.8947642433
0.8938036268
-0.2326041809
0.03210485234
0.2345048568
-0.0340252809
-0.2495654047
0.03983215578
0.2508619951
-0.0411951708
-0.2651372834
0.04187166204
0.2639944926
-0.0408389981
-0.2638974087
0.03423156
0.2606295013
-0.03106897546
-0.2415638958
0.01989210758
0.2375473411
-0.01591280208
0.0106218314
-0.227070006
0.226495147
-0.01004697241
-0.4550624509
0.0168595807
0.4524687202
-0.01426585006
-0.4512950211
0.01095553325
0.4497896328
-0.00945014493
-0.01149600482
0.8965628444
0.00897750857
0.008443384083
-0.006381017316
0.8935313833
-0.004536378028
0.8929196041
0.8892672488
-0.237373984
0.05515664329
0.2374903544
-0.05530268127
-0.2511742499
0.0543438175
0.2500247163
-0.05326315636
-0.2574047077
0.04696259157
0.2541314896
-0.04377582918
-0.2482866145
0.03142579133
0.2434258385
-0.02662421894
-0.2258451667
0.01207874122
0.2251073238
-0.0113411828
0.00986973321
-0.2249459745
0.2244713761
-0.009395134834
-0.4488735953
0.01598492097
0.4472255414
-0.01433686704
-0.4482918709
0.01276252334
0.4467684295
-0.0112390819
-0.01069063208
0.8897440652
0.009649707311
0.007859703946
-0.005990207789
0.888830959
-0.004172882692
0.891102279
0.8850943661
-0.235881541
0.05680556423
0.2348488543
-0.05579758566
-0.2434753753
0.04994614251
0.2404951006
-0.04701152374
-0.2416990654
0.0353931824
0.2369677905
-0.03070266496
-0.2275301565
0.01508669407
0.2241680026
-0.0117289721
-0.2237749087
0.01055754484
0.2233862947
-0.01016893088
0.009004390738
-0.2232014623
0.2228140258
-0.008616954225
-0.4456895797
0.01483482664
0.4442639132
-0.01340916016
-0.4453554367
0.01201869022
0.4439865271
-0.01064978064
-0.01353788156
0.8848537463
0.009104938367
0.009323262077
-0.00889338432
0.8841864618
-0.001588703255
0.8837975979
0.8835056629
-0.2309832052
0.03023746917
0.2296159799
-0.02887878508
-0.2304503347
0.02163307299
0.2270893101
-0.0182804149
-0.2244210857
0.01137848524
0.2242196724
-0.01117707187
-0.2232282221
0.01046488065
0.2229615985
-0.01019825703
-0.2223601104
0.009337913269
0.2220590532
-0.009036855999
0.008111585007
-0.2217811627
0.2214641559
-0.00779457829
-0.442944052
0.0135561457
0.4417255605
-0.01233765418
-0.4427293648
0.01112649208
0.4415178902
-0.009915017407
-0.01270675114
0.8803802789
0.008456428454
0.008723790126
-0.008386248288
0.879865959
-0.004163783828
0.8795751335
0.879341879
-0.2279738281
0.01030760602
0.2279785016
-0.01031227959
-0.2256266273
0.01019646461
0.2255473001
-0.01011713743
-0.2237017456
0.009770903973
0.2235531223
-0.009622280659
-0.2222664731
0.009090762977
0.2220645626
-0.008888852499
-0.2212588839
0.008225390982
0.2210223131
-0.00798882011
0.007246727844
-0.2206223373
0.2203611655
-0.006985556068
-0.4406009895
0.01225789184
0.4395638434
-0.01122074568
-0.4404118896
0.01017300433
0.4393482249
-0.009109339607
-0.01176548125
0.8763368179
0.007761424025
0.008047518218
-0.007798903629
0.8758993814
-0.003881875423
0.8756581053
0.8754600036
-0.2279815525
0.008861528711
0.22797909
-0.008859066188
-0.2253381596
0.008762144587
0.2252763925
-0.008700377526
-0.2231640579
0.008434898551
0.2230504118
-0.008321252361
-0.221531437
0.007912349275
0.2213746298
-0.007755542048
-0.2203887656
0.007233541483
0.220199995
-0.007044770953
0.006443045284
-0.219671324
0.219454919
-0.006226640321
-0.4386066086
0.01100849951
0.4377226159
-0.01012450681
-0.4383809756
0.009219821794
0.4374505411
-0.00828938737
-0.0107823397
0.8727108456
0.007060794007
0.00734751795
-0.007174510366
0.872291552
-0.003578967869
0.8720625628
0.8718810357
-0.2279634775
0.007666355604
0.227955976
-0.007658854067
-0.2251098897
0.007573563454
0.2250597622
-0.007523435913
-0.2227482383
0.007312589999
0.2226586675
-0.007223019198
-0.2209559583
0.006900259192
0.2208315121
-0.006775812976
-0.2196907872
0.006357723231
0.2195380068
-0.006204942817
0.00571208521
-0.2188862
0.2187066194
-0.005532504607
-0.436905052
0.009839813041
0.4361490521
-0.009083813203
-0.4366065009
0.008302177584
0.4357936972
-0.007489373869
-0.009804036706
0.8694756782
0.006382189301
0.0066570148
-0.006545045799
0.8690325611
-0.003271340066
0.8687888571
0.8686096957
-0.2279282235
0.006667014582
0.2279175433
-0.006656334402
-0.2249225857
0.00657967288
0.2248807492
-0.006537836363
-0.2224173963
0.006365790654
0.2223450142
-0.006293408618
-0.2204959784
0.006032986521
0.2203953158
-0.005932324006
-0.2191229762
0.005591957258
0.2189976067
-0.005466587805
0.005058244913
-0.2182333894
0.2180828818
-0.004907737234
-0.4354490483
0.00877021589
0.4348007133
-0.008121880916
-0.4350571639
0.007445118426
0.4343467494
-0.00673470393
-0.00886526203
0.8665975887
0.005743150569
0.006000201018
-0.005934990934
0.86610229
-0.002971546532
0.8658254127
0.8656381491
-0.2278822805
0.005823445103
0.2278696557
-0.00581082032
-0.224765101
0.00574114738
0.2247295022
-0.005705548549
-0.2221480723
0.005562297288
0.2220884178
-0.005502642747
-0.2201216974
0.005288692219
0.2200389475
-0.005205942291
-0.2186549523
0.004924895054
0.2185508016
-0.004820744352
0.004478839163
-0.2176854097
0.2175581567
-0.004351586137
-0.4341991705
0.007805260326
0.4336407992
-0.007246889069
-0.4337033234
0.006659188621
0.4330814858
-0.006037351065
-0.007986222927
0.864040642
0.005153890482
0.005389279142
-0.005359260163
0.8634753273
-0.002687359023
0.8631535115
0.8629507901
-0.2278298586
0.005104871286
0.2278160783
-0.005091090952
-0.2246303983
0.005027310905
0.2245996824
-0.004996595
-0.2219248669
0.00487551152
0.2218749536
-0.004825598223
-0.2198125484
0.004647294867
0.2197436231
-0.004578369502
-0.2182647016
0.004343563833
0.218177278
-0.004256140229
0.003967263812
-0.2172214728
0.2171130686
-0.003858859586
-0.4331214968
0.00694457661
0.432638298
-0.006461377816
-0.4325182443
0.005949225395
0.4319726903
-0.005403671379
-0.00717944262
0.8617688294
0.004619930279
0.004831324879
-0.004827536296
0.8611234209
-0.002423941866
0.8607499171
0.8605268483
-0.227773658
0.004490919035
0.2277592485
-0.004476509592
-0.2245136763
0.00441781481
0.2244868856
-0.004391024177
-0.2217372282
0.004287460086
0.2216949559
-0.004245187757
-0.2195539424
0.004094831527
0.2194958907
-0.004036779843
-0.2179359738
0.003838611116
0.2178619185
-0.003764555862
0.003518494197
-0.2168256185
0.2167326358
-0.003425511478
-0.4321877266
0.006183960654
0.4317674659
-0.005763699947
-0.4314782161
0.005315597735
0.4309981395
-0.004835521113
-0.006449509665
0.859748117
0.004141147072
0.004329074967
-0.004344050774
0.8590179621
-0.002183715641
0.858589582
0.8583431326
-0.2277155041
0.003967941905
0.2277008135
-0.003953251316
-0.2244114991
0.003898974377
0.2243879089
-0.003875384166
-0.2215776668
0.00378588547
0.2215414817
-0.003749700308
-0.2193352924
0.003621563415
0.219285898
-0.003572169101
-0.217656587
0.003403319976
0.2175933009
-0.003340033824
0.003128747853
-0.2164854558
0.2164051397
-0.003048431776
-0.4313745896
0.005517484637
0.4310071048
-0.005149999893
-0.4305626252
0.004756150839
0.4301385663
-0.004332091922
-0.00579926757
0.857946313
0.003718445287
0.003882626308
-0.003911652255
0.8571303467
-0.001968367373
0.8566462971
0.8563747653
-0.2276565981
0.003523223769
0.2276418492
-0.003508474824
-0.2243212417
0.003458028366
0.2243002837
-0.003437070408
-0.2214406069
0.003358994994
0.2214093311
-0.003327719212
-0.2191486196
0.003217454798
0.2191061911
-0.003175026325
-0.2174171085
0.003029852708
0.2173625622
-0.002975306416
0.002792435542
-0.2161910716
0.2161212054
-0.002722569249
-0.4306625823
0.004938395286
0.4303393644
-0.004615177382
-0.4297533156
0.004267201214
0.4293770006
-0.003890886158
-0.005227126997
0.8563338082
0.00334925818
0.003490373617
-0.003530008398
0.8554332281
-0.001777938635
0.8548942273
0.8545968266
-0.2275976939
0.003145345272
0.2275830205
-0.003130671844
-0.224240815
0.003083524607
0.2242220332
-0.00306474277
-0.2213217703
0.00299602188
0.2212944919
-0.002968743421
-0.2189877738
0.002872990273
0.2189509991
-0.002836215588
-0.2172101118
0.002710304423
0.2171627027
-0.002662895405
0.002503353783
-0.2159344441
0.2158732305
-0.002442140196
-0.4300353768
0.004439961088
0.4297492316
-0.004153815904
-0.4290344601
0.003844483162
0.4286986098
-0.003508632894
-0.00473037429
0.8548834318
0.003030917542
0.003149833147
-0.003197846015
0.8539006998
-0.00161195474
0.8533083361
0.8529848719
-0.2275392098
0.00282739048
0.2275246832
-0.00281286381
-0.2241684906
0.002768510725
0.2241514979
-0.002751517946
-0.2212177577
0.002690439534
0.2211937313
-0.002666413138
-0.2188478716
0.002582436655
0.218815683
-0.002550248068
-0.2170295962
0.002439990171
0.216988003
-0.002398396995
0.002257910647
-0.2157088621
0.2156547197
-0.002203768217
-0.4294791515
0.004016352198
0.4292238952
-0.003761095948
-0.4283921322
0.003484039466
0.4280902694
-0.003182176722
-0.004305701815
0.8535699792
0.002760561781
0.002858592562
-0.002913356963
0.852508355
-0.001469626927
0.851864606
0.851515245
-0.2274813845
0.002562395737
0.2274670535
-0.002548064775
-0.2241028092
0.002506068686
0.22408728
-0.00249053953
-0.2211257833
0.002435678111
0.2211043932
-0.00241428802
-0.2187249331
0.002339839231
0.2186964546
-0.002311360795
-0.2168706477
0.002213804655
0.2168337987
-0.002176955625
0.002052195319
-0.2155086541
0.2154607038
-0.002004244997
-0.4289817141
0.003661172819
0.4287514886
-0.003430947298
-0.4278139035
0.003180507879
0.4275402021
-0.002906806483
-0.003948587653
0.8523710771
0.002535132144
0.00261235763
-0.002673828662
0.851233596
-0.001349719003
0.8505404964
0.8501655259
-0.2274243708
0.002346533817
0.2274102521
-0.002332415091
-0.2240425267
0.002292345374
0.2240281673
-0.002277985905
-0.2210435146
0.002228078215
0.2210242208
-0.002208784365
-0.2186156468
0.002141899352
0.2185901135
-0.002116366048
-0.2167292088
0.002028919067
0.2166961537
-0.001995863951
0.001883812547
-0.2153296879
0.2152869546
-0.001841079206
-0.4285317952
0.003370065522
0.4283217568
-0.003160027124
-0.4272885997
0.002931178129
0.4270379469
-0.002680525374
-0.003655812364
0.8512638937
0.00235254844
0.00241044732
-0.002477376118
0.8500551597
-0.001251261482
0.8493143817
0.8489142645
-0.2273682041
0.002175634149
0.2273542888
-0.002161718839
-0.2239865166
0.002123144262
0.223973056
-0.002109683658
-0.2209689033
0.002063595351
0.2209512263
-0.002045918357
-0.2185171097
0.001984860538
0.2184938434
-0.001961594327
-0.2166016108
0.001881924406
0.2165714681
-0.001851781723
0.001749321161
-0.2151677876
0.215128504
-0.001710037549
-0.4281204437
0.003137127608
0.4279269826
-0.002943666587
-0.4268061147
0.002731856613
0.4265728579
-0.002498599858
-0.003424550432
0.8502360431
0.002208008805
0.002244392126
-0.002322371685
0.848952981
-0.001173831264
0.8481658413
0.8477404332
-0.2273128375
0.002045513697
0.2272991091
-0.002031785339
-0.2239337324
0.001994297461
0.2239209222
-0.001981487169
-0.2209001169
0.001938196262
0.2208836294
-0.001921708749
-0.2184267416
0.001864943149
0.2184051476
-0.001843349119
-0.2164845242
0.001769435439
0.2164565487
-0.001741459998
0.00164622517
-0.2150182648
0.2149816797
-0.001609640117
-0.4277400677
0.002960598742
0.4275589439
-0.002779474976
-0.4263568287
0.002581107803
0.4261390035
-0.002363282607
-0.003250461553
0.8492562134
0.002104276571
0.002126014674
-0.002204955234
0.8479074746
-0.001114514735
0.8470754008
0.8466259185
-0.2272581724
0.001953855887
0.2272446018
-0.00194028534
-0.2238831841
0.001903477647
0.2238707874
-0.001891080985
-0.2208354762
0.001849628922
0.2208197817
-0.001833934422
-0.2183422229
0.001780050688
0.2183217585
-0.001759586253
-0.2163750671
0.001689596103
0.2163485849
-0.001663113927
0.001572915706
-0.2148781352
0.2148434215
-0.00153820203
-0.4273823857
0.002837193833
0.4272097769
-0.002664584998
-0.4259344315
0.002475236446
0.4257260708
-0.002266875743
-0.003141075911
0.8483190609
0.002026812155
0.002051416197
-0.002132078468
0.8468984772
-0.001080631838
0.8460239541
0.8455452866
-0.2272040634
0.001899866652
0.2271906039
-0.001886407144
-0.2238339286
0.001849857564
0.2238217071
-0.001837636005
-0.2207734206
0.00179707483
0.220758135
-0.001781789205
-0.2182614285
0.001729437818
0.2182415757
-0.001709584972
-0.216270582
0.001641748384
0.2162449312
-0.001616097574
0.001528763201
-0.2147444152
0.2147109674
-0.001495315421
-0.4270402664
0.002765050701
0.4268733764
-0.002598160783
-0.4255306904
0.002415485853
0.4253340589
-0.002218854375
-0.003054176397
0.001952502163
0.002008803648
-0.002069847376
-0.001042682593
-0.006644089837
0.02888959872
-0.02904135366
0.006795844777
0.006659566799
-0.01281451297
-0.05851110728
0.1231804461
-0.01606706308
-0.1242783527
0.01716496972
-0.009018885595
0.0549696798
-0.05494638632
0.008995592109
0.006646190806
0.02866086361
-0.01800063884
0.001061079745
-0.05174421465
-0.05177871507
0.2313668565
-0.02197949248
0.01340619251
0.01302550211
-0.1180860855
-0.1177329731
0.01656446006
0.1221541818
-0.009720307105
0.1116024746
-0.1112465188
0.009364351245
0.008541331415
0.05490427507
0.1216455474
-0.02067142108
-0.1228994453
0.01087114411
0.01105417481
-0.05376378293
-0.009534330796
0.009894914668
0.05340319906
-0.009838325542
-0.0542303198
0.01030486241
0.05492082666
-0.009536567264
-0.05522258493
0.1183495902
-0.01726105005
-0.1187503933
0.0176618531
-0.01993588914
0.1204367032
0.0104777945
0.01066693887
-0.0304155819
-0.007206757395
0.007563932978
0.03005840632
0.0554278551
-0.01177322534
-0.0558874235
0.006088786451
0.006144007292
-0.007262323798
-0.03070910851
0.007555850406
0.03028368747
-0.007047015753
-0.03049899551
0.06114000286
-0.01235436268
-0.0615437755
0.01275813532
-0.01145338649
0.01181032009
0.05507092151
-0.02059694478
0.01021717889
-0.1119987904
-0.1124576214
-0.02239635197
0.2334940906
-0.2312509974
0.02014620035
0.2331325051
0.01380887828
0.01057141051
0.05950496524
-0.01158165714
-0.05990521595
0.01198190785
-0.01221823064
0.01263837543
0.06071985807
0.03005490204
-0.006977971969
0.1152576541
-0.01154896254
-0.1153056753
0.01159698378
-0.01639737918
0.0163228292
0.1184241402
0.05449549013
-0.00910899427
-0.01289745392
0.110346373
-0.1100247485
0.01257582941
0.01765039666
-0.01716836806
-0.0004820286018
0.03049840961
-0.007296758689
-0.03071703966
0.007515388744
0.04886217467
-0.008625088358
-0.04909733124
0.05170459075
-0.008017172508
-0.05246378656
0.008776368322
0.006963080734
-0.02613492254
0.02722203986
-0.008050198047
0.00642622245
0.02807847088
-0.006998028201
-0.02750666513
0.02943721772
-0.006954045554
-0.02950151993
0.007018347764
0.02603464191
-0.02447072398
0.004862304522
-0.01778814405
0.02513580512
-0.0003845803411
0.0276752761
-0.007582008042
-0.027707577
0.007614308939
-0.005733384682
0.003974291227
0.02779373537
0.02910228129
-0.006332081072
-0.02235338382
0.02724554583
-0.006904540395
-0.0273095487
0.006968543267
-0.007411544427
0.007352378095
0.02773444243
0.02729824922
-0.006245700592
-0.02735778788
0.006305239255
-0.006699467738
0.006752700771
0.0271923128
0.02188167381
-0.006551711471
-0.01736074153
-0.0004274025198
-0.007162430993
0.007130770328
0.03053007027
0.02319314316
-0.005257674008
-0.0002850724904
-0.008623649087
-0.03487201498
-0.0151434934
-0.1246499114
-0.02318139942
0.2602607728
-0.261100624
0.02398912427
-0.006723878972
0.006907011538
0.02925408515
0.02896140533
-0.006616319128
0.02859027137
-0.007284474646
-0.02888780476
-0.006149766747
0.004432113429
0.02966488127
-0.00693160084
0.03056561335
0.03075938451
-0.00714794359
-0.03090819961
0.03074687213
-0.006760489323
-0.03084005909
0.006853676285
-0.01662584364
0.02346469518
-0.006469904016
-0.0003689475168
-0.01605606034
-0.0005697833014
-0.0152866542
0.0158651254
-0.03070222085
0.02315153136
-0.007735964712
-0.006861672457
-0.0003758532129
-0.005985035847
0.02661002802
-0.02671279263
0.006087800457
-0.006126227297
0.006381370502
0.02704310602
0.02840301977
-0.0002038963194
-0.03544529501
0.02629908824
-0.008022161284
-0.0068052351
-0.0002370401462
0.01598276
-0.03273289224
-0.007720591738
0.01646816299
-0.0004854029935
0.02164258424
-0.0003121167248
-0.007239011996
-0.0003580751197
0.008046806441
-0.02817719802
-0.007577185417
0.02460635614
-0.03261561004
0.02575076106
0.02592502779
-0.0003081523208
-0.00631009482
-0.0003804874277
-0.006693557473
-0.02431016332
0.02475411341
-0.006776031161
0.006058383179
-0.007217015137
-0.005497067651
0.02340714952
-0.02489793105
0.02552666132
-0.006125797915
-0.006695529112
-0.004244534983
0.02778971655
-0.0003520384036
-0.02775261511
0.02953682948
-0.006028749345
-0.006711200884
-0.0298243936
-0.007976093877
0.02917683839
0.006748453655
-0.007036017782
-0.0003338447775
-0.02210111272
-0.2673546657
-0.01904154869
0.2781900371
-0.2791857188
0.01993727531
-0.02034295514
-0.2777520106
-0.01842090054
0.2744617881
-0.2756081398
0.01946712363
-0.01722729643
-0.2712140859
0.250747502
-0.01179634257
-0.2529844313
0.01399020463
0.05639112329
-0.01144062969
-0.05672371894
0.05809531006
-0.01045133124
-0.05849640197
0.01085242315
-0.01133267647
0.01170423016
0.05913341156
-0.02064033635
-0.2383225175
-0.02142934193
0.258390618
-0.2607992721
0.02377573533
0.02363775385
0.2607831915
-0.02241462803
-0.263894514
-0.02535664502
0.2760788826
-0.2760524535
0.02521546089
0.02273390667
0.2770731704
-0.0219618399
-0.2772877862
-0.01760257106
0.2684432028
-0.2701153364
0.01916824801
0.01833634231
0.2727751304
-0.01600975744
-0.2652488145
0.2414660009
-0.01149036809
-0.2442285029
0.01422478006
0.01243155089
0.2489542666
0.1115358025
-0.01302455634
-0.1114087
0.1139767587
-0.01292950871
-0.114130948
0.01308369795
-0.01544623651
0.01588446482
0.1148194258
-0.02475351664
-0.2381258609
-0.02794381244
0.2610274623
-0.2606175688
0.02744347277
0.02253434478
0.2585625402
-0.02797108594
-0.2664353921
-0.02575007321
0.2738256554
-0.2750386691
0.02682702671
0.0221549726
0.2751268529
-0.02773715981
-0.2711357341
-0.02457604595
0.2607880213
-0.2627773492
0.02647468299
0.02283203152
0.2668798362
-0.01727852973
-0.2589851666
0.2313795723
-0.009424293629
-0.233614919
0.01165304007
0.01271176171
0.2391726965
-0.02525342785
0.2288526586
-0.2267698626
0.2232688611
-0.1105961857
-0.02768574435
-0.2301861655
-0.03516260943
0.2448197896
-0.242542302
0.03283805328
0.02083664922
0.236727068
-0.03703981109
-0.2477494558
-0.03912272277
0.2623250815
-0.2623706127
0.03906612612
0.02983782481
0.2615711691
-0.03853339978
-0.2658386317
-0.03324410039
0.266300105
-0.2687124727
0.03553662123
0.029247542
0.2724139945
-0.03051871041
-0.2667365523
-0.02056346789
0.2487367516
-0.252335945
0.02409306345
0.02228941572
0.2583614122
-0.01693696579
-0.2452381708
0.2272952771
-0.01077555632
-0.2279143463
0.01139462544
0.01311938678
0.2293792895
-0.05077144198
0.2337414364
-0.2330583792
0.2306007875
-0.0513135295
-0.2368606187
-0.05195761457
0.2480353399
-0.2481493258
0.05201063754
0.03802883605
0.2465698261
-0.05148614173
-0.2517166686
-0.0469559472
0.2570379304
-0.2592105541
0.04903629582
0.04226710054
0.2618274668
-0.0443059551
-0.260149494
-0.03331777118
0.2522113214
-0.2564029734
0.03742629005
0.03696467502
0.2634542625
-0.02887285027
-0.2528039108
-0.01452692037
0.2309579444
-0.2358236321
0.01937042848
0.02380679883
0.244762967
-0.01163259216
-0.2287432464
0.2251011784
-0.01007346276
-0.2256077724
0.01058005684
0.01121263159
0.2267044769
-0.05909578015
0.2333878805
-0.2338454187
0.234074008
-0.05830572425
-0.2366987982
-0.05338554505
0.242218694
-0.2443631984
0.0554814746
0.05498186238
0.2473372183
-0.05080323805
-0.2461110773
-0.04013270193
0.2432607372
-0.2473412627
0.04415633908
0.04961103682
0.2543039145
-0.03568345171
-0.2462019082
-0.02045157155
0.2321863856
-0.2375241581
0.02576043098
0.03594223146
0.2476241042
-0.0150411146
-0.2329566994
-0.01087877014
0.2239434306
-0.2243568993
0.01129223877
0.01657483386
0.2264524726
-0.01046368616
-0.2241899927
0.2233256179
-0.009228887456
-0.2237337133
0.009636982907
0.01035048587
0.2246204257
-0.03920787159
0.2304355064
-0.2312565926
0.2327729347
-0.03785819945
-0.2323461238
-0.03059488756
0.2311671822
-0.2341316181
0.03354077582
0.05238211651
0.2397404915
-0.02719605798
-0.2338672208
-0.01475358447
0.2253767672
-0.2298099084
0.01917887704
0.0397031723
0.2389055979
-0.01191171984
-0.2272671446
-0.01084229775
0.2234942357
-0.2237677225
0.01111578454
0.02046172238
0.2267970977
-0.01055524023
-0.2235152796
-0.009634127353
0.2225458886
-0.2228609006
0.009949139293
0.01094323383
0.2235577417
-0.009313615004
-0.2226806228
0.2218993636
-0.008334735664
-0.2222270911
0.008662463139
0.009390945007
0.2229390636
-0.01071588493
0.2286148985
-0.2285912903
0.2296194406
-0.0107223831
-0.2279673299
-0.01059987089
0.2261753783
-0.2262394136
0.01066390625
0.02454640775
0.228243876
-0.0105146979
-0.2257118003
-0.01014240196
0.2241396256
-0.2242822642
0.01028504055
0.01215189047
0.2246023389
-0.009982642094
-0.2238615055
-0.009412646939
0.2225831179
-0.2227869373
0.00961646634
0.01071825335
0.223240863
-0.009196793894
-0.2224823262
-0.008490340708
0.2214705818
-0.2217145726
0.008734331498
0.009632956274
0.2222508456
-0.00823950304
-0.2215097216
0.220749468
-0.007456890521
-0.2210142661
0.00772168868
0.008422662906
0.2215882857
-0.009194246604
0.2286761745
-0.228666073
0.228635576
-0.009193399298
-0.2279823998
-0.009092796688
0.2259566168
-0.2260066041
0.009142783974
0.01025630801
0.2261155349
-0.00902735965
-0.2254035966
-0.008744760829
0.2236600049
-0.2237680408
0.008852796705
0.009903518848
0.2240070107
-0.008623630706
-0.2232851881
-0.008188253166
0.2218917208
-0.2220481203
0.008344652736
0.009281085566
0.2223927953
-0.008021618074
-0.2216980721
-0.007468478832
0.2206284334
-0.2208208582
0.007660903568
0.00845499729
0.2212409755
-0.007269078855
-0.2205881656
0.2198149045
-0.006636333658
-0.2200307853
0.006852214463
0.007498844594
0.2204973512
-0.007946428164
0.2286907417
-0.2286904099
0.2286833974
-0.007939986003
-0.2279699197
-0.007852144992
0.2257796416
-0.2258208651
0.0078933685
0.008809612097
0.2259091493
-0.007799483413
-0.2251625513
-0.007576728279
0.223288797
-0.2233735347
0.007661465926
0.008536283293
0.2235586202
-0.007481890327
-0.2228430763
-0.007140158611
0.2213529432
-0.2214760037
0.007263219072
0.008059355178
0.2217447149
-0.007008534351
-0.2210875826
-0.006567212885
0.2199574111
-0.2201117468
0.006721548641
0.007415402675
0.2204465722
-0.006406325023
-0.2198516751
0.219048938
-0.00588926484
-0.2192264311
0.006066757917
0.006649151654
0.2196087982
-0.006902676799
0.2286760166
-0.2286817533
0.22868928
-0.006892651188
-0.2279382491
-0.006813996869
0.2256308164
-0.2256658552
0.006849035659
0.007613046798
0.2257401582
-0.006770305397
-0.2249662772
-0.006589623927
0.2229926173
-0.2230609333
0.006657939878
0.007392679804
0.2232087072
-0.006513417559
-0.2224936026
-0.006239076244
0.2209235326
-0.2210224096
0.00633795325
0.007016527104
0.2212366753
-0.006133077276
-0.2206019773
-0.005775167184
0.2194143079
-0.2195399604
0.005900819694
0.006504093118
0.2198110412
-0.005643575481
-0.2192545679
0.2184154981
-0.005216393344
-0.2185628565
0.005363751708
0.005881894926
0.2188791283
-0.006020511182
0.2286429342
-0.2286525105
0.228669154
-0.006008286919
-0.2278945048
-0.005936997366
0.2255027577
-0.2255331045
0.005967344161
0.006613417985
0.2255970713
-0.005899993562
-0.2248021048
-0.005750294125
0.2227506103
-0.2228068579
0.005806541717
0.00643073931
0.2229276686
-0.005687794336
-0.2222105721
-0.005463438971
0.2205746716
-0.2206555199
0.005544287311
0.006126850005
0.2208296691
-0.005376666612
-0.2202084698
-0.005082241203
0.218968426
-0.2190720898
0.005185904925
0.00571154728
0.2192947178
-0.004973286026
-0.2187639075
0.2178863647
-0.004616693633
-0.2180098716
0.004740200563
0.00519961744
0.2182741256
-0.005272664645
0.2285981018
-0.228610153
0.2286326327
-0.005259119544
-0.2278434037
-0.005193967866
0.2253908593
-0.2254175072
0.005220615799
0.005770497633
0.2254734075
-0.005162141469
-0.2246622247
-0.00503604549
0.2225492348
-0.2225963234
0.005083134132
0.00561603841
0.2226968692
-0.00498393492
-0.2219769775
-0.004797588347
0.2202867181
-0.2203538199
0.004864690175
0.005365779943
0.2204975838
-0.004725538517
-0.2198845983
-0.004480249181
0.2185977978
-0.2186843473
0.004566798661
0.005023908053
0.218869413
-0.004389022669
-0.2183559281
0.2174402553
-0.004088429116
-0.2175447241
0.004192897886
0.004597689506
0.2177675144
-0.004636216685
0.2285457005
-0.228559338
0.2285855809
-0.004621923139
-0.2277879515
-0.004562012457
0.2252919438
-0.2253155936
0.004585662334
0.005053157218
0.225365013
-0.004534310834
-0.2245413779
-0.004426709412
0.2223792591
-0.222419204
0.004466654343
0.004920660344
0.222504086
-0.004382682248
-0.2217812554
-0.004225912167
0.2200458759
-0.2201022678
0.004282304076
0.004711484771
0.2202225282
-0.004165363193
-0.2196144913
-0.003958760841
0.2182863766
-0.2183593935
0.004031777654
0.004426451558
0.2185149101
-0.0038816219
-0.2180131127
0.2170609624
-0.003625994541
-0.2171500636
0.00371509571
0.004068025445
0.2173394937
-0.004091944726
0.228488578
-0.2285031842
0.2285317753
-0.004077295637
-0.2277301532
-0.004021957266
0.2252037122
-0.225224876
0.004043121088
0.004440794254
0.2252689643
-0.003997619047
-0.2244358374
-0.003904854078
0.2222341437
-0.2222683855
0.003939095869
0.004325850753
0.2223408684
-0.003867260172
-0.2216152607
-0.00373398694
0.2198422044
-0.2198900858
0.003781868328
0.004148900326
0.2199918071
-0.003682591058
-0.2193866882
-0.003506952322
0.2180222367
-0.2180843873
0.003569102978
0.003908671406
0.2182163164
-0.003441169006
-0.2177223704
0.2167360253
-0.003222101558
-0.2168125772
0.003298653398
0.003604573718
0.2169748829
-0.003627948675
0.2284286776
-0.2284438343
0.2284738046
-0.003613197907
-0.2276713489
-0.003561842422
0.2251243711
-0.2251434595
0.003580930886
0.003919579121
0.2251831075
-0.003540271643
-0.2243428124
-0.003459548402
0.222109014
-0.2221386466
0.00348918103
0.003818875527
0.2222011536
-0.003427137645
-0.2214730176
-0.003312745882
0.2196682493
-0.2197092939
0.003353790435
0.003667584688
0.2197961831
-0.003268708972
-0.2191926565
-0.003118062731
0.2177962118
-0.2178495708
0.003171421702
0.003463084141
0.2179624725
-0.003061494896
-0.2174736763
0.2164555684
-0.002872306785
-0.216521827
0.00293856539
0.003202850021
0.2166619232
-0.003233167247
0.2283672957
-0.2283827275
0.2284134307
-0.003218470214
-0.2276123909
-0.003170558773
0.2250524543
-0.225069807
0.003187911496
0.00347665364
0.2251057458
-0.003151276356
-0.2242600975
-0.003080406473
0.2220001169
-0.2220259908
0.003106280345
0.003387616373
0.2220803926
-0.003052211
-0.2213499658
-0.002953131318
0.2195182831
-0.2195537864
0.002988634661
0.003257005292
0.2196286988
-0.002915060804
-0.2190258443
-0.002784731879
0.2176011293
-0.2176473288
0.002830931352
0.003081284425
0.2177447801
-0.002735686064
-0.2172591576
0.2162116614
-0.002571024466
-0.2162694462
0.002628809293
0.002856715438
0.2163912885
-0.002900958236
0.2283052507
-0.2283207885
0.2283518199
-0.002886393203
-0.2275537749
-0.002841395986
0.2249867124
-0.2250026287
0.002857312219
0.003100496162
0.2250354827
-0.002823992834
-0.2241858938
-0.002761162366
0.2219044556
-0.2219272696
0.002783976436
0.003021076925
0.2219750619
-0.002736391098
-0.2212425289
-0.002649718575
0.2193877664
-0.2194187825
0.002680734687
0.002907290113
0.2194839832
-0.002616480161
-0.21888111
-0.002502636047
0.2174312262
-0.2174716097
0.002543019462
0.002754946082
0.2175564876
-0.002459710334
-0.2170725219
0.2159977422
-0.002315061598
-0.2160486058
0.002365925119
0.002559545742
0.2161554694
-0.002624365618
0.2282431136
-0.2282586308
0.2282897044
-0.002609980241
-0.2274957698
-0.002567427184
0.2249260675
-0.2249408045
0.002582164251