/*--------------------------------*- C++ -*----------------------------------*\
| =========                 |                                                 |
| \\      /  F ield         | OpenFOAM: The Open Source CFD Toolbox           |
|  \\    /   O peration     | Version:  v2012                                 |
|   \\  /    A nd           | Website:  www.openfoam.com                      |
|    \\/     M anipulation  |                                                 |
\*---------------------------------------------------------------------------*/
FoamFile
{
    version     2.0;
    format      ascii;
    class       pointVectorField;
    location    "1";
    object      pointDisplacement;
}
// * * * * * * * * * * * * * * * * * * * * * * * * * * * * * * * * * * * * * //

dimensions      [0 1 0 0 0 0 0];


internalField   nonuniform List<vector> 
6426
(
(0 0 0)
(0 0 0)
(0 0 0)
(0 0 0)
(0 0 0)
(0 0 0)
(0 0 0)
(0 0 0)
(0 0 0)
(0 0 0)
(-0.0004786366152 -0.07159220239 0)
(-0.0004875388491 -0.07180051058 0)
(-0.0004950405656 -0.0720088849 0)
(-6.413339556e-05 -0.07201236426 0)
(-4.70706282e-05 -0.07159600573 0)
(0.006536296937 -0.07169089911 0)
(0.00650639734 -0.07252432069 0)
(0.00647615235 -0.07335750218 0)
(0.008245170622 -0.07338751062 0)
(0.008303425917 -0.071720054 0)
(0.007420190404 -0.07170556075 0)
(0.013038629 -0.06859055138 3.432254481e-13)
(0.01281365977 -0.069185456 3.383404668e-13)
(0.0136485055 -0.0650576184 3.180927743e-13)
(0.01400989859 -0.06510974414 3.257116798e-13)
(0.01408480778 -0.04838971614 2.420841305e-13)
(0.0135777745 -0.04778058427 2.336325577e-13)
(0.01258610145 -0.0407147387 1.99146255e-13)
(0.01311675408 -0.0414343813 2.073480276e-13)
(0.007968546511 -0.02025133104 1.014882622e-13)
(0.007488781486 -0.01948150334 9.542366897e-14)
(0.005476733034 -0.0133755381 6.554479182e-14)
(0.005899133467 -0.01407556593 7.058242879e-14)
(0.0008384993686 -0.001692180548 8.493206138e-15)
(0.0006816197624 -0.00140797738 6.911138328e-15)
(5.404152867e-05 -0.0001062479086 5.273559367e-16)
(0.0001032497114 -0.0001983146682 9.853229344e-16)
(0 0 0)
(0 0 0)
(0 0 0)
(0 0 0)
(0 0 0)
(0 0 0)
(0 0 0)
(0 0 0)
(0 0 0)
(0 0 0)
(0 0 0)
(0 0 0)
(0 0 0)
(0 0 0)
(-0.0008686913855 -0.07820144806 0)
(-0.0008768268623 -0.07861980831 0)
(-0.0008849702729 -0.07903855736 0)
(6.055536562e-06 -0.07905588593 0)
(2.233554145e-05 -0.07821877665 0)
(0.006259491754 -0.07834007614 0)
(0.006226939306 -0.08001390589 0)
(0.007980798429 -0.07974186489 3.579220254e-13)
(0.008035681998 -0.07831263658 3.590183706e-13)
(0.01215400796 -0.07077045402 3.240602231e-13)
(0.01185416134 -0.07072253679 3.171490848e-13)
(0.01242452349 -0.06526379648 2.926270337e-13)
(0.01278615879 -0.06560277171 3.003708393e-13)
(0.0118202188 -0.04454947465 2.040034808e-13)
(0.01134254632 -0.04370291803 1.959821194e-13)
(0.01010291054 -0.03573200479 1.602884492e-13)
(0.01079490813 -0.03737185731 1.711825126e-13)
(0.00565141996 -0.01571396011 7.206735209e-14)
(0.004924838502 -0.01398559274 6.281086762e-14)
(0.003345379486 -0.008918866811 4.007905119e-14)
(0.003812219553 -0.009950007023 4.565792189e-14)
(0.0001403305739 -0.0003099010127 1.415534356e-15)
(6.338581926e-05 -0.0001430086044 6.52256027e-16)
(0 0 0)
(0 0 0)
(0 0 0)
(0 0 0)
(0 0 0)
(0 0 0)
(0 0 0)
(0 0 0)
(0 0 0)
(0 0 0)
(0 0 0)
(0 0 0)
(0 0 0)
(0 0 0)
(0 0 0)
(0 0 0)
(-0.0009989150234 -0.0848975447 0)
(-0.001031475033 -0.08657176325 0)
(0.0007505723763 -0.08660642031 0)
(0.0007831323861 -0.08493220175 0)
(0.006081069945 -0.08427699245 3.560901574e-13)
(0.00596646264 -0.08459782289 3.5055292e-13)
(0.007490636774 -0.08203286029 3.398115123e-13)
(0.007683719673 -0.0823781524 3.479438959e-13)
(0.01086184247 -0.06902214868 2.913225217e-13)
(0.01039271319 -0.06733103119 2.787353681e-13)
(0.01060120221 -0.06037596436 2.499250806e-13)
(0.01115004974 -0.06230024489 2.629285678e-13)
(0.00938235705 -0.0384055177 1.621619505e-13)
(0.008715932727 -0.03635683855 1.505739977e-13)
(0.007389274181 -0.02829256204 1.172117958e-13)
(0.008042142786 -0.03021637803 1.276201367e-13)
(0.003151185587 -0.009506660236 4.019007349e-14)
(0.002707347226 -0.0083253278 3.452793607e-14)
(0.001384853456 -0.003998893553 1.658395643e-14)
(0.001881242485 -0.00532971406 2.25375274e-14)
(0 0 0)
(0 0 0)
(0 0 0)
(0 0 0)
(0 0 0)
(0 0 0)
(0 0 0)
(0 0 0)
(0 0 0)
(0 0 0)
(0 0 0)
(0 0 0)
(0 0 0)
(0 0 0)
(0 0 0)
(0 0 0)
(0 0 0)
(0 0 0)
(-0.001051249215 -0.08793903782 3.449462938e-13)
(-0.0009942095882 -0.08536244281 3.288341821e-13)
(0.0006384192248 -0.08397084671 3.233663337e-13)
(0.0006612351285 -0.08685784859 3.405886684e-13)
(0.005295339667 -0.07943338759 3.11181636e-13)
(0.004955098516 -0.07538120218 2.900318874e-13)
(0.006042574962 -0.07086959323 2.726152637e-13)
(0.006509506213 -0.07525172517 2.947225797e-13)
(0.008429229341 -0.05752017364 2.25180985e-13)
(0.007607626102 -0.05271245731 2.027128465e-13)
(0.007472449883 -0.04552483236 1.75082171e-13)
(0.008376521863 -0.05024579016 1.967037644e-13)
(0.006198030071 -0.02725214663 1.067479438e-13)
(0.005251075666 -0.02347024528 9.030276527e-14)
(0.004098133086 -0.01682609194 6.475375791e-14)
(0.004978373032 -0.0201017354 7.875644581e-14)
(0.001246847623 -0.004050149833 1.587618925e-14)
(0.0008029699122 -0.00265453443 1.022792961e-14)
(0.000179921694 -0.0005590213979 2.15105711e-15)
(0.0004159392401 -0.0012694754 4.968248035e-15)
(0 0 0)
(0 0 0)
(0 0 0)
(0 0 0)
(0 0 0)
(0 0 0)
(0 0 0)
(0 0 0)
(0 0 0)
(0 0 0)
(0 0 0)
(0 0 0)
(0 0 0)
(0 0 0)
(0 0 0)
(0 0 0)
(0 0 0)
(0 0 0)
(-0.0006729848836 -0.06873040489 2.512157149e-13)
(-0.0005433475397 -0.06084030691 2.186584247e-13)
(0.0005359466208 -0.05898990673 2.119554532e-13)
(0.0005703925947 -0.0668883567 2.444294767e-13)
(0.003633204068 -0.05685732775 2.07653339e-13)
(0.003121111749 -0.04912252611 1.764144386e-13)
(0.003645816694 -0.0445637755 1.600247712e-13)
(0.004299538874 -0.05212079131 1.90319982e-13)
(0.004844503822 -0.0349585725 1.276478923e-13)
(0.003901179031 -0.02849877555 1.023348073e-13)
(0.003551331174 -0.02286922493 8.212874825e-14)
(0.004524665937 -0.02875798988 1.050132203e-13)
(0.002466522851 -0.01155134386 4.220235272e-14)
(0.001666393163 -0.007922461151 2.846334279e-14)
(0.0009821067706 -0.004296926267 1.543210004e-14)
(0.001633494046 -0.007036399136 2.570166302e-14)
(1.372008904e-05 -4.774983996e-05 1.804112415e-16)
(0 0 0)
(0 0 0)
(0 0 0)
(0 0 0)
(0 0 0)
(0 0 0)
(0 0 0)
(0 0 0)
(0 0 0)
(0 0 0)
(0 0 0)
(0 0 0)
(0 0 0)
(0 0 0)
(0 0 0)
(0 0 0)
(0 0 0)
(0 0 0)
(0 0 0)
(0 0 0)
(0 0 0)
(-0.0002074438322 -0.03422332734 1.171007735e-13)
(-0.0001313772624 -0.02557617201 8.613942892e-14)
(0.0002837479422 -0.02423803524 8.162914789e-14)
(0.000361824389 -0.0326896959 1.118410919e-13)
(0.001563653632 -0.02491304696 8.522349493e-14)
(0.00109849168 -0.01757753594 5.9188765e-14)
(0.001172670694 -0.01475353748 4.968248035e-14)
(0.001724049822 -0.02153033517 7.36494199e-14)
(0.001412609322 -0.01069425175 3.658184866e-14)
(0.000801802163 -0.006145094218 2.069178162e-14)
(0.0005489415336 -0.003723248437 1.254552018e-14)
(0.0011007592 -0.00736752315 2.520206266e-14)
(0.0001263146399 -0.000628301475 2.15105711e-15)
(3.546176923e-07 -1.791420047e-06 0)
(0 0 0)
(1.476707489e-06 -6.771273253e-06 2.775557562e-17)
(0 0 0)
(0 0 0)
(0 0 0)
(0 0 0)
(0 0 0)
(0 0 0)
(0 0 0)
(0 0 0)
(0 0 0)
(0 0 0)
(0 0 0)
(0 0 0)
(0 0 0)
(0 0 0)
(0 0 0)
(0 0 0)
(0 0 0)
(0 0 0)
(0 0 0)
(0 0 0)
(0 0 0)
(0 0 0)
(-1.63819823e-05 -0.005486611127 1.76386683e-14)
(-4.72097096e-06 -0.001827591636 5.787037516e-15)
(1.970972842e-05 -0.001496399276 4.74620343e-15)
(6.369458267e-05 -0.00488782125 1.572353359e-14)
(0.0001379104576 -0.002254718538 7.244205236e-15)
(1.706983554e-05 -0.0002823461111 8.881784197e-16)
(3.14568784e-06 -4.128027336e-05 1.249000903e-16)
(0.0001046475659 -0.001355312508 4.357625372e-15)
(0 0 0)
(0 0 0)
(0 0 0)
(0 0 0)
(0 0 0)
(0 0 0)
(0 0 0)
(0 0 0)
(0 0 0)
(0 0 0)
(0 0 0)
(0 0 0)
(0 0 0)
(0 0 0)
(0 0 0)
(0 0 0)
(0 0 0)
(0 0 0)
(0 0 0)
(0 0 0)
(0 0 0)
(0 0 0)
(0 0 0)
(0 0 0)
(0 0 0)
(0 0 0)
(0 0 0)
(0 0 0)
(0 0 0)
(0 0 0)
(0 0 0)
(0 0 0)
(0 0 0)
(0 0 0)
(0 0 0)
(0 0 0)
(0 0 0)
(0 0 0)
(0 0 0)
(0 0 0)
(0 0 0)
(0 0 0)
(0 0 0)
(0 0 0)
(0 0 0)
(0 0 0)
(0 0 0)
(0 0 0)
(0 0 0)
(0 0 0)
(0 0 0)
(0 0 0)
(0 0 0)
(0 0 0)
(0 0 0)
(0 0 0)
(0 0 0)
(0 0 0)
(0 0 0)
(0 0 0)
(0 0 0)
(0 0 0)
(0 0 0)
(0 0 0)
(0 0 0)
(0 0 0)
(0 0 0)
(0 0 0)
(0 0 0)
(0 0 0)
(0 0 0)
(0 0 0)
(0 0 0)
(0 0 0)
(0 0 0)
(0 0 0)
(0 0 0)
(0 0 0)
(0 0 0)
(0 0 0)
(0 0 0)
(0 0 0)
(0 0 0)
(0 0 0)
(0 0 0)
(0 0 0)
(0 0 0)
(0 0 0)
(0 0 0)
(0 0 0)
(0 0 0)
(0 0 0)
(0 0 0)
(0 0 0)
(0 0 0)
(0 0 0)
(0 0 0)
(0 0 0)
(0 0 0)
(0 0 0)
(0 0 0)
(0 0 0)
(0 0 0)
(0 0 0)
(0 0 0)
(0 0 0)
(0 0 0)
(0 0 0)
(0 0 0)
(0 0 0)
(0 0 0)
(0 0 0)
(0 0 0)
(0 0 0)
(0 0 0)
(0 0 0)
(0 0 0)
(0 0 0)
(0 0 0)
(0 0 0)
(0 0 0)
(0 0 0)
(0 0 0)
(0 0 0)
(0 0 0)
(0 0 0)
(0 0 0)
(0 0 0)
(0 0 0)
(0 0 0)
(0 0 0)
(0 0 0)
(0 0 0)
(0 0 0)
(0 0 0)
(0 0 0)
(0 0 0)
(0 0 0)
(0 0 0)
(0 0 0)
(0 0 0)
(0 0 0)
(0 0 0)
(0 0 0)
(0 0 0)
(0 0 0)
(0 0 0)
(0 0 0)
(0 0 0)
(0 0 0)
(0 0 0)
(0 0 0)
(0 0 0)
(0 0 0)
(0 0 0)
(0 0 0)
(0 0 0)
(0 0 0)
(0 0 0)
(0 0 0)
(0 0 0)
(0 0 0)
(0 0 0)
(0 0 0)
(0 0 0)
(0 0 0)
(0 0 0)
(0 0 0)
(0 0 0)
(0 0 0)
(0 0 0)
(0 0 0)
(0 0 0)
(0 0 0)
(0 0 0)
(0 0 0)
(0 0 0)
(0 0 0)
(0 0 0)
(0 0 0)
(0 0 0)
(0 0 0)
(0 0 0)
(0 0 0)
(0 0 0)
(0 0 0)
(0 0 0)
(0 0 0)
(0 0 0)
(0 0 0)
(0 0 0)
(0 0 0)
(0 0 0)
(0 0 0)
(0 0 0)
(0 0 0)
(0 0 0)
(0 0 0)
(0 0 0)
(0 0 0)
(0 0 0)
(0 0 0)
(0 0 0)
(0 0 0)
(0 0 0)
(0 0 0)
(0 0 0)
(0 0 0)
(0 0 0)
(0 0 0)
(0 0 0)
(0 0 0)
(0 0 0)
(0 0 0)
(0 0 0)
(0 0 0)
(0 0 0)
(0 0 0)
(0 0 0)
(0 0 0)
(0 0 0)
(0 0 0)
(0 0 0)
(0 0 0)
(0 0 0)
(0 0 0)
(0 0 0)
(0 0 0)
(0 0 0)
(0 0 0)
(0 0 0)
(0 0 0)
(0 0 0)
(0 0 0)
(0 0 0)
(0 0 0)
(0 0 0)
(0 0 0)
(0 0 0)
(0 0 0)
(0 0 0)
(0 0 0)
(0 0 0)
(0 0 0)
(0 0 0)
(0 0 0)
(0 0 0)
(0 0 0)
(0 0 0)
(0 0 0)
(0 0 0)
(0 0 0)
(0 0 0)
(0 0 0)
(0 0 0)
(0 0 0)
(0 0 0)
(0 0 0)
(0 0 0)
(0 0 0)
(0 0 0)
(0 0 0)
(0 0 0)
(0 0 0)
(0 0 0)
(0 0 0)
(0 0 0)
(0 0 0)
(0 0 0)
(0 0 0)
(0 0 0)
(0 0 0)
(0 0 0)
(0 0 0)
(0 0 0)
(0 0 0)
(0 0 0)
(0 0 0)
(0 0 0)
(0 0 0)
(0 0 0)
(0 0 0)
(0 0 0)
(0 0 0)
(0 0 0)
(0 0 0)
(0 0 0)
(0 0 0)
(0 0 0)
(0 0 0)
(0 0 0)
(0 0 0)
(0 0 0)
(0 0 0)
(0 0 0)
(0 0 0)
(0 0 0)
(0 0 0)
(0 0 0)
(0 0 0)
(0 0 0)
(0 0 0)
(0 0 0)
(0 0 0)
(0 0 0)
(0 0 0)
(0 0 0)
(0 0 0)
(0 0 0)
(0 0 0)
(0 0 0)
(0 0 0)
(0 0 0)
(0 0 0)
(0 0 0)
(0 0 0)
(0 0 0)
(0 0 0)
(0 0 0)
(0 0 0)
(0 0 0)
(0 0 0)
(0 0 0)
(0 0 0)
(0 0 0)
(0 0 0)
(0 0 0)
(0 0 0)
(0 0 0)
(0 0 0)
(0 0 0)
(0 0 0)
(0 0 0)
(0 0 0)
(0 0 0)
(0 0 0)
(0 0 0)
(0 0 0)
(0 0 0)
(0 0 0)
(0 0 0)
(0 0 0)
(0 0 0)
(0 0 0)
(0 0 0)
(0 0 0)
(0 0 0)
(0 0 0)
(0 0 0)
(0 0 0)
(0 0 0)
(0 0 0)
(0 0 0)
(0 0 0)
(0 0 0)
(0 0 0)
(0 0 0)
(0 0 0)
(0 0 0)
(0 0 0)
(0 0 0)
(0 0 0)
(0 0 0)
(0 0 0)
(0 0 0)
(0 0 0)
(0 0 0)
(0 0 0)
(0 0 0)
(0 0 0)
(0 0 0)
(0 0 0)
(0 0 0)
(0 0 0)
(0 0 0)
(0 0 0)
(0 0 0)
(0 0 0)
(0 0 0)
(0 0 0)
(0 0 0)
(0 0 0)
(0 0 0)
(0 0 0)
(0 0 0)
(0 0 0)
(0 0 0)
(0 0 0)
(0 0 0)
(0 0 0)
(0 0 0)
(0 0 0)
(0 0 0)
(0 0 0)
(0 0 0)
(0 0 0)
(0 0 0)
(0 0 0)
(0 0 0)
(0 0 0)
(0 0 0)
(0 0 0)
(0 0 0)
(0 0 0)
(0 0 0)
(0 0 0)
(0 0 0)
(0 0 0)
(0 0 0)
(0 0 0)
(0 0 0)
(0 0 0)
(0 0 0)
(0 0 0)
(0 0 0)
(0 0 0)
(0 0 0)
(0 0 0)
(0 0 0)
(0 0 0)
(0 0 0)
(0 0 0)
(0 0 0)
(0 0 0)
(0 0 0)
(0 0 0)
(0 0 0)
(0 0 0)
(0 0 0)
(0 0 0)
(0 0 0)
(0 0 0)
(0 0 0)
(0 0 0)
(0 0 0)
(0 0 0)
(0 0 0)
(0 0 0)
(0 0 0)
(0 0 0)
(0 0 0)
(0 0 0)
(0 0 0)
(0 0 0)
(0 0 0)
(0 0 0)
(0 0 0)
(0 0 0)
(0 0 0)
(0 0 0)
(0 0 0)
(0 0 0)
(0 0 0)
(0 0 0)
(0 0 0)
(0 0 0)
(0 0 0)
(0 0 0)
(0 0 0)
(0 0 0)
(0 0 0)
(0 0 0)
(0 0 0)
(0 0 0)
(0 0 0)
(0 0 0)
(0 0 0)
(0 0 0)
(0 0 0)
(0 0 0)
(0 0 0)
(0 0 0)
(0 0 0)
(0 0 0)
(0 0 0)
(0 0 0)
(0 0 0)
(0 0 0)
(0 0 0)
(0 0 0)
(0 0 0)
(0 0 0)
(0 0 0)
(0 0 0)
(0 0 0)
(0 0 0)
(0 0 0)
(0 0 0)
(0 0 0)
(0 0 0)
(0 0 0)
(0 0 0)
(0 0 0)
(0 0 0)
(0 0 0)
(0 0 0)
(0 0 0)
(0 0 0)
(0 0 0)
(0 0 0)
(0 0 0)
(0 0 0)
(0 0 0)
(0 0 0)
(0 0 0)
(0 0 0)
(0 0 0)
(0 0 0)
(0 0 0)
(0 0 0)
(0 0 0)
(0 0 0)
(0 0 0)
(0 0 0)
(0 0 0)
(0 0 0)
(0 0 0)
(0 0 0)
(0 0 0)
(0 0 0)
(0 0 0)
(0 0 0)
(0 0 0)
(0 0 0)
(0 0 0)
(0 0 0)
(0 0 0)
(0 0 0)
(0 0 0)
(0 0 0)
(0 0 0)
(0 0 0)
(0 0 0)
(0 0 0)
(0 0 0)
(0 0 0)
(0 0 0)
(0 0 0)
(0 0 0)
(0 0 0)
(0 0 0)
(0 0 0)
(0 0 0)
(0 0 0)
(0 0 0)
(0 0 0)
(0 0 0)
(0 0 0)
(0 0 0)
(0 0 0)
(0 0 0)
(0 0 0)
(0 0 0)
(0 0 0)
(0 0 0)
(0 0 0)
(0 0 0)
(0 0 0)
(0 0 0)
(0 0 0)
(0 0 0)
(0 0 0)
(0 0 0)
(0 0 0)
(0 0 0)
(0 0 0)
(0 0 0)
(0 0 0)
(0 0 0)
(0 0 0)
(0 0 0)
(0 0 0)
(0 0 0)
(0 0 0)
(0 0 0)
(0 0 0)
(0 0 0)
(0 0 0)
(0 0 0)
(0 0 0)
(0 0 0)
(0 0 0)
(0 0 0)
(0 0 0)
(0 0 0)
(0 0 0)
(0 0 0)
(0 0 0)
(0 0 0)
(0 0 0)
(0 0 0)
(0 0 0)
(0 0 0)
(0 0 0)
(0 0 0)
(0 0 0)
(0 0 0)
(0 0 0)
(0 0 0)
(0 0 0)
(0 0 0)
(0 0 0)
(0 0 0)
(0 0 0)
(0 0 0)
(0 0 0)
(0 0 0)
(0 0 0)
(0 0 0)
(0 0 0)
(0 0 0)
(0 0 0)
(0 0 0)
(0 0 0)
(0 0 0)
(0 0 0)
(0 0 0)
(0 0 0)
(0 0 0)
(0 0 0)
(0 0 0)
(0 0 0)
(0 0 0)
(0 0 0)
(0 0 0)
(0 0 0)
(0 0 0)
(0 0 0)
(0 0 0)
(0 0 0)
(0 0 0)
(0 0 0)
(0 0 0)
(0 0 0)
(0 0 0)
(0 0 0)
(0 0 0)
(0 0 0)
(0 0 0)
(0 0 0)
(0 0 0)
(0 0 0)
(0 0 0)
(0 0 0)
(0 0 0)
(0 0 0)
(0 0 0)
(0 0 0)
(0 0 0)
(0 0 0)
(0 0 0)
(0 0 0)
(0 0 0)
(0 0 0)
(0 0 0)
(0 0 0)
(0 0 0)
(0 0 0)
(0 0 0)
(0 0 0)
(0 0 0)
(0 0 0)
(0 0 0)
(0 0 0)
(0 0 0)
(0 0 0)
(0 0 0)
(0 0 0)
(0 0 0)
(0 0 0)
(0 0 0)
(0 0 0)
(0 0 0)
(0 0 0)
(0 0 0)
(0 0 0)
(-0.0004709083938 -0.07138352131 0)
(-0.0006876951663 -0.07138148342 0)
(-0.0006949875096 -0.07159021188 0)
(-3.09381964e-05 -0.07117908457 0)
(-0.0004630184272 -0.07117484337 0)
(0.006564230236 -0.07085658359 0)
(0.005683085226 -0.07084259774 0)
(0.00565480351 -0.0716768287 0)
(-0.0008605496734 -0.07778269897 0)
(-0.001306072757 -0.07777403449 0)
(-0.001314208764 -0.07819278369 0)
(-0.0007029580458 -0.07179873267 0)
(3.861554634e-05 -0.07738166737 0)
(-0.0003750405569 -0.07738684719 0)
(-0.0007925142415 -0.07739856506 0)
(0.006338999941 -0.07668380697 0)
(0.005457520125 -0.0766690367 0)
(0.004570763826 -0.07665358037 0)
(0.004534499516 -0.07748427215 0)
(0.004504019288 -0.07831954944 0)
(0.005624789538 -0.07251013136 0)
(0.003123139269 -0.06829527603 0)
(-0.0009826350185 -0.08406043542 0)
(-0.001873660667 -0.08404310685 0)
(-0.001889940672 -0.08488021613 0)
(-0.001322341097 -0.078611144 0)
(-0.0005939372587 -0.06845496111 0)
(-0.0003764965735 -0.06845759515 0)
(0.003007708588 -0.07163406095 0)
(0.003038376303 -0.07080034314 0)
(0.002160803595 -0.07078767143 0)
(0.002145027357 -0.07120467732 0)
(0.002128864362 -0.07162117003 0)
(0.002671167394 -0.0687068327 0)
(0.00310951909 -0.06871321844 0)
(-0.0001575260283 -0.06846076458 0)
(-0.0006393599622 -0.07491369245 0)
(-0.001065091228 -0.07491253081 0)
(-0.001088915164 -0.07532568508 0)
(-0.0006637757753 -0.07532664074 0)
(-0.0006145574543 -0.07450044052 0)
(-0.001041449167 -0.07449882845 0)
(-0.0002091449156 -0.07491638044 0)
(-0.0001844177296 -0.07450332153 0)
(0.002871680052 -0.07496217681 0)
(0.002907461373 -0.07413132005 0)
(0.002021838997 -0.07411615804 0)
(0.001981189664 -0.0749453254 0)
(0.002112394206 -0.07203765678 0)
(0.002095736451 -0.07245378981 0)
(0.002975772921 -0.07246697618 0)
(-0.0004231599903 -0.0699221635 0)
(-0.0006452228085 -0.06991811712 0)
(-0.000648956027 -0.07012823725 0)
(-0.0004288605667 -0.07013158414 0)
(-0.002071144728 -0.07324063406 0)
(-0.002059512314 -0.07303370142 0)
(-0.002285230596 -0.07302841708 0)
(-0.000550785659 -0.07325658831 0)
(-0.0005309913062 -0.07284133309 0)
(-0.000959735289 -0.07283902377 0)
(-0.0009693994176 -0.07304692818 0)
(-0.0009788635663 -0.07325436974 0)
(-0.0004176600188 -0.06971277786 0)
(-0.0006413382353 -0.06970819442 0)
(-0.0002036972537 -0.06992526472 0)
(-0.0001973405606 -0.0697162069 0)
(0.001317724279 -0.06994236761 0)
(0.001332503977 -0.06952460332 0)
(0.0008973682816 -0.06951925251 0)
(0.0008824689162 -0.06993717005 0)
(0.0009246195468 -0.06868340679 0)
(0.001360325389 -0.06868904096 0)
(-0.00241622283 -0.0765715689 0)
(-0.002408786326 -0.07636338779 0)
(-0.0009989584912 -0.07366958022 0)
(-0.0005708584432 -0.07367176032 0)
(-0.002076394394 -0.07345056911 0)
(-0.002122566473 -0.07491211316 0)
(-0.00211401538 -0.07470442047 0)
(0.0008156848344 -0.083258372 0)
(-7.533692634e-05 -0.08324104351 0)
(-0.0009663625753 -0.08322371495 0)
(0.006152972891 -0.08322722646 3.587130593e-13)
(0.004379783541 -0.08332768618 0)
(0.004346359697 -0.08498102536 3.592126596e-13)
(0.004461176004 -0.0791425286 0)
(0.004444903561 -0.07997924907 0)
(0.001255328152 -0.0716097437 0)
(0.00127161643 -0.071193409 0)
(0.0008365998607 -0.07118833278 0)
(0.0008204033849 -0.07160474705 0)
(0.0008676703195 -0.07035450612 0)
(0.001302833124 -0.07035966297 0)
(-0.000210282589 -0.07013427919 0)
(0.0026954086 -0.07827076227 0)
(0.002746580422 -0.07744833403 0)
(0.001859048439 -0.07743496299 0)
(0.001804382951 -0.0782534337 0)
(0.001937716921 -0.07577327098 0)
(0.002835756275 -0.07579275853 0)
(-0.0002345736877 -0.07532911455 0)
(-0.0009338025691 -0.08154949639 0)
(-0.0009175225749 -0.08071238711 0)
(-0.001808548209 -0.08069505855 0)
(-0.001824828214 -0.08153216783 0)
(-0.001199222619 -0.0691058568 0)
(-0.001045443207 -0.06907952007 0)
(-0.001106579695 -0.06881220625 0)
(-0.0003973071863 -0.06908504592 0)
(-0.000391522863 -0.06887519905 0)
(-0.0006148543488 -0.06887116689 0)
(-0.0006189876105 -0.06908135703 0)
(-0.002131637816 -0.07511975683 0)
(-0.002000962573 -0.07657050432 0)
(-0.001973628516 -0.0761566015 0)
(-0.002390509148 -0.07615938487 0)
(-0.0007457276802 -0.07656220465 0)
(-0.0007183318961 -0.07615024781 0)
(-0.001140189124 -0.07615114519 0)
(-0.001163336294 -0.07656474048 0)
(-0.002442188301 -0.07677409983 0)
(-0.001304261823 -0.06990891751 0)
(-0.001309829879 -0.07011822404 0)
(-0.001092146705 -0.07012062942 0)
(-0.001092823978 -0.06990933443 0)
(-0.001324195999 -0.07074572235 0)
(-0.001104597481 -0.07074898179 0)
(-0.001097520325 -0.07054063811 0)
(-0.001313925392 -0.07053841317 0)
(-0.0004482171971 -0.0707580519 0)
(-0.0004415627418 -0.07054958331 0)
(-0.0006589567268 -0.07054702797 0)
(-0.0006657224034 -0.0707554555 0)
(-0.001518255441 -0.07054015706 0)
(-0.001539114322 -0.07074410977 0)
(-0.00146349758 -0.06993273659 0)
(-0.001520184283 -0.07010553713 0)
(-0.001353383863 -0.07158094698 0)
(-0.001351057512 -0.07137052722 0)
(-0.001574165474 -0.07136642162 0)
(-0.001574934856 -0.07157718282 0)
(-0.001566996088 -0.07094617558 0)
(-0.001339850871 -0.07095148768 0)
(-0.002277507071 -0.0723638775 0)
(-0.002019666921 -0.07241467227 0)
(-0.00201168338 -0.07220576277 0)
(-0.002218908834 -0.0721941869 0)
(-0.001372579196 -0.07241936091 0)
(-0.001366014165 -0.07221019046 0)
(-0.001582761732 -0.07220803665 0)
(-0.001588693651 -0.07241745279 0)
(-0.001577972189 -0.0717871609 0)
(-0.001356908829 -0.07179079889 0)
(-0.001408032409 -0.07325154651 0)
(-0.001398628095 -0.07304418158 0)
(-0.001615843205 -0.07304166862 0)
(-0.001625179803 -0.07324915155 0)
(-0.001596054988 -0.07262656886 0)
(-0.001380334095 -0.07262831375 0)
(-0.002227872085 -0.07262727255 0)
(-0.002025716239 -0.07262412502 0)
(-0.001369568453 -0.0696405502 0)
(-0.0006258340976 -0.0692905998 0)
(-0.0004039249026 -0.06929456541 0)
(-0.001255795294 -0.06928519405 0)
(-0.001064000355 -0.06928487889 0)
(-0.001098170169 -0.06969639282 0)
(-0.00237217195 -0.07574429579 0)
(0.007447543511 -0.07087107835 0)
(0.01322053782 -0.06771755677 3.469169396e-13)
(0.0118129364 -0.06957587022 3.565620021e-13)
(0.01169268699 -0.07079966899 3.543970672e-13)
(-0.0006730129743 -0.07096387283 0)
(-0.0004560965776 -0.0709661855 0)
(-0.001114456576 -0.07095657124 0)
(-0.001132035807 -0.07158474608 0)
(-0.001127285224 -0.0713750736 0)
(0.004001660241 -0.06830858851 0)
(0.006645755491 -0.0683505978 0)
(0.005764884162 -0.06833653948 0)
(-0.0008066928022 -0.06845377955 0)
(-0.0008309887905 -0.06865762651 0)
(-0.0006070280374 -0.06866198207 0)
(-0.0003845367928 -0.068665959 0)
(-0.0001768648211 -0.06908855514 0)
(-0.0001704843652 -0.06887887545 0)
(0.0004771024664 -0.06909610028 0)
(0.0004839809219 -0.06888701372 0)
(0.0002666289714 -0.06888453699 0)
(0.0002596012555 -0.06909369844 0)
(0.0002793549928 -0.06846677166 0)
(0.0004972250322 -0.06846960853 0)
(-0.001793116593 -0.07157457327 0)
(-0.001785534824 -0.07136612271 0)
(-0.001945044909 -0.07139024762 0)
(-0.002003040929 -0.07156197251 0)
(-0.001846979921 -0.07109899737 0)
(-0.002159634383 -0.07202252576 0)
(-0.00200181519 -0.07199774564 0)
(-0.002060395187 -0.07173129835 0)
(-0.001796045786 -0.07199599085 0)
(-0.001797968374 -0.07178404931 0)
(-0.002381470315 -0.07595201284 0)
(-0.002253743266 -0.07282875513 0)
(-0.002092364467 -0.07407854188 0)
(-0.002087142345 -0.0738694231 0)
(-0.001445285167 -0.07408346373 0)
(-0.00143604588 -0.07387578443 0)
(-0.001650225896 -0.07387480854 0)
(-0.001659081017 -0.0740825342 0)
(-0.001633694609 -0.07345777844 0)
(-0.00141796054 -0.07345944579 0)
(-0.0009972513664 -0.06845404095 0)
(-0.001053418338 -0.06863933715 0)
(-0.0008383276785 -0.06907860827 0)
(-0.0008388823447 -0.06886684892 0)
(-0.001313657469 -0.07032783669 0)
(-0.00157581287 -0.0702751299 0)
(-0.001671479439 -0.07056685465 0)
(-0.001729752831 -0.07074464189 0)
(-0.001348644973 -0.07115987576 0)
(-0.001577158262 -0.0711541092 0)
(-0.001789824923 -0.07092791735 0)
(-0.001805034372 -0.07241557917 0)
(-0.001798677786 -0.07220632687 0)
(-0.002040356316 -0.07282991008 0)
(-0.001823031689 -0.0728321918 0)
(-0.001811997502 -0.07262481967 0)
(-0.001314424684 -0.06946888652 0)
(-0.001090059726 -0.06948775807 0)
(-0.00086160046 -0.06949356247 0)
(-0.0008474348156 -0.06928691247 0)
(-0.0008696164796 -0.06991344197 0)
(-0.0008688716786 -0.06970252471 0)
(0.007528090691 -0.06836538471 0)
(0.01017832417 -0.06840976932 0)
(0.008410542533 -0.06838017389 0)
(0.01425154585 -0.06453320699 3.304995166e-13)
(0.01445495312 -0.04845031841 2.48134846e-13)
(0.01490183586 -0.05471358957 2.801647803e-13)
(0.01456392807 -0.05482986492 2.742667204e-13)
(0.01366708143 -0.04213508301 2.158551116e-13)
(0.008621132049 -0.02139498537 1.097594238e-13)
(0.01060114407 -0.02814118193 1.442873598e-13)
(0.009953649261 -0.02706063183 1.355304757e-13)
(0.006522967124 -0.01519945046 7.802092306e-14)
(0.001145621557 -0.002257723809 1.160183061e-14)
(0.002611324838 -0.005423925856 2.786659792e-14)
(0.002159856066 -0.004593693974 2.306488334e-14)
(-0.0001196623317 -0.07326003298 0)
(-0.0001001363441 -0.07284461696 0)
(0.001183526597 -0.0732739419 0)
(0.001202673063 -0.0728584407 0)
(0.0007670071799 -0.07285335185 0)
(0.0007483312826 -0.07326905668 0)
(0.0008034557484 -0.07202118561 0)
(0.001238422528 -0.07202622197 0)
(0.008114887624 -0.07671659392 0)
(0.01237437121 -0.07027713474 3.287647932e-13)
(0.01126659947 -0.07390051508 3.458344722e-13)
(0.01110488054 -0.07467803368 3.420319583e-13)
(0.01156620317 -0.07196589403 3.520517211e-13)
(0.01310889627 -0.06566063976 3.071154442e-13)
(0.01250334213 -0.04608935371 2.156191892e-13)
(0.0131997078 -0.05336281903 2.496058915e-13)
(0.01262161584 -0.05218859193 2.389477505e-13)
(0.01409966285 -0.05438829094 2.658984144e-13)
(0.01135970366 -0.03846699208 1.800087857e-13)
(0.006120232703 -0.01665022874 7.802092306e-14)
(0.008045368232 -0.02341879075 1.096900348e-13)
(0.007522463543 -0.02238107791 1.026123631e-13)
(0.009434346123 -0.02625558982 1.285221929e-13)
(0.004207527946 -0.01074518219 5.037636974e-14)
(0.0003252468831 -0.0007027711819 3.302913498e-15)
(0.00125767749 -0.00286330632 1.34336986e-14)
(0.0008913731442 -0.00207388437 9.520162436e-15)
(0.001901344591 -0.004138922199 2.030320356e-14)
(-4.277691656e-05 -0.08156682495 0)
(-2.649691167e-05 -0.08072971568 0)
(0.002630296142 -0.08161881057 0)
(0.002646576147 -0.08078170129 0)
(0.001755550498 -0.08076437273 0)
(0.001739270493 -0.08160148201 0)
(0.001788102946 -0.07909054298 0)
(0.002679128595 -0.07910787154 0)
(0.007821752261 -0.08199093103 3.532452109e-13)
(0.01123841219 -0.06997998998 3.012728955e-13)
(0.01044845216 -0.07531606089 3.242961455e-13)
(0.01015084484 -0.07470596596 3.153588501e-13)
(0.0108725289 -0.07499228879 3.363698209e-13)
(0.01159667699 -0.06351384508 2.734062976e-13)
(0.009938786365 -0.03989580252 1.718070131e-13)
(0.01092891591 -0.0481723033 2.074035388e-13)
(0.01038868174 -0.04669864292 1.97120098e-13)
(0.01216673235 -0.05144672046 2.306627112e-13)
(0.008771439376 -0.03232924308 1.392497229e-13)
(0.003912383516 -0.01157884032 4.993228053e-14)
(0.005598709018 -0.01773119832 7.643885525e-14)
(0.004789890521 -0.0154623612 6.535050279e-14)
(0.006766558062 -0.02056237612 9.23150445e-14)
(0.002341169159 -0.006501824471 2.804700916e-14)
(0 0 0)
(0.0002479985146 -0.0006143716625 2.650657471e-15)
(0.0001157616912 -0.0002926184832 1.235123115e-15)
(0.0006721794336 -0.001597640808 7.188694084e-15)
(-0.001074629305 -0.08888700513 3.551603456e-13)
(-0.002850346115 -0.0891975587 3.565481244e-13)
(-0.002786698466 -0.08851208796 3.473332733e-13)
(-0.002780962433 -0.08486288764 0)
(-0.002813522443 -0.0865371062 0)
(0.0006878581496 -0.08820738358 3.523153991e-13)
(0.005577325827 -0.08229442783 3.283484595e-13)
(0.004058967279 -0.08507267718 3.395617121e-13)
(0.003880081718 -0.08271455537 3.24129612e-13)
(0.004289569303 -0.08606374573 3.56770169e-13)
(0.006907120626 -0.07855903813 3.133604487e-13)
(0.009172989364 -0.06158530078 2.455396997e-13)
(0.008756588086 -0.06813870904 2.716993297e-13)
(0.008119654345 -0.06421433287 2.514100039e-13)
(0.009772431306 -0.07335371192 3.037015084e-13)
(0.009207420044 -0.0543320268 2.166183899e-13)
(0.007106053548 -0.03071977755 1.225408663e-13)
(0.008138037041 -0.03862822567 1.540434447e-13)
(0.00721991631 -0.03484851397 1.364602875e-13)
(0.009736826368 -0.04460268358 1.846717224e-13)
(0.005836880954 -0.02316711846 9.243994459e-14)
(0.001730636083 -0.00552200337 2.205180483e-14)
(0.003018681779 -0.01030174768 4.113376306e-14)
(0.002375475016 -0.008250985362 3.233524559e-14)
(0.004249892997 -0.01398258309 5.796751967e-14)
(0.0007133096017 -0.00213797368 8.534839502e-15)
(0 0 0)
(0 0 0)
(0 0 0)
(1.109581667e-05 -2.859817957e-05 1.249000903e-16)
(-0.0007975006315 -0.07560360335 2.811362254e-13)
(-0.0022305528 -0.07662760743 2.85022006e-13)
(-0.001957582876 -0.06980898433 2.552263956e-13)
(-0.002657087995 -0.08613792949 3.319289288e-13)
(0.0005964163894 -0.07383720919 2.744887651e-13)
(0.004116721664 -0.06395348096 2.375738495e-13)
(0.003097029947 -0.06801398325 2.52714516e-13)
(0.002764668901 -0.06093038121 2.225580831e-13)
(0.003658664052 -0.07904655346 3.042149865e-13)
(0.004926913042 -0.05916294219 2.197408921e-13)
(0.005794188921 -0.04128003553 1.533079219e-13)
(0.005785319723 -0.04770131944 1.771638392e-13)
(0.004917782818 -0.04103576856 1.498245972e-13)
(0.007403859094 -0.05943865026 2.28581043e-13)
(0.00552213382 -0.0346267028 1.286054596e-13)
(0.003353612814 -0.01546829184 5.74817971e-14)
(0.00424781461 -0.02148382349 7.981115768e-14)
(0.003278666185 -0.01682802092 6.145084441e-14)
(0.00624831222 -0.03064854646 1.178918074e-13)
(0.002392937664 -0.01014693372 3.770594947e-14)
(0.0001559604717 -0.0005336468055 1.984523657e-15)
(0.0006807504341 -0.002488303777 9.24260668e-15)
(0.0002999677778 -0.001114803271 4.080069615e-15)
(0.00175065276 -0.006186750961 2.381428388e-14)
(0 0 0)
(0 0 0)
(0 0 0)
(0 0 0)
(0 0 0)
(-0.0003038692561 -0.04323496738 1.503380753e-13)
(-0.001078866293 -0.04424267496 1.538630334e-13)
(-0.0008129495878 -0.03514262018 1.202649091e-13)
(-0.001664548267 -0.06193184566 2.22627472e-13)
(0.0004317781446 -0.04154562236 1.444400155e-13)
(0.002068891156 -0.03283724994 1.141309269e-13)
(0.001647779413 -0.03628304052 1.261213356e-13)
(0.001272025917 -0.0279642301 9.565959136e-14)
(0.002406205031 -0.05309127557 1.906946823e-13)
(0.00233593053 -0.02896840102 1.006833505e-13)
(0.002153532471 -0.01611004277 5.59968738e-14)
(0.002372551468 -0.02045540921 7.109590694e-14)
(0.001637892876 -0.01427333003 4.882205751e-14)
(0.004041821888 -0.03410847578 1.224714774e-13)
(0.001806182342 -0.0119335067 4.148070776e-14)
(0.0004641611999 -0.002273960044 7.91033905e-15)
(0.0009011711445 -0.004829518328 1.679212325e-14)
(0.0003981527296 -0.002165029556 7.410738689e-15)
(0.002374848224 -0.01236670205 4.442279877e-14)
(0.0001361716449 -0.000614628408 2.137179322e-15)
(0 0 0)
(0 0 0)
(0 0 0)
(6.434816639e-05 -0.0002431254559 8.743006319e-16)
(0 0 0)
(0 0 0)
(0 0 0)
(0 0 0)
(0 0 0)
(-3.87181217e-05 -0.01086194395 3.547162564e-14)
(-0.0002257002528 -0.01138842808 3.719247132e-14)
(-0.0001111769382 -0.005857399395 1.884603584e-14)
(-0.0005785390568 -0.02638233987 8.885947533e-14)
(0.0001272206951 -0.01000014293 3.265443471e-14)
(0.00036764046 -0.005956132639 1.944278072e-14)
(0.000339120865 -0.007473984906 2.439715097e-14)
(0.0001444575858 -0.003202084346 1.029731855e-14)
(0.0009180817782 -0.02016484697 6.790401574e-14)
(0.0003430483482 -0.004393476018 1.434963259e-14)
(7.640501875e-05 -0.0006013032426 1.970645869e-15)
(0.0001761646568 -0.001590447518 5.19029264e-15)
(1.330738298e-05 -0.0001218046206 3.885780586e-16)
(0.001009428289 -0.008894449894 2.994826609e-14)
(8.837490491e-06 -6.166200934e-05 1.942890293e-16)
(0 0 0)
(0 0 0)
(0 0 0)
(9.05679429e-05 -0.0004998467504 1.679212325e-15)
(0 0 0)
(0 0 0)
(0 0 0)
(0 0 0)
(0 0 0)
(0 0 0)
(0 0 0)
(0 0 0)
(0 0 0)
(0 0 0)
(0 0 0)
(0 0 0)
(0 0 0)
(-3.737424819e-05 -0.00203940732 6.467049118e-15)
(0 0 0)
(0 0 0)
(0 0 0)
(0 0 0)
(2.946020833e-05 -0.0006590945271 2.081668171e-15)
(0 0 0)
(0 0 0)
(0 0 0)
(0 0 0)
(0 0 0)
(0 0 0)
(0 0 0)
(0 0 0)
(0 0 0)
(0 0 0)
(0 0 0)
(0 0 0)
(0 0 0)
(0 0 0)
(0 0 0)
(0 0 0)
(0 0 0)
(0 0 0)
(0 0 0)
(0 0 0)
(0 0 0)
(0 0 0)
(0 0 0)
(0 0 0)
(0 0 0)
(0 0 0)
(0 0 0)
(0 0 0)
(0 0 0)
(0 0 0)
(0 0 0)
(0 0 0)
(0 0 0)
(0 0 0)
(0 0 0)
(0 0 0)
(0 0 0)
(0 0 0)
(0 0 0)
(0 0 0)
(0 0 0)
(0 0 0)
(0 0 0)
(0 0 0)
(0 0 0)
(0 0 0)
(0 0 0)
(0 0 0)
(0 0 0)
(0 0 0)
(0 0 0)
(0 0 0)
(0 0 0)
(0 0 0)
(0 0 0)
(0 0 0)
(0 0 0)
(0 0 0)
(0 0 0)
(0 0 0)
(0 0 0)
(0 0 0)
(0 0 0)
(0 0 0)
(0 0 0)
(0 0 0)
(0 0 0)
(0 0 0)
(0 0 0)
(0 0 0)
(0 0 0)
(0 0 0)
(0 0 0)
(0 0 0)
(0 0 0)
(0 0 0)
(0 0 0)
(0 0 0)
(0 0 0)
(0 0 0)
(0 0 0)
(0 0 0)
(0 0 0)
(0 0 0)
(0 0 0)
(0 0 0)
(0 0 0)
(0 0 0)
(0 0 0)
(0 0 0)
(0 0 0)
(0 0 0)
(0 0 0)
(0 0 0)
(0 0 0)
(0 0 0)
(0 0 0)
(0 0 0)
(0 0 0)
(0 0 0)
(0 0 0)
(0 0 0)
(0 0 0)
(0 0 0)
(0 0 0)
(0 0 0)