/*--------------------------------*- C++ -*----------------------------------*\
| =========                 |                                                 |
| \\      /  F ield         | OpenFOAM: The Open Source CFD Toolbox           |
|  \\    /   O peration     | Version:  v2012                                 |
|   \\  /    A nd           | Website:  www.openfoam.com                      |
|    \\/     M anipulation  |                                                 |
\*---------------------------------------------------------------------------*/
FoamFile
{
    version     2.0;
    format      ascii;
    class       volVectorField;
    location    "1";
    object      U;
}
// * * * * * * * * * * * * * * * * * * * * * * * * * * * * * * * * * * * * * //

dimensions      [0 1 -1 0 0 0 0];


internalField   nonuniform List<vector> 
3019
(
(103.3885206 -30.52274715 -3.998167629e-19)
(107.4462703 -19.84661067 5.330260473e-19)
(107.3013057 -13.83877655 2.746889606e-19)
(105.811028 -9.481842279 1.439931035e-19)
(104.0559598 -6.546681659 0)
(102.5825122 -4.690405818 -1.511852185e-19)
(101.2611541 -3.409257481 -6.434993574e-20)
(100.5681524 -2.540924355 0)
(99.75843943 -1.762410325 0)
(99.4121672 -1.19820582 1.155156349e-20)
(99.19751351 -0.7009191542 2.128473109e-21)
(99.08710683 -0.2310541306 -6.908391456e-21)
(96.47916942 -19.91289796 4.662858637e-20)
(102.3086827 -16.30410524 -5.621227285e-20)
(103.5482056 -12.52902723 -8.594330514e-20)
(103.163656 -9.194397898 2.463621097e-19)
(102.2167746 -6.700945861 0)
(101.2649877 -4.993265157 -7.034746367e-20)
(100.3155434 -3.67958302 -8.991511009e-20)
(99.81917985 -2.776865775 -3.382544792e-20)
(99.16843817 -1.913623505 -1.881569324e-20)
(98.88960799 -1.305319026 1.855311981e-20)
(98.71437458 -0.7652457239 0)
(98.62335954 -0.2521909625 1.85355407e-20)
(97.97703749 -12.95310366 3.037215434e-19)
(100.2433524 -12.53678481 -1.632831464e-19)
(101.1790158 -10.60396339 -2.06563786e-19)
(101.1395219 -8.356226897 0)
(100.6301316 -6.437326003 0)
(100.0362471 -5.005328691 -2.416741519e-20)
(99.37723179 -3.756797363 0)
(99.05793119 -2.88329278 0)
(98.55157448 -1.983692225 -3.507626589e-20)
(98.33634034 -1.362287025 1.730934109e-20)
(98.19999362 -0.8006364629 7.24611643e-22)
(98.12822045 -0.2638913995 -1.277142013e-20)
(98.91058798 -9.898045633 -1.039381285e-19)
(99.56396533 -9.831957353 4.892712457e-20)
(99.80537374 -8.796616804 -6.088299069e-19)
(99.68173442 -7.342419064 -1.095592104e-19)
(99.34343935 -5.948999693 3.589735644e-19)
(98.95792406 -4.800995033 0)
(98.51338175 -3.687146001 -2.979501643e-20)
(98.3220991 -2.877837817 4.51639942e-20)
(97.93609137 -1.985181866 1.092469206e-20)
(97.77625884 -1.374748727 1.863377938e-20)
(97.67405803 -0.8098592651 -2.116916708e-20)
(97.61936636 -0.2669734607 0)
(99.41581612 -7.988413986 -2.763403301e-20)
(99.19676007 -7.939896137 -1.94686998e-19)
(98.93678926 -7.30967794 3.13211351e-20)
(98.64175492 -6.364905976 3.605379847e-19)
(98.33445926 -5.385847861 -7.392124081e-21)
(98.0532818 -4.477111685 0)
(97.74668254 -3.517604527 0)
(97.6358127 -2.786469293 0)
(97.34391673 -1.932946826 3.788830891e-20)
(97.22829535 -1.35048654 -3.544733467e-20)
(97.15324266 -0.7969239544 -2.392314283e-21)
(97.11228689 -0.2630834677 2.400326004e-21)
(99.52056487 -6.664862126 0)
(98.86964226 -6.575132093 1.930500184e-19)
(98.31579675 -6.145470874 -1.821725729e-19)
(97.89167665 -5.519875145 3.909257527e-20)
(97.55815709 -4.814651482 0)
(97.31108 -4.096071058 0)
(97.07619492 -3.280464943 0)
(97.01145012 -2.633959092 0)
(96.78775488 -1.839754718 0)
(96.70467166 -1.296129864 0)
(96.65029211 -0.7673086316 0)
(96.61964851 -0.2543100602 0)
(99.47814873 -5.625249331 0)
(98.60024036 -5.53173679 2.996612642e-20)
(97.88427785 -5.240561512 0)
(97.34897773 -4.800107281 0)
(96.96064961 -4.26781729 0)
(96.7070989 -3.696868149 0)
(96.50032545 -3.009686556 0)
(96.45569365 -2.446731301 0)
(96.27553015 -1.721184572 0)
(96.21381703 -1.221844274 0)
(96.1731755 -0.7251864411 0)
(96.15053873 -0.2409087234 0)
(99.48088653 -4.79173601 0)
(98.43584486 -4.719853622 0)
(97.58236713 -4.505612048 0)
(96.94413031 -4.176767506 0)
(96.49474997 -3.766224275 0)
(96.21393898 -3.307565855 0)
(96.00966075 -2.729375049 0)
(95.96649364 -2.243518072 0)
(95.81054425 -1.589315272 0)
(95.76086078 -1.135817206 0)
(95.72804266 -0.6756282566 0)
(95.71039739 -0.2248765857 0)
(99.48258526 -4.116959249 -2.858414768e-35)
(98.31406245 -4.057091088 0)
(97.35576907 -3.892782279 0)
(96.63367675 -3.639730265 0)
(96.12589457 -3.316670119 0)
(95.80898046 -2.94408957 0)
(95.59201954 -2.456019581 0)
(95.53832603 -2.037845291 0)
(95.39251101 -1.453033797 0)
(95.3474836 -1.044455037 0)
(95.31775335 -0.6224889235 0)
(95.30280519 -0.2076020376 0)
(99.47352371 -3.560829266 0)
(98.21712583 -3.508110597 0)
(97.17982093 -3.377563232 0)
(96.38991471 -3.177728595 0)
(95.82946311 -2.918879231 0)
(95.47462967 -2.613511908 0)
(95.23542597 -2.199384087 0)
(95.16443033 -1.838682506 0)
(95.01902237 -1.318621105 0)
(94.97319876 -0.9525785999 0)
(94.94304281 -0.5686837517 0)
(94.92899222 -0.1900502678 0)
(99.45740225 -3.095482946 -3.77114583e-35)
(98.13727886 -3.047996423 0)
(97.03936053 -2.941457958 0)
(96.19458439 -2.780188442 0)
(95.58787982 -2.569428711 0)
(95.19628096 -2.316378903 0)
(94.93004085 -1.963466929 0)
(94.83796742 -1.651387031 0)
(94.68653751 -1.190315086 0)
(94.63615826 -0.8635667203 0)
(94.60314618 -0.5162777744 0)
(94.58865822 -0.1728968864 0)
(99.43690229 -2.702302836 0)
(98.06996827 -2.659053545 0)
(96.92471732 -2.570355771 0)
(96.03530742 -2.437874721 0)
(95.38843219 -2.26386335 0)
(94.96236829 -2.051998442 0)
(94.66763763 -1.749809385 0)
(94.55261433 -1.478910875 0)
(94.39109883 -1.070759346 0)
(94.33374292 -0.7796260939 0)
(94.29628915 -0.4666504957 0)
(94.28041273 -0.1565984199 0)
(99.41375722 -2.368142318 1.259833172e-35)
(98.01228791 -2.328473865 0)
(96.82951455 -2.253493033 0)
(95.90351968 -2.14307142 0)
(95.22190256 -1.997672772 0)
(94.76413701 -1.818641414 0)
(94.44110701 -1.558610642 0)
(94.30269968 -1.322591537 0)
(94.12871672 -0.9614184735 0)
(94.06294973 -0.7020963596 0)
(94.02009552 -0.4206682338 0)
(94.0021819 -0.1414475313 0)
(99.38908375 -2.083213652 0)
(97.96223535 -2.046647739 0)
(96.74935329 -1.98249291 0)
(95.7931168 -1.88934739 0)
(95.08145914 -1.766593176 0)
(94.59484488 -1.61404314 0)
(94.24457057 -1.389194713 0)
(94.08321411 -1.182716494 0)
(93.89554118 -0.8629338268 0)
(93.820628 -0.6316924658 0)
(93.77187037 -0.3788183172 0)
(93.75150408 -0.1276142502 0)
(99.36363808 -1.840101691 0)
(97.91836577 -1.806255792 0)
(96.68109187 -1.750806453 0)
(95.69964795 -1.67141874 0)
(94.96195998 -1.56681564 0)
(94.44923742 -1.43581476 0)
(94.07319035 -1.24044103 0)
(93.88981121 -1.058962553 0)
(93.68793986 -0.7754067868 0)
(93.60362091 -0.5686908319 0)
(93.54877446 -0.3413133565 0)
(93.52571248 -0.115178384 0)
(99.33791584 -1.633036349 0)
(97.87956982 -1.601567451 0)
(96.62238362 -1.553199248 0)
(95.61975159 -1.484895018 0)
(94.85941886 -1.394971448 0)
(94.32311054 -1.281610025 0)
(93.92290261 -1.11098598 0)
(93.71866324 -0.9506263595 0)
(93.5025318 -0.6985945152 0)
(93.40885328 -0.5130727364 0)
(93.34793879 -0.3081777643 0)
(93.32205815 -0.1041572051 0)
(99.31222587 -1.45748778 0)
(97.84496166 -1.428067785 0)
(96.57142257 -1.385487357 0)
(95.55083054 -1.326168005 0)
(94.77069223 -1.248169059 0)
(94.21305884 -1.149269352 0)
(93.79029747 -0.9994278742 0)
(93.56643087 -0.8568415647 0)
(93.33622754 -0.6320743311 0)
(93.23341744 -0.4646444484 0)
(93.16657926 -0.2793217848 0)
(93.13783765 -0.09452964589 0)
(99.28673584 -1.309800056 0)
(97.81380259 -1.282121142 0)
(96.52676333 -1.244268773 0)
(95.49080943 -1.192241656 0)
(94.69322525 -1.123933699 0)
(94.11620619 -1.03684296 0)
(93.67247597 -0.9044310982 0)
(93.43016685 -0.7766967493 0)
(93.18615211 -0.5753253727 0)
(93.07453796 -0.423113171 0)
(93.00198149 -0.2545877456 0)
(92.97038189 -0.08625067931 0)
(99.26154458 -1.187007996 -1.769129079e-36)
(97.78546984 -1.160795861 0)
(96.48721989 -1.126781724 0)
(95.43799519 -1.080644041 0)
(94.62492954 -1.020187326 0)
(94.03021728 -0.9429521154 0)
(93.56683691 -0.8249434095 0)
(93.30723898 -0.7092864312 0)
(93.04981292 -0.5278539228 0)
(92.92976305 -0.3881444271 0)
(92.8517218 -0.233796667 0)
(92.8173067 -0.07926929357 0)
(99.2367119 -1.086750359 0)
(97.75942798 -1.061745813 0)
(96.45179183 -1.030797181 0)
(95.39096852 -0.9893448028 0)
(94.56406409 -0.9351502382 0)
(93.95328248 -0.8660033954 0)
(93.47100669 -0.7598704073 0)
(93.19527666 -0.6537900879 0)
(92.92439483 -0.4890419635 0)
(92.79626659 -0.3593944993 0)
(92.71293047 -0.216741212 0)
(92.67570499 -0.07351694289 0)
(99.21224746 -1.00715294 0)
(97.7351908 -0.983095208 0)
(96.41959916 -0.9545165502 0)
(95.34848235 -0.9166825116 0)
(94.50904399 -0.8673160395 0)
(93.88342752 -0.8041156943 0)
(93.38316488 -0.707830867 0)
(93.09206266 -0.6092657512 0)
(92.80934252 -0.4588621667 0)
(92.67351265 -0.3365779225 0)
(92.58512929 -0.2033252284 0)
(92.54524709 -0.0689842564 0)
(99.18812883 -0.9467522793 0)
(97.71230664 -0.9233827313 0)
(96.38985401 -0.8965342012 0)
(95.3094293 -0.8613583622 0)
(94.45844462 -0.8155569975 0)
(93.81878775 -0.7567581758 0)
(93.30164635 -0.6681206742 0)
(92.99579053 -0.5758274628 0)
(92.69683773 -0.4349687199 0)
(92.55277748 -0.3193041844 0)
(92.45921283 -0.1931586748 0)
(92.41630597 -0.06548037526 0)
(99.16431061 -0.9044267215 0)
(97.69034628 -0.8814878481 0)
(96.36183071 -0.8557700741 0)
(95.27280921 -0.8223713131 0)
(94.41102623 -0.7789904064 0)
(93.75807203 -0.7232220528 0)
(93.22480936 -0.640239348 0)
(92.90499478 -0.5525213879 0)
(92.60819144 -0.4223836235 0)
(92.45864119 -0.3084746551 0)
(92.36109077 -0.1870595969 0)
(92.31628277 -0.06349345068 0)
(99.14076703 -0.8793757584 0)
(97.66892421 -0.8566100114 0)
(96.33487367 -0.8314432822 0)
(95.23772225 -0.798993468 0)
(94.36565631 -0.7569467952 0)
(93.70004386 -0.702963892 0)
(93.15450506 -0.623931147 0)
(92.82261522 -0.5391822049 0)
(92.44694413 -0.4068444627 0)
(92.28356771 -0.2991777384 0)
(92.1784772 -0.1813819043 0)
(92.12961282 -0.06122103234 0)
(103.1728549 -31.31865166 -6.90453426e-19)
(104.1031686 -30.92579795 -1.060873205e-19)
(108.5516784 -21.82147577 1.814720756e-18)
(95.14644249 -21.05186572 1.811595356e-19)
(102.8210252 -31.17402974 0)
(96.65343613 -21.30033795 0)
(102.5633315 -18.489208 -6.332301285e-19)
(107.5754394 -21.56087663 -5.856094806e-19)
(96.79588302 -13.37888293 -2.127392555e-19)
(95.13264603 -20.28396514 -1.592449747e-19)
(107.4704177 -26.53504379 -5.286458003e-19)
(97.38991033 -26.5234449 3.754863779e-22)
(97.90957857 -27.23857261 -1.820530543e-19)
(98.90692648 -26.72789979 1.405309119e-19)
(103.0143127 -23.73490197 0)
(106.2403241 -25.9451553 6.442890127e-19)
(105.2724068 -32.41772702 4.84038531e-19)
(100.3372019 -29.73074429 -6.264937322e-19)
(105.4677167 -32.52154823 -1.083126919e-20)
(106.4500148 -32.27878533 -4.92454621e-19)
(108.7530119 -29.92610079 -6.267525959e-19)
(99.68496748 -29.17367836 0)
(97.68726833 -14.03106864 5.763516178e-21)
(100.0371904 -13.77723684 0)
(101.5915254 -17.23225458 -2.078725402e-19)
(105.9291247 -28.80096955 -9.37255849e-19)
(108.0265654 -29.68301487 5.84657578e-19)
(106.1503748 -32.15842607 1.021336681e-20)
(100.1562342 -20.05591533 -8.533189404e-20)
(102.1377008 -22.85423342 -1.828358598e-19)
(98.38712256 -26.06637144 -1.438973429e-20)
(95.60558451 -16.29781345 -3.256651058e-20)
(93.11532795 -30.41312102 1.029006273e-17)
(105.8646628 -32.66052672 -9.312474718e-21)
(91.13753352 -24.80663756 6.446599012e-20)
(96.12824207 -24.24674349 -2.554216537e-19)
(95.95216367 -31.3047195 7.831963147e-19)
(98.20104617 -31.84261187 2.003134938e-18)
(104.4593938 -32.02920025 1.529497799e-20)
(93.16130413 -30.77098694 -1.192927832e-18)
(90.81305877 -30.22876434 -1.356858388e-18)
(95.78361609 -31.37355224 -3.46984921e-19)
(93.71445759 -30.94927178 2.248362563e-19)
(81.73964404 -28.26199754 2.567848819e-19)
(97.18092376 -31.26385102 1.310164981e-19)
(96.33793361 -31.47087772 -6.377852193e-19)
(96.97779763 -30.467509 -7.294907465e-20)
(97.2360406 -31.11642076 1.079887232e-19)
(83.0383049 -28.39220136 1.05842155e-20)
(89.93045209 -30.02606749 -2.097624496e-18)
(105.8872558 -32.66727168 -1.745532047e-18)
(93.69937766 -30.6161948 1.75937438e-18)
(94.42485618 -30.91171862 3.259389677e-18)
(108.7049742 -20.8557983 -6.458206052e-19)
(108.8132227 -15.39051122 2.600527492e-19)
(104.1446323 -31.92089352 4.188278214e-19)
(98.56903498 -31.95148477 -4.290787127e-19)
(99.29135632 -31.8347566 0)
(101.679973 -31.88842576 2.07581012e-18)
(105.6663832 -32.60754611 0)
(107.5497738 -32.60277908 -1.12193073e-20)
(109.2750871 -31.60891795 -5.801105006e-19)
(84.90355536 -29.04857814 -9.040011778e-19)
(84.03153632 -28.89696229 -1.429948433e-18)
(81.24189936 -28.17890842 0)
(86.03822596 -29.18838729 6.036236787e-20)
(84.6424223 -28.99284061 -1.650521781e-18)
(96.23338809 -29.25455771 -1.520172663e-19)
(96.79877382 -30.24822032 -5.656738008e-20)
(96.54991296 -30.78145542 -4.736435185e-18)
(97.41411032 -31.15832634 3.697349801e-19)
(96.13718299 -30.86270613 -7.523422948e-18)
(91.83510961 -30.43523647 0)
(87.38028794 -29.52279511 0)
(87.96816984 -29.66965401 0)
(90.56114848 -30.23623199 2.521209397e-18)
(94.99509982 -31.22557276 9.252225837e-19)
(88.7967125 -29.8623251 -3.694206881e-20)
(90.43638011 -30.24415956 0)
(87.86061474 -29.62609269 0)
(87.36296988 -29.60661374 0)
(94.22660896 -31.14228322 -3.692510365e-19)
(88.66714436 -29.83808883 -2.538870096e-19)
(87.66441499 -29.55053592 0)
(82.0476499 -28.32857889 1.452015266e-18)
(84.39369905 -28.64116602 -8.490184404e-19)
(90.2388569 -29.96263908 -9.393827511e-20)
(89.51565833 -29.88584379 0)
(93.55806245 -30.62940486 -2.746990712e-18)
(99.06207409 -31.76738906 0)
(98.6264561 -31.55115653 -1.299024848e-18)
(100.1147423 -32.08175506 5.795586778e-19)
(99.46638193 -31.98462455 -5.235609834e-19)
(93.05445716 -30.64575559 -4.220770844e-18)
(108.4514885 -13.96299086 3.26682701e-19)
(107.0678875 -10.38763624 2.900699223e-19)
(106.550524 -9.4098456 -5.759502106e-19)
(105.0142608 -7.040375015 5.254762522e-19)
(104.5367827 -6.415582337 5.453344468e-19)
(103.2725237 -4.937388766 -6.520547494e-20)
(101.3063411 -29.13438793 3.729466942e-19)
(103.3513858 -27.18516079 2.892825301e-19)
(105.2572905 -28.44146711 1.124325415e-20)
(103.2670817 -17.31227716 2.063523764e-19)
(104.2999594 -13.99047833 -1.994339595e-19)
(107.5314076 -15.19266989 -6.596360511e-19)
(104.3482379 -12.94716431 2.991954635e-19)
(103.9963782 -10.1416547 0)
(106.2412687 -10.42684056 -1.058171059e-20)
(103.7692872 -9.333759531 0)
(102.9439455 -7.27690541 4.210760179e-19)
(104.4797435 -7.163811711 -6.527177934e-19)
(102.6569652 -6.709848123 0)
(101.8411779 -5.322815211 -3.684255636e-19)
(102.9149588 -5.072983811 1.574946653e-20)
(96.72317669 -16.5258329 0)
(98.94531327 -16.56374374 5.676082863e-20)
(99.73659655 -19.10843741 -1.464228021e-20)
(100.5611438 -13.38219046 1.035944612e-19)
(101.5235415 -11.72414044 -1.695843444e-19)
(103.4490754 -13.46022915 8.801641097e-20)
(101.6578345 -11.08936719 -6.503485813e-20)
(101.6787641 -9.191816233 0)
(103.3454436 -9.95357501 -4.861971017e-20)
(101.5875011 -8.593084139 -3.239887715e-19)
(101.165056 -6.993984465 -6.881949254e-19)
(102.466387 -7.242487588 -6.286886713e-19)
(100.9999732 -6.532547399 3.578451882e-19)
(100.4939829 -5.36000028 -6.161486168e-21)
(101.4911586 -5.360428042 2.531380214e-19)
(98.06998247 -10.14440664 0)
(96.86728169 -12.28355721 -3.575593217e-19)
(98.6976404 -10.52445974 1.490086448e-19)
(99.47805006 -10.55759078 -1.336815856e-20)
(99.80674094 -12.8354227 -8.518052964e-21)
(99.67827438 -10.41527643 3.232318517e-20)
(100.0384383 -9.586906074 3.180320443e-21)
(101.0576463 -11.15709396 2.10151661e-19)
(100.0837258 -9.222685761 -3.602247733e-19)
(100.0583226 -8.009619812 1.154646504e-19)
(101.2141284 -8.903382124 1.340409373e-19)
(100.0010943 -7.597823511 0)
(99.74029363 -6.434946211 0)
(100.7756516 -6.871468856 1.885576121e-20)
(99.6373284 -6.083002883 -2.949974309e-19)
(99.31384012 -5.146943489 0)
(100.1812578 -5.324502042 2.884773152e-21)
(99.34092489 -8.297155243 -1.031681341e-19)
(98.4442268 -9.631885246 0)
(99.33766568 -8.393114174 2.166571528e-19)
(99.29823479 -8.43256215 -7.768239976e-21)
(99.42325077 -9.940862575 1.614357902e-20)
(99.27836799 -8.35234521 0)
(99.17591581 -7.872928743 -3.861089484e-19)
(99.7855667 -9.116282719 3.057934846e-19)
(99.12537031 -7.648975887 -3.103669346e-20)
(98.94174439 -6.874272372 9.246680578e-20)
(99.73889092 -7.716037723 -4.032162802e-19)
(98.87075101 -6.599549608 1.004061529e-19)
(98.6412701 -5.786145835 -1.172115074e-19)
(99.43764554 -6.275335089 -1.371755537e-19)
(98.56243126 -5.528439653 0)
(98.33203107 -4.794829538 0)
(99.04995562 -5.067710059 0)
(99.74693568 -6.876538587 -3.094163584e-20)
(99.52268451 -7.900061961 0)
(99.5173183 -6.963214494 0)
(99.08977379 -6.942944494 1.214116855e-19)
(99.25460907 -8.017132785 7.772528503e-21)
(98.95137445 -6.880699138 -3.146613007e-19)
(98.56659835 -6.553430018 -3.326520491e-19)
(99.00623042 -7.509597358 3.621725175e-19)
(98.45272451 -6.409334088 -2.621145794e-20)
(98.14746498 -5.901119348 -1.848768847e-19)
(98.71792996 -6.613338029 -4.394978767e-19)
(98.05641696 -5.717180756 8.554771481e-20)
(97.808403 -5.149085258 0)
(98.41101115 -5.624087385 1.431342284e-20)
(97.73323852 -4.956409135 0)
(97.53624859 -4.380793017 0)
(98.11713918 -4.695424675 0)
(99.73733728 -5.826278171 -9.371979656e-20)
(99.75678096 -6.588029444 -1.195331459e-20)
(99.48982139 -5.86385756 2.81586295e-21)
(98.85222822 -5.818177901 3.726536441e-22)
(99.02781074 -6.633622324 -2.824832266e-21)
(98.65835309 -5.766255673 1.197141646e-21)
(98.12746468 -5.544705989 7.307827568e-20)
(98.44122737 -6.275621083 0)
(97.97605944 -5.447508598 0)
(97.5827162 -5.101121033 0)
(97.98738881 -5.686893325 -3.802296178e-20)
(97.4695464 -4.970675438 0)
(97.17800513 -4.548602684 0)
(97.63432091 -4.994771822 0)
(97.09609133 -4.40080369 0)
(96.89690521 -3.947399842 0)
(97.36305191 -4.272525143 0)
(99.75495999 -4.973681723 0)
(99.73236653 -5.597865793 8.110013234e-20)
(99.47874381 -4.98363741 0)
(98.7088442 -4.941823766 0)
(98.80705105 -5.577156597 -1.387779091e-20)
(98.47164781 -4.907227209 0)
(97.83482915 -4.747174849 0)
(98.04487339 -5.329573291 0)
(97.64950311 -4.676789695 0)
(97.17072784 -4.421729516 0)
(97.46797277 -4.921116316 0)
(97.03513298 -4.324078783 0)
(96.69394079 -4.001936929 0)
(97.04508931 -4.406442787 0)
(96.60096938 -3.88684888 0)
(96.38185205 -3.526221083 0)
(96.75766619 -3.839798766 0)
(99.7842292 -4.270351997 0)
(99.76419002 -4.783917465 0)
(99.48332037 -4.273131604 0)
(98.61056118 -4.237778569 0)
(98.68182036 -4.752179196 0)
(98.34177107 -4.210932976 0)
(97.61843553 -4.089304775 0)
(97.77491949 -4.571050302 0)
(97.40691019 -4.035996886 0)
(96.85918193 -3.841651841 0)
(97.08487961 -4.268003731 0)
(96.70415142 -3.766515524 0)
(96.31566275 -3.5152293 0)
(96.59074032 -3.87461675 0)
(96.21049848 -3.424117388 0)
(95.96371844 -3.133852279 0)
(96.26917686 -3.424658499 0)
(99.79254589 -3.691727839 2.444481961e-35)
(99.7879491 -4.115426983 2.864258888e-35)
(99.47657769 -3.690457986 -2.439486008e-35)
(98.53152658 -3.658044729 0)
(98.58932727 -4.082500547 0)
(98.23952642 -3.636194481 0)
(97.45162802 -3.540052205 0)
(97.57282033 -3.942783597 0)
(97.22000405 -3.49831083 0)
(96.61712708 -3.345995403 0)
(96.79307803 -3.710373204 0)
(96.44572148 -3.286790692 0)
(96.014859 -3.086898169 0)
(96.23409001 -3.402827957 0)
(95.89783599 -3.01363133 0)
(95.62136807 -2.777293206 0)
(95.87172875 -3.040838284 0)
(99.78736145 -3.207988456 0)
(99.79227587 -3.562794558 0)
(99.46192883 -3.204440544 0)
(98.46529235 -3.174080478 0)
(98.51393527 -3.528971595 0)
(98.15592362 -3.155759919 0)
(97.31896235 -3.077484791 0)
(97.41571263 -3.417005057 0)
(97.07174671 -3.043903439 0)
(96.4246842 -2.921672698 0)
(96.56497148 -3.233694275 0)
(96.23963115 -2.874061271 0)
(95.77183387 -2.712276415 0)
(95.94931389 -2.988421628 0)
(95.64389803 -2.652497572 0)
(95.33859288 -2.457750725 0)
(95.54565901 -2.693598704 0)
(99.77371379 -2.7995004 -3.24601549e-35)
(99.784598 -3.099430894 3.77886467e-35)
(99.4423297 -2.794617714 3.239393499e-35)
(98.40842336 -2.766045876 0)
(98.45029512 -3.065586226 0)
(98.08579836 -2.750379573 0)
(97.21082924 -2.685262155 0)
(97.28991631 -2.973373443 0)
(96.9513471 -2.657670474 0)
(96.26866456 -2.557671292 0)
(96.38267302 -2.825401923 0)
(96.07226419 -2.518719289 0)
(95.57262914 -2.385799422 0)
(95.71837137 -2.626362401 0)
(95.43489446 -2.336388202 0)
(95.10265301 -2.174134002 0)
(95.27564619 -2.383238989 0)
(99.75465935 -2.45244073 0)
(99.76936771 -2.707428985 0)
(99.41972301 -2.446730451 0)
(98.35881142 -2.419807033 0)
(98.39540521 -2.674154719 0)
(98.02592617 -2.406217221 0)
(97.12102773 -2.3511617 0)
(97.18685156 -2.596696478 0)
(96.85175895 -2.328116616 0)
(96.14011328 -2.245019204 0)
(96.23423415 -2.475007186 0)
(95.93425651 -2.212690486 0)
(95.4072821 -2.102076022 0)
(95.52844103 -2.311063389 0)
(95.26085577 -2.060769106 0)
(94.90395378 -1.924243755 0)
(95.04981211 -2.108322958 0)
(99.73211817 -2.156501606 -1.086238668e-35)
(99.7492921 -2.374007451 -1.262399144e-35)
(99.39534884 -2.150266941 1.084037496e-35)
(98.31501088 -2.12488388 0)
(98.34736276 -2.341613174 0)
(97.97411915 -2.112963685 0)
(97.0453472 -2.065825535 0)
(97.10091701 -2.275571002 0)
(96.76817111 -2.046325496 0)
(96.03275373 -1.976388402 0)
(96.11148791 -2.173988948 0)
(95.81897746 -1.949231555 0)
(95.26852231 -1.856161728 0)
(95.37033767 -2.037233693 0)
(95.11442779 -1.82128623 0)
(94.73518403 -1.705390911 0)
(94.85920456 -1.866485571 0)
(99.70738875 -1.903854264 0)
(99.72610029 -2.089544576 0)
(99.37004121 -1.89729868 0)
(98.27598012 -1.873358233 0)
(98.30484064 -2.058200752 0)
(97.92881866 -1.862805908 0)
(96.98081621 -1.822027774 0)
(97.02826587 -2.001228225 0)
(96.69718073 -1.805348359 0)
(95.94207542 -1.745850327 0)
(96.008668 -1.915389732 0)
(95.72162652 -1.722799353 0)
(95.15095561 -1.643727535 0)
(95.23732342 -1.80007159 0)
(94.99010565 -1.614017884 0)
(94.59072837 -1.514831432 0)
(94.69698498 -1.654990751 0)
(99.68136062 -1.688430169 0)
(99.70097575 -1.846713823 0)
(99.34435317 -1.681692697 0)
(98.24091596 -1.659081407 0)
(98.26686968 -1.816505067 0)
(97.88884538 -1.649660639 0)
(96.92523646 -1.614057999 0)
(96.96615505 -1.766871374 0)
(96.63627235 -1.599654132 0)
(95.8647168 -1.548546519 0)
(95.92159871 -1.693577409 0)
(95.6386074 -1.528794548 0)
(95.05045912 -1.461007359 0)
(95.12436983 -1.595396205 0)
(94.88365003 -1.435483144 0)
(94.46615995 -1.349926199 0)
(94.55787598 -1.471110948 0)
(99.65462964 -1.505461137 0)
(99.67472524 -1.639803351 0)
(99.31863455 -1.49863313 0)
(98.20916402 -1.47721399 0)
(98.23268975 -1.610736937 0)
(97.85326373 -1.468730966 0)
(96.87691988 -1.437364692 0)
(96.91253245 -1.567104432 0)
(96.58352075 -1.424810831 0)
(95.7981001 -1.380499688 0)
(95.84714108 -1.503926125 0)
(95.56715291 -1.363417527 0)
(94.96381071 -1.304782193 0)
(95.0276066 -1.419577447 0)
(94.79172721 -1.282664796 0)
(94.3579272 -1.208260782 0)
(94.43769302 -1.3122526 0)
(99.62757426 -1.351143256 0)
(99.64788494 -1.464328674 0)
(99.29308353 -1.344282692 0)
(98.18017063 -1.323903989 0)
(98.20167698 -1.43634293 0)
(97.82130475 -1.316195451 0)
(96.83452731 -1.288296992 0)
(96.86581292 -1.397634982 0)
(96.53740579 -1.277250177 0)
(95.74019423 -1.238457801 0)
(95.78287721 -1.342665577 0)
(95.50507827 -1.223541158 0)
(94.8884353 -1.172339438 0)
(94.94399963 -1.269538535 0)
(94.71165777 -1.152996381 0)
(94.2631115 -1.087702758 0)
(94.33307134 -1.17607825 0)
(99.60045206 -1.222358858 0)
(99.62079128 -1.316661488 0)
(99.2678102 -1.215509721 0)
(98.15345644 -1.196029143 0)
(98.17329559 -1.289658735 0)
(97.7923183 -1.188955298 0)
(96.79695721 -1.163881643 0)
(96.82472144 -1.254985123 0)
(96.4966831 -1.154057816 0)
(95.68934546 -1.119732287 0)
(95.72687827 -1.206684545 0)
(95.45060398 -1.106567101 0)
(94.82222489 -1.061389896 0)
(94.8710969 -1.142668024 0)
(94.64124222 -1.044303939 0)
(94.17927555 -0.9864693654 0)
(94.24120634 -1.06052144 0)
(99.57346175 -1.116618764 0)
(99.59368588 -1.193848832 1.772602386e-36)
(99.24288521 -1.109812262 0)
(98.12860763 -1.091092138 0)
(98.14708458 -1.167730701 0)
(97.7657509 -1.084530163 0)
(96.76328567 -1.061726619 0)
(96.78820708 -1.13633907 0)
(96.46031288 -1.052882849 0)
(95.64418024 -1.022129224 0)
(95.67757052 -1.093428241 0)
(95.40225325 -1.010363824 0)
(94.76343788 -0.9700128298 0)
(94.80689488 -1.036779716 0)
(94.57867212 -0.9547435116 0)
(94.10452068 -0.9029579649 0)
(94.1598089 -0.9639107378 0)
(99.5467339 -1.031947776 0)
(99.56675139 -1.093543115 0)
(99.2183298 -1.025200958 0)
(98.10524405 -1.007094158 0)
(98.12264185 -1.06819784 0)
(97.74110594 -1.000931002 0)
(96.73270346 -0.9799004066 0)
(96.7553801 -1.039430424 0)
(96.42738816 -0.9718218006 0)
(95.603505 -0.943852444 0)
(95.63363399 -1.000810058 0)
(95.35874066 -0.9331770012 0)
(94.71053461 -0.8965837385 0)
(94.7497177 -0.9500292472 0)
(94.5223328 -0.882728627 0)
(94.0370464 -0.8356276775 0)
(94.08704794 -0.884626983 0)
(99.52035318 -0.966798424 6.345274756e-36)
(99.54010356 -1.013883329 0)
(99.19412828 -0.9601198857 -6.333122145e-36)
(98.08300764 -0.9424730655 0)
(98.09959295 -0.9891755241 0)
(97.7179247 -0.9366023049 0)
(96.70448656 -0.9168870278 0)
(96.72545442 -0.9624350146 0)
(96.39710146 -0.909378709 0)
(95.56626316 -0.8834857974 0)
(95.59391155 -0.9271299476 0)
(95.31892695 -0.8736234589 0)
(94.66212755 -0.8398375544 0)
(94.6980616 -0.8808754062 0)
(94.47074967 -0.8270412452 0)
(93.97501492 -0.7834682524 0)
(94.02108598 -0.821152407 0)
(99.49437527 -0.9199695122 -2.038122393e-36)
(99.51381933 -0.9534130304 0)
(99.17024011 -0.9133619348 2.034253385e-36)
(98.06155363 -0.8960195115 0)
(98.07758393 -0.9291964298 0)
(97.6957722 -0.8903398819 0)
(96.67796732 -0.8715120601 0)
(96.69772261 -0.9039285651 0)
(96.36871251 -0.864394003 0)
(95.53149985 -0.8399304621 0)
(95.55737536 -0.8710574353 0)
(95.28178723 -0.8306303945 0)
(94.61699655 -0.7987996161 0)
(94.65058256 -0.8281385263 0)
(94.42264632 -0.7867477281 0)
(93.91705155 -0.7456895876 0)
(93.96019473 -0.7726705599 0)
(99.46881154 -0.8905980044 0)
(99.48794778 -0.9110174014 0)
(99.14659361 -0.8840553631 0)
(98.0405439 -0.8668568744 0)
(98.05627352 -0.8871352232 0)
(97.67422873 -0.8612691329 0)
(96.65251775 -0.8429170356 0)
(96.67152929 -0.8628174797 0)
(96.34152971 -0.8360183767 0)
(95.49833591 -0.8123773594 0)
(95.52309268 -0.8315679196 0)
(95.24638036 -0.8034055412 0)
(94.57402275 -0.7727306296 0)
(94.60609399 -0.7909030664 0)
(94.37684989 -0.7611248545 0)
(93.86186035 -0.7216029338 0)
(93.90303951 -0.7383726918 0)
(99.44078344 -0.8775083369 -1.823666675e-37)
(99.46254761 -0.8859050524 0)
(99.12036995 -0.8711357182 1.821223721e-37)
(98.0171143 -0.8539497585 0)
(98.03535977 -0.8621902519 0)
(97.65029236 -0.8483329782 0)
(96.62453834 -0.8300036336 0)
(96.64628118 -0.8383129068 0)
(96.31171255 -0.8231544592 0)
(95.46210399 -0.7997627057 0)
(95.49022469 -0.8079178626 0)
(95.20772671 -0.7909008309 0)
(94.52716707 -0.7606142072 0)
(94.56351813 -0.7684872378 0)
(94.32692501 -0.7491496833 0)
(93.80163606 -0.7099815865 0)
(93.84836091 -0.7176185259 0)
(103.4949987 -31.56406459 0)
(102.7145113 -31.84929418 0)
(102.4370066 -31.65821477 3.416364761e-19)
(104.8392233 -30.22852558 4.201198435e-19)
(105.5667061 -30.58349556 -7.549986519e-19)
(104.8230905 -31.29223157 2.619942231e-19)
(111.711247 -22.58439809 8.118986295e-19)
(111.6388334 -26.41915465 8.612001482e-19)
(107.8884148 -25.30648153 0)
(95.82438992 -23.42975313 -1.636688535e-20)
(91.18788861 -23.76702632 4.574462212e-19)
(99.39357545 -31.757352 6.202555694e-19)
(99.18362876 -31.28753663 -1.088736353e-20)
(101.6943147 -30.75110332 3.885972993e-19)
(98.08451775 -20.9849272 -2.741763964e-20)
(98.57847594 -22.23374978 4.481325642e-20)
(96.80516039 -23.22600771 1.773414693e-19)
(104.322464 -19.64107607 0)
(102.8667748 -21.99075975 0)
(100.8939619 -19.54018109 0)
(106.7330874 -24.78123296 4.712830326e-19)
(103.7089395 -22.77047433 -6.636054924e-19)
(105.0692523 -20.0742226 0)
(95.9265222 -15.4172823 -8.249531979e-21)
(94.92535965 -18.49912996 -3.671666135e-19)
(108.7519285 -27.04694152 4.981837595e-19)
(108.4050332 -28.97033433 -5.791867654e-19)
(106.3639925 -28.1183304 -4.900020467e-19)
(109.1072064 -29.18473825 -6.437284323e-19)
(109.8245711 -26.98952277 7.576969542e-21)
(107.9154096 -32.69498807 0)
(109.0320199 -32.49040253 0)
(96.16667733 -26.95437547 -3.814144742e-22)
(95.70418567 -26.16748927 0)
(96.91543435 -25.79406857 1.084196596e-20)
(98.46962206 -27.92322035 -2.189380779e-20)
(97.20143659 -28.42371325 5.638979558e-20)
(96.66928829 -27.70456945 4.355861139e-21)
(101.0740885 -25.19627029 3.466812044e-19)
(102.7470777 -26.78562661 0)
(100.6610484 -28.5840798 1.156199841e-19)
(103.9941155 -24.55611519 -3.205629546e-19)
(103.2067268 -25.62608497 3.236783012e-19)
(102.1541706 -24.70834592 1.018047954e-19)
(105.7262945 -27.78971244 1.00027143e-20)
(104.3705078 -26.47346386 -5.050472654e-19)
(105.0734702 -25.29450465 3.971568694e-19)
(103.7030636 -32.51997876 -7.30116109e-19)
(103.6926696 -32.47275728 0)
(105.0370415 -32.30960307 -4.676427796e-19)
(91.08696833 -29.94135756 -8.637568798e-21)
(90.70276809 -30.00567283 -6.653205449e-20)
(84.92238877 -28.71666943 0)
(101.0135804 -30.26204934 1.312373804e-19)
(99.01821034 -31.09669331 -1.101448208e-20)
(98.30844797 -30.36558561 8.905546187e-20)
(105.6509788 -32.61437554 -2.244546364e-20)
(103.4781019 -32.60135601 5.182295515e-19)
(103.6063053 -32.55589578 -5.141503337e-19)
(107.7877291 -31.44895777 7.693056111e-19)
(108.5336463 -31.67138011 4.098000933e-19)
(107.3220604 -32.55142481 9.759556267e-22)
(109.4920287 -30.14506285 -6.726973378e-19)
(109.0882686 -30.92113442 1.382641756e-18)
(108.3368165 -30.69451882 9.736440764e-22)
(109.8403891 -31.12137589 -7.026092012e-19)
(110.2356982 -30.33789453 0)
(98.34393753 -29.74615181 0)
(97.76403991 -29.11199277 -2.352903401e-20)
(99.06134786 -28.573187 6.068783168e-20)
(91.95306148 -29.66191929 -9.307337318e-21)
(91.52991942 -29.79607407 -7.069265541e-21)